
------- case.scf0 --------
 Flat Integration
 New Mode for Coulomb Integral
 Consistent 3/8+Simpson combinations
 Extension of core to zero
 LDM version in phi
 Fifth-order quadrature in outwin


            ---------
:ITE023: 23. ITERATION
            ---------

:NATO :    1 INDEPENDENT AND    1 TOTAL ATOMS IN UNITCELL
       SUBSTANCE: blebleble                                                   

       LATTICE                      = F   
:POT  : POTENTIAL OPTION EX_LDA EC_LDA VX_LDA VC_LDA
:LAT  : LATTICE CONSTANTS= 10.27741 10.27741 10.27741    1.571    1.571    1.571
:VOL  : UNIT CELL VOLUME =     271.38850
       MODE OF CALCULATION IS       = RELA
       NON-SPINPOLARIZED CALCULATION
:IFFT  : FFT-parameters:   80   80   80 Factor: 2.00


   CONVERGENCE PARAMETER FOR PSEUDOCHARGE: NCON=  9
   MAXIMAL VALUE OF RMT(JATOM)*ABSK(NKK) : RK  =29.95033


:VKCOUL :  VK-COUL convergence: 0.104E-06
       ATOMNUMBER=  1 Pr         VCOUL-ZERO =  0.14421E+00
:FIT001: LUSE= 13 SIGMA OF V-XC FIT FOR ATOM  1  0.3842711E-04
:FIT001: LUSE= 13 SIGMA OF V-XC FIT FOR ATOM  1  0.3842711E-04
:DEN  : DENSITY INTEGRAL  =         -7067.03992329   (Ry)
       ELS_POTENTIAL_AT Z=0 and Z=0.5:  -2.38034  -2.38034
       ELS_POTENTIAL_AT Y=0 and Y=0.5:   0.00000   0.00000
:VZERO:v0,v0c,v0x  -3.32299  -2.38034  -0.94265 v5,v5c,v5x  -3.32299  -2.38034  -0.94265
:VZERY:v0,v0c,v0x  -0.67689   0.00000  -0.67689 v5,v5c,v5x  -0.67689   0.00000  -0.67689
:VZERX:v0,v0c,v0x  -0.67689   0.00000  -0.67689 v5,v5c,v5x  -0.67689   0.00000  -0.67689

------- case.scf1 --------
:LMAX-WF:   10   Non-Spherical LMAX:   4

          ATOMIC SPHERE DEPENDENT PARAMETERS FOR ATOM  Pr        
:e__0001: OVERALL ENERGY PARAMETER IS    0.2967
          OVERALL BASIS SET ON ATOM IS LAPW
:E0_0001: E( 0)=    0.2967
             APW+lo
:E0_0001: E( 0)=   -2.1863   E(BOTTOM)=   -2.568   E(TOP)=   -1.805  4  5   162
             LOCAL ORBITAL
:E1_0001: E( 1)=    0.6967
             APW+lo
:E1_0001: E( 1)=   -0.7993   E(BOTTOM)=   -1.447   E(TOP)=   -0.152  3  4   165
             LOCAL ORBITAL
:E3_0001: E( 3)=    0.4924   E(BOTTOM)=    0.349   E(TOP)=    0.636  0  1   116
             APW+lo
:E2_0001: E( 2)=    0.2967   E(BOTTOM)=    0.128   E(TOP)= -200.000  2 -1    95
             APW+lo

       K=   0.00000   0.00000   0.00000            1
:RKM  : MATRIX SIZE   189LOs:  20  RKM= 7.94  WEIGHT= 1.00  PGR:    
       EIGENVALUES ARE:
:EIG00001:      -2.1431137   -0.7880394   -0.7880394   -0.7880394    0.2460227
:EIG00006:       0.4954612    0.5095993    0.5095993    0.5095993    0.5300507
:EIG00011:       0.5300507    0.5300507    0.6211707    0.6211707    0.6211707
:EIG00016:       0.7713452    0.7713452    1.1645178    1.3711905    1.3711905
:EIG00021:       1.3711905    1.4765264    2.0636184    2.0636184    2.0636184
:EIG00026:       2.1185401    2.1185401    2.1185401    2.3462393    2.3462393
:EIG00031:       2.6541652    2.8298836    2.8298836    2.8298836    3.2425755
:EIG00036:       3.2425755    3.4703750    3.4703750    3.4703750    3.5064354
:EIG00041:       3.5064354    3.5064354    3.6645081    3.6645081    3.6645081
:EIG00046:       3.8747876    3.9218179    3.9218179    3.9218179    4.0179069
 
:EIG00051:       4.0179069    4.0392823    4.0392823    4.0392823    4.0584815
:EIG00056:       4.0584815    4.0584815    4.1626011    4.2086429    4.3383512
:EIG00061:       4.3383512    4.3383512    4.4076235    4.4076235    4.4076235
:EIG00066:       4.5946277    5.6027626    5.6027626    5.6140143    5.8855191
:EIG00071:       5.8855191    5.8855191    6.3006676    6.3006676    6.4649769
:EIG00076:       6.4649769    6.4649769    6.5308804    6.5308804    6.5308804
:EIG00081:       6.8415228    6.8415228    6.8415228    6.8417293    6.8417293
:EIG00086:       6.8417293    6.8800352    6.8800352    6.9403891    6.9403891
:EIG00091:       6.9403891    7.0376946    7.0376946    7.0376946    7.0459159
:EIG00096:       7.0459159    7.0459159    7.1095649    7.2054227    7.2501634
 
:EIG00101:       7.2501634    7.3067170    7.3067170    7.3067170    7.3318920
:EIG00106:       7.3318920    7.3318920    7.3414443    7.3414443    7.3414443
:EIG00111:       7.4124093    7.4124093    7.6478723    7.7004871    7.9965650
:EIG00116:       7.9965650    7.9965650
       ********************************************************

:KPT   :      NUMBER OF K-POINTS:   165

------- case.scfso --------
   0.0   0.0 angle (M,z), angle (M,x) deg
 
        SPIN-ORBIT EIGENVALUES:
     K=   0.00000   0.00000   0.00000            1
      MATRIX SIZE=  234   WEIGHT= 1.00
     EIGENVALUES ARE:
          -2.1431137   -2.1431137   -0.9339067   -0.9339067   -0.7197799
          -0.7197799   -0.7197799   -0.7197799    0.2460227    0.2460227
           0.4902836    0.4902836    0.4983281    0.4983281    0.4983281
           0.4983281    0.5212557    0.5212557    0.5310077    0.5310077
           0.5375104    0.5375104    0.5375104    0.5375104    0.6174732
           0.6174732    0.6174732    0.6174732    0.6273572    0.6273572
           0.7717463    0.7717463    0.7717463    0.7717463    1.1645690
           1.1645690    1.3659302    1.3659302    1.3735708    1.3735708

           1.3735708    1.3735708    1.4765264    1.4765264    2.0510697
           2.0510697    2.0588063    2.0588063    2.0588063    2.0588063
           2.0727501    2.0727501    2.1531938    2.1531938    2.1531938
           2.1531938    2.3465225    2.3465225    2.3465225    2.3465225
           2.6541652    2.6541652    2.8294504    2.8294504    2.8301138
           2.8301138    2.8301138    2.8301138    3.2425528    3.2425528
           3.2425528    3.2425528    3.4690815    3.4690815    3.4690815
           3.4690815    3.4731996    3.4731996    3.4778345    3.4778345

           3.5220187    3.5220187    3.5220187    3.5220187    3.6645010
           3.6645010    3.6645116    3.6645116    3.6645116    3.6645116
           3.8747876    3.8747876    3.9217770    3.9217770    3.9217770
           3.9217770    3.9219047    3.9219047    4.0179069    4.0179069
           4.0179069    4.0179069    4.0391303    4.0391303    4.0393406
           4.0393406    4.0393406    4.0393406    4.0582039    4.0582039
           4.0582039    4.0582039    4.0590864    4.0590864    4.1626073
           4.1626073    4.2086429    4.2086429    4.3382941    4.3382941

           4.3382941    4.3382941    4.3384691    4.3384691    4.4068882
           4.4068882    4.4080396    4.4080396    4.4080396    4.4080396

       ********************************************************

------- case.scf2 --------
:GMA  : POTENTIAL AND CHARGE CUT-OFF  12.00 Ry**.5




:POS001: at.nr.   1 position = 0.00000 0.00000 0.50000  multiplicity =  1

       lmmax  5
       lm=   0 0  4 0  4 4  6 0  6 4
:FER gutzwiller fermi energy   0.51095
:EORB         -0.078622321
:SUM sum of gutz band energies         -6.828527941

:CHA001: total charge inside sphere   1 =    10.051009
:PCS001: partial charges sphere =  1 s,p,d,f,      d-eg,d-t2g 
:QTL001: 2.0254 5.3628 0.5940 2.0685 0.0000 0.0000 0.0000 0.2126 0.3814 0.0000 0.0000 0.0000

:CHA  : total charge inside unit cell =       6.500000

------- case.scfc --------

        1.ATOM      Pr                   14 CORE STATES
:1S 001: 1S               -3067.099332085 Ry
:2S 001: 2S                -492.849247526 Ry
:2PP001: 2P*               -465.949169489 Ry
:2P 001: 2P                -430.551391735 Ry
:3S 001: 3S                -105.932202949 Ry
:3PP001: 3P*                -94.470390596 Ry
:3P 001: 3P                 -87.462279093 Ry
:3DD001: 3D*                -67.390254577 Ry
:3D 001: 3D                 -65.878574493 Ry
:4S 001: 4S                 -20.611540671 Ry
:4PP001: 4P*                -16.318850761 Ry
:4P 001: 4P                 -14.792118061 Ry
:4DD001: 4D*                 -7.726524982 Ry
:4D 001: 4D                  -7.457366620 Ry

------- case.scfm --------
:CINT001 Core Integral Atom   1   45.999513

       DENSITY AT NUCLEUS
        JATOM        VALENCE       SEMI-CORE          CORE           TOTAL
:RTO001:   1      648.340458        0.000000   656824.652674   657472.993132
 :WARNING: K-list has changed
     
       CHARGES OF NEW CHARGE DENSITY
:NTO   : INTERSTITIAL CHARGE =     2.949051
:NPC   : PW Pseudocharge     =     7.555004
:NTO001: CHARGE SPHERE  1    =    56.050522

:NEC01: NUCLEAR AND ELECTRONIC CHARGE     59.00000    58.99957
     
       CHARGES OF OLD CHARGE DENSITY
:OTO   : INTERSTITIAL CHARGE =     2.948907
:OPC   : PW Pseudocharge     =     7.558308
:OTO001: CHARGE SPHERE  1    =    56.051093

:NEC02: NUCLEAR AND ELECTRONIC CHARGE     59.00000    59.00000
     
       CONVERGENCE TEST
:DTO001: DIFFERENCE IN SPHERE  1 =  0.0136583

:DIS  :  CHARGE DISTANCE       ( 0.0136583 for atom    1 spin 1)      0.0136583
 PW Mixed is           59
 
******************************************************
* MULTISECANT MIXING VER9 RELEASE 10.4.0              *
* Standard Mode with controls                        *
* Fixed density scale                                *
* Regularization       1.000E-04                     *
* Trust Upper Limit    5.000E+00                     *
* Max Number of Memory Steps    8                    *
******************************************************
 
:PWTMP   2.0594E+02  1.2500E+02  2.7139E+02
:PLANE:  PW TOTAL      2.8270 DISTAN   1.70E-02  6.00E-01 %
:CHARG:  CLM/ATOM    977.1785 DISTAN   4.56E-01  4.67E-02 %
 
Step History
        DMIX         DMIXT        Red     Pred      Trust     Lambda    MagRel    MagAbs     Beta
  1   3.5000E-02   3.5000E-02 -1.00E+00  1.00E+00 -1.00E+01  1.00E+00  3.50E-02  3.50E-02  1.00E+00
:INFO :  Note, Pratt in use
:TRUST:  Step 3.75E-02  Charge 7.50E-02 (e) CTO  2.50E-01 (e) PW  3.50E-01 (e)
:DIRM :  MEMORY  0/ 8 SCALE   1.000
Performing Pseudo Compensation
Final Pseudo Compensation Rescaling     1.00000E+00
:MIX  :   PRATT  REGULARIZATION:  1.00E-04 GREED: 0.02500                  
     
       CHARGES OF MIXED CHARGE DENSITY
:CTO   : INTERSTITIAL CHARGE =     2.948921
:CPC   : PW Pseudocharge     =     7.553126
:CTO001: CHARGE SPHERE  1    =    56.051079

:NEC03: NUCLEAR AND ELECTRONIC CHARGE     59.00000    59.00000

PW CHANGE     H    K    L      Current       Change    Residue
:PTO001:      0    0    0  3.86974646E-02 -1.904E-05 -6.032E-06
:PTO002:     -1   -1   -1 -1.25924253E-01  1.877E-04  2.296E-04
:PTO003:      0    0   -2  7.56467771E-02 -1.413E-04 -2.091E-07
:PTO004:      0   -2   -2  6.82912484E-02 -3.140E-04 -5.750E-04
:PTO005:     -1   -1   -3 -6.82192907E-02  6.060E-04  5.991E-04
:PTO006:     -2   -2   -2  1.77467798E-02 -1.929E-04  6.679E-05
:PTO007:      0    0   -4  3.71148643E-03 -1.359E-04 -5.519E-05
:PTO008:     -1   -3   -3 -3.97794716E-03  5.142E-04  8.592E-04
:PTO009:      0   -2   -4  8.76583947E-04 -5.009E-04 -9.787E-04
:PTO010:     -2   -2   -4 -5.70200282E-03 -4.147E-04 -2.460E-04
:PTO011:     -3   -3   -3  2.52644392E-03  1.154E-04 -1.532E-04
:PTO012:     -1   -1   -5  7.27073452E-03  3.654E-04  3.118E-04

:ENE  : ********** TOTAL ENERGY IN Ry =       -18472.11446218


------- case.scf0 --------
 Flat Integration
 New Mode for Coulomb Integral
 Consistent 3/8+Simpson combinations
 Extension of core to zero
 LDM version in phi
 Fifth-order quadrature in outwin


            ---------
:ITE024: 24. ITERATION
            ---------

:NATO :    1 INDEPENDENT AND    1 TOTAL ATOMS IN UNITCELL
       SUBSTANCE: blebleble                                                   

       LATTICE                      = F   
:POT  : POTENTIAL OPTION EX_LDA EC_LDA VX_LDA VC_LDA
:LAT  : LATTICE CONSTANTS= 10.27741 10.27741 10.27741    1.571    1.571    1.571
:VOL  : UNIT CELL VOLUME =     271.38850
       MODE OF CALCULATION IS       = RELA
       NON-SPINPOLARIZED CALCULATION
:IFFT  : FFT-parameters:   80   80   80 Factor: 2.00


   CONVERGENCE PARAMETER FOR PSEUDOCHARGE: NCON=  9
   MAXIMAL VALUE OF RMT(JATOM)*ABSK(NKK) : RK  =29.95033


:VKCOUL :  VK-COUL convergence: 0.102E-06
       ATOMNUMBER=  1 Pr         VCOUL-ZERO =  0.14439E+00
:FIT001: LUSE= 13 SIGMA OF V-XC FIT FOR ATOM  1  0.3744887E-04
:FIT001: LUSE= 13 SIGMA OF V-XC FIT FOR ATOM  1  0.3744887E-04
:DEN  : DENSITY INTEGRAL  =         -7067.05867486   (Ry)
       ELS_POTENTIAL_AT Z=0 and Z=0.5:  -2.38157  -2.38157
       ELS_POTENTIAL_AT Y=0 and Y=0.5:   0.00000   0.00000
:VZERO:v0,v0c,v0x  -3.32383  -2.38157  -0.94226 v5,v5c,v5x  -3.32383  -2.38157  -0.94226
:VZERY:v0,v0c,v0x  -0.67689   0.00000  -0.67689 v5,v5c,v5x  -0.67689   0.00000  -0.67689
:VZERX:v0,v0c,v0x  -0.67689   0.00000  -0.67689 v5,v5c,v5x  -0.67689   0.00000  -0.67689

------- case.scf1 --------
:LMAX-WF:   10   Non-Spherical LMAX:   4

          ATOMIC SPHERE DEPENDENT PARAMETERS FOR ATOM  Pr        
:e__0001: OVERALL ENERGY PARAMETER IS    0.2967
          OVERALL BASIS SET ON ATOM IS LAPW
:E0_0001: E( 0)=    0.2967
             APW+lo
:E0_0001: E( 0)=   -2.1861   E(BOTTOM)=   -2.568   E(TOP)=   -1.804  4  5   160
             LOCAL ORBITAL
:E1_0001: E( 1)=    0.6967
             APW+lo
:E1_0001: E( 1)=   -0.7991   E(BOTTOM)=   -1.446   E(TOP)=   -0.152  3  4   163
             LOCAL ORBITAL
:E3_0001: E( 3)=    0.4926   E(BOTTOM)=    0.349   E(TOP)=    0.636  0  1   123
             APW+lo
:E2_0001: E( 2)=    0.2967   E(BOTTOM)=    0.129   E(TOP)= -200.000  2 -1    93
             APW+lo

       K=   0.00000   0.00000   0.00000            1
:RKM  : MATRIX SIZE   189LOs:  20  RKM= 7.94  WEIGHT= 1.00  PGR:    
       EIGENVALUES ARE:
:EIG00001:      -2.1429202   -0.7878481   -0.7878481   -0.7878481    0.2462095
:EIG00006:       0.4956696    0.5098229    0.5098229    0.5098229    0.5302806
:EIG00011:       0.5302806    0.5302806    0.6213524    0.6213524    0.6213524
:EIG00016:       0.7715349    0.7715349    1.1647083    1.3713863    1.3713863
:EIG00021:       1.3713863    1.4767228    2.0638085    2.0638085    2.0638085
:EIG00026:       2.1187310    2.1187310    2.1187310    2.3464193    2.3464193
:EIG00031:       2.6543583    2.8300681    2.8300681    2.8300681    3.2427766
:EIG00036:       3.2427766    3.4705709    3.4705709    3.4705709    3.5066260
:EIG00041:       3.5066260    3.5066260    3.6646985    3.6646985    3.6646985
:EIG00046:       3.8749818    3.9219974    3.9219974    3.9219974    4.0180867
 
:EIG00051:       4.0180867    4.0394570    4.0394570    4.0394570    4.0586804
:EIG00056:       4.0586804    4.0586804    4.1627916    4.2088330    4.3385415
:EIG00061:       4.3385415    4.3385415    4.4078105    4.4078105    4.4078105
:EIG00066:       4.5948220    5.6029596    5.6029596    5.6142066    5.8857110
:EIG00071:       5.8857110    5.8857110    6.3008727    6.3008727    6.4651923
:EIG00076:       6.4651923    6.4651923    6.5310744    6.5310744    6.5310744
:EIG00081:       6.8417143    6.8417143    6.8417143    6.8419372    6.8419372
:EIG00086:       6.8419372    6.8802193    6.8802193    6.9405775    6.9405775
:EIG00091:       6.9405775    7.0378900    7.0378900    7.0378900    7.0461037
:EIG00096:       7.0461037    7.0461037    7.1097671    7.2056019    7.2503653
 
:EIG00101:       7.2503653    7.3069084    7.3069084    7.3069084    7.3320787
:EIG00106:       7.3320787    7.3320787    7.3416422    7.3416422    7.3416422
:EIG00111:       7.4126014    7.4126014    7.6480565    7.7006922
       ********************************************************

:KPT   :      NUMBER OF K-POINTS:   165

------- case.scfso --------
   0.0   0.0 angle (M,z), angle (M,x) deg
 
        SPIN-ORBIT EIGENVALUES:
     K=   0.00000   0.00000   0.00000            1
      MATRIX SIZE=  228   WEIGHT= 1.00
     EIGENVALUES ARE:
          -2.1429202   -2.1429202   -0.9336991   -0.9336991   -0.7195852
          -0.7195852   -0.7195852   -0.7195852    0.2462095    0.2462095
           0.4904950    0.4904950    0.4985532    0.4985532    0.4985532
           0.4985532    0.5214792    0.5214792    0.5312346    0.5312346
           0.5377392    0.5377392    0.5377392    0.5377392    0.6176550
           0.6176550    0.6176550    0.6176550    0.6275388    0.6275388
           0.7719360    0.7719360    0.7719360    0.7719360    1.1647594
           1.1647594    1.3661268    1.3661268    1.3737665    1.3737665

           1.3737665    1.3737665    1.4767228    1.4767228    2.0512715
           2.0512715    2.0589965    2.0589965    2.0589965    2.0589965
           2.0729399    2.0729399    2.1533876    2.1533876    2.1533876
           2.1533876    2.3467025    2.3467025    2.3467025    2.3467025
           2.6543583    2.6543583    2.8296349    2.8296349    2.8302984
           2.8302984    2.8302984    2.8302984    3.2427539    3.2427539
           3.2427539    3.2427539    3.4692775    3.4692775    3.4692775
           3.4692775    3.4733953    3.4733953    3.4780306    3.4780306

           3.5222107    3.5222107    3.5222107    3.5222107    3.6646915
           3.6646915    3.6647021    3.6647021    3.6647021    3.6647021
           3.8749818    3.8749818    3.9219564    3.9219564    3.9219564
           3.9219564    3.9220841    3.9220841    4.0180867    4.0180867
           4.0180867    4.0180867    4.0393051    4.0393051    4.0395153
           4.0395153    4.0395153    4.0395153    4.0584028    4.0584028
           4.0584028    4.0584028    4.0592854    4.0592854    4.1627977
           4.1627977    4.2088330    4.2088330    4.3384844    4.3384844

           4.3384844    4.3384844    4.3386594    4.3386594    4.4070757
           4.4070757    4.4082266    4.4082266    4.4082266    4.4082266

       ********************************************************

------- case.scf2 --------
:GMA  : POTENTIAL AND CHARGE CUT-OFF  12.00 Ry**.5




:POS001: at.nr.   1 position = 0.00000 0.00000 0.50000  multiplicity =  1

       lmmax  5
       lm=   0 0  4 0  4 4  6 0  6 4
:FER gutzwiller fermi energy   0.51205
:EORB         -0.081125357
:SUM sum of gutz band energies         -6.823660067

:CHA001: total charge inside sphere   1 =    10.039973
:PCS001: partial charges sphere =  1 s,p,d,f,      d-eg,d-t2g 
:QTL001: 2.0255 5.3635 0.5994 2.0513 0.0000 0.0000 0.0000 0.2144 0.3850 0.0000 0.0000 0.0000

:CHA  : total charge inside unit cell =       6.499997

------- case.scfc --------

        1.ATOM      Pr                   14 CORE STATES
:1S 001: 1S               -3067.098846229 Ry
:2S 001: 2S                -492.848792869 Ry
:2PP001: 2P*               -465.948707446 Ry
:2P 001: 2P                -430.550932434 Ry
:3S 001: 3S                -105.931823256 Ry
:3PP001: 3P*                -94.470006576 Ry
:3P 001: 3P                 -87.461899915 Ry
:3DD001: 3D*                -67.389863182 Ry
:3D 001: 3D                 -65.878184697 Ry
:4S 001: 4S                 -20.611271939 Ry
:4PP001: 4P*                -16.318585088 Ry
:4P 001: 4P                 -14.791858478 Ry
:4DD001: 4D*                 -7.726272747 Ry
:4D 001: 4D                  -7.457116180 Ry

------- case.scfm --------
:CINT001 Core Integral Atom   1   45.999513

       DENSITY AT NUCLEUS
        JATOM        VALENCE       SEMI-CORE          CORE           TOTAL
:RTO001:   1      648.362324        0.000000   656824.625934   657472.988258
     
       CHARGES OF NEW CHARGE DENSITY
:NTO   : INTERSTITIAL CHARGE =     2.959999
:NPC   : PW Pseudocharge     =     7.558743
:NTO001: CHARGE SPHERE  1    =    56.039486

:NEC01: NUCLEAR AND ELECTRONIC CHARGE     59.00000    58.99948
     
       CHARGES OF OLD CHARGE DENSITY
:OTO   : INTERSTITIAL CHARGE =     2.948921
:OPC   : PW Pseudocharge     =     7.553126
:OTO001: CHARGE SPHERE  1    =    56.051079

:NEC02: NUCLEAR AND ELECTRONIC CHARGE     59.00000    59.00000
     
       CONVERGENCE TEST
:DTO001: DIFFERENCE IN SPHERE  1 =  0.0194166

:DIS  :  CHARGE DISTANCE       ( 0.0194166 for atom    1 spin 1)      0.0194166
 PW Mixed is           59
 
******************************************************
* MULTISECANT MIXING VER9 RELEASE 10.4.0              *
* Slow Mode, cautious                                *
* Fixed density scale                                *
* Regularization       1.000E-04                     *
* Step Trust Radius    0.75000                       *
* Trust Upper Limit    2.000E+00                     *
* Max Number of Memory Steps   12                    *
******************************************************
 
:PWTMP   2.0594E+02  1.2500E+02  2.7139E+02
:PLANE:  PW TOTAL      2.8219 DISTAN   1.13E-02  4.02E-01 %
:CHARG:  CLM/ATOM    977.1786 DISTAN   4.48E-01  4.59E-02 %
 
Step History
        DMIX         DMIXT        Red     Pred      Trust     Lambda    MagRel    MagAbs     Beta
  1   3.5000E-02   3.5000E-02 -1.00E+00  1.00E+00 -1.00E+01  1.00E+00  3.50E-02  3.50E-02  1.00E+00
  2   2.5000E-02   2.5000E-02 -1.00E+00  1.00E+00 -1.00E+01  1.00E+00  2.50E-02  1.14E-02  1.00E+00
:JACOBIANS    1.232E-01   8.639E-02
  
:TRUST:  Step 2.86E-02  Charge 7.50E-02 (e) CTO  2.50E-01 (e) PW  3.50E-01 (e)
:DIRM :  MEMORY  1/12 SCALE   1.000
:MIX  :   PRATT  REGULARIZATION:  1.00E-04 GREED: 0.02855  Expand 1.14  0.0286                
     
       CHARGES OF MIXED CHARGE DENSITY
:CTO   : INTERSTITIAL CHARGE =     2.949007
:CPC   : PW Pseudocharge     =     7.522043
:CTO001: CHARGE SPHERE  1    =    56.050993

:NEC03: NUCLEAR AND ELECTRONIC CHARGE     59.00000    59.00000

PW CHANGE     H    K    L      Current       Change    Residue
:PTO001:      0    0    0  3.85832495E-02 -1.142E-04  6.826E-05
:PTO002:     -1   -1   -1 -1.24798781E-01  1.125E-03  3.368E-05
:PTO003:      0    0   -2  7.47994906E-02 -8.473E-04  1.388E-04
:PTO004:      0   -2   -2  6.64080609E-02 -1.883E-03 -2.605E-04
:PTO005:     -1   -1   -3 -6.45849605E-02  3.634E-03  9.706E-06
:PTO006:     -2   -2   -2  1.65900526E-02 -1.157E-03  2.592E-04
:PTO007:      0    0   -4  2.89657674E-03 -8.149E-04  7.487E-05
:PTO008:     -1   -3   -3 -8.94162701E-04  3.084E-03  3.579E-04
:PTO009:      0   -2   -4 -2.12737736E-03 -3.004E-03 -4.963E-04
:PTO010:     -2   -2   -4 -8.18936937E-03 -2.487E-03  1.602E-04
:PTO011:     -3   -3   -3  3.21836568E-03  6.919E-04 -2.686E-04
:PTO012:     -1   -1   -5  9.46216485E-03  2.191E-03 -4.132E-05

:ENE  : ********** TOTAL ENERGY IN Ry =       -18472.11463938


------- case.scf0 --------
 Flat Integration
 New Mode for Coulomb Integral
 Consistent 3/8+Simpson combinations
 Extension of core to zero
 LDM version in phi
 Fifth-order quadrature in outwin


            ---------
:ITE025: 25. ITERATION
            ---------

:NATO :    1 INDEPENDENT AND    1 TOTAL ATOMS IN UNITCELL
       SUBSTANCE: blebleble                                                   

       LATTICE                      = F   
:POT  : POTENTIAL OPTION EX_LDA EC_LDA VX_LDA VC_LDA
:LAT  : LATTICE CONSTANTS= 10.27741 10.27741 10.27741    1.571    1.571    1.571
:VOL  : UNIT CELL VOLUME =     271.38850
       MODE OF CALCULATION IS       = RELA
       NON-SPINPOLARIZED CALCULATION
:IFFT  : FFT-parameters:   80   80   80 Factor: 2.00


   CONVERGENCE PARAMETER FOR PSEUDOCHARGE: NCON=  9
   MAXIMAL VALUE OF RMT(JATOM)*ABSK(NKK) : RK  =29.95033


:VKCOUL :  VK-COUL convergence: 0.886E-07
       ATOMNUMBER=  1 Pr         VCOUL-ZERO =  0.14546E+00
:FIT001: LUSE= 13 SIGMA OF V-XC FIT FOR ATOM  1  0.3188542E-04
:FIT001: LUSE= 13 SIGMA OF V-XC FIT FOR ATOM  1  0.3188542E-04
:DEN  : DENSITY INTEGRAL  =         -7067.17118128   (Ry)
       ELS_POTENTIAL_AT Z=0 and Z=0.5:  -2.38896  -2.38896
       ELS_POTENTIAL_AT Y=0 and Y=0.5:   0.00000   0.00000
:VZERO:v0,v0c,v0x  -3.32882  -2.38896  -0.93986 v5,v5c,v5x  -3.32882  -2.38896  -0.93986
:VZERY:v0,v0c,v0x  -0.67686   0.00000  -0.67686 v5,v5c,v5x  -0.67686   0.00000  -0.67686
:VZERX:v0,v0c,v0x  -0.67686   0.00000  -0.67686 v5,v5c,v5x  -0.67686   0.00000  -0.67686

------- case.scf1 --------
:LMAX-WF:   10   Non-Spherical LMAX:   4

          ATOMIC SPHERE DEPENDENT PARAMETERS FOR ATOM  Pr        
:e__0001: OVERALL ENERGY PARAMETER IS    0.2967
          OVERALL BASIS SET ON ATOM IS LAPW
:E0_0001: E( 0)=    0.2967
             APW+lo
:E0_0001: E( 0)=   -2.1850   E(BOTTOM)=   -2.567   E(TOP)=   -1.803  4  5   161
             LOCAL ORBITAL
:E1_0001: E( 1)=    0.6967
             APW+lo
:E1_0001: E( 1)=   -0.7980   E(BOTTOM)=   -1.445   E(TOP)=   -0.151  3  4   167
             LOCAL ORBITAL
:E3_0001: E( 3)=    0.4939   E(BOTTOM)=    0.350   E(TOP)=    0.637  0  1   113
             APW+lo
:E2_0001: E( 2)=    0.2967   E(BOTTOM)=    0.130   E(TOP)= -200.000  2 -1    98
             APW+lo

       K=   0.00000   0.00000   0.00000            1
:RKM  : MATRIX SIZE   189LOs:  20  RKM= 7.94  WEIGHT= 1.00  PGR:    
       EIGENVALUES ARE:
:EIG00001:      -2.1417585   -0.7866997   -0.7866997   -0.7866997    0.2473300
:EIG00006:       0.4969213    0.5111650    0.5111650    0.5111650    0.5316604
:EIG00011:       0.5316604    0.5316604    0.6224427    0.6224427    0.6224427
:EIG00016:       0.7726732    0.7726732    1.1658509    1.3725604    1.3725604
:EIG00021:       1.3725604    1.4779012    2.0649490    2.0649490    2.0649490
:EIG00026:       2.1198768    2.1198768    2.1198768    2.3474995    2.3474995
:EIG00031:       2.6555169    2.8311750    2.8311750    2.8311750    3.2439829
:EIG00036:       3.2439829    3.4717465    3.4717465    3.4717465    3.5077691
:EIG00041:       3.5077691    3.5077691    3.6658409    3.6658409    3.6658409
:EIG00046:       3.8761473    3.9230740    3.9230740    3.9230740    4.0191650
 
:EIG00051:       4.0191650    4.0405051    4.0405051    4.0405051    4.0598739
:EIG00056:       4.0598739    4.0598739    4.1639346    4.2099740    4.3396829
:EIG00061:       4.3396829    4.3396829    4.4089321    4.4089321    4.4089321
:EIG00066:       4.5959882    5.6041411    5.6041411    5.6153603    5.8868624
:EIG00071:       5.8868624    5.8868624    6.3021035    6.3021035    6.4664848
:EIG00076:       6.4664848    6.4664848    6.5322389    6.5322389    6.5322389
:EIG00081:       6.8428630    6.8428630    6.8428630    6.8431848    6.8431848
:EIG00086:       6.8431848    6.8813241    6.8813241    6.9417079    6.9417079
:EIG00091:       6.9417079    7.0390620    7.0390620    7.0390620    7.0472301
:EIG00096:       7.0472301    7.0472301    7.1109804    7.2066770    7.2515763
 
:EIG00101:       7.2515763    7.3080565    7.3080565    7.3080565    7.3331986
:EIG00106:       7.3331986    7.3331986    7.3428294    7.3428294    7.3428294
:EIG00111:       7.4137539    7.4137539    7.6491617    7.7019226
       ********************************************************

:KPT   :      NUMBER OF K-POINTS:   165

------- case.scfso --------
   0.0   0.0 angle (M,z), angle (M,x) deg
 
        SPIN-ORBIT EIGENVALUES:
     K=   0.00000   0.00000   0.00000            1
      MATRIX SIZE=  228   WEIGHT= 1.00
     EIGENVALUES ARE:
          -2.1417585   -2.1417585   -0.9325481   -0.9325481   -0.7184379
          -0.7184379   -0.7184379   -0.7184379    0.2473300    0.2473300
           0.4917646    0.4917646    0.4999031    0.4999031    0.4999031
           0.4999031    0.5228191    0.5228191    0.5325971    0.5325971
           0.5391120    0.5391120    0.5391120    0.5391120    0.6187459
           0.6187459    0.6187459    0.6187459    0.6286286    0.6286286
           0.7730740    0.7730740    0.7730740    0.7730740    1.1659021
           1.1659021    1.3673021    1.3673021    1.3749401    1.3749401

           1.3749401    1.3749401    1.4779012    1.4779012    2.0524181
           2.0524181    2.0601379    2.0601379    2.0601379    2.0601379
           2.0740790    2.0740790    2.1545330    2.1545330    2.1545330
           2.1545330    2.3477826    2.3477826    2.3477826    2.3477826
           2.6555169    2.6555169    2.8307417    2.8307417    2.8314053
           2.8314053    2.8314053    2.8314053    3.2439602    3.2439602
           3.2439602    3.2439602    3.4704536    3.4704536    3.4704536
           3.4704536    3.4745699    3.4745699    3.4791748    3.4791748

           3.5233533    3.5233533    3.5233533    3.5233533    3.6658338
           3.6658338    3.6658444    3.6658444    3.6658444    3.6658444
           3.8761473    3.8761473    3.9230331    3.9230331    3.9230331
           3.9230331    3.9231607    3.9231607    4.0191650    4.0191650
           4.0191650    4.0191650    4.0403531    4.0403531    4.0405636
           4.0405636    4.0405636    4.0405636    4.0595962    4.0595962
           4.0595962    4.0595962    4.0604788    4.0604788    4.1639407
           4.1639407    4.2099740    4.2099740    4.3396259    4.3396259

           4.3396259    4.3396259    4.3398008    4.3398008    4.4081980
           4.4081980    4.4093478    4.4093478    4.4093478    4.4093478

       ********************************************************

------- case.scf2 --------
:GMA  : POTENTIAL AND CHARGE CUT-OFF  12.00 Ry**.5




:POS001: at.nr.   1 position = 0.00000 0.00000 0.50000  multiplicity =  1

       lmmax  5
       lm=   0 0  4 0  4 4  6 0  6 4
:FER gutzwiller fermi energy   0.51426
:EORB         -0.083742678
:SUM sum of gutz band energies         -6.806010596

:CHA001: total charge inside sphere   1 =    10.027739
:PCS001: partial charges sphere =  1 s,p,d,f,      d-eg,d-t2g 
:QTL001: 2.0256 5.3643 0.6055 2.0322 0.0000 0.0000 0.0000 0.2165 0.3890 0.0000 0.0000 0.0000

:CHA  : total charge inside unit cell =       6.500000

------- case.scfc --------

        1.ATOM      Pr                   14 CORE STATES
:1S 001: 1S               -3067.095932214 Ry
:2S 001: 2S                -492.846065970 Ry
:2PP001: 2P*               -465.945936251 Ry
:2P 001: 2P                -430.548177682 Ry
:3S 001: 3S                -105.929545808 Ry
:3PP001: 3P*                -94.467703192 Ry
:3P 001: 3P                 -87.459625547 Ry
:3DD001: 3D*                -67.387515588 Ry
:3D 001: 3D                 -65.875846686 Ry
:4S 001: 4S                 -20.609658989 Ry
:4PP001: 4P*                -16.316990450 Ry
:4P 001: 4P                 -14.790300301 Ry
:4DD001: 4D*                 -7.724758560 Ry
:4D 001: 4D                  -7.455612744 Ry

------- case.scfm --------
:CINT001 Core Integral Atom   1   45.999513

       DENSITY AT NUCLEUS
        JATOM        VALENCE       SEMI-CORE          CORE           TOTAL
:RTO001:   1      648.375672        0.000000   656824.465731   657472.841403
     
       CHARGES OF NEW CHARGE DENSITY
:NTO   : INTERSTITIAL CHARGE =     2.972181
:NPC   : PW Pseudocharge     =     7.563141
:NTO001: CHARGE SPHERE  1    =    56.027251

:NEC01: NUCLEAR AND ELECTRONIC CHARGE     59.00000    58.99943
     
       CHARGES OF OLD CHARGE DENSITY
:OTO   : INTERSTITIAL CHARGE =     2.949007
:OPC   : PW Pseudocharge     =     7.522043
:OTO001: CHARGE SPHERE  1    =    56.050993

:NEC02: NUCLEAR AND ELECTRONIC CHARGE     59.00000    59.00000
     
       CONVERGENCE TEST
:DTO001: DIFFERENCE IN SPHERE  1 =  0.0377525

:DIS  :  CHARGE DISTANCE       ( 0.0377525 for atom    1 spin 1)      0.0377525
 PW Mixed is           59
 
******************************************************
* MULTISECANT MIXING VER9 RELEASE 10.4.0              *
* Slow Mode, cautious                                *
* Fixed density scale                                *
* Regularization       1.000E-04                     *
* Step Trust Radius    0.75000                       *
* Trust Upper Limit    2.000E+00                     *
* Max Number of Memory Steps   12                    *
******************************************************
 
:PWTMP   2.0594E+02  1.2500E+02  2.7139E+02
:PLANE:  PW TOTAL      2.7924 DISTAN   7.04E-02  2.52E+00 %
:CHARG:  CLM/ATOM    977.1793 DISTAN   3.85E-01  3.94E-02 %
 
Step History
        DMIX         DMIXT        Red     Pred      Trust     Lambda    MagRel    MagAbs     Beta
  1   3.5000E-02   3.5000E-02 -1.00E+00  1.00E+00 -1.00E+01  1.00E+00  3.50E-02  3.50E-02  1.00E+00
  2   2.5000E-02   2.5000E-02  9.82E-01  1.00E+00 -1.00E+01  1.00E+00  2.50E-02  1.14E-02  1.00E+00
  3   2.8551E-02   2.8551E-02 -1.00E+00  1.00E+00 -1.00E+01  1.00E+00  2.86E-02  1.28E-02  1.00E+00
:JACOBIANS    3.244E-01   2.815E-01
  
:NORMS:  1/Froebius, Min, Max, Used   0.9915E+00  0.5008E+00  0.1002E+01  0.9936E+00
:INFO :  Number of Memory Steps    2 Skipping    0
:INFO :  SLambda=    0.8617792427  Max    0.8617792427
:PREDicted Charge, CTotal, PW Trust    2.738E-04   2.738E-04   4.562E-02
:PREDicted DMix, Beta, BLim   4.7336E-01  2.9090E+00  6.8240E-01

Eigenvalues, unscaled except for SY+YY
   #     SY Real        SY Imag          SS             YY         SY+YY Real      SY+YY Imag
   1   2.819966E-14   0.000000E+00   1.966003E+00   1.991326E+00   8.873513E-03   0.000000E+00
   2   1.897661E+00   0.000000E+00   0.000000E+00   8.673694E-03   3.626491E+00   0.000000E+00
 
:INFO :  Singular value  3.627E+00 Weight  1.000E+00 Projection -1.440E-01
:INFO :  Singular value  8.873E-03 Weight  9.995E-01 Projection  1.446E+00
:RANK :  ACTIVE   2.00/2  =  99.97 % ; YY RANK   2.00/2  =  99.97 %
 
:BLIM :  VZERO Control Off
:TRUST:  Step 2.22E-01  Charge 7.50E-02 (e) CTO  2.50E-01 (e) PW  3.50E-01 (e)
:DTRUS:  Lambda    1.905E+00 Increment    7.276E-12 Iterations   113 DMIX    2.977E-02
:INFOA:  Angle SubSpace to MSR1      0.00
:DIRM :  MEMORY  2/12 SCALE   1.000 RED  0.87 PRED  1.00 NEXT  0.87 
:INFO :  Limited by Atoms F by Step T

:TRAVE:  Charge 5.83E-04 (e) CTO  5.83E-04 (e) PW  1.16E-02 (e)
:DIRP :  |MSR1|= 5.568E-02 |PRATT|= 7.043E-02 ANGLE= 169.8 DEGREES
:DIRQ :  |MSR1|= 6.685E-02 |PRATT|= 3.851E-01 ANGLE=   6.9 DEGREES
:DIRT :  |MSR1|= 8.700E-02 |PRATT|= 3.915E-01 ANGLE=  50.4 DEGREES
:MIX  :   MSD1   REGULARIZATION:  1.99E-04 GREED: 0.07138  LMStep 0.42  0.2222 Step           
     
       CHARGES OF MIXED CHARGE DENSITY
:CTO   : INTERSTITIAL CHARGE =     2.948424
:CPC   : PW Pseudocharge     =     7.497469
:CTO001: CHARGE SPHERE  1    =    56.051576

:NEC03: NUCLEAR AND ELECTRONIC CHARGE     59.00000    59.00000

PW CHANGE     H    K    L      Current       Change    Residue
:PTO001:      0    0    0  3.84905516E-02 -9.270E-05  2.442E-04
:PTO002:     -1   -1   -1 -1.23912549E-01  8.862E-04 -1.105E-03
:PTO003:      0    0   -2  7.41374925E-02 -6.620E-04  9.829E-04
:PTO004:      0   -2   -2  6.49192997E-02 -1.489E-03  1.622E-03
:PTO005:     -1   -1   -3 -6.17282240E-02  2.857E-03 -3.606E-03
:PTO006:     -2   -2   -2  1.56885147E-02 -9.015E-04  1.418E-03
:PTO007:      0    0   -4  2.25850411E-03 -6.381E-04  8.832E-04
:PTO008:     -1   -3   -3  1.54034703E-03  2.435E-03 -2.711E-03
:PTO009:      0   -2   -4 -4.50292824E-03 -2.376E-03  2.485E-03
:PTO010:     -2   -2   -4 -1.01396812E-02 -1.950E-03  2.639E-03
:PTO011:     -3   -3   -3  3.75434930E-03  5.360E-04 -9.615E-04
:PTO012:     -1   -1   -5  1.11831370E-02  1.721E-03 -2.219E-03

:ENE  : ********** TOTAL ENERGY IN Ry =       -18472.11486759


------- case.scf0 --------
 Flat Integration
 New Mode for Coulomb Integral
 Consistent 3/8+Simpson combinations
 Extension of core to zero
 LDM version in phi
 Fifth-order quadrature in outwin


            ---------
:ITE026: 26. ITERATION
            ---------

:NATO :    1 INDEPENDENT AND    1 TOTAL ATOMS IN UNITCELL
       SUBSTANCE: blebleble                                                   

       LATTICE                      = F   
:POT  : POTENTIAL OPTION EX_LDA EC_LDA VX_LDA VC_LDA
:LAT  : LATTICE CONSTANTS= 10.27741 10.27741 10.27741    1.571    1.571    1.571
:VOL  : UNIT CELL VOLUME =     271.38850
       MODE OF CALCULATION IS       = RELA
       NON-SPINPOLARIZED CALCULATION
:IFFT  : FFT-parameters:   80   80   80 Factor: 2.00


   CONVERGENCE PARAMETER FOR PSEUDOCHARGE: NCON=  9
   MAXIMAL VALUE OF RMT(JATOM)*ABSK(NKK) : RK  =29.95033


:VKCOUL :  VK-COUL convergence: 0.762E-07
       ATOMNUMBER=  1 Pr         VCOUL-ZERO =  0.14632E+00
:FIT001: LUSE= 13 SIGMA OF V-XC FIT FOR ATOM  1  0.2694829E-04
:FIT001: LUSE= 13 SIGMA OF V-XC FIT FOR ATOM  1  0.2694829E-04
:DEN  : DENSITY INTEGRAL  =         -7067.33562098   (Ry)
       ELS_POTENTIAL_AT Z=0 and Z=0.5:  -2.39439  -2.39439
       ELS_POTENTIAL_AT Y=0 and Y=0.5:   0.00000   0.00000
:VZERO:v0,v0c,v0x  -3.33233  -2.39439  -0.93794 v5,v5c,v5x  -3.33233  -2.39439  -0.93794
:VZERY:v0,v0c,v0x  -0.67679   0.00000  -0.67679 v5,v5c,v5x  -0.67679   0.00000  -0.67679
:VZERX:v0,v0c,v0x  -0.67679   0.00000  -0.67679 v5,v5c,v5x  -0.67679   0.00000  -0.67679

------- case.scf1 --------
:LMAX-WF:   10   Non-Spherical LMAX:   4

          ATOMIC SPHERE DEPENDENT PARAMETERS FOR ATOM  Pr        
:e__0001: OVERALL ENERGY PARAMETER IS    0.2967
          OVERALL BASIS SET ON ATOM IS LAPW
:E0_0001: E( 0)=    0.2967
             APW+lo
:E0_0001: E( 0)=   -2.1835   E(BOTTOM)=   -2.565   E(TOP)=   -1.802  4  5   163
             LOCAL ORBITAL
:E1_0001: E( 1)=    0.6967
             APW+lo
:E1_0001: E( 1)=   -0.7966   E(BOTTOM)=   -1.444   E(TOP)=   -0.149  3  4   164
             LOCAL ORBITAL
:E3_0001: E( 3)=    0.4959   E(BOTTOM)=    0.352   E(TOP)=    0.639  0  1   116
             APW+lo
:E2_0001: E( 2)=    0.2967   E(BOTTOM)=    0.131   E(TOP)= -200.000  2 -1    94
             APW+lo

       K=   0.00000   0.00000   0.00000            1
:RKM  : MATRIX SIZE   189LOs:  20  RKM= 7.94  WEIGHT= 1.00  PGR:    
       EIGENVALUES ARE:
:EIG00001:      -2.1403436   -0.7853989   -0.7853989   -0.7853989    0.2482285
:EIG00006:       0.4987234    0.5130976    0.5130976    0.5130976    0.5336768
:EIG00011:       0.5336768    0.5336768    0.6234168    0.6234168    0.6234168
:EIG00016:       0.7737407    0.7737407    1.1668424    1.3735386    1.3735386
:EIG00021:       1.3735386    1.4787778    2.0660015    2.0660015    2.0660015
:EIG00026:       2.1209046    2.1209046    2.1209046    2.3484399    2.3484399
:EIG00031:       2.6565122    2.8320875    2.8320875    2.8320875    3.2450170
:EIG00036:       3.2450170    3.4727337    3.4727337    3.4727337    3.5086881
:EIG00041:       3.5086881    3.5086881    3.6667780    3.6667780    3.6667780
:EIG00046:       3.8771205    3.9238981    3.9238981    3.9238981    4.0199779
 
:EIG00051:       4.0199779    4.0413021    4.0413021    4.0413021    4.0608150
:EIG00056:       4.0608150    4.0608150    4.1648061    4.2108968    4.3405380
:EIG00061:       4.3405380    4.3405380    4.4097837    4.4097837    4.4097837
:EIG00066:       4.5968774    5.6050998    5.6050998    5.6162895    5.8877850
:EIG00071:       5.8877850    5.8877850    6.3032093    6.3032093    6.4676452
:EIG00076:       6.4676452    6.4676452    6.5332655    6.5332655    6.5332655
:EIG00081:       6.8437822    6.8437822    6.8437822    6.8442253    6.8442253
:EIG00086:       6.8442253    6.8821817    6.8821817    6.9426004    6.9426004
:EIG00091:       6.9426004    7.0400061    7.0400061    7.0400061    7.0481245
:EIG00096:       7.0481245    7.0481245    7.1119412    7.2075101    7.2525589
 
:EIG00101:       7.2525589    7.3089373    7.3089373    7.3089373    7.3340333
:EIG00106:       7.3340333    7.3340333    7.3437451    7.3437451    7.3437451
:EIG00111:       7.4146354    7.4146354    7.6499570    7.7029615
       ********************************************************

:KPT   :      NUMBER OF K-POINTS:   165

------- case.scfso --------
   0.0   0.0 angle (M,z), angle (M,x) deg
 
        SPIN-ORBIT EIGENVALUES:
     K=   0.00000   0.00000   0.00000            1
      MATRIX SIZE=  228   WEIGHT= 1.00
     EIGENVALUES ARE:
          -2.1403436   -2.1403436   -0.9312224   -0.9312224   -0.7171489
          -0.7171489   -0.7171488   -0.7171488    0.2482285    0.2482285
           0.4935993    0.4935993    0.5018548    0.5018548    0.5018548
           0.5018548    0.5247445    0.5247445    0.5345826    0.5345826
           0.5411119    0.5411119    0.5411119    0.5411119    0.6197222
           0.6197222    0.6197222    0.6197222    0.6295998    0.6295998
           0.7741408    0.7741408    0.7741408    0.7741408    1.1668937
           1.1668937    1.3682846    1.3682846    1.3759164    1.3759164

           1.3759164    1.3759164    1.4787778    1.4787778    2.0534475
           2.0534475    2.0611911    2.0611911    2.0611911    2.0611911
           2.0751300    2.0751300    2.1555597    2.1555597    2.1555597
           2.1555597    2.3487230    2.3487230    2.3487230    2.3487230
           2.6565122    2.6565122    2.8316538    2.8316538    2.8323181
           2.8323181    2.8323181    2.8323181    3.2449943    3.2449943
           3.2449943    3.2449943    3.4714410    3.4714410    3.4714410
           3.4714410    3.4755566    3.4755566    3.4800912    3.4800912

           3.5242738    3.5242738    3.5242738    3.5242738    3.6667709
           3.6667709    3.6667815    3.6667815    3.6667815    3.6667815
           3.8771205    3.8771205    3.9238572    3.9238572    3.9238572
           3.9238572    3.9239847    3.9239847    4.0199779    4.0199779
           4.0199779    4.0199779    4.0411500    4.0411500    4.0413607
           4.0413607    4.0413607    4.0413607    4.0605371    4.0605371
           4.0605371    4.0605371    4.0614202    4.0614202    4.1648122
           4.1648122    4.2108968    4.2108968    4.3404809    4.3404809

           4.3404809    4.3404809    4.3406558    4.3406558    4.4090502
           4.4090502    4.4101991    4.4101991    4.4101991    4.4101991

       ********************************************************

------- case.scf2 --------
:GMA  : POTENTIAL AND CHARGE CUT-OFF  12.00 Ry**.5




:POS001: at.nr.   1 position = 0.00000 0.00000 0.50000  multiplicity =  1

       lmmax  5
       lm=   0 0  4 0  4 4  6 0  6 4
:FER gutzwiller fermi energy   0.51653
:EORB         -0.085419542
:SUM sum of gutz band energies         -6.787296989

:CHA001: total charge inside sphere   1 =    10.013570
:PCS001: partial charges sphere =  1 s,p,d,f,      d-eg,d-t2g 
:QTL001: 2.0256 5.3649 0.6123 2.0107 0.0000 0.0000 0.0000 0.2188 0.3935 0.0000 0.0000 0.0000

:CHA  : total charge inside unit cell =       6.499997

------- case.scfc --------

        1.ATOM      Pr                   14 CORE STATES
:1S 001: 1S               -3067.091855503 Ry
:2S 001: 2S                -492.842147706 Ry
:2PP001: 2P*               -465.941980163 Ry
:2P 001: 2P                -430.544235661 Ry
:3S 001: 3S                -105.926056654 Ry
:3PP001: 3P*                -94.464187957 Ry
:3P 001: 3P                 -87.456141978 Ry
:3DD001: 3D*                -67.383956352 Ry
:3D 001: 3D                 -65.872297386 Ry
:4S 001: 4S                 -20.607079447 Ry
:4PP001: 4P*                -16.314447179 Ry
:4P 001: 4P                 -14.787820396 Ry
:4DD001: 4D*                 -7.722372657 Ry
:4D 001: 4D                  -7.453246969 Ry

------- case.scfm --------
:CINT001 Core Integral Atom   1   45.999512

       DENSITY AT NUCLEUS
        JATOM        VALENCE       SEMI-CORE          CORE           TOTAL
:RTO001:   1      648.322394        0.000000   656824.258693   657472.581088
     
       CHARGES OF NEW CHARGE DENSITY
:NTO   : INTERSTITIAL CHARGE =     2.986373
:NPC   : PW Pseudocharge     =     7.568353
:NTO001: CHARGE SPHERE  1    =    56.013083

:NEC01: NUCLEAR AND ELECTRONIC CHARGE     59.00000    58.99946
     
       CHARGES OF OLD CHARGE DENSITY
:OTO   : INTERSTITIAL CHARGE =     2.948424
:OPC   : PW Pseudocharge     =     7.497469
:OTO001: CHARGE SPHERE  1    =    56.051576

:NEC02: NUCLEAR AND ELECTRONIC CHARGE     59.00000    59.00000
     
       CONVERGENCE TEST
:DTO001: DIFFERENCE IN SPHERE  1 =  0.0631267

:DIS  :  CHARGE DISTANCE       ( 0.0631267 for atom    1 spin 1)      0.0631267
 PW Mixed is           59
 
******************************************************
* MULTISECANT MIXING VER9 RELEASE 10.4.0              *
* Standard Mode with controls                        *
* Fixed density scale                                *
* Regularization       1.000E-04                     *
* Trust Upper Limit    5.000E+00                     *
* Max Number of Memory Steps    8                    *
******************************************************
 
:PWTMP   2.0594E+02  1.2500E+02  2.7139E+02
:PLANE:  PW TOTAL      2.7703 DISTAN   1.26E-01  4.53E+00 %
:CHARG:  CLM/ATOM    977.1800 DISTAN   3.28E-01  3.35E-02 %
 
Step History
        DMIX         DMIXT        Red     Pred      Trust     Lambda    MagRel    MagAbs     Beta
  1   3.5000E-02   3.5000E-02 -1.00E+00  1.00E+00 -1.00E+01  1.00E+00  3.50E-02  3.50E-02  1.00E+00
  2   2.5000E-02   2.5000E-02  9.82E-01  1.00E+00 -1.00E+01  1.00E+00  2.50E-02  1.14E-02  1.00E+00
  3   2.8551E-02   2.8551E-02  8.74E-01  1.00E+00 -1.00E+01  8.62E-01  2.86E-02  1.28E-02  1.00E+00
  4   7.1377E-02   2.9774E-02 -1.00E+00  8.67E-01  2.22E-01  1.00E+00  2.22E-01  8.70E-02  1.00E+00
:JACOBIANS    6.524E-01   6.470E-01
  
:NORMS:  1/Froebius, Min, Max, Used   0.9948E+00  0.6699E+00  0.1009E+01  0.9953E+00
:INFO :  Number of Memory Steps    3 Skipping    0
:INFO :  SLambda=    0.7697355186  Max    0.7697355186
:PREDicted Charge, CTotal, PW Trust    2.284E-02   2.284E-02   1.869E-03
:PREDicted DMix, Beta, BLim   8.9276E-01  2.0114E+00  9.9299E-01

Eigenvalues, unscaled except for SY+YY
   #     SY Real        SY Imag          SS             YY         SY+YY Real      SY+YY Imag
   1   2.854412E+00   0.000000E+00   2.966714E+00   2.995064E+00   5.192147E+00   0.000000E+00
   2   8.289166E-15   0.000000E+00   2.376386E-03   2.651867E-03   2.678952E-03   0.000000E+00
   3   2.318964E-03   0.000000E+00  -1.139202E-16   2.283887E-03   4.101591E-03   0.000000E+00
 
:INFO :  Singular value  5.192E+00 Weight  1.000E+00 Projection -7.864E-02
:INFO :  Singular value  4.102E-03 Weight  9.947E-01 Projection -6.345E+00
:INFO :  Singular value  2.679E-03 Weight  9.877E-01 Projection  2.055E+00
:RANK :  ACTIVE   2.98/3  =  99.41 % ; YY RANK   2.97/3  =  99.02 %
 
:BLIM :  VZERO Control Off
:TRUST:  Step 6.08E-01  Charge 7.50E-02 (e) CTO  2.50E-01 (e) PW  3.50E-01 (e)
:DTRUS:  Lambda    1.155E+00 Increment    7.276E-12 Iterations   108 DMIX    1.536E-01
:INFOA:  Angle SubSpace to MSR1      0.68
:DIRM :  MEMORY  3/8  SCALE   1.000 RED  0.90 PRED  0.87 NEXT  0.37 
:INFO :  Limited by Atoms F by Step T

:TRAVE:  Charge 7.52E-03 (e) CTO  7.52E-03 (e) PW  9.62E-03 (e)
:DIRP :  |MSR1|= 7.764E-02 |PRATT|= 1.256E-01 ANGLE=   5.7 DEGREES
:DIRQ :  |MSR1|= 1.985E-01 |PRATT|= 3.276E-01 ANGLE=  18.0 DEGREES
:DIRT :  |MSR1|= 2.132E-01 |PRATT|= 3.509E-01 ANGLE=  16.9 DEGREES
:MIX  :   MSD1   REGULARIZATION:  3.00E-04 GREED: 0.17844  LMStep 0.63  0.6076 Step           
     
       CHARGES OF MIXED CHARGE DENSITY
:CTO   : INTERSTITIAL CHARGE =     2.933961
:CPC   : PW Pseudocharge     =     7.528564
:CTO001: CHARGE SPHERE  1    =    56.066039

:NEC03: NUCLEAR AND ELECTRONIC CHARGE     59.00000    59.00000

PW CHANGE     H    K    L      Current       Change    Residue
:PTO001:      0    0    0  3.85518347E-02  6.128E-05  4.081E-04
:PTO002:     -1   -1   -1 -1.25116878E-01 -1.204E-03 -2.002E-03
:PTO003:      0    0   -2  7.51613006E-02  1.024E-03  1.641E-03
:PTO004:      0   -2   -2  6.68076145E-02  1.888E-03  3.105E-03
:PTO005:     -1   -1   -3 -6.57368866E-02 -4.009E-03 -6.433E-03
:PTO006:     -2   -2   -2  1.71242943E-02  1.436E-03  2.318E-03
:PTO007:      0    0   -4  3.21644445E-03  9.579E-04  1.513E-03
:PTO008:     -1   -3   -3 -1.65428994E-03 -3.195E-03 -5.124E-03
:PTO009:      0   -2   -4 -1.46704541E-03  3.036E-03  4.832E-03
:PTO010:     -2   -2   -4 -7.27253989E-03  2.867E-03  4.578E-03
:PTO011:     -3   -3   -3  2.81980347E-03 -9.345E-04 -1.498E-03
:PTO012:     -1   -1   -5  8.70314953E-03 -2.480E-03 -3.924E-03

:ENE  : ********** TOTAL ENERGY IN Ry =       -18472.11522104


------- case.scf0 --------
 Flat Integration
 New Mode for Coulomb Integral
 Consistent 3/8+Simpson combinations
 Extension of core to zero
 LDM version in phi
 Fifth-order quadrature in outwin


            ---------
:ITE027: 27. ITERATION
            ---------

:NATO :    1 INDEPENDENT AND    1 TOTAL ATOMS IN UNITCELL
       SUBSTANCE: blebleble                                                   

       LATTICE                      = F   
:POT  : POTENTIAL OPTION EX_LDA EC_LDA VX_LDA VC_LDA
:LAT  : LATTICE CONSTANTS= 10.27741 10.27741 10.27741    1.571    1.571    1.571
:VOL  : UNIT CELL VOLUME =     271.38850
       MODE OF CALCULATION IS       = RELA
       NON-SPINPOLARIZED CALCULATION
:IFFT  : FFT-parameters:   80   80   80 Factor: 2.00


   CONVERGENCE PARAMETER FOR PSEUDOCHARGE: NCON=  9
   MAXIMAL VALUE OF RMT(JATOM)*ABSK(NKK) : RK  =29.95033


:VKCOUL :  VK-COUL convergence: 0.427E-07
       ATOMNUMBER=  1 Pr         VCOUL-ZERO =  0.14544E+00
:FIT001: LUSE= 13 SIGMA OF V-XC FIT FOR ATOM  1  0.1527551E-04
:FIT001: LUSE= 13 SIGMA OF V-XC FIT FOR ATOM  1  0.1527551E-04
:DEN  : DENSITY INTEGRAL  =         -7068.70956913   (Ry)
       ELS_POTENTIAL_AT Z=0 and Z=0.5:  -2.37782  -2.37782
       ELS_POTENTIAL_AT Y=0 and Y=0.5:   0.00000   0.00000
:VZERO:v0,v0c,v0x  -3.32015  -2.37782  -0.94232 v5,v5c,v5x  -3.32015  -2.37782  -0.94232
:VZERY:v0,v0c,v0x  -0.67616   0.00000  -0.67616 v5,v5c,v5x  -0.67616   0.00000  -0.67616
:VZERX:v0,v0c,v0x  -0.67616   0.00000  -0.67616 v5,v5c,v5x  -0.67616   0.00000  -0.67616

------- case.scf1 --------
:LMAX-WF:   10   Non-Spherical LMAX:   4

          ATOMIC SPHERE DEPENDENT PARAMETERS FOR ATOM  Pr        
:e__0001: OVERALL ENERGY PARAMETER IS    0.2967
          OVERALL BASIS SET ON ATOM IS LAPW
:E0_0001: E( 0)=    0.2967
             APW+lo
:E0_0001: E( 0)=   -2.1741   E(BOTTOM)=   -2.558   E(TOP)=   -1.791  4  5   166
             LOCAL ORBITAL
:E1_0001: E( 1)=    0.6967
             APW+lo
:E1_0001: E( 1)=   -0.7887   E(BOTTOM)=   -1.438   E(TOP)=   -0.139  3  4   158
             LOCAL ORBITAL
:E3_0001: E( 3)=    0.5131   E(BOTTOM)=    0.367   E(TOP)=    0.659  0  1   117
             APW+lo
:E2_0001: E( 2)=    0.2967   E(BOTTOM)=    0.135   E(TOP)= -200.000  2 -1    97
             APW+lo

       K=   0.00000   0.00000   0.00000            1
:RKM  : MATRIX SIZE   189LOs:  20  RKM= 7.94  WEIGHT= 1.00  PGR:    
       EIGENVALUES ARE:
:EIG00001:      -2.1311064   -0.7783162   -0.7783162   -0.7783162    0.2473165
:EIG00006:       0.5141749    0.5297671    0.5297671    0.5297671    0.5514328
:EIG00011:       0.5514328    0.5514328    0.6246263    0.6246263    0.6246263
:EIG00016:       0.7760921    0.7760921    1.1675109    1.3733747    1.3733747
:EIG00021:       1.3733747    1.4763799    2.0679709    2.0679709    2.0679709
:EIG00026:       2.1222598    2.1222598    2.1222598    2.3491310    2.3491310
:EIG00031:       2.6569486    2.8317155    2.8317155    2.8317155    3.2454616
:EIG00036:       3.2454616    3.4727219    3.4727219    3.4727219    3.5078058
:EIG00041:       3.5078058    3.5078058    3.6663283    3.6663283    3.6663283
:EIG00046:       3.8769779    3.9222044    3.9222044    3.9222044    4.0180185
 
:EIG00051:       4.0180185    4.0395448    4.0395448    4.0395448    4.0595329
:EIG00056:       4.0595329    4.0595329    4.1629214    4.2101531    4.3383476
:EIG00061:       4.3383476    4.3383476    4.4078738    4.4078738    4.4078738
:EIG00066:       4.5949727    5.6043910    5.6043910    5.6154559    5.8868416
:EIG00071:       5.8868416    5.8868416    6.3047460    6.3047460    6.4692160
:EIG00076:       6.4692160    6.4692160    6.5342709    6.5342709    6.5342709
:EIG00081:       6.8428361    6.8428361    6.8428361    6.8440487    6.8440487
:EIG00086:       6.8440487    6.8807060    6.8807060    6.9413948    6.9413948
:EIG00091:       6.9413948    7.0391771    7.0391771    7.0391771    7.0470471
:EIG00096:       7.0470471    7.0470471    7.1107079    7.2060451    7.2518198
 
:EIG00101:       7.2518198    7.3071716    7.3071716    7.3071716    7.3318042
:EIG00106:       7.3318042    7.3318042    7.3420226    7.3420226    7.3420226
:EIG00111:       7.4128046    7.4128046    7.6471457    7.7030534    7.9960071
:EIG00116:       7.9960071    7.9960071
       ********************************************************

:KPT   :      NUMBER OF K-POINTS:   165

------- case.scfso --------
   0.0   0.0 angle (M,z), angle (M,x) deg
 
        SPIN-ORBIT EIGENVALUES:
     K=   0.00000   0.00000   0.00000            1
      MATRIX SIZE=  234   WEIGHT= 1.00
     EIGENVALUES ARE:
          -2.1311064   -2.1311064   -0.9236827   -0.9236827   -0.7102993
          -0.7102993   -0.7102992   -0.7102992    0.2473165    0.2473165
           0.5094068    0.5094068    0.5187791    0.5187791    0.5187791
           0.5187791    0.5413046    0.5413046    0.5520008    0.5520008
           0.5586539    0.5586539    0.5586539    0.5586539    0.6209684
           0.6209684    0.6209684    0.6209684    0.6307593    0.6307593
           0.7764820    0.7764820    0.7764820    0.7764820    1.1675658
           1.1675658    1.3681878    1.3681878    1.3757218    1.3757218

           1.3757218    1.3757218    1.4763799    1.4763799    2.0548080
           2.0548080    2.0631624    2.0631624    2.0631624    2.0631624
           2.0770925    2.0770925    2.1568942    2.1568942    2.1568942
           2.1568942    2.3494142    2.3494142    2.3494142    2.3494142
           2.6569486    2.6569486    2.8312760    2.8312760    2.8319492
           2.8319492    2.8319492    2.8319492    3.2454384    3.2454384
           3.2454384    3.2454384    3.4714259    3.4714259    3.4714259
           3.4714259    3.4755526    3.4755526    3.4791288    3.4791288

           3.5234315    3.5234315    3.5234315    3.5234315    3.6663212
           3.6663212    3.6663318    3.6663318    3.6663318    3.6663318
           3.8769779    3.8769779    3.9221639    3.9221639    3.9221639
           3.9221639    3.9222902    3.9222902    4.0180185    4.0180185
           4.0180185    4.0180185    4.0393906    4.0393906    4.0396045
           4.0396045    4.0396045    4.0396045    4.0592521    4.0592521
           4.0592521    4.0592521    4.0601437    4.0601437    4.1629276
           4.1629276    4.2101531    4.2101531    4.3382902    4.3382902

           4.3382902    4.3382902    4.3384661    4.3384661    4.4071395
           4.4071395    4.4082898    4.4082898    4.4082898    4.4082898

       ********************************************************

------- case.scf2 --------
:GMA  : POTENTIAL AND CHARGE CUT-OFF  12.00 Ry**.5




:POS001: at.nr.   1 position = 0.00000 0.00000 0.50000  multiplicity =  1

       lmmax  5
       lm=   0 0  4 0  4 4  6 0  6 4
:FER gutzwiller fermi energy   0.51999
:EORB         -0.058168563
:SUM sum of gutz band energies         -6.719648557

:CHA001: total charge inside sphere   1 =     9.975109
:PCS001: partial charges sphere =  1 s,p,d,f,      d-eg,d-t2g 
:QTL001: 2.0251 5.3609 0.6206 1.9683 0.0000 0.0000 0.0000 0.2217 0.3989 0.0000 0.0000 0.0000

:CHA  : total charge inside unit cell =       6.500000

------- case.scfc --------

        1.ATOM      Pr                   14 CORE STATES
:1S 001: 1S               -3067.062399754 Ry
:2S 001: 2S                -492.811870861 Ry
:2PP001: 2P*               -465.911877003 Ry
:2P 001: 2P                -430.514067889 Ry
:3S 001: 3S                -105.895231776 Ry
:3PP001: 3P*                -94.433362749 Ry
:3P 001: 3P                 -87.425378479 Ry
:3DD001: 3D*                -67.353135043 Ry
:3D 001: 3D                 -65.841483756 Ry
:4S 001: 4S                 -20.582027572 Ry
:4PP001: 4P*                -16.289806359 Ry
:4P 001: 4P                 -14.763798172 Ry
:4DD001: 4D*                 -7.699479863 Ry
:4D 001: 4D                  -7.430567572 Ry

------- case.scfm --------
:CINT001 Core Integral Atom   1   45.999506

       DENSITY AT NUCLEUS
        JATOM        VALENCE       SEMI-CORE          CORE           TOTAL
:RTO001:   1      646.933832        0.000000   656823.200669   657470.134501
     
       CHARGES OF NEW CHARGE DENSITY
:NTO   : INTERSTITIAL CHARGE =     3.024920
:NPC   : PW Pseudocharge     =     7.583344
:NTO001: CHARGE SPHERE  1    =    55.974615

:NEC01: NUCLEAR AND ELECTRONIC CHARGE     59.00000    58.99954
     
       CHARGES OF OLD CHARGE DENSITY
:OTO   : INTERSTITIAL CHARGE =     2.933961
:OPC   : PW Pseudocharge     =     7.528564
:OTO001: CHARGE SPHERE  1    =    56.066039

:NEC02: NUCLEAR AND ELECTRONIC CHARGE     59.00000    59.00000
     
       CONVERGENCE TEST
:DTO001: DIFFERENCE IN SPHERE  1 =  0.1554459

:DIS  :  CHARGE DISTANCE       ( 0.1554459 for atom    1 spin 1)      0.1554459
 PW Mixed is           59
 
******************************************************
* MULTISECANT MIXING VER9 RELEASE 10.4.0              *
* Standard Mode with controls                        *
* Fixed density scale                                *
* Regularization       1.000E-04                     *
* Trust Upper Limit    5.000E+00                     *
* Max Number of Memory Steps    8                    *
******************************************************
 
:PWTMP   2.0594E+02  1.2500E+02  2.7139E+02
:PLANE:  PW TOTAL      2.8000 DISTAN   5.04E-02  1.80E+00 %
:CHARG:  CLM/ATOM    977.1785 DISTAN   2.06E-01  2.11E-02 %
 
Step History
        DMIX         DMIXT        Red     Pred      Trust     Lambda    MagRel    MagAbs     Beta
  1   3.5000E-02   3.5000E-02 -1.00E+00  1.00E+00 -1.00E+01  1.00E+00  3.50E-02  3.50E-02  1.00E+00
  2   2.5000E-02   2.5000E-02  9.82E-01  1.00E+00 -1.00E+01  1.00E+00  2.50E-02  1.14E-02  1.00E+00
  3   2.8551E-02   2.8551E-02  8.74E-01  1.00E+00 -1.00E+01  8.62E-01  2.86E-02  1.28E-02  1.00E+00
  4   7.1377E-02   2.9774E-02  8.96E-01  8.67E-01  2.22E-01  7.70E-01  2.22E-01  8.70E-02  1.00E+00
  5   1.7844E-01   1.5361E-01 -1.00E+00  3.68E-01  6.08E-01  1.00E+00  6.08E-01  2.13E-01  1.00E+00
:JACOBIANS    8.251E-01   8.104E-01
  
:NORMS:  1/Froebius, Min, Max, Used   0.9613E+00  0.6157E+00  0.9989E+00  0.9613E+00
:INFO :  Number of Memory Steps    4 Skipping    0
:INFO :  SLambda=    0.4701841846  Max    0.4701841846
:PREDicted Charge, CTotal, PW Trust    2.196E-02   2.196E-02   1.266E-02
:PREDicted DMix, Beta, BLim   4.9124E-03  1.4171E+00  9.2307E-01

Eigenvalues, unscaled except for SY+YY
   #     SY Real        SY Imag          SS             YY         SY+YY Real      SY+YY Imag
   1   3.427610E+00   0.000000E+00   3.523221E+00   3.826863E+00   5.438449E+00   0.000000E+00
   2   1.720105E-01   0.000000E+00   1.729553E-01   1.723624E-01   2.532369E-01   0.000000E+00
   3   2.731208E-15   0.000000E+00   3.027160E-07   7.737333E-04   7.977966E-04   0.000000E+00
   4   3.804304E-07   0.000000E+00  -6.701059E-16   8.813913E-07   1.087145E-06   0.000000E+00
 
:INFO :  Singular value  5.438E+00 Weight  1.000E+00 Projection -3.923E-02
:INFO :  Singular value  2.532E-01 Weight  1.000E+00 Projection -8.411E-02
:INFO :  Singular value  7.978E-04 Weight  8.129E-01 Projection  5.833E+00
:INFO :  Singular value  1.087E-06 Weight  8.070E-06 Projection  2.138E-04
:RANK :  ACTIVE   2.81/4  =  70.32 % ; YY RANK   2.80/4  =  70.09 %
 
:BLIM :  VZERO Control Off
:TRUST:  Step 8.10E-01  Charge 7.50E-02 (e) CTO  2.50E-01 (e) PW  3.50E-01 (e)
:DIRM :  MEMORY  4/8  SCALE   1.000 RED  0.60 PRED  0.37 NEXT  0.22 
:TRAVE:  Charge 6.81E-03 (e) CTO  6.81E-03 (e) PW  7.76E-03 (e)
:DIRP :  |MSR1|= 4.508E-02 |PRATT|= 5.043E-02 ANGLE=  23.0 DEGREES
:DIRQ :  |MSR1|= 1.001E-01 |PRATT|= 2.060E-01 ANGLE=  54.5 DEGREES
:DIRT :  |MSR1|= 1.098E-01 |PRATT|= 2.121E-01 ANGLE=  52.8 DEGREES
:MIX  :   MSD1   REGULARIZATION:  3.83E-04 GREED: 0.07138  Newton 1.00  0.5179                
     
       CHARGES OF MIXED CHARGE DENSITY
:CTO   : INTERSTITIAL CHARGE =     2.927869
:CPC   : PW Pseudocharge     =     7.547474
:CTO001: CHARGE SPHERE  1    =    56.072131

:NEC03: NUCLEAR AND ELECTRONIC CHARGE     59.00000    59.00000

PW CHANGE     H    K    L      Current       Change    Residue
:PTO001:      0    0    0  3.85990692E-02  4.723E-05  5.430E-04
:PTO002:     -1   -1   -1 -1.25820350E-01 -7.035E-04 -8.125E-04
:PTO003:      0    0   -2  7.57525819E-02  5.913E-04  6.232E-04
:PTO004:      0   -2   -2  6.79146638E-02  1.107E-03  1.166E-03
:PTO005:     -1   -1   -3 -6.80600005E-02 -2.323E-03 -2.277E-03
:PTO006:     -2   -2   -2  1.79481350E-02  8.238E-04  8.519E-04
:PTO007:      0    0   -4  3.76840993E-03  5.520E-04  5.299E-04
:PTO008:     -1   -3   -3 -3.51852338E-03 -1.864E-03 -1.844E-03
:PTO009:      0   -2   -4  3.08634118E-04  1.776E-03  1.709E-03
:PTO010:     -2   -2   -4 -5.61504268E-03  1.657E-03  1.679E-03
:PTO011:     -3   -3   -3  2.28637509E-03 -5.334E-04 -5.659E-04
:PTO012:     -1   -1   -5  7.26696370E-03 -1.436E-03 -1.422E-03

:ENE  : ********** TOTAL ENERGY IN Ry =       -18472.11628415


------- case.scf0 --------
 Flat Integration
 New Mode for Coulomb Integral
 Consistent 3/8+Simpson combinations
 Extension of core to zero
 LDM version in phi
 Fifth-order quadrature in outwin


            ---------
:ITE028: 28. ITERATION
            ---------

:NATO :    1 INDEPENDENT AND    1 TOTAL ATOMS IN UNITCELL
       SUBSTANCE: blebleble                                                   

       LATTICE                      = F   
:POT  : POTENTIAL OPTION EX_LDA EC_LDA VX_LDA VC_LDA
:LAT  : LATTICE CONSTANTS= 10.27741 10.27741 10.27741    1.571    1.571    1.571
:VOL  : UNIT CELL VOLUME =     271.38850
       MODE OF CALCULATION IS       = RELA
       NON-SPINPOLARIZED CALCULATION
:IFFT  : FFT-parameters:   80   80   80 Factor: 2.00


   CONVERGENCE PARAMETER FOR PSEUDOCHARGE: NCON=  9
   MAXIMAL VALUE OF RMT(JATOM)*ABSK(NKK) : RK  =29.95033


:VKCOUL :  VK-COUL convergence: 0.363E-07
       ATOMNUMBER=  1 Pr         VCOUL-ZERO =  0.14489E+00
:FIT001: LUSE= 13 SIGMA OF V-XC FIT FOR ATOM  1  0.1196354E-04
:FIT001: LUSE= 13 SIGMA OF V-XC FIT FOR ATOM  1  0.1196354E-04
:DEN  : DENSITY INTEGRAL  =         -7069.24569372   (Ry)
       ELS_POTENTIAL_AT Z=0 and Z=0.5:  -2.36940  -2.36940
       ELS_POTENTIAL_AT Y=0 and Y=0.5:   0.00000   0.00000
:VZERO:v0,v0c,v0x  -3.31417  -2.36940  -0.94477 v5,v5c,v5x  -3.31417  -2.36940  -0.94477
:VZERY:v0,v0c,v0x  -0.67591   0.00000  -0.67591 v5,v5c,v5x  -0.67591   0.00000  -0.67591
:VZERX:v0,v0c,v0x  -0.67591   0.00000  -0.67591 v5,v5c,v5x  -0.67591   0.00000  -0.67591

------- case.scf1 --------
:LMAX-WF:   10   Non-Spherical LMAX:   4

          ATOMIC SPHERE DEPENDENT PARAMETERS FOR ATOM  Pr        
:e__0001: OVERALL ENERGY PARAMETER IS    0.2967
          OVERALL BASIS SET ON ATOM IS LAPW
:E0_0001: E( 0)=    0.2967
             APW+lo
:E0_0001: E( 0)=   -2.1704   E(BOTTOM)=   -2.555   E(TOP)=   -1.786  4  5   165
             LOCAL ORBITAL
:E1_0001: E( 1)=    0.6967
             APW+lo
:E1_0001: E( 1)=   -0.7856   E(BOTTOM)=   -1.436   E(TOP)=   -0.135  3  4   161
             LOCAL ORBITAL
:E3_0001: E( 3)=    0.5200   E(BOTTOM)=    0.373   E(TOP)=    0.667  0  1   130
             APW+lo
:E2_0001: E( 2)=    0.2967   E(BOTTOM)=    0.136   E(TOP)= -200.000  2 -1   100
             APW+lo

       K=   0.00000   0.00000   0.00000            1
:RKM  : MATRIX SIZE   189LOs:  20  RKM= 7.94  WEIGHT= 1.00  PGR:    
       EIGENVALUES ARE:
:EIG00001:      -2.1274616   -0.7755677   -0.7755677   -0.7755677    0.2467477
:EIG00006:       0.5203035    0.5364346    0.5364346    0.5364346    0.5585737
:EIG00011:       0.5585737    0.5585737    0.6249224    0.6249224    0.6249224
:EIG00016:       0.7768732    0.7768732    1.1676313    1.3731409    1.3731409
:EIG00021:       1.3731409    1.4752077    2.0685873    2.0685873    2.0685873
:EIG00026:       2.1226347    2.1226347    2.1226347    2.3492014    2.3492014
:EIG00031:       2.6569411    2.8313693    2.8313693    2.8313693    3.2454596
:EIG00036:       3.2454596    3.4725252    3.4725252    3.4725252    3.5072524
:EIG00041:       3.5072524    3.5072524    3.6659562    3.6659562    3.6659562
:EIG00046:       3.8767293    3.9212986    3.9212986    3.9212986    4.0170062
 
:EIG00051:       4.0170062    4.0386093    4.0386093    4.0386093    4.0588358
:EIG00056:       4.0588358    4.0588358    4.1619597    4.2096569    4.3372544
:EIG00061:       4.3372544    4.3372544    4.4068927    4.4068927    4.4068927
:EIG00066:       4.5940099    5.6038960    5.6038960    5.6149140    5.8862612
:EIG00071:       5.8862612    5.8862612    6.3051470    6.3051470    6.4696401
:EIG00076:       6.4696401    6.4696401    6.5344878    6.5344878    6.5344878
:EIG00081:       6.8422414    6.8422414    6.8422414    6.8437606    6.8437606
:EIG00086:       6.8437606    6.8798972    6.8798972    6.9407035    6.9407035
:EIG00091:       6.9407035    7.0386419    7.0386419    7.0386419    7.0464044
:EIG00096:       7.0464044    7.0464044    7.1100101    7.2052357    7.2513085
 
:EIG00101:       7.2513085    7.3062503    7.3062503    7.3062503    7.3306909
:EIG00106:       7.3306909    7.3306909    7.3411258    7.3411258    7.3411258
:EIG00111:       7.4118468    7.4118468    7.6457891    7.7029060    7.9947187
:EIG00116:       7.9947187    7.9947187
       ********************************************************

:KPT   :      NUMBER OF K-POINTS:   165

------- case.scfso --------
   0.0   0.0 angle (M,z), angle (M,x) deg
 
        SPIN-ORBIT EIGENVALUES:
     K=   0.00000   0.00000   0.00000            1
      MATRIX SIZE=  234   WEIGHT= 1.00
     EIGENVALUES ARE:
          -2.1274616   -2.1274616   -0.9207375   -0.9207375   -0.7076462
          -0.7076462   -0.7076462   -0.7076462    0.2467477    0.2467477
           0.5156796    0.5156796    0.5255527    0.5255527    0.5255527
           0.5255527    0.5479266    0.5479266    0.5590049    0.5590049
           0.5657059    0.5657059    0.5657059    0.5657059    0.6212797
           0.6212797    0.6212797    0.6212797    0.6310347    0.6310347
           0.7772589    0.7772589    0.7772589    0.7772589    1.1676877
           1.1676877    1.3679829    1.3679829    1.3754750    1.3754750

           1.3754750    1.3754750    1.4752077    1.4752077    2.0551893
           2.0551893    2.0637794    2.0637794    2.0637794    2.0637794
           2.0777064    2.0777064    2.1572619    2.1572619    2.1572619
           2.1572619    2.3494848    2.3494848    2.3494848    2.3494848
           2.6569411    2.6569411    2.8309274    2.8309274    2.8316043
           2.8316043    2.8316043    2.8316043    3.2454361    3.2454361
           3.2454361    3.2454361    3.4712278    3.4712278    3.4712278
           3.4712278    3.4753592    3.4753592    3.4785440    3.4785440

           3.5228956    3.5228956    3.5228956    3.5228956    3.6659491
           3.6659491    3.6659597    3.6659597    3.6659597    3.6659597
           3.8767293    3.8767293    3.9212583    3.9212583    3.9212583
           3.9212583    3.9213840    3.9213840    4.0170062    4.0170062
           4.0170062    4.0170062    4.0384543    4.0384543    4.0386694
           4.0386694    4.0386694    4.0386694    4.0585539    4.0585539
           4.0585539    4.0585539    4.0594490    4.0594490    4.1619659
           4.1619659    4.2096569    4.2096569    4.3371970    4.3371970

           4.3371970    4.3371970    4.3373732    4.3373732    4.4061583
           4.4061583    4.4073088    4.4073088    4.4073088    4.4073088

       ********************************************************

------- case.scf2 --------
:GMA  : POTENTIAL AND CHARGE CUT-OFF  12.00 Ry**.5




:POS001: at.nr.   1 position = 0.00000 0.00000 0.50000  multiplicity =  1

       lmmax  5
       lm=   0 0  4 0  4 4  6 0  6 4
:FER gutzwiller fermi energy   0.52101
:EORB         -0.046936418
:SUM sum of gutz band energies         -6.694712912

:CHA001: total charge inside sphere   1 =     9.964259
:PCS001: partial charges sphere =  1 s,p,d,f,      d-eg,d-t2g 
:QTL001: 2.0249 5.3590 0.6216 1.9586 0.0000 0.0000 0.0000 0.2218 0.3998 0.0000 0.0000 0.0000

:CHA  : total charge inside unit cell =       6.500000

------- case.scfc --------

        1.ATOM      Pr                   14 CORE STATES
:1S 001: 1S               -3067.051612488 Ry
:2S 001: 2S                -492.800497525 Ry
:2PP001: 2P*               -465.900629369 Ry
:2P 001: 2P                -430.502773308 Ry
:3S 001: 3S                -105.883170265 Ry
:3PP001: 3P*                -94.421326312 Ry
:3P 001: 3P                 -87.413342402 Ry
:3DD001: 3D*                -67.341141642 Ry
:3D 001: 3D                 -65.829484649 Ry
:4S 001: 4S                 -20.571948518 Ry
:4PP001: 4P*                -16.279892283 Ry
:4P 001: 4P                 -14.754124922 Ry
:4DD001: 4D*                 -7.690261509 Ry
:4D 001: 4D                  -7.421433371 Ry

------- case.scfm --------
:CINT001 Core Integral Atom   1   45.999503

       DENSITY AT NUCLEUS
        JATOM        VALENCE       SEMI-CORE          CORE           TOTAL
:RTO001:   1      646.349361        0.000000   656822.885882   657469.235243
     
       CHARGES OF NEW CHARGE DENSITY
:NTO   : INTERSTITIAL CHARGE =     3.035757
:NPC   : PW Pseudocharge     =     7.587869
:NTO001: CHARGE SPHERE  1    =    55.963762

:NEC01: NUCLEAR AND ELECTRONIC CHARGE     59.00000    58.99952
     
       CHARGES OF OLD CHARGE DENSITY
:OTO   : INTERSTITIAL CHARGE =     2.927869
:OPC   : PW Pseudocharge     =     7.547474
:OTO001: CHARGE SPHERE  1    =    56.072131

:NEC02: NUCLEAR AND ELECTRONIC CHARGE     59.00000    59.00000
     
       CONVERGENCE TEST
:DTO001: DIFFERENCE IN SPHERE  1 =  0.1851565

:DIS  :  CHARGE DISTANCE       ( 0.1851565 for atom    1 spin 1)      0.1851565
 PW Mixed is           59
 
******************************************************
* MULTISECANT MIXING VER9 RELEASE 10.4.0              *
* Standard Mode with controls                        *
* Fixed density scale                                *
* Regularization       1.000E-04                     *
* Trust Upper Limit    5.000E+00                     *
* Max Number of Memory Steps    8                    *
******************************************************
 
:PWTMP   2.0594E+02  1.2500E+02  2.7139E+02
:PLANE:  PW TOTAL      2.8184 DISTAN   2.20E-02  7.82E-01 %
:CHARG:  CLM/ATOM    977.1770 DISTAN   1.89E-01  1.93E-02 %
 
Step History
        DMIX         DMIXT        Red     Pred      Trust     Lambda    MagRel    MagAbs     Beta
  1   3.5000E-02   3.5000E-02 -1.00E+00  1.00E+00 -1.00E+01  1.00E+00  3.50E-02  3.50E-02  1.00E+00
  2   2.5000E-02   2.5000E-02  9.82E-01  1.00E+00 -1.00E+01  1.00E+00  2.50E-02  1.14E-02  1.00E+00
  3   2.8551E-02   2.8551E-02  8.74E-01  1.00E+00 -1.00E+01  8.62E-01  2.86E-02  1.28E-02  1.00E+00
  4   7.1377E-02   2.9774E-02  8.96E-01  8.67E-01  2.22E-01  7.70E-01  2.22E-01  8.70E-02  1.00E+00
  5   1.7844E-01   1.5361E-01  6.04E-01  3.68E-01  6.08E-01  4.70E-01  6.08E-01  2.13E-01  1.00E+00
  6   7.1377E-02   7.1377E-02 -1.00E+00  2.21E-01  8.10E-01  1.00E+00  5.18E-01  1.10E-01  1.00E+00
:JACOBIANS    9.127E-01   9.685E-01
  
:NORMS:  1/Froebius, Min, Max, Used   0.9721E+00  0.5048E+00  0.9989E+00  0.9721E+00
:INFO :  Number of Memory Steps    5 Skipping    0
:INFO :  SLambda=    1.0000000000  Max    1.0000000000
:PREDicted Charge, CTotal, PW Trust    8.322E-03   8.322E-03   1.620E-02
:PREDicted DMix, Beta, BLim   1.6878E-01  1.0351E+00  7.0109E-01

Eigenvalues, unscaled except for SY+YY
   #     SY Real        SY Imag          SS             YY         SY+YY Real      SY+YY Imag
   1   4.474146E+00   0.000000E+00   4.551799E+00   4.817597E+00   9.291410E+00   0.000000E+00
   2   1.687629E-01   0.000000E+00   1.725633E-01   1.767330E-01   3.455889E-01   0.000000E+00
   3   9.202771E-04   0.000000E+00   1.463738E-04   5.635396E-03   6.791388E-03   0.000000E+00
   4   6.540683E-07   0.000000E+00   1.240952E-07   3.494487E-05   3.933821E-05   0.000000E+00
   5  -1.932868E-16   0.000000E+00  -9.588508E-17   1.201435E-07   1.522258E-07   0.000000E+00
 
:INFO :  Singular value  9.291E+00 Weight  1.000E+00 Projection  3.710E-03
:INFO :  Singular value  3.456E-01 Weight  1.000E+00 Projection -3.167E-02
:INFO :  Singular value  6.795E-03 Weight  9.950E-01 Projection -2.400E+00
:INFO :  Singular value  3.936E-05 Weight  6.629E-03 Projection  2.812E-02
:INFO :  Singular value  1.521E-07 Weight  9.964E-08 Projection -8.665E-10
:RANK :  ACTIVE   3.00/5  =  60.03 % ; YY RANK   3.00/5  =  59.96 %
 
:BLIM :  VZERO Control Off
:TRUST:  Step 9.03E-01  Charge 6.00E-02 (e) CTO  2.00E-01 (e) PW  2.80E-01 (e)
:DIRM :  MEMORY  5/8  SCALE   1.000 RED  0.90 PRED  0.22 NEXT  0.13 
:TRAVE:  Charge 1.10E-02 (e) CTO  1.10E-02 (e) PW  9.28E-03 (e)
:DIRP :  |MSR1|= 4.490E-03 |PRATT|= 2.204E-02 ANGLE=  39.0 DEGREES
:DIRQ :  |MSR1|= 2.733E-02 |PRATT|= 1.890E-01 ANGLE=  14.0 DEGREES
:DIRT :  |MSR1|= 2.770E-02 |PRATT|= 1.903E-01 ANGLE=  15.1 DEGREES
:MIX  :   MSR1   REGULARIZATION:  4.82E-04 GREED: 0.13083  Newton 1.00  0.1456                
     
       CHARGES OF MIXED CHARGE DENSITY
:CTO   : INTERSTITIAL CHARGE =     2.943004
:CPC   : PW Pseudocharge     =     7.555795
:CTO001: CHARGE SPHERE  1    =    56.056996

:NEC03: NUCLEAR AND ELECTRONIC CHARGE     59.00000    59.00000

PW CHANGE     H    K    L      Current       Change    Residue
:PTO001:      0    0    0  3.86854952E-02  8.643E-05  5.526E-04
:PTO002:     -1   -1   -1 -1.25899776E-01 -7.943E-05 -1.205E-04
:PTO003:      0    0   -2  7.58012308E-02  4.865E-05  3.289E-05
:PTO004:      0   -2   -2  6.80007361E-02  8.607E-05  4.285E-05
:PTO005:     -1   -1   -3 -6.81713756E-02 -1.114E-04  9.953E-05
:PTO006:     -2   -2   -2  1.79994829E-02  5.135E-05  2.135E-05
:PTO007:      0    0   -4  3.79038878E-03  2.198E-05 -3.240E-05
:PTO008:     -1   -3   -3 -3.62730985E-03 -1.088E-04  4.636E-05
:PTO009:      0   -2   -4  4.00420211E-04  9.179E-05 -9.698E-05
:PTO010:     -2   -2   -4 -5.51231228E-03  1.027E-04  1.446E-05
:PTO011:     -3   -3   -3  2.25002849E-03 -3.635E-05 -3.467E-05
:PTO012:     -1   -1   -5  7.18622626E-03 -8.074E-05  2.184E-05

:ENE  : ********** TOTAL ENERGY IN Ry =       -18472.11757982


------- case.scf0 --------
 Flat Integration
 New Mode for Coulomb Integral
 Consistent 3/8+Simpson combinations
 Extension of core to zero
 LDM version in phi
 Fifth-order quadrature in outwin


            ---------
:ITE029: 29. ITERATION
            ---------

:NATO :    1 INDEPENDENT AND    1 TOTAL ATOMS IN UNITCELL
       SUBSTANCE: blebleble                                                   

       LATTICE                      = F   
:POT  : POTENTIAL OPTION EX_LDA EC_LDA VX_LDA VC_LDA
:LAT  : LATTICE CONSTANTS= 10.27741 10.27741 10.27741    1.571    1.571    1.571
:VOL  : UNIT CELL VOLUME =     271.38850
       MODE OF CALCULATION IS       = RELA
       NON-SPINPOLARIZED CALCULATION
:IFFT  : FFT-parameters:   80   80   80 Factor: 2.00


   CONVERGENCE PARAMETER FOR PSEUDOCHARGE: NCON=  9
   MAXIMAL VALUE OF RMT(JATOM)*ABSK(NKK) : RK  =29.95033


:VKCOUL :  VK-COUL convergence: 0.361E-07
       ATOMNUMBER=  1 Pr         VCOUL-ZERO =  0.14463E+00
:FIT001: LUSE= 13 SIGMA OF V-XC FIT FOR ATOM  1  0.1220057E-04
:FIT001: LUSE= 13 SIGMA OF V-XC FIT FOR ATOM  1  0.1220057E-04
:DEN  : DENSITY INTEGRAL  =         -7067.52064960   (Ry)
       ELS_POTENTIAL_AT Z=0 and Z=0.5:  -2.37665  -2.37665
       ELS_POTENTIAL_AT Y=0 and Y=0.5:   0.00000   0.00000
:VZERO:v0,v0c,v0x  -3.32208  -2.37665  -0.94543 v5,v5c,v5x  -3.32208  -2.37665  -0.94543
:VZERY:v0,v0c,v0x  -0.67671   0.00000  -0.67671 v5,v5c,v5x  -0.67671   0.00000  -0.67671
:VZERX:v0,v0c,v0x  -0.67671   0.00000  -0.67671 v5,v5c,v5x  -0.67671   0.00000  -0.67671

------- case.scf1 --------
:LMAX-WF:   10   Non-Spherical LMAX:   4

          ATOMIC SPHERE DEPENDENT PARAMETERS FOR ATOM  Pr        
:e__0001: OVERALL ENERGY PARAMETER IS    0.2967
          OVERALL BASIS SET ON ATOM IS LAPW
:E0_0001: E( 0)=    0.2967
             APW+lo
:E0_0001: E( 0)=   -2.1819   E(BOTTOM)=   -2.564   E(TOP)=   -1.799  4  5   164
             LOCAL ORBITAL
:E1_0001: E( 1)=    0.6967
             APW+lo
:E1_0001: E( 1)=   -0.7955   E(BOTTOM)=   -1.444   E(TOP)=   -0.147  3  4   162
             LOCAL ORBITAL
:E3_0001: E( 3)=    0.4999   E(BOTTOM)=    0.356   E(TOP)=    0.644  0  1   121
             APW+lo
:E2_0001: E( 2)=    0.2967   E(BOTTOM)=    0.131   E(TOP)= -200.000  2 -1    93
             APW+lo

       K=   0.00000   0.00000   0.00000            1
:RKM  : MATRIX SIZE   189LOs:  20  RKM= 7.94  WEIGHT= 1.00  PGR:    
       EIGENVALUES ARE:
:EIG00001:      -2.1387339   -0.7845055   -0.7845055   -0.7845055    0.2464720
:EIG00006:       0.5019501    0.5169615    0.5169615    0.5169615    0.5379627
:EIG00011:       0.5379627    0.5379627    0.6222458    0.6222458    0.6222458
:EIG00016:       0.7730915    0.7730915    1.1655227    1.3721120    1.3721120
:EIG00021:       1.3721120    1.4767133    2.0650704    2.0650704    2.0650704
:EIG00026:       2.1199261    2.1199261    2.1199261    2.3469142    2.3469142
:EIG00031:       2.6552565    2.8303781    2.8303781    2.8303781    3.2437813
:EIG00036:       3.2437813    3.4712864    3.4712864    3.4712864    3.5069772
:EIG00041:       3.5069772    3.5069772    3.6652588    3.6652588    3.6652588
:EIG00046:       3.8756348    3.9217336    3.9217336    3.9217336    4.0177797
 
:EIG00051:       4.0177797    4.0390171    4.0390171    4.0390171    4.0591986
:EIG00056:       4.0591986    4.0591986    4.1627982    4.2092352    4.3384502
:EIG00061:       4.3384502    4.3384502    4.4076893    4.4076893    4.4076893
:EIG00066:       4.5949447    5.6033383    5.6033383    5.6145079    5.8860650
:EIG00071:       5.8860650    5.8860650    6.3018192    6.3018192    6.4664248
:EIG00076:       6.4664248    6.4664248    6.5320514    6.5320514    6.5320514
:EIG00081:       6.8419298    6.8419298    6.8419298    6.8425041    6.8425041
:EIG00086:       6.8425041    6.8801848    6.8801848    6.9407436    6.9407436
:EIG00091:       6.9407436    7.0382957    7.0382957    7.0382957    7.0462707
:EIG00096:       7.0462707    7.0462707    7.1101990    7.2054458    7.2507866
 
:EIG00101:       7.2507866    7.3069358    7.3069358    7.3069358    7.3318818
:EIG00106:       7.3318818    7.3318818    7.3418517    7.3418517    7.3418517
:EIG00111:       7.4124971    7.4124971    7.6475476    7.7016297    7.9962496
:EIG00116:       7.9962496    7.9962496
       ********************************************************

:KPT   :      NUMBER OF K-POINTS:   165

------- case.scfso --------
   0.0   0.0 angle (M,z), angle (M,x) deg
 
        SPIN-ORBIT EIGENVALUES:
     K=   0.00000   0.00000   0.00000            1
      MATRIX SIZE=  234   WEIGHT= 1.00
     EIGENVALUES ARE:
          -2.1387339   -2.1387339   -0.9301882   -0.9301882   -0.7163353
          -0.7163353   -0.7163353   -0.7163353    0.2464720    0.2464720
           0.4969780    0.4969780    0.5058058    0.5058058    0.5058058
           0.5058058    0.5285783    0.5285783    0.5387213    0.5387213
           0.5453216    0.5453216    0.5453216    0.5453216    0.6185641
           0.6185641    0.6185641    0.6185641    0.6284117    0.6284117
           0.7734877    0.7734877    0.7734877    0.7734877    1.1655751
           1.1655751    1.3668816    1.3668816    1.3744785    1.3744785

           1.3744785    1.3744785    1.4767133    1.4767133    2.0524568
           2.0524568    2.0602582    2.0602582    2.0602582    2.0602582
           2.0742007    2.0742007    2.1545755    2.1545755    2.1545755
           2.1545755    2.3471978    2.3471978    2.3471978    2.3471978
           2.6552565    2.6552565    2.8299424    2.8299424    2.8306097
           2.8306097    2.8306097    2.8306097    3.2437584    3.2437584
           3.2437584    3.2437584    3.4699928    3.4699928    3.4699928
           3.4699928    3.4741115    3.4741115    3.4783493    3.4783493

           3.5225756    3.5225756    3.5225756    3.5225756    3.6652518
           3.6652518    3.6652624    3.6652624    3.6652624    3.6652624
           3.8756348    3.8756348    3.9216929    3.9216929    3.9216929
           3.9216929    3.9218199    3.9218199    4.0177797    4.0177797
           4.0177797    4.0177797    4.0388643    4.0388643    4.0390765
           4.0390765    4.0390765    4.0390765    4.0589194    4.0589194
           4.0589194    4.0589194    4.0598053    4.0598053    4.1628043
[...]
* Standard Mode with controls                        *
* Fixed density scale                                *
* Regularization       1.000E-04                     *
* Trust Upper Limit    5.000E+00                     *
* Max Number of Memory Steps    8                    *
******************************************************
 
:PWTMP   2.0594E+02  1.2500E+02  2.7139E+02
:PLANE:  PW TOTAL      2.8271 DISTAN   8.75E-04  3.09E-02 %
:CHARG:  CLM/ATOM    977.1939 DISTAN   2.26E-03  2.31E-04 %
 
Step History
        DMIX         DMIXT        Red     Pred      Trust     Lambda    MagRel    MagAbs     Beta
 12   1.0846E-01   1.0846E-01  1.19E+00  5.40E-01  6.53E-01  1.58E+00  1.35E-01  1.80E-02  4.65E-01
 13   4.6153E-02   4.6153E-02  8.39E-01  6.34E-01  7.03E-01  1.26E+00  1.09E-01  1.73E-02  3.72E-01
 14   4.6358E-02   4.6358E-02  9.10E-01  5.46E-01  8.28E-01  1.30E+00  6.38E-02  8.48E-03  4.65E-01
 15   3.0992E-02   2.5453E-02  6.49E-01  5.00E-01  6.73E-01  3.39E-01  1.99E-01  2.41E-02  5.82E-01
 16   2.7007E-02   2.7007E-02  3.49E-01  3.88E-01  8.42E-01  1.00E+00  4.18E-01  3.28E-02  7.27E-01
 17   2.2756E-02   2.2756E-02  7.30E-01  7.58E-01  1.05E+00  1.02E+00  3.17E-01  8.69E-03  9.09E-01
 18   3.5139E-02   3.5139E-02  1.11E+00  8.80E-01  1.32E+00  1.53E+00  3.30E-01  6.60E-03  7.27E-01
 19   4.2290E-02   4.2290E-02  7.27E-01  7.60E-01  1.18E+00  1.77E+00  2.91E-01  6.48E-03  9.09E-01
 20   1.0573E-01   1.0573E-01  3.15E+00  4.27E-01  1.58E+00  1.38E+00  1.36E+00  2.21E-02  7.27E-01
 21   2.5442E-01   2.5442E-01  2.73E-01  4.23E-01  1.18E+00  1.61E+00  3.93E-01  2.00E-02  5.82E-01
 22   1.0177E-01   1.0177E-01 -1.00E+00  2.85E-01  1.58E+00  1.00E+00  4.42E-01  6.15E-03  7.27E-01
:JACOBIANS    1.156E+00   3.978E+00
  
:NORMS:  1/Froebius, Min, Max, Used   0.7043E+00  0.6990E+00  0.1737E+01  0.7229E+00
:INFO :  Number of Memory Steps   10 Skipping   11
:INFO :  SLambda=    1.4198737317  Max    1.4198737317
:PREDicted Charge, CTotal, PW Trust    1.139E-03   1.139E-03   7.468E-04
:PREDicted DMix, Beta, BLim   2.8672E-02  1.2347E+00  5.5547E-01

Eigenvalues, unscaled except for SY+YY
   #     SY Real        SY Imag          SS             YY         SY+YY Real      SY+YY Imag
   1   4.350991E+00   0.000000E+00   3.672271E+00   7.313505E+00   1.318989E+01   0.000000E+00
   2   1.514406E+00   0.000000E+00   1.081627E+00   2.464796E+00   4.916369E+00   0.000000E+00
   3   1.885951E-01   0.000000E+00   1.840720E-01   1.913507E-01   4.579098E-01   0.000000E+00
   4   2.186590E-02   0.000000E+00   1.945015E-02   2.473745E-02   5.467617E-02   0.000000E+00
   5   3.240314E-03   0.000000E+00   2.326999E-03   4.544810E-03   1.128720E-02   0.000000E+00
   6   7.057763E-04   0.000000E+00   3.773970E-04   9.007508E-04   2.278760E-03   0.000000E+00
   7   7.091928E-05   0.000000E+00   7.160606E-05   8.653953E-05   1.806005E-04   0.000000E+00
   8   2.629212E-05   0.000000E+00   1.858314E-05   6.592152E-05   8.884511E-05   0.000000E+00
   9   1.074646E-07   0.000000E+00   2.749857E-07   1.290074E-05   4.677228E-07   0.000000E+00
  10   9.595442E-07   0.000000E+00   5.747922E-08   3.823439E-07   1.660277E-05   0.000000E+00
 
:INFO :  Singular value  1.321E+01 Weight  1.000E+00 Projection  7.777E-04
:INFO :  Singular value  4.913E+00 Weight  1.000E+00 Projection  7.741E-05
:INFO :  Singular value  4.578E-01 Weight  1.000E+00 Projection -1.186E-03
:INFO :  Singular value  5.499E-02 Weight  9.998E-01 Projection  9.552E-04
:INFO :  Singular value  1.130E-02 Weight  9.958E-01 Projection  1.875E-03
:INFO :  Singular value  2.367E-03 Weight  9.128E-01 Projection  1.906E-03
:INFO :  Singular value  1.816E-04 Weight  5.808E-02 Projection -4.627E-03
:INFO :  Singular value  9.080E-05 Weight  1.518E-02 Projection -1.145E-03
:INFO :  Singular value  1.552E-05 Weight  4.499E-04 Projection -3.829E-05
:INFO :  Singular value  4.654E-07 Weight  4.050E-07 Projection  1.597E-07
:RANK :  ACTIVE   5.98/10 =  59.82 % ; YY RANK   5.60/10 =  55.99 %
 
:DLIM :  Beta Active  9.086E-01
:BLIM :  VZERO Control Off
:TRUST:  Step 2.10E+00  Charge 1.33E-02 (e) CTO  1.33E-02 (e) PW  2.22E-02 (e)
:DIRM :  MEMORY 10/8  SCALE   1.000 RED  0.17 PRED  0.29 NEXT  0.46 BETA  0.91
:TRAVE:  Charge 2.14E-03 (e) CTO  2.14E-03 (e) PW  1.15E-03 (e)
:DIRP :  |MSR1|= 4.312E-04 |PRATT|= 8.749E-04 ANGLE=  43.9 DEGREES
:DIRQ :  |MSR1|= 1.161E-03 |PRATT|= 2.256E-03 ANGLE=  33.4 DEGREES
:DIRT :  |MSR1|= 1.239E-03 |PRATT|= 2.420E-03 ANGLE=  34.9 DEGREES
:MIX  :   MSE1   REGULARIZATION:  7.31E-04 GREED: 0.08051  Newton 1.00  0.5119                
     
       CHARGES OF MIXED CHARGE DENSITY
:CTO   : INTERSTITIAL CHARGE =     2.979252
:CPC   : PW Pseudocharge     =     7.567299
:CTO001: CHARGE SPHERE  1    =    56.020748

:NEC03: NUCLEAR AND ELECTRONIC CHARGE     59.00000    59.00000

PW CHANGE     H    K    L      Current       Change    Residue
:PTO001:      0    0    0  3.88614516E-02 -4.571E-07 -2.502E-06
:PTO002:     -1   -1   -1 -1.25988728E-01  8.200E-06  3.401E-05
:PTO003:      0    0   -2  7.57649449E-02  3.451E-06 -8.378E-06
:PTO004:      0   -2   -2  6.81213065E-02 -1.685E-05 -4.252E-05
:PTO005:     -1   -1   -3 -6.83481854E-02  1.116E-05  2.067E-05
:PTO006:     -2   -2   -2  1.81162407E-02 -1.549E-05 -3.191E-05
:PTO007:      0    0   -4  3.78236293E-03  1.102E-06  6.520E-06
:PTO008:     -1   -3   -3 -3.63274967E-03  1.991E-05  1.421E-05
:PTO009:      0   -2   -4  3.21168359E-04 -9.542E-06  8.373E-06
:PTO010:     -2   -2   -4 -5.57055902E-03 -1.417E-05 -3.448E-06
:PTO011:     -3   -3   -3  2.25393910E-03  5.270E-06  3.790E-06
:PTO012:     -1   -1   -5  7.32196290E-03  5.587E-06 -1.234E-05

:ENE  : ********** TOTAL ENERGY IN Ry =       -18472.11805559


------- case.scf0 --------
 Flat Integration
 New Mode for Coulomb Integral
 Consistent 3/8+Simpson combinations
 Extension of core to zero
 LDM version in phi
 Fifth-order quadrature in outwin


            ---------
:ITE045: 45. ITERATION
            ---------

:NATO :    1 INDEPENDENT AND    1 TOTAL ATOMS IN UNITCELL
       SUBSTANCE: blebleble                                                   

       LATTICE                      = F   
:POT  : POTENTIAL OPTION EX_LDA EC_LDA VX_LDA VC_LDA
:LAT  : LATTICE CONSTANTS= 10.27741 10.27741 10.27741    1.571    1.571    1.571
:VOL  : UNIT CELL VOLUME =     271.38850
       MODE OF CALCULATION IS       = RELA
       NON-SPINPOLARIZED CALCULATION
:IFFT  : FFT-parameters:   80   80   80 Factor: 2.00


   CONVERGENCE PARAMETER FOR PSEUDOCHARGE: NCON=  9
   MAXIMAL VALUE OF RMT(JATOM)*ABSK(NKK) : RK  =29.95033


:VKCOUL :  VK-COUL convergence: 0.346E-07
       ATOMNUMBER=  1 Pr         VCOUL-ZERO =  0.14355E+00
:FIT001: LUSE= 13 SIGMA OF V-XC FIT FOR ATOM  1  0.1391390E-04
:FIT001: LUSE= 13 SIGMA OF V-XC FIT FOR ATOM  1  0.1391390E-04
:DEN  : DENSITY INTEGRAL  =         -7064.66737806   (Ry)
       ELS_POTENTIAL_AT Z=0 and Z=0.5:  -2.39395  -2.39395
       ELS_POTENTIAL_AT Y=0 and Y=0.5:   0.00000   0.00000
:VZERO:v0,v0c,v0x  -3.33960  -2.39395  -0.94565 v5,v5c,v5x  -3.33960  -2.39395  -0.94565
:VZERY:v0,v0c,v0x  -0.67853   0.00000  -0.67853 v5,v5c,v5x  -0.67853   0.00000  -0.67853
:VZERX:v0,v0c,v0x  -0.67853   0.00000  -0.67853 v5,v5c,v5x  -0.67853   0.00000  -0.67853

------- case.scf1 --------
:LMAX-WF:   10   Non-Spherical LMAX:   4

          ATOMIC SPHERE DEPENDENT PARAMETERS FOR ATOM  Pr        
:e__0001: OVERALL ENERGY PARAMETER IS    0.2967
          OVERALL BASIS SET ON ATOM IS LAPW
:E0_0001: E( 0)=    0.2967
             APW+lo
:E0_0001: E( 0)=   -2.2074   E(BOTTOM)=   -2.586   E(TOP)=   -1.829  4  5   157
             LOCAL ORBITAL
:E1_0001: E( 1)=    0.6967
             APW+lo
:E1_0001: E( 1)=   -0.8172   E(BOTTOM)=   -1.460   E(TOP)=   -0.174  3  4   166
             LOCAL ORBITAL
:E3_0001: E( 3)=    0.4565   E(BOTTOM)=    0.317   E(TOP)=    0.596  0  1   112
             APW+lo
:E2_0001: E( 2)=    0.2967   E(BOTTOM)=    0.118   E(TOP)= -200.000  2 -1    91
             APW+lo

       K=   0.00000   0.00000   0.00000            1
:RKM  : MATRIX SIZE   189LOs:  20  RKM= 7.94  WEIGHT= 1.00  PGR:    
       EIGENVALUES ARE:
:EIG00001:      -2.1638000   -0.8043083   -0.8043083   -0.8043083    0.2458197
:EIG00006:       0.4617859    0.4747502    0.4747502    0.4747502    0.4935375
:EIG00011:       0.4935375    0.4935375    0.6163311    0.6163311    0.6163311
:EIG00016:       0.7647491    0.7647491    1.1618071    1.3701883    1.3701883
:EIG00021:       1.3701883    1.4800611    2.0573683    2.0573683    2.0573683
:EIG00026:       2.1140966    2.1140966    2.1140966    2.3417890    2.3417890
:EIG00031:       2.6517594    2.8285839    2.8285839    2.8285839    3.2400409
:EIG00036:       3.2400409    3.4686200    3.4686200    3.4686200    3.5064526
:EIG00041:       3.5064526    3.5064526    3.6636382    3.6636382    3.6636382
:EIG00046:       3.8733510    3.9225877    3.9225877    3.9225877    4.0194124
 
:EIG00051:       4.0194124    4.0399691    4.0399691    4.0399691    4.0602165
:EIG00056:       4.0602165    4.0602165    4.1650949    4.2082741    4.3410129
:EIG00061:       4.3410129    4.3410129    4.4095711    4.4095711    4.4095711
:EIG00066:       4.5972869    5.6020393    5.6020393    5.6135040    5.8856731
:EIG00071:       5.8856731    5.8856731    6.2943254    6.2943254    6.4592430
:EIG00076:       6.4592430    6.4592430    6.5268576    6.5268576    6.5268576
:EIG00081:       6.8398330    6.8398330    6.8398330    6.8410611    6.8410611
:EIG00086:       6.8410611    6.8807534    6.8807534    6.9408365    6.9408365
:EIG00091:       6.9408365    7.0374009    7.0374009    7.0374009    7.0459204
:EIG00096:       7.0459204    7.0459204    7.1105393    7.2057983    7.2495433
 
:EIG00101:       7.2495433    7.3084710    7.3084710    7.3084710    7.3343186
:EIG00106:       7.3343186    7.3343186    7.3434422    7.3434422    7.3434422
:EIG00111:       7.4138782    7.4138782    7.6515077    7.6990606
       ********************************************************

:KPT   :      NUMBER OF K-POINTS:   165

------- case.scfso --------
   0.0   0.0 angle (M,z), angle (M,x) deg
 
        SPIN-ORBIT EIGENVALUES:
     K=   0.00000   0.00000   0.00000            1
      MATRIX SIZE=  228   WEIGHT= 1.00
     EIGENVALUES ARE:
          -2.1638000   -2.1638000   -0.9511313   -0.9511313   -0.7355736
          -0.7355736   -0.7355736   -0.7355736    0.2458197    0.2458197
           0.4560609    0.4560609    0.4630434    0.4630434    0.4630434
           0.4630434    0.4866013    0.4866013    0.4950110    0.4950110
           0.5013591    0.5013591    0.5013591    0.5013591    0.6125615
           0.6125615    0.6125615    0.6125615    0.6226173    0.6226173
           0.7651693    0.7651693    0.7651693    0.7651693    1.1618519
           1.1618519    1.3648057    1.3648057    1.3726235    1.3726235

           1.3726235    1.3726235    1.4800611    1.4800611    2.0466019
           2.0466019    2.0525456    2.0525456    2.0525456    2.0525456
           2.0665250    2.0665250    2.1487899    2.1487899    2.1487899
           2.1487899    2.3420734    2.3420734    2.3420734    2.3420734
           2.6517594    2.6517594    2.8281617    2.8281617    2.8288084
           2.8288084    2.8288084    2.8288084    3.2400192    3.2400192
           3.2400192    3.2400192    3.4673343    3.4673343    3.4673343
           3.4673343    3.4714264    3.4714264    3.4780047    3.4780047

           3.5219553    3.5219553    3.5219553    3.5219553    3.6636311
           3.6636311    3.6636418    3.6636418    3.6636418    3.6636418
           3.8733510    3.8733510    3.9225463    3.9225463    3.9225463
           3.9225463    3.9226755    3.9226755    4.0194124    4.0194124
           4.0194124    4.0194124    4.0398211    4.0398211    4.0400272
           4.0400272    4.0400272    4.0400272    4.0599435    4.0599435
           4.0599435    4.0599435    4.0608083    4.0608083    4.1651008
           4.1651008    4.2082741    4.2082741    4.3409566    4.3409566

           4.3409566    4.3409566    4.3411292    4.3411292    4.4088441
           4.4088441    4.4099823    4.4099823    4.4099823    4.4099823

       ********************************************************

------- case.scf2 --------
:GMA  : POTENTIAL AND CHARGE CUT-OFF  12.00 Ry**.5




:POS001: at.nr.   1 position = 0.00000 0.00000 0.50000  multiplicity =  1

       lmmax  5
       lm=   0 0  4 0  4 4  6 0  6 4
:FER gutzwiller fermi energy   0.51409
:EORB         -0.167047909
:SUM sum of gutz band energies         -6.959412017

:CHA001: total charge inside sphere   1 =    10.021612
:PCS001: partial charges sphere =  1 s,p,d,f,      d-eg,d-t2g 
:QTL001: 2.0269 5.3777 0.6344 1.9824 0.0000 0.0000 0.0000 0.2258 0.4086 0.0000 0.0000 0.0000

:CHA  : total charge inside unit cell =       6.500000

------- case.scfc --------

        1.ATOM      Pr                   14 CORE STATES
:1S 001: 1S               -3067.136499298 Ry
:2S 001: 2S                -492.891573241 Ry
:2PP001: 2P*               -465.990341606 Ry
:2P 001: 2P                -430.592993663 Ry
:3S 001: 3S                -105.983373179 Ry
:3PP001: 3P*                -94.521120443 Ry
:3P 001: 3P                 -87.513357975 Ry
:3DD001: 3D*                -67.440230528 Ry
:3D 001: 3D                 -65.928694516 Ry
:4S 001: 4S                 -20.660593703 Ry
:4PP001: 4P*                -16.367252984 Ry
:4P 001: 4P                 -14.839696200 Ry
:4DD001: 4D*                 -7.772225928 Ry
:4D 001: 4D                  -7.502754117 Ry

------- case.scfm --------
:CINT001 Core Integral Atom   1   45.999524

       DENSITY AT NUCLEUS
        JATOM        VALENCE       SEMI-CORE          CORE           TOTAL
:RTO001:   1      651.344651        0.000000   656824.400538   657475.745189
     
       CHARGES OF NEW CHARGE DENSITY
:NTO   : INTERSTITIAL CHARGE =     2.978488
:NPC   : PW Pseudocharge     =     7.564617
:NTO001: CHARGE SPHERE  1    =    56.021136

:NEC01: NUCLEAR AND ELECTRONIC CHARGE     59.00000    58.99962
     
       CHARGES OF OLD CHARGE DENSITY
:OTO   : INTERSTITIAL CHARGE =     2.979252
:OPC   : PW Pseudocharge     =     7.567299
:OTO001: CHARGE SPHERE  1    =    56.020748

:NEC02: NUCLEAR AND ELECTRONIC CHARGE     59.00000    59.00000
     
       CONVERGENCE TEST
:DTO001: DIFFERENCE IN SPHERE  1 =  0.0006838

:DIS  :  CHARGE DISTANCE       ( 0.0006838 for atom    1 spin 1)      0.0006838
 PW Mixed is           59
 
******************************************************
* MULTISECANT MIXING VER9 RELEASE 10.4.0              *
* Standard Mode with controls                        *
* Fixed density scale                                *
* Regularization       1.000E-04                     *
* Trust Upper Limit    5.000E+00                     *
* Max Number of Memory Steps    8                    *
******************************************************
 
:PWTMP   2.0594E+02  1.2500E+02  2.7139E+02
:PLANE:  PW TOTAL      2.8270 DISTAN   7.86E-04  2.78E-02 %
:CHARG:  CLM/ATOM    977.1940 DISTAN   9.14E-04  9.35E-05 %
 
Step History
        DMIX         DMIXT        Red     Pred      Trust     Lambda    MagRel    MagAbs     Beta
 14   4.6358E-02   4.6358E-02  9.10E-01  5.46E-01  8.28E-01  1.30E+00  6.38E-02  8.48E-03  4.65E-01
 15   3.0992E-02   2.5453E-02  6.49E-01  5.00E-01  6.73E-01  3.39E-01  1.99E-01  2.41E-02  5.82E-01
 16   2.7007E-02   2.7007E-02  3.49E-01  3.88E-01  8.42E-01  1.00E+00  4.18E-01  3.28E-02  7.27E-01
 17   2.2756E-02   2.2756E-02  7.30E-01  7.58E-01  1.05E+00  1.02E+00  3.17E-01  8.69E-03  9.09E-01
 18   3.5139E-02   3.5139E-02  1.11E+00  8.80E-01  1.32E+00  1.53E+00  3.30E-01  6.60E-03  7.27E-01
 19   4.2290E-02   4.2290E-02  7.27E-01  7.60E-01  1.18E+00  1.77E+00  2.91E-01  6.48E-03  9.09E-01
 20   1.0573E-01   1.0573E-01  3.15E+00  4.27E-01  1.58E+00  1.38E+00  1.36E+00  2.21E-02  7.27E-01
 21   2.5442E-01   2.5442E-01  2.73E-01  4.23E-01  1.18E+00  1.61E+00  3.93E-01  2.00E-02  5.82E-01
 22   1.0177E-01   1.0177E-01  1.74E-01  2.85E-01  1.58E+00  1.42E+00  4.42E-01  6.15E-03  7.27E-01
 23   8.0514E-02   8.0514E-02 -1.00E+00  4.61E-01  2.10E+00  1.00E+00  5.12E-01  1.24E-03  9.09E-01
:JACOBIANS    1.194E+00   3.592E+00
  
:NORMS:  1/Froebius, Min, Max, Used   0.6979E+00  0.6713E+00  0.1019E+01  0.7123E+00
:INFO :  Number of Memory Steps    9 Skipping   13
:INFO :  SLambda=    1.4329057368  Max    1.4329057368
:PREDicted Charge, CTotal, PW Trust    1.569E-03   1.569E-03   1.558E-03
:PREDicted DMix, Beta, BLim   3.3109E-01  1.0391E-01  9.8922E-01

Eigenvalues, unscaled except for SY+YY
   #     SY Real        SY Imag          SS             YY         SY+YY Real      SY+YY Imag
   1   4.229608E+00   0.000000E+00   3.508110E+00   6.925107E+00   1.275331E+01   0.000000E+00
   2   9.953038E-01   0.000000E+00   6.664187E-01   1.854000E+00   3.510598E+00   0.000000E+00
   3   1.931025E-01   0.000000E+00   1.900030E-01   1.956957E-01   4.727345E-01   0.000000E+00
   4   1.613853E-02   0.000000E+00   1.449570E-02   1.841173E-02   4.014744E-02   0.000000E+00
   5   4.647888E-03   0.000000E+00   3.592589E-03   6.217657E-03   1.633298E-02   0.000000E+00
   6   5.067345E-04   0.000000E+00   6.929576E-04   4.226375E-04   7.955812E-04   0.000000E+00
   7   6.969665E-05   0.000000E+00   4.500917E-05   8.832594E-05   1.465150E-04   0.000000E+00
   8   2.486873E-06   0.000000E+00   2.780080E-06   4.724976E-05   2.430929E-06   0.000000E+00
   9   4.611074E-06   0.000000E+00   5.677040E-07   1.039826E-05   5.234024E-05   0.000000E+00
 
:INFO :  Singular value  1.277E+01 Weight  1.000E+00 Projection -1.342E-04
:INFO :  Singular value  3.512E+00 Weight  1.000E+00 Projection -2.464E-04
:INFO :  Singular value  4.729E-01 Weight  1.000E+00 Projection -2.207E-04
:INFO :  Singular value  4.072E-02 Weight  9.997E-01 Projection  4.491E-04
:INFO :  Singular value  1.621E-02 Weight  9.982E-01 Projection  3.078E-03
:INFO :  Singular value  8.245E-04 Weight  5.863E-01 Projection -3.358E-02
:INFO :  Singular value  1.879E-04 Weight  6.859E-02 Projection  1.653E-03
:INFO :  Singular value  4.629E-05 Weight  4.448E-03 Projection  1.668E-04
:INFO :  Singular value  2.050E-06 Weight  8.760E-06 Projection -9.387E-06
:RANK :  ACTIVE   5.66/9  =  62.86 % ; YY RANK   5.28/9  =  58.65 %
 
:DLIM :  Beta Active  7.269E-01
:BLIM :  VZERO Control Off
:TRUST:  Step 2.80E+00  Charge 1.27E-02 (e) CTO  1.27E-02 (e) PW  1.77E-02 (e)
:DIRM :  MEMORY  9/8  SCALE   1.000 RED  0.50 PRED  0.46 NEXT  0.57 BETA  0.73
:TRAVE:  Charge 1.61E-03 (e) CTO  1.61E-03 (e) PW  1.16E-03 (e)
:DIRP :  |MSR1|= 6.594E-04 |PRATT|= 7.864E-04 ANGLE=  14.4 DEGREES
:DIRQ :  |MSR1|= 2.378E-03 |PRATT|= 9.141E-04 ANGLE=  55.7 DEGREES
:DIRT :  |MSR1|= 2.468E-03 |PRATT|= 1.206E-03 ANGLE=  54.5 DEGREES
:MIX  :   MSE1   REGULARIZATION:  6.93E-04 GREED: 0.20129  Newton 1.00  2.0466                
     
       CHARGES OF MIXED CHARGE DENSITY
:CTO   : INTERSTITIAL CHARGE =     2.978171
:CPC   : PW Pseudocharge     =     7.565842
:CTO001: CHARGE SPHERE  1    =    56.021829

:NEC03: NUCLEAR AND ELECTRONIC CHARGE     59.00000    59.00000

PW CHANGE     H    K    L      Current       Change    Residue
:PTO001:      0    0    0  3.88521013E-02 -9.350E-06 -7.802E-06
:PTO002:     -1   -1   -1 -1.25963976E-01  2.475E-05  3.128E-05
:PTO003:      0    0   -2  7.57547562E-02 -1.019E-05 -1.608E-05
:PTO004:      0   -2   -2  6.80999325E-02 -2.137E-05 -2.748E-05
:PTO005:     -1   -1   -3 -6.83343836E-02  1.380E-05  9.644E-06
:PTO006:     -2   -2   -2  1.81015559E-02 -1.468E-05 -1.666E-05
:PTO007:      0    0   -4  3.78514052E-03  2.778E-06  5.646E-06
:PTO008:     -1   -3   -3 -3.63368727E-03 -9.376E-07 -7.677E-06
:PTO009:      0   -2   -4  3.31893044E-04  1.072E-05  1.981E-05
:PTO010:     -2   -2   -4 -5.56524096E-03  5.318E-06  1.192E-05
:PTO011:     -3   -3   -3  2.25392741E-03 -1.169E-08 -1.663E-06
:PTO012:     -1   -1   -5  7.31004576E-03 -1.192E-05 -1.867E-05

:ENE  : ********** TOTAL ENERGY IN Ry =       -18472.11805587

