
:LABEL1: Calculations in /home/ykent/GWIEN/example/Pr/aU/V21/case
:LABEL2: on didymium-2.cmpgroup.ameslab.gov at Fri Jul 10 13:27:54 CDT 2020
:LABEL3: using WIEN2k_19.1 (Release 25/6/2019) in /home/ykent/opt/src/WIEN2k_19.1
:LABEL4: using the command: run_lapw -cc 0.0001
 Flat Integration
 New Mode for Coulomb Integral
 Consistent 3/8+Simpson combinations
 Extension of core to zero
 LDM version in phi
 Fifth-order quadrature in outwin


            ---------
:ITE001:  1. ITERATION
            ---------

:NATO :    1 INDEPENDENT AND    2 TOTAL ATOMS IN UNITCELL
       SUBSTANCE: aU                                                          

       LATTICE                      = CXY 
:POT  : POTENTIAL OPTION EX_LDA EC_LDA VX_LDA VC_LDA
:LAT  : LATTICE CONSTANTS=  6.69940 13.59477 11.73665    1.571    1.571    1.571
:VOL  : UNIT CELL VOLUME =     534.46794
       MODE OF CALCULATION IS       = RELA
       NON-SPINPOLARIZED CALCULATION
:IFFT  : FFT-parameters:   54  108   96 Factor: 2.00


   CONVERGENCE PARAMETER FOR PSEUDOCHARGE: NCON=  9
   MAXIMAL VALUE OF RMT(JATOM)*ABSK(NKK) : RK  =27.59996


:VKCOUL :  VK-COUL convergence: 0.117E-06
       ATOMNUMBER=  1 Pr1        VCOUL-ZERO = -0.31169E-01
:EFG001:                        EFG         =    -0.02177   *10**21  V / m**2
                               V20  TOT/SRF=    -0.01886    -0.02474
                               V22  TOT/SRF=     0.00350     0.00435
                               V22M TOT/SRF=     0.00000     0.00000
                               V21  TOT/SRF=     0.00000     0.00000
                               V21M TOT/SRF=     0.00000     0.00000

              0.01439    0.00000    0.00000        0.01439    0.00000    0.00000
              0.00000    0.00738    0.00000        0.00000    0.00738    0.00000
              0.00000    0.00000   -0.02177        0.00000    0.00000   -0.02177

         MAIN DIRECTIONS OF THE EFG   1.0000  0.0000  0.0000
                                      0.0000  1.0000  0.0000
                                      0.0000  0.0000  1.0000
:ANG001:  ANGLE WITH OLD X-AXIS =         0.0

:ETA001:                         ASYMM. ETA =     0.32184


     HELLMANN-FEYNMAN-FORCE IN mRy/a.u. = |F|  Fx       Fy             Fz
:FHF001:   1.ATOM    249.597626573248      0.000000000000      0.000000000000   -249.597626573248

:FIT001: LUSE= 13 SIGMA OF V-XC FIT FOR ATOM  1  0.1676037E-05
:FIT001: LUSE= 13 SIGMA OF V-XC FIT FOR ATOM  1  0.1676037E-05
:DEN  : DENSITY INTEGRAL  =        -14139.60421074   (Ry)
       ELS_POTENTIAL_AT Z=0 and Z=0.5:   0.65758   0.65758
       ELS_POTENTIAL_AT Y=0 and Y=0.5:   0.07167   0.07167
:VZERO:v0,v0c,v0x   0.11234   0.65758  -0.54525 v5,v5c,v5x   0.11234   0.65758  -0.54525
:VZERY:v0,v0c,v0x  -0.65952   0.07167  -0.73119 v5,v5c,v5x  -0.65952   0.07167  -0.73119
:VZERX:v0,v0c,v0x  -1.06122  -0.36110  -0.70012 v5,v5c,v5x  -1.06122  -0.36110  -0.70012
:LMAX-WF:   10   Non-Spherical LMAX:   4

          ATOMIC SPHERE DEPENDENT PARAMETERS FOR ATOM  Pr1       
:e__0001: OVERALL ENERGY PARAMETER IS    0.3000
          OVERALL BASIS SET ON ATOM IS LAPW
:E0_0001: E( 0)=    0.3000
             APW+lo
:E0_0001: E( 0)=   -2.1308   E(BOTTOM)=   -2.768   E(TOP)=   -1.494  4  5   170
             LOCAL ORBITAL
:E1_0001: E( 1)=    0.7000
             APW+lo
:E1_0001: E( 1)=   -0.6617   E(BOTTOM)=   -1.621   E(TOP)=    0.297  3  4   198
             LOCAL ORBITAL
:E3_0001: E( 3)=    0.5279   E(BOTTOM)=    0.319   E(TOP)=    0.737  0  1   121
             APW+lo
:E2_0001: E( 2)=    0.3000   E(BOTTOM)=    0.120   E(TOP)= -200.000  2 -1   100
             APW+lo

       K=   0.06250   0.00000   0.06250            1
:RKM  : MATRIX SIZE   485LOs:  40  RKM= 8.49  WEIGHT= 4.00  PGR:    
       EIGENVALUES ARE:
:EIG00001:      -2.0973723   -2.0879192   -0.8133433   -0.7548725   -0.7420417
:EIG00006:      -0.7381214   -0.7335702   -0.7328138    0.3070201    0.4523887
:EIG00011:       0.5407362    0.5418866    0.5427678    0.5461485    0.5477420
:EIG00016:       0.5564829    0.5604144    0.5608902    0.5634941    0.5652975
:EIG00021:       0.5688270    0.5714048    0.5726100    0.5751453    0.6083568
:EIG00026:       0.6200647    0.6827540    0.7064750    0.7164489    0.7578950
:EIG00031:       0.7734040    0.8433688    0.8877359    0.9250485    1.1789907
:EIG00036:       1.2193729    1.3076212    1.3097765    1.4544013    1.5056803
:EIG00041:       1.5460482    1.6481219    1.7116542    1.7305805    1.8101016
:EIG00046:       1.8798517    1.8882879    1.9285787    1.9941445
 
       ********************************************************

:KPT   :      NUMBER OF K-POINTS:   288
:GAP (global)   :    0.0    Ry =     0.0   eV (metal)
         Bandranges (emin - emax) and occupancy:
:BAN00005:   5   -0.793471   -0.742042  2.00000000
:BAN00006:   6   -0.781578   -0.735393  2.00000000
:BAN00007:   7   -0.766310   -0.733353  2.00000000
:BAN00008:   8   -0.746278   -0.730295  2.00000000
:BAN00009:   9    0.302611    0.513708  2.00000000
:BAN00010:  10    0.408339    0.526515  2.00000000
:BAN00011:  11    0.492665    0.540736  2.00000000
:BAN00012:  12    0.525469    0.545491  2.00000000
:BAN00013:  13    0.536250    0.553619  1.54348504
:BAN00014:  14    0.541666    0.557178  0.45604146
:BAN00015:  15    0.546293    0.559976  0.00047349
:BAN00016:  16    0.550790    0.560546  0.00000000
:BAN00017:  17    0.553716    0.561292  0.00000000
:BAN00018:  18    0.555505    0.562370  0.00000000
:BAN00019:  19    0.558341    0.565260  0.00000000
:BAN00020:  20    0.559163    0.569215  0.00000000
        Energy to separate low and high energystates:    0.25261


:NOE  : NUMBER OF ELECTRONS          =   26.000

:FER  : F E R M I - ENERGY(TETRAH.M.)=   0.5463370725
:GMA  : POTENTIAL AND CHARGE CUT-OFF  12.00 Ry**.5

:POS001: ATOM   -1 X,Y,Z = 0.00000 0.89750 0.25000  MULT= 2  ZZ= 59.000  Pr1       

       LMMAX 16
       LM=   0 0  1 0  2 0  2 2  3 0  3 2  4 0  4 2  4 4  5 0  5 2  5 4  6 0  6 2  6 4  6 6

:CHA001: TOTAL VALENCE CHARGE INSIDE SPHERE   1 =   9.4289    (RMT=  2.3000 )
:PCS001: PARTIAL CHARGES SPHERE =  1 S,P,D,F,PX,PY,PZ,D-Z2,D-X2Y2,D-XY,D-XZ,D-YZ 
:QTL001: 1.9394 5.0214 0.4805 1.9874 1.6706 1.6715 1.6793 0.0878 0.0921 0.1045 0.0924 0.1037
        Q-s-low E-s-low   Q-p-low E-p-low   Q-d-low E-d-low   Q-f-low E-f-low
:EPL001:  1.8693 -2.0882    4.9591 -0.7654    0.0009 -0.7899    0.0003 -0.7996
        Q-s-hi  E-s-hi    Q-p-hi  E-p-hi    Q-d-hi  E-d-hi    Q-f-hi  E-f-hi 
:EPH001:  0.0702  0.4425    0.0624  0.4824    0.4796  0.5015    1.9871  0.5347

                      VXX         VYY         VZZ       UP TO R
:VZZ001:            -1.26465     4.58069    -3.31604       2.300

:CHA  : TOTAL VALENCE CHARGE INSIDE UNIT CELL =      26.000000

:SUM  : SUM OF EIGENVALUES =         -12.487162092


        1.ATOM      Pr1                  14 CORE STATES
       CORE-FORCE in mRy/a.u. = |F|      Fx             Fy             Fz
:FCO001:   1.ATOM    203.734945579989      0.000000000000      0.000000000000    203.734945579989

:1S 001: 1S               -3067.025148387 Ry
:2S 001: 2S                -492.790794966 Ry
:2PP001: 2P*               -465.888439785 Ry
:2P 001: 2P                -430.491632785 Ry
:3S 001: 3S                -105.888130800 Ry
:3PP001: 3P*                -94.425562375 Ry
:3P 001: 3P                 -87.418151145 Ry
:3DD001: 3D*                -67.344558461 Ry
:3D 001: 3D                 -65.833126502 Ry
:4S 001: 4S                 -20.572636476 Ry
:4PP001: 4P*                -16.279582092 Ry
:4P 001: 4P                 -14.752498001 Ry
:4DD001: 4D*                 -7.686083280 Ry
:4D 001: 4D                  -7.416796175 Ry
:CINT001 Core Integral Atom   1   45.998482

       DENSITY AT NUCLEUS
        JATOM        VALENCE       SEMI-CORE          CORE           TOTAL
:RTO001:   1      646.716198        0.000000   656821.084411   657467.800609
     
       CHARGES OF NEW CHARGE DENSITY
:NTO   : INTERSTITIAL CHARGE =     7.142216
:NPC   : PW Pseudocharge     =    16.870504
:NTO001: CHARGE SPHERE  1    =    55.427374

:NEC01: NUCLEAR AND ELECTRONIC CHARGE    118.00000   117.99696
     
       CHARGES OF OLD CHARGE DENSITY
:OTO   : INTERSTITIAL CHARGE =     7.016089
:OPC   : PW Pseudocharge     =    15.674868
:OTO001: CHARGE SPHERE  1    =    55.492579

:NEC02: NUCLEAR AND ELECTRONIC CHARGE    118.00000   118.00125
     
       CONVERGENCE TEST
:DTO001: DIFFERENCE IN SPHERE  1 =  0.1383558

:DIS  :  CHARGE DISTANCE       ( 0.1383558 for atom    1 spin 1)      0.1383558
 PW Mixed is          544
 
******************************************************
* MULTISECANT MIXING VER9 RELEASE 10.4.0              *
* Standard Mode with controls                        *
* Fixed density scale                                *
* Regularization       1.000E-04                     *
* Trust Upper Limit    5.000E+00                     *
* Max Number of Memory Steps    8                    *
******************************************************
 
:PWTMP   4.3254E+02  1.9467E+02  5.3447E+02
:PLANE:  PW TOTAL      3.9766 DISTAN   4.78E-01  1.20E+01 %
:CHARG:  CLM/ATOM   1382.0506 DISTAN   6.81E-01  4.93E-02 %
 
Step History
        DMIX         DMIXT        Red     Pred      Trust     Lambda    MagRel    MagAbs     Beta
  1   3.5000E-02   3.5000E-02 -1.00E+00  1.00E+00 -1.00E+01  1.00E+00  3.50E-02  3.50E-02  1.00E+00
:INFO :  Note, Pratt in use
:TRUST:  Step 3.75E-02  Charge 7.50E-02 (e) CTO  2.50E-01 (e) PW  3.50E-01 (e)
:DIRM :  MEMORY  0/ 8 SCALE   1.000
Performing Pseudo Compensation
Final Pseudo Compensation Rescaling     1.00000E+00
:MIX  :   PRATT  REGULARIZATION:  1.00E-04 GREED: 0.02500                  
     
       CHARGES OF MIXED CHARGE DENSITY
:CTO   : INTERSTITIAL CHARGE =     7.018102
:CPC   : PW Pseudocharge     =    16.540697
:CTO001: CHARGE SPHERE  1    =    55.490949

:NEC03: NUCLEAR AND ELECTRONIC CHARGE    118.00000   118.00000

PW CHANGE     H    K    L      Current       Change    Residue
:PTO001:      0    0    0  4.40789756E-02  1.631E-03  2.500E-03
:PTO003:      0    2    0  1.26316028E-02  7.926E-04  1.666E-03
:PTO004:     -1    1    0  6.29496369E-02  4.269E-03  5.979E-03
:PTO005:      0    2   -1 -7.35793872E-02 -5.062E-03 -6.323E-03
:PTO006:      0    0   -2 -3.81913583E-02 -2.627E-03 -3.066E-03
:PTO007:     -1    1   -1 -8.08081599E-02 -6.036E-03 -6.808E-03
:PTO008:      0    2   -2 -1.36395119E-02 -1.251E-03 -1.586E-03
:PTO009:     -1    1   -2 -6.93517144E-02 -6.867E-03 -9.340E-03
:PTO011:     -1    3    0 -1.15406581E-02 -1.352E-03 -1.559E-03
:PTO012:     -1    3   -1 -5.28331155E-02 -6.797E-03 -9.436E-03
:PTO013:      0    4    0 -1.00517011E-02 -1.426E-03 -1.648E-03
:PTO014:      0    2   -3  2.26839051E-02  3.243E-03  4.144E-03

:ENE  : ********** TOTAL ENERGY IN Ry =       -36944.11501386

       TOTAL FORCE IN mRy/a.u. = |F|     Fx             Fy             Fz     with/without FOR in case.in2
:FOR001:   1.ATOM         45.863          0.000          0.000        -45.863 partial forces
       TOTAL FORCE WITH RESPECT TO GLOBAL CARTESIAN COORDINATES:
:FCA001:   1.ATOM                         0.000        -45.863          0.000 partial forces
       TOTAL FORCE WITH RESPECT TO THE GLOBAL COORDINATE SYSTEM:
:FGL001:   1.ATOM                 0.000000000   -45.862680993     0.000000000 partial forces
 Flat Integration
 New Mode for Coulomb Integral
 Consistent 3/8+Simpson combinations
 Extension of core to zero
 LDM version in phi
 Fifth-order quadrature in outwin


            ---------
:ITE002:  2. ITERATION
            ---------

:NATO :    1 INDEPENDENT AND    2 TOTAL ATOMS IN UNITCELL
       SUBSTANCE: aU                                                          

       LATTICE                      = CXY 
:POT  : POTENTIAL OPTION EX_LDA EC_LDA VX_LDA VC_LDA
:LAT  : LATTICE CONSTANTS=  6.69940 13.59477 11.73665    1.571    1.571    1.571
:VOL  : UNIT CELL VOLUME =     534.46794
       MODE OF CALCULATION IS       = RELA
       NON-SPINPOLARIZED CALCULATION
:IFFT  : FFT-parameters:   54  108   96 Factor: 2.00


   CONVERGENCE PARAMETER FOR PSEUDOCHARGE: NCON=  9
   MAXIMAL VALUE OF RMT(JATOM)*ABSK(NKK) : RK  =27.59996


:VKCOUL :  VK-COUL convergence: 0.719E-07
       ATOMNUMBER=  1 Pr1        VCOUL-ZERO = -0.28768E-01
:EFG001:                        EFG         =     0.12215   *10**21  V / m**2
                               V20  TOT/SRF=    -0.09050    -0.02412
                               V22  TOT/SRF=    -0.06990     0.00365
                               V22M TOT/SRF=     0.00000     0.00000
                               V21  TOT/SRF=     0.00000     0.00000
                               V21M TOT/SRF=     0.00000     0.00000

             -0.01765    0.00000    0.00000       -0.01765    0.00000    0.00000
              0.00000    0.12215    0.00000        0.00000    0.12215    0.00000
              0.00000    0.00000   -0.10450        0.00000    0.00000   -0.10450

         MAIN DIRECTIONS OF THE EFG   1.0000  0.0000  0.0000
                                      0.0000  1.0000  0.0000
                                      0.0000  0.0000  1.0000
:ANG001:  ANGLE WITH OLD X-AXIS =         0.0

:ETA001:                         ASYMM. ETA =     0.71099


     HELLMANN-FEYNMAN-FORCE IN mRy/a.u. = |F|  Fx       Fy             Fz
:FHF001:   1.ATOM    256.025435876881      0.000000000000      0.000000000000   -256.025435876881

:FIT001: LUSE= 13 SIGMA OF V-XC FIT FOR ATOM  1  0.1623275E-05
:FIT001: LUSE= 13 SIGMA OF V-XC FIT FOR ATOM  1  0.1623275E-05
:DEN  : DENSITY INTEGRAL  =        -14139.54660944   (Ry)
       ELS_POTENTIAL_AT Z=0 and Z=0.5:   0.66049   0.66049
       ELS_POTENTIAL_AT Y=0 and Y=0.5:   0.07481   0.07481
:VZERO:v0,v0c,v0x   0.11505   0.66049  -0.54544 v5,v5c,v5x   0.11505   0.66049  -0.54544
:VZERY:v0,v0c,v0x  -0.65734   0.07481  -0.73215 v5,v5c,v5x  -0.65734   0.07481  -0.73215
:VZERX:v0,v0c,v0x  -1.07034  -0.36566  -0.70468 v5,v5c,v5x  -1.07034  -0.36566  -0.70468
:LMAX-WF:   10   Non-Spherical LMAX:   4

          ATOMIC SPHERE DEPENDENT PARAMETERS FOR ATOM  Pr1       
:e__0001: OVERALL ENERGY PARAMETER IS    0.3309
          OVERALL BASIS SET ON ATOM IS LAPW
:E0_0001: E( 0)=    0.3309
             APW+lo
:E0_0001: E( 0)=   -2.1296   E(BOTTOM)=   -2.766   E(TOP)=   -1.493  4  5   172
             LOCAL ORBITAL
:E1_0001: E( 1)=    0.7309
             APW+lo
:E1_0001: E( 1)=   -0.6603   E(BOTTOM)=   -1.619   E(TOP)=    0.298  3  4   193
             LOCAL ORBITAL
:E3_0001: E( 3)=    0.5283   E(BOTTOM)=    0.319   E(TOP)=    0.737  0  1   120
             APW+lo
:E2_0001: E( 2)=    0.3309   E(BOTTOM)=    0.122   E(TOP)= -200.000  2 -1    93
             APW+lo

       K=   0.06250   0.00000   0.06250            1
:RKM  : MATRIX SIZE   485LOs:  40  RKM= 8.49  WEIGHT= 4.00  PGR:    
       EIGENVALUES ARE:
:EIG00001:      -2.0960531   -2.0866229   -0.8114015   -0.7534860   -0.7406723
:EIG00006:      -0.7366416   -0.7317727   -0.7313533    0.3094651    0.4546990
:EIG00011:       0.5416469    0.5427837    0.5435841    0.5465083    0.5483441
:EIG00016:       0.5570748    0.5610876    0.5613767    0.5639496    0.5657840
:EIG00021:       0.5693931    0.5717038    0.5727294    0.5757538    0.6100904
:EIG00026:       0.6220394    0.6848978    0.7085468    0.7187455    0.7599048
:EIG00031:       0.7753901    0.8455548    0.8898100    0.9271052    1.1810972
:EIG00036:       1.2215832    1.3098173    1.3120659    1.4567153    1.5082033
:EIG00041:       1.5484267    1.6505157    1.7137650    1.7329232    1.8121420
:EIG00046:       1.8820956    1.8906416    1.9307185    1.9963747
 
       ********************************************************

:KPT   :      NUMBER OF K-POINTS:   288
:GAP (global)   :    0.0    Ry =     0.0   eV (metal)
         Bandranges (emin - emax) and occupancy:
:BAN00004:   4   -0.799205   -0.753486  2.00000000
:BAN00005:   5   -0.791929   -0.740672  2.00000000
:BAN00006:   6   -0.779967   -0.733920  2.00000000
:BAN00007:   7   -0.764873   -0.731773  2.00000000
:BAN00008:   8   -0.744771   -0.728838  2.00000000
:BAN00009:   9    0.305057    0.515777  2.00000000
:BAN00010:  10    0.410723    0.528146  2.00000000
:BAN00011:  11    0.494757    0.541647  2.00000000
:BAN00012:  12    0.527140    0.546555  2.00000000
:BAN00013:  13    0.537150    0.554280  1.54208574
:BAN00014:  14    0.542617    0.557783  0.45791425
:BAN00015:  15    0.547207    0.560469  0.00000000
:BAN00016:  16    0.551475    0.560876  0.00000000
:BAN00017:  17    0.554470    0.561918  0.00000000
:BAN00018:  18    0.556113    0.563037  0.00000000
:BAN00019:  19    0.558768    0.565860  0.00000000
        Energy to separate low and high energystates:    0.25506


:NOE  : NUMBER OF ELECTRONS          =   26.000

:FER  : F E R M I - ENERGY(TETRAH.M.)=   0.5470870826
:GMA  : POTENTIAL AND CHARGE CUT-OFF  12.00 Ry**.5

:POS001: ATOM   -1 X,Y,Z = 0.00000 0.89750 0.25000  MULT= 2  ZZ= 59.000  Pr1       

       LMMAX 16
       LM=   0 0  1 0  2 0  2 2  3 0  3 2  4 0  4 2  4 4  5 0  5 2  5 4  6 0  6 2  6 4  6 6

:CHA001: TOTAL VALENCE CHARGE INSIDE SPHERE   1 =   9.4549    (RMT=  2.3000 )
:PCS001: PARTIAL CHARGES SPHERE =  1 S,P,D,F,PX,PY,PZ,D-Z2,D-X2Y2,D-XY,D-XZ,D-YZ 
:QTL001: 1.9393 5.0213 0.4720 2.0222 1.6707 1.6715 1.6792 0.0861 0.0895 0.1035 0.0908 0.1022
        Q-s-low E-s-low   Q-p-low E-p-low   Q-d-low E-d-low   Q-f-low E-f-low
:EPL001:  1.8694 -2.0869    4.9600 -0.7638    0.0009 -0.7878    0.0003 -0.7976
        Q-s-hi  E-s-hi    Q-p-hi  E-p-hi    Q-d-hi  E-d-hi    Q-f-hi  E-f-hi 
:EPH001:  0.0699  0.4445    0.0613  0.4837    0.4711  0.5029    2.0219  0.5357

                      VXX         VYY         VZZ       UP TO R
:VZZ001:            -0.25701     3.87898    -3.62197       2.300

:CHA  : TOTAL VALENCE CHARGE INSIDE UNIT CELL =      26.000000

:SUM  : SUM OF EIGENVALUES =         -12.446643943


        1.ATOM      Pr1                  14 CORE STATES
       CORE-FORCE in mRy/a.u. = |F|      Fx             Fy             Fz
:FCO001:   1.ATOM    216.144193328306      0.000000000000      0.000000000000    216.144193328306

:1S 001: 1S               -3067.027425330 Ry
:2S 001: 2S                -492.792629239 Ry
:2PP001: 2P*               -465.890338874 Ry
:2P 001: 2P                -430.493504375 Ry
:3S 001: 3S                -105.889474307 Ry
:3PP001: 3P*                -94.426935185 Ry
:3P 001: 3P                 -87.419489616 Ry
:3DD001: 3D*                -67.345967015 Ry
:3D 001: 3D                 -65.834524447 Ry
:4S 001: 4S                 -20.573046189 Ry
:4PP001: 4P*                -16.279950588 Ry
:4P 001: 4P                 -14.752797362 Ry
:4DD001: 4D*                 -7.686262695 Ry
:4D 001: 4D                  -7.416951960 Ry
:CINT001 Core Integral Atom   1   45.998484

       DENSITY AT NUCLEUS
        JATOM        VALENCE       SEMI-CORE          CORE           TOTAL
:RTO001:   1      646.746475        0.000000   656821.350917   657468.097392
     
       CHARGES OF NEW CHARGE DENSITY
:NTO   : INTERSTITIAL CHARGE =     7.090182
:NPC   : PW Pseudocharge     =    16.856077
:NTO001: CHARGE SPHERE  1    =    55.453392

:NEC01: NUCLEAR AND ELECTRONIC CHARGE    118.00000   117.99697
     
       CHARGES OF OLD CHARGE DENSITY
:OTO   : INTERSTITIAL CHARGE =     7.018102
:OPC   : PW Pseudocharge     =    16.540697
:OTO001: CHARGE SPHERE  1    =    55.490949

:NEC02: NUCLEAR AND ELECTRONIC CHARGE    118.00000   118.00000
     
       CONVERGENCE TEST
:DTO001: DIFFERENCE IN SPHERE  1 =  0.1114812

:DIS  :  CHARGE DISTANCE       ( 0.1114812 for atom    1 spin 1)      0.1114812
 PW Mixed is          544
 
******************************************************
* MULTISECANT MIXING VER9 RELEASE 10.4.0              *
* Slow Mode, cautious                                *
* Fixed density scale                                *
* Regularization       1.000E-04                     *
* Step Trust Radius    0.75000                       *
* Trust Upper Limit    2.000E+00                     *
* Max Number of Memory Steps   12                    *
******************************************************
 
:PWTMP   4.3254E+02  1.9467E+02  5.3447E+02
:PLANE:  PW TOTAL      4.2942 DISTAN   1.17E-01  2.72E+00 %
:CHARG:  CLM/ATOM   1382.0472 DISTAN   6.52E-01  4.72E-02 %
 
Step History
        DMIX         DMIXT        Red     Pred      Trust     Lambda    MagRel    MagAbs     Beta
  1   3.5000E-02   3.5000E-02 -1.00E+00  1.00E+00 -1.00E+01  1.00E+00  3.50E-02  3.50E-02  1.00E+00
  2   2.5000E-02   2.5000E-02 -1.00E+00  1.00E+00 -1.00E+01  1.00E+00  2.50E-02  2.08E-02  1.00E+00
:JACOBIANS    4.775E-01   2.205E-03
  
:TRUST:  Step 2.80E-02  Charge 7.50E-02 (e) CTO  2.50E-01 (e) PW  3.50E-01 (e)
:DIRM :  MEMORY  1/12 SCALE   1.000
:MIX  :   PRATT  REGULARIZATION:  1.00E-04 GREED: 0.02797  Expand 1.12  0.0280                
     
       CHARGES OF MIXED CHARGE DENSITY
:CTO   : INTERSTITIAL CHARGE =     7.019074
:CPC   : PW Pseudocharge     =    16.799774
:CTO001: CHARGE SPHERE  1    =    55.490463

:NEC03: NUCLEAR AND ELECTRONIC CHARGE    118.00000   118.00000

PW CHANGE     H    K    L      Current       Change    Residue
:PTO001:      0    0    0  4.45655336E-02  4.866E-04  7.441E-04
:PTO003:      0    2    0  1.28680062E-02  2.364E-04  8.147E-04
:PTO004:     -1    1    0  6.42230571E-02  1.273E-03  1.634E-03
:PTO005:      0    2   -1 -7.50891798E-02 -1.510E-03 -1.265E-03
:PTO006:      0    0   -2 -3.89750239E-02 -7.837E-04 -4.578E-04
:PTO007:     -1    1   -1 -8.26084922E-02 -1.800E-03 -8.076E-04
:PTO008:      0    2   -2 -1.40127269E-02 -3.732E-04 -3.235E-04
:PTO009:     -1    1   -2 -7.13998431E-02 -2.048E-03 -2.511E-03
:PTO011:     -1    3    0 -1.19438322E-02 -4.032E-04 -2.328E-04
:PTO012:     -1    3   -1 -5.48603569E-02 -2.027E-03 -2.603E-03
:PTO013:      0    4    0 -1.04770055E-02 -4.253E-04 -2.279E-04
:PTO014:      0    2   -3  2.36512075E-02  9.673E-04  9.181E-04

:ENE  : ********** TOTAL ENERGY IN Ry =       -36944.11433762

       TOTAL FORCE IN mRy/a.u. = |F|     Fx             Fy             Fz     with/without FOR in case.in2
:FOR001:   1.ATOM         39.881          0.000          0.000        -39.881 partial forces
       TOTAL FORCE WITH RESPECT TO GLOBAL CARTESIAN COORDINATES:
:FCA001:   1.ATOM                         0.000        -39.881          0.000 partial forces
       TOTAL FORCE WITH RESPECT TO THE GLOBAL COORDINATE SYSTEM:
:FGL001:   1.ATOM                 0.000000000   -39.881242549     0.000000000 partial forces
 Flat Integration
 New Mode for Coulomb Integral
 Consistent 3/8+Simpson combinations
 Extension of core to zero
 LDM version in phi
 Fifth-order quadrature in outwin


            ---------
:ITE003:  3. ITERATION
            ---------

:NATO :    1 INDEPENDENT AND    2 TOTAL ATOMS IN UNITCELL
       SUBSTANCE: aU                                                          

       LATTICE                      = CXY 
:POT  : POTENTIAL OPTION EX_LDA EC_LDA VX_LDA VC_LDA
:LAT  : LATTICE CONSTANTS=  6.69940 13.59477 11.73665    1.571    1.571    1.571
:VOL  : UNIT CELL VOLUME =     534.46794
       MODE OF CALCULATION IS       = RELA
       NON-SPINPOLARIZED CALCULATION
:IFFT  : FFT-parameters:   54  108   96 Factor: 2.00


   CONVERGENCE PARAMETER FOR PSEUDOCHARGE: NCON=  9
   MAXIMAL VALUE OF RMT(JATOM)*ABSK(NKK) : RK  =27.59996


:VKCOUL :  VK-COUL convergence: 0.734E-07
       ATOMNUMBER=  1 Pr1        VCOUL-ZERO = -0.28057E-01
:EFG001:                        EFG         =     0.15639   *10**21  V / m**2
                               V20  TOT/SRF=    -0.11187    -0.02394
                               V22  TOT/SRF=    -0.09180     0.00344
                               V22M TOT/SRF=     0.00000     0.00000
                               V21  TOT/SRF=     0.00000     0.00000
                               V21M TOT/SRF=     0.00000     0.00000

             -0.02721    0.00000    0.00000       -0.02721    0.00000    0.00000
              0.00000    0.15639    0.00000        0.00000    0.15639    0.00000
              0.00000    0.00000   -0.12918        0.00000    0.00000   -0.12918

         MAIN DIRECTIONS OF THE EFG   1.0000  0.0000  0.0000
                                      0.0000  1.0000  0.0000
                                      0.0000  0.0000  1.0000
:ANG001:  ANGLE WITH OLD X-AXIS =         0.0

:ETA001:                         ASYMM. ETA =     0.65205


     HELLMANN-FEYNMAN-FORCE IN mRy/a.u. = |F|  Fx       Fy             Fz
:FHF001:   1.ATOM    257.917684536999      0.000000000000      0.000000000000   -257.917684536999

:FIT001: LUSE= 13 SIGMA OF V-XC FIT FOR ATOM  1  0.1625076E-05
:FIT001: LUSE= 13 SIGMA OF V-XC FIT FOR ATOM  1  0.1625076E-05
:DEN  : DENSITY INTEGRAL  =        -14139.52899971   (Ry)
       ELS_POTENTIAL_AT Z=0 and Z=0.5:   0.66139   0.66139
       ELS_POTENTIAL_AT Y=0 and Y=0.5:   0.07575   0.07575
:VZERO:v0,v0c,v0x   0.11590   0.66139  -0.54549 v5,v5c,v5x   0.11590   0.66139  -0.54549
:VZERY:v0,v0c,v0x  -0.65669   0.07575  -0.73244 v5,v5c,v5x  -0.65669   0.07575  -0.73244
:VZERX:v0,v0c,v0x  -1.07303  -0.36704  -0.70600 v5,v5c,v5x  -1.07303  -0.36704  -0.70600
:LMAX-WF:   10   Non-Spherical LMAX:   4

          ATOMIC SPHERE DEPENDENT PARAMETERS FOR ATOM  Pr1       
:e__0001: OVERALL ENERGY PARAMETER IS    0.3417
          OVERALL BASIS SET ON ATOM IS LAPW
:E0_0001: E( 0)=    0.3417
             APW+lo
:E0_0001: E( 0)=   -2.1292   E(BOTTOM)=   -2.766   E(TOP)=   -1.493  4  5   172
             LOCAL ORBITAL
:E1_0001: E( 1)=    0.7417
             APW+lo
:E1_0001: E( 1)=   -0.6599   E(BOTTOM)=   -1.618   E(TOP)=    0.299  3  4   195
             LOCAL ORBITAL
:E3_0001: E( 3)=    0.5284   E(BOTTOM)=    0.319   E(TOP)=    0.737  0  1   119
             APW+lo
:E2_0001: E( 2)=    0.3417   E(BOTTOM)=    0.122   E(TOP)= -200.000  2 -1    93
             APW+lo

       K=   0.06250   0.00000   0.06250            1
:RKM  : MATRIX SIZE   485LOs:  40  RKM= 8.49  WEIGHT= 4.00  PGR:    
       EIGENVALUES ARE:
:EIG00001:      -2.0956620   -2.0862388   -0.8108203   -0.7530712   -0.7402627
:EIG00006:      -0.7361996   -0.7312360   -0.7309172    0.3102154    0.4554055
:EIG00011:       0.5419046    0.5430447    0.5438246    0.5466167    0.5485286
:EIG00016:       0.5572483    0.5612823    0.5615175    0.5640838    0.5659257
:EIG00021:       0.5695492    0.5717963    0.5727604    0.5759318    0.6106200
:EIG00026:       0.6226418    0.6855546    0.7091776    0.7194422    0.7605171
:EIG00031:       0.7759946    0.8462181    0.8904384    0.9277273    1.1817361
:EIG00036:       1.2222634    1.3104931    1.3127708    1.4574266    1.5089774
:EIG00041:       1.5491542    1.6512477    1.7144101    1.7336383    1.8127605
:EIG00046:       1.8827802    1.8913615    1.9313712    1.9970543
 
       ********************************************************

:KPT   :      NUMBER OF K-POINTS:   288
:GAP (global)   :    0.0    Ry =     0.0   eV (metal)
         Bandranges (emin - emax) and occupancy:
:BAN00004:   4   -0.798735   -0.753071  2.00000000
:BAN00005:   5   -0.791467   -0.740263  2.00000000
:BAN00006:   6   -0.779486   -0.733480  2.00000000
:BAN00007:   7   -0.764443   -0.731236  2.00000000
:BAN00008:   8   -0.744312   -0.728403  2.00000000
:BAN00009:   9    0.305807    0.516402  2.00000000
:BAN00010:  10    0.411454    0.528632  2.00000000
:BAN00011:  11    0.495394    0.541905  2.00000000
:BAN00012:  12    0.527640    0.546853  2.00000000
:BAN00013:  13    0.537417    0.554473  1.54149908
:BAN00014:  14    0.542902    0.557956  0.45850092
:BAN00015:  15    0.547441    0.560600  0.00000000
:BAN00016:  16    0.551679    0.560976  0.00000000
:BAN00017:  17    0.554692    0.562088  0.00000000
:BAN00018:  18    0.556290    0.563228  0.00000000
:BAN00019:  19    0.558895    0.566036  0.00000000
        Energy to separate low and high energystates:    0.25581


:NOE  : NUMBER OF ELECTRONS          =   26.000

:FER  : F E R M I - ENERGY(TETRAH.M.)=   0.5473056149
:GMA  : POTENTIAL AND CHARGE CUT-OFF  12.00 Ry**.5

:POS001: ATOM   -1 X,Y,Z = 0.00000 0.89750 0.25000  MULT= 2  ZZ= 59.000  Pr1       

       LMMAX 16
       LM=   0 0  1 0  2 0  2 2  3 0  3 2  4 0  4 2  4 4  5 0  5 2  5 4  6 0  6 2  6 4  6 6

:CHA001: TOTAL VALENCE CHARGE INSIDE SPHERE   1 =   9.4630    (RMT=  2.3000 )
:PCS001: PARTIAL CHARGES SPHERE =  1 S,P,D,F,PX,PY,PZ,D-Z2,D-X2Y2,D-XY,D-XZ,D-YZ 
:QTL001: 1.9392 5.0212 0.4694 2.0329 1.6707 1.6715 1.6791 0.0856 0.0887 0.1032 0.0902 0.1017
        Q-s-low E-s-low   Q-p-low E-p-low   Q-d-low E-d-low   Q-f-low E-f-low
:EPL001:  1.8694 -2.0865    4.9603 -0.7633    0.0009 -0.7872    0.0003 -0.7970
        Q-s-hi  E-s-hi    Q-p-hi  E-p-hi    Q-d-hi  E-d-hi    Q-f-hi  E-f-hi 
:EPH001:  0.0698  0.4451    0.0609  0.4841    0.4685  0.5033    2.0327  0.5360

                      VXX         VYY         VZZ       UP TO R
:VZZ001:             0.06051     3.65874    -3.71925       2.300

:CHA  : TOTAL VALENCE CHARGE INSIDE UNIT CELL =      26.000000

:SUM  : SUM OF EIGENVALUES =         -12.434497504


        1.ATOM      Pr1                  14 CORE STATES
       CORE-FORCE in mRy/a.u. = |F|      Fx             Fy             Fz
:FCO001:   1.ATOM    219.826226464228      0.000000000000      0.000000000000    219.826226464228

:1S 001: 1S               -3067.028110173 Ry
:2S 001: 2S                -492.793182049 Ry
:2PP001: 2P*               -465.890911017 Ry
:2P 001: 2P                -430.494068315 Ry
:3S 001: 3S                -105.889880738 Ry
:3PP001: 3P*                -94.427350356 Ry
:3P 001: 3P                 -87.419894544 Ry
:3DD001: 3D*                -67.346392847 Ry
:3D 001: 3D                 -65.834947115 Ry
:4S 001: 4S                 -20.573174095 Ry
:4PP001: 4P*                -16.280066201 Ry
:4P 001: 4P                 -14.752892355 Ry
:4DD001: 4D*                 -7.686321917 Ry
:4D 001: 4D                  -7.417004135 Ry
:CINT001 Core Integral Atom   1   45.998484

       DENSITY AT NUCLEUS
        JATOM        VALENCE       SEMI-CORE          CORE           TOTAL
:RTO001:   1      646.754910        0.000000   656821.430408   657468.185318
     
       CHARGES OF NEW CHARGE DENSITY
:NTO   : INTERSTITIAL CHARGE =     7.073989
:NPC   : PW Pseudocharge     =    16.851693
:NTO001: CHARGE SPHERE  1    =    55.461489

:NEC01: NUCLEAR AND ELECTRONIC CHARGE    118.00000   117.99697
     
       CHARGES OF OLD CHARGE DENSITY
:OTO   : INTERSTITIAL CHARGE =     7.019074
:OPC   : PW Pseudocharge     =    16.799774
:OTO001: CHARGE SPHERE  1    =    55.490463

:NEC02: NUCLEAR AND ELECTRONIC CHARGE    118.00000   118.00000
     
       CONVERGENCE TEST
:DTO001: DIFFERENCE IN SPHERE  1 =  0.1056610

:DIS  :  CHARGE DISTANCE       ( 0.1056610 for atom    1 spin 1)      0.1056610
 PW Mixed is          544
 
******************************************************
* MULTISECANT MIXING VER9 RELEASE 10.4.0              *
* Slow Mode, cautious                                *
* Fixed density scale                                *
* Regularization       1.000E-04                     *
* Step Trust Radius    0.75000                       *
* Trust Upper Limit    2.000E+00                     *
* Max Number of Memory Steps   12                    *
******************************************************
 
:PWTMP   4.3254E+02  1.9467E+02  5.3447E+02
:PLANE:  PW TOTAL      4.3912 DISTAN   9.12E-02  2.08E+00 %
:CHARG:  CLM/ATOM   1382.0462 DISTAN   6.45E-01  4.67E-02 %
 
Step History
        DMIX         DMIXT        Red     Pred      Trust     Lambda    MagRel    MagAbs     Beta
  1   3.5000E-02   3.5000E-02 -1.00E+00  1.00E+00 -1.00E+01  1.00E+00  3.50E-02  3.50E-02  1.00E+00
  2   2.5000E-02   2.5000E-02  7.96E-01  1.00E+00 -1.00E+01  1.00E+00  2.50E-02  2.08E-02  1.00E+00
  3   2.7971E-02   2.7971E-02 -1.00E+00  1.00E+00 -1.00E+01  1.00E+00  2.80E-02  1.85E-02  1.00E+00
:JACOBIANS    7.156E-01   3.307E-03
  
:NORMS:  1/Froebius, Min, Max, Used   0.9757E+00  0.4864E+00  0.9757E+00  0.9757E+00
:INFO :  Number of Memory Steps    2 Skipping    0
:INFO :  SLambda=    0.0926222607  Max    0.0926222607
:PREDicted Charge, CTotal, PW Trust    4.983E-04   9.966E-04   9.707E-02
:PREDicted DMix, Beta, BLim   2.7730E-02  9.7571E-01  2.4465E-01

Eigenvalues, unscaled except for SY+YY
   #     SY Real        SY Imag          SS             YY         SY+YY Real      SY+YY Imag
   1   1.913939E+00   0.000000E+00   1.903943E+00   1.999970E+00   2.177243E+00   0.000000E+00
   2   5.773160E-15   0.000000E+00   1.110223E-16   2.983304E-05   2.987298E-05   0.000000E+00
 
:INFO :  Singular value  2.177E+00 Weight  1.000E+00 Projection  9.900E-05
:INFO :  Singular value  2.987E-05 Weight  2.182E-02 Projection -4.623E-01
:RANK :  ACTIVE   1.02/2  =  51.09 % ; YY RANK   1.02/2  =  51.09 %
 
:DLIM :  Beta Active  9.818E-01
:BLIM :  VZERO Control Off
:TRUST:  Step 1.85E-01  Charge 7.50E-02 (e) CTO  2.50E-01 (e) PW  3.50E-01 (e)
:DIRM :  MEMORY  2/12 SCALE   1.000 RED  0.98 PRED  1.00 NEXT  1.00 BETA  0.98
:TRAVE:  Charge 8.01E-04 (e) CTO  1.60E-03 (e) PW  8.81E-04 (e)
:DIRP :  |MSR1|= 2.757E-03 |PRATT|= 9.121E-02 ANGLE=   7.3 DEGREES
:DIRQ :  |MSR1|= 1.826E-02 |PRATT|= 6.450E-01 ANGLE=   0.2 DEGREES
:DIRT :  |MSR1|= 1.847E-02 |PRATT|= 6.515E-01 ANGLE=   1.2 DEGREES
:MIX  :   MSD1   REGULARIZATION:  2.00E-04 GREED: 0.02836  Newton 1.00  0.0284                
     
       CHARGES OF MIXED CHARGE DENSITY
:CTO   : INTERSTITIAL CHARGE =     7.020676
:CPC   : PW Pseudocharge     =    16.800592
:CTO001: CHARGE SPHERE  1    =    55.489662

:NEC03: NUCLEAR AND ELECTRONIC CHARGE    118.00000   118.00000

PW CHANGE     H    K    L      Current       Change    Residue
:PTO001:      0    0    0  4.45700596E-02  4.526E-06  2.191E-04
:PTO003:      0    2    0  1.28831640E-02  1.516E-05  5.611E-04
:PTO004:     -1    1    0  6.42284426E-02  5.385E-06  3.382E-04
:PTO005:      0    2   -1 -7.50773525E-02  1.183E-05  2.427E-04
:PTO006:      0    0   -2 -3.89634096E-02  1.161E-05  3.194E-04
:PTO007:     -1    1   -1 -8.25748115E-02  3.368E-05  9.807E-04
:PTO008:      0    2   -2 -1.40100125E-02  2.714E-06  5.284E-05
:PTO009:     -1    1   -2 -7.14065640E-02 -6.721E-06 -4.748E-04
:PTO011:     -1    3    0 -1.19378954E-02  5.937E-06  1.626E-04
:PTO012:     -1    3   -1 -5.48697224E-02 -9.365E-06 -5.650E-04
:PTO013:      0    4    0 -1.04700684E-02  6.937E-06  1.954E-04
:PTO014:      0    2   -3  2.36468097E-02 -4.398E-06 -4.362E-05

:ENE  : ********** TOTAL ENERGY IN Ry =       -36944.11417055

       TOTAL FORCE IN mRy/a.u. = |F|     Fx             Fy             Fz     with/without FOR in case.in2
:FOR001:   1.ATOM         38.091          0.000          0.000        -38.091 partial forces
       TOTAL FORCE WITH RESPECT TO GLOBAL CARTESIAN COORDINATES:
:FCA001:   1.ATOM                         0.000        -38.091          0.000 partial forces
       TOTAL FORCE WITH RESPECT TO THE GLOBAL COORDINATE SYSTEM:
:FGL001:   1.ATOM                 0.000000000   -38.091458073     0.000000000 partial forces
 Flat Integration
 New Mode for Coulomb Integral
 Consistent 3/8+Simpson combinations
 Extension of core to zero
 LDM version in phi
 Fifth-order quadrature in outwin


            ---------
:ITE004:  4. ITERATION
            ---------

:NATO :    1 INDEPENDENT AND    2 TOTAL ATOMS IN UNITCELL
       SUBSTANCE: aU                                                          

       LATTICE                      = CXY 
:POT  : POTENTIAL OPTION EX_LDA EC_LDA VX_LDA VC_LDA
:LAT  : LATTICE CONSTANTS=  6.69940 13.59477 11.73665    1.571    1.571    1.571
:VOL  : UNIT CELL VOLUME =     534.46794
       MODE OF CALCULATION IS       = RELA
       NON-SPINPOLARIZED CALCULATION
:IFFT  : FFT-parameters:   54  108   96 Factor: 2.00


   CONVERGENCE PARAMETER FOR PSEUDOCHARGE: NCON=  9
   MAXIMAL VALUE OF RMT(JATOM)*ABSK(NKK) : RK  =27.59996


:VKCOUL :  VK-COUL convergence: 0.763E-07
       ATOMNUMBER=  1 Pr1        VCOUL-ZERO = -0.28157E-01
:EFG001:                        EFG         =     0.25539   *10**21  V / m**2
                               V20  TOT/SRF=    -0.20066    -0.02334
                               V22  TOT/SRF=    -0.13953     0.00289
                               V22M TOT/SRF=     0.00000     0.00000
                               V21  TOT/SRF=     0.00000     0.00000
                               V21M TOT/SRF=     0.00000     0.00000

             -0.02368    0.00000    0.00000       -0.02368    0.00000    0.00000
              0.00000    0.25539    0.00000        0.00000    0.25539    0.00000
              0.00000    0.00000   -0.23171        0.00000    0.00000   -0.23171

         MAIN DIRECTIONS OF THE EFG   1.0000  0.0000  0.0000
                                      0.0000  1.0000  0.0000
                                      0.0000  0.0000  1.0000
:ANG001:  ANGLE WITH OLD X-AXIS =         0.0

:ETA001:                         ASYMM. ETA =     0.81454


     HELLMANN-FEYNMAN-FORCE IN mRy/a.u. = |F|  Fx       Fy             Fz
:FHF001:   1.ATOM    268.016639948942      0.000000000000      0.000000000000   -268.016639948942

:FIT001: LUSE= 13 SIGMA OF V-XC FIT FOR ATOM  1  0.1696092E-05
:FIT001: LUSE= 13 SIGMA OF V-XC FIT FOR ATOM  1  0.1696092E-05
:DEN  : DENSITY INTEGRAL  =        -14139.33939128   (Ry)
       ELS_POTENTIAL_AT Z=0 and Z=0.5:   0.66178   0.66178
       ELS_POTENTIAL_AT Y=0 and Y=0.5:   0.07638   0.07638
:VZERO:v0,v0c,v0x   0.11615   0.66178  -0.54563 v5,v5c,v5x   0.11615   0.66178  -0.54563
:VZERY:v0,v0c,v0x  -0.65623   0.07638  -0.73261 v5,v5c,v5x  -0.65623   0.07638  -0.73261
:VZERX:v0,v0c,v0x  -1.07317  -0.36707  -0.70610 v5,v5c,v5x  -1.07317  -0.36707  -0.70610
:LMAX-WF:   10   Non-Spherical LMAX:   4

          ATOMIC SPHERE DEPENDENT PARAMETERS FOR ATOM  Pr1       
:e__0001: OVERALL ENERGY PARAMETER IS    0.3454
          OVERALL BASIS SET ON ATOM IS LAPW
:E0_0001: E( 0)=    0.3454
             APW+lo
:E0_0001: E( 0)=   -2.1299   E(BOTTOM)=   -2.766   E(TOP)=   -1.494  4  5   160
             LOCAL ORBITAL
:E1_0001: E( 1)=    0.7454
             APW+lo
:E1_0001: E( 1)=   -0.6606   E(BOTTOM)=   -1.619   E(TOP)=    0.298  3  4   193
             LOCAL ORBITAL
:E3_0001: E( 3)=    0.5274   E(BOTTOM)=    0.319   E(TOP)=    0.736  0  1   121
             APW+lo
:E2_0001: E( 2)=    0.3454   E(BOTTOM)=    0.122   E(TOP)= -200.000  2 -1   100
             APW+lo

       K=   0.06250   0.00000   0.06250            1
:RKM  : MATRIX SIZE   485LOs:  40  RKM= 8.49  WEIGHT= 4.00  PGR:    
       EIGENVALUES ARE:
:EIG00001:      -2.0963195   -2.0869127   -0.8110526   -0.7537703   -0.7409706
:EIG00006:      -0.7367677   -0.7315688   -0.7315002    0.3102265    0.4553114
:EIG00011:       0.5410992    0.5422825    0.5430058    0.5454592    0.5475640
:EIG00016:       0.5563123    0.5603906    0.5604676    0.5630242    0.5648491
:EIG00021:       0.5685214    0.5706600    0.5714173    0.5749930    0.6102321
:EIG00026:       0.6223787    0.6854114    0.7089359    0.7193970    0.7602296
:EIG00031:       0.7756972    0.8461015    0.8902362    0.9275167    1.1815623
:EIG00036:       1.2221216    1.3103418    1.3126801    1.4573501    1.5090962
:EIG00041:       1.5491614    1.6512752    1.7142042    1.7336445    1.8125837
:EIG00046:       1.8827160    1.8913505    1.9311952    1.9969898
 
       ********************************************************

:KPT   :      NUMBER OF K-POINTS:   288
:GAP (global)   :    0.0    Ry =     0.0   eV (metal)
         Bandranges (emin - emax) and occupancy:
:BAN00004:   4   -0.799257   -0.753770  2.00000000
:BAN00005:   5   -0.792001   -0.740971  2.00000000
:BAN00006:   6   -0.779998   -0.734052  2.00000000
:BAN00007:   7   -0.765097   -0.731569  2.00000000
:BAN00008:   8   -0.744819   -0.728988  2.00000000
:BAN00009:   9    0.305819    0.516238  2.00000000
:BAN00010:  10    0.411419    0.528216  2.00000000
:BAN00011:  11    0.495164    0.541099  2.00000000
:BAN00012:  12    0.527248    0.546060  2.00000000
:BAN00013:  13    0.536545    0.553556  1.53929620
:BAN00014:  14    0.542173    0.556999  0.46070380
:BAN00015:  15    0.546642    0.559491  0.00000000
:BAN00016:  16    0.550737    0.559801  0.00000000
:BAN00017:  17    0.553846    0.561091  0.00000000
:BAN00018:  18    0.555341    0.562289  0.00000000
:BAN00019:  19    0.557802    0.565046  0.00000000
        Energy to separate low and high energystates:    0.25582


:NOE  : NUMBER OF ELECTRONS          =   26.000

:FER  : F E R M I - ENERGY(TETRAH.M.)=   0.5464057533
:GMA  : POTENTIAL AND CHARGE CUT-OFF  12.00 Ry**.5

:POS001: ATOM   -1 X,Y,Z = 0.00000 0.89750 0.25000  MULT= 2  ZZ= 59.000  Pr1       

       LMMAX 16
       LM=   0 0  1 0  2 0  2 2  3 0  3 2  4 0  4 2  4 4  5 0  5 2  5 4  6 0  6 2  6 4  6 6

:CHA001: TOTAL VALENCE CHARGE INSIDE SPHERE   1 =   9.4765    (RMT=  2.3000 )
:PCS001: PARTIAL CHARGES SPHERE =  1 S,P,D,F,PX,PY,PZ,D-Z2,D-X2Y2,D-XY,D-XZ,D-YZ 
:QTL001: 1.9392 5.0213 0.4649 2.0510 1.6707 1.6715 1.6791 0.0847 0.0872 0.1027 0.0893 0.1010
        Q-s-low E-s-low   Q-p-low E-p-low   Q-d-low E-d-low   Q-f-low E-f-low
:EPL001:  1.8695 -2.0872    4.9609 -0.7638    0.0009 -0.7873    0.0003 -0.7971
        Q-s-hi  E-s-hi    Q-p-hi  E-p-hi    Q-d-hi  E-d-hi    Q-f-hi  E-f-hi 
:EPH001:  0.0697  0.4449    0.0604  0.4835    0.4640  0.5027    2.0508  0.5353

                      VXX         VYY         VZZ       UP TO R
:VZZ001:             1.01643     3.21937    -4.23579       2.300

:CHA  : TOTAL VALENCE CHARGE INSIDE UNIT CELL =      26.000000

:SUM  : SUM OF EIGENVALUES =         -12.447609597


        1.ATOM      Pr1                  14 CORE STATES
       CORE-FORCE in mRy/a.u. = |F|      Fx             Fy             Fz
:FCO001:   1.ATOM    235.681062607302      0.000000000000      0.000000000000    235.681062607302

:1S 001: 1S               -3067.031067957 Ry
:2S 001: 2S                -492.795664638 Ry
:2PP001: 2P*               -465.893462499 Ry
:2P 001: 2P                -430.496590524 Ry
:3S 001: 3S                -105.891899263 Ry
:3PP001: 3P*                -94.429395044 Ry
:3P 001: 3P                 -87.421911446 Ry
:3DD001: 3D*                -67.348467526 Ry
:3D 001: 3D                 -65.837012743 Ry
:4S 001: 4S                 -20.574639895 Ry
:4PP001: 4P*                -16.281515473 Ry
:4P 001: 4P                 -14.754310510 Ry
:4DD001: 4D*                 -7.687687561 Ry
:4D 001: 4D                  -7.418359129 Ry
:CINT001 Core Integral Atom   1   45.998485

       DENSITY AT NUCLEUS
        JATOM        VALENCE       SEMI-CORE          CORE           TOTAL
:RTO001:   1      646.766105        0.000000   656821.622838   657468.388943
     
       CHARGES OF NEW CHARGE DENSITY
:NTO   : INTERSTITIAL CHARGE =     7.046955
:NPC   : PW Pseudocharge     =    16.844438
:NTO001: CHARGE SPHERE  1    =    55.475007

:NEC01: NUCLEAR AND ELECTRONIC CHARGE    118.00000   117.99697
     
       CHARGES OF OLD CHARGE DENSITY
:OTO   : INTERSTITIAL CHARGE =     7.020676
:OPC   : PW Pseudocharge     =    16.800592
:OTO001: CHARGE SPHERE  1    =    55.489662

:NEC02: NUCLEAR AND ELECTRONIC CHARGE    118.00000   118.00000
     
       CONVERGENCE TEST
:DTO001: DIFFERENCE IN SPHERE  1 =  0.0978276

:DIS  :  CHARGE DISTANCE       ( 0.0978276 for atom    1 spin 1)      0.0978276
 PW Mixed is          544
 
******************************************************
* MULTISECANT MIXING VER9 RELEASE 10.4.0              *
* Slow Mode, cautious                                *
* Fixed density scale                                *
* Regularization       1.000E-04                     *
* Step Trust Radius    0.75000                       *
* Trust Upper Limit    2.000E+00                     *
* Max Number of Memory Steps   12                    *
******************************************************
 
:PWTMP   4.3254E+02  1.9467E+02  5.3447E+02
:PLANE:  PW TOTAL      4.3907 DISTAN   8.72E-02  1.99E+00 %
:CHARG:  CLM/ATOM   1382.0428 DISTAN   6.21E-01  4.49E-02 %
 
Step History
        DMIX         DMIXT        Red     Pred      Trust     Lambda    MagRel    MagAbs     Beta
  1   3.5000E-02   3.5000E-02 -1.00E+00  1.00E+00 -1.00E+01  1.00E+00  3.50E-02  3.50E-02  1.00E+00
  2   2.5000E-02   2.5000E-02  7.96E-01  1.00E+00 -1.00E+01  1.00E+00  2.50E-02  2.08E-02  1.00E+00
  3   2.7971E-02   2.7971E-02  9.83E-01  1.00E+00 -1.00E+01  9.26E-02  2.80E-02  1.85E-02  1.00E+00
  4   2.8358E-02   2.8358E-02 -1.00E+00  9.99E-01  1.85E-01  1.00E+00  2.84E-02  1.85E-02  9.82E-01
:JACOBIANS    8.561E-01   7.788E-02
  
:NORMS:  1/Froebius, Min, Max, Used   0.7525E+00  0.3969E+00  0.9938E+00  0.8416E+00
:INFO :  Number of Memory Steps    3 Skipping    0
:INFO :  SLambda=    1.2061236896  Max    1.2061236896
:PREDicted Charge, CTotal, PW Trust    6.744E-03   1.349E-02   3.091E-02
:PREDicted DMix, Beta, BLim   1.5832E-01  4.3652E+00  2.6501E-01

Eigenvalues, unscaled except for SY+YY
   #     SY Real        SY Imag          SS             YY         SY+YY Real      SY+YY Imag
   1   1.613685E+00   0.000000E+00   1.587561E+00   2.241402E+00   4.043398E+00   0.000000E+00
   2   4.010943E-15   0.000000E+00   1.111615E-01   7.585844E-01   1.405508E-05   0.000000E+00
   3   1.560544E-01   0.000000E+00  -6.321605E-17   1.340492E-05   1.091112E+00   0.000000E+00
 
:INFO :  Singular value  4.043E+00 Weight  1.000E+00 Projection -6.279E-02
:INFO :  Singular value  1.091E+00 Weight  1.000E+00 Projection -4.195E-01
:INFO :  Singular value  1.406E-05 Weight  3.917E-03 Projection  2.584E-01
:RANK :  ACTIVE   2.00/3  =  66.80 % ; YY RANK   2.00/3  =  66.79 %
 
:BLIM :  VZERO Control Off
:TRUST:  Step 1.81E-01  Charge 7.50E-02 (e) CTO  2.50E-01 (e) PW  3.50E-01 (e)
:DTRUS:  Lambda    1.482E+00 Increment    7.276E-12 Iterations   116 DMIX    4.491E-02
:INFOA:  Angle SubSpace to MSR1     13.70
:DIRM :  MEMORY  3/12 SCALE   1.000 RED  0.96 PRED  1.00 NEXT  0.92 
:INFO :  Limited by Atoms F by Step T

:TRAVE:  Charge 4.19E-04 (e) CTO  8.37E-04 (e) PW  9.39E-04 (e)
:DIRP :  |MSR1|= 1.670E-02 |PRATT|= 8.718E-02 ANGLE=   8.5 DEGREES
:DIRQ :  |MSR1|= 1.122E-01 |PRATT|= 6.211E-01 ANGLE=   5.0 DEGREES
:DIRT :  |MSR1|= 1.134E-01 |PRATT|= 6.272E-01 ANGLE=   5.1 DEGREES
:MIX  :   MSE1   REGULARIZATION:  2.24E-04 GREED: 0.07089  LMStep 0.64  0.1808 Step           
     
       CHARGES OF MIXED CHARGE DENSITY
:CTO   : INTERSTITIAL CHARGE =     7.020749
:CPC   : PW Pseudocharge     =    16.803258
:CTO001: CHARGE SPHERE  1    =    55.489626

:NEC03: NUCLEAR AND ELECTRONIC CHARGE    118.00000   118.00000

PW CHANGE     H    K    L      Current       Change    Residue
:PTO001:      0    0    0  4.45751841E-02  5.124E-06  1.504E-04
:PTO003:      0    2    0  1.29575130E-02  7.435E-05  4.924E-04
:PTO004:     -1    1    0  6.42423669E-02  1.392E-05  2.771E-04
:PTO005:      0    2   -1 -7.50074730E-02  6.988E-05  2.247E-04
:PTO006:      0    0   -2 -3.88995250E-02  6.388E-05  2.874E-04
:PTO007:     -1    1   -1 -8.23818564E-02  1.930E-04  9.075E-04
:PTO008:      0    2   -2 -1.39884103E-02  2.160E-05  6.362E-05
:PTO009:     -1    1   -2 -7.14627886E-02 -5.622E-05 -5.019E-04
:PTO011:     -1    3    0 -1.19114921E-02  2.640E-05  1.296E-04
:PTO012:     -1    3   -1 -5.49178177E-02 -4.810E-05 -5.237E-04
:PTO013:      0    4    0 -1.04288968E-02  4.117E-05  1.843E-04
:PTO014:      0    2   -3  2.36259106E-02 -2.090E-05 -2.420E-05

:ENE  : ********** TOTAL ENERGY IN Ry =       -36944.11378295

       TOTAL FORCE IN mRy/a.u. = |F|     Fx             Fy             Fz     with/without FOR in case.in2
:FOR001:   1.ATOM         32.336          0.000          0.000        -32.336 partial forces
       TOTAL FORCE WITH RESPECT TO GLOBAL CARTESIAN COORDINATES:
:FCA001:   1.ATOM                         0.000        -32.336          0.000 partial forces
       TOTAL FORCE WITH RESPECT TO THE GLOBAL COORDINATE SYSTEM:
:FGL001:   1.ATOM                 0.000000000   -32.335577342     0.000000000 partial forces
 Flat Integration
 New Mode for Coulomb Integral
 Consistent 3/8+Simpson combinations
 Extension of core to zero
 LDM version in phi
 Fifth-order quadrature in outwin


            ---------
:ITE005:  5. ITERATION
            ---------

:NATO :    1 INDEPENDENT AND    2 TOTAL ATOMS IN UNITCELL
       SUBSTANCE: aU                                                          

       LATTICE                      = CXY 
:POT  : POTENTIAL OPTION EX_LDA EC_LDA VX_LDA VC_LDA
:LAT  : LATTICE CONSTANTS=  6.69940 13.59477 11.73665    1.571    1.571    1.571
:VOL  : UNIT CELL VOLUME =     534.46794
       MODE OF CALCULATION IS       = RELA
       NON-SPINPOLARIZED CALCULATION
:IFFT  : FFT-parameters:   54  108   96 Factor: 2.00


   CONVERGENCE PARAMETER FOR PSEUDOCHARGE: NCON=  9
   MAXIMAL VALUE OF RMT(JATOM)*ABSK(NKK) : RK  =27.59996


:VKCOUL :  VK-COUL convergence: 0.948E-07
       ATOMNUMBER=  1 Pr1        VCOUL-ZERO = -0.28448E-01
:EFG001:                        EFG         =    -1.06215   *10**21  V / m**2
                               V20  TOT/SRF=    -0.91985    -0.02055
                               V22  TOT/SRF=    -0.17770     0.00102
                               V22M TOT/SRF=     0.00000     0.00000
                               V21  TOT/SRF=     0.00000     0.00000
                               V21M TOT/SRF=     0.00000     0.00000

              0.35337    0.00000    0.00000        0.35337    0.00000    0.00000
              0.00000    0.70878    0.00000        0.00000    0.70878    0.00000
              0.00000    0.00000   -1.06215        0.00000    0.00000   -1.06215

         MAIN DIRECTIONS OF THE EFG   1.0000  0.0000  0.0000
                                      0.0000  1.0000  0.0000
                                      0.0000  0.0000  1.0000
:ANG001:  ANGLE WITH OLD X-AXIS =         0.0

:ETA001:                         ASYMM. ETA =     0.33461


     HELLMANN-FEYNMAN-FORCE IN mRy/a.u. = |F|  Fx       Fy             Fz
:FHF001:   1.ATOM    358.200671413852      0.000000000000      0.000000000000   -358.200671413852

:FIT001: LUSE= 13 SIGMA OF V-XC FIT FOR ATOM  1  0.5513901E-05
:FIT001: LUSE= 13 SIGMA OF V-XC FIT FOR ATOM  1  0.5513901E-05
:DEN  : DENSITY INTEGRAL  =        -14139.18082458   (Ry)
       ELS_POTENTIAL_AT Z=0 and Z=0.5:   0.66312   0.66312
       ELS_POTENTIAL_AT Y=0 and Y=0.5:   0.07976   0.07976
:VZERO:v0,v0c,v0x   0.11699   0.66312  -0.54612 v5,v5c,v5x   0.11699   0.66312  -0.54612
:VZERY:v0,v0c,v0x  -0.65358   0.07976  -0.73334 v5,v5c,v5x  -0.65358   0.07976  -0.73334
:VZERX:v0,v0c,v0x  -1.07365  -0.36717  -0.70648 v5,v5c,v5x  -1.07365  -0.36717  -0.70648
:LMAX-WF:   10   Non-Spherical LMAX:   4

          ATOMIC SPHERE DEPENDENT PARAMETERS FOR ATOM  Pr1       
:e__0001: OVERALL ENERGY PARAMETER IS    0.3461
          OVERALL BASIS SET ON ATOM IS LAPW
:E0_0001: E( 0)=    0.3461
             APW+lo
:E0_0001: E( 0)=   -2.1307   E(BOTTOM)=   -2.767   E(TOP)=   -1.494  4  5   165
             LOCAL ORBITAL
:E1_0001: E( 1)=    0.7461
             APW+lo
:E1_0001: E( 1)=   -0.6613   E(BOTTOM)=   -1.620   E(TOP)=    0.297  3  4   195
             LOCAL ORBITAL
:E3_0001: E( 3)=    0.5269   E(BOTTOM)=    0.318   E(TOP)=    0.736  0  1   122
             APW+lo
:E2_0001: E( 2)=    0.3461   E(BOTTOM)=    0.121   E(TOP)= -200.000  2 -1    99
             APW+lo

       K=   0.06250   0.00000   0.06250            1
:RKM  : MATRIX SIZE   485LOs:  40  RKM= 8.49  WEIGHT= 4.00  PGR:    
       EIGENVALUES ARE:
:EIG00001:      -2.0969891   -2.0876318   -0.8107350   -0.7551292   -0.7423232
:EIG00006:      -0.7373194   -0.7321041   -0.7315426    0.3103958    0.4551294
:EIG00011:       0.5412569    0.5425171    0.5431426    0.5447609    0.5473997
:EIG00016:       0.5564050    0.5599921    0.5603742    0.5626311    0.5641110
:EIG00021:       0.5676987    0.5701316    0.5705804    0.5749898    0.6099834
:EIG00026:       0.6222995    0.6855035    0.7085403    0.7198436    0.7596991
:EIG00031:       0.7751987    0.8463165    0.8901549    0.9274538    1.1815385
:EIG00036:       1.2219240    1.3100938    1.3125261    1.4572337    1.5098969
:EIG00041:       1.5496379    1.6518381    1.7136968    1.7341579    1.8124341
:EIG00046:       1.8829020    1.8915343    1.9308823    1.9970773
 
       ********************************************************

:KPT   :      NUMBER OF K-POINTS:   288
:GAP (global)   :    0.0    Ry =     0.0   eV (metal)
         Bandranges (emin - emax) and occupancy:
:BAN00004:   4   -0.799802   -0.755129  2.00000000
:BAN00005:   5   -0.792530   -0.742323  2.00000000
:BAN00006:   6   -0.780698   -0.734609  2.00000000
:BAN00007:   7   -0.766266   -0.731771  2.00000000
:BAN00008:   8   -0.745235   -0.729594  2.00000000
:BAN00009:   9    0.305986    0.516755  2.00000000
:BAN00010:  10    0.411442    0.528461  2.00000000
:BAN00011:  11    0.494760    0.541257  2.00000000
:BAN00012:  12    0.527514    0.545744  2.00000000
:BAN00013:  13    0.535952    0.553567  1.52190996
:BAN00014:  14    0.542231    0.556974  0.47809003
:BAN00015:  15    0.546498    0.558616  0.00000000
:BAN00016:  16    0.550163    0.559467  0.00000000
:BAN00017:  17    0.553723    0.560875  0.00000000
:BAN00018:  18    0.555003    0.561994  0.00000000
:BAN00019:  19    0.557311    0.564581  0.00000000
        Energy to separate low and high energystates:    0.25599


:NOE  : NUMBER OF ELECTRONS          =   26.000

:FER  : F E R M I - ENERGY(TETRAH.M.)=   0.5461217158
:GMA  : POTENTIAL AND CHARGE CUT-OFF  12.00 Ry**.5

:POS001: ATOM   -1 X,Y,Z = 0.00000 0.89750 0.25000  MULT= 2  ZZ= 59.000  Pr1       

       LMMAX 16
       LM=   0 0  1 0  2 0  2 2  3 0  3 2  4 0  4 2  4 4  5 0  5 2  5 4  6 0  6 2  6 4  6 6

:CHA001: TOTAL VALENCE CHARGE INSIDE SPHERE   1 =   9.4789    (RMT=  2.3000 )
:PCS001: PARTIAL CHARGES SPHERE =  1 S,P,D,F,PX,PY,PZ,D-Z2,D-X2Y2,D-XY,D-XZ,D-YZ 
:QTL001: 1.9390 5.0222 0.4624 2.0551 1.6710 1.6717 1.6795 0.0849 0.0845 0.1028 0.0885 0.1017
        Q-s-low E-s-low   Q-p-low E-p-low   Q-d-low E-d-low   Q-f-low E-f-low
:EPL001:  1.8695 -2.0879    4.9617 -0.7644    0.0009 -0.7859    0.0002 -0.7955
        Q-s-hi  E-s-hi    Q-p-hi  E-p-hi    Q-d-hi  E-d-hi    Q-f-hi  E-f-hi 
:EPH001:  0.0695  0.4448    0.0605  0.4837    0.4615  0.5026    2.0549  0.5352

                      VXX         VYY         VZZ       UP TO R
:VZZ001:             4.64916     2.81702    -7.46618       2.300

:CHA  : TOTAL VALENCE CHARGE INSIDE UNIT CELL =      26.000000

:SUM  : SUM OF EIGENVALUES =         -12.457049204


        1.ATOM      Pr1                  14 CORE STATES
       CORE-FORCE in mRy/a.u. = |F|      Fx             Fy             Fz
:FCO001:   1.ATOM    354.011912654153      0.000000000000      0.000000000000    354.011912654153

:1S 001: 1S               -3067.037670469 Ry
:2S 001: 2S                -492.799381517 Ry
:2PP001: 2P*               -465.897593657 Ry
:2P 001: 2P                -430.500545309 Ry
:3S 001: 3S                -105.893120021 Ry
:3PP001: 3P*                -94.430747640 Ry
:3P 001: 3P                 -87.423141528 Ry
:3DD001: 3D*                -67.349959448 Ry
:3D 001: 3D                 -65.838461627 Ry
:4S 001: 4S                 -20.574792803 Ry
:4PP001: 4P*                -16.281709289 Ry
:4P 001: 4P                 -14.754535020 Ry
:4DD001: 4D*                 -7.687981937 Ry
:4D 001: 4D                  -7.418663852 Ry
:CINT001 Core Integral Atom   1   45.998485

       DENSITY AT NUCLEUS
        JATOM        VALENCE       SEMI-CORE          CORE           TOTAL
:RTO001:   1      646.717089        0.000000   656822.314345   657469.031434
     
       CHARGES OF NEW CHARGE DENSITY
:NTO   : INTERSTITIAL CHARGE =     7.042105
:NPC   : PW Pseudocharge     =    16.840392
:NTO001: CHARGE SPHERE  1    =    55.477432

:NEC01: NUCLEAR AND ELECTRONIC CHARGE    118.00000   117.99697
     
       CHARGES OF OLD CHARGE DENSITY
:OTO   : INTERSTITIAL CHARGE =     7.020749
:OPC   : PW Pseudocharge     =    16.803258
:OTO001: CHARGE SPHERE  1    =    55.489626

:NEC02: NUCLEAR AND ELECTRONIC CHARGE    118.00000   118.00000
     
       CONVERGENCE TEST
:DTO001: DIFFERENCE IN SPHERE  1 =  0.0782235

:DIS  :  CHARGE DISTANCE       ( 0.0782235 for atom    1 spin 1)      0.0782235
 PW Mixed is          544
 
******************************************************
* MULTISECANT MIXING VER9 RELEASE 10.4.0              *
* Standard Mode with controls                        *
* Fixed density scale                                *
* Regularization       1.000E-04                     *
* Trust Upper Limit    5.000E+00                     *
* Max Number of Memory Steps    8                    *
******************************************************
 
:PWTMP   4.3254E+02  1.9467E+02  5.3447E+02
:PLANE:  PW TOTAL      4.3873 DISTAN   6.82E-02  1.55E+00 %
:CHARG:  CLM/ATOM   1382.0224 DISTAN   4.95E-01  3.59E-02 %
 
Step History
        DMIX         DMIXT        Red     Pred      Trust     Lambda    MagRel    MagAbs     Beta
  1   3.5000E-02   3.5000E-02 -1.00E+00  1.00E+00 -1.00E+01  1.00E+00  3.50E-02  3.50E-02  1.00E+00
  2   2.5000E-02   2.5000E-02  7.96E-01  1.00E+00 -1.00E+01  1.00E+00  2.50E-02  2.08E-02  1.00E+00
  3   2.7971E-02   2.7971E-02  9.83E-01  1.00E+00 -1.00E+01  9.26E-02  2.80E-02  1.85E-02  1.00E+00
  4   2.8358E-02   2.8358E-02  9.63E-01  9.99E-01  1.85E-01  1.21E+00  2.84E-02  1.85E-02  9.82E-01
  5   7.0895E-02   4.4906E-02 -1.00E+00  9.22E-01  1.81E-01  1.00E+00  1.81E-01  1.13E-01  1.00E+00
:JACOBIANS    9.304E-01   2.615E-01
  
:NORMS:  1/Froebius, Min, Max, Used   0.6387E+00  0.3609E+00  0.9991E+00  0.6474E+00
:INFO :  Number of Memory Steps    4 Skipping    0
:INFO :  SLambda=    0.8469875001  Max    0.8469875001
:PREDicted Charge, CTotal, PW Trust    3.974E-03   7.948E-03   4.946E-03
:PREDicted DMix, Beta, BLim   1.9420E-01  2.2465E+00  5.1366E-01

Eigenvalues, unscaled except for SY+YY
   #     SY Real        SY Imag          SS             YY         SY+YY Real      SY+YY Imag
   1   1.290936E+00   0.000000E+00   1.149167E+00   3.334501E+00   4.380387E+00   0.000000E+00
   2   5.321966E-01   0.000000E+00   4.825880E-01   6.541042E-01   1.151931E+00   0.000000E+00
   3   3.920388E-16   0.000000E+00   8.383583E-05   1.139184E-02   2.794175E-06   0.000000E+00
   4   1.064554E-03   0.000000E+00   5.101595E-17   2.801405E-06   1.275186E-02   0.000000E+00
 
:INFO :  Singular value  4.381E+00 Weight  1.000E+00 Projection -1.580E-01
:INFO :  Singular value  1.152E+00 Weight  1.000E+00 Projection -1.832E-01
:INFO :  Singular value  1.275E-02 Weight  9.993E-01 Projection -1.786E+00
:INFO :  Singular value  2.794E-06 Weight  7.021E-05 Projection -1.863E-03
:RANK :  ACTIVE   3.00/4  =  74.98 % ; YY RANK   3.00/4  =  74.98 %
 
:BLIM :  VZERO Control Off
:TRUST:  Step 3.48E-01  Charge 7.50E-02 (e) CTO  2.50E-01 (e) PW  3.50E-01 (e)
:DTRUS:  Lambda    9.336E-01 Increment    7.276E-12 Iterations   113 DMIX    1.126E-01
:INFOA:  Angle SubSpace to MSR1      3.38
:DIRM :  MEMORY  4/8  SCALE   1.000 RED  0.80 PRED  0.92 NEXT  0.84 
:INFO :  Limited by Atoms F by Step T

:TRAVE:  Charge 2.75E-03 (e) CTO  5.49E-03 (e) PW  4.43E-03 (e)
:DIRP :  |MSR1|= 2.453E-02 |PRATT|= 6.819E-02 ANGLE=   4.1 DEGREES
:DIRQ :  |MSR1|= 1.724E-01 |PRATT|= 4.955E-01 ANGLE=   1.7 DEGREES
:DIRT :  |MSR1|= 1.742E-01 |PRATT|= 5.001E-01 ANGLE=   1.8 DEGREES
:MIX  :   MSD1   REGULARIZATION:  3.33E-04 GREED: 0.12199  LMStep 0.76  0.3482 Step           
     
       CHARGES OF MIXED CHARGE DENSITY
:CTO   : INTERSTITIAL CHARGE =     7.030894
:CPC   : PW Pseudocharge     =    16.814849
:CTO001: CHARGE SPHERE  1    =    55.484553

:NEC03: NUCLEAR AND ELECTRONIC CHARGE    118.00000   118.00000

PW CHANGE     H    K    L      Current       Change    Residue
:PTO001:      0    0    0  4.46158531E-02  4.067E-05  1.287E-04
:PTO003:      0    2    0  1.29976790E-02  4.017E-05  1.501E-04
:PTO004:     -1    1    0  6.42384846E-02 -3.882E-06  6.272E-05
:PTO005:      0    2   -1 -7.49338303E-02  7.364E-05  1.420E-04
:PTO006:      0    0   -2 -3.88385802E-02  6.094E-05  1.450E-04
:PTO007:     -1    1   -1 -8.21821909E-02  1.997E-04  5.090E-04
:PTO008:      0    2   -2 -1.39304354E-02  5.797E-05  1.394E-04
:PTO009:     -1    1   -2 -7.16273607E-02 -1.646E-04 -5.600E-04
:PTO011:     -1    3    0 -1.19265744E-02 -1.508E-05 -4.797E-05
:PTO012:     -1    3   -1 -5.49903384E-02 -7.252E-05 -3.167E-04
:PTO013:      0    4    0 -1.03761907E-02  5.271E-05  1.322E-04
:PTO014:      0    2   -3  2.36226846E-02 -3.226E-06  3.372E-05

:ENE  : ********** TOTAL ENERGY IN Ry =       -36944.11274705

       TOTAL FORCE IN mRy/a.u. = |F|     Fx             Fy             Fz     with/without FOR in case.in2
:FOR001:   1.ATOM          4.189          0.000          0.000         -4.189 partial forces
       TOTAL FORCE WITH RESPECT TO GLOBAL CARTESIAN COORDINATES:
:FCA001:   1.ATOM                         0.000         -4.189          0.000 partial forces
       TOTAL FORCE WITH RESPECT TO THE GLOBAL COORDINATE SYSTEM:
:FGL001:   1.ATOM                 0.000000000    -4.188758760     0.000000000 partial forces
 Flat Integration
 New Mode for Coulomb Integral
 Consistent 3/8+Simpson combinations
 Extension of core to zero
 LDM version in phi
 Fifth-order quadrature in outwin


            ---------
:ITE006:  6. ITERATION
            ---------

:NATO :    1 INDEPENDENT AND    2 TOTAL ATOMS IN UNITCELL
       SUBSTANCE: aU                                                          

       LATTICE                      = CXY 
:POT  : POTENTIAL OPTION EX_LDA EC_LDA VX_LDA VC_LDA
:LAT  : LATTICE CONSTANTS=  6.69940 13.59477 11.73665    1.571    1.571    1.571
:VOL  : UNIT CELL VOLUME =     534.46794
       MODE OF CALCULATION IS       = RELA
       NON-SPINPOLARIZED CALCULATION
:IFFT  : FFT-parameters:   54  108   96 Factor: 2.00


   CONVERGENCE PARAMETER FOR PSEUDOCHARGE: NCON=  9
   MAXIMAL VALUE OF RMT(JATOM)*ABSK(NKK) : RK  =27.59996


:VKCOUL :  VK-COUL convergence: 0.126E-06
       ATOMNUMBER=  1 Pr1        VCOUL-ZERO = -0.29621E-01
:EFG001:                        EFG         =    -3.40992   *10**21  V / m**2
                               V20  TOT/SRF=    -2.95308    -0.02083
                               V22  TOT/SRF=     0.24778     0.00138
                               V22M TOT/SRF=     0.00000     0.00000
                               V21  TOT/SRF=     0.00000     0.00000
                               V21M TOT/SRF=     0.00000     0.00000

              1.95275    0.00000    0.00000        1.95275    0.00000    0.00000
              0.00000    1.45718    0.00000        0.00000    1.45718    0.00000
              0.00000    0.00000   -3.40992        0.00000    0.00000   -3.40992

         MAIN DIRECTIONS OF THE EFG   1.0000  0.0000  0.0000
                                      0.0000  1.0000  0.0000
                                      0.0000  0.0000  1.0000
:ANG001:  ANGLE WITH OLD X-AXIS =         0.0

:ETA001:                         ASYMM. ETA =     0.14533


     HELLMANN-FEYNMAN-FORCE IN mRy/a.u. = |F|  Fx       Fy             Fz
:FHF001:   1.ATOM    607.504524976443      0.000000000000      0.000000000000   -607.504524976443

:FIT001: LUSE= 13 SIGMA OF V-XC FIT FOR ATOM  1  0.1852806E-04
:FIT001: LUSE= 13 SIGMA OF V-XC FIT FOR ATOM  1  0.1852806E-04
:DEN  : DENSITY INTEGRAL  =        -14137.90627355   (Ry)
       ELS_POTENTIAL_AT Z=0 and Z=0.5:   0.66525   0.66525
       ELS_POTENTIAL_AT Y=0 and Y=0.5:   0.08240   0.08240
:VZERO:v0,v0c,v0x   0.11821   0.66525  -0.54703 v5,v5c,v5x   0.11821   0.66525  -0.54703
:VZERY:v0,v0c,v0x  -0.65177   0.08240  -0.73417 v5,v5c,v5x  -0.65177   0.08240  -0.73417
:VZERX:v0,v0c,v0x  -1.07497  -0.36765  -0.70732 v5,v5c,v5x  -1.07497  -0.36765  -0.70732
:LMAX-WF:   10   Non-Spherical LMAX:   4

          ATOMIC SPHERE DEPENDENT PARAMETERS FOR ATOM  Pr1       
:e__0001: OVERALL ENERGY PARAMETER IS    0.3461
          OVERALL BASIS SET ON ATOM IS LAPW
:E0_0001: E( 0)=    0.3461
             APW+lo
:E0_0001: E( 0)=   -2.1358   E(BOTTOM)=   -2.771   E(TOP)=   -1.500  4  5   172
             LOCAL ORBITAL
:E1_0001: E( 1)=    0.7461
             APW+lo
:E1_0001: E( 1)=   -0.6660   E(BOTTOM)=   -1.624   E(TOP)=    0.292  3  4   196
             LOCAL ORBITAL
:E3_0001: E( 3)=    0.5198   E(BOTTOM)=    0.312   E(TOP)=    0.728  0  1   117
             APW+lo
:E2_0001: E( 2)=    0.3461   E(BOTTOM)=    0.118   E(TOP)= -200.000  2 -1    97
             APW+lo

       K=   0.06250   0.00000   0.06250            1
:RKM  : MATRIX SIZE   485LOs:  40  RKM= 8.49  WEIGHT= 4.00  PGR:    
       EIGENVALUES ARE:
:EIG00001:      -2.1017617   -2.0924849   -0.8146675   -0.7585065   -0.7457136
:EIG00006:      -0.7411310   -0.7361694   -0.7359655    0.3106182    0.4545812
:EIG00011:       0.5361395    0.5364005    0.5368037    0.5387909    0.5414784
:EIG00016:       0.5491016    0.5526707    0.5527459    0.5549304    0.5572981
:EIG00021:       0.5601507    0.5641885    0.5643577    0.5679275    0.6075213
:EIG00026:       0.6212805    0.6841441    0.7073681    0.7188244    0.7585055
:EIG00031:       0.7739206    0.8445913    0.8880637    0.9254055    1.1798158
:EIG00036:       1.2215913    1.3096871    1.3121893    1.4568593    1.5101375
:EIG00041:       1.5497134    1.6517902    1.7127929    1.7339363    1.8113844
:EIG00046:       1.8825578    1.8912622    1.9302877    1.9966380
 
       ********************************************************

:KPT   :      NUMBER OF K-POINTS:   288
:GAP (global)   :    0.0    Ry =     0.0   eV (metal)
         Bandranges (emin - emax) and occupancy:
:BAN00004:   4   -0.803256   -0.758507  2.00000000
:BAN00005:   5   -0.796057   -0.745714  2.00000000
:BAN00006:   6   -0.784291   -0.738435  2.00000000
:BAN00007:   7   -0.769566   -0.736169  2.00000000
:BAN00008:   8   -0.749213   -0.733475  2.00000000
:BAN00009:   9    0.306214    0.515321  2.00000000
:BAN00010:  10    0.411361    0.524888  2.00000000
:BAN00011:  11    0.493460    0.536140  2.00000000
:BAN00012:  12    0.524298    0.540077  1.99997523
:BAN00013:  13    0.530802    0.546866  1.50760778
:BAN00014:  14    0.535943    0.550380  0.49241698
:BAN00015:  15    0.540230    0.551616  0.00000000
:BAN00016:  16    0.543924    0.552714  0.00000000
:BAN00017:  17    0.546906    0.554887  0.00000000
:BAN00018:  18    0.548173    0.554909  0.00000000
:BAN00019:  19    0.551065    0.557284  0.00000000
        Energy to separate low and high energystates:    0.25621


:NOE  : NUMBER OF ELECTRONS          =   26.000

:FER  : F E R M I - ENERGY(TETRAH.M.)=   0.5399427494
:GMA  : POTENTIAL AND CHARGE CUT-OFF  12.00 Ry**.5

:POS001: ATOM   -1 X,Y,Z = 0.00000 0.89750 0.25000  MULT= 2  ZZ= 59.000  Pr1       

       LMMAX 16
       LM=   0 0  1 0  2 0  2 2  3 0  3 2  4 0  4 2  4 4  5 0  5 2  5 4  6 0  6 2  6 4  6 6

:CHA001: TOTAL VALENCE CHARGE INSIDE SPHERE   1 =   9.5758    (RMT=  2.3000 )
:PCS001: PARTIAL CHARGES SPHERE =  1 S,P,D,F,PX,PY,PZ,D-Z2,D-X2Y2,D-XY,D-XZ,D-YZ 
:QTL001: 1.9384 5.0222 0.4338 2.1812 1.6716 1.6717 1.6789 0.0785 0.0776 0.0995 0.0828 0.0953
        Q-s-low E-s-low   Q-p-low E-p-low   Q-d-low E-d-low   Q-f-low E-f-low
:EPL001:  1.8700 -2.0927    4.9657 -0.7681    0.0009 -0.7895    0.0002 -0.7977
        Q-s-hi  E-s-hi    Q-p-hi  E-p-hi    Q-d-hi  E-d-hi    Q-f-hi  E-f-hi 
:EPH001:  0.0685  0.4434    0.0565  0.4797    0.4330  0.4987    2.1810  0.5299

                      VXX         VYY         VZZ       UP TO R
:VZZ001:             0.54065     2.86591    -3.40656       2.300

:CHA  : TOTAL VALENCE CHARGE INSIDE UNIT CELL =      26.000000

:SUM  : SUM OF EIGENVALUES =         -12.552379196


        1.ATOM      Pr1                  14 CORE STATES
       CORE-FORCE in mRy/a.u. = |F|      Fx             Fy             Fz
:FCO001:   1.ATOM    615.145236612123      0.000000000000      0.000000000000    615.145236612123

:1S 001: 1S               -3067.059461331 Ry
:2S 001: 2S                -492.816754644 Ry
:2PP001: 2P*               -465.915597038 Ry
:2P 001: 2P                -430.518279226 Ry
:3S 001: 3S                -105.906390668 Ry
:3PP001: 3P*                -94.444245548 Ry
:3P 001: 3P                 -87.436405941 Ry
:3DD001: 3D*                -67.363710430 Ry
:3D 001: 3D                 -65.852135265 Ry
:4S 001: 4S                 -20.584110442 Ry
:4PP001: 4P*                -16.290948625 Ry
:4P 001: 4P                 -14.763601831 Ry
:4DD001: 4D*                 -7.696769619 Ry
:4D 001: 4D                  -7.427392658 Ry
:CINT001 Core Integral Atom   1   45.998490

       DENSITY AT NUCLEUS
        JATOM        VALENCE       SEMI-CORE          CORE           TOTAL
:RTO001:   1      646.758876        0.000000   656823.851618   657470.610494
     
       CHARGES OF NEW CHARGE DENSITY
:NTO   : INTERSTITIAL CHARGE =     6.848338
:NPC   : PW Pseudocharge     =    16.799229
:NTO001: CHARGE SPHERE  1    =    55.574321

:NEC01: NUCLEAR AND ELECTRONIC CHARGE    118.00000   117.99698
     
       CHARGES OF OLD CHARGE DENSITY
:OTO   : INTERSTITIAL CHARGE =     7.030894
:OPC   : PW Pseudocharge     =    16.814849
:OTO001: CHARGE SPHERE  1    =    55.484553

:NEC02: NUCLEAR AND ELECTRONIC CHARGE    118.00000   118.00000
     
       CONVERGENCE TEST
:DTO001: DIFFERENCE IN SPHERE  1 =  0.1555719

:DIS  :  CHARGE DISTANCE       ( 0.1555719 for atom    1 spin 1)      0.1555719
 PW Mixed is          544
 
******************************************************
* MULTISECANT MIXING VER9 RELEASE 10.4.0              *
* Standard Mode with controls                        *
* Fixed density scale                                *
* Regularization       1.000E-04                     *
* Trust Upper Limit    5.000E+00                     *
* Max Number of Memory Steps    8                    *
******************************************************
 
:PWTMP   4.3254E+02  1.9467E+02  5.3447E+02
:PLANE:  PW TOTAL      4.3846 DISTAN   4.57E-02  1.04E+00 %
:CHARG:  CLM/ATOM   1381.9901 DISTAN   3.86E-01  2.79E-02 %
 
Step History
        DMIX         DMIXT        Red     Pred      Trust     Lambda    MagRel    MagAbs     Beta
  1   3.5000E-02   3.5000E-02 -1.00E+00  1.00E+00 -1.00E+01  1.00E+00  3.50E-02  3.50E-02  1.00E+00
  2   2.5000E-02   2.5000E-02  7.96E-01  1.00E+00 -1.00E+01  1.00E+00  2.50E-02  2.08E-02  1.00E+00
  3   2.7971E-02   2.7971E-02  9.83E-01  1.00E+00 -1.00E+01  9.26E-02  2.80E-02  1.85E-02  1.00E+00
  4   2.8358E-02   2.8358E-02  9.63E-01  9.99E-01  1.85E-01  1.21E+00  2.84E-02  1.85E-02  9.82E-01
  5   7.0895E-02   4.4906E-02  7.97E-01  9.22E-01  1.81E-01  8.47E-01  1.81E-01  1.13E-01  1.00E+00
  6   1.2199E-01   1.1261E-01 -1.00E+00  8.43E-01  3.48E-01  1.00E+00  3.48E-01  1.74E-01  1.00E+00
:JACOBIANS    9.704E-01   5.724E-01
  
:NORMS:  1/Froebius, Min, Max, Used   0.6950E+00  0.3788E+00  0.9991E+00  0.6950E+00
:INFO :  Number of Memory Steps    5 Skipping    0
:INFO :  SLambda=    0.4138970145  Max    0.4138970145
:PREDicted Charge, CTotal, PW Trust    9.601E-04   1.920E-03   5.682E-03
:PREDicted DMix, Beta, BLim   2.9019E-01  1.7950E+00  7.5828E-01

Eigenvalues, unscaled except for SY+YY
   #     SY Real        SY Imag          SS             YY         SY+YY Real      SY+YY Imag
   1   2.162295E+00   0.000000E+00   1.983397E+00   4.252816E+00   5.145288E+00   0.000000E+00
   2   4.404128E-01   0.000000E+00   4.287059E-01   5.251059E-01   6.958051E-01   0.000000E+00
   3   2.717708E-02   0.000000E+00   3.117152E-03   2.188377E-01   2.439531E-01   0.000000E+00
   4   1.087744E-16   0.000000E+00   1.695679E-05   3.239700E-03   1.150795E-06   0.000000E+00
   5   2.923518E-04   0.000000E+00  -8.507861E-17   1.151819E-06   3.575204E-03   0.000000E+00
 
:INFO :  Singular value  5.145E+00 Weight  1.000E+00 Projection -5.840E-02
:INFO :  Singular value  6.958E-01 Weight  1.000E+00 Projection -1.615E-02
:INFO :  Singular value  2.440E-01 Weight  1.000E+00 Projection  4.520E-01
:INFO :  Singular value  3.575E-03 Weight  9.860E-01 Projection -4.730E+00
:INFO :  Singular value  1.151E-06 Weight  7.322E-06 Projection -4.753E-04
:RANK :  ACTIVE   3.99/5  =  79.72 % ; YY RANK   3.98/5  =  79.66 %
 
:BLIM :  VZERO Control Off
:TRUST:  Step 5.12E-01  Charge 7.50E-02 (e) CTO  2.50E-01 (e) PW  3.50E-01 (e)
:DTRUS:  Lambda    2.149E-01 Increment    7.276E-12 Iterations    98 DMIX    1.872E-01
:INFOA:  Angle SubSpace to MSR1      0.60
:DIRM :  MEMORY  5/8  SCALE   1.000 RED  0.78 PRED  0.84 NEXT  0.48 
:INFO :  Limited by Atoms F by Step T

:TRAVE:  Charge 5.03E-03 (e) CTO  1.01E-02 (e) PW  3.91E-03 (e)
:DIRP :  |MSR1|= 2.941E-02 |PRATT|= 4.565E-02 ANGLE=  24.4 DEGREES
:DIRQ :  |MSR1|= 1.969E-01 |PRATT|= 3.862E-01 ANGLE=  32.2 DEGREES
:DIRT :  |MSR1|= 1.991E-01 |PRATT|= 3.889E-01 ANGLE=  32.2 DEGREES
:MIX  :   MSD1   REGULARIZATION:  4.25E-04 GREED: 0.18804  LMStep 0.94  0.5119 Step           
     
       CHARGES OF MIXED CHARGE DENSITY
:CTO   : INTERSTITIAL CHARGE =     7.016279
:CPC   : PW Pseudocharge     =    16.820130
:CTO001: CHARGE SPHERE  1    =    55.491860

:NEC03: NUCLEAR AND ELECTRONIC CHARGE    118.00000   118.00000

PW CHANGE     H    K    L      Current       Change    Residue
:PTO001:      0    0    0  4.45983897E-02 -1.746E-05 -3.513E-04
:PTO003:      0    2    0  1.29917266E-02 -5.952E-06 -5.116E-05
:PTO004:     -1    1    0  6.41941540E-02 -4.433E-05 -3.754E-05
:PTO005:      0    2   -1 -7.48610057E-02  7.282E-05 -8.890E-05
:PTO006:      0    0   -2 -3.87462394E-02  9.234E-05  1.310E-04
:PTO007:     -1    1   -1 -8.19858891E-02  1.963E-04  7.804E-05
:PTO008:      0    2   -2 -1.38301747E-02  1.003E-04  1.581E-04
:PTO009:     -1    1   -2 -7.17965810E-02 -1.692E-04 -4.004E-04
:PTO011:     -1    3    0 -1.19783044E-02 -5.173E-05 -1.603E-04
:PTO012:     -1    3   -1 -5.50569207E-02 -6.658E-05 -3.077E-04
:PTO013:      0    4    0 -1.03274805E-02  4.871E-05 -9.039E-06
:PTO014:      0    2   -3  2.35975723E-02 -2.511E-05  1.232E-05

:ENE  : ********** TOTAL ENERGY IN Ry =       -36944.11315738

       TOTAL FORCE IN mRy/a.u. = |F|     Fx             Fy             Fz     with/without FOR in case.in2
:FOR001:   1.ATOM          7.641          0.000          0.000          7.641 partial forces
       TOTAL FORCE WITH RESPECT TO GLOBAL CARTESIAN COORDINATES:
:FCA001:   1.ATOM                         0.000          7.641          0.000 partial forces
       TOTAL FORCE WITH RESPECT TO THE GLOBAL COORDINATE SYSTEM:
:FGL001:   1.ATOM                 0.000000000     7.640711636     0.000000000 partial forces
 Flat Integration
 New Mode for Coulomb Integral
 Consistent 3/8+Simpson combinations
 Extension of core to zero
 LDM version in phi
 Fifth-order quadrature in outwin


            ---------
:ITE007:  7. ITERATION
            ---------

:NATO :    1 INDEPENDENT AND    2 TOTAL ATOMS IN UNITCELL
       SUBSTANCE: aU                                                          

       LATTICE                      = CXY 
:POT  : POTENTIAL OPTION EX_LDA EC_LDA VX_LDA VC_LDA
:LAT  : LATTICE CONSTANTS=  6.69940 13.59477 11.73665    1.571    1.571    1.571
:VOL  : UNIT CELL VOLUME =     534.46794
       MODE OF CALCULATION IS       = RELA
       NON-SPINPOLARIZED CALCULATION
:IFFT  : FFT-parameters:   54  108   96 Factor: 2.00


   CONVERGENCE PARAMETER FOR PSEUDOCHARGE: NCON=  9
   MAXIMAL VALUE OF RMT(JATOM)*ABSK(NKK) : RK  =27.59996


:VKCOUL :  VK-COUL convergence: 0.161E-06
       ATOMNUMBER=  1 Pr1        VCOUL-ZERO = -0.30010E-01
:EFG001:                        EFG         =    -5.52757   *10**21  V / m**2
                               V20  TOT/SRF=    -4.78702    -0.01908
                               V22  TOT/SRF=     0.18253     0.00008
                               V22M TOT/SRF=     0.00000     0.00000
                               V21  TOT/SRF=     0.00000     0.00000
                               V21M TOT/SRF=     0.00000     0.00000

              2.94632    0.00000    0.00000        2.94632    0.00000    0.00000
              0.00000    2.58125    0.00000        0.00000    2.58125    0.00000
              0.00000    0.00000   -5.52757        0.00000    0.00000   -5.52757

         MAIN DIRECTIONS OF THE EFG   1.0000  0.0000  0.0000
                                      0.0000  1.0000  0.0000
                                      0.0000  0.0000  1.0000
:ANG001:  ANGLE WITH OLD X-AXIS =         0.0

:ETA001:                         ASYMM. ETA =     0.06604


     HELLMANN-FEYNMAN-FORCE IN mRy/a.u. = |F|  Fx       Fy             Fz
:FHF001:   1.ATOM    980.477620446901      0.000000000000      0.000000000000   -980.477620446901

:FIT001: LUSE= 13 SIGMA OF V-XC FIT FOR ATOM  1  0.4261803E-04
:FIT001: LUSE= 13 SIGMA OF V-XC FIT FOR ATOM  1  0.4261803E-04
:DEN  : DENSITY INTEGRAL  =        -14139.05210622   (Ry)
       ELS_POTENTIAL_AT Z=0 and Z=0.5:   0.66617   0.66617
       ELS_POTENTIAL_AT Y=0 and Y=0.5:   0.08374   0.08374
:VZERO:v0,v0c,v0x   0.11886   0.66617  -0.54732 v5,v5c,v5x   0.11886   0.66617  -0.54732
:VZERY:v0,v0c,v0x  -0.65047   0.08374  -0.73420 v5,v5c,v5x  -0.65047   0.08374  -0.73420
:VZERX:v0,v0c,v0x  -1.07513  -0.36757  -0.70756 v5,v5c,v5x  -1.07513  -0.36757  -0.70756
:LMAX-WF:   10   Non-Spherical LMAX:   4

          ATOMIC SPHERE DEPENDENT PARAMETERS FOR ATOM  Pr1       
:e__0001: OVERALL ENERGY PARAMETER IS    0.3420
          OVERALL BASIS SET ON ATOM IS LAPW
:E0_0001: E( 0)=    0.3420
             APW+lo
:E0_0001: E( 0)=   -2.1322   E(BOTTOM)=   -2.769   E(TOP)=   -1.496  4  5   167
             LOCAL ORBITAL
:E1_0001: E( 1)=    0.7420
             APW+lo
:E1_0001: E( 1)=   -0.6629   E(BOTTOM)=   -1.622   E(TOP)=    0.296  3  4   195
             LOCAL ORBITAL
:E3_0001: E( 3)=    0.5279   E(BOTTOM)=    0.318   E(TOP)=    0.737  0  1   120
             APW+lo
:E2_0001: E( 2)=    0.3420   E(BOTTOM)=    0.119   E(TOP)= -200.000  2 -1    97
             APW+lo

       K=   0.06250   0.00000   0.06250            1
:RKM  : MATRIX SIZE   485LOs:  40  RKM= 8.49  WEIGHT= 4.00  PGR:    
       EIGENVALUES ARE:
:EIG00001:      -2.0983161   -2.0890210   -0.8118322   -0.7563264   -0.7435147
:EIG00006:      -0.7387272   -0.7335640   -0.7331897    0.3111508    0.4551429
:EIG00011:       0.5433973    0.5436502    0.5448558    0.5458392    0.5492515
:EIG00016:       0.5570157    0.5603063    0.5604782    0.5626792    0.5651302
:EIG00021:       0.5677252    0.5715835    0.5722486    0.5765073    0.6098965
:EIG00026:       0.6228787    0.6858826    0.7084368    0.7204065    0.7593741
:EIG00031:       0.7748702    0.8459482    0.8895131    0.9269663    1.1812957
:EIG00036:       1.2223674    1.3102408    1.3129935    1.4576135    1.5110121
:EIG00041:       1.5510247    1.6530375    1.7136314    1.7351148    1.8123740
:EIG00046:       1.8836984    1.8917405    1.9312212    1.9972271
 
       ********************************************************

:KPT   :      NUMBER OF K-POINTS:   288
:GAP (global)   :    0.0    Ry =     0.0   eV (metal)
         Bandranges (emin - emax) and occupancy:
:BAN00004:   4   -0.801055   -0.756326  2.00000000
:BAN00005:   5   -0.793803   -0.743515  2.00000000
:BAN00006:   6   -0.781897   -0.736024  2.00000000
:BAN00007:   7   -0.767433   -0.733417  2.00000000
:BAN00008:   8   -0.746626   -0.731065  2.00000000
:BAN00009:   9    0.306739    0.517985  2.00000000
:BAN00010:  10    0.411871    0.529404  2.00000000
:BAN00011:  11    0.494570    0.543397  2.00000000
:BAN00012:  12    0.528503    0.546517  2.00000000
:BAN00013:  13    0.536267    0.555009  1.50303675
:BAN00014:  14    0.542755    0.558126  0.49696324
:BAN00015:  15    0.548278    0.558836  0.00000000
:BAN00016:  16    0.551660    0.560726  0.00000000
:BAN00017:  17    0.554525    0.562322  0.00000000
:BAN00018:  18    0.555942    0.562768  0.00000000
:BAN00019:  19    0.558587    0.564998  0.00000000
        Energy to separate low and high energystates:    0.25674


:NOE  : NUMBER OF ELECTRONS          =   26.000

:FER  : F E R M I - ENERGY(TETRAH.M.)=   0.5471336814
:GMA  : POTENTIAL AND CHARGE CUT-OFF  12.00 Ry**.5

:POS001: ATOM   -1 X,Y,Z = 0.00000 0.89750 0.25000  MULT= 2  ZZ= 59.000  Pr1       

       LMMAX 16
[...]
     
       CONVERGENCE TEST
:DTO001: DIFFERENCE IN SPHERE  1 =  0.0003040

:DIS  :  CHARGE DISTANCE       ( 0.0003040 for atom    1 spin 1)      0.0003040
 PW Mixed is          544
 
******************************************************
* MULTISECANT MIXING VER9 RELEASE 10.4.0              *
* Standard Mode with controls                        *
* Fixed density scale                                *
* Regularization       1.000E-04                     *
* Trust Upper Limit    5.000E+00                     *
* Max Number of Memory Steps    8                    *
******************************************************
 
:PWTMP   4.3254E+02  1.9467E+02  5.3447E+02
:PLANE:  PW TOTAL      4.3853 DISTAN   4.06E-04  9.26E-03 %
:CHARG:  CLM/ATOM   1381.9406 DISTAN   4.88E-04  3.53E-05 %
 
Step History
        DMIX         DMIXT        Red     Pred      Trust     Lambda    MagRel    MagAbs     Beta
  5   7.0895E-02   4.4906E-02  7.97E-01  9.22E-01  1.81E-01  8.47E-01  1.81E-01  1.13E-01  1.00E+00
  6   1.2199E-01   1.1261E-01  7.77E-01  8.43E-01  3.48E-01  4.14E-01  3.48E-01  1.74E-01  1.00E+00
  7   1.8804E-01   1.8723E-01  3.56E-01  4.79E-01  5.12E-01  6.32E-01  5.12E-01  1.99E-01  1.00E+00
  8   1.4220E-01   1.4220E-01  5.44E-01  8.28E-01  7.14E-01  4.52E-01  4.36E-01  6.04E-02  1.00E+00
  9   2.0571E-01   2.0571E-01  5.49E-01  6.99E-01  9.52E-01  8.73E-01  4.20E-01  3.16E-02  1.00E+00
 10   2.5488E-01   2.5488E-01  4.86E-01  4.47E-01  1.27E+00  1.31E+00  3.64E-01  1.51E-02  1.00E+00
 11   2.8588E-01   2.8588E-01  3.13E-01  2.65E-01  1.69E+00  1.93E+00  3.53E-01  7.11E-03  1.00E+00
 12   2.6996E-01   2.6996E-01  4.04E-01  3.63E-01  2.26E+00  1.97E+00  3.98E-01  2.51E-03  8.02E-01
 13   2.8073E-01   2.8073E-01 -1.00E+00  3.14E-01  3.01E+00  1.00E+00  5.03E-01  1.28E-03  9.26E-01
:JACOBIANS    5.249E-01   2.753E+00
  
:NORMS:  1/Froebius, Min, Max, Used   0.6397E+00  0.4592E+00  0.9742E+00  0.8761E+00
:INFO :  Number of Memory Steps    8 Skipping    4
:INFO :  SLambda=    2.0370714976  Max    2.0370714976
:PREDicted Charge, CTotal, PW Trust    1.869E-04   3.737E-04   2.322E-04
:PREDicted DMix, Beta, BLim   5.7055E-01  9.8607E-01  1.6905E+00

Eigenvalues, unscaled except for SY+YY
   #     SY Real        SY Imag          SS             YY         SY+YY Real      SY+YY Imag
   1   2.702221E+00   0.000000E+00   2.629740E+00   3.425936E+00   8.424865E+00   0.000000E+00
   2   8.706922E-01   0.000000E+00   4.616583E-01   2.837751E+00   4.876170E+00   0.000000E+00
   3   3.483245E-01   0.000000E+00   1.610952E-01   1.055228E+00   1.921914E+00   0.000000E+00
   4   6.637612E-02   0.000000E+00   1.251651E-02   4.461652E-01   5.961931E-01   0.000000E+00
   5   9.809878E-04   0.000000E+00   4.706731E-03   1.163684E-01   2.237785E-01   0.000000E+00
   6   9.323741E-03   0.000000E+00   2.695086E-03   7.361267E-02   3.600531E-03   0.000000E+00
   7   1.293098E-02   0.000000E+00   1.120896E-03   4.349643E-02   1.046395E-01   0.000000E+00
   8   2.560505E-02   0.000000E+00   4.444263E-04   1.442748E-03   7.138659E-02   0.000000E+00
 
:INFO :  Singular value  8.426E+00 Weight  1.000E+00 Projection -8.297E-05
:INFO :  Singular value  4.887E+00 Weight  1.000E+00 Projection  1.421E-04
:INFO :  Singular value  1.920E+00 Weight  1.000E+00 Projection  8.394E-05
:INFO :  Singular value  5.962E-01 Weight  1.000E+00 Projection -4.262E-05
:INFO :  Singular value  2.237E-01 Weight  1.000E+00 Projection -9.673E-04
:INFO :  Singular value  1.046E-01 Weight  1.000E+00 Projection -8.238E-06
:INFO :  Singular value  7.132E-02 Weight  1.000E+00 Projection  6.821E-06
:INFO :  Singular value  3.600E-03 Weight  9.910E-01 Projection -1.055E-02
:RANK :  ACTIVE   7.99/8  =  99.89 % ; YY RANK   7.95/8  =  99.33 %
 
:DLIM :  Beta Active  9.712E-01
:BLIM :  VZERO Control Off
:TRUST:  Step 4.01E+00  Charge 1.97E-02 (e) CTO  6.55E-02 (e) PW  9.18E-02 (e)
:DIRM :  MEMORY  8/8  SCALE   1.000 RED  0.25 PRED  0.31 NEXT  0.30 BETA  0.97
:TRAVE:  Charge 2.06E-04 (e) CTO  4.12E-04 (e) PW  4.27E-04 (e)
:DIRP :  |MSR1|= 3.355E-04 |PRATT|= 4.060E-04 ANGLE=   5.8 DEGREES
:DIRQ :  |MSR1|= 2.348E-04 |PRATT|= 4.882E-04 ANGLE=  54.5 DEGREES
:DIRT :  |MSR1|= 4.095E-04 |PRATT|= 6.350E-04 ANGLE=  39.0 DEGREES
:MIX  :   MSE1   REGULARIZATION:  3.43E-04 GREED: 0.32425  Newton 1.00  0.6450                
     
       CHARGES OF MIXED CHARGE DENSITY
:CTO   : INTERSTITIAL CHARGE =     7.012633
:CPC   : PW Pseudocharge     =    16.851159
:CTO001: CHARGE SPHERE  1    =    55.493684

:NEC03: NUCLEAR AND ELECTRONIC CHARGE    118.00000   118.00000

PW CHANGE     H    K    L      Current       Change    Residue
:PTO001:      0    0    0  4.46496225E-02 -1.396E-06 -2.384E-06
:PTO003:      0    2    0  1.29369060E-02 -7.233E-07 -8.725E-07
:PTO004:     -1    1    0  6.42155055E-02 -3.321E-06 -3.894E-06
:PTO005:      0    2   -1 -7.49740252E-02  4.347E-06  5.033E-06
:PTO006:      0    0   -2 -3.87814398E-02  2.284E-06  2.703E-06
:PTO007:     -1    1   -1 -8.21355521E-02  5.176E-06  5.926E-06
:PTO008:      0    2   -2 -1.38006215E-02  1.173E-06  1.439E-06
:PTO009:     -1    1   -2 -7.20924945E-02  5.821E-06  6.455E-06
:PTO011:     -1    3    0 -1.21273722E-02  6.420E-07  5.340E-07
:PTO012:     -1    3   -1 -5.52396600E-02  5.581E-06  6.309E-06
:PTO013:      0    4    0 -1.03439740E-02  1.171E-06  1.336E-06
:PTO014:      0    2   -3  2.36420982E-02 -2.728E-06 -3.151E-06

:ENE  : ********** TOTAL ENERGY IN Ry =       -36944.11234057

       TOTAL FORCE IN mRy/a.u. = |F|     Fx             Fy             Fz     with/without FOR in case.in2
:FOR001:   1.ATOM         30.047          0.000          0.000        -30.047 partial forces
       TOTAL FORCE WITH RESPECT TO GLOBAL CARTESIAN COORDINATES:
:FCA001:   1.ATOM                         0.000        -30.047          0.000 partial forces
       TOTAL FORCE WITH RESPECT TO THE GLOBAL COORDINATE SYSTEM:
:FGL001:   1.ATOM                 0.000000000   -30.046637158     0.000000000 partial forces
 Flat Integration
 New Mode for Coulomb Integral
 Consistent 3/8+Simpson combinations
 Extension of core to zero
 LDM version in phi
 Fifth-order quadrature in outwin


            ---------
:ITE014: 14. ITERATION
            ---------

:NATO :    1 INDEPENDENT AND    2 TOTAL ATOMS IN UNITCELL
       SUBSTANCE: aU                                                          

       LATTICE                      = CXY 
:POT  : POTENTIAL OPTION EX_LDA EC_LDA VX_LDA VC_LDA
:LAT  : LATTICE CONSTANTS=  6.69940 13.59477 11.73665    1.571    1.571    1.571
:VOL  : UNIT CELL VOLUME =     534.46794
       MODE OF CALCULATION IS       = RELA
       NON-SPINPOLARIZED CALCULATION
:IFFT  : FFT-parameters:   54  108   96 Factor: 2.00


   CONVERGENCE PARAMETER FOR PSEUDOCHARGE: NCON=  9
   MAXIMAL VALUE OF RMT(JATOM)*ABSK(NKK) : RK  =27.59996


:VKCOUL :  VK-COUL convergence: 0.186E-06
       ATOMNUMBER=  1 Pr1        VCOUL-ZERO = -0.30524E-01
:EFG001:                        EFG         =    -6.81391   *10**21  V / m**2
                               V20  TOT/SRF=    -5.90102    -0.01908
                               V22  TOT/SRF=     0.18242     0.00138
                               V22M TOT/SRF=     0.00000     0.00000
                               V21  TOT/SRF=     0.00000     0.00000
                               V21M TOT/SRF=     0.00000     0.00000

              3.58938    0.00000    0.00000        3.58938    0.00000    0.00000
              0.00000    3.22453    0.00000        0.00000    3.22453    0.00000
              0.00000    0.00000   -6.81391        0.00000    0.00000   -6.81391

         MAIN DIRECTIONS OF THE EFG   1.0000  0.0000  0.0000
                                      0.0000  1.0000  0.0000
                                      0.0000  0.0000  1.0000
:ANG001:  ANGLE WITH OLD X-AXIS =         0.0

:ETA001:                         ASYMM. ETA =     0.05354


     HELLMANN-FEYNMAN-FORCE IN mRy/a.u. = |F|  Fx       Fy             Fz
:FHF001:   1.ATOM   1181.655532435126      0.000000000000      0.000000000000  -1181.655532435126

:FIT001: LUSE= 13 SIGMA OF V-XC FIT FOR ATOM  1  0.5837039E-04
:FIT001: LUSE= 13 SIGMA OF V-XC FIT FOR ATOM  1  0.5837039E-04
:DEN  : DENSITY INTEGRAL  =        -14138.66167083   (Ry)
       ELS_POTENTIAL_AT Z=0 and Z=0.5:   0.66686   0.66686
       ELS_POTENTIAL_AT Y=0 and Y=0.5:   0.08203   0.08203
:VZERO:v0,v0c,v0x   0.11949   0.66686  -0.54737 v5,v5c,v5x   0.11949   0.66686  -0.54737
:VZERY:v0,v0c,v0x  -0.65193   0.08203  -0.73396 v5,v5c,v5x  -0.65193   0.08203  -0.73396
:VZERX:v0,v0c,v0x  -1.07604  -0.36818  -0.70786 v5,v5c,v5x  -1.07604  -0.36818  -0.70786
:LMAX-WF:   10   Non-Spherical LMAX:   4

          ATOMIC SPHERE DEPENDENT PARAMETERS FOR ATOM  Pr1       
:e__0001: OVERALL ENERGY PARAMETER IS    0.3455
          OVERALL BASIS SET ON ATOM IS LAPW
:E0_0001: E( 0)=    0.3455
             APW+lo
:E0_0001: E( 0)=   -2.1335   E(BOTTOM)=   -2.770   E(TOP)=   -1.497  4  5   167
             LOCAL ORBITAL
:E1_0001: E( 1)=    0.7455
             APW+lo
:E1_0001: E( 1)=   -0.6641   E(BOTTOM)=   -1.623   E(TOP)=    0.294  3  4   193
             LOCAL ORBITAL
:E3_0001: E( 3)=    0.5260   E(BOTTOM)=    0.317   E(TOP)=    0.735  0  1   123
             APW+lo
:E2_0001: E( 2)=    0.3455   E(BOTTOM)=    0.118   E(TOP)= -200.000  2 -1    94
             APW+lo

       K=   0.06250   0.00000   0.06250            1
:RKM  : MATRIX SIZE   485LOs:  40  RKM= 8.49  WEIGHT= 4.00  PGR:    
       EIGENVALUES ARE:
:EIG00001:      -2.0995250   -2.0902283   -0.8129018   -0.7573615   -0.7446142
:EIG00006:      -0.7395598   -0.7343832   -0.7343062    0.3114555    0.4552829
:EIG00011:       0.5415951    0.5421502    0.5427814    0.5443525    0.5471203
:EIG00016:       0.5554730    0.5586177    0.5589136    0.5611236    0.5632581
:EIG00021:       0.5660273    0.5697221    0.5704745    0.5742577    0.6095352
:EIG00026:       0.6226196    0.6858097    0.7081974    0.7199814    0.7592712
:EIG00031:       0.7746905    0.8456465    0.8891932    0.9263582    1.1809796
:EIG00036:       1.2224698    1.3102343    1.3131643    1.4580859    1.5108160
:EIG00041:       1.5510800    1.6531188    1.7140859    1.7350808    1.8119584
:EIG00046:       1.8838906    1.8916761    1.9314797    1.9970842
 
       ********************************************************

:KPT   :      NUMBER OF K-POINTS:   288
:GAP (global)   :    0.0    Ry =     0.0   eV (metal)
         Bandranges (emin - emax) and occupancy:
:BAN00004:   4   -0.801788   -0.757361  2.00000000
:BAN00005:   5   -0.794557   -0.744614  2.00000000
:BAN00006:   6   -0.782891   -0.736861  2.00000000
:BAN00007:   7   -0.768437   -0.734383  2.00000000
:BAN00008:   8   -0.747644   -0.731887  2.00000000
:BAN00009:   9    0.307047    0.517300  2.00000000
:BAN00010:  10    0.412128    0.528389  2.00000000
:BAN00011:  11    0.494581    0.541595  2.00000000
:BAN00012:  12    0.527549    0.545216  2.00000000
:BAN00013:  13    0.535059    0.553044  1.50377976
:BAN00014:  14    0.541290    0.556422  0.49622024
:BAN00015:  15    0.546156    0.557165  0.00000000
:BAN00016:  16    0.549760    0.558949  0.00000000
:BAN00017:  17    0.552770    0.560476  0.00000000
:BAN00018:  18    0.554174    0.560935  0.00000000
:BAN00019:  19    0.556788    0.563401  0.00000000
        Energy to separate low and high energystates:    0.25705


:NOE  : NUMBER OF ELECTRONS          =   26.000

:FER  : F E R M I - ENERGY(TETRAH.M.)=   0.5454701052
:GMA  : POTENTIAL AND CHARGE CUT-OFF  12.00 Ry**.5

:POS001: ATOM   -1 X,Y,Z = 0.00000 0.89750 0.25000  MULT= 2  ZZ= 59.000  Pr1       

       LMMAX 16
       LM=   0 0  1 0  2 0  2 2  3 0  3 2  4 0  4 2  4 4  5 0  5 2  5 4  6 0  6 2  6 4  6 6

:CHA001: TOTAL VALENCE CHARGE INSIDE SPHERE   1 =   9.4952    (RMT=  2.3000 )
:PCS001: PARTIAL CHARGES SPHERE =  1 S,P,D,F,PX,PY,PZ,D-Z2,D-X2Y2,D-XY,D-XZ,D-YZ 
:QTL001: 1.9388 5.0241 0.4594 2.0728 1.6718 1.6722 1.6801 0.0843 0.0827 0.1031 0.0877 0.1016
        Q-s-low E-s-low   Q-p-low E-p-low   Q-d-low E-d-low   Q-f-low E-f-low
:EPL001:  1.8697 -2.0905    4.9643 -0.7666    0.0009 -0.7872    0.0002 -0.7954
        Q-s-hi  E-s-hi    Q-p-hi  E-p-hi    Q-d-hi  E-d-hi    Q-f-hi  E-f-hi 
:EPH001:  0.0691  0.4452    0.0598  0.4838    0.4586  0.5024    2.0725  0.5349

                      VXX         VYY         VZZ       UP TO R
:VZZ001:             3.58146     3.21545    -6.79691       2.300

:CHA  : TOTAL VALENCE CHARGE INSIDE UNIT CELL =      26.000000

:SUM  : SUM OF EIGENVALUES =         -12.494269863


        1.ATOM      Pr1                  14 CORE STATES
       CORE-FORCE in mRy/a.u. = |F|      Fx             Fy             Fz
:FCO001:   1.ATOM   1151.682892244895      0.000000000000      0.000000000000   1151.682892244895

:1S 001: 1S               -3067.061595648 Ry
:2S 001: 2S                -492.812322584 Ry
:2PP001: 2P*               -465.912015535 Ry
:2P 001: 2P                -430.514319787 Ry
:3S 001: 3S                -105.897149378 Ry
:3PP001: 3P*                -94.435254725 Ry
:3P 001: 3P                 -87.427191019 Ry
:3DD001: 3D*                -67.354946148 Ry
:3D 001: 3D                 -65.843292099 Ry
:4S 001: 4S                 -20.574434694 Ry
:4PP001: 4P*                -16.281508555 Ry
:4P 001: 4P                 -14.754449756 Ry
:4DD001: 4D*                 -7.688191076 Ry
:4D 001: 4D                  -7.418915657 Ry
:CINT001 Core Integral Atom   1   45.998483

       DENSITY AT NUCLEUS
        JATOM        VALENCE       SEMI-CORE          CORE           TOTAL
:RTO001:   1      646.551032        0.000000   656824.953230   657471.504261
     
       CHARGES OF NEW CHARGE DENSITY
:NTO   : INTERSTITIAL CHARGE =     7.009544
:NPC   : PW Pseudocharge     =    16.843764
:NTO001: CHARGE SPHERE  1    =    55.493711

:NEC01: NUCLEAR AND ELECTRONIC CHARGE    118.00000   117.99696
     
       CHARGES OF OLD CHARGE DENSITY
:OTO   : INTERSTITIAL CHARGE =     7.012633
:OPC   : PW Pseudocharge     =    16.851159
:OTO001: CHARGE SPHERE  1    =    55.493684

:NEC02: NUCLEAR AND ELECTRONIC CHARGE    118.00000   118.00000
     
       CONVERGENCE TEST
:DTO001: DIFFERENCE IN SPHERE  1 =  0.0000334

:DIS  :  CHARGE DISTANCE       ( 0.0000334 for atom    1 spin 1)      0.0000334
 PW Mixed is          544
 
******************************************************
* MULTISECANT MIXING VER9 RELEASE 10.4.0              *
* Standard Mode with controls                        *
* Fixed density scale                                *
* Regularization       1.000E-04                     *
* Trust Upper Limit    5.000E+00                     *
* Max Number of Memory Steps    8                    *
******************************************************
 
:PWTMP   4.3254E+02  1.9467E+02  5.3447E+02
:PLANE:  PW TOTAL      4.3850 DISTAN   6.84E-05  1.56E-03 %
:CHARG:  CLM/ATOM   1381.9407 DISTAN   1.73E-04  1.25E-05 %
 
Step History
        DMIX         DMIXT        Red     Pred      Trust     Lambda    MagRel    MagAbs     Beta
  6   1.2199E-01   1.1261E-01  7.77E-01  8.43E-01  3.48E-01  4.14E-01  3.48E-01  1.74E-01  1.00E+00
  7   1.8804E-01   1.8723E-01  3.56E-01  4.79E-01  5.12E-01  6.32E-01  5.12E-01  1.99E-01  1.00E+00
  8   1.4220E-01   1.4220E-01  5.44E-01  8.28E-01  7.14E-01  4.52E-01  4.36E-01  6.04E-02  1.00E+00
  9   2.0571E-01   2.0571E-01  5.49E-01  6.99E-01  9.52E-01  8.73E-01  4.20E-01  3.16E-02  1.00E+00
 10   2.5488E-01   2.5488E-01  4.86E-01  4.47E-01  1.27E+00  1.31E+00  3.64E-01  1.51E-02  1.00E+00
 11   2.8588E-01   2.8588E-01  3.13E-01  2.65E-01  1.69E+00  1.93E+00  3.53E-01  7.11E-03  1.00E+00
 12   2.6996E-01   2.6996E-01  4.04E-01  3.63E-01  2.26E+00  1.97E+00  3.98E-01  2.51E-03  8.02E-01
 13   2.8073E-01   2.8073E-01  2.49E-01  3.14E-01  3.01E+00  2.04E+00  5.03E-01  1.28E-03  9.26E-01
 14   3.2425E-01   3.2425E-01 -1.00E+00  3.05E-01  4.01E+00  1.00E+00  6.45E-01  4.10E-04  9.71E-01
:JACOBIANS    6.864E-01   2.831E+00
  
:NORMS:  1/Froebius, Min, Max, Used   0.6083E+00  0.4718E+00  0.9483E+00  0.7222E+00
:INFO :  Number of Memory Steps    8 Skipping    5
:INFO :  SLambda=    1.3276498615  Max    1.3276498615
:PREDicted Charge, CTotal, PW Trust    2.542E-05   5.085E-05   3.137E-04
:PREDicted DMix, Beta, BLim   9.0292E-02  1.0159E+00  6.9091E+00

Eigenvalues, unscaled except for SY+YY
   #     SY Real        SY Imag          SS             YY         SY+YY Real      SY+YY Imag
   1   2.129420E+00   0.000000E+00   1.955584E+00   3.749461E+00   5.709879E+00   0.000000E+00
   2   8.245772E-01   0.000000E+00   5.746324E-01   2.423907E+00   4.178298E+00   0.000000E+00
   3   4.480465E-01   0.000000E+00   2.948409E-01   6.716545E-01   1.289960E+00   0.000000E+00
   4   2.469282E-01   0.000000E+00   1.187411E-01   5.961181E-01   1.054305E+00   0.000000E+00
   5   6.623101E-02   0.000000E+00   1.157548E-02   4.364080E-01   5.461769E-01   0.000000E+00
   6   2.358065E-04   0.000000E+00   2.539863E-03   7.583388E-02   1.950647E-03   0.000000E+00
   7   1.732884E-02   0.000000E+00   1.884393E-03   4.513932E-02   1.269291E-01   0.000000E+00
   8   1.193880E-02   0.000000E+00   4.602798E-05   1.478558E-03   6.416075E-02   0.000000E+00
 
:INFO :  Singular value  5.713E+00 Weight  1.000E+00 Projection  4.540E-05
:INFO :  Singular value  4.181E+00 Weight  1.000E+00 Projection -2.849E-05
:INFO :  Singular value  1.290E+00 Weight  1.000E+00 Projection -8.167E-05
:INFO :  Singular value  1.054E+00 Weight  1.000E+00 Projection -6.017E-05
:INFO :  Singular value  5.461E-01 Weight  1.000E+00 Projection -1.269E-05
:INFO :  Singular value  1.269E-01 Weight  1.000E+00 Projection  4.743E-05
:INFO :  Singular value  6.414E-02 Weight  1.000E+00 Projection  1.533E-04
:INFO :  Singular value  1.951E-03 Weight  9.644E-01 Projection  2.580E-03
:RANK :  ACTIVE   7.96/8  =  99.55 % ; YY RANK   7.94/8  =  99.24 %
 
:BLIM :  VZERO Control Off
:TRUST:  Step 5.35E+00  Charge 1.57E-02 (e) CTO  5.24E-02 (e) PW  7.34E-02 (e)
:DIRM :  MEMORY  8/8  SCALE   1.000 RED  0.29 PRED  0.30 NEXT  0.42 
:TRAVE:  Charge 1.06E-04 (e) CTO  2.12E-04 (e) PW  2.31E-04 (e)
:DIRP :  |MSR1|= 5.163E-05 |PRATT|= 6.838E-05 ANGLE=   9.4 DEGREES
:DIRQ :  |MSR1|= 5.622E-05 |PRATT|= 1.727E-04 ANGLE=  43.9 DEGREES
:DIRT :  |MSR1|= 7.633E-05 |PRATT|= 1.858E-04 ANGLE=  42.3 DEGREES
:MIX  :   MSE1   REGULARIZATION:  3.75E-04 GREED: 0.19378  Newton 1.00  0.4109                
     
       CHARGES OF MIXED CHARGE DENSITY
:CTO   : INTERSTITIAL CHARGE =     7.012621
:CPC   : PW Pseudocharge     =    16.851076
:CTO001: CHARGE SPHERE  1    =    55.493690

:NEC03: NUCLEAR AND ELECTRONIC CHARGE    118.00000   118.00000

PW CHANGE     H    K    L      Current       Change    Residue
:PTO001:      0    0    0  4.46494437E-02 -1.788E-07 -2.909E-07
:PTO003:      0    2    0  1.29367657E-02 -1.403E-07 -1.911E-07
:PTO004:     -1    1    0  6.42150043E-02 -5.012E-07 -7.478E-07
:PTO005:      0    2   -1 -7.49734437E-02  5.815E-07  7.409E-07
:PTO006:      0    0   -2 -3.87811367E-02  3.032E-07  2.921E-07
:PTO007:     -1    1   -1 -8.21349102E-02  6.419E-07  7.447E-07
:PTO008:      0    2   -2 -1.38004333E-02  1.882E-07  2.686E-07
:PTO009:     -1    1   -2 -7.20918520E-02  6.425E-07  6.228E-07
:PTO011:     -1    3    0 -1.21274004E-02 -2.817E-08 -1.979E-07
:PTO012:     -1    3   -1 -5.52389490E-02  7.110E-07  8.575E-07
:PTO013:      0    4    0 -1.03438031E-02  1.708E-07  2.333E-07
:PTO014:      0    2   -3  2.36417224E-02 -3.758E-07 -3.867E-07

:ENE  : ********** TOTAL ENERGY IN Ry =       -36944.11234053

       TOTAL FORCE IN mRy/a.u. = |F|     Fx             Fy             Fz     with/without FOR in case.in2
:FOR001:   1.ATOM         29.973          0.000          0.000        -29.973 partial forces
       TOTAL FORCE WITH RESPECT TO GLOBAL CARTESIAN COORDINATES:
:FCA001:   1.ATOM                         0.000        -29.973          0.000 partial forces
       TOTAL FORCE WITH RESPECT TO THE GLOBAL COORDINATE SYSTEM:
:FGL001:   1.ATOM                 0.000000000   -29.972640190     0.000000000 partial forces
