
:LABEL1: Calculations in /home/ykent/GWIEN/example/Pr/V9/case
:LABEL2: on didymium-2.cmpgroup.ameslab.gov at Wed Jul  8 16:01:20 CDT 2020
:LABEL3: using WIEN2k_19.1 (Release 25/6/2019) in /home/ykent/opt/src/WIEN2k_19.1
:LABEL4: using the command: run_lapw -cc 0.0001
 Flat Integration
 New Mode for Coulomb Integral
 Consistent 3/8+Simpson combinations
 Extension of core to zero
 LDM version in phi
 Fifth-order quadrature in outwin


            ---------
:ITE001:  1. ITERATION
            ---------

:NATO :    1 INDEPENDENT AND    1 TOTAL ATOMS IN UNITCELL
       SUBSTANCE: blebleble                                                   

       LATTICE                      = F   
:POT  : POTENTIAL OPTION EX_LDA EC_LDA VX_LDA VC_LDA
:LAT  : LATTICE CONSTANTS=  9.43103  9.43103  9.43103    1.571    1.571    1.571
:VOL  : UNIT CELL VOLUME =     209.70929
       MODE OF CALCULATION IS       = RELA
       NON-SPINPOLARIZED CALCULATION
:IFFT  : FFT-parameters:   80   80   80 Factor: 2.00


   CONVERGENCE PARAMETER FOR PSEUDOCHARGE: NCON=  9
   MAXIMAL VALUE OF RMT(JATOM)*ABSK(NKK) : RK  =29.98011


:VKCOUL :  VK-COUL convergence: 0.150E-05
       ATOMNUMBER=  1 Pr         VCOUL-ZERO =  0.35038E+00
:FIT001: LUSE= 13 SIGMA OF V-XC FIT FOR ATOM  1  0.2294274E-05
:FIT001: LUSE= 13 SIGMA OF V-XC FIT FOR ATOM  1  0.2294274E-05
:DEN  : DENSITY INTEGRAL  =         -7081.13578419   (Ry)
       ELS_POTENTIAL_AT Z=0 and Z=0.5:  -2.50895  -2.50895
       ELS_POTENTIAL_AT Y=0 and Y=0.5:   0.00000   0.00000
:VZERO:v0,v0c,v0x  -3.49952  -2.50895  -0.99058 v5,v5c,v5x  -3.49952  -2.50895  -0.99058
:VZERY:v0,v0c,v0x  -0.74567   0.00000  -0.74567 v5,v5c,v5x  -0.74567   0.00000  -0.74567
:VZERX:v0,v0c,v0x  -0.74567   0.00000  -0.74567 v5,v5c,v5x  -0.74567   0.00000  -0.74567
:LMAX-WF:   10   Non-Spherical LMAX:   4

          ATOMIC SPHERE DEPENDENT PARAMETERS FOR ATOM  Pr        
:e__0001: OVERALL ENERGY PARAMETER IS    0.3000
          OVERALL BASIS SET ON ATOM IS LAPW
:E0_0001: E( 0)=    0.3000
             APW+lo
:E0_0001: E( 0)=   -1.9557   E(BOTTOM)=   -2.342   E(TOP)=   -1.570  4  5   188
             LOCAL ORBITAL
:E1_0001: E( 1)=    0.7000
             APW+lo
:E1_0001: E( 1)=   -0.5720   E(BOTTOM)=   -1.225   E(TOP)=    0.081  3  4   180
             LOCAL ORBITAL
:E3_0001: E( 3)=    0.7261   E(BOTTOM)=    0.580   E(TOP)=    0.872  0  1   136
             APW+lo
:E2_0001: E( 2)=    0.3437   E(BOTTOM)=    0.344   E(TOP)= -200.000  2 -1    87
             APW+lo

       K=   0.00000   0.00000   0.00000            1
:RKM  : MATRIX SIZE   157LOs:  20  RKM= 8.16  WEIGHT= 1.00  PGR:    
       EIGENVALUES ARE:
:EIG00001:      -1.9266887   -0.5400371   -0.5400371   -0.5400371    0.4298500
:EIG00006:       0.7064787    0.7360906    0.7360906    0.7360906    0.7711815
:EIG00011:       0.7711815    0.7711815    0.8198757    0.8198757    0.8198757
:EIG00016:       1.0284555    1.0284555    1.4384858    1.6909098    1.6909098
:EIG00021:       1.6909098    1.7856214
       ********************************************************

:KPT   :      NUMBER OF K-POINTS:   165
:GAP (global)   :    0.0    Ry =     0.0   eV (metal)
         Bandranges (emin - emax) and occupancy:
:BAN00001:   1   -1.926689   -1.901702  2.00000000
:BAN00002:   2   -0.669279   -0.540037  2.00000000
:BAN00003:   3   -0.624658   -0.540037  2.00000000
:BAN00004:   4   -0.588586   -0.540037  2.00000000
:BAN00005:   5    0.429850    0.659870  2.00000000
:BAN00006:   6    0.577477    0.715014  2.00000000
:BAN00007:   7    0.685395    0.741992  1.00000000
:BAN00008:   8    0.723244    0.744375  0.00000000
:BAN00009:   9    0.736091    0.750249  0.00000000
:BAN00010:  10    0.743510    0.771182  0.00000000
:BAN00011:  11    0.747502    0.771182  0.00000000
:BAN00012:  12    0.752911    0.771979  0.00000000
        Energy to separate low and high energystates:    0.37985


:NOE  : NUMBER OF ELECTRONS          =   13.000

:FER  : F E R M I - ENERGY(TETRAH.M.)=   0.7226752993
:GMA  : POTENTIAL AND CHARGE CUT-OFF  12.00 Ry**.5

:POS001: ATOM    1 X,Y,Z = 0.00000 0.00000 0.50000  MULT= 1  ZZ= 59.000  Pr        

       LMMAX  5
       LM=   0 0  4 0  4 4  6 0  6 4

:CHA001: TOTAL VALENCE CHARGE INSIDE SPHERE   1 =   9.7196    (RMT=  2.5000 )
:PCS001: PARTIAL CHARGES SPHERE =  1 S,P,D,F,      D-EG,D-T2G 
:QTL001: 2.0441 5.3564 0.9131 1.4052 0.0000 0.0000 0.0000 0.3213 0.5918 0.0000 0.0000 0.0000
        Q-s-low E-s-low   Q-p-low E-p-low   Q-d-low E-d-low   Q-f-low E-f-low
:EPL001:  1.9232 -1.9064    5.2465 -0.5944    0.0032 -0.6165    0.0009 -0.6179
        Q-s-hi  E-s-hi    Q-p-hi  E-p-hi    Q-d-hi  E-d-hi    Q-f-hi  E-f-hi 
:EPH001:  0.1209  0.5896    0.1099  0.6426    0.9099  0.6377    1.4043  0.6944

:CHA  : TOTAL VALENCE CHARGE INSIDE UNIT CELL =      13.000000

:SUM  : SUM OF EIGENVALUES =          -4.148526754


        1.ATOM      Pr                   14 CORE STATES
:1S 001: 1S               -3066.824297278 Ry
:2S 001: 2S                -492.590017676 Ry
:2PP001: 2P*               -465.687641668 Ry
:2P 001: 2P                -430.290842467 Ry
:3S 001: 3S                -105.687799608 Ry
:3PP001: 3P*                -94.225199387 Ry
:3P 001: 3P                 -87.217834760 Ry
:3DD001: 3D*                -67.144141751 Ry
:3D 001: 3D                 -65.632722887 Ry
:4S 001: 4S                 -20.374533857 Ry
:4PP001: 4P*                -16.081673741 Ry
:4P 001: 4P                 -14.554868200 Ry
:4DD001: 4D*                 -7.489118548 Ry
:4D 001: 4D                  -7.219947999 Ry
:CINT001 Core Integral Atom   1   45.999505

       DENSITY AT NUCLEUS
        JATOM        VALENCE       SEMI-CORE          CORE           TOTAL
:RTO001:   1      653.442844        0.000000   656820.523038   657473.965882
     
       CHARGES OF NEW CHARGE DENSITY
:NTO   : INTERSTITIAL CHARGE =     3.280378
:NPC   : PW Pseudocharge     =     7.922184
:NTO001: CHARGE SPHERE  1    =    55.719126

:NEC01: NUCLEAR AND ELECTRONIC CHARGE     59.00000    58.99950
     
       CHARGES OF OLD CHARGE DENSITY
:OTO   : INTERSTITIAL CHARGE =     2.802178
:OPC   : PW Pseudocharge     =     7.038171
:OTO001: CHARGE SPHERE  1    =    56.198499

:NEC02: NUCLEAR AND ELECTRONIC CHARGE     59.00000    59.00068
     
       CONVERGENCE TEST
:DTO001: DIFFERENCE IN SPHERE  1 =  0.8513158

:DIS  :  CHARGE DISTANCE       ( 0.8513158 for atom    1 spin 1)      0.8513158
 PW Mixed is           49
 
******************************************************
* MULTISECANT MIXING VER9 RELEASE 10.4.0              *
* Standard Mode with controls                        *
* Fixed density scale                                *
* Regularization       1.000E-04                     *
* Trust Upper Limit    5.000E+00                     *
* Max Number of Memory Steps    8                    *
******************************************************
 
:PWTMP   1.4426E+02  1.2500E+02  2.0971E+02
:PLANE:  PW TOTAL      2.8939 DISTAN   4.59E-01  1.59E+01 %
:CHARG:  CLM/ATOM    977.2585 DISTAN   9.36E-01  9.57E-02 %
 
Step History
        DMIX         DMIXT        Red     Pred      Trust     Lambda    MagRel    MagAbs     Beta
  1   3.5000E-02   3.5000E-02 -1.00E+00  1.00E+00 -1.00E+01  1.00E+00  3.50E-02  3.50E-02  1.00E+00
:INFO :  Note, Pratt in use
:TRUST:  Step 3.75E-02  Charge 7.50E-02 (e) CTO  2.50E-01 (e) PW  3.50E-01 (e)
:DIRM :  MEMORY  0/ 8 SCALE   1.000
Performing Pseudo Compensation
Final Pseudo Compensation Rescaling     1.00000E+00
:MIX  :   PRATT  REGULARIZATION:  1.00E-04 GREED: 0.02500                  
     
       CHARGES OF MIXED CHARGE DENSITY
:CTO   : INTERSTITIAL CHARGE =     2.813486
:CPC   : PW Pseudocharge     =     7.625772
:CTO001: CHARGE SPHERE  1    =    56.186514

:NEC03: NUCLEAR AND ELECTRONIC CHARGE     59.00000    59.00000

PW CHANGE     H    K    L      Current       Change    Residue
:PTO001:      0    0    0  4.97796621E-02  2.867E-03  6.515E-03
:PTO002:     -1   -1   -1 -1.41643431E-01 -1.546E-02 -1.811E-02
:PTO003:      0    0   -2  8.23550349E-02  1.017E-02  1.021E-02
:PTO004:      0   -2   -2  6.06671687E-02  1.202E-02  1.553E-02
:PTO005:     -1   -1   -3 -5.19690597E-02 -1.538E-02 -1.434E-02
:PTO006:     -2   -2   -2  1.25334394E-02  4.383E-03  3.894E-03
:PTO007:      0    0   -4  1.26523483E-03  1.612E-03  3.736E-04
:PTO008:     -1   -3   -3  4.01557709E-03 -3.403E-03 -3.011E-03
:PTO009:      0   -2   -4 -5.55622713E-03  2.583E-03  1.462E-03
:PTO010:     -2   -2   -4 -7.56596738E-03  3.010E-04 -1.293E-03
:PTO011:     -3   -3   -3  2.31308822E-03  2.316E-04  9.516E-04
:PTO012:     -1   -1   -5  6.93979724E-03  6.955E-04  2.876E-03

:ENE  : ********** TOTAL ENERGY IN Ry =       -18472.12988559

 Flat Integration
 New Mode for Coulomb Integral
 Consistent 3/8+Simpson combinations
 Extension of core to zero
 LDM version in phi
 Fifth-order quadrature in outwin


            ---------
:ITE002:  2. ITERATION
            ---------

:NATO :    1 INDEPENDENT AND    1 TOTAL ATOMS IN UNITCELL
       SUBSTANCE: blebleble                                                   

       LATTICE                      = F   
:POT  : POTENTIAL OPTION EX_LDA EC_LDA VX_LDA VC_LDA
:LAT  : LATTICE CONSTANTS=  9.43103  9.43103  9.43103    1.571    1.571    1.571
:VOL  : UNIT CELL VOLUME =     209.70929
       MODE OF CALCULATION IS       = RELA
       NON-SPINPOLARIZED CALCULATION
:IFFT  : FFT-parameters:   80   80   80 Factor: 2.00


   CONVERGENCE PARAMETER FOR PSEUDOCHARGE: NCON=  9
   MAXIMAL VALUE OF RMT(JATOM)*ABSK(NKK) : RK  =29.98011


:VKCOUL :  VK-COUL convergence: 0.625E-07
       ATOMNUMBER=  1 Pr         VCOUL-ZERO =  0.36017E+00
:FIT001: LUSE= 13 SIGMA OF V-XC FIT FOR ATOM  1  0.2379376E-05
:FIT001: LUSE= 13 SIGMA OF V-XC FIT FOR ATOM  1  0.2379376E-05
:DEN  : DENSITY INTEGRAL  =         -7080.34731272   (Ry)
       ELS_POTENTIAL_AT Z=0 and Z=0.5:  -2.57513  -2.57513
       ELS_POTENTIAL_AT Y=0 and Y=0.5:   0.00000   0.00000
:VZERO:v0,v0c,v0x  -3.59043  -2.57513  -1.01530 v5,v5c,v5x  -3.59043  -2.57513  -1.01530
:VZERY:v0,v0c,v0x  -0.75196   0.00000  -0.75196 v5,v5c,v5x  -0.75196   0.00000  -0.75196
:VZERX:v0,v0c,v0x  -0.75196   0.00000  -0.75196 v5,v5c,v5x  -0.75196   0.00000  -0.75196
:LMAX-WF:   10   Non-Spherical LMAX:   4

          ATOMIC SPHERE DEPENDENT PARAMETERS FOR ATOM  Pr        
:e__0001: OVERALL ENERGY PARAMETER IS    0.5000
          OVERALL BASIS SET ON ATOM IS LAPW
:E0_0001: E( 0)=    0.5000
             APW+lo
:E0_0001: E( 0)=   -1.9554   E(BOTTOM)=   -2.340   E(TOP)=   -1.571  4  5   180
             LOCAL ORBITAL
:E1_0001: E( 1)=    0.9000
             APW+lo
:E1_0001: E( 1)=   -0.5703   E(BOTTOM)=   -1.222   E(TOP)=    0.081  3  4   185
             LOCAL ORBITAL
:E3_0001: E( 3)=    0.7193   E(BOTTOM)=    0.575   E(TOP)=    0.863  0  1   119
             APW+lo
:E2_0001: E( 2)=    0.5000   E(BOTTOM)=    0.349   E(TOP)= -200.000  2 -1    85
             APW+lo

       K=   0.00000   0.00000   0.00000            1
:RKM  : MATRIX SIZE   157LOs:  20  RKM= 8.16  WEIGHT= 1.00  PGR:    
       EIGENVALUES ARE:
:EIG00001:      -1.9260738   -0.5377803   -0.5377803   -0.5377803    0.4385974
:EIG00006:       0.7016763    0.7299220    0.7299220    0.7299220    0.7636876
:EIG00011:       0.7636876    0.7636876    0.8271023    0.8271023    0.8271023
:EIG00016:       1.0345428    1.0345428    1.4451350    1.6989115    1.6989115
:EIG00021:       1.6989115    1.7960447
       ********************************************************

:KPT   :      NUMBER OF K-POINTS:   165
:GAP (global)   :    0.0    Ry =     0.0   eV (metal)
         Bandranges (emin - emax) and occupancy:
:BAN00001:   1   -1.926074   -1.901374  2.00000000
:BAN00002:   2   -0.665717   -0.537780  2.00000000
:BAN00003:   3   -0.621527   -0.537780  2.00000000
:BAN00004:   4   -0.585821   -0.537780  2.00000000
:BAN00005:   5    0.438597    0.665188  2.00000000
:BAN00006:   6    0.585670    0.717677  2.00000000
:BAN00007:   7    0.686999    0.736259  0.99958246
:BAN00008:   8    0.718978    0.738348  0.00042357
:BAN00009:   9    0.729922    0.744190  0.00000000
:BAN00010:  10    0.737409    0.763688  0.00000000
:BAN00011:  11    0.741674    0.763688  0.00000000
:BAN00012:  12    0.746066    0.765682  0.00000000
:BAN00013:  13    0.754348    0.836044  0.00000000
        Energy to separate low and high energystates:    0.38860


:NOE  : NUMBER OF ELECTRONS          =   13.000

:FER  : F E R M I - ENERGY(TETRAH.M.)=   0.7189891401
:GMA  : POTENTIAL AND CHARGE CUT-OFF  12.00 Ry**.5

:POS001: ATOM    1 X,Y,Z = 0.00000 0.00000 0.50000  MULT= 1  ZZ= 59.000  Pr        

       LMMAX  5
       LM=   0 0  4 0  4 4  6 0  6 4

:CHA001: TOTAL VALENCE CHARGE INSIDE SPHERE   1 =   9.8345    (RMT=  2.5000 )
:PCS001: PARTIAL CHARGES SPHERE =  1 S,P,D,F,      D-EG,D-T2G 
:QTL001: 2.0425 5.3525 0.8616 1.5771 0.0000 0.0000 0.0000 0.3039 0.5577 0.0000 0.0000 0.0000
        Q-s-low E-s-low   Q-p-low E-p-low   Q-d-low E-d-low   Q-f-low E-f-low
:EPL001:  1.9238 -1.9061    5.2528 -0.5916    0.0031 -0.6138    0.0009 -0.6151
        Q-s-hi  E-s-hi    Q-p-hi  E-p-hi    Q-d-hi  E-d-hi    Q-f-hi  E-f-hi 
:EPH001:  0.1188  0.5952    0.0997  0.6436    0.8585  0.6402    1.5762  0.6933

:CHA  : TOTAL VALENCE CHARGE INSIDE UNIT CELL =      13.000006

:SUM  : SUM OF EIGENVALUES =          -4.111631476


        1.ATOM      Pr                   14 CORE STATES
:1S 001: 1S               -3066.846176007 Ry
:2S 001: 2S                -492.611484483 Ry
:2PP001: 2P*               -465.709164322 Ry
:2P 001: 2P                -430.312340270 Ry
:3S 001: 3S                -105.708223438 Ry
:3PP001: 3P*                -94.245705789 Ry
:3P 001: 3P                 -87.238207652 Ry
:3DD001: 3D*                -67.164762397 Ry
:3D 001: 3D                 -65.653308647 Ry
:4S 001: 4S                 -20.388742176 Ry
:4PP001: 4P*                -16.095505823 Ry
:4P 001: 4P                 -14.568113869 Ry
:4DD001: 4D*                 -7.501317998 Ry
:4D 001: 4D                  -7.231946260 Ry
:CINT001 Core Integral Atom   1   45.999510

       DENSITY AT NUCLEUS
        JATOM        VALENCE       SEMI-CORE          CORE           TOTAL
:RTO001:   1      653.885539        0.000000   656821.883998   657475.769537
     
       CHARGES OF NEW CHARGE DENSITY
:NTO   : INTERSTITIAL CHARGE =     3.165526
:NPC   : PW Pseudocharge     =     7.871128
:NTO001: CHARGE SPHERE  1    =    55.833989

:NEC01: NUCLEAR AND ELECTRONIC CHARGE     59.00000    58.99952
     
       CHARGES OF OLD CHARGE DENSITY
:OTO   : INTERSTITIAL CHARGE =     2.813486
:OPC   : PW Pseudocharge     =     7.625772
:OTO001: CHARGE SPHERE  1    =    56.186514

:NEC02: NUCLEAR AND ELECTRONIC CHARGE     59.00000    59.00000
     
       CONVERGENCE TEST
:DTO001: DIFFERENCE IN SPHERE  1 =  0.6206733

:DIS  :  CHARGE DISTANCE       ( 0.6206733 for atom    1 spin 1)      0.6206733
 PW Mixed is           49
 
******************************************************
* MULTISECANT MIXING VER9 RELEASE 10.4.0              *
* Slow Mode, cautious                                *
* Fixed density scale                                *
* Regularization       1.000E-04                     *
* Step Trust Radius    0.75000                       *
* Trust Upper Limit    2.000E+00                     *
* Max Number of Memory Steps   12                    *
******************************************************
 
:PWTMP   1.4426E+02  1.2500E+02  2.0971E+02
:PLANE:  PW TOTAL      3.2114 DISTAN   1.31E-01  4.08E+00 %
:CHARG:  CLM/ATOM    977.2550 DISTAN   7.40E-01  7.57E-02 %
 
Step History
        DMIX         DMIXT        Red     Pred      Trust     Lambda    MagRel    MagAbs     Beta
  1   3.5000E-02   3.5000E-02 -1.00E+00  1.00E+00 -1.00E+01  1.00E+00  3.50E-02  3.50E-02  1.00E+00
  2   2.5000E-02   2.5000E-02 -1.00E+00  1.00E+00 -1.00E+01  1.00E+00  2.50E-02  2.61E-02  1.00E+00
:JACOBIANS    3.465E-01   1.332E-02
  
:TRUST:  Step 3.45E-02  Charge 7.50E-02 (e) CTO  2.50E-01 (e) PW  3.50E-01 (e)
:DIRM :  MEMORY  1/12 SCALE   1.000
:MIX  :   PRATT  REGULARIZATION:  1.00E-04 GREED: 0.03450  Expand 1.38  0.0345                
     
       CHARGES OF MIXED CHARGE DENSITY
:CTO   : INTERSTITIAL CHARGE =     2.823924
:CPC   : PW Pseudocharge     =     8.139032
:CTO001: CHARGE SPHERE  1    =    56.176076

:NEC03: NUCLEAR AND ELECTRONIC CHARGE     59.00000    59.00000

PW CHANGE     H    K    L      Current       Change    Residue
:PTO001:      0    0    0  5.22769188E-02  2.497E-03  2.857E-03
:PTO002:     -1   -1   -1 -1.55105566E-01 -1.346E-02 -2.645E-03
:PTO003:      0    0   -2  9.12130747E-02  8.858E-03  1.683E-04
:PTO004:      0   -2   -2  7.11380128E-02  1.047E-02  3.431E-03
:PTO005:     -1   -1   -3 -6.53654556E-02 -1.340E-02  8.691E-04
:PTO006:     -2   -2   -2  1.63511047E-02  3.818E-03 -4.553E-04
:PTO007:      0    0   -4  2.66923199E-03  1.404E-03 -1.177E-03
:PTO008:     -1   -3   -3  1.05200348E-03 -2.964E-03  3.423E-04
:PTO009:      0   -2   -4 -3.30671943E-03  2.250E-03 -1.032E-03
:PTO010:     -2   -2   -4 -7.30377689E-03  2.622E-04 -1.553E-03
:PTO011:     -3   -3   -3  2.51484039E-03  2.018E-04  7.177E-04
:PTO012:     -1   -1   -5  7.54551762E-03  6.057E-04  2.127E-03

:ENE  : ********** TOTAL ENERGY IN Ry =       -18472.11944646

 Flat Integration
 New Mode for Coulomb Integral
 Consistent 3/8+Simpson combinations
 Extension of core to zero
 LDM version in phi
 Fifth-order quadrature in outwin


            ---------
:ITE003:  3. ITERATION
            ---------

:NATO :    1 INDEPENDENT AND    1 TOTAL ATOMS IN UNITCELL
       SUBSTANCE: blebleble                                                   

       LATTICE                      = F   
:POT  : POTENTIAL OPTION EX_LDA EC_LDA VX_LDA VC_LDA
:LAT  : LATTICE CONSTANTS=  9.43103  9.43103  9.43103    1.571    1.571    1.571
:VOL  : UNIT CELL VOLUME =     209.70929
       MODE OF CALCULATION IS       = RELA
       NON-SPINPOLARIZED CALCULATION
:IFFT  : FFT-parameters:   80   80   80 Factor: 2.00


   CONVERGENCE PARAMETER FOR PSEUDOCHARGE: NCON=  9
   MAXIMAL VALUE OF RMT(JATOM)*ABSK(NKK) : RK  =29.98011


:VKCOUL :  VK-COUL convergence: 0.671E-07
       ATOMNUMBER=  1 Pr         VCOUL-ZERO =  0.36876E+00
:FIT001: LUSE= 13 SIGMA OF V-XC FIT FOR ATOM  1  0.2476863E-05
:FIT001: LUSE= 13 SIGMA OF V-XC FIT FOR ATOM  1  0.2476863E-05
:DEN  : DENSITY INTEGRAL  =         -7079.66429429   (Ry)
       ELS_POTENTIAL_AT Z=0 and Z=0.5:  -2.63330  -2.63330
       ELS_POTENTIAL_AT Y=0 and Y=0.5:   0.00000   0.00000
:VZERO:v0,v0c,v0x  -3.66856  -2.63330  -1.03526 v5,v5c,v5x  -3.66856  -2.63330  -1.03526
:VZERY:v0,v0c,v0x  -0.75718   0.00000  -0.75718 v5,v5c,v5x  -0.75718   0.00000  -0.75718
:VZERX:v0,v0c,v0x  -0.75718   0.00000  -0.75718 v5,v5c,v5x  -0.75718   0.00000  -0.75718
:LMAX-WF:   10   Non-Spherical LMAX:   4

          ATOMIC SPHERE DEPENDENT PARAMETERS FOR ATOM  Pr        
:e__0001: OVERALL ENERGY PARAMETER IS    0.5127
          OVERALL BASIS SET ON ATOM IS LAPW
:E0_0001: E( 0)=    0.5127
             APW+lo
:E0_0001: E( 0)=   -1.9551   E(BOTTOM)=   -2.338   E(TOP)=   -1.572  4  5   183
             LOCAL ORBITAL
:E1_0001: E( 1)=    0.9127
             APW+lo
:E1_0001: E( 1)=   -0.5687   E(BOTTOM)=   -1.218   E(TOP)=    0.081  3  4   184
             LOCAL ORBITAL
:E3_0001: E( 3)=    0.7133   E(BOTTOM)=    0.571   E(TOP)=    0.856  0  1   116
             APW+lo
:E2_0001: E( 2)=    0.5127   E(BOTTOM)=    0.354   E(TOP)= -200.000  2 -1    85
             APW+lo

       K=   0.00000   0.00000   0.00000            1
:RKM  : MATRIX SIZE   157LOs:  20  RKM= 8.16  WEIGHT= 1.00  PGR:    
       EIGENVALUES ARE:
:EIG00001:      -1.9254897   -0.5357590   -0.5357590   -0.5357590    0.4463259
:EIG00006:       0.6974263    0.7245327    0.7245327    0.7245327    0.7571850
:EIG00011:       0.7571850    0.7571850    0.8335118    0.8335118    0.8335118
:EIG00016:       1.0400832    1.0400832    1.4511422    1.7060485    1.7060485
:EIG00021:       1.7060485    1.8052834
       ********************************************************

:KPT   :      NUMBER OF K-POINTS:   165
:GAP (global)   :    0.0    Ry =     0.0   eV (metal)
         Bandranges (emin - emax) and occupancy:
:BAN00001:   1   -1.925490   -1.901039  2.00000000
:BAN00002:   2   -0.662561   -0.535759  2.00000000
:BAN00003:   3   -0.618747   -0.535759  2.00000000
:BAN00004:   4   -0.583361   -0.535759  2.00000000
:BAN00005:   5    0.446326    0.669067  2.00000000
:BAN00006:   6    0.592891    0.715448  1.99999990
:BAN00007:   7    0.687776    0.731740  0.99857739
:BAN00008:   8    0.715164    0.733027  0.00142271
:BAN00009:   9    0.724533    0.738795  0.00000000
:BAN00010:  10    0.732411    0.757185  0.00000000
:BAN00011:  11    0.736367    0.757185  0.00000000
:BAN00012:  12    0.740110    0.761091  0.00000000
:BAN00013:  13    0.748096    0.841517  0.00000000
        Energy to separate low and high energystates:    0.39633


:NOE  : NUMBER OF ELECTRONS          =   13.000

:FER  : F E R M I - ENERGY(TETRAH.M.)=   0.7153631264
:GMA  : POTENTIAL AND CHARGE CUT-OFF  12.00 Ry**.5

:POS001: ATOM    1 X,Y,Z = 0.00000 0.00000 0.50000  MULT= 1  ZZ= 59.000  Pr        

       LMMAX  5
       LM=   0 0  4 0  4 4  6 0  6 4

:CHA001: TOTAL VALENCE CHARGE INSIDE SPHERE   1 =   9.9421    (RMT=  2.5000 )
:PCS001: PARTIAL CHARGES SPHERE =  1 S,P,D,F,      D-EG,D-T2G 
:QTL001: 2.0409 5.3489 0.8134 1.7382 0.0000 0.0000 0.0000 0.2877 0.5257 0.0000 0.0000 0.0000
        Q-s-low E-s-low   Q-p-low E-p-low   Q-d-low E-d-low   Q-f-low E-f-low
:EPL001:  1.9243 -1.9057    5.2583 -0.5891    0.0031 -0.6113    0.0009 -0.6126
        Q-s-hi  E-s-hi    Q-p-hi  E-p-hi    Q-d-hi  E-d-hi    Q-f-hi  E-f-hi 
:EPH001:  0.1166  0.6000    0.0906  0.6441    0.8104  0.6423    1.7373  0.6919

:CHA  : TOTAL VALENCE CHARGE INSIDE UNIT CELL =      13.000000

:SUM  : SUM OF EIGENVALUES =          -4.080920603


        1.ATOM      Pr                   14 CORE STATES
:1S 001: 1S               -3066.865177273 Ry
:2S 001: 2S                -492.630126977 Ry
:2PP001: 2P*               -465.727855458 Ry
:2P 001: 2P                -430.331009762 Ry
:3S 001: 3S                -105.725957529 Ry
:3PP001: 3P*                -94.263511803 Ry
:3P 001: 3P                 -87.255897384 Ry
:3DD001: 3D*                -67.182667925 Ry
:3D 001: 3D                 -65.671183792 Ry
:4S 001: 4S                 -20.401063818 Ry
:4PP001: 4P*                -16.107500178 Ry
:4P 001: 4P                 -14.579597755 Ry
:4DD001: 4D*                 -7.511892626 Ry
:4D 001: 4D                  -7.242345839 Ry
:CINT001 Core Integral Atom   1   45.999515

       DENSITY AT NUCLEUS
        JATOM        VALENCE       SEMI-CORE          CORE           TOTAL
:RTO001:   1      654.198756        0.000000   656823.068977   657477.267733
     
       CHARGES OF NEW CHARGE DENSITY
:NTO   : INTERSTITIAL CHARGE =     3.057912
:NPC   : PW Pseudocharge     =     7.823562
:NTO001: CHARGE SPHERE  1    =    55.941603

:NEC01: NUCLEAR AND ELECTRONIC CHARGE     59.00000    58.99951
     
       CHARGES OF OLD CHARGE DENSITY
:OTO   : INTERSTITIAL CHARGE =     2.823924
:OPC   : PW Pseudocharge     =     8.139032
:OTO001: CHARGE SPHERE  1    =    56.176076

:NEC02: NUCLEAR AND ELECTRONIC CHARGE     59.00000    59.00000
     
       CONVERGENCE TEST
:DTO001: DIFFERENCE IN SPHERE  1 =  0.4077920

:DIS  :  CHARGE DISTANCE       ( 0.4077920 for atom    1 spin 1)      0.4077920
 PW Mixed is           49
 
******************************************************
* MULTISECANT MIXING VER9 RELEASE 10.4.0              *
* Slow Mode, cautious                                *
* Fixed density scale                                *
* Regularization       1.000E-04                     *
* Step Trust Radius    0.75000                       *
* Trust Upper Limit    2.000E+00                     *
* Max Number of Memory Steps   12                    *
******************************************************
 
:PWTMP   1.4426E+02  1.2500E+02  2.0971E+02
:PLANE:  PW TOTAL      3.4944 DISTAN   2.65E-01  7.58E+00 %
:CHARG:  CLM/ATOM    977.2520 DISTAN   5.78E-01  5.91E-02 %
 
Step History
        DMIX         DMIXT        Red     Pred      Trust     Lambda    MagRel    MagAbs     Beta
  1   3.5000E-02   3.5000E-02 -1.00E+00  1.00E+00 -1.00E+01  1.00E+00  3.50E-02  3.50E-02  1.00E+00
  2   2.5000E-02   2.5000E-02  7.21E-01  1.00E+00 -1.00E+01  1.00E+00  2.50E-02  2.61E-02  1.00E+00
  3   3.4497E-02   3.4497E-02 -1.00E+00  1.00E+00 -1.00E+01  1.00E+00  3.45E-02  2.59E-02  1.00E+00
:JACOBIANS    5.603E-01   1.716E-02
  
:NORMS:  1/Froebius, Min, Max, Used   0.8118E+00  0.4403E+00  0.8806E+00  0.8118E+00
:INFO :  Number of Memory Steps    2 Skipping    0
:INFO :  SLambda=    0.0537679304  Max    0.0537679304
:PREDicted Charge, CTotal, PW Trust    6.450E-03   6.450E-03   1.929E-01
:PREDicted DMix, Beta, BLim   2.3608E-02  6.0613E-01  4.0923E-01

Eigenvalues, unscaled except for SY+YY
   #     SY Real        SY Imag          SS             YY         SY+YY Real      SY+YY Imag
   1   1.397449E+00   0.000000E+00   1.317901E+00   1.999803E+00   2.074939E+00   0.000000E+00
   2  -3.441691E-15   0.000000E+00   0.000000E+00   1.970798E-04   1.989368E-04   0.000000E+00
 
:INFO :  Singular value  2.075E+00 Weight  1.000E+00 Projection  1.234E-03
:INFO :  Singular value  1.989E-04 Weight  4.974E-01 Projection -1.977E+01
:RANK :  ACTIVE   1.50/2  =  74.87 % ; YY RANK   1.49/2  =  74.63 %
 
:DLIM :  Beta Active  8.000E-01
:BLIM :  VZERO Control Off
:TRUST:  Step 2.26E-01  Charge 7.50E-02 (e) CTO  2.50E-01 (e) PW  3.50E-01 (e)
:DIRM :  MEMORY  2/12 SCALE   1.000 RED  0.85 PRED  1.00 NEXT  0.71 BETA  0.80
:TRAVE:  Charge 3.81E-04 (e) CTO  3.81E-04 (e) PW  1.01E-01 (e)
:DIRP :  |MSR1|= 1.050E-01 |PRATT|= 2.647E-01 ANGLE=  18.0 DEGREES
:DIRQ :  |MSR1|= 6.528E-03 |PRATT|= 5.777E-01 ANGLE=  51.7 DEGREES
:DIRT :  |MSR1|= 1.052E-01 |PRATT|= 6.355E-01 ANGLE=  64.5 DEGREES
:MIX  :   MSD1   REGULARIZATION:  2.00E-04 GREED: 0.02793  Newton 1.00  0.1655                
     
       CHARGES OF MIXED CHARGE DENSITY
:CTO   : INTERSTITIAL CHARGE =     2.824305
:CPC   : PW Pseudocharge     =     7.968466
:CTO001: CHARGE SPHERE  1    =    56.175695

:NEC03: NUCLEAR AND ELECTRONIC CHARGE     59.00000    59.00000

PW CHANGE     H    K    L      Current       Change    Residue
:PTO001:      0    0    0  5.14653915E-02 -8.115E-04 -3.803E-04
:PTO002:     -1   -1   -1 -1.50594063E-01  4.512E-03  1.082E-02
:PTO003:      0    0   -2  8.82045743E-02 -3.009E-03 -8.568E-03
:PTO004:      0   -2   -2  6.76551870E-02 -3.483E-03 -7.119E-03
:PTO005:     -1   -1   -3 -6.07825766E-02  4.583E-03  1.411E-02
:PTO006:     -2   -2   -2  1.50446359E-02 -1.306E-03 -4.230E-03
:PTO007:      0    0   -4  2.16286640E-03 -5.064E-04 -2.520E-03
:PTO008:     -1   -3   -3  2.07525560E-03  1.023E-03  3.270E-03
:PTO009:      0   -2   -4 -4.10395391E-03 -7.972E-04 -3.210E-03
:PTO010:     -2   -2   -4 -7.43301156E-03 -1.292E-04 -1.774E-03
:PTO011:     -3   -3   -3  2.46337468E-03 -5.147E-05  5.092E-04
:PTO012:     -1   -1   -5  7.39173322E-03 -1.538E-04  1.464E-03

:ENE  : ********** TOTAL ENERGY IN Ry =       -18472.11304056

 Flat Integration
 New Mode for Coulomb Integral
 Consistent 3/8+Simpson combinations
 Extension of core to zero
 LDM version in phi
 Fifth-order quadrature in outwin


            ---------
:ITE004:  4. ITERATION
            ---------

:NATO :    1 INDEPENDENT AND    1 TOTAL ATOMS IN UNITCELL
       SUBSTANCE: blebleble                                                   

       LATTICE                      = F   
:POT  : POTENTIAL OPTION EX_LDA EC_LDA VX_LDA VC_LDA
:LAT  : LATTICE CONSTANTS=  9.43103  9.43103  9.43103    1.571    1.571    1.571
:VOL  : UNIT CELL VOLUME =     209.70929
       MODE OF CALCULATION IS       = RELA
       NON-SPINPOLARIZED CALCULATION
:IFFT  : FFT-parameters:   80   80   80 Factor: 2.00


   CONVERGENCE PARAMETER FOR PSEUDOCHARGE: NCON=  9
   MAXIMAL VALUE OF RMT(JATOM)*ABSK(NKK) : RK  =29.98011


:VKCOUL :  VK-COUL convergence: 0.670E-07
       ATOMNUMBER=  1 Pr         VCOUL-ZERO =  0.36607E+00
:FIT001: LUSE= 13 SIGMA OF V-XC FIT FOR ATOM  1  0.2623989E-05
:FIT001: LUSE= 13 SIGMA OF V-XC FIT FOR ATOM  1  0.2623989E-05
:DEN  : DENSITY INTEGRAL  =         -7079.47072316   (Ry)
       ELS_POTENTIAL_AT Z=0 and Z=0.5:  -2.61645  -2.61645
       ELS_POTENTIAL_AT Y=0 and Y=0.5:   0.00000   0.00000
:VZERO:v0,v0c,v0x  -3.64490  -2.61645  -1.02845 v5,v5c,v5x  -3.64490  -2.61645  -1.02845
:VZERY:v0,v0c,v0x  -0.75567   0.00000  -0.75567 v5,v5c,v5x  -0.75567   0.00000  -0.75567
:VZERX:v0,v0c,v0x  -0.75567   0.00000  -0.75567 v5,v5c,v5x  -0.75567   0.00000  -0.75567
:LMAX-WF:   10   Non-Spherical LMAX:   4

          ATOMIC SPHERE DEPENDENT PARAMETERS FOR ATOM  Pr        
:e__0001: OVERALL ENERGY PARAMETER IS    0.5145
          OVERALL BASIS SET ON ATOM IS LAPW
:E0_0001: E( 0)=    0.5145
             APW+lo
:E0_0001: E( 0)=   -1.9582   E(BOTTOM)=   -2.341   E(TOP)=   -1.575  4  5   184
             LOCAL ORBITAL
:E1_0001: E( 1)=    0.9145
             APW+lo
:E1_0001: E( 1)=   -0.5718   E(BOTTOM)=   -1.221   E(TOP)=    0.078  3  4   185
             LOCAL ORBITAL
:E3_0001: E( 3)=    0.7101   E(BOTTOM)=    0.568   E(TOP)=    0.852  0  1   121
             APW+lo
:E2_0001: E( 2)=    0.5145   E(BOTTOM)=    0.351   E(TOP)= -200.000  2 -1    85
             APW+lo

       K=   0.00000   0.00000   0.00000            1
:RKM  : MATRIX SIZE   157LOs:  20  RKM= 8.16  WEIGHT= 1.00  PGR:    
       EIGENVALUES ARE:
:EIG00001:      -1.9285978   -0.5388066   -0.5388066   -0.5388066    0.4435872
:EIG00006:       0.6943050    0.7213089    0.7213089    0.7213089    0.7539512
:EIG00011:       0.7539512    0.7539512    0.8307124    0.8307124    0.8307124
:EIG00016:       1.0372012    1.0372012    1.4483963    1.7032906    1.7032906
:EIG00021:       1.7032906    1.8025459
       ********************************************************

:KPT   :      NUMBER OF K-POINTS:   165
:GAP (global)   :    0.0    Ry =     0.0   eV (metal)
         Bandranges (emin - emax) and occupancy:
:BAN00001:   1   -1.928598   -1.904160  2.00000000
:BAN00002:   2   -0.665550   -0.538807  2.00000000
:BAN00003:   3   -0.621755   -0.538807  2.00000000
:BAN00004:   4   -0.586385   -0.538807  2.00000000
:BAN00005:   5    0.443587    0.666147  2.00000000
:BAN00006:   6    0.590136    0.712301  1.99999989
:BAN00007:   7    0.684764    0.728546  0.99855875
:BAN00008:   8    0.712014    0.729815  0.00144136
:BAN00009:   9    0.721309    0.735628  0.00000000
:BAN00010:  10    0.729214    0.753951  0.00000000
:BAN00011:  11    0.733170    0.753951  0.00000000
:BAN00012:  12    0.736873    0.757913  0.00000000
:BAN00013:  13    0.744914    0.838673  0.00000000
        Energy to separate low and high energystates:    0.39359


:NOE  : NUMBER OF ELECTRONS          =   13.000

:FER  : F E R M I - ENERGY(TETRAH.M.)=   0.7122141461
:GMA  : POTENTIAL AND CHARGE CUT-OFF  12.00 Ry**.5

:POS001: ATOM    1 X,Y,Z = 0.00000 0.00000 0.50000  MULT= 1  ZZ= 59.000  Pr        

       LMMAX  5
       LM=   0 0  4 0  4 4  6 0  6 4

:CHA001: TOTAL VALENCE CHARGE INSIDE SPHERE   1 =   9.9459    (RMT=  2.5000 )
:PCS001: PARTIAL CHARGES SPHERE =  1 S,P,D,F,      D-EG,D-T2G 
:QTL001: 2.0408 5.3488 0.8119 1.7438 0.0000 0.0000 0.0000 0.2872 0.5246 0.0000 0.0000 0.0000
        Q-s-low E-s-low   Q-p-low E-p-low   Q-d-low E-d-low   Q-f-low E-f-low
:EPL001:  1.9243 -1.9088    5.2585 -0.5921    0.0031 -0.6143    0.0009 -0.6156
        Q-s-hi  E-s-hi    Q-p-hi  E-p-hi    Q-d-hi  E-d-hi    Q-f-hi  E-f-hi 
:EPH001:  0.1165  0.5972    0.0903  0.6411    0.8088  0.6393    1.7428  0.6888

:CHA  : TOTAL VALENCE CHARGE INSIDE UNIT CELL =      13.000000

:SUM  : SUM OF EIGENVALUES =          -4.119909165


        1.ATOM      Pr                   14 CORE STATES
:1S 001: 1S               -3066.868946488 Ry
:2S 001: 2S                -492.633600523 Ry
:2PP001: 2P*               -465.731367127 Ry
:2P 001: 2P                -430.334504717 Ry
:3S 001: 3S                -105.729257012 Ry
:3PP001: 3P*                -94.266820238 Ry
:3P 001: 3P                 -87.259198455 Ry
:3DD001: 3D*                -67.185980440 Ry
:3D 001: 3D                 -65.674493672 Ry
:4S 001: 4S                 -20.404355338 Ry
:4PP001: 4P*                -16.110795476 Ry
:4P 001: 4P                 -14.582898044 Ry
:4DD001: 4D*                 -7.515193090 Ry
:4D 001: 4D                  -7.245646996 Ry
:CINT001 Core Integral Atom   1   45.999516

       DENSITY AT NUCLEUS
        JATOM        VALENCE       SEMI-CORE          CORE           TOTAL
:RTO001:   1      654.211621        0.000000   656823.122267   657477.333888
     
       CHARGES OF NEW CHARGE DENSITY
:NTO   : INTERSTITIAL CHARGE =     3.054057
:NPC   : PW Pseudocharge     =     7.822081
:NTO001: CHARGE SPHERE  1    =    55.945458

:NEC01: NUCLEAR AND ELECTRONIC CHARGE     59.00000    58.99951
     
       CHARGES OF OLD CHARGE DENSITY
:OTO   : INTERSTITIAL CHARGE =     2.824305
:OPC   : PW Pseudocharge     =     7.968466
:OTO001: CHARGE SPHERE  1    =    56.175695

:NEC02: NUCLEAR AND ELECTRONIC CHARGE     59.00000    59.00000
     
       CONVERGENCE TEST
:DTO001: DIFFERENCE IN SPHERE  1 =  0.4009561

:DIS  :  CHARGE DISTANCE       ( 0.4009561 for atom    1 spin 1)      0.4009561
 PW Mixed is           49
 
******************************************************
* MULTISECANT MIXING VER9 RELEASE 10.4.0              *
* Slow Mode, cautious                                *
* Fixed density scale                                *
* Regularization       1.000E-04                     *
* Step Trust Radius    0.75000                       *
* Trust Upper Limit    2.000E+00                     *
* Max Number of Memory Steps   12                    *
******************************************************
 
:PWTMP   1.4426E+02  1.2500E+02  2.0971E+02
:PLANE:  PW TOTAL      3.3993 DISTAN   1.68E-01  4.93E+00 %
:CHARG:  CLM/ATOM    977.2506 DISTAN   5.69E-01  5.83E-02 %
 
Step History
        DMIX         DMIXT        Red     Pred      Trust     Lambda    MagRel    MagAbs     Beta
  1   3.5000E-02   3.5000E-02 -1.00E+00  1.00E+00 -1.00E+01  1.00E+00  3.50E-02  3.50E-02  1.00E+00
  2   2.5000E-02   2.5000E-02  7.21E-01  1.00E+00 -1.00E+01  1.00E+00  2.50E-02  2.61E-02  1.00E+00
  3   3.4497E-02   3.4497E-02  8.46E-01  1.00E+00 -1.00E+01  5.38E-02  3.45E-02  2.59E-02  1.00E+00
  4   2.7928E-02   2.7928E-02 -1.00E+00  7.13E-01  2.26E-01  1.00E+00  1.66E-01  1.05E-01  8.00E-01
:JACOBIANS    7.795E-01   5.704E-02
  
:NORMS:  1/Froebius, Min, Max, Used   0.8232E+00  0.3407E+00  0.9989E+00  0.8830E+00
:INFO :  Number of Memory Steps    3 Skipping    0
:INFO :  SLambda=    1.4814920278  Max    1.4814920278
:PREDicted Charge, CTotal, PW Trust    2.208E-02   2.208E-02   2.616E-01
:PREDicted DMix, Beta, BLim   1.9428E-01  2.7126E+00  3.7442E-01

Eigenvalues, unscaled except for SY+YY
   #     SY Real        SY Imag          SS             YY         SY+YY Real      SY+YY Imag
   1   2.088782E+00   0.000000E+00   2.022701E+00   2.594105E+00   5.636277E+00   0.000000E+00
   2  -7.601436E-15   0.000000E+00   1.028955E-02   4.058023E-01   8.535697E-05   0.000000E+00
   3   4.236545E-02   0.000000E+00   1.151591E-17   9.280002E-05   5.209154E-01   0.000000E+00
 
:INFO :  Singular value  5.637E+00 Weight  1.000E+00 Projection  3.824E-02
:INFO :  Singular value  5.209E-01 Weight  1.000E+00 Projection -7.664E-01
:INFO :  Singular value  8.536E-05 Weight  9.769E-02 Projection -1.909E+00
:RANK :  ACTIVE   2.10/3  =  69.92 % ; YY RANK   2.11/3  =  70.45 %
 
:BLIM :  VZERO Control Off
:TRUST:  Step 3.00E-01  Charge 7.50E-02 (e) CTO  2.50E-01 (e) PW  3.50E-01 (e)
:DTRUS:  Lambda    6.609E-02 Increment    3.638E-12 Iterations   103 DMIX    6.183E-02
:INFOA:  Angle SubSpace to MSR1      2.27
:DIRM :  MEMORY  3/12 SCALE   1.000 RED  0.93 PRED  0.71 NEXT  0.65 
:INFO :  Limited by Atoms F by Step T

:TRAVE:  Charge 1.00E-02 (e) CTO  1.00E-02 (e) PW  1.17E-01 (e)
:DIRP :  |MSR1|= 1.567E-01 |PRATT|= 1.677E-01 ANGLE=  25.0 DEGREES
:DIRQ :  |MSR1|= 8.505E-02 |PRATT|= 5.694E-01 ANGLE=  27.6 DEGREES
:DIRT :  |MSR1|= 1.783E-01 |PRATT|= 5.936E-01 ANGLE=  50.9 DEGREES
:MIX  :   MSE1   REGULARIZATION:  2.59E-04 GREED: 0.06982  LMStep 0.89  0.3004 Step           
     
       CHARGES OF MIXED CHARGE DENSITY
:CTO   : INTERSTITIAL CHARGE =     2.844006
:CPC   : PW Pseudocharge     =     7.725218
:CTO001: CHARGE SPHERE  1    =    56.155994

:NEC03: NUCLEAR AND ELECTRONIC CHARGE     59.00000    59.00000

PW CHANGE     H    K    L      Current       Change    Residue
:PTO001:      0    0    0  5.03994083E-02 -1.066E-03  4.058E-04
:PTO002:     -1   -1   -1 -1.43984934E-01  6.609E-03  6.304E-03
:PTO003:      0    0   -2  8.35319785E-02 -4.673E-03 -5.549E-03
:PTO004:      0   -2   -2  6.27484074E-02 -4.907E-03 -3.635E-03
:PTO005:     -1   -1   -3 -5.34307786E-02  7.352E-03  9.515E-03
:PTO006:     -2   -2   -2  1.29337712E-02 -2.111E-03 -2.923E-03
:PTO007:      0    0   -4  1.17035628E-03 -9.925E-04 -2.010E-03
:PTO008:     -1   -3   -3  3.77214273E-03  1.697E-03  2.246E-03
:PTO009:      0   -2   -4 -5.55986059E-03 -1.456E-03 -2.409E-03
:PTO010:     -2   -2   -4 -7.91389738E-03 -4.809E-04 -1.644E-03
:PTO011:     -3   -3   -3  2.50651054E-03  4.314E-05  5.608E-04
:PTO012:     -1   -1   -5  7.51618908E-03  1.245E-04  1.614E-03

:ENE  : ********** TOTAL ENERGY IN Ry =       -18472.11285972

 Flat Integration
 New Mode for Coulomb Integral
 Consistent 3/8+Simpson combinations
 Extension of core to zero
 LDM version in phi
 Fifth-order quadrature in outwin


            ---------
:ITE005:  5. ITERATION
            ---------

:NATO :    1 INDEPENDENT AND    1 TOTAL ATOMS IN UNITCELL
       SUBSTANCE: blebleble                                                   

       LATTICE                      = F   
:POT  : POTENTIAL OPTION EX_LDA EC_LDA VX_LDA VC_LDA
:LAT  : LATTICE CONSTANTS=  9.43103  9.43103  9.43103    1.571    1.571    1.571
:VOL  : UNIT CELL VOLUME =     209.70929
       MODE OF CALCULATION IS       = RELA
       NON-SPINPOLARIZED CALCULATION
:IFFT  : FFT-parameters:   80   80   80 Factor: 2.00


   CONVERGENCE PARAMETER FOR PSEUDOCHARGE: NCON=  9
   MAXIMAL VALUE OF RMT(JATOM)*ABSK(NKK) : RK  =29.98011


:VKCOUL :  VK-COUL convergence: 0.784E-07
       ATOMNUMBER=  1 Pr         VCOUL-ZERO =  0.36302E+00
:FIT001: LUSE= 13 SIGMA OF V-XC FIT FOR ATOM  1  0.5785202E-05
:FIT001: LUSE= 13 SIGMA OF V-XC FIT FOR ATOM  1  0.5785202E-05
:DEN  : DENSITY INTEGRAL  =         -7077.14986211   (Ry)
       ELS_POTENTIAL_AT Z=0 and Z=0.5:  -2.60598  -2.60598
       ELS_POTENTIAL_AT Y=0 and Y=0.5:   0.00000   0.00000
:VZERO:v0,v0c,v0x  -3.62202  -2.60598  -1.01604 v5,v5c,v5x  -3.62202  -2.60598  -1.01604
:VZERY:v0,v0c,v0x  -0.75446   0.00000  -0.75446 v5,v5c,v5x  -0.75446   0.00000  -0.75446
:VZERX:v0,v0c,v0x  -0.75446   0.00000  -0.75446 v5,v5c,v5x  -0.75446   0.00000  -0.75446
:LMAX-WF:   10   Non-Spherical LMAX:   4

          ATOMIC SPHERE DEPENDENT PARAMETERS FOR ATOM  Pr        
:e__0001: OVERALL ENERGY PARAMETER IS    0.5130
          OVERALL BASIS SET ON ATOM IS LAPW
:E0_0001: E( 0)=    0.5130
             APW+lo
:E0_0001: E( 0)=   -1.9779   E(BOTTOM)=   -2.358   E(TOP)=   -1.597  4  5   182
             LOCAL ORBITAL
:E1_0001: E( 1)=    0.9130
             APW+lo
:E1_0001: E( 1)=   -0.5891   E(BOTTOM)=   -1.235   E(TOP)=    0.057  3  4   184
             LOCAL ORBITAL
:E3_0001: E( 3)=    0.6796   E(BOTTOM)=    0.540   E(TOP)=    0.819  0  1   117
             APW+lo
:E2_0001: E( 2)=    0.5130   E(BOTTOM)=    0.339   E(TOP)= -200.000  2 -1    84
             APW+lo

       K=   0.00000   0.00000   0.00000            1
:RKM  : MATRIX SIZE   157LOs:  20  RKM= 8.16  WEIGHT= 1.00  PGR:    
       EIGENVALUES ARE:
:EIG00001:      -1.9477494   -0.5551829   -0.5551829   -0.5551829    0.4388428
:EIG00006:       0.6671911    0.6917185    0.6917185    0.6917185    0.7225888
:EIG00011:       0.7225888    0.7225888    0.8233602    0.8233602    0.8233602
:EIG00016:       1.0277994    1.0277994    1.4411415    1.6975676    1.6975676
:EIG00021:       1.6975676    1.8001229
       ********************************************************

:KPT   :      NUMBER OF K-POINTS:   165
:GAP (global)   :    0.0    Ry =     0.0   eV (metal)
         Bandranges (emin - emax) and occupancy:
:BAN00001:   1   -1.947749   -1.923799  2.00000000
:BAN00002:   2   -0.679667   -0.555183  2.00000000
:BAN00003:   3   -0.636619   -0.555183  2.00000000
:BAN00004:   4   -0.601887   -0.555183  2.00000000
:BAN00005:   5    0.438843    0.650991  2.00000000
:BAN00006:   6    0.584415    0.684512  2.00000000
:BAN00007:   7    0.665315    0.699254  0.99928418
:BAN00008:   8    0.685320    0.700243  0.00071582
:BAN00009:   9    0.691718    0.706845  0.00000000
:BAN00010:  10    0.700441    0.722589  0.00000000
:BAN00011:  11    0.703638    0.722589  0.00000000
:BAN00012:  12    0.706343    0.735667  0.00000000
:BAN00013:  13    0.714345    0.829977  0.00000000
        Energy to separate low and high energystates:    0.38884


:NOE  : NUMBER OF ELECTRONS          =   13.000

:FER  : F E R M I - ENERGY(TETRAH.M.)=   0.6854339825
:GMA  : POTENTIAL AND CHARGE CUT-OFF  12.00 Ry**.5

:POS001: ATOM    1 X,Y,Z = 0.00000 0.00000 0.50000  MULT= 1  ZZ= 59.000  Pr        

       LMMAX  5
       LM=   0 0  4 0  4 4  6 0  6 4

:CHA001: TOTAL VALENCE CHARGE INSIDE SPHERE   1 =  10.1630    (RMT=  2.5000 )
:PCS001: PARTIAL CHARGES SPHERE =  1 S,P,D,F,      D-EG,D-T2G 
:QTL001: 2.0370 5.3427 0.7154 2.0673 0.0000 0.0000 0.0000 0.2560 0.4594 0.0000 0.0000 0.0000
        Q-s-low E-s-low   Q-p-low E-p-low   Q-d-low E-d-low   Q-f-low E-f-low
:EPL001:  1.9254 -1.9284    5.2694 -0.6076    0.0030 -0.6297    0.0009 -0.6310
        Q-s-hi  E-s-hi    Q-p-hi  E-p-hi    Q-d-hi  E-d-hi    Q-f-hi  E-f-hi 
:EPH001:  0.1117  0.5866    0.0733  0.6219    0.7124  0.6232    2.0664  0.6658

:CHA  : TOTAL VALENCE CHARGE INSIDE UNIT CELL =      13.000000

:SUM  : SUM OF EIGENVALUES =          -4.326284588


        1.ATOM      Pr                   14 CORE STATES
:1S 001: 1S               -3066.923541716 Ry
:2S 001: 2S                -492.685142441 Ry
:2PP001: 2P*               -465.783276749 Ry
:2P 001: 2P                -430.386248194 Ry
:3S 001: 3S                -105.778310733 Ry
:3PP001: 3P*                -94.316041445 Ry
:3P 001: 3P                 -87.308195450 Ry
:3DD001: 3D*                -67.235344612 Ry
:3D 001: 3D                 -65.723795782 Ry
:4S 001: 4S                 -20.445173345 Ry
:4PP001: 4P*                -16.151138012 Ry
:4P 001: 4P                 -14.622496668 Ry
:4DD001: 4D*                 -7.553381146 Ry
:4D 001: 4D                  -7.283570606 Ry
:CINT001 Core Integral Atom   1   45.999524

       DENSITY AT NUCLEUS
        JATOM        VALENCE       SEMI-CORE          CORE           TOTAL
:RTO001:   1      654.568220        0.000000   656825.356188   657479.924408
     
       CHARGES OF NEW CHARGE DENSITY
:NTO   : INTERSTITIAL CHARGE =     2.836956
:NPC   : PW Pseudocharge     =     7.727204
:NTO001: CHARGE SPHERE  1    =    56.162567

:NEC01: NUCLEAR AND ELECTRONIC CHARGE     59.00000    58.99952
     
       CHARGES OF OLD CHARGE DENSITY
:OTO   : INTERSTITIAL CHARGE =     2.844006
:OPC   : PW Pseudocharge     =     7.725218
:OTO001: CHARGE SPHERE  1    =    56.155994

:NEC02: NUCLEAR AND ELECTRONIC CHARGE     59.00000    59.00000
     
       CONVERGENCE TEST
:DTO001: DIFFERENCE IN SPHERE  1 =  0.0760328

:DIS  :  CHARGE DISTANCE       ( 0.0760328 for atom    1 spin 1)      0.0760328
 PW Mixed is           49
 
******************************************************
* MULTISECANT MIXING VER9 RELEASE 10.4.0              *
* Standard Mode with controls                        *
* Fixed density scale                                *
* Regularization       1.000E-04                     *
* Trust Upper Limit    5.000E+00                     *
* Max Number of Memory Steps    8                    *
******************************************************
 
:PWTMP   1.4426E+02  1.2500E+02  2.0971E+02
:PLANE:  PW TOTAL      3.2620 DISTAN   3.51E-02  1.08E+00 %
:CHARG:  CLM/ATOM    977.2332 DISTAN   3.53E-01  3.61E-02 %
 
Step History
        DMIX         DMIXT        Red     Pred      Trust     Lambda    MagRel    MagAbs     Beta
  1   3.5000E-02   3.5000E-02 -1.00E+00  1.00E+00 -1.00E+01  1.00E+00  3.50E-02  3.50E-02  1.00E+00
  2   2.5000E-02   2.5000E-02  7.21E-01  1.00E+00 -1.00E+01  1.00E+00  2.50E-02  2.61E-02  1.00E+00
  3   3.4497E-02   3.4497E-02  8.46E-01  1.00E+00 -1.00E+01  5.38E-02  3.45E-02  2.59E-02  1.00E+00
  4   2.7928E-02   2.7928E-02  9.34E-01  7.13E-01  2.26E-01  1.48E+00  1.66E-01  1.05E-01  8.00E-01
  5   6.9821E-02   6.1833E-02 -1.00E+00  6.50E-01  3.00E-01  1.00E+00  3.00E-01  1.78E-01  1.00E+00
:JACOBIANS    8.857E-01   8.904E-02
  
:NORMS:  1/Froebius, Min, Max, Used   0.4092E+00  0.4085E+00  0.9990E+00  0.4092E+00
:INFO :  Number of Memory Steps    4 Skipping    0
:INFO :  SLambda=    0.3306913187  Max    0.3306913187
:PREDicted Charge, CTotal, PW Trust    1.912E-02   1.912E-02   1.702E-01
:PREDicted DMix, Beta, BLim   3.5340E-02  1.1573E+00  3.7993E-01

Eigenvalues, unscaled except for SY+YY
   #     SY Real        SY Imag          SS             YY         SY+YY Real      SY+YY Imag
   1   5.788858E-01   0.000000E+00   5.787522E-01   3.468120E+00   3.578837E+00   0.000000E+00
   2   2.801295E-01   0.000000E+00   9.090839E-02   5.317781E-01   7.051326E-01   0.000000E+00
   3  -2.090554E-15   0.000000E+00   1.075989E-05   8.877170E-05   1.377338E-05   0.000000E+00
   4   5.050783E-05   0.000000E+00  -5.802853E-17   1.270237E-05   1.022927E-04   0.000000E+00
 
:INFO :  Singular value  3.579E+00 Weight  1.000E+00 Projection -1.308E-02
:INFO :  Singular value  7.051E-01 Weight  1.000E+00 Projection -5.077E-02
:INFO :  Singular value  1.026E-04 Weight  8.053E-02 Projection -2.964E+00
:INFO :  Singular value  1.373E-05 Weight  1.564E-03 Projection  2.787E-02
:RANK :  ACTIVE   2.08/4  =  52.05 % ; YY RANK   2.06/4  =  51.57 %
 
:BLIM :  VZERO Control Off
:TRUST:  Step 4.01E-01  Charge 7.50E-02 (e) CTO  2.50E-01 (e) PW  3.50E-01 (e)
:DIRM :  MEMORY  4/8  SCALE   1.000 RED  0.60 PRED  0.65 NEXT  0.92 
:TRAVE:  Charge 5.63E-03 (e) CTO  5.63E-03 (e) PW  7.60E-02 (e)
:DIRP :  |MSR1|= 3.566E-02 |PRATT|= 3.507E-02 ANGLE=  75.8 DEGREES
:DIRQ :  |MSR1|= 3.232E-02 |PRATT|= 3.525E-01 ANGLE=   4.4 DEGREES
:DIRT :  |MSR1|= 4.813E-02 |PRATT|= 3.543E-01 ANGLE=  46.8 DEGREES
:MIX  :   MSD1   REGULARIZATION:  3.47E-04 GREED: 0.04265  Newton 1.00  0.1358                
     
       CHARGES OF MIXED CHARGE DENSITY
:CTO   : INTERSTITIAL CHARGE =     2.842782
:CPC   : PW Pseudocharge     =     7.668372
:CTO001: CHARGE SPHERE  1    =    56.157218

:NEC03: NUCLEAR AND ELECTRONIC CHARGE     59.00000    59.00000

PW CHANGE     H    K    L      Current       Change    Residue
:PTO001:      0    0    0  5.01225013E-02 -2.769E-04 -1.569E-05
:PTO002:     -1   -1   -1 -1.42508811E-01  1.476E-03 -2.893E-04
:PTO003:      0    0   -2  8.24804841E-02 -1.051E-03 -5.585E-04
:PTO004:      0   -2   -2  6.16838424E-02 -1.065E-03  1.107E-03
:PTO005:     -1   -1   -3 -5.17447532E-02  1.686E-03  1.813E-03
:PTO006:     -2   -2   -2  1.24359752E-02 -4.978E-04 -7.304E-04
:PTO007:      0    0   -4  9.25110329E-04 -2.452E-04 -8.775E-04
:PTO008:     -1   -3   -3  4.16043262E-03  3.883E-04  5.299E-04
:PTO009:      0   -2   -4 -5.89954334E-03 -3.397E-04 -8.330E-04
:PTO010:     -2   -2   -4 -8.05255327E-03 -1.387E-04 -1.094E-03
:PTO011:     -3   -3   -3  2.53304204E-03  2.653E-05  5.035E-04
:PTO012:     -1   -1   -5  7.58344921E-03  6.726E-05  1.361E-03

:ENE  : ********** TOTAL ENERGY IN Ry =       -18472.10825819

 Flat Integration
 New Mode for Coulomb Integral
 Consistent 3/8+Simpson combinations
 Extension of core to zero
 LDM version in phi
 Fifth-order quadrature in outwin


            ---------
:ITE006:  6. ITERATION
            ---------

:NATO :    1 INDEPENDENT AND    1 TOTAL ATOMS IN UNITCELL
       SUBSTANCE: blebleble                                                   

       LATTICE                      = F   
:POT  : POTENTIAL OPTION EX_LDA EC_LDA VX_LDA VC_LDA
:LAT  : LATTICE CONSTANTS=  9.43103  9.43103  9.43103    1.571    1.571    1.571
:VOL  : UNIT CELL VOLUME =     209.70929
       MODE OF CALCULATION IS       = RELA
       NON-SPINPOLARIZED CALCULATION
:IFFT  : FFT-parameters:   80   80   80 Factor: 2.00


   CONVERGENCE PARAMETER FOR PSEUDOCHARGE: NCON=  9
   MAXIMAL VALUE OF RMT(JATOM)*ABSK(NKK) : RK  =29.98011


:VKCOUL :  VK-COUL convergence: 0.833E-07
       ATOMNUMBER=  1 Pr         VCOUL-ZERO =  0.36206E+00
:FIT001: LUSE= 13 SIGMA OF V-XC FIT FOR ATOM  1  0.7595198E-05
:FIT001: LUSE= 13 SIGMA OF V-XC FIT FOR ATOM  1  0.7595198E-05
:DEN  : DENSITY INTEGRAL  =         -7077.29375214   (Ry)
       ELS_POTENTIAL_AT Z=0 and Z=0.5:  -2.60093  -2.60093
       ELS_POTENTIAL_AT Y=0 and Y=0.5:   0.00000   0.00000
:VZERO:v0,v0c,v0x  -3.61376  -2.60093  -1.01283 v5,v5c,v5x  -3.61376  -2.60093  -1.01283
:VZERY:v0,v0c,v0x  -0.75386   0.00000  -0.75386 v5,v5c,v5x  -0.75386   0.00000  -0.75386
:VZERX:v0,v0c,v0x  -0.75386   0.00000  -0.75386 v5,v5c,v5x  -0.75386   0.00000  -0.75386
:LMAX-WF:   10   Non-Spherical LMAX:   4

          ATOMIC SPHERE DEPENDENT PARAMETERS FOR ATOM  Pr        
:e__0001: OVERALL ENERGY PARAMETER IS    0.4946
          OVERALL BASIS SET ON ATOM IS LAPW
:E0_0001: E( 0)=    0.4946
             APW+lo
:E0_0001: E( 0)=   -1.9781   E(BOTTOM)=   -2.359   E(TOP)=   -1.597  4  5   182
             LOCAL ORBITAL
:E1_0001: E( 1)=    0.8946
             APW+lo
:E1_0001: E( 1)=   -0.5895   E(BOTTOM)=   -1.236   E(TOP)=    0.057  3  4   181
             LOCAL ORBITAL
:E3_0001: E( 3)=    0.6806   E(BOTTOM)=    0.541   E(TOP)=    0.820  0  1   115
             APW+lo
:E2_0001: E( 2)=    0.4946   E(BOTTOM)=    0.339   E(TOP)= -200.000  2 -1    85
             APW+lo

       K=   0.00000   0.00000   0.00000            1
:RKM  : MATRIX SIZE   157LOs:  20  RKM= 8.16  WEIGHT= 1.00  PGR:    
       EIGENVALUES ARE:
:EIG00001:      -1.9479698   -0.5555685   -0.5555685   -0.5555685    0.4379806
:EIG00006:       0.6680471    0.6926337    0.6926337    0.6926337    0.7236601
:EIG00011:       0.7236601    0.7236601    0.8226648    0.8226648    0.8226648
:EIG00016:       1.0270953    1.0270953    1.4405973    1.6967691    1.6967691
:EIG00021:       1.6967691    1.7988576
       ********************************************************

:KPT   :      NUMBER OF K-POINTS:   165
:GAP (global)   :    0.0    Ry =     0.0   eV (metal)
         Bandranges (emin - emax) and occupancy:
:BAN00001:   1   -1.947970   -1.923997  2.00000000
:BAN00002:   2   -0.680149   -0.555568  2.00000000
:BAN00003:   3   -0.637067   -0.555568  2.00000000
:BAN00004:   4   -0.602309   -0.555568  2.00000000
:BAN00005:   5    0.437981    0.650930  2.00000000
:BAN00006:   6    0.583639    0.685363  2.00000000
:BAN00007:   7    0.665549    0.700190  0.99920618
:BAN00008:   8    0.686054    0.701168  0.00079382
:BAN00009:   9    0.692634    0.707793  0.00000000
:BAN00010:  10    0.701251    0.723660  0.00000000
:BAN00011:  11    0.704600    0.723660  0.00000000
:BAN00012:  12    0.707335    0.735812  0.00000000
:BAN00013:  13    0.715464    0.829300  0.00000000
        Energy to separate low and high energystates:    0.38798


:NOE  : NUMBER OF ELECTRONS          =   13.000

:FER  : F E R M I - ENERGY(TETRAH.M.)=   0.6861842269
:GMA  : POTENTIAL AND CHARGE CUT-OFF  12.00 Ry**.5

:POS001: ATOM    1 X,Y,Z = 0.00000 0.00000 0.50000  MULT= 1  ZZ= 59.000  Pr        

       LMMAX  5
       LM=   0 0  4 0  4 4  6 0  6 4

:CHA001: TOTAL VALENCE CHARGE INSIDE SPHERE   1 =  10.1467    (RMT=  2.5000 )
:PCS001: PARTIAL CHARGES SPHERE =  1 S,P,D,F,      D-EG,D-T2G 
:QTL001: 2.0373 5.3434 0.7231 2.0422 0.0000 0.0000 0.0000 0.2585 0.4646 0.0000 0.0000 0.0000
        Q-s-low E-s-low   Q-p-low E-p-low   Q-d-low E-d-low   Q-f-low E-f-low
:EPL001:  1.9253 -1.9286    5.2689 -0.6080    0.0030 -0.6301    0.0009 -0.6314
        Q-s-hi  E-s-hi    Q-p-hi  E-p-hi    Q-d-hi  E-d-hi    Q-f-hi  E-f-hi 
:EPH001:  0.1120  0.5862    0.0745  0.6221    0.7201  0.6232    2.0414  0.6663

:CHA  : TOTAL VALENCE CHARGE INSIDE UNIT CELL =      13.000000

:SUM  : SUM OF EIGENVALUES =          -4.329699008


        1.ATOM      Pr                   14 CORE STATES
:1S 001: 1S               -3066.920074391 Ry
:2S 001: 2S                -492.680994354 Ry
:2PP001: 2P*               -465.779180257 Ry
:2P 001: 2P                -430.382123823 Ry
:3S 001: 3S                -105.774399297 Ry
:3PP001: 3P*                -94.312112195 Ry
:3P 001: 3P                 -87.304297346 Ry
:3DD001: 3D*                -67.231346870 Ry
:3D 001: 3D                 -65.719807347 Ry
:4S 001: 4S                 -20.442833623 Ry
:4PP001: 4P*                -16.148887881 Ry
:4P 001: 4P                 -14.620391022 Ry
:4DD001: 4D*                 -7.551492794 Ry
:4D 001: 4D                  -7.281728093 Ry
:CINT001 Core Integral Atom   1   45.999523

       DENSITY AT NUCLEUS
        JATOM        VALENCE       SEMI-CORE          CORE           TOTAL
:RTO001:   1      654.580230        0.000000   656825.140604   657479.720834
     
       CHARGES OF NEW CHARGE DENSITY
:NTO   : INTERSTITIAL CHARGE =     2.853324
:NPC   : PW Pseudocharge     =     7.735139
:NTO001: CHARGE SPHERE  1    =    56.146199

:NEC01: NUCLEAR AND ELECTRONIC CHARGE     59.00000    58.99952
     
       CHARGES OF OLD CHARGE DENSITY
:OTO   : INTERSTITIAL CHARGE =     2.842782
:OPC   : PW Pseudocharge     =     7.668372
:OTO001: CHARGE SPHERE  1    =    56.157218

:NEC02: NUCLEAR AND ELECTRONIC CHARGE     59.00000    59.00000
     
       CONVERGENCE TEST
:DTO001: DIFFERENCE IN SPHERE  1 =  0.0601926

:DIS  :  CHARGE DISTANCE       ( 0.0601926 for atom    1 spin 1)      0.0601926
 PW Mixed is           49
 
******************************************************
* MULTISECANT MIXING VER9 RELEASE 10.4.0              *
* Standard Mode with controls                        *
* Fixed density scale                                *
* Regularization       1.000E-04                     *
* Trust Upper Limit    5.000E+00                     *
* Max Number of Memory Steps    8                    *
******************************************************
 
:PWTMP   1.4426E+02  1.2500E+02  2.0971E+02
:PLANE:  PW TOTAL      3.2306 DISTAN   4.51E-02  1.40E+00 %
:CHARG:  CLM/ATOM    977.2297 DISTAN   3.17E-01  3.25E-02 %
 
Step History
        DMIX         DMIXT        Red     Pred      Trust     Lambda    MagRel    MagAbs     Beta
  1   3.5000E-02   3.5000E-02 -1.00E+00  1.00E+00 -1.00E+01  1.00E+00  3.50E-02  3.50E-02  1.00E+00
  2   2.5000E-02   2.5000E-02  7.21E-01  1.00E+00 -1.00E+01  1.00E+00  2.50E-02  2.61E-02  1.00E+00
  3   3.4497E-02   3.4497E-02  8.46E-01  1.00E+00 -1.00E+01  5.38E-02  3.45E-02  2.59E-02  1.00E+00
  4   2.7928E-02   2.7928E-02  9.34E-01  7.13E-01  2.26E-01  1.48E+00  1.66E-01  1.05E-01  8.00E-01
  5   6.9821E-02   6.1833E-02  5.97E-01  6.50E-01  3.00E-01  3.31E-01  3.00E-01  1.78E-01  1.00E+00
  6   4.2647E-02   4.2647E-02 -1.00E+00  9.17E-01  4.01E-01  1.00E+00  1.36E-01  4.81E-02  1.00E+00
:JACOBIANS    9.503E-01   5.875E-01
  
:NORMS:  1/Froebius, Min, Max, Used   0.5460E+00  0.4248E+00  0.1000E+01  0.6009E+00
:INFO :  Number of Memory Steps    5 Skipping    0
:INFO :  SLambda=    0.9736444081  Max    0.9736444081
:PREDicted Charge, CTotal, PW Trust    4.254E-03   4.254E-03   1.394E-02
:PREDicted DMix, Beta, BLim   9.9342E-01  5.1876E+00  1.0144E+00

Eigenvalues, unscaled except for SY+YY
   #     SY Real        SY Imag          SS             YY         SY+YY Real      SY+YY Imag
   1   1.279426E+00   0.000000E+00   1.293464E+00   3.582381E+00   3.892459E+00   0.000000E+00
   2   2.990180E-01   0.000000E+00   1.756539E-01   1.281975E+00   2.500414E+00   0.000000E+00
   3   1.307411E-01   0.000000E+00   2.123150E-02   1.356210E-01   2.712408E-01   0.000000E+00
   4  -2.690017E-14   0.000000E+00   6.674584E-09   2.082197E-05   2.213299E-05   0.000000E+00
   5   2.724157E-08   0.000000E+00   4.415896E-17   1.939776E-06   1.941519E-06   0.000000E+00
 
:INFO :  Singular value  3.898E+00 Weight  1.000E+00 Projection -4.041E-02
:INFO :  Singular value  2.497E+00 Weight  1.000E+00 Projection -1.015E-01
:INFO :  Singular value  2.712E-01 Weight  1.000E+00 Projection  7.963E-01
:INFO :  Singular value  2.214E-05 Weight  3.805E-03 Projection -2.792E-02
:INFO :  Singular value  1.941E-06 Weight  2.935E-05 Projection -1.830E-04
:RANK :  ACTIVE   3.00/5  =  60.08 % ; YY RANK   3.00/5  =  60.07 %
 
:BLIM :  VZERO Control Off
:TRUST:  Step 6.73E-01  Charge 6.00E-02 (e) CTO  2.00E-01 (e) PW  3.50E-01 (e)
:DTRUS:  Lambda    1.506E-01 Increment    7.276E-12 Iterations   100 DMIX    9.400E-02
:INFOA:  Angle SubSpace to MSR1      0.62
:DIRM :  MEMORY  5/8  SCALE   1.000 RED  0.91 PRED  0.92 NEXT  0.36 
:INFO :  Limited by Atoms F by Step T

:TRAVE:  Charge 3.93E-03 (e) CTO  3.93E-03 (e) PW  5.17E-02 (e)
:DIRP :  |MSR1|= 3.053E-02 |PRATT|= 4.508E-02 ANGLE=   3.7 DEGREES
:DIRQ :  |MSR1|= 2.137E-01 |PRATT|= 3.174E-01 ANGLE=   4.9 DEGREES
:DIRT :  |MSR1|= 2.158E-01 |PRATT|= 3.206E-01 ANGLE=   4.9 DEGREES
:MIX  :   MSD1   REGULARIZATION:  3.58E-04 GREED: 0.10662  LMStep 0.66  0.6732 Step           
     
       CHARGES OF MIXED CHARGE DENSITY
:CTO   : INTERSTITIAL CHARGE =     2.845004
:CPC   : PW Pseudocharge     =     7.712201
:CTO001: CHARGE SPHERE  1    =    56.154996

:NEC03: NUCLEAR AND ELECTRONIC CHARGE     59.00000    59.00000

PW CHANGE     H    K    L      Current       Change    Residue
:PTO001:      0    0    0  5.03420984E-02  2.196E-04  3.771E-04
:PTO002:     -1   -1   -1 -1.43727495E-01 -1.219E-03 -1.779E-03
:PTO003:      0    0   -2  8.27713370E-02  2.909E-04  4.892E-04
:PTO004:      0   -2   -2  6.31748706E-02  1.491E-03  2.197E-03
:PTO005:     -1   -1   -3 -5.15562452E-02  1.885E-04  1.398E-04
:PTO006:     -2   -2   -2  1.22656073E-02 -1.704E-04 -2.407E-04
:PTO007:      0    0   -4  4.64473145E-04 -4.606E-04 -6.393E-04
:PTO008:     -1   -3   -3  4.29982824E-03  1.394E-04  1.435E-04
:PTO009:      0   -2   -4 -6.29087671E-03 -3.913E-04 -4.972E-04
:PTO010:     -2   -2   -4 -8.73705857E-03 -6.845E-04 -9.613E-04
:PTO011:     -3   -3   -3  2.86594785E-03  3.329E-04  4.794E-04
:PTO012:     -1   -1   -5  8.49623528E-03  9.128E-04  1.299E-03

:ENE  : ********** TOTAL ENERGY IN Ry =       -18472.10823520

 Flat Integration
 New Mode for Coulomb Integral
 Consistent 3/8+Simpson combinations
 Extension of core to zero
 LDM version in phi
 Fifth-order quadrature in outwin


            ---------
:ITE007:  7. ITERATION
            ---------

:NATO :    1 INDEPENDENT AND    1 TOTAL ATOMS IN UNITCELL
       SUBSTANCE: blebleble                                                   

       LATTICE                      = F   
:POT  : POTENTIAL OPTION EX_LDA EC_LDA VX_LDA VC_LDA
:LAT  : LATTICE CONSTANTS=  9.43103  9.43103  9.43103    1.571    1.571    1.571
:VOL  : UNIT CELL VOLUME =     209.70929
       MODE OF CALCULATION IS       = RELA
       NON-SPINPOLARIZED CALCULATION
:IFFT  : FFT-parameters:   80   80   80 Factor: 2.00


   CONVERGENCE PARAMETER FOR PSEUDOCHARGE: NCON=  9
   MAXIMAL VALUE OF RMT(JATOM)*ABSK(NKK) : RK  =29.98011


:VKCOUL :  VK-COUL convergence: 0.166E-06
       ATOMNUMBER=  1 Pr         VCOUL-ZERO =  0.36279E+00
:FIT001: LUSE= 13 SIGMA OF V-XC FIT FOR ATOM  1  0.3305763E-04
:FIT001: LUSE= 13 SIGMA OF V-XC FIT FOR ATOM  1  0.3305763E-04
:DEN  : DENSITY INTEGRAL  =         -7077.36798623   (Ry)
       ELS_POTENTIAL_AT Z=0 and Z=0.5:  -2.61567  -2.61567
       ELS_POTENTIAL_AT Y=0 and Y=0.5:   0.00000   0.00000
:VZERO:v0,v0c,v0x  -3.62428  -2.61567  -1.00861 v5,v5c,v5x  -3.62428  -2.61567  -1.00861
:VZERY:v0,v0c,v0x  -0.75434   0.00000  -0.75434 v5,v5c,v5x  -0.75434   0.00000  -0.75434
:VZERX:v0,v0c,v0x  -0.75434   0.00000  -0.75434 v5,v5c,v5x  -0.75434   0.00000  -0.75434
:LMAX-WF:   10   Non-Spherical LMAX:   4

          ATOMIC SPHERE DEPENDENT PARAMETERS FOR ATOM  Pr        
:e__0001: OVERALL ENERGY PARAMETER IS    0.4890
          OVERALL BASIS SET ON ATOM IS LAPW
:E0_0001: E( 0)=    0.4890
             APW+lo
:E0_0001: E( 0)=   -1.9808   E(BOTTOM)=   -2.361   E(TOP)=   -1.601  4  5   184
             LOCAL ORBITAL
:E1_0001: E( 1)=    0.8890
             APW+lo
:E1_0001: E( 1)=   -0.5918   E(BOTTOM)=   -1.238   E(TOP)=    0.054  3  4   179
             LOCAL ORBITAL
:E3_0001: E( 3)=    0.6788   E(BOTTOM)=    0.539   E(TOP)=    0.818  0  1   113
             APW+lo
:E2_0001: E( 2)=    0.4890   E(BOTTOM)=    0.337   E(TOP)= -200.000  2 -1    86
             APW+lo

       K=   0.00000   0.00000   0.00000            1
:RKM  : MATRIX SIZE   157LOs:  20  RKM= 8.16  WEIGHT= 1.00  PGR:    
       EIGENVALUES ARE:
:EIG00001:      -1.9505619   -0.5577551   -0.5577551   -0.5577551    0.4385108
:EIG00006:       0.6669680    0.6909068    0.6909068    0.6909068    0.7218620
:EIG00011:       0.7218620    0.7218620    0.8228909    0.8228909    0.8228909
:EIG00016:       1.0263232    1.0263232    1.4416134    1.6971747    1.6971747
:EIG00021:       1.6971747    1.7983233
       ********************************************************

:KPT   :      NUMBER OF K-POINTS:   165
:GAP (global)   :    0.0    Ry =     0.0   eV (metal)
         Bandranges (emin - emax) and occupancy:
:BAN00001:   1   -1.950562   -1.926688  2.00000000
:BAN00002:   2   -0.681826   -0.557755  2.00000000
:BAN00003:   3   -0.638902   -0.557755  2.00000000
:BAN00004:   4   -0.604295   -0.557755  2.00000000
:BAN00005:   5    0.438511    0.649975  2.00000000
:BAN00006:   6    0.584181    0.683803  2.00000000
:BAN00007:   7    0.664660    0.698530  0.99923748
:BAN00008:   8    0.684604    0.699488  0.00076252
:BAN00009:   9    0.690907    0.706576  0.00000000
:BAN00010:  10    0.699643    0.721862  0.00000000
:BAN00011:  11    0.702865    0.721862  0.00000000
:BAN00012:  12    0.705567    0.734701  0.00000000
:BAN00013:  13    0.714189    0.829116  0.00000000
        Energy to separate low and high energystates:    0.38851


:NOE  : NUMBER OF ELECTRONS          =   13.000

:FER  : F E R M I - ENERGY(TETRAH.M.)=   0.6847302524
:GMA  : POTENTIAL AND CHARGE CUT-OFF  12.00 Ry**.5

:POS001: ATOM    1 X,Y,Z = 0.00000 0.00000 0.50000  MULT= 1  ZZ= 59.000  Pr        

       LMMAX  5
       LM=   0 0  4 0  4 4  6 0  6 4

:CHA001: TOTAL VALENCE CHARGE INSIDE SPHERE   1 =  10.1651    (RMT=  2.5000 )
:PCS001: PARTIAL CHARGES SPHERE =  1 S,P,D,F,      D-EG,D-T2G 
:QTL001: 2.0369 5.3443 0.7167 2.0666 0.0000 0.0000 0.0000 0.2571 0.4596 0.0000 0.0000 0.0000
        Q-s-low E-s-low   Q-p-low E-p-low   Q-d-low E-d-low   Q-f-low E-f-low
:EPL001:  1.9255 -1.9313    5.2712 -0.6099    0.0029 -0.6321    0.0009 -0.6333
        Q-s-hi  E-s-hi    Q-p-hi  E-p-hi    Q-d-hi  E-d-hi    Q-f-hi  E-f-hi 
:EPH001:  0.1114  0.5861    0.0731  0.6212    0.7138  0.6226    2.0657  0.6651

:CHA  : TOTAL VALENCE CHARGE INSIDE UNIT CELL =      13.000000

:SUM  : SUM OF EIGENVALUES =          -4.349542548


        1.ATOM      Pr                   14 CORE STATES
:1S 001: 1S               -3066.920743648 Ry
:2S 001: 2S                -492.676847955 Ry
:2PP001: 2P*               -465.775445164 Ry
:2P 001: 2P                -430.378177124 Ry
:3S 001: 3S                -105.770425823 Ry
:3PP001: 3P*                -94.308122401 Ry
:3P 001: 3P                 -87.300359789 Ry
:3DD001: 3D*                -67.227066347 Ry
:3D 001: 3D                 -65.715546110 Ry
:4S 001: 4S                 -20.442677295 Ry
:4PP001: 4P*                -16.148948439 Ry
:4P 001: 4P                 -14.620812115 Ry
:4DD001: 4D*                 -7.552326655 Ry
:4D 001: 4D                  -7.282664160 Ry
:CINT001 Core Integral Atom   1   45.999523

       DENSITY AT NUCLEUS
        JATOM        VALENCE       SEMI-CORE          CORE           TOTAL
:RTO001:   1      654.682049        0.000000   656825.127501   657479.809550
     
       CHARGES OF NEW CHARGE DENSITY
:NTO   : INTERSTITIAL CHARGE =     2.834867
:NPC   : PW Pseudocharge     =     7.730275
:NTO001: CHARGE SPHERE  1    =    56.164655

:NEC01: NUCLEAR AND ELECTRONIC CHARGE     59.00000    58.99952
     
       CHARGES OF OLD CHARGE DENSITY
:OTO   : INTERSTITIAL CHARGE =     2.845004
:OPC   : PW Pseudocharge     =     7.712201
:OTO001: CHARGE SPHERE  1    =    56.154996

:NEC02: NUCLEAR AND ELECTRONIC CHARGE     59.00000    59.00000
     
       CONVERGENCE TEST
:DTO001: DIFFERENCE IN SPHERE  1 =  0.0188522

:DIS  :  CHARGE DISTANCE       ( 0.0188522 for atom    1 spin 1)      0.0188522
 PW Mixed is           49
 
******************************************************
* MULTISECANT MIXING VER9 RELEASE 10.4.0              *
* Standard Mode with controls                        *
* Fixed density scale                                *
* Regularization       1.000E-04                     *
* Trust Upper Limit    5.000E+00                     *
* Max Number of Memory Steps    8                    *
******************************************************
 
:PWTMP   1.4426E+02  1.2500E+02  2.0971E+02
:PLANE:  PW TOTAL      3.2524 DISTAN   1.46E-02  4.50E-01 %
:CHARG:  CLM/ATOM    977.2038 DISTAN   1.04E-01  1.07E-02 %
 
Step History
        DMIX         DMIXT        Red     Pred      Trust     Lambda    MagRel    MagAbs     Beta
  1   3.5000E-02   3.5000E-02 -1.00E+00  1.00E+00 -1.00E+01  1.00E+00  3.50E-02  3.50E-02  1.00E+00
  2   2.5000E-02   2.5000E-02  7.21E-01  1.00E+00 -1.00E+01  1.00E+00  2.50E-02  2.61E-02  1.00E+00
  3   3.4497E-02   3.4497E-02  8.46E-01  1.00E+00 -1.00E+01  5.38E-02  3.45E-02  2.59E-02  1.00E+00
  4   2.7928E-02   2.7928E-02  9.34E-01  7.13E-01  2.26E-01  1.48E+00  1.66E-01  1.05E-01  8.00E-01
  5   6.9821E-02   6.1833E-02  5.97E-01  6.50E-01  3.00E-01  3.31E-01  3.00E-01  1.78E-01  1.00E+00
  6   4.2647E-02   4.2647E-02  9.05E-01  9.17E-01  4.01E-01  9.74E-01  1.36E-01  4.81E-02  1.00E+00
  7   1.0662E-01   9.4002E-02 -1.00E+00  3.62E-01  6.73E-01  1.00E+00  6.73E-01  2.16E-01  1.00E+00
:JACOBIANS    9.816E-01   8.167E-01
  
:NORMS:  1/Froebius, Min, Max, Used   0.7561E+00  0.4487E+00  0.1028E+01  0.8334E+00
:INFO :  Number of Memory Steps    6 Skipping    0
:INFO :  SLambda=    0.9293123700  Max    0.9293123700
:PREDicted Charge, CTotal, PW Trust    2.403E-03   2.403E-03   4.308E-02
:PREDicted DMix, Beta, BLim   3.3621E-03  1.4347E+00  9.8252E-01

Eigenvalues, unscaled except for SY+YY
   #     SY Real        SY Imag          SS             YY         SY+YY Real      SY+YY Imag
   1   2.926547E+00   0.000000E+00   2.957405E+00   4.258355E+00   6.734833E+00   0.000000E+00
   2   4.575782E-01   0.000000E+00   4.594372E-01   1.285552E+00   1.664062E+00   0.000000E+00
   3   1.454581E-01   0.000000E+00   1.366527E-02   4.560549E-01   8.811520E-01   0.000000E+00
   4   6.749986E-06   0.000000E+00   2.727282E-06   2.872930E-05   3.621213E-05   0.000000E+00
   5   9.462656E-09   0.000000E+00   3.934314E-09   8.869340E-06   8.926875E-06   0.000000E+00
   6  -2.927540E-14   0.000000E+00  -1.458045E-16   3.154279E-07   4.047882E-07   0.000000E+00
 
:INFO :  Singular value  6.738E+00 Weight  1.000E+00 Projection  4.402E-02
:INFO :  Singular value  1.663E+00 Weight  1.000E+00 Projection -5.842E-02
:INFO :  Singular value  8.811E-01 Weight  1.000E+00 Projection -3.621E-02
:INFO :  Singular value  3.669E-05 Weight  7.368E-03 Projection  3.495E-02
:INFO :  Singular value  8.818E-06 Weight  4.286E-04 Projection  1.235E-03
:INFO :  Singular value  4.045E-07 Weight  9.022E-07 Projection -2.013E-05
:RANK :  ACTIVE   3.01/6  =  50.13 % ; YY RANK   3.00/6  =  50.08 %
 
:BLIM :  VZERO Control Off
:TRUST:  Step 8.98E-01  Charge 6.00E-02 (e) CTO  2.00E-01 (e) PW  3.50E-01 (e)
:DTRUS:  Lambda    1.086E-02 Increment    9.095E-13 Iterations   102 DMIX    4.258E-02
:INFOA:  Angle SubSpace to MSR1      0.09
:DIRM :  MEMORY  6/8  SCALE   1.000 RED  0.33 PRED  0.36 NEXT  0.28 
:INFO :  Limited by Atoms F by Step T

:TRAVE:  Charge 2.11E-03 (e) CTO  2.11E-03 (e) PW  3.31E-02 (e)
:DIRP :  |MSR1|= 1.580E-02 |PRATT|= 1.464E-02 ANGLE=  12.5 DEGREES
:DIRQ :  |MSR1|= 9.322E-02 |PRATT|= 1.043E-01 ANGLE=  14.1 DEGREES
:DIRT :  |MSR1|= 9.455E-02 |PRATT|= 1.053E-01 ANGLE=  14.2 DEGREES
:MIX  :   MSD1   REGULARIZATION:  4.26E-04 GREED: 0.04265  LMStep 0.96  0.8976 Step           
     
       CHARGES OF MIXED CHARGE DENSITY
:CTO   : INTERSTITIAL CHARGE =     2.844702
:CPC   : PW Pseudocharge     =     7.736649
:CTO001: CHARGE SPHERE  1    =    56.155298

:NEC03: NUCLEAR AND ELECTRONIC CHARGE     59.00000    59.00000

PW CHANGE     H    K    L      Current       Change    Residue
:PTO001:      0    0    0  5.04572395E-02  1.151E-04  4.634E-05
:PTO002:     -1   -1   -1 -1.44410102E-01 -6.826E-04 -5.964E-04
:PTO003:      0    0   -2  8.30118176E-02  2.405E-04  3.285E-04
:PTO004:      0   -2   -2  6.39434449E-02  7.686E-04  7.509E-04
:PTO005:     -1   -1   -3 -5.16434140E-02 -8.717E-05 -1.377E-04
:PTO006:     -2   -2   -2  1.22352148E-02 -3.039E-05 -7.789E-05
:PTO007:      0    0   -4  2.85506987E-04 -1.790E-04 -1.512E-04
:PTO008:     -1   -3   -3  4.32223777E-03  2.241E-05  1.493E-05
:PTO009:      0   -2   -4 -6.42668095E-03 -1.358E-04 -7.877E-05
:PTO010:     -2   -2   -4 -9.02757654E-03 -2.905E-04 -2.790E-04
:PTO011:     -3   -3   -3  3.01237482E-03  1.464E-04  1.524E-04
:PTO012:     -1   -1   -5  8.89375436E-03  3.975E-04  3.578E-04

:ENE  : ********** TOTAL ENERGY IN Ry =       -18472.10817997

 Flat Integration
 New Mode for Coulomb Integral
 Consistent 3/8+Simpson combinations
 Extension of core to zero
 LDM version in phi
 Fifth-order quadrature in outwin


            ---------
:ITE008:  8. ITERATION
            ---------

:NATO :    1 INDEPENDENT AND    1 TOTAL ATOMS IN UNITCELL
       SUBSTANCE: blebleble                                                   

       LATTICE                      = F   
:POT  : POTENTIAL OPTION EX_LDA EC_LDA VX_LDA VC_LDA
:LAT  : LATTICE CONSTANTS=  9.43103  9.43103  9.43103    1.571    1.571    1.571
:VOL  : UNIT CELL VOLUME =     209.70929
       MODE OF CALCULATION IS       = RELA
       NON-SPINPOLARIZED CALCULATION
:IFFT  : FFT-parameters:   80   80   80 Factor: 2.00


   CONVERGENCE PARAMETER FOR PSEUDOCHARGE: NCON=  9
   MAXIMAL VALUE OF RMT(JATOM)*ABSK(NKK) : RK  =29.98011


:VKCOUL :  VK-COUL convergence: 0.205E-06
       ATOMNUMBER=  1 Pr         VCOUL-ZERO =  0.36313E+00
:FIT001: LUSE= 13 SIGMA OF V-XC FIT FOR ATOM  1  0.5041908E-04
:FIT001: LUSE= 13 SIGMA OF V-XC FIT FOR ATOM  1  0.5041908E-04
:DEN  : DENSITY INTEGRAL  =         -7077.51884944   (Ry)
       ELS_POTENTIAL_AT Z=0 and Z=0.5:  -2.62186  -2.62186
       ELS_POTENTIAL_AT Y=0 and Y=0.5:   0.00000   0.00000
:VZERO:v0,v0c,v0x  -3.62892  -2.62186  -1.00706 v5,v5c,v5x  -3.62892  -2.62186  -1.00706
:VZERY:v0,v0c,v0x  -0.75452   0.00000  -0.75452 v5,v5c,v5x  -0.75452   0.00000  -0.75452
:VZERX:v0,v0c,v0x  -0.75452   0.00000  -0.75452 v5,v5c,v5x  -0.75452   0.00000  -0.75452
:LMAX-WF:   10   Non-Spherical LMAX:   4

          ATOMIC SPHERE DEPENDENT PARAMETERS FOR ATOM  Pr        
:e__0001: OVERALL ENERGY PARAMETER IS    0.4862
          OVERALL BASIS SET ON ATOM IS LAPW
:E0_0001: E( 0)=    0.4862
             APW+lo
:E0_0001: E( 0)=   -1.9810   E(BOTTOM)=   -2.361   E(TOP)=   -1.601  4  5   183
             LOCAL ORBITAL
:E1_0001: E( 1)=    0.8862
             APW+lo
:E1_0001: E( 1)=   -0.5920   E(BOTTOM)=   -1.238   E(TOP)=    0.054  3  4   181
             LOCAL ORBITAL
:E3_0001: E( 3)=    0.6797   E(BOTTOM)=    0.540   E(TOP)=    0.819  0  1   116
             APW+lo
:E2_0001: E( 2)=    0.4862   E(BOTTOM)=    0.337   E(TOP)= -200.000  2 -1    84
             APW+lo

       K=   0.00000   0.00000   0.00000            1
:RKM  : MATRIX SIZE   157LOs:  20  RKM= 8.16  WEIGHT= 1.00  PGR:    
       EIGENVALUES ARE:
:EIG00001:      -1.9507303   -0.5579070   -0.5579070   -0.5579070    0.4388805
:EIG00006:       0.6679119    0.6917081    0.6917081    0.6917081    0.7227249
:EIG00011:       0.7227249    0.7227249    0.8232852    0.8232852    0.8232852
:EIG00016:       1.0263903    1.0263903    1.4423367    1.6975317    1.6975317
:EIG00021:       1.6975317    1.7980713
       ********************************************************

:KPT   :      NUMBER OF K-POINTS:   165
:GAP (global)   :    0.0    Ry =     0.0   eV (metal)
         Bandranges (emin - emax) and occupancy:
:BAN00001:   1   -1.950730   -1.926873  2.00000000
:BAN00002:   2   -0.681883   -0.557907  2.00000000
:BAN00003:   3   -0.638985   -0.557907  2.00000000
:BAN00004:   4   -0.604408   -0.557907  2.00000000
:BAN00005:   5    0.438880    0.650389  2.00000000
:BAN00006:   6    0.584621    0.684605  2.00000000
:BAN00007:   7    0.665290    0.699354  0.99919684
:BAN00008:   8    0.685369    0.700305  0.00080316
:BAN00009:   9    0.691708    0.707534  0.00000000
:BAN00010:  10    0.700415    0.722725  0.00000000
:BAN00011:  11    0.703690    0.722725  0.00000000
:BAN00012:  12    0.706401    0.735198  0.00000000
:BAN00013:  13    0.715236    0.829388  0.00000000
        Energy to separate low and high energystates:    0.38888


:NOE  : NUMBER OF ELECTRONS          =   13.000

:FER  : F E R M I - ENERGY(TETRAH.M.)=   0.6855042741
:GMA  : POTENTIAL AND CHARGE CUT-OFF  12.00 Ry**.5

:POS001: ATOM    1 X,Y,Z = 0.00000 0.00000 0.50000  MULT= 1  ZZ= 59.000  Pr        

       LMMAX  5
       LM=   0 0  4 0  4 4  6 0  6 4

:CHA001: TOTAL VALENCE CHARGE INSIDE SPHERE   1 =  10.1605    (RMT=  2.5000 )
:PCS001: PARTIAL CHARGES SPHERE =  1 S,P,D,F,      D-EG,D-T2G 
:QTL001: 2.0370 5.3450 0.7196 2.0584 0.0000 0.0000 0.0000 0.2583 0.4612 0.0000 0.0000 0.0000
        Q-s-low E-s-low   Q-p-low E-p-low   Q-d-low E-d-low   Q-f-low E-f-low
:EPL001:  1.9255 -1.9314    5.2716 -0.6101    0.0029 -0.6322    0.0009 -0.6334
        Q-s-hi  E-s-hi    Q-p-hi  E-p-hi    Q-d-hi  E-d-hi    Q-f-hi  E-f-hi 
:EPH001:  0.1115  0.5865    0.0734  0.6218    0.7166  0.6231    2.0575  0.6658

:CHA  : TOTAL VALENCE CHARGE INSIDE UNIT CELL =      13.000000

:SUM  : SUM OF EIGENVALUES =          -4.347925137


        1.ATOM      Pr                   14 CORE STATES
:1S 001: 1S               -3066.918431806 Ry
:2S 001: 2S                -492.672488555 Ry
:2PP001: 2P*               -465.771260927 Ry
:2P 001: 2P                -430.373902822 Ry
:3S 001: 3S                -105.766173045 Ry
:3PP001: 3P*                -94.303859299 Ry
:3P 001: 3P                 -87.296125510 Ry
:3DD001: 3D*                -67.222675230 Ry
:3D 001: 3D                 -65.711164784 Ry
:4S 001: 4S                 -20.440444276 Ry
:4PP001: 4P*                -16.146835900 Ry
:4P 001: 4P                 -14.618895572 Ry
:4DD001: 4D*                 -7.550666755 Ry
:4D 001: 4D                  -7.281062875 Ry
:CINT001 Core Integral Atom   1   45.999522

       DENSITY AT NUCLEUS
        JATOM        VALENCE       SEMI-CORE          CORE           TOTAL
:RTO001:   1      654.714278        0.000000   656825.035692   657479.749970
     
       CHARGES OF NEW CHARGE DENSITY
:NTO   : INTERSTITIAL CHARGE =     2.839464
:NPC   : PW Pseudocharge     =     7.733739
:NTO001: CHARGE SPHERE  1    =    56.160058

:NEC01: NUCLEAR AND ELECTRONIC CHARGE     59.00000    58.99952
     
       CHARGES OF OLD CHARGE DENSITY
:OTO   : INTERSTITIAL CHARGE =     2.844702
:OPC   : PW Pseudocharge     =     7.736649
:OTO001: CHARGE SPHERE  1    =    56.155298

:NEC02: NUCLEAR AND ELECTRONIC CHARGE     59.00000    59.00000
     
       CONVERGENCE TEST
:DTO001: DIFFERENCE IN SPHERE  1 =  0.0148740

:DIS  :  CHARGE DISTANCE       ( 0.0148740 for atom    1 spin 1)      0.0148740
 PW Mixed is           49
 
******************************************************
* MULTISECANT MIXING VER9 RELEASE 10.4.0              *
* Standard Mode with controls                        *
* Fixed density scale                                *
* Regularization       1.000E-04                     *
* Trust Upper Limit    5.000E+00                     *
* Max Number of Memory Steps    8                    *
******************************************************
 
:PWTMP   1.4426E+02  1.2500E+02  2.0971E+02
:PLANE:  PW TOTAL      3.2650 DISTAN   2.89E-03  8.87E-02 %
:CHARG:  CLM/ATOM    977.1929 DISTAN   2.86E-02  2.92E-03 %
 
Step History
        DMIX         DMIXT        Red     Pred      Trust     Lambda    MagRel    MagAbs     Beta
  1   3.5000E-02   3.5000E-02 -1.00E+00  1.00E+00 -1.00E+01  1.00E+00  3.50E-02  3.50E-02  1.00E+00
  2   2.5000E-02   2.5000E-02  7.21E-01  1.00E+00 -1.00E+01  1.00E+00  2.50E-02  2.61E-02  1.00E+00
  3   3.4497E-02   3.4497E-02  8.46E-01  1.00E+00 -1.00E+01  5.38E-02  3.45E-02  2.59E-02  1.00E+00
  4   2.7928E-02   2.7928E-02  9.34E-01  7.13E-01  2.26E-01  1.48E+00  1.66E-01  1.05E-01  8.00E-01
  5   6.9821E-02   6.1833E-02  5.97E-01  6.50E-01  3.00E-01  3.31E-01  3.00E-01  1.78E-01  1.00E+00
  6   4.2647E-02   4.2647E-02  9.05E-01  9.17E-01  4.01E-01  9.74E-01  1.36E-01  4.81E-02  1.00E+00
  7   1.0662E-01   9.4002E-02  3.29E-01  3.62E-01  6.73E-01  9.29E-01  6.73E-01  2.16E-01  1.00E+00
  8   4.2647E-02   4.2578E-02 -1.00E+00  2.85E-01  8.98E-01  1.00E+00  8.98E-01  9.45E-02  1.00E+00
:JACOBIANS    9.974E-01   9.486E-01
  
:NORMS:  1/Froebius, Min, Max, Used   0.8237E+00  0.4176E+00  0.9998E+00  0.9274E+00
:INFO :  Number of Memory Steps    7 Skipping    0
:INFO :  SLambda=    1.3173794652  Max    1.3173794652
:PREDicted Charge, CTotal, PW Trust    6.177E-04   6.177E-04   1.487E-02
:PREDicted DMix, Beta, BLim   1.0398E-01  1.0447E+00  9.3886E-01

Eigenvalues, unscaled except for SY+YY
   #     SY Real        SY Imag          SS             YY         SY+YY Real      SY+YY Imag
   1   4.273647E+00   0.000000E+00   4.300763E+00   5.000541E+00   1.049701E+01   0.000000E+00
   2   4.308687E-01   0.000000E+00   4.344062E-01   1.568410E+00   1.889409E+00   0.000000E+00
   3   1.424706E-01   0.000000E+00   1.366558E-02   4.309134E-01   9.987672E-01   0.000000E+00
   4   8.024651E-05   0.000000E+00   4.941979E-05   1.229452E-04   2.227863E-04   0.000000E+00
   5   9.169447E-07   0.000000E+00   1.132604E-07   8.173319E-06   9.245220E-06   0.000000E+00
   6  -3.095211E-15   0.000000E+00   2.811081E-10   5.304481E-06   5.869530E-06   0.000000E+00
   7   4.805123E-09   0.000000E+00  -2.102186E-16   6.911904E-08   7.512505E-08   0.000000E+00
 
:INFO :  Singular value  1.050E+01 Weight  1.000E+00 Projection  2.282E-03
:INFO :  Singular value  1.889E+00 Weight  1.000E+00 Projection  9.334E-04
:INFO :  Singular value  9.984E-01 Weight  1.000E+00 Projection -1.410E-03
:INFO :  Singular value  2.244E-04 Weight  1.676E-01 Projection  4.233E-01
:INFO :  Singular value  9.341E-06 Weight  3.488E-04 Projection  3.393E-04
:INFO :  Singular value  5.772E-06 Weight  1.332E-04 Projection -1.092E-04
:INFO :  Singular value  7.506E-08 Weight  2.253E-08 Projection  5.587E-08
:RANK :  ACTIVE   3.17/7  =  45.26 % ; YY RANK   3.06/7  =  43.68 %
 
:BLIM :  VZERO Control Off
:TRUST:  Step 1.20E+00  Charge 6.00E-02 (e) CTO  2.00E-01 (e) PW  3.50E-01 (e)
:DIRM :  MEMORY  7/8  SCALE   1.000 RED  0.27 PRED  0.28 NEXT  0.82 
:TRAVE:  Charge 1.47E-03 (e) CTO  1.47E-03 (e) PW  1.65E-02 (e)
:DIRP :  |MSR1|= 7.635E-04 |PRATT|= 2.895E-03 ANGLE=  60.3 DEGREES
:DIRQ :  |MSR1|= 6.425E-03 |PRATT|= 2.857E-02 ANGLE=  32.3 DEGREES
:DIRT :  |MSR1|= 6.471E-03 |PRATT|= 2.872E-02 ANGLE=  32.8 DEGREES
:MIX  :   MSE1   REGULARIZATION:  5.00E-04 GREED: 0.08177  Newton 1.00  0.2253                
     
       CHARGES OF MIXED CHARGE DENSITY
:CTO   : INTERSTITIAL CHARGE =     2.843886
:CPC   : PW Pseudocharge     =     7.737457
:CTO001: CHARGE SPHERE  1    =    56.156114

:NEC03: NUCLEAR AND ELECTRONIC CHARGE     59.00000    59.00000

PW CHANGE     H    K    L      Current       Change    Residue
:PTO001:      0    0    0  5.04571973E-02 -4.222E-08 -3.036E-05
:PTO002:     -1   -1   -1 -1.44427940E-01 -1.784E-05  6.843E-05
[...]
            ---------

:NATO :    1 INDEPENDENT AND    1 TOTAL ATOMS IN UNITCELL
       SUBSTANCE: blebleble                                                   

       LATTICE                      = F   
:POT  : POTENTIAL OPTION EX_LDA EC_LDA VX_LDA VC_LDA
:LAT  : LATTICE CONSTANTS=  9.43103  9.43103  9.43103    1.571    1.571    1.571
:VOL  : UNIT CELL VOLUME =     209.70929
       MODE OF CALCULATION IS       = RELA
       NON-SPINPOLARIZED CALCULATION
:IFFT  : FFT-parameters:   80   80   80 Factor: 2.00


   CONVERGENCE PARAMETER FOR PSEUDOCHARGE: NCON=  9
   MAXIMAL VALUE OF RMT(JATOM)*ABSK(NKK) : RK  =29.98011


:VKCOUL :  VK-COUL convergence: 0.208E-06
       ATOMNUMBER=  1 Pr         VCOUL-ZERO =  0.36278E+00
:FIT001: LUSE= 13 SIGMA OF V-XC FIT FOR ATOM  1  0.4960524E-04
:FIT001: LUSE= 13 SIGMA OF V-XC FIT FOR ATOM  1  0.4960524E-04
:DEN  : DENSITY INTEGRAL  =         -7077.40072917   (Ry)
       ELS_POTENTIAL_AT Z=0 and Z=0.5:  -2.61869  -2.61869
       ELS_POTENTIAL_AT Y=0 and Y=0.5:   0.00000   0.00000
:VZERO:v0,v0c,v0x  -3.62664  -2.61869  -1.00794 v5,v5c,v5x  -3.62664  -2.61869  -1.00794
:VZERY:v0,v0c,v0x  -0.75440   0.00000  -0.75440 v5,v5c,v5x  -0.75440   0.00000  -0.75440
:VZERX:v0,v0c,v0x  -0.75440   0.00000  -0.75440 v5,v5c,v5x  -0.75440   0.00000  -0.75440
:LMAX-WF:   10   Non-Spherical LMAX:   4

          ATOMIC SPHERE DEPENDENT PARAMETERS FOR ATOM  Pr        
:e__0001: OVERALL ENERGY PARAMETER IS    0.4857
          OVERALL BASIS SET ON ATOM IS LAPW
:E0_0001: E( 0)=    0.4857
             APW+lo
:E0_0001: E( 0)=   -1.9801   E(BOTTOM)=   -2.361   E(TOP)=   -1.600  4  5   187
             LOCAL ORBITAL
:E1_0001: E( 1)=    0.8857
             APW+lo
:E1_0001: E( 1)=   -0.5912   E(BOTTOM)=   -1.237   E(TOP)=    0.055  3  4   184
             LOCAL ORBITAL
:E3_0001: E( 3)=    0.6799   E(BOTTOM)=    0.540   E(TOP)=    0.820  0  1   119
             APW+lo
:E2_0001: E( 2)=    0.4857   E(BOTTOM)=    0.338   E(TOP)= -200.000  2 -1    85
             APW+lo

       K=   0.00000   0.00000   0.00000            1
:RKM  : MATRIX SIZE   157LOs:  20  RKM= 8.16  WEIGHT= 1.00  PGR:    
       EIGENVALUES ARE:
:EIG00001:      -1.9498445   -0.5571385   -0.5571385   -0.5571385    0.4387641
:EIG00006:       0.6678203    0.6920127    0.6920127    0.6920127    0.7228504
:EIG00011:       0.7228504    0.7228504    0.8233923    0.8233923    0.8233923
:EIG00016:       1.0267930    1.0267930    1.4417655    1.6974043    1.6974043
:EIG00021:       1.6974043    1.7979193
       ********************************************************

:KPT   :      NUMBER OF K-POINTS:   165
:GAP (global)   :    0.0    Ry =     0.0   eV (metal)
         Bandranges (emin - emax) and occupancy:
:BAN00001:   1   -1.949845   -1.925960  2.00000000
:BAN00002:   2   -0.681258   -0.557139  2.00000000
:BAN00003:   3   -0.638313   -0.557139  2.00000000
:BAN00004:   4   -0.603692   -0.557139  2.00000000
:BAN00005:   5    0.438764    0.650593  2.00000000
:BAN00006:   6    0.584538    0.684747  2.00000000
:BAN00007:   7    0.665442    0.699502  0.99915635
:BAN00008:   8    0.685524    0.700529  0.00083395
:BAN00009:   9    0.692013    0.707488  0.00000000
:BAN00010:  10    0.700693    0.722850  0.00000000
:BAN00011:  11    0.703959    0.722850  0.00000000
:BAN00012:  12    0.706661    0.735389  0.00000000
:BAN00013:  13    0.715152    0.829579  0.00000000
        Energy to separate low and high energystates:    0.38876


:NOE  : NUMBER OF ELECTRONS          =   13.000

:FER  : F E R M I - ENERGY(TETRAH.M.)=   0.6856663714
:GMA  : POTENTIAL AND CHARGE CUT-OFF  12.00 Ry**.5

:POS001: ATOM    1 X,Y,Z = 0.00000 0.00000 0.50000  MULT= 1  ZZ= 59.000  Pr        

       LMMAX  5
       LM=   0 0  4 0  4 4  6 0  6 4

:CHA001: TOTAL VALENCE CHARGE INSIDE SPHERE   1 =  10.1583    (RMT=  2.5000 )
:PCS001: PARTIAL CHARGES SPHERE =  1 S,P,D,F,      D-EG,D-T2G 
:QTL001: 2.0370 5.3445 0.7196 2.0565 0.0000 0.0000 0.0000 0.2582 0.4614 0.0000 0.0000 0.0000
        Q-s-low E-s-low   Q-p-low E-p-low   Q-d-low E-d-low   Q-f-low E-f-low
:EPL001:  1.9255 -1.9305    5.2709 -0.6093    0.0029 -0.6315    0.0009 -0.6327
        Q-s-hi  E-s-hi    Q-p-hi  E-p-hi    Q-d-hi  E-d-hi    Q-f-hi  E-f-hi 
:EPH001:  0.1116  0.5865    0.0736  0.6219    0.7167  0.6232    2.0557  0.6660

:CHA  : TOTAL VALENCE CHARGE INSIDE UNIT CELL =      12.999990

:SUM  : SUM OF EIGENVALUES =          -4.341502536


        1.ATOM      Pr                   14 CORE STATES
:1S 001: 1S               -3066.922685594 Ry
:2S 001: 2S                -492.677056584 Ry
:2PP001: 2P*               -465.775827637 Ry
:2P 001: 2P                -430.378474592 Ry
:3S 001: 3S                -105.769908252 Ry
:3PP001: 3P*                -94.307650343 Ry
:3P 001: 3P                 -87.299837015 Ry
:3DD001: 3D*                -67.226593615 Ry
:3D 001: 3D                 -65.715059569 Ry
:4S 001: 4S                 -20.441421968 Ry
:4PP001: 4P*                -16.147705766 Ry
:4P 001: 4P                 -14.619575087 Ry
:4DD001: 4D*                 -7.551111594 Ry
:4D 001: 4D                  -7.281452664 Ry
:CINT001 Core Integral Atom   1   45.999523

       DENSITY AT NUCLEUS
        JATOM        VALENCE       SEMI-CORE          CORE           TOTAL
:RTO001:   1      654.660883        0.000000   656825.512419   657480.173303
     
       CHARGES OF NEW CHARGE DENSITY
:NTO   : INTERSTITIAL CHARGE =     2.841689
:NPC   : PW Pseudocharge     =     7.733105
:NTO001: CHARGE SPHERE  1    =    56.157823

:NEC01: NUCLEAR AND ELECTRONIC CHARGE     59.00000    58.99951
     
       CHARGES OF OLD CHARGE DENSITY
:OTO   : INTERSTITIAL CHARGE =     2.842176
:OPC   : PW Pseudocharge     =     7.734415
:OTO001: CHARGE SPHERE  1    =    56.157824

:NEC02: NUCLEAR AND ELECTRONIC CHARGE     59.00000    59.00000
     
       CONVERGENCE TEST
:DTO001: DIFFERENCE IN SPHERE  1 =  0.0000472

:DIS  :  CHARGE DISTANCE       ( 0.0000472 for atom    1 spin 1)      0.0000472
 PW Mixed is           49
 
******************************************************
* MULTISECANT MIXING VER9 RELEASE 10.4.0              *
* Standard Mode with controls                        *
* Fixed density scale                                *
* Regularization       1.000E-04                     *
* Trust Upper Limit    5.000E+00                     *
* Max Number of Memory Steps    8                    *
******************************************************
 
:PWTMP   1.4426E+02  1.2500E+02  2.0971E+02
:PLANE:  PW TOTAL      3.2641 DISTAN   1.26E-05  3.87E-04 %
:CHARG:  CLM/ATOM    977.1942 DISTAN   5.28E-05  5.40E-06 %
 
Step History
        DMIX         DMIXT        Red     Pred      Trust     Lambda    MagRel    MagAbs     Beta
  5   6.9821E-02   6.1833E-02  5.97E-01  6.50E-01  3.00E-01  3.31E-01  3.00E-01  1.78E-01  1.00E+00
  6   4.2647E-02   4.2647E-02  9.05E-01  9.17E-01  4.01E-01  9.74E-01  1.36E-01  4.81E-02  1.00E+00
  7   1.0662E-01   9.4002E-02  3.29E-01  3.62E-01  6.73E-01  9.29E-01  6.73E-01  2.16E-01  1.00E+00
  8   4.2647E-02   4.2578E-02  2.73E-01  2.85E-01  8.98E-01  1.32E+00  8.98E-01  9.45E-02  1.00E+00
  9   8.1765E-02   8.1765E-02  7.94E-01  8.18E-01  1.20E+00  1.26E+00  2.25E-01  6.47E-03  1.00E+00
 10   2.0441E-01   2.0441E-01  2.59E-01  3.27E-01  1.51E+00  1.37E+00  7.27E-01  1.66E-02  1.00E+00
 11   1.7580E-01   1.7580E-01  4.67E-01  6.38E-01  2.01E+00  1.09E+00  4.56E-01  2.69E-03  1.00E+00
 12   3.5000E-01   3.5000E-01  2.05E-01  2.73E-01  2.68E+00  1.40E+00  7.93E-01  2.18E-03  1.00E+00
 13   3.5000E-01   3.5000E-01 -1.00E+00  1.30E-01  3.81E+00  1.00E+00  7.03E-01  3.96E-04  1.00E+00
:JACOBIANS    1.031E+00   3.054E+00
  
:NORMS:  1/Froebius, Min, Max, Used   0.8811E+00  0.6860E+00  0.1004E+01  0.9813E+00
:INFO :  Number of Memory Steps    8 Skipping    4
:INFO :  SLambda=    1.1068262656  Max    1.1068262656
:PREDicted Charge, CTotal, PW Trust    2.529E-05   2.529E-05   8.390E-06
:PREDicted DMix, Beta, BLim   1.5853E-01  9.7113E-01  1.6436E+00

Eigenvalues, unscaled except for SY+YY
   #     SY Real        SY Imag          SS             YY         SY+YY Real      SY+YY Imag
   1   3.159113E+00   0.000000E+00   3.108388E+00   3.228058E+00   6.724143E+00   0.000000E+00
   2   2.053888E+00   0.000000E+00   2.030540E+00   2.126419E+00   4.390412E+00   0.000000E+00
   3   1.073669E+00   0.000000E+00   7.053043E-01   1.728368E+00   2.932312E+00   0.000000E+00
   4   5.112373E-01   0.000000E+00   3.556676E-01   8.387326E-01   1.390247E+00   0.000000E+00
   5   1.166792E-02   0.000000E+00   1.077988E-02   6.793025E-02   8.544365E-02   0.000000E+00
   6   6.758335E-03   0.000000E+00   6.654512E-04   1.049037E-02   2.193654E-02   0.000000E+00
   7   1.263921E-06   0.000000E+00   9.101427E-07   1.784421E-06   3.248336E-06   0.000000E+00
   8   9.024823E-09   0.000000E+00   5.531309E-09   3.306136E-08   4.314250E-08   0.000000E+00
 
:INFO :  Singular value  6.725E+00 Weight  1.000E+00 Projection  2.773E-06
:INFO :  Singular value  4.391E+00 Weight  1.000E+00 Projection  2.166E-05
:INFO :  Singular value  2.942E+00 Weight  1.000E+00 Projection -1.341E-05
:INFO :  Singular value  1.386E+00 Weight  1.000E+00 Projection -2.292E-05
:INFO :  Singular value  8.542E-02 Weight  1.000E+00 Projection  6.994E-05
:INFO :  Singular value  2.193E-02 Weight  9.998E-01 Projection  7.302E-05
:INFO :  Singular value  3.248E-06 Weight  1.013E-04 Projection -1.948E-06
:INFO :  Singular value  4.314E-08 Weight  1.786E-08 Projection -4.449E-10
:RANK :  ACTIVE   6.00/8  =  75.00 % ; YY RANK   6.00/8  =  74.99 %
 
:DLIM :  Beta Active  9.784E-01
:BLIM :  VZERO Control Off
:TRUST:  Step 1.99E+01  Charge 1.97E-02 (e) CTO  6.55E-02 (e) PW  1.15E-01 (e)
:DIRM :  MEMORY  8/8  SCALE   1.000 RED  0.10 PRED  0.13 NEXT  0.48 BETA  0.98
:TRAVE:  Charge 1.69E-04 (e) CTO  1.69E-04 (e) PW  6.46E-04 (e)
:DIRP :  |MSR1|= 9.734E-06 |PRATT|= 1.263E-05 ANGLE=  26.9 DEGREES
:DIRQ :  |MSR1|= 3.151E-05 |PRATT|= 5.281E-05 ANGLE=  36.5 DEGREES
:DIRT :  |MSR1|= 3.298E-05 |PRATT|= 5.430E-05 ANGLE=  36.1 DEGREES
:MIX  :   MSE1   REGULARIZATION:  3.23E-04 GREED: 0.23010  Newton 1.00  0.6074                
     
       CHARGES OF MIXED CHARGE DENSITY
:CTO   : INTERSTITIAL CHARGE =     2.842178
:CPC   : PW Pseudocharge     =     7.734432
:CTO001: CHARGE SPHERE  1    =    56.157822

:NEC03: NUCLEAR AND ELECTRONIC CHARGE     59.00000    59.00000

PW CHANGE     H    K    L      Current       Change    Residue
:PTO001:      0    0    0  5.04346301E-02  9.146E-08  8.324E-08
:PTO002:     -1   -1   -1 -1.44312700E-01 -5.478E-07 -7.314E-07
:PTO003:      0    0   -2  8.31010233E-02  1.383E-08 -3.044E-07
:PTO004:      0   -2   -2  6.39446923E-02  3.203E-07  2.759E-07
:PTO005:     -1   -1   -3 -5.16827994E-02 -1.095E-07  2.855E-08
:PTO006:     -2   -2   -2  1.21794944E-02  8.912E-08  8.138E-08
:PTO007:      0    0   -4  3.08959059E-04 -5.785E-08 -8.583E-08
:PTO008:     -1   -3   -3  4.30971561E-03  5.554E-09 -1.360E-08
:PTO009:      0   -2   -4 -6.36614549E-03 -8.719E-08 -1.047E-07
:PTO010:     -2   -2   -4 -9.01361670E-03 -1.038E-07 -9.991E-08
:PTO011:     -3   -3   -3  3.01793078E-03  4.111E-08  3.946E-08
:PTO012:     -1   -1   -5  8.85296902E-03  1.518E-07  1.548E-07

:ENE  : ********** TOTAL ENERGY IN Ry =       -18472.10818500


:LABEL1: Calculations in /home/ykent/GWIEN/example/Pr/V9/case
:LABEL2: on didymium-2.cmpgroup.ameslab.gov at Wed Jul  8 16:10:11 CDT 2020
:LABEL3: using WIEN2k_19.1 (Release 25/6/2019) in /home/ykent/opt/src/WIEN2k_19.1
:LABEL4: using the command: run_lapw -cc 0.0001
 Flat Integration
 New Mode for Coulomb Integral
 Consistent 3/8+Simpson combinations
 Extension of core to zero
 LDM version in phi
 Fifth-order quadrature in outwin


            ---------
:ITE014: 14. ITERATION
            ---------

:NATO :    1 INDEPENDENT AND    1 TOTAL ATOMS IN UNITCELL
       SUBSTANCE: blebleble                                                   

       LATTICE                      = F   
:POT  : POTENTIAL OPTION EX_LDA EC_LDA VX_LDA VC_LDA
:LAT  : LATTICE CONSTANTS=  9.43103  9.43103  9.43103    1.571    1.571    1.571
:VOL  : UNIT CELL VOLUME =     209.70929
       MODE OF CALCULATION IS       = RELA
       NON-SPINPOLARIZED CALCULATION
:IFFT  : FFT-parameters:   80   80   80 Factor: 2.00


   CONVERGENCE PARAMETER FOR PSEUDOCHARGE: NCON=  9
   MAXIMAL VALUE OF RMT(JATOM)*ABSK(NKK) : RK  =29.98011


:VKCOUL :  VK-COUL convergence: 0.208E-06
       ATOMNUMBER=  1 Pr         VCOUL-ZERO =  0.36278E+00
:FIT001: LUSE= 13 SIGMA OF V-XC FIT FOR ATOM  1  0.4961202E-04
:FIT001: LUSE= 13 SIGMA OF V-XC FIT FOR ATOM  1  0.4961202E-04
:DEN  : DENSITY INTEGRAL  =         -7077.40072503   (Ry)
       ELS_POTENTIAL_AT Z=0 and Z=0.5:  -2.61870  -2.61870
       ELS_POTENTIAL_AT Y=0 and Y=0.5:   0.00000   0.00000
:VZERO:v0,v0c,v0x  -3.62664  -2.61870  -1.00794 v5,v5c,v5x  -3.62664  -2.61870  -1.00794
:VZERY:v0,v0c,v0x  -0.75440   0.00000  -0.75440 v5,v5c,v5x  -0.75440   0.00000  -0.75440
:VZERX:v0,v0c,v0x  -0.75440   0.00000  -0.75440 v5,v5c,v5x  -0.75440   0.00000  -0.75440
:LMAX-WF:   10   Non-Spherical LMAX:   4

          ATOMIC SPHERE DEPENDENT PARAMETERS FOR ATOM  Pr        
:e__0001: OVERALL ENERGY PARAMETER IS    0.4857
          OVERALL BASIS SET ON ATOM IS LAPW
:E0_0001: E( 0)=    0.4857
             APW+lo
:E0_0001: E( 0)=   -1.9801   E(BOTTOM)=   -2.361   E(TOP)=   -1.600  4  5   186
             LOCAL ORBITAL
:E1_0001: E( 1)=    0.8857
             APW+lo
:E1_0001: E( 1)=   -0.5912   E(BOTTOM)=   -1.237   E(TOP)=    0.055  3  4   181
             LOCAL ORBITAL
:E3_0001: E( 3)=    0.6799   E(BOTTOM)=    0.540   E(TOP)=    0.820  0  1   120
             APW+lo
:E2_0001: E( 2)=    0.4857   E(BOTTOM)=    0.338   E(TOP)= -200.000  2 -1    87
             APW+lo

       K=   0.00000   0.00000   0.00000            1
:RKM  : MATRIX SIZE   157LOs:  20  RKM= 8.16  WEIGHT= 1.00  PGR:    
       EIGENVALUES ARE:
:EIG00001:      -1.9498452   -0.5571390   -0.5571390   -0.5571390    0.4387645
:EIG00006:       0.6678205    0.6920128    0.6920128    0.6920128    0.7228505
:EIG00011:       0.7228505    0.7228505    0.8233926    0.8233926    0.8233926
:EIG00016:       1.0267929    1.0267929    1.4417666    1.6974045    1.6974045
:EIG00021:       1.6974045    1.7979194
       ********************************************************

:KPT   :      NUMBER OF K-POINTS:   165
:GAP (global)   :    0.0    Ry =     0.0   eV (metal)
         Bandranges (emin - emax) and occupancy:
:BAN00001:   1   -1.949845   -1.925960  2.00000000
:BAN00002:   2   -0.681258   -0.557139  2.00000000
:BAN00003:   3   -0.638314   -0.557139  2.00000000
:BAN00004:   4   -0.603693   -0.557139  2.00000000
:BAN00005:   5    0.438765    0.650593  2.00000000
:BAN00006:   6    0.584538    0.684747  2.00000000
:BAN00007:   7    0.665442    0.699502  0.99916574
:BAN00008:   8    0.685524    0.700529  0.00083426
:BAN00009:   9    0.692013    0.707488  0.00000000
:BAN00010:  10    0.700694    0.722851  0.00000000
:BAN00011:  11    0.703959    0.722851  0.00000000
:BAN00012:  12    0.706661    0.735389  0.00000000
:BAN00013:  13    0.715152    0.829580  0.00000000
        Energy to separate low and high energystates:    0.38876


:NOE  : NUMBER OF ELECTRONS          =   13.000

:FER  : F E R M I - ENERGY(TETRAH.M.)=   0.6856665725
:GMA  : POTENTIAL AND CHARGE CUT-OFF  12.00 Ry**.5

:POS001: ATOM    1 X,Y,Z = 0.00000 0.00000 0.50000  MULT= 1  ZZ= 59.000  Pr        

       LMMAX  5
       LM=   0 0  4 0  4 4  6 0  6 4

:CHA001: TOTAL VALENCE CHARGE INSIDE SPHERE   1 =  10.1583    (RMT=  2.5000 )
:PCS001: PARTIAL CHARGES SPHERE =  1 S,P,D,F,      D-EG,D-T2G 
:QTL001: 2.0370 5.3445 0.7196 2.0565 0.0000 0.0000 0.0000 0.2582 0.4614 0.0000 0.0000 0.0000
        Q-s-low E-s-low   Q-p-low E-p-low   Q-d-low E-d-low   Q-f-low E-f-low
:EPL001:  1.9255 -1.9305    5.2709 -0.6093    0.0029 -0.6315    0.0009 -0.6327
        Q-s-hi  E-s-hi    Q-p-hi  E-p-hi    Q-d-hi  E-d-hi    Q-f-hi  E-f-hi 
:EPH001:  0.1116  0.5865    0.0736  0.6219    0.7167  0.6232    2.0557  0.6660

:CHA  : TOTAL VALENCE CHARGE INSIDE UNIT CELL =      13.000000

:SUM  : SUM OF EIGENVALUES =          -4.341498532


        1.ATOM      Pr                   14 CORE STATES
:1S 001: 1S               -3066.922690818 Ry
:2S 001: 2S                -492.677058623 Ry
:2PP001: 2P*               -465.775830222 Ry
:2P 001: 2P                -430.378476960 Ry
:3S 001: 3S                -105.769907082 Ry
:3PP001: 3P*                -94.307649331 Ry
:3P 001: 3P                 -87.299835879 Ry
:3DD001: 3D*                -67.226592794 Ry
:3D 001: 3D                 -65.715058698 Ry
:4S 001: 4S                 -20.441421066 Ry
:4PP001: 4P*                -16.147704972 Ry
:4P 001: 4P                 -14.619574432 Ry
:4DD001: 4D*                 -7.551111146 Ry
:4D 001: 4D                  -7.281452257 Ry
:CINT001 Core Integral Atom   1   45.999523

       DENSITY AT NUCLEUS
        JATOM        VALENCE       SEMI-CORE          CORE           TOTAL
:RTO001:   1      654.660949        0.000000   656825.512950   657480.173899
     
       CHARGES OF NEW CHARGE DENSITY
:NTO   : INTERSTITIAL CHARGE =     2.841687
:NPC   : PW Pseudocharge     =     7.733106
:NTO001: CHARGE SPHERE  1    =    56.157835

:NEC01: NUCLEAR AND ELECTRONIC CHARGE     59.00000    58.99952
     
       CHARGES OF OLD CHARGE DENSITY
:OTO   : INTERSTITIAL CHARGE =     2.842178
:OPC   : PW Pseudocharge     =     7.734432
:OTO001: CHARGE SPHERE  1    =    56.157822

:NEC02: NUCLEAR AND ELECTRONIC CHARGE     59.00000    59.00000
     
       CONVERGENCE TEST
:DTO001: DIFFERENCE IN SPHERE  1 =  0.0000400

:DIS  :  CHARGE DISTANCE       ( 0.0000400 for atom    1 spin 1)      0.0000400
 PW Mixed is           49
 
******************************************************
* MULTISECANT MIXING VER9 RELEASE 10.4.0              *
* Standard Mode with controls                        *
* Fixed density scale                                *
* Regularization       1.000E-04                     *
* Trust Upper Limit    5.000E+00                     *
* Max Number of Memory Steps    8                    *
******************************************************
 
:INFO : Forcing a restart
:PWTMP   1.4426E+02  1.2500E+02  2.0971E+02
:PLANE:  PW TOTAL      3.2641 DISTAN   1.28E-05  3.92E-04 %
:CHARG:  CLM/ATOM    977.1941 DISTAN   4.13E-05  4.22E-06 %
 
Step History
        DMIX         DMIXT        Red     Pred      Trust     Lambda    MagRel    MagAbs     Beta
  1   3.5000E-02   3.5000E-02 -1.00E+00  1.00E+00 -1.00E+01  1.00E+00  3.50E-02  3.50E-02  1.00E+00
:INFO :  Note, Pratt in use
:TRUST:  Step 2.25E-01  Charge 7.50E-02 (e) CTO  2.50E-01 (e) PW  3.50E-01 (e)
:DIRM :  MEMORY  0/ 8 SCALE   1.000
Performing Pseudo Compensation
Final Pseudo Compensation Rescaling     1.00000E+00
:MIX  :   PRATT  REGULARIZATION:  1.00E-04 GREED: 0.15000                  
     
       CHARGES OF MIXED CHARGE DENSITY
:CTO   : INTERSTITIAL CHARGE =     2.842176
:CPC   : PW Pseudocharge     =     7.734415
:CTO001: CHARGE SPHERE  1    =    56.157824

:NEC03: NUCLEAR AND ELECTRONIC CHARGE     59.00000    59.00000

PW CHANGE     H    K    L      Current       Change    Residue
:PTO001:      0    0    0  5.04345384E-02 -9.170E-08 -1.834E-07
:PTO002:     -1   -1   -1 -1.44312316E-01  3.846E-07  2.963E-07
:PTO003:      0    0   -2  8.31007201E-02 -3.032E-07 -5.470E-07
:PTO004:      0   -2   -2  6.39444127E-02 -2.796E-07 -2.588E-07
:PTO005:     -1   -1   -3 -5.16824658E-02  3.336E-07  2.874E-07
:PTO006:     -2   -2   -2  1.21794058E-02 -8.865E-08 -5.245E-08
:PTO007:      0    0   -4  3.08929471E-04 -2.959E-08 -1.950E-08
:PTO008:     -1   -3   -3  4.30976034E-03  4.472E-08 -2.328E-08
:PTO009:      0   -2   -4 -6.36617880E-03 -3.331E-08  8.138E-09
:PTO010:     -2   -2   -4 -9.01361180E-03  4.901E-09  3.222E-08
:PTO011:     -3   -3   -3  3.01792533E-03 -5.452E-09 -1.057E-08
:PTO012:     -1   -1   -5  8.85295201E-03 -1.701E-08 -3.607E-08

:ENE  : ********** TOTAL ENERGY IN Ry =       -18472.10817836

