
:LABEL1: Calculations in /home/ykent/GWIEN/example/Pr/aU/V0/case
:LABEL2: on didymium-2.cmpgroup.ameslab.gov at Fri Jul 10 14:12:04 CDT 2020
:LABEL3: using WIEN2k_19.1 (Release 25/6/2019) in /home/ykent/opt/src/WIEN2k_19.1
:LABEL4: using the command: run_lapw -so -i 70 -cc 0.0001

:LABEL1: Calculations in /home/ykent/GWIEN/example/Pr/aU/V0/case
:LABEL2: on didymium-2.cmpgroup.ameslab.gov at Fri Jul 10 14:12:28 CDT 2020
:LABEL3: using WIEN2k_19.1 (Release 25/6/2019) in /home/ykent/opt/src/WIEN2k_19.1
:LABEL4: using the command: run_lapw -so -i 70 -cc 0.0001
 Flat Integration
 New Mode for Coulomb Integral
 Consistent 3/8+Simpson combinations
 Extension of core to zero
 LDM version in phi
 Fifth-order quadrature in outwin


            ---------
:ITE014: 14. ITERATION
            ---------

:NATO :    1 INDEPENDENT AND    2 TOTAL ATOMS IN UNITCELL
       SUBSTANCE: aU                                                          

       LATTICE                      = CXY 
:POT  : POTENTIAL OPTION EX_LDA EC_LDA VX_LDA VC_LDA
:LAT  : LATTICE CONSTANTS=  4.78180  9.70348  8.37722    1.571    1.571    1.571
:VOL  : UNIT CELL VOLUME =     194.35200
       MODE OF CALCULATION IS       = RELA
       NON-SPINPOLARIZED CALCULATION
:IFFT  : FFT-parameters:   40   80   64 Factor: 2.00


   CONVERGENCE PARAMETER FOR PSEUDOCHARGE: NCON=  9
   MAXIMAL VALUE OF RMT(JATOM)*ABSK(NKK) : RK  =27.59997


:VKCOUL :  VK-COUL convergence: 0.154E-06
       ATOMNUMBER=  1 Pr1        VCOUL-ZERO =  0.10916E+01
:EFG001:                        EFG         =     8.98989   *10**21  V / m**2
                               V20  TOT/SRF=    -0.34154    -0.11791
                               V22  TOT/SRF=    -8.79270    -0.00710
                               V22M TOT/SRF=     0.00000     0.00000
                               V21  TOT/SRF=     0.00000     0.00000
                               V21M TOT/SRF=     0.00000     0.00000

             -8.59551    0.00000    0.00000       -8.59551    0.00000    0.00000
              0.00000    8.98989    0.00000        0.00000    8.98989    0.00000
              0.00000    0.00000   -0.39438        0.00000    0.00000   -0.39438

         MAIN DIRECTIONS OF THE EFG   1.0000  0.0000  0.0000
                                      0.0000  1.0000  0.0000
                                      0.0000  0.0000  1.0000
:ANG001:  ANGLE WITH OLD X-AXIS =         0.0

:ETA001:                         ASYMM. ETA =     0.91226


     HELLMANN-FEYNMAN-FORCE IN mRy/a.u. = |F|  Fx       Fy             Fz
:FHF001:   1.ATOM   1184.018842675599      0.000000000000      0.000000000000  -1184.018842675599

:FIT001: LUSE= 13 SIGMA OF V-XC FIT FOR ATOM  1  0.6453390E-03
:FIT001: LUSE= 13 SIGMA OF V-XC FIT FOR ATOM  1  0.6453390E-03
:DEN  : DENSITY INTEGRAL  =        -14280.47318279   (Ry)
       ELS_POTENTIAL_AT Z=0 and Z=0.5:   1.25552   1.25552
       ELS_POTENTIAL_AT Y=0 and Y=0.5:  -0.10462  -0.10462
:VZERO:v0,v0c,v0x   0.36221   1.25552  -0.89331 v5,v5c,v5x   0.36221   1.25552  -0.89331
:VZERY:v0,v0c,v0x  -1.21843  -0.10462  -1.11381 v5,v5c,v5x  -1.21843  -0.10462  -1.11381
:VZERX:v0,v0c,v0x  -1.42333  -0.38619  -1.03714 v5,v5c,v5x  -1.42333  -0.38619  -1.03714
:LMAX-WF:   10   Non-Spherical LMAX:   4

          ATOMIC SPHERE DEPENDENT PARAMETERS FOR ATOM  Pr1       
:e__0001: OVERALL ENERGY PARAMETER IS    1.4935
          OVERALL BASIS SET ON ATOM IS LAPW
:E0_0001: E( 0)=    1.4935
             APW+lo
:E0_0001: E( 0)=   -0.9232   E(BOTTOM)=   -1.582   E(TOP)=   -0.265  4  5   288
             LOCAL ORBITAL
:E1_0001: E( 1)=    1.8935
             APW+lo
:E1_0001: E( 1)=    0.5349   E(BOTTOM)=   -0.453   E(TOP)=    1.523  3  4   295
             LOCAL ORBITAL
:E3_0001: E( 3)=    1.7431   E(BOTTOM)=    1.523   E(TOP)=    1.963  0  1   126
             APW+lo
:E2_0001: E( 2)=    1.4935   E(BOTTOM)=    1.266   E(TOP)= -200.000  2 -1   127
             APW+lo

       K=   0.06250   0.00000   0.06250            1
:RKM  : MATRIX SIZE   197LOs:  40  RKM= 8.43  WEIGHT= 4.00  PGR:    
       EIGENVALUES ARE:
:EIG00001:      -1.1192392   -0.9000528   -0.0046753    0.5150857    0.6489263
:EIG00006:       0.6974491    0.7419629    0.7572505    1.4895108    1.6169540
:EIG00011:       1.6249472    1.6294760    1.6612869    1.7032434    1.7299208
:EIG00016:       1.7410790    1.7618936    1.7725313    1.7844420    1.7994655
:EIG00021:       1.8106479    1.8226778    1.8549405    1.8673379    1.8949895
:EIG00026:       1.9701697    2.0023374    2.0267156    2.1140601    2.1768707
:EIG00031:       2.3093848    2.5234300    2.6881690    2.7350378    2.9619256
:EIG00036:       3.0034311    3.0561746    3.3926487    3.4913176    3.7761847
:EIG00041:       3.9330845    3.9941580    4.1357775    4.2570213    4.3988593
:EIG00046:       4.4065374    4.4670468    4.6538697    4.6812377    4.8122542
 
:EIG00051:       4.9975582    5.2169075    5.3989734    5.4869993    5.6127605
:EIG00056:       5.7570158    5.8458133    5.9206921    5.9888617    6.1073080
:EIG00061:       6.2235098    6.2391273    6.4624404    6.4672435    6.4846020
:EIG00066:       6.5970091    6.6730145    6.7860397    6.8380039    6.9329271
:EIG00071:       6.9649468    7.1307970    7.1505099    7.1910543    7.1987248
:EIG00076:       7.2194017    7.2817695    7.3729983    7.3815814    7.4524862
:EIG00081:       7.4595823    7.5707133    7.6474994    7.7851609    7.8851835
:EIG00086:       7.9547380    8.0080723    8.1169512    8.1484349    8.2818060
:EIG00091:       8.4279673    8.4930385    8.5186462    8.5396097    8.6109829
:EIG00096:       8.6842214    8.7401118    8.8579118    8.9648676    9.0099081
 
:EIG00101:       9.0477381    9.0754177    9.1495406
       ********************************************************

:KPT   :      NUMBER OF K-POINTS:   288
   0.0   0.0 angle (M,z), angle (M,x) deg
 
        SPIN-ORBIT EIGENVALUES:
     K=   0.06250   0.00000   0.06250            1
      MATRIX SIZE=  206   WEIGHT= 4.00
     EIGENVALUES ARE:
          -1.1192489   -1.1192489   -0.9000679   -0.9000679   -0.0200605
          -0.0200605    0.4949618    0.4949618    0.5255233    0.5255233
           0.7497262    0.7497262    0.7779251    0.7779251    0.8070014
           0.8070014    1.4895563    1.4895563    1.6163514    1.6163514
           1.6241212    1.6241212    1.6287351    1.6287351    1.6607395
           1.6607395    1.7021779    1.7021779    1.7290347    1.7290347
           1.7390419    1.7390419    1.7594325    1.7594325    1.7723454
           1.7723454    1.7862718    1.7862718    1.8011635    1.8011635

           1.8115393    1.8115393    1.8235616    1.8235616    1.8554623
           1.8554623    1.8685792    1.8685793    1.8961139    1.8961139
           1.9699832    1.9699832    2.0010604    2.0010604    2.0284673
           2.0284674    2.1146597    2.1146597    2.1770658    2.1770658
           2.3096669    2.3096669    2.5236710    2.5236710    2.6879273
           2.6879273    2.7355694    2.7355694    2.9627516    2.9627516
           3.0036747    3.0036747    3.0562749    3.0562749    3.3925340
           3.3925340    3.4908400    3.4908400    3.7755536    3.7755536

           3.9330584    3.9330584    3.9946522    3.9946522    4.1363835
           4.1363835    4.2567226    4.2567226    4.3984096    4.3984096
           4.4064937    4.4064937    4.4674430    4.4674430
       ********************************************************
:GAP (global)   :    0.0    Ry =     0.0   eV (metal)
:GAP (this spin):    0.0    Ry =     0.0   eV (metal)
         Bandranges (emin - emax) and occupancy:
:BAN00022:  22    1.491432    1.690648  1.00000000
:BAN00023:  23    1.546183    1.703113  0.94735142
:BAN00024:  24    1.546183    1.703113  0.94735142
:BAN00025:  25    1.619954    1.743584  0.60494743
:BAN00026:  26    1.619954    1.743584  0.60494741
:BAN00027:  27    1.646227    1.761435  0.34667051
:BAN00028:  28    1.646227    1.761435  0.34667050
:BAN00029:  29    1.663792    1.765514  0.09869893
:BAN00030:  30    1.663792    1.765514  0.09869891
:BAN00031:  31    1.689664    1.772514  0.00233173
:BAN00032:  32    1.689664    1.772514  0.00233173
:BAN00033:  33    1.742348    1.793980  0.00000000
:BAN00034:  34    1.742348    1.793980  0.00000000
:BAN00035:  35    1.761305    1.804661  0.00000000
:BAN00036:  36    1.761305    1.804661  0.00000000
:BAN00037:  37    1.778414    1.819403  0.00000000
        Energy to separate low and high energystates:    1.23792


:NOE  : NUMBER OF ELECTRONS          =   26.000

:FER  : F E R M I - ENERGY(TETRAH.M.)=   1.6923357571
:GMA  : POTENTIAL AND CHARGE CUT-OFF  12.00 Ry**.5

:POS001: ATOM   -1 X,Y,Z = 0.00000 0.89750 0.25000  MULT= 2  ZZ= 59.000  Pr1       

       LMMAX 16
       LM=   0 0  1 0  2 0  2 2  3 0  3 2  4 0  4 2  4 4  5 0  5 2  5 4  6 0  6 2  6 4  6 6

:CHA001: TOTAL VALENCE CHARGE INSIDE SPHERE   1 =  10.4151    (RMT=  2.3000 )
:PCS001: PARTIAL CHARGES SPHERE =  1 S,P,D,F,PX,PY,PZ,D-Z2,D-X2Y2,D-XY,D-XZ,D-YZ 
:QTL001: 1.9235 4.9550 1.2228 2.2962 1.6578 1.6479 1.6494 0.2399 0.2204 0.2537 0.2517 0.2571
        Q-s-low E-s-low   Q-p-low E-p-low   Q-d-low E-d-low   Q-f-low E-f-low
:EPL001:  1.8794 -0.8652    4.8237  0.3962    0.1162  0.3607    0.0436  0.3855
        Q-s-hi  E-s-hi    Q-p-hi  E-p-hi    Q-d-hi  E-d-hi    Q-f-hi  E-f-hi 
:EPH001:  0.0440  1.5486    0.1313  1.5689    1.1067  1.5344    2.2527  1.6232

                      VXX         VYY         VZZ       UP TO R
:VZZ001:            -8.53717     8.85785    -0.32068       2.300

:CHA  : TOTAL VALENCE CHARGE INSIDE UNIT CELL =      26.000000

:SUM  : SUM OF EIGENVALUES =          16.857017514


        1.ATOM      Pr1                  14 CORE STATES
       CORE-FORCE in mRy/a.u. = |F|      Fx             Fy             Fz
:FCO001:   1.ATOM   1158.036898591564      0.000000000000      0.000000000000   1158.036898591564

:1S 001: 1S               -3065.835440625 Ry
:2S 001: 2S                -491.584557240 Ry
:2PP001: 2P*               -464.683382281 Ry
:2P 001: 2P                -429.285946142 Ry
:3S 001: 3S                -104.685175770 Ry
:3PP001: 3P*                -93.222637601 Ry
:3P 001: 3P                 -86.215026111 Ry
:3DD001: 3D*                -66.140338769 Ry
:3D 001: 3D                 -64.628928711 Ry
:4S 001: 4S                 -19.353451684 Ry
:4PP001: 4P*                -15.059524352 Ry
:4P 001: 4P                 -13.531087178 Ry
:4DD001: 4D*                 -6.462557114 Ry
:4D 001: 4D                  -6.192890542 Ry
:CINT001 Core Integral Atom   1   45.998386

       DENSITY AT NUCLEUS
        JATOM        VALENCE       SEMI-CORE          CORE           TOTAL
:RTO001:   1      631.154491        0.000000   656826.209159   657457.363650
     
       CHARGES OF NEW CHARGE DENSITY
:NTO   : INTERSTITIAL CHARGE =     5.169748
:NPC   : PW Pseudocharge     =    18.685625
:NTO001: CHARGE SPHERE  1    =    56.413495

:NEC01: NUCLEAR AND ELECTRONIC CHARGE    118.00000   117.99674
     
       CHARGES OF OLD CHARGE DENSITY
:OTO   : INTERSTITIAL CHARGE =     5.174476
:OPC   : PW Pseudocharge     =    18.714758
:OTO001: CHARGE SPHERE  1    =    56.412762

:NEC02: NUCLEAR AND ELECTRONIC CHARGE    118.00000   118.00000
     
       CONVERGENCE TEST
:DTO001: DIFFERENCE IN SPHERE  1 =  0.0124624

:DIS  :  CHARGE DISTANCE       ( 0.0124624 for atom    1 spin 1)      0.0124624
 PW Mixed is          216
 
******************************************************
* MULTISECANT MIXING VER9 RELEASE 10.4.0              *
* Standard Mode with controls                        *
* Fixed density scale                                *
* Regularization       1.000E-04                     *
* Trust Upper Limit    5.000E+00                     *
* Max Number of Memory Steps    8                    *
******************************************************
 
:INFO : Forcing a restart
:PWTMP   9.2422E+01  1.9467E+02  1.9435E+02
:PLANE:  PW TOTAL      5.3533 DISTAN   4.92E-03  9.20E-02 %
:CHARG:  CLM/ATOM   1381.9268 DISTAN   1.86E-02  1.35E-03 %
 
Step History
        DMIX         DMIXT        Red     Pred      Trust     Lambda    MagRel    MagAbs     Beta
  1   3.5000E-02   3.5000E-02 -1.00E+00  1.00E+00 -1.00E+01  1.00E+00  3.50E-02  3.50E-02  1.00E+00
:INFO :  Note, Pratt in use
:TRUST:  Step 2.25E-01  Charge 7.50E-02 (e) CTO  2.50E-01 (e) PW  3.50E-01 (e)
:DIRM :  MEMORY  0/ 8 SCALE   1.000
Performing Pseudo Compensation
Final Pseudo Compensation Rescaling     1.00000E+00
:MIX  :   PRATT  REGULARIZATION:  1.00E-04 GREED: 0.15000                  
     
       CHARGES OF MIXED CHARGE DENSITY
:CTO   : INTERSTITIAL CHARGE =     5.174256
:CPC   : PW Pseudocharge     =    18.707955
:CTO001: CHARGE SPHERE  1    =    56.412872

:NEC03: NUCLEAR AND ELECTRONIC CHARGE    118.00000   118.00000

PW CHANGE     H    K    L      Current       Change    Residue
:PTO001:      0    0    0  1.22881223E-01 -3.613E-05 -9.679E-05
:PTO003:      0    2    0  2.33537669E-02 -6.808E-06 -1.690E-05
:PTO004:     -1    1    0  9.98685232E-02 -2.465E-05 -5.843E-05
:PTO005:      0    2   -1 -1.12091141E-01  2.481E-05  5.079E-05
:PTO006:      0    0   -2 -5.77618722E-02  1.317E-05  2.882E-05
:PTO007:     -1    1   -1 -1.07382631E-01  1.822E-05  4.892E-05
:PTO008:      0    2   -2 -1.12440812E-02 -3.053E-06 -6.068E-06
:PTO009:     -1    1   -2 -5.42008495E-02 -2.664E-05 -4.838E-05
:PTO011:     -1    3    0 -6.34944956E-03 -9.088E-06 -1.535E-05
:PTO012:     -1    3   -1 -2.20491408E-02 -5.694E-05 -1.138E-04
:PTO013:      0    4    0 -2.85376840E-03 -1.384E-05 -2.823E-05
:PTO014:      0    2   -3  7.13585718E-03  3.026E-05  5.574E-05

:ENE  : ********** TOTAL ENERGY IN Ry =       -36944.25431704

       TOTAL FORCE IN mRy/a.u. = |F|     Fx             Fy             Fz     with/without FOR in case.in2
:FOR001:   1.ATOM         25.982          0.000          0.000        -25.982 partial forces
       TOTAL FORCE WITH RESPECT TO GLOBAL CARTESIAN COORDINATES:
:FCA001:   1.ATOM                         0.000        -25.982          0.000 partial forces
       TOTAL FORCE WITH RESPECT TO THE GLOBAL COORDINATE SYSTEM:
:FGL001:   1.ATOM                 0.000000000   -25.981944084     0.000000000 partial forces
 Flat Integration
 New Mode for Coulomb Integral
 Consistent 3/8+Simpson combinations
 Extension of core to zero
 LDM version in phi
 Fifth-order quadrature in outwin


            ---------
:ITE015: 15. ITERATION
            ---------

:NATO :    1 INDEPENDENT AND    2 TOTAL ATOMS IN UNITCELL
       SUBSTANCE: aU                                                          

       LATTICE                      = CXY 
:POT  : POTENTIAL OPTION EX_LDA EC_LDA VX_LDA VC_LDA
:LAT  : LATTICE CONSTANTS=  4.78180  9.70348  8.37722    1.571    1.571    1.571
:VOL  : UNIT CELL VOLUME =     194.35200
       MODE OF CALCULATION IS       = RELA
       NON-SPINPOLARIZED CALCULATION
:IFFT  : FFT-parameters:   40   80   64 Factor: 2.00


   CONVERGENCE PARAMETER FOR PSEUDOCHARGE: NCON=  9
   MAXIMAL VALUE OF RMT(JATOM)*ABSK(NKK) : RK  =27.59997


:VKCOUL :  VK-COUL convergence: 0.154E-06
       ATOMNUMBER=  1 Pr1        VCOUL-ZERO =  0.10912E+01
:EFG001:                        EFG         =     8.98116   *10**21  V / m**2
                               V20  TOT/SRF=    -0.35523    -0.11790
                               V22  TOT/SRF=    -8.77606    -0.00710
                               V22M TOT/SRF=     0.00000     0.00000
                               V21  TOT/SRF=     0.00000     0.00000
                               V21M TOT/SRF=     0.00000     0.00000

             -8.57097    0.00000    0.00000       -8.57097    0.00000    0.00000
              0.00000    8.98116    0.00000        0.00000    8.98116    0.00000
              0.00000    0.00000   -0.41019        0.00000    0.00000   -0.41019

         MAIN DIRECTIONS OF THE EFG   1.0000  0.0000  0.0000
                                      0.0000  1.0000  0.0000
                                      0.0000  0.0000  1.0000
:ANG001:  ANGLE WITH OLD X-AXIS =         0.0

:ETA001:                         ASYMM. ETA =     0.90866


     HELLMANN-FEYNMAN-FORCE IN mRy/a.u. = |F|  Fx       Fy             Fz
:FHF001:   1.ATOM   1185.135784235855      0.000000000000      0.000000000000  -1185.135784235855

:FIT001: LUSE= 13 SIGMA OF V-XC FIT FOR ATOM  1  0.6459832E-03
:FIT001: LUSE= 13 SIGMA OF V-XC FIT FOR ATOM  1  0.6459832E-03
:DEN  : DENSITY INTEGRAL  =        -14280.61883322   (Ry)
       ELS_POTENTIAL_AT Z=0 and Z=0.5:   1.25515   1.25515
       ELS_POTENTIAL_AT Y=0 and Y=0.5:  -0.10464  -0.10464
:VZERO:v0,v0c,v0x   0.36187   1.25515  -0.89328 v5,v5c,v5x   0.36187   1.25515  -0.89328
:VZERY:v0,v0c,v0x  -1.21833  -0.10464  -1.11369 v5,v5c,v5x  -1.21833  -0.10464  -1.11369
:VZERX:v0,v0c,v0x  -1.42309  -0.38600  -1.03709 v5,v5c,v5x  -1.42309  -0.38600  -1.03709
:LMAX-WF:   10   Non-Spherical LMAX:   4

          ATOMIC SPHERE DEPENDENT PARAMETERS FOR ATOM  Pr1       
:e__0001: OVERALL ENERGY PARAMETER IS    1.4927
          OVERALL BASIS SET ON ATOM IS LAPW
:E0_0001: E( 0)=    1.4927
             APW+lo
:E0_0001: E( 0)=   -0.9230   E(BOTTOM)=   -1.582   E(TOP)=   -0.265  4  5   287
             LOCAL ORBITAL
:E1_0001: E( 1)=    1.8927
             APW+lo
:E1_0001: E( 1)=    0.5350   E(BOTTOM)=   -0.453   E(TOP)=    1.523  3  4   294
             LOCAL ORBITAL
:E3_0001: E( 3)=    1.7439   E(BOTTOM)=    1.523   E(TOP)=    1.964  0  1   123
             APW+lo
:E2_0001: E( 2)=    1.4927   E(BOTTOM)=    1.266   E(TOP)= -200.000  2 -1   123
             APW+lo

       K=   0.06250   0.00000   0.06250            1
:RKM  : MATRIX SIZE   197LOs:  40  RKM= 8.43  WEIGHT= 4.00  PGR:    
       EIGENVALUES ARE:
:EIG00001:      -1.1191691   -0.8999189   -0.0047492    0.5151377    0.6490109
:EIG00006:       0.6975214    0.7420541    0.7573383    1.4893567    1.6172639
:EIG00011:       1.6253508    1.6299456    1.6617093    1.7036983    1.7300105
:EIG00016:       1.7416742    1.7625249    1.7732047    1.7850615    1.8001105
:EIG00021:       1.8112019    1.8233590    1.8554348    1.8681255    1.8953933
:EIG00026:       1.9704127    2.0022847    2.0268902    2.1140765    2.1768693
:EIG00031:       2.3093979    2.5234608    2.6882421    2.7349989    2.9619334
:EIG00036:       3.0034306    3.0561189    3.3925263    3.4912168    3.7761119
:EIG00041:       3.9329754    3.9940705    4.1356183    4.2568703    4.3987018
:EIG00046:       4.4063576    4.4669073    4.6536843    4.6810602    4.8120319
 
:EIG00051:       4.9974183    5.2167943    5.3988064    5.4868555    5.6127085
:EIG00056:       5.7568673    5.8457087    5.9204475    5.9886407    6.1071385
:EIG00061:       6.2234356    6.2390613    6.4622403    6.4670362    6.4844035
:EIG00066:       6.5968868    6.6729406    6.7858784    6.8379397    6.9327046
:EIG00071:       6.9647621    7.1305782    7.1502929    7.1908615    7.1984942
:EIG00076:       7.2192007    7.2816069    7.3727870    7.3813943    7.4522799
:EIG00081:       7.4594020    7.5704782    7.6473141    7.7849780    7.8849366
:EIG00086:       7.9544701    8.0077995    8.1167220    8.1481716    8.2816961
:EIG00091:       8.4277249    8.4929207    8.5184692    8.5394123    8.6108275
:EIG00096:       8.6840092    8.7399878    8.8576892    8.9646134    9.0096839
 
:EIG00101:       9.0475578    9.0751916    9.1492572
       ********************************************************

:KPT   :      NUMBER OF K-POINTS:   288
   0.0   0.0 angle (M,z), angle (M,x) deg
 
        SPIN-ORBIT EIGENVALUES:
     K=   0.06250   0.00000   0.06250            1
      MATRIX SIZE=  206   WEIGHT= 4.00
     EIGENVALUES ARE:
          -1.1191787   -1.1191787   -0.8999341   -0.8999341   -0.0201249
          -0.0201249    0.4950204    0.4950204    0.5256227    0.5256227
           0.7497943    0.7497943    0.7780018    0.7780018    0.8070785
           0.8070785    1.4894028    1.4894028    1.6166653    1.6166653
           1.6245273    1.6245273    1.6292062    1.6292062    1.6611634
           1.6611634    1.7026413    1.7026413    1.7291441    1.7291441
           1.7396362    1.7396362    1.7600518    1.7600518    1.7729975
           1.7729975    1.7868928    1.7868928    1.8018061    1.8018061

           1.8120879    1.8120879    1.8242377    1.8242377    1.8559589
           1.8559589    1.8693628    1.8693628    1.8965194    1.8965194
           1.9702279    1.9702279    2.0010311    2.0010311    2.0286244
           2.0286245    2.1146754    2.1146754    2.1770649    2.1770649
           2.3096800    2.3096800    2.5237016    2.5237016    2.6879998
           2.6879998    2.7355321    2.7355321    2.9627590    2.9627590
           3.0036742    3.0036742    3.0562193    3.0562193    3.3924117
           3.3924117    3.4907389    3.4907389    3.7754809    3.7754809

           3.9329491    3.9329491    3.9945645    3.9945645    4.1362245
           4.1362245    4.2565720    4.2565720    4.3982497    4.3982497
           4.4063162    4.4063162    4.4673034    4.4673034
       ********************************************************
:GAP (global)   :    0.0    Ry =     0.0   eV (metal)
:GAP (this spin):    0.0    Ry =     0.0   eV (metal)
         Bandranges (emin - emax) and occupancy:
:BAN00022:  22    1.491305    1.691175  1.00000000
:BAN00023:  23    1.546226    1.703644  0.94736092
:BAN00024:  24    1.546226    1.703644  0.94736092
:BAN00025:  25    1.620201    1.744165  0.60501920
:BAN00026:  26    1.620201    1.744165  0.60501919
:BAN00027:  27    1.646626    1.762108  0.34687615
:BAN00028:  28    1.646626    1.762108  0.34687614
:BAN00029:  29    1.664238    1.766160  0.09840091
:BAN00030:  30    1.664238    1.766160  0.09840090
:BAN00031:  31    1.690154    1.773213  0.00234284
:BAN00032:  32    1.690154    1.773213  0.00234284
:BAN00033:  33    1.742951    1.794698  0.00000000
:BAN00034:  34    1.742951    1.794698  0.00000000
:BAN00035:  35    1.761975    1.805351  0.00000000
:BAN00036:  36    1.761975    1.805351  0.00000000
:BAN00037:  37    1.779026    1.820137  0.00000000
        Energy to separate low and high energystates:    1.23772


:NOE  : NUMBER OF ELECTRONS          =   26.000

:FER  : F E R M I - ENERGY(TETRAH.M.)=   1.6928479200
:GMA  : POTENTIAL AND CHARGE CUT-OFF  12.00 Ry**.5

:POS001: ATOM   -1 X,Y,Z = 0.00000 0.89750 0.25000  MULT= 2  ZZ= 59.000  Pr1       

       LMMAX 16
       LM=   0 0  1 0  2 0  2 2  3 0  3 2  4 0  4 2  4 4  5 0  5 2  5 4  6 0  6 2  6 4  6 6

:CHA001: TOTAL VALENCE CHARGE INSIDE SPHERE   1 =  10.4127    (RMT=  2.3000 )
:PCS001: PARTIAL CHARGES SPHERE =  1 S,P,D,F,PX,PY,PZ,D-Z2,D-X2Y2,D-XY,D-XZ,D-YZ 
:QTL001: 1.9235 4.9550 1.2248 2.2917 1.6578 1.6478 1.6494 0.2403 0.2208 0.2540 0.2521 0.2575
        Q-s-low E-s-low   Q-p-low E-p-low   Q-d-low E-d-low   Q-f-low E-f-low
:EPL001:  1.8794 -0.8651    4.8233  0.3962    0.1162  0.3608    0.0436  0.3855
        Q-s-hi  E-s-hi    Q-p-hi  E-p-hi    Q-d-hi  E-d-hi    Q-f-hi  E-f-hi 
:EPH001:  0.0441  1.5487    0.1317  1.5691    1.1086  1.5345    2.2482  1.6235

                      VXX         VYY         VZZ       UP TO R
:VZZ001:            -8.52950     8.86585    -0.33635       2.300

:CHA  : TOTAL VALENCE CHARGE INSIDE UNIT CELL =      26.000000

:SUM  : SUM OF EIGENVALUES =          16.859332515


        1.ATOM      Pr1                  14 CORE STATES
       CORE-FORCE in mRy/a.u. = |F|      Fx             Fy             Fz
:FCO001:   1.ATOM   1159.105521203420      0.000000000000      0.000000000000   1159.105521203420

:1S 001: 1S               -3065.833580425 Ry
:2S 001: 2S                -491.582701293 Ry
:2PP001: 2P*               -464.681525650 Ry
:2P 001: 2P                -429.284089850 Ry
:3S 001: 3S                -104.683386953 Ry
:3PP001: 3P*                -93.220842920 Ry
:3P 001: 3P                 -86.213241698 Ry
:3DD001: 3D*                -66.138535249 Ry
:3D 001: 3D                 -64.627127789 Ry
:4S 001: 4S                 -19.352177123 Ry
:4PP001: 4P*                -15.058281309 Ry
:4P 001: 4P                 -13.529893205 Ry
:4DD001: 4D*                 -6.461449006 Ry
:4D 001: 4D                  -6.191799062 Ry
:CINT001 Core Integral Atom   1   45.998385

       DENSITY AT NUCLEUS
        JATOM        VALENCE       SEMI-CORE          CORE           TOTAL
:RTO001:   1      631.116831        0.000000   656826.101897   657457.218728
     
       CHARGES OF NEW CHARGE DENSITY
:NTO   : INTERSTITIAL CHARGE =     5.174651
:NPC   : PW Pseudocharge     =    18.690357
:NTO001: CHARGE SPHERE  1    =    56.411043

:NEC01: NUCLEAR AND ELECTRONIC CHARGE    118.00000   117.99674
     
       CHARGES OF OLD CHARGE DENSITY
:OTO   : INTERSTITIAL CHARGE =     5.174256
:OPC   : PW Pseudocharge     =    18.707955
:OTO001: CHARGE SPHERE  1    =    56.412872

:NEC02: NUCLEAR AND ELECTRONIC CHARGE    118.00000   118.00000
     
       CONVERGENCE TEST
:DTO001: DIFFERENCE IN SPHERE  1 =  0.0045119

:DIS  :  CHARGE DISTANCE       ( 0.0045119 for atom    1 spin 1)      0.0045119
 PW Mixed is          216
 
******************************************************
* MULTISECANT MIXING VER9 RELEASE 10.4.0              *
* Standard Mode with controls                        *
* Fixed density scale                                *
* Restart from converged density                     *
* Regularization       1.000E-04                     *
* Trust Upper Limit    5.000E+00                     *
* Max Number of Memory Steps    8                    *
******************************************************
 
:INFO : Forcing a restart
:PWTMP   9.2422E+01  1.9467E+02  1.9435E+02
:PLANE:  PW TOTAL      5.3519 DISTAN   1.99E-03  3.72E-02 %
:CHARG:  CLM/ATOM   1381.9270 DISTAN   8.01E-03  5.80E-04 %
 
Step History
        DMIX         DMIXT        Red     Pred      Trust     Lambda    MagRel    MagAbs     Beta
  1   3.5000E-02   3.5000E-02 -1.00E+00  1.00E+00 -1.00E+01  1.00E+00  3.50E-02  3.50E-02  1.00E+00
  2   1.5000E-01   1.5000E-01 -1.00E+00  1.00E+00 -1.00E+01  1.00E+00  1.50E-01  2.89E-03  1.00E+00
:JACOBIANS    2.347E-02   9.919E-02
  
:NORMS:  1/Froebius, Min, Max, Used   0.8096E-01  0.8096E-01  0.2444E+00  0.8096E-01
:INFO :  Number of Memory Steps    1 Skipping    0
:PREDicted Charge, CTotal, PW Trust    1.559E-04   3.118E-04   4.732E-03
:PREDicted DMix, Beta, BLim   5.0000E-02  1.4169E+00  2.8980E+00

Eigenvalues, unscaled except for SY+YY
   #     SY Real        SY Imag          SS             YY         SY+YY Real      SY+YY Imag
   1   2.443737E-01   0.000000E+00   8.096062E-02   1.000000E+00   1.244374E+00   0.000000E+00
 
:BLIM :  VZERO Control Off
:TRUST:  Step 3.00E+00  Charge 7.50E-02 (e) CTO  2.50E-01 (e) PW  3.50E-01 (e)
:DIRM :  MEMORY  1/8  SCALE   1.000 RED  0.43 PRED  1.00 NEXT  0.76 
:TRAVE:  Charge 1.61E-04 (e) CTO  3.21E-04 (e) PW  1.23E-03 (e)
:DIRP :  |MSR1|= 9.889E-04 |PRATT|= 1.991E-03 ANGLE=  40.4 DEGREES
:DIRQ :  |MSR1|= 1.372E-03 |PRATT|= 8.010E-03 ANGLE=  12.8 DEGREES
:DIRT :  |MSR1|= 1.691E-03 |PRATT|= 8.254E-03 ANGLE=  29.0 DEGREES
:MIX  :   MSR1   REGULARIZATION:  1.00E-04 GREED: 0.07125  Newton 1.00  0.2049                
     
       CHARGES OF MIXED CHARGE DENSITY
:CTO   : INTERSTITIAL CHARGE =     5.174577
:CPC   : PW Pseudocharge     =    18.705048
:CTO001: CHARGE SPHERE  1    =    56.412711

:NEC03: NUCLEAR AND ELECTRONIC CHARGE    118.00000   118.00000

PW CHANGE     H    K    L      Current       Change    Residue
:PTO001:      0    0    0  1.22867918E-01 -1.331E-05 -1.107E-05
:PTO003:      0    2    0  2.33500496E-02 -3.717E-06 -1.368E-05
:PTO004:     -1    1    0  9.98559768E-02 -1.255E-05 -3.969E-05
:PTO005:      0    2   -1 -1.12078916E-01  1.223E-05  3.359E-05
:PTO006:      0    0   -2 -5.77551610E-02  6.711E-06  2.058E-05
:PTO007:     -1    1   -1 -1.07372336E-01  1.030E-05  4.113E-05
:PTO008:      0    2   -2 -1.12454979E-02 -1.417E-06 -3.212E-06
:PTO009:     -1    1   -2 -5.42113698E-02 -1.052E-05 -8.413E-06
:PTO011:     -1    3    0 -6.35326962E-03 -3.820E-06 -4.826E-06
:PTO012:     -1    3   -1 -2.20744467E-02 -2.531E-05 -4.902E-05
:PTO013:      0    4    0 -2.86004190E-03 -6.274E-06 -1.329E-05
:PTO014:      0    2   -3  7.14930930E-03  1.345E-05  2.470E-05

:ENE  : ********** TOTAL ENERGY IN Ry =       -36944.25427767

       TOTAL FORCE IN mRy/a.u. = |F|     Fx             Fy             Fz     with/without FOR in case.in2
:FOR001:   1.ATOM         26.030          0.000          0.000        -26.030 partial forces
       TOTAL FORCE WITH RESPECT TO GLOBAL CARTESIAN COORDINATES:
:FCA001:   1.ATOM                         0.000        -26.030          0.000 partial forces
       TOTAL FORCE WITH RESPECT TO THE GLOBAL COORDINATE SYSTEM:
:FGL001:   1.ATOM                 0.000000000   -26.030263032     0.000000000 partial forces
 Flat Integration
 New Mode for Coulomb Integral
 Consistent 3/8+Simpson combinations
 Extension of core to zero
 LDM version in phi
 Fifth-order quadrature in outwin


            ---------
:ITE016: 16. ITERATION
            ---------

:NATO :    1 INDEPENDENT AND    2 TOTAL ATOMS IN UNITCELL
       SUBSTANCE: aU                                                          

       LATTICE                      = CXY 
:POT  : POTENTIAL OPTION EX_LDA EC_LDA VX_LDA VC_LDA
:LAT  : LATTICE CONSTANTS=  4.78180  9.70348  8.37722    1.571    1.571    1.571
:VOL  : UNIT CELL VOLUME =     194.35200
       MODE OF CALCULATION IS       = RELA
       NON-SPINPOLARIZED CALCULATION
:IFFT  : FFT-parameters:   40   80   64 Factor: 2.00


   CONVERGENCE PARAMETER FOR PSEUDOCHARGE: NCON=  9
   MAXIMAL VALUE OF RMT(JATOM)*ABSK(NKK) : RK  =27.59997


:VKCOUL :  VK-COUL convergence: 0.154E-06
       ATOMNUMBER=  1 Pr1        VCOUL-ZERO =  0.10911E+01
:EFG001:                        EFG         =     8.97506   *10**21  V / m**2
                               V20  TOT/SRF=    -0.36745    -0.11791
                               V22  TOT/SRF=    -8.76292    -0.00709
                               V22M TOT/SRF=     0.00000     0.00000
                               V21  TOT/SRF=     0.00000     0.00000
                               V21M TOT/SRF=     0.00000     0.00000

             -8.55077    0.00000    0.00000       -8.55077    0.00000    0.00000
              0.00000    8.97506    0.00000        0.00000    8.97506    0.00000
              0.00000    0.00000   -0.42429        0.00000    0.00000   -0.42429

         MAIN DIRECTIONS OF THE EFG   1.0000  0.0000  0.0000
                                      0.0000  1.0000  0.0000
                                      0.0000  0.0000  1.0000
:ANG001:  ANGLE WITH OLD X-AXIS =         0.0

:ETA001:                         ASYMM. ETA =     0.90545


     HELLMANN-FEYNMAN-FORCE IN mRy/a.u. = |F|  Fx       Fy             Fz
:FHF001:   1.ATOM   1186.130272469689      0.000000000000      0.000000000000  -1186.130272469689

:FIT001: LUSE= 13 SIGMA OF V-XC FIT FOR ATOM  1  0.6464340E-03
:FIT001: LUSE= 13 SIGMA OF V-XC FIT FOR ATOM  1  0.6464340E-03
:DEN  : DENSITY INTEGRAL  =        -14280.67290504   (Ry)
       ELS_POTENTIAL_AT Z=0 and Z=0.5:   1.25504   1.25504
       ELS_POTENTIAL_AT Y=0 and Y=0.5:  -0.10467  -0.10467
:VZERO:v0,v0c,v0x   0.36175   1.25504  -0.89329 v5,v5c,v5x   0.36175   1.25504  -0.89329
:VZERY:v0,v0c,v0x  -1.21831  -0.10467  -1.11364 v5,v5c,v5x  -1.21831  -0.10467  -1.11364
:VZERX:v0,v0c,v0x  -1.42301  -0.38592  -1.03709 v5,v5c,v5x  -1.42301  -0.38592  -1.03709
:LMAX-WF:   10   Non-Spherical LMAX:   4

          ATOMIC SPHERE DEPENDENT PARAMETERS FOR ATOM  Pr1       
:e__0001: OVERALL ENERGY PARAMETER IS    1.4928
          OVERALL BASIS SET ON ATOM IS LAPW
:E0_0001: E( 0)=    1.4928
             APW+lo
:E0_0001: E( 0)=   -0.9230   E(BOTTOM)=   -1.582   E(TOP)=   -0.264  4  5   292
             LOCAL ORBITAL
:E1_0001: E( 1)=    1.8928
             APW+lo
:E1_0001: E( 1)=    0.5351   E(BOTTOM)=   -0.453   E(TOP)=    1.523  3  4   295
             LOCAL ORBITAL
:E3_0001: E( 3)=    1.7441   E(BOTTOM)=    1.524   E(TOP)=    1.965  0  1   126
             APW+lo
:E2_0001: E( 2)=    1.4928   E(BOTTOM)=    1.266   E(TOP)= -200.000  2 -1   123
             APW+lo

       K=   0.06250   0.00000   0.06250            1
:RKM  : MATRIX SIZE   197LOs:  40  RKM= 8.43  WEIGHT= 4.00  PGR:    
       EIGENVALUES ARE:
:EIG00001:      -1.1191496   -0.8998765   -0.0047807    0.5151541    0.6490388
:EIG00006:       0.6975379    0.7420814    0.7573610    1.4893054    1.6173781
:EIG00011:       1.6255055    1.6301257    1.6618648    1.7038713    1.7300446
:EIG00016:       1.7418984    1.7627623    1.7734581    1.7853000    1.8003542
:EIG00021:       1.8114074    1.8236194    1.8556242    1.8684247    1.8955456
:EIG00026:       1.9705014    2.0022699    2.0269575    2.1140852    2.1768714
:EIG00031:       2.3094026    2.5234740    2.6882695    2.7349892    2.9619492
:EIG00036:       3.0034410    3.0561106    3.3924889    3.4911834    3.7760809
:EIG00041:       3.9329356    3.9940422    4.1355652    4.2568134    4.3986445
:EIG00046:       4.4062910    4.4668543    4.6536124    4.6809915    4.8119531
 
:EIG00051:       4.9973513    5.2167334    5.3987395    5.4867911    5.6126567
:EIG00056:       5.7568109    5.8456666    5.9203507    5.9885521    6.1070725
:EIG00061:       6.2233749    6.2390066    6.4621615    6.4669416    6.4843132
:EIG00066:       6.5968207    6.6728710    6.7857916    6.8378866    6.9326141
:EIG00071:       6.9646713    7.1304849    7.1501942    7.1907738    7.1984011
:EIG00076:       7.2191087    7.2815186    7.3727048    7.3813127    7.4521860
:EIG00081:       7.4593186    7.5703824    7.6472390    7.7848856    7.8848339
:EIG00086:       7.9543643    8.0076923    8.1166247    8.1480653    8.2816102
:EIG00091:       8.4276242    8.4928280    8.5183715    8.5393115    8.6107312
:EIG00096:       8.6839048    8.7398928    8.8575884    8.9645039    9.0095810
 
:EIG00101:       9.0474684    9.0750876    9.1491485
       ********************************************************

:KPT   :      NUMBER OF K-POINTS:   288
   0.0   0.0 angle (M,z), angle (M,x) deg
 
        SPIN-ORBIT EIGENVALUES:
     K=   0.06250   0.00000   0.06250            1
      MATRIX SIZE=  206   WEIGHT= 4.00
     EIGENVALUES ARE:
          -1.1191593   -1.1191593   -0.8998917   -0.8998917   -0.0201532
          -0.0201532    0.4950382    0.4950382    0.5256533    0.5256533
           0.7498132    0.7498132    0.7780210    0.7780210    0.8070999
           0.8070999    1.4893517    1.4893517    1.6167811    1.6167811
           1.6246829    1.6246829    1.6293869    1.6293869    1.6613195
           1.6613195    1.7028175    1.7028175    1.7291853    1.7291853
           1.7398601    1.7398601    1.7602858    1.7602858    1.7732427
           1.7732427    1.7871313    1.7871313    1.8020489    1.8020489

           1.8122916    1.8122916    1.8244961    1.8244961    1.8561491
           1.8561491    1.8696605    1.8696605    1.8966724    1.8966724
           1.9703173    1.9703173    2.0010246    2.0010246    2.0286855
           2.0286855    2.1146837    2.1146837    2.1770671    2.1770671
           2.3096847    2.3096847    2.5237148    2.5237148    2.6880269
           2.6880269    2.7355229    2.7355229    2.9627745    2.9627745
           3.0036846    3.0036846    3.0562111    3.0562111    3.3923743
           3.3923743    3.4907055    3.4907055    3.7754499    3.7754499

           3.9329093    3.9329093    3.9945361    3.9945361    4.1361715
           4.1361715    4.2565152    4.2565152    4.3981916    4.3981916
           4.4062504    4.4062504    4.4672504    4.4672504
       ********************************************************
:GAP (global)   :    0.0    Ry =     0.0   eV (metal)
:GAP (this spin):    0.0    Ry =     0.0   eV (metal)
         Bandranges (emin - emax) and occupancy:
:BAN00022:  22    1.491262    1.691375  1.00000000
:BAN00023:  23    1.546241    1.703845  0.94736979
:BAN00024:  24    1.546241    1.703845  0.94736979
:BAN00025:  25    1.620299    1.744387  0.60504235
:BAN00026:  26    1.620299    1.744387  0.60504233
:BAN00027:  27    1.646774    1.762362  0.34695541
:BAN00028:  28    1.646774    1.762362  0.34695540
:BAN00029:  29    1.664409    1.766407  0.09828759
:BAN00030:  30    1.664409    1.766407  0.09828757
:BAN00031:  31    1.690342    1.773479  0.00234489
:BAN00032:  32    1.690342    1.773479  0.00234489
:BAN00033:  33    1.743178    1.794971  0.00000000
:BAN00034:  34    1.743178    1.794971  0.00000000
:BAN00035:  35    1.762229    1.805611  0.00000000
:BAN00036:  36    1.762229    1.805611  0.00000000
:BAN00037:  37    1.779257    1.820416  0.00000000
        Energy to separate low and high energystates:    1.23764


:NOE  : NUMBER OF ELECTRONS          =   26.000

:FER  : F E R M I - ENERGY(TETRAH.M.)=   1.6930417177
:GMA  : POTENTIAL AND CHARGE CUT-OFF  12.00 Ry**.5

:POS001: ATOM   -1 X,Y,Z = 0.00000 0.89750 0.25000  MULT= 2  ZZ= 59.000  Pr1       

       LMMAX 16
       LM=   0 0  1 0  2 0  2 2  3 0  3 2  4 0  4 2  4 4  5 0  5 2  5 4  6 0  6 2  6 4  6 6

:CHA001: TOTAL VALENCE CHARGE INSIDE SPHERE   1 =  10.4118    (RMT=  2.3000 )
:PCS001: PARTIAL CHARGES SPHERE =  1 S,P,D,F,PX,PY,PZ,D-Z2,D-X2Y2,D-XY,D-XZ,D-YZ 
:QTL001: 1.9235 4.9550 1.2256 2.2901 1.6578 1.6478 1.6494 0.2405 0.2210 0.2541 0.2523 0.2577
        Q-s-low E-s-low   Q-p-low E-p-low   Q-d-low E-d-low   Q-f-low E-f-low
:EPL001:  1.8794 -0.8650    4.8232  0.3962    0.1162  0.3608    0.0436  0.3855
        Q-s-hi  E-s-hi    Q-p-hi  E-p-hi    Q-d-hi  E-d-hi    Q-f-hi  E-f-hi 
:EPH001:  0.0441  1.5487    0.1318  1.5692    1.1093  1.5346    2.2465  1.6237

                      VXX         VYY         VZZ       UP TO R
:VZZ001:            -8.52671     8.86524    -0.33852       2.300

:CHA  : TOTAL VALENCE CHARGE INSIDE UNIT CELL =      26.000000

:SUM  : SUM OF EIGENVALUES =          16.860133198


        1.ATOM      Pr1                  14 CORE STATES
       CORE-FORCE in mRy/a.u. = |F|      Fx             Fy             Fz
:FCO001:   1.ATOM   1160.007881138661      0.000000000000      0.000000000000   1160.007881138661

:1S 001: 1S               -3065.832926304 Ry
:2S 001: 2S                -491.582034173 Ry
:2PP001: 2P*               -464.680861644 Ry
:2P 001: 2P                -429.283424718 Ry
:3S 001: 3S                -104.682716433 Ry
:3PP001: 3P*                -93.220171679 Ry
:3P 001: 3P                 -86.212572966 Ry
:3DD001: 3D*                -66.137863273 Ry
:3D 001: 3D                 -64.626456277 Ry
:4S 001: 4S                 -19.351689079 Ry
:4PP001: 4P*                -15.057805838 Ry
:4P 001: 4P                 -13.529436790 Ry
:4DD001: 4D*                 -6.461026876 Ry
:4D 001: 4D                  -6.191383442 Ry
:CINT001 Core Integral Atom   1   45.998385

       DENSITY AT NUCLEUS
        JATOM        VALENCE       SEMI-CORE          CORE           TOTAL
:RTO001:   1      631.103116        0.000000   656826.066072   657457.169188
     
       CHARGES OF NEW CHARGE DENSITY
:NTO   : INTERSTITIAL CHARGE =     5.176432
:NPC   : PW Pseudocharge     =    18.692160
:NTO001: CHARGE SPHERE  1    =    56.410151

:NEC01: NUCLEAR AND ELECTRONIC CHARGE    118.00000   117.99674
     
       CHARGES OF OLD CHARGE DENSITY
:OTO   : INTERSTITIAL CHARGE =     5.174577
:OPC   : PW Pseudocharge     =    18.705048
:OTO001: CHARGE SPHERE  1    =    56.412711

:NEC02: NUCLEAR AND ELECTRONIC CHARGE    118.00000   118.00000
     
       CONVERGENCE TEST
:DTO001: DIFFERENCE IN SPHERE  1 =  0.0026339

:DIS  :  CHARGE DISTANCE       ( 0.0026339 for atom    1 spin 1)      0.0026339
 PW Mixed is          216
 
******************************************************
* MULTISECANT MIXING VER9 RELEASE 10.4.0              *
* Standard Mode with controls                        *
* Fixed density scale                                *
* Regularization       1.000E-04                     *
* Trust Upper Limit    5.000E+00                     *
* Max Number of Memory Steps    8                    *
******************************************************
 
:PWTMP   9.2422E+01  1.9467E+02  1.9435E+02
:PLANE:  PW TOTAL      5.3514 DISTAN   1.59E-03  2.97E-02 %
:CHARG:  CLM/ATOM   1381.9270 DISTAN   5.52E-03  3.99E-04 %
 
Step History
        DMIX         DMIXT        Red     Pred      Trust     Lambda    MagRel    MagAbs     Beta
  1   3.5000E-02   3.5000E-02 -1.00E+00  1.00E+00 -1.00E+01  1.00E+00  3.50E-02  3.50E-02  1.00E+00
  2   1.5000E-01   1.5000E-01  4.29E-01  1.00E+00 -1.00E+01  1.00E+00  1.50E-01  2.89E-03  1.00E+00
  3   7.1250E-02   7.1250E-02 -1.00E+00  7.62E-01  3.00E+00  1.00E+00  2.05E-01  1.69E-03  1.00E+00
:JACOBIANS    7.019E-02   5.168E-01
  
:NORMS:  1/Froebius, Min, Max, Used   0.3195E+00  0.3186E+00  0.8333E+00  0.3327E+00
:INFO :  Number of Memory Steps    2 Skipping    0
:INFO :  SLambda=    0.9587253836  Max    0.9587253836
:PREDicted Charge, CTotal, PW Trust    2.300E-03   4.600E-03   7.070E-04
:PREDicted DMix, Beta, BLim   7.5541E-01  3.0361E+00  7.4289E-01

Eigenvalues, unscaled except for SY+YY
   #     SY Real        SY Imag          SS             YY         SY+YY Real      SY+YY Imag
   1   2.404599E-03   0.000000E+00   2.026008E-01   1.996502E+00   6.068417E-03   0.000000E+00
   2   5.321130E-01   0.000000E+00   1.574486E-03   3.497523E-03   2.506387E+00   0.000000E+00
 
:INFO :  Singular value  2.506E+00 Weight  1.000E+00 Projection -9.188E-04
:INFO :  Singular value  6.068E-03 Weight  9.989E-01 Projection  9.478E-02
:RANK :  ACTIVE   2.00/2  =  99.95 % ; YY RANK   2.00/2  =  99.84 %
 
:BLIM :  VZERO Control Off
:TRUST:  Step 4.00E+00  Charge 7.50E-02 (e) CTO  2.50E-01 (e) PW  3.50E-01 (e)
:DIRM :  MEMORY  2/8  SCALE   1.000 RED  0.70 PRED  0.76 NEXT  0.28 
:TRAVE:  Charge 1.08E-03 (e) CTO  2.16E-03 (e) PW  9.38E-04 (e)
:DIRP :  |MSR1|= 1.417E-03 |PRATT|= 1.589E-03 ANGLE=  26.5 DEGREES
:DIRQ :  |MSR1|= 4.666E-03 |PRATT|= 5.520E-03 ANGLE=   7.3 DEGREES
:DIRT :  |MSR1|= 4.877E-03 |PRATT|= 5.744E-03 ANGLE=  10.3 DEGREES
:MIX  :   MSD1   REGULARIZATION:  2.00E-04 GREED: 0.17813  Newton 1.00  0.8490                
     
       CHARGES OF MIXED CHARGE DENSITY
:CTO   : INTERSTITIAL CHARGE =     5.178583
:CPC   : PW Pseudocharge     =    18.702401
:CTO001: CHARGE SPHERE  1    =    56.410708

:NEC03: NUCLEAR AND ELECTRONIC CHARGE    118.00000   118.00000

PW CHANGE     H    K    L      Current       Change    Residue
:PTO001:      0    0    0  1.22874909E-01  6.991E-06  2.069E-05
:PTO003:      0    2    0  2.33409637E-02 -9.086E-06 -1.036E-05
:PTO004:     -1    1    0  9.98273328E-02 -2.864E-05 -2.857E-05
:PTO005:      0    2   -1 -1.12054502E-01  2.441E-05  2.332E-05
:PTO006:      0    0   -2 -5.77396116E-02  1.555E-05  1.540E-05
:PTO007:     -1    1   -1 -1.07339324E-01  3.301E-05  3.488E-05
:PTO008:      0    2   -2 -1.12480688E-02 -2.571E-06 -1.998E-06
:PTO009:     -1    1   -2 -5.42121052E-02 -7.354E-07  7.493E-06
:PTO011:     -1    3    0 -6.35587477E-03 -2.605E-06 -3.432E-07
:PTO012:     -1    3   -1 -2.21069615E-02 -3.251E-05 -2.102E-05
:PTO013:      0    4    0 -2.86914878E-03 -9.107E-06 -6.648E-06
:PTO014:      0    2   -3  7.16689570E-03  1.759E-05  1.127E-05

:ENE  : ********** TOTAL ENERGY IN Ry =       -36944.25426605

       TOTAL FORCE IN mRy/a.u. = |F|     Fx             Fy             Fz     with/without FOR in case.in2
:FOR001:   1.ATOM         26.122          0.000          0.000        -26.122 partial forces
       TOTAL FORCE WITH RESPECT TO GLOBAL CARTESIAN COORDINATES:
:FCA001:   1.ATOM                         0.000        -26.122          0.000 partial forces
       TOTAL FORCE WITH RESPECT TO THE GLOBAL COORDINATE SYSTEM:
:FGL001:   1.ATOM                 0.000000000   -26.122391331     0.000000000 partial forces
 Flat Integration
 New Mode for Coulomb Integral
 Consistent 3/8+Simpson combinations
 Extension of core to zero
 LDM version in phi
 Fifth-order quadrature in outwin


            ---------
:ITE017: 17. ITERATION
            ---------

:NATO :    1 INDEPENDENT AND    2 TOTAL ATOMS IN UNITCELL
       SUBSTANCE: aU                                                          

       LATTICE                      = CXY 
:POT  : POTENTIAL OPTION EX_LDA EC_LDA VX_LDA VC_LDA
:LAT  : LATTICE CONSTANTS=  4.78180  9.70348  8.37722    1.571    1.571    1.571
:VOL  : UNIT CELL VOLUME =     194.35200
       MODE OF CALCULATION IS       = RELA
       NON-SPINPOLARIZED CALCULATION
:IFFT  : FFT-parameters:   40   80   64 Factor: 2.00


   CONVERGENCE PARAMETER FOR PSEUDOCHARGE: NCON=  9
   MAXIMAL VALUE OF RMT(JATOM)*ABSK(NKK) : RK  =27.59997


:VKCOUL :  VK-COUL convergence: 0.152E-06
       ATOMNUMBER=  1 Pr1        VCOUL-ZERO =  0.10913E+01
:EFG001:                        EFG         =     8.94015   *10**21  V / m**2
                               V20  TOT/SRF=    -0.43219    -0.11796
                               V22  TOT/SRF=    -8.69062    -0.00702
                               V22M TOT/SRF=     0.00000     0.00000
                               V21  TOT/SRF=     0.00000     0.00000
                               V21M TOT/SRF=     0.00000     0.00000

             -8.44110    0.00000    0.00000       -8.44110    0.00000    0.00000
              0.00000    8.94015    0.00000        0.00000    8.94015    0.00000
              0.00000    0.00000   -0.49905        0.00000    0.00000   -0.49905

         MAIN DIRECTIONS OF THE EFG   1.0000  0.0000  0.0000
                                      0.0000  1.0000  0.0000
                                      0.0000  0.0000  1.0000
:ANG001:  ANGLE WITH OLD X-AXIS =         0.0

:ETA001:                         ASYMM. ETA =     0.88836


     HELLMANN-FEYNMAN-FORCE IN mRy/a.u. = |F|  Fx       Fy             Fz
:FHF001:   1.ATOM   1190.584832910082      0.000000000000      0.000000000000  -1190.584832910082

:FIT001: LUSE= 13 SIGMA OF V-XC FIT FOR ATOM  1  0.6486393E-03
:FIT001: LUSE= 13 SIGMA OF V-XC FIT FOR ATOM  1  0.6486393E-03
:DEN  : DENSITY INTEGRAL  =        -14280.66304515   (Ry)
       ELS_POTENTIAL_AT Z=0 and Z=0.5:   1.25536   1.25536
       ELS_POTENTIAL_AT Y=0 and Y=0.5:  -0.10488  -0.10488
:VZERO:v0,v0c,v0x   0.36190   1.25536  -0.89346 v5,v5c,v5x   0.36190   1.25536  -0.89346
:VZERY:v0,v0c,v0x  -1.21853  -0.10488  -1.11365 v5,v5c,v5x  -1.21853  -0.10488  -1.11365
:VZERX:v0,v0c,v0x  -1.42309  -0.38586  -1.03723 v5,v5c,v5x  -1.42309  -0.38586  -1.03723
:LMAX-WF:   10   Non-Spherical LMAX:   4

          ATOMIC SPHERE DEPENDENT PARAMETERS FOR ATOM  Pr1       
:e__0001: OVERALL ENERGY PARAMETER IS    1.4930
          OVERALL BASIS SET ON ATOM IS LAPW
:E0_0001: E( 0)=    1.4930
             APW+lo
:E0_0001: E( 0)=   -0.9231   E(BOTTOM)=   -1.582   E(TOP)=   -0.264  4  5   286
             LOCAL ORBITAL
:E1_0001: E( 1)=    1.8930
             APW+lo
:E1_0001: E( 1)=    0.5350   E(BOTTOM)=   -0.453   E(TOP)=    1.523  3  4   295
             LOCAL ORBITAL
:E3_0001: E( 3)=    1.7441   E(BOTTOM)=    1.524   E(TOP)=    1.965  0  1   121
             APW+lo
:E2_0001: E( 2)=    1.4930   E(BOTTOM)=    1.266   E(TOP)= -200.000  2 -1   124
             APW+lo

       K=   0.06250   0.00000   0.06250            1
:RKM  : MATRIX SIZE   197LOs:  40  RKM= 8.43  WEIGHT= 4.00  PGR:    
       EIGENVALUES ARE:
:EIG00001:      -1.1191900   -0.8999306   -0.0047826    0.5151396    0.6490155
:EIG00006:       0.6974699    0.7420412    0.7572939    1.4893973    1.6173815
:EIG00011:       1.6255454    1.6301672    1.6618586    1.7038986    1.7300801
:EIG00016:       1.7419130    1.7627704    1.7734664    1.7853516    1.8003707
:EIG00021:       1.8114029    1.8236562    1.8556671    1.8684486    1.8955581
:EIG00026:       1.9704961    2.0023419    2.0269921    2.1141336    2.1769212
:EIG00031:       2.3094367    2.5235271    2.6883054    2.7350747    2.9620971
:EIG00036:       3.0035715    3.0562669    3.3926203    3.4912754    3.7761344
:EIG00041:       3.9330224    3.9941307    4.1357003    4.2568957    4.3987644
:EIG00046:       4.4063762    4.4669739    4.6536961    4.6810864    4.8120869
 
:EIG00051:       4.9974083    5.2167839    5.3988105    5.4868589    5.6126536
:EIG00056:       5.7569089    5.8457602    5.9204578    5.9886663    6.1071693
:EIG00061:       6.2234187    6.2390468    6.4622719    6.4670145    6.4843875
:EIG00066:       6.5968957    6.6729167    6.7858493    6.8379447    6.9327390
:EIG00071:       6.9647384    7.1306038    7.1502833    7.1908507    7.1985024
:EIG00076:       7.2192139    7.2815966    7.3728233    7.3813991    7.4522937
:EIG00081:       7.4594223    7.5705018    7.6473565    7.7849966    7.8849206
:EIG00086:       7.9544926    8.0078167    8.1167398    8.1481871    8.2816776
:EIG00091:       8.4277714    8.4928668    8.5184447    8.5393861    8.6108129
:EIG00096:       8.6840075    8.7399484    8.8576839    8.9646191    9.0096941
 
:EIG00101:       9.0475631    9.0751753    9.1492734
       ********************************************************

:KPT   :      NUMBER OF K-POINTS:   288
   0.0   0.0 angle (M,z), angle (M,x) deg
 
        SPIN-ORBIT EIGENVALUES:
     K=   0.06250   0.00000   0.06250            1
      MATRIX SIZE=  206   WEIGHT= 4.00
     EIGENVALUES ARE:
          -1.1191997   -1.1191997   -0.8999458   -0.8999458   -0.0201579
          -0.0201579    0.4950159    0.4950159    0.5256102    0.5256102
           0.7497731    0.7497731    0.7779598    0.7779599    0.8070567
           0.8070567    1.4894435    1.4894435    1.6167845    1.6167845
           1.6247229    1.6247229    1.6294282    1.6294282    1.6613129
           1.6613129    1.7028449    1.7028449    1.7292191    1.7292191
           1.7398733    1.7398733    1.7603023    1.7603023    1.7732505
           1.7732505    1.7871783    1.7871783    1.8020653    1.8020653

           1.8122874    1.8122874    1.8245326    1.8245326    1.8561917
           1.8561917    1.8696848    1.8696848    1.8966849    1.8966849
           1.9703129    1.9703129    2.0010930    2.0010930    2.0287224
           2.0287225    2.1147323    2.1147323    2.1771169    2.1771169
           2.3097187    2.3097187    2.5237679    2.5237679    2.6880632
           2.6880632    2.7356082    2.7356082    2.9629223    2.9629223
           3.0038151    3.0038151    3.0563673    3.0563673    3.3925057
           3.3925057    3.4907977    3.4907977    3.7755035    3.7755035

           3.9329962    3.9329962    3.9946247    3.9946247    4.1363062
           4.1363062    4.2565977    4.2565977    4.3983097    4.3983097
           4.4063376    4.4063376    4.4673700    4.4673700
       ********************************************************
:GAP (global)   :    0.0    Ry =     0.0   eV (metal)
:GAP (this spin):    0.0    Ry =     0.0   eV (metal)
         Bandranges (emin - emax) and occupancy:
:BAN00022:  22    1.491339    1.691389  1.00000000
:BAN00023:  23    1.546274    1.703857  0.94742102
:BAN00024:  24    1.546274    1.703857  0.94742101
:BAN00025:  25    1.620363    1.744422  0.60500825
:BAN00026:  26    1.620363    1.744422  0.60500824
:BAN00027:  27    1.646779    1.762370  0.34695719
:BAN00028:  28    1.646779    1.762370  0.34695719
:BAN00029:  29    1.664459    1.766437  0.09828638
:BAN00030:  30    1.664459    1.766437  0.09828636
:BAN00031:  31    1.690390    1.773509  0.00232718
:BAN00032:  32    1.690390    1.773509  0.00232717
:BAN00033:  33    1.743192    1.795002  0.00000000
:BAN00034:  34    1.743192    1.795002  0.00000000
:BAN00035:  35    1.762250    1.805614  0.00000000
:BAN00036:  36    1.762250    1.805614  0.00000000
:BAN00037:  37    1.779276    1.820440  0.00000000
        Energy to separate low and high energystates:    1.23774


:NOE  : NUMBER OF ELECTRONS          =   26.000

:FER  : F E R M I - ENERGY(TETRAH.M.)=   1.6930635863
:GMA  : POTENTIAL AND CHARGE CUT-OFF  12.00 Ry**.5

:POS001: ATOM   -1 X,Y,Z = 0.00000 0.89750 0.25000  MULT= 2  ZZ= 59.000  Pr1       

       LMMAX 16
       LM=   0 0  1 0  2 0  2 2  3 0  3 2  4 0  4 2  4 4  5 0  5 2  5 4  6 0  6 2  6 4  6 6

:CHA001: TOTAL VALENCE CHARGE INSIDE SPHERE   1 =  10.4121    (RMT=  2.3000 )
:PCS001: PARTIAL CHARGES SPHERE =  1 S,P,D,F,PX,PY,PZ,D-Z2,D-X2Y2,D-XY,D-XZ,D-YZ 
:QTL001: 1.9235 4.9551 1.2255 2.2904 1.6578 1.6479 1.6494 0.2405 0.2210 0.2541 0.2523 0.2576
        Q-s-low E-s-low   Q-p-low E-p-low   Q-d-low E-d-low   Q-f-low E-f-low
:EPL001:  1.8794 -0.8651    4.8234  0.3962    0.1162  0.3607    0.0436  0.3854
        Q-s-hi  E-s-hi    Q-p-hi  E-p-hi    Q-d-hi  E-d-hi    Q-f-hi  E-f-hi 
:EPH001:  0.0441  1.5488    0.1318  1.5693    1.1093  1.5347    2.2468  1.6237

                      VXX         VYY         VZZ       UP TO R
:VZZ001:            -8.52620     8.83770    -0.31150       2.300

:CHA  : TOTAL VALENCE CHARGE INSIDE UNIT CELL =      26.000000

:SUM  : SUM OF EIGENVALUES =          16.860144970


        1.ATOM      Pr1                  14 CORE STATES
       CORE-FORCE in mRy/a.u. = |F|      Fx             Fy             Fz
:FCO001:   1.ATOM   1163.988709947453      0.000000000000      0.000000000000   1163.988709947453

:1S 001: 1S               -3065.833423100 Ry
:2S 001: 2S                -491.582392047 Ry
:2PP001: 2P*               -464.681251901 Ry
:2P 001: 2P                -429.283802937 Ry
:3S 001: 3S                -104.682791394 Ry
:3PP001: 3P*                -93.220261465 Ry
:3P 001: 3P                 -86.212648923 Ry
:3DD001: 3D*                -66.137979062 Ry
:3D 001: 3D                 -64.626566904 Ry
:4S 001: 4S                 -19.351626327 Ry
:4PP001: 4P*                -15.057748526 Ry
:4P 001: 4P                 -13.529382739 Ry
:4DD001: 4D*                 -6.460988349 Ry
:4D 001: 4D                  -6.191346596 Ry
:CINT001 Core Integral Atom   1   45.998385

       DENSITY AT NUCLEUS
        JATOM        VALENCE       SEMI-CORE          CORE           TOTAL
:RTO001:   1      631.109636        0.000000   656826.115603   657457.225239
     
       CHARGES OF NEW CHARGE DENSITY
:NTO   : INTERSTITIAL CHARGE =     5.175689
:NPC   : PW Pseudocharge     =    18.692190
:NTO001: CHARGE SPHERE  1    =    56.410523

:NEC01: NUCLEAR AND ELECTRONIC CHARGE    118.00000   117.99674
     
       CHARGES OF OLD CHARGE DENSITY
:OTO   : INTERSTITIAL CHARGE =     5.178583
:OPC   : PW Pseudocharge     =    18.702401
:OTO001: CHARGE SPHERE  1    =    56.410708

:NEC02: NUCLEAR AND ELECTRONIC CHARGE    118.00000   118.00000
     
       CONVERGENCE TEST
:DTO001: DIFFERENCE IN SPHERE  1 =  0.0003836

:DIS  :  CHARGE DISTANCE       ( 0.0003836 for atom    1 spin 1)      0.0003836
 PW Mixed is          216
 
******************************************************
* MULTISECANT MIXING VER9 RELEASE 10.4.0              *
* Standard Mode with controls                        *
* Fixed density scale                                *
* Regularization       1.000E-04                     *
* Trust Upper Limit    5.000E+00                     *
* Max Number of Memory Steps    8                    *
******************************************************
 
:PWTMP   9.2422E+01  1.9467E+02  1.9435E+02
:PLANE:  PW TOTAL      5.3511 DISTAN   6.82E-04  1.28E-02 %
:CHARG:  CLM/ATOM   1381.9263 DISTAN   9.48E-04  6.86E-05 %
 
Step History
        DMIX         DMIXT        Red     Pred      Trust     Lambda    MagRel    MagAbs     Beta
  1   3.5000E-02   3.5000E-02 -1.00E+00  1.00E+00 -1.00E+01  1.00E+00  3.50E-02  3.50E-02  1.00E+00
  2   1.5000E-01   1.5000E-01  4.29E-01  1.00E+00 -1.00E+01  1.00E+00  1.50E-01  2.89E-03  1.00E+00
  3   7.1250E-02   7.1250E-02  6.96E-01  7.62E-01  3.00E+00  9.59E-01  2.05E-01  1.69E-03  1.00E+00
  4   1.7813E-01   1.7813E-01 -1.00E+00  2.84E-01  4.00E+00  1.00E+00  8.49E-01  4.88E-03  1.00E+00
:JACOBIANS    9.382E-02   7.457E-01
  
:NORMS:  1/Froebius, Min, Max, Used   0.7205E+00  0.5599E+00  0.9495E+00  0.7899E+00
:INFO :  Number of Memory Steps    3 Skipping    0
:INFO :  SLambda=    0.8499399051  Max    0.8499399051
:PREDicted Charge, CTotal, PW Trust    2.106E-03   4.212E-03   7.679E-04
:PREDicted DMix, Beta, BLim   1.6997E-02  1.0268E+00  2.5748E+00

Eigenvalues, unscaled except for SY+YY
   #     SY Real        SY Imag          SS             YY         SY+YY Real      SY+YY Imag
   1   1.777293E+00   0.000000E+00   1.509962E+00   2.419916E+00   3.896089E+00   0.000000E+00
   2   1.529262E-01   0.000000E+00   4.738744E-02   5.800703E-01   7.444673E-01   0.000000E+00
   3   7.049037E-06   0.000000E+00   3.597705E-06   1.337050E-05   1.985831E-05   0.000000E+00
 
:INFO :  Singular value  3.897E+00 Weight  1.000E+00 Projection -3.349E-05
:INFO :  Singular value  7.443E-01 Weight  1.000E+00 Projection -5.162E-04
:INFO :  Singular value  1.986E-05 Weight  6.689E-03 Projection -1.980E-03
:RANK :  ACTIVE   2.01/3  =  66.89 % ; YY RANK   2.00/3  =  66.77 %
 
:BLIM :  VZERO Control Off
:TRUST:  Step 5.33E+00  Charge 7.50E-02 (e) CTO  2.50E-01 (e) PW  3.50E-01 (e)
:DIRM :  MEMORY  3/8  SCALE   1.000 RED  0.20 PRED  0.28 NEXT  0.96 
:TRAVE:  Charge 5.89E-04 (e) CTO  1.18E-03 (e) PW  5.54E-04 (e)
:DIRP :  |MSR1|= 1.020E-04 |PRATT|= 6.824E-04 ANGLE=  25.0 DEGREES
:DIRQ :  |MSR1|= 2.092E-04 |PRATT|= 9.480E-04 ANGLE=  47.2 DEGREES
:DIRT :  |MSR1|= 2.327E-04 |PRATT|= 1.168E-03 ANGLE=  43.3 DEGREES
:MIX  :   MSD1   REGULARIZATION:  2.42E-04 GREED: 0.07350  Newton 1.00  0.1992                
     
       CHARGES OF MIXED CHARGE DENSITY
:CTO   : INTERSTITIAL CHARGE =     5.178776
:CPC   : PW Pseudocharge     =    18.702567
:CTO001: CHARGE SPHERE  1    =    56.410612

:NEC03: NUCLEAR AND ELECTRONIC CHARGE    118.00000   118.00000

PW CHANGE     H    K    L      Current       Change    Residue
:PTO001:      0    0    0  1.22876752E-01  1.843E-06  1.004E-05
:PTO003:      0    2    0  2.33412704E-02  3.067E-07  6.405E-06
:PTO004:     -1    1    0  9.98273460E-02  1.321E-08  7.743E-06
:PTO005:      0    2   -1 -1.12054781E-01 -2.789E-07 -8.725E-06
:PTO006:      0    0   -2 -5.77395550E-02  5.662E-08 -3.436E-06
:PTO007:     -1    1   -1 -1.07338248E-01  1.075E-06  1.714E-06
:PTO008:      0    2   -2 -1.12480948E-02 -2.605E-08  1.511E-07
:PTO009:     -1    1   -2 -5.42106374E-02  1.468E-06  1.124E-05
:PTO011:     -1    3    0 -6.35551255E-03  3.622E-07  3.258E-06
:PTO012:     -1    3   -1 -2.21062451E-02  7.164E-07  9.562E-06
:PTO013:      0    4    0 -2.86902764E-03  1.211E-07  2.269E-06
:PTO014:      0    2   -3  7.16663431E-03 -2.614E-07 -3.676E-06

:ENE  : ********** TOTAL ENERGY IN Ry =       -36944.25425730

       TOTAL FORCE IN mRy/a.u. = |F|     Fx             Fy             Fz     with/without FOR in case.in2
:FOR001:   1.ATOM         26.596          0.000          0.000        -26.596 partial forces
       TOTAL FORCE WITH RESPECT TO GLOBAL CARTESIAN COORDINATES:
:FCA001:   1.ATOM                         0.000        -26.596          0.000 partial forces
       TOTAL FORCE WITH RESPECT TO THE GLOBAL COORDINATE SYSTEM:
:FGL001:   1.ATOM                 0.000000000   -26.596122963     0.000000000 partial forces
 Flat Integration
 New Mode for Coulomb Integral
 Consistent 3/8+Simpson combinations
 Extension of core to zero
 LDM version in phi
 Fifth-order quadrature in outwin


            ---------
:ITE018: 18. ITERATION
            ---------

:NATO :    1 INDEPENDENT AND    2 TOTAL ATOMS IN UNITCELL
       SUBSTANCE: aU                                                          

       LATTICE                      = CXY 
:POT  : POTENTIAL OPTION EX_LDA EC_LDA VX_LDA VC_LDA
:LAT  : LATTICE CONSTANTS=  4.78180  9.70348  8.37722    1.571    1.571    1.571
:VOL  : UNIT CELL VOLUME =     194.35200
       MODE OF CALCULATION IS       = RELA
       NON-SPINPOLARIZED CALCULATION
:IFFT  : FFT-parameters:   40   80   64 Factor: 2.00


   CONVERGENCE PARAMETER FOR PSEUDOCHARGE: NCON=  9
   MAXIMAL VALUE OF RMT(JATOM)*ABSK(NKK) : RK  =27.59997


:VKCOUL :  VK-COUL convergence: 0.152E-06
       ATOMNUMBER=  1 Pr1        VCOUL-ZERO =  0.10913E+01
:EFG001:                        EFG         =     8.93656   *10**21  V / m**2
                               V20  TOT/SRF=    -0.43395    -0.11795
                               V22  TOT/SRF=    -8.68602    -0.00702
                               V22M TOT/SRF=     0.00000     0.00000
                               V21  TOT/SRF=     0.00000     0.00000
                               V21M TOT/SRF=     0.00000     0.00000

             -8.43548    0.00000    0.00000       -8.43548    0.00000    0.00000
              0.00000    8.93656    0.00000        0.00000    8.93656    0.00000
              0.00000    0.00000   -0.50108        0.00000    0.00000   -0.50108

         MAIN DIRECTIONS OF THE EFG   1.0000  0.0000  0.0000
                                      0.0000  1.0000  0.0000
                                      0.0000  0.0000  1.0000
:ANG001:  ANGLE WITH OLD X-AXIS =         0.0

:ETA001:                         ASYMM. ETA =     0.88786


     HELLMANN-FEYNMAN-FORCE IN mRy/a.u. = |F|  Fx       Fy             Fz
:FHF001:   1.ATOM   1190.453730204647      0.000000000000      0.000000000000  -1190.453730204647

:FIT001: LUSE= 13 SIGMA OF V-XC FIT FOR ATOM  1  0.6487923E-03
:FIT001: LUSE= 13 SIGMA OF V-XC FIT FOR ATOM  1  0.6487923E-03
:DEN  : DENSITY INTEGRAL  =        -14280.66116811   (Ry)
       ELS_POTENTIAL_AT Z=0 and Z=0.5:   1.25539   1.25539
       ELS_POTENTIAL_AT Y=0 and Y=0.5:  -0.10488  -0.10488
:VZERO:v0,v0c,v0x   0.36192   1.25539  -0.89347 v5,v5c,v5x   0.36192   1.25539  -0.89347
:VZERY:v0,v0c,v0x  -1.21854  -0.10488  -1.11366 v5,v5c,v5x  -1.21854  -0.10488  -1.11366
:VZERX:v0,v0c,v0x  -1.42311  -0.38587  -1.03724 v5,v5c,v5x  -1.42311  -0.38587  -1.03724
:LMAX-WF:   10   Non-Spherical LMAX:   4

          ATOMIC SPHERE DEPENDENT PARAMETERS FOR ATOM  Pr1       
:e__0001: OVERALL ENERGY PARAMETER IS    1.4930
          OVERALL BASIS SET ON ATOM IS LAPW
:E0_0001: E( 0)=    1.4930
             APW+lo
:E0_0001: E( 0)=   -0.9231   E(BOTTOM)=   -1.582   E(TOP)=   -0.264  4  5   290
             LOCAL ORBITAL
:E1_0001: E( 1)=    1.8930
             APW+lo
:E1_0001: E( 1)=    0.5350   E(BOTTOM)=   -0.453   E(TOP)=    1.523  3  4   297
             LOCAL ORBITAL
:E3_0001: E( 3)=    1.7441   E(BOTTOM)=    1.524   E(TOP)=    1.965  0  1   118
             APW+lo
:E2_0001: E( 2)=    1.4930   E(BOTTOM)=    1.266   E(TOP)= -200.000  2 -1   121
             APW+lo

       K=   0.06250   0.00000   0.06250            1
:RKM  : MATRIX SIZE   197LOs:  40  RKM= 8.43  WEIGHT= 4.00  PGR:    
       EIGENVALUES ARE:
:EIG00001:      -1.1191826   -0.8999251   -0.0047707    0.5151450    0.6490201
:EIG00006:       0.6974783    0.7420485    0.7573016    1.4894111    1.6173878
:EIG00011:       1.6255493    1.6301694    1.6618641    1.7039008    1.7300902
:EIG00016:       1.7419147    1.7627706    1.7734664    1.7853510    1.8003711
:EIG00021:       1.8114058    1.8236548    1.8556699    1.8684455    1.8955623
:EIG00026:       1.9705033    2.0023534    2.0270001    2.1141440    2.1769314
:EIG00031:       2.3094486    2.5235385    2.6883147    2.7350893    2.9621110
:EIG00036:       3.0035857    3.0562812    3.3926359    3.4912900    3.7761465
:EIG00041:       3.9330373    3.9941440    4.1357155    4.2569118    4.3987791
:EIG00046:       4.4063935    4.4669872    4.6537128    4.6811010    4.8121034
 
:EIG00051:       4.9974193    5.2167940    5.3988249    5.4868712    5.6126607
:EIG00056:       5.7569221    5.8457724    5.9204734    5.9886816    6.1071836
:EIG00061:       6.2234262    6.2390561    6.4622872    6.4670284    6.4844007
:EIG00066:       6.5969072    6.6729242    6.7858613    6.8379535    6.9327549
:EIG00071:       6.9647517    7.1306188    7.1502977    7.1908643    7.1985184
:EIG00076:       7.2192276    7.2816080    7.3728382    7.3814143    7.4523070
:EIG00081:       7.4594364    7.5705181    7.6473707    7.7850088    7.8849362
:EIG00086:       7.9545086    8.0078331    8.1167547    8.1482025    8.2816859
:EIG00091:       8.4277881    8.4928751    8.5184561    8.5393979    8.6108233
:EIG00096:       8.6840214    8.7399567    8.8576979    8.9646344    9.0097085
 
:EIG00101:       9.0475756    9.0751886    9.1492901
       ********************************************************

:KPT   :      NUMBER OF K-POINTS:   288
   0.0   0.0 angle (M,z), angle (M,x) deg
 
        SPIN-ORBIT EIGENVALUES:
     K=   0.06250   0.00000   0.06250            1
      MATRIX SIZE=  206   WEIGHT= 4.00
     EIGENVALUES ARE:
          -1.1191923   -1.1191923   -0.8999403   -0.8999403   -0.0201463
          -0.0201463    0.4950216    0.4950216    0.5256159    0.5256159
           0.7497799    0.7497799    0.7779676    0.7779676    0.8070644
           0.8070644    1.4894573    1.4894573    1.6167907    1.6167907
           1.6247268    1.6247268    1.6294304    1.6294304    1.6613183
           1.6613183    1.7028469    1.7028469    1.7292289    1.7292289
           1.7398750    1.7398750    1.7603026    1.7603026    1.7732509
           1.7732509    1.7871778    1.7871778    1.8020657    1.8020657

           1.8122903    1.8122903    1.8245313    1.8245313    1.8561945
           1.8561945    1.8696817    1.8696817    1.8966890    1.8966890
           1.9703200    1.9703200    2.0011042    2.0011042    2.0287307
           2.0287307    2.1147427    2.1147427    2.1771271    2.1771271
           2.3097307    2.3097307    2.5237793    2.5237793    2.6880725
           2.6880725    2.7356227    2.7356227    2.9629362    2.9629362
           3.0038293    3.0038293    3.0563816    3.0563816    3.3925213
           3.3925213    3.4908122    3.4908122    3.7755155    3.7755155

           3.9330111    3.9330111    3.9946380    3.9946380    4.1363213
           4.1363213    4.2566137    4.2566137    4.3983245    4.3983245
           4.4063547    4.4063547    4.4673833    4.4673833
       ********************************************************
:GAP (global)   :    0.0    Ry =     0.0   eV (metal)
:GAP (this spin):    0.0    Ry =     0.0   eV (metal)
         Bandranges (emin - emax) and occupancy:
:BAN00022:  22    1.491354    1.691390  1.00000000
:BAN00023:  23    1.546286    1.703859  0.94742297
:BAN00024:  24    1.546286    1.703859  0.94742296
:BAN00025:  25    1.620369    1.744422  0.60500772
:BAN00026:  26    1.620369    1.744422  0.60500771
:BAN00027:  27    1.646783    1.762369  0.34695171
:BAN00028:  28    1.646783    1.762369  0.34695170
:BAN00029:  29    1.664462    1.766437  0.09829003
:BAN00030:  30    1.664462    1.766437  0.09829002
:BAN00031:  31    1.690392    1.773507  0.00232728
:BAN00032:  32    1.690392    1.773507  0.00232728
:BAN00033:  33    1.743192    1.794999  0.00000000
:BAN00034:  34    1.743192    1.794999  0.00000000
:BAN00035:  35    1.762249    1.805614  0.00000000
:BAN00036:  36    1.762249    1.805614  0.00000000
:BAN00037:  37    1.779276    1.820438  0.00000000
        Energy to separate low and high energystates:    1.23776


:NOE  : NUMBER OF ELECTRONS          =   26.000

:FER  : F E R M I - ENERGY(TETRAH.M.)=   1.6930657037
:GMA  : POTENTIAL AND CHARGE CUT-OFF  12.00 Ry**.5

:POS001: ATOM   -1 X,Y,Z = 0.00000 0.89750 0.25000  MULT= 2  ZZ= 59.000  Pr1       

       LMMAX 16
       LM=   0 0  1 0  2 0  2 2  3 0  3 2  4 0  4 2  4 4  5 0  5 2  5 4  6 0  6 2  6 4  6 6

:CHA001: TOTAL VALENCE CHARGE INSIDE SPHERE   1 =  10.4122    (RMT=  2.3000 )
:PCS001: PARTIAL CHARGES SPHERE =  1 S,P,D,F,PX,PY,PZ,D-Z2,D-X2Y2,D-XY,D-XZ,D-YZ 
:QTL001: 1.9235 4.9551 1.2255 2.2905 1.6578 1.6479 1.6494 0.2405 0.2210 0.2541 0.2523 0.2576
        Q-s-low E-s-low   Q-p-low E-p-low   Q-d-low E-d-low   Q-f-low E-f-low
:EPL001:  1.8794 -0.8651    4.8234  0.3962    0.1162  0.3607    0.0436  0.3855
        Q-s-hi  E-s-hi    Q-p-hi  E-p-hi    Q-d-hi  E-d-hi    Q-f-hi  E-f-hi 
:EPH001:  0.0441  1.5488    0.1318  1.5693    1.1093  1.5347    2.2469  1.6237

                      VXX         VYY         VZZ       UP TO R
:VZZ001:            -8.52556     8.83864    -0.31307       2.300

:CHA  : TOTAL VALENCE CHARGE INSIDE UNIT CELL =      25.999999

:SUM  : SUM OF EIGENVALUES =          16.860360435


        1.ATOM      Pr1                  14 CORE STATES
       CORE-FORCE in mRy/a.u. = |F|      Fx             Fy             Fz
:FCO001:   1.ATOM   1163.910991664167      0.000000000000      0.000000000000   1163.910991664167

:1S 001: 1S               -3065.833466915 Ry
:2S 001: 2S                -491.582431579 Ry
:2PP001: 2P*               -464.681292540 Ry
:2P 001: 2P                -429.283843167 Ry
:3S 001: 3S                -104.682818283 Ry
:3PP001: 3P*                -93.220289077 Ry
:3P 001: 3P                 -86.212675733 Ry
:3DD001: 3D*                -66.138007997 Ry
:3D 001: 3D                 -64.626595571 Ry
:4S 001: 4S                 -19.351635458 Ry
:4PP001: 4P*                -15.057757243 Ry
:4P 001: 4P                 -13.529390553 Ry
:4DD001: 4D*                 -6.460995211 Ry
:4D 001: 4D                  -6.191353196 Ry
:CINT001 Core Integral Atom   1   45.998385

       DENSITY AT NUCLEUS
        JATOM        VALENCE       SEMI-CORE          CORE           TOTAL
:RTO001:   1      631.110489        0.000000   656826.119771   657457.230260
     
       CHARGES OF NEW CHARGE DENSITY
:NTO   : INTERSTITIAL CHARGE =     5.175588
:NPC   : PW Pseudocharge     =    18.692109
:NTO001: CHARGE SPHERE  1    =    56.410573

:NEC01: NUCLEAR AND ELECTRONIC CHARGE    118.00000   117.99673
     
       CHARGES OF OLD CHARGE DENSITY
:OTO   : INTERSTITIAL CHARGE =     5.178776
:OPC   : PW Pseudocharge     =    18.702567
:OTO001: CHARGE SPHERE  1    =    56.410612

:NEC02: NUCLEAR AND ELECTRONIC CHARGE    118.00000   118.00000
     
       CONVERGENCE TEST
:DTO001: DIFFERENCE IN SPHERE  1 =  0.0003129

:DIS  :  CHARGE DISTANCE       ( 0.0003129 for atom    1 spin 1)      0.0003129
 PW Mixed is          216
 
******************************************************
* MULTISECANT MIXING VER9 RELEASE 10.4.0              *
* Standard Mode with controls                        *
* Fixed density scale                                *
* Regularization       1.000E-04                     *
* Trust Upper Limit    5.000E+00                     *
* Max Number of Memory Steps    8                    *
******************************************************
 
:PWTMP   9.2422E+01  1.9467E+02  1.9435E+02
:PLANE:  PW TOTAL      5.3512 DISTAN   5.78E-04  1.08E-02 %
:CHARG:  CLM/ATOM   1381.9263 DISTAN   7.98E-04  5.78E-05 %
 
Step History
        DMIX         DMIXT        Red     Pred      Trust     Lambda    MagRel    MagAbs     Beta
  1   3.5000E-02   3.5000E-02 -1.00E+00  1.00E+00 -1.00E+01  1.00E+00  3.50E-02  3.50E-02  1.00E+00
  2   1.5000E-01   1.5000E-01  4.29E-01  1.00E+00 -1.00E+01  1.00E+00  1.50E-01  2.89E-03  1.00E+00
  3   7.1250E-02   7.1250E-02  6.96E-01  7.62E-01  3.00E+00  9.59E-01  2.05E-01  1.69E-03  1.00E+00
  4   1.7813E-01   1.7813E-01  2.03E-01  2.84E-01  4.00E+00  8.50E-01  8.49E-01  4.88E-03  1.00E+00
  5   7.3499E-02   7.3499E-02 -1.00E+00  9.65E-01  5.33E+00  1.00E+00  1.99E-01  2.33E-04  1.00E+00
:JACOBIANS    1.894E-01   1.083E+00
  
:NORMS:  1/Froebius, Min, Max, Used   0.7282E+00  0.5946E+00  0.9742E+00  0.8869E+00
:INFO :  Number of Memory Steps    4 Skipping    0
:INFO :  SLambda=    1.0205296926  Max    1.0205296926
:PREDicted Charge, CTotal, PW Trust    2.370E-04   4.739E-04   7.668E-04
:PREDicted DMix, Beta, BLim   5.8322E-01  3.1009E+00  2.4971E+00

Eigenvalues, unscaled except for SY+YY
   #     SY Real        SY Imag          SS             YY         SY+YY Real      SY+YY Imag
   1   2.039150E+00   0.000000E+00   1.890157E+00   2.402952E+00   4.408219E+00   0.000000E+00
   2   4.847353E-01   0.000000E+00   2.202482E-01   1.513145E+00   2.077142E+00   0.000000E+00
   3   3.268276E-02   0.000000E+00   1.089671E-02   8.390353E-02   1.236930E-01   0.000000E+00
   4   9.621526E-08   0.000000E+00   6.492049E-08   1.458123E-07   2.451900E-07   0.000000E+00
 
:INFO :  Singular value  4.412E+00 Weight  1.000E+00 Projection -6.673E-05
:INFO :  Singular value  2.075E+00 Weight  1.000E+00 Projection -3.544E-04
:INFO :  Singular value  1.237E-01 Weight  1.000E+00 Projection  3.130E-03
:INFO :  Singular value  2.452E-07 Weight  1.041E-06 Projection  9.321E-07
:RANK :  ACTIVE   3.00/4  =  75.00 % ; YY RANK   3.00/4  =  75.00 %
 
:BLIM :  VZERO Control Off
:TRUST:  Step 6.32E+00  Charge 6.00E-02 (e) CTO  2.00E-01 (e) PW  2.80E-01 (e)
:DIRM :  MEMORY  4/8  SCALE   1.000 RED  0.84 PRED  0.96 NEXT  0.37 
:TRAVE:  Charge 3.55E-04 (e) CTO  7.09E-04 (e) PW  5.68E-04 (e)
:DIRP :  |MSR1|= 4.308E-04 |PRATT|= 5.777E-04 ANGLE=   7.7 DEGREES
:DIRQ :  |MSR1|= 5.231E-04 |PRATT|= 7.982E-04 ANGLE=  22.6 DEGREES
:DIRT :  |MSR1|= 6.776E-04 |PRATT|= 9.853E-04 ANGLE=  18.8 DEGREES
:MIX  :   MSE1   REGULARIZATION:  2.40E-04 GREED: 0.18375  Newton 1.00  0.6877                
     
       CHARGES OF MIXED CHARGE DENSITY
:CTO   : INTERSTITIAL CHARGE =     5.179017
:CPC   : PW Pseudocharge     =    18.703550
:CTO001: CHARGE SPHERE  1    =    56.410492

:NEC03: NUCLEAR AND ELECTRONIC CHARGE    118.00000   118.00000

PW CHANGE     H    K    L      Current       Change    Residue
:PTO001:      0    0    0  1.22883047E-01  6.295E-06  7.273E-06
:PTO003:      0    2    0  2.33445568E-02  3.286E-06  6.032E-06
:PTO004:     -1    1    0  9.98320551E-02  4.709E-06  8.110E-06
:PTO005:      0    2   -1 -1.12059859E-01 -5.079E-06 -8.617E-06
:PTO006:      0    0   -2 -5.77417425E-02 -2.188E-06 -3.746E-06
:PTO007:     -1    1   -1 -1.07337739E-01  5.091E-07  7.266E-08
:PTO008:      0    2   -2 -1.12478003E-02  2.945E-07  3.059E-07
:PTO009:     -1    1   -2 -5.42038693E-02  6.768E-06  9.460E-06
:PTO011:     -1    3    0 -6.35349451E-03  2.018E-06  2.877E-06
:PTO012:     -1    3   -1 -2.20998023E-02  6.443E-06  8.779E-06
:PTO013:      0    4    0 -2.86748971E-03  1.538E-06  2.166E-06
:PTO014:      0    2   -3  7.16402021E-03 -2.614E-06 -3.361E-06

:ENE  : ********** TOTAL ENERGY IN Ry =       -36944.25425855

       TOTAL FORCE IN mRy/a.u. = |F|     Fx             Fy             Fz     with/without FOR in case.in2
:FOR001:   1.ATOM         26.543          0.000          0.000        -26.543 partial forces
       TOTAL FORCE WITH RESPECT TO GLOBAL CARTESIAN COORDINATES:
:FCA001:   1.ATOM                         0.000        -26.543          0.000 partial forces
       TOTAL FORCE WITH RESPECT TO THE GLOBAL COORDINATE SYSTEM:
:FGL001:   1.ATOM                 0.000000000   -26.542738540     0.000000000 partial forces
 Flat Integration
 New Mode for Coulomb Integral
 Consistent 3/8+Simpson combinations
 Extension of core to zero
 LDM version in phi
 Fifth-order quadrature in outwin


            ---------
:ITE019: 19. ITERATION
            ---------

:NATO :    1 INDEPENDENT AND    2 TOTAL ATOMS IN UNITCELL
       SUBSTANCE: aU                                                          

       LATTICE                      = CXY 
:POT  : POTENTIAL OPTION EX_LDA EC_LDA VX_LDA VC_LDA
:LAT  : LATTICE CONSTANTS=  4.78180  9.70348  8.37722    1.571    1.571    1.571
:VOL  : UNIT CELL VOLUME =     194.35200
       MODE OF CALCULATION IS       = RELA
       NON-SPINPOLARIZED CALCULATION
:IFFT  : FFT-parameters:   40   80   64 Factor: 2.00


   CONVERGENCE PARAMETER FOR PSEUDOCHARGE: NCON=  9
   MAXIMAL VALUE OF RMT(JATOM)*ABSK(NKK) : RK  =27.59997


:VKCOUL :  VK-COUL convergence: 0.152E-06
       ATOMNUMBER=  1 Pr1        VCOUL-ZERO =  0.10914E+01
:EFG001:                        EFG         =     8.92200   *10**21  V / m**2
                               V20  TOT/SRF=    -0.43347    -0.11788
                               V22  TOT/SRF=    -8.67173    -0.00700
                               V22M TOT/SRF=     0.00000     0.00000
                               V21  TOT/SRF=     0.00000     0.00000
                               V21M TOT/SRF=     0.00000     0.00000

             -8.42147    0.00000    0.00000       -8.42147    0.00000    0.00000
              0.00000    8.92200    0.00000        0.00000    8.92200    0.00000
              0.00000    0.00000   -0.50053        0.00000    0.00000   -0.50053

         MAIN DIRECTIONS OF THE EFG   1.0000  0.0000  0.0000
                                      0.0000  1.0000  0.0000
                                      0.0000  0.0000  1.0000
:ANG001:  ANGLE WITH OLD X-AXIS =         0.0

:ETA001:                         ASYMM. ETA =     0.88780


     HELLMANN-FEYNMAN-FORCE IN mRy/a.u. = |F|  Fx       Fy             Fz
:FHF001:   1.ATOM   1188.914694507184      0.000000000000      0.000000000000  -1188.914694507184

:FIT001: LUSE= 13 SIGMA OF V-XC FIT FOR ATOM  1  0.6493616E-03
:FIT001: LUSE= 13 SIGMA OF V-XC FIT FOR ATOM  1  0.6493616E-03
:DEN  : DENSITY INTEGRAL  =        -14280.66928359   (Ry)
       ELS_POTENTIAL_AT Z=0 and Z=0.5:   1.25546   1.25546
       ELS_POTENTIAL_AT Y=0 and Y=0.5:  -0.10484  -0.10484
:VZERO:v0,v0c,v0x   0.36198   1.25546  -0.89348 v5,v5c,v5x   0.36198   1.25546  -0.89348
:VZERY:v0,v0c,v0x  -1.21853  -0.10484  -1.11369 v5,v5c,v5x  -1.21853  -0.10484  -1.11369
:VZERX:v0,v0c,v0x  -1.42316  -0.38590  -1.03726 v5,v5c,v5x  -1.42316  -0.38590  -1.03726
:LMAX-WF:   10   Non-Spherical LMAX:   4

          ATOMIC SPHERE DEPENDENT PARAMETERS FOR ATOM  Pr1       
:e__0001: OVERALL ENERGY PARAMETER IS    1.4931
          OVERALL BASIS SET ON ATOM IS LAPW
:E0_0001: E( 0)=    1.4931
             APW+lo
:E0_0001: E( 0)=   -0.9230   E(BOTTOM)=   -1.582   E(TOP)=   -0.264  4  5   292
             LOCAL ORBITAL
:E1_0001: E( 1)=    1.8931
             APW+lo
:E1_0001: E( 1)=    0.5351   E(BOTTOM)=   -0.453   E(TOP)=    1.523  3  4   295
             LOCAL ORBITAL
:E3_0001: E( 3)=    1.7442   E(BOTTOM)=    1.524   E(TOP)=    1.965  0  1   121
             APW+lo
:E2_0001: E( 2)=    1.4931   E(BOTTOM)=    1.266   E(TOP)= -200.000  2 -1   124
             APW+lo

       K=   0.06250   0.00000   0.06250            1
:RKM  : MATRIX SIZE   197LOs:  40  RKM= 8.43  WEIGHT= 4.00  PGR:    
       EIGENVALUES ARE:
:EIG00001:      -1.1191130   -0.8998566   -0.0046995    0.5151966    0.6490722
:EIG00006:       0.6975595    0.7421197    0.7573797    1.4894644    1.6174670
:EIG00011:       1.6256168    1.6302347    1.6619521    1.7039674    1.7301602
:EIG00016:       1.7419954    1.7628480    1.7735467    1.7854135    1.8004487
:EIG00021:       1.8114924    1.8237224    1.8557403    1.8685177    1.8956371
:EIG00026:       1.9705826    2.0024093    2.0270680    2.1142059    2.1769897
:EIG00031:       2.3095216    2.5236064    2.6883799    2.7351602    2.9621695
:EIG00036:       3.0036491    3.0563345    3.3926950    3.4913543    3.7762112
:EIG00041:       3.9331051    3.9942034    4.1357686    4.2569830    4.3988354
:EIG00046:       4.4064677    4.4670401    4.6537853    4.6811613    4.8121592
 
:EIG00051:       4.9974779    5.2168545    5.3988909    5.4869324    5.6127281
:EIG00056:       5.7569769    5.8458288    5.9205326    5.9887408    6.1072435
:EIG00061:       6.2234866    6.2391259    6.4623484    6.4670947    6.4844638
:EIG00066:       6.5969714    6.6729905    6.7859306    6.8380179    6.9328167
:EIG00071:       6.9648213    7.1306796    7.1503637    7.1909295    7.1985828
:EIG00076:       7.2192887    7.2816722    7.3728936    7.3814845    7.4523650
:EIG00081:       7.4595022    7.5705818    7.6474278    7.7850683    7.8850013
:EIG00086:       7.9545643    8.0078908    8.1168153    8.1482579    8.2817526
:EIG00091:       8.4278509    8.4929468    8.5185226    8.5394606    8.6108894
:EIG00096:       8.6840889    8.7400262    8.8577604    8.9646958    9.0097721
 
:EIG00101:       9.0476376    9.0752494    9.1493469
       ********************************************************

:KPT   :      NUMBER OF K-POINTS:   288
   0.0   0.0 angle (M,z), angle (M,x) deg
 
        SPIN-ORBIT EIGENVALUES:
     K=   0.06250   0.00000   0.06250            1
      MATRIX SIZE=  206   WEIGHT= 4.00
     EIGENVALUES ARE:
          -1.1191227   -1.1191227   -0.8998718   -0.8998718   -0.0200752
          -0.0200752    0.4950771    0.4950771    0.5256799    0.5256799
           0.7498459    0.7498459    0.7780441    0.7780441    0.8071368
[...]
  4   1.7813E-01   1.7813E-01  2.03E-01  2.84E-01  4.00E+00  8.50E-01  8.49E-01  4.88E-03  1.00E+00
  5   7.3499E-02   7.3499E-02  8.44E-01  9.65E-01  5.33E+00  1.02E+00  1.99E-01  2.33E-04  1.00E+00
  6   1.8375E-01   1.8375E-01 -1.00E+00  3.68E-01  6.32E+00  1.00E+00  6.88E-01  6.78E-04  1.00E+00
:JACOBIANS    2.854E-01   1.280E+00
  
:NORMS:  1/Froebius, Min, Max, Used   0.7559E+00  0.5264E+00  0.9594E+00  0.9107E+00
:INFO :  Number of Memory Steps    5 Skipping    0
:INFO :  SLambda=    0.7040692386  Max    0.7040692386
:PREDicted Charge, CTotal, PW Trust    1.119E-04   2.238E-04   6.723E-04
:PREDicted DMix, Beta, BLim   2.0151E-01  1.0597E+00  5.2463E+00

Eigenvalues, unscaled except for SY+YY
   #     SY Real        SY Imag          SS             YY         SY+YY Real      SY+YY Imag
   1   2.202195E+00   0.000000E+00   2.116762E+00   2.552168E+00   4.074154E+00   0.000000E+00
   2   1.057021E+00   0.000000E+00   7.092440E-01   1.859320E+00   2.605534E+00   0.000000E+00
   3   1.345964E-01   0.000000E+00   3.086588E-02   5.884009E-01   7.096739E-01   0.000000E+00
   4   6.435849E-09   0.000000E+00   3.885233E-05   1.112185E-04   4.694539E-08   0.000000E+00
   5   6.955606E-05   0.000000E+00   1.106481E-09   4.199350E-08   1.654049E-04   0.000000E+00
 
:INFO :  Singular value  4.074E+00 Weight  1.000E+00 Projection  5.244E-06
:INFO :  Singular value  2.606E+00 Weight  1.000E+00 Projection -5.212E-05
:INFO :  Singular value  7.094E-01 Weight  1.000E+00 Projection  3.544E-05
:INFO :  Singular value  1.654E-04 Weight  2.958E-01 Projection -7.080E-03
:INFO :  Singular value  4.695E-08 Weight  3.384E-08 Projection  3.958E-09
:RANK :  ACTIVE   3.30/5  =  65.92 % ; YY RANK   3.16/5  =  63.19 %
 
:BLIM :  VZERO Control Off
:TRUST:  Step 8.43E+00  Charge 4.80E-02 (e) CTO  1.60E-01 (e) PW  2.24E-01 (e)
:DIRM :  MEMORY  5/8  SCALE   1.000 RED  0.27 PRED  0.37 NEXT  0.71 
:TRAVE:  Charge 1.83E-04 (e) CTO  3.66E-04 (e) PW  3.29E-04 (e)
:DIRP :  |MSR1|= 8.012E-05 |PRATT|= 1.468E-04 ANGLE=   7.7 DEGREES
:DIRQ :  |MSR1|= 7.458E-05 |PRATT|= 2.191E-04 ANGLE=  15.4 DEGREES
:DIRT :  |MSR1|= 1.095E-04 |PRATT|= 2.638E-04 ANGLE=  18.3 DEGREES
:MIX  :   MSD1   REGULARIZATION:  2.55E-04 GREED: 0.17213  Newton 1.00  0.4150                
     
       CHARGES OF MIXED CHARGE DENSITY
:CTO   : INTERSTITIAL CHARGE =     5.178993
:CPC   : PW Pseudocharge     =    18.703762
:CTO001: CHARGE SPHERE  1    =    56.410503

:NEC03: NUCLEAR AND ELECTRONIC CHARGE    118.00000   118.00000

PW CHANGE     H    K    L      Current       Change    Residue
:PTO001:      0    0    0  1.22884020E-01  9.729E-07  1.677E-06
:PTO003:      0    2    0  2.33448260E-02  2.692E-07  1.929E-07
:PTO004:     -1    1    0  9.98334534E-02  1.398E-06  2.992E-06
:PTO005:      0    2   -1 -1.12060950E-01 -1.091E-06 -1.994E-06
:PTO006:      0    0   -2 -5.77424954E-02 -7.529E-07 -1.648E-06
:PTO007:     -1    1   -1 -1.07338715E-01 -9.756E-07 -2.410E-06
:PTO008:      0    2   -2 -1.12474993E-02  3.011E-07  8.233E-07
:PTO009:     -1    1   -2 -5.42028330E-02  1.036E-06  1.841E-06
:PTO011:     -1    3    0 -6.35313428E-03  3.602E-07  6.488E-07
:PTO012:     -1    3   -1 -2.20980005E-02  1.802E-06  3.278E-06
:PTO013:      0    4    0 -2.86702321E-03  4.665E-07  8.776E-07
:PTO014:      0    2   -3  7.16328154E-03 -7.387E-07 -1.125E-06

:ENE  : ********** TOTAL ENERGY IN Ry =       -36944.25425796

       TOTAL FORCE IN mRy/a.u. = |F|     Fx             Fy             Fz     with/without FOR in case.in2
:FOR001:   1.ATOM         26.117          0.000          0.000        -26.117 partial forces
       TOTAL FORCE WITH RESPECT TO GLOBAL CARTESIAN COORDINATES:
:FCA001:   1.ATOM                         0.000        -26.117          0.000 partial forces
       TOTAL FORCE WITH RESPECT TO THE GLOBAL COORDINATE SYSTEM:
:FGL001:   1.ATOM                 0.000000000   -26.116623988     0.000000000 partial forces
 Flat Integration
 New Mode for Coulomb Integral
 Consistent 3/8+Simpson combinations
 Extension of core to zero
 LDM version in phi
 Fifth-order quadrature in outwin


            ---------
:ITE020: 20. ITERATION
            ---------

:NATO :    1 INDEPENDENT AND    2 TOTAL ATOMS IN UNITCELL
       SUBSTANCE: aU                                                          

       LATTICE                      = CXY 
:POT  : POTENTIAL OPTION EX_LDA EC_LDA VX_LDA VC_LDA
:LAT  : LATTICE CONSTANTS=  4.78180  9.70348  8.37722    1.571    1.571    1.571
:VOL  : UNIT CELL VOLUME =     194.35200
       MODE OF CALCULATION IS       = RELA
       NON-SPINPOLARIZED CALCULATION
:IFFT  : FFT-parameters:   40   80   64 Factor: 2.00


   CONVERGENCE PARAMETER FOR PSEUDOCHARGE: NCON=  9
   MAXIMAL VALUE OF RMT(JATOM)*ABSK(NKK) : RK  =27.59997


:VKCOUL :  VK-COUL convergence: 0.152E-06
       ATOMNUMBER=  1 Pr1        VCOUL-ZERO =  0.10914E+01
:EFG001:                        EFG         =     8.92233   *10**21  V / m**2
                               V20  TOT/SRF=    -0.43531    -0.11789
                               V22  TOT/SRF=    -8.67100    -0.00700
                               V22M TOT/SRF=     0.00000     0.00000
                               V21  TOT/SRF=     0.00000     0.00000
                               V21M TOT/SRF=     0.00000     0.00000

             -8.41967    0.00000    0.00000       -8.41967    0.00000    0.00000
              0.00000    8.92233    0.00000        0.00000    8.92233    0.00000
              0.00000    0.00000   -0.50265        0.00000    0.00000   -0.50265

         MAIN DIRECTIONS OF THE EFG   1.0000  0.0000  0.0000
                                      0.0000  1.0000  0.0000
                                      0.0000  0.0000  1.0000
:ANG001:  ANGLE WITH OLD X-AXIS =         0.0

:ETA001:                         ASYMM. ETA =     0.88733


     HELLMANN-FEYNMAN-FORCE IN mRy/a.u. = |F|  Fx       Fy             Fz
:FHF001:   1.ATOM   1189.055570541885      0.000000000000      0.000000000000  -1189.055570541885

:FIT001: LUSE= 13 SIGMA OF V-XC FIT FOR ATOM  1  0.6494385E-03
:FIT001: LUSE= 13 SIGMA OF V-XC FIT FOR ATOM  1  0.6494385E-03
:DEN  : DENSITY INTEGRAL  =        -14280.67054031   (Ry)
       ELS_POTENTIAL_AT Z=0 and Z=0.5:   1.25546   1.25546
       ELS_POTENTIAL_AT Y=0 and Y=0.5:  -0.10484  -0.10484
:VZERO:v0,v0c,v0x   0.36199   1.25546  -0.89348 v5,v5c,v5x   0.36199   1.25546  -0.89348
:VZERY:v0,v0c,v0x  -1.21853  -0.10484  -1.11369 v5,v5c,v5x  -1.21853  -0.10484  -1.11369
:VZERX:v0,v0c,v0x  -1.42316  -0.38590  -1.03726 v5,v5c,v5x  -1.42316  -0.38590  -1.03726
:LMAX-WF:   10   Non-Spherical LMAX:   4

          ATOMIC SPHERE DEPENDENT PARAMETERS FOR ATOM  Pr1       
:e__0001: OVERALL ENERGY PARAMETER IS    1.4931
          OVERALL BASIS SET ON ATOM IS LAPW
:E0_0001: E( 0)=    1.4931
             APW+lo
:E0_0001: E( 0)=   -0.9230   E(BOTTOM)=   -1.582   E(TOP)=   -0.264  4  5   292
             LOCAL ORBITAL
:E1_0001: E( 1)=    1.8931
             APW+lo
:E1_0001: E( 1)=    0.5351   E(BOTTOM)=   -0.453   E(TOP)=    1.523  3  4   298
             LOCAL ORBITAL
:E3_0001: E( 3)=    1.7442   E(BOTTOM)=    1.524   E(TOP)=    1.965  0  1   120
             APW+lo
:E2_0001: E( 2)=    1.4931   E(BOTTOM)=    1.266   E(TOP)= -200.000  2 -1   120
             APW+lo

       K=   0.06250   0.00000   0.06250            1
:RKM  : MATRIX SIZE   197LOs:  40  RKM= 8.43  WEIGHT= 4.00  PGR:    
       EIGENVALUES ARE:
:EIG00001:      -1.1191021   -0.8998455   -0.0046896    0.5152087    0.6490846
:EIG00006:       0.6975693    0.7421300    0.7573898    1.4894739    1.6174767
:EIG00011:       1.6256265    1.6302453    1.6619609    1.7039784    1.7301690
:EIG00016:       1.7420041    1.7628576    1.7735558    1.7854235    1.8004579
:EIG00021:       1.8115009    1.8237326    1.8557497    1.8685281    1.8956463
:EIG00026:       1.9705921    2.0024189    2.0270777    2.1142155    2.1769995
:EIG00031:       2.3095298    2.5236148    2.6883896    2.7351677    2.9621774
:EIG00036:       3.0036569    3.0563423    3.3927025    3.4913627    3.7762196
:EIG00041:       3.9331123    3.9942119    4.1357757    4.2569900    4.3988424
:EIG00046:       4.4064746    4.4670470    4.6537921    4.6811687    4.8121661
 
:EIG00051:       4.9974848    5.2168610    5.3988988    5.4869394    5.6127344
:EIG00056:       5.7569851    5.8458369    5.9205391    5.9887474    6.1072510
:EIG00061:       6.2234915    6.2391306    6.4623555    6.4671002    6.4844703
:EIG00066:       6.5969768    6.6729935    6.7859355    6.8380227    6.9328224
:EIG00071:       6.9648266    7.1306850    7.1503688    7.1909355    7.1985892
:EIG00076:       7.2192938    7.2816764    7.3729005    7.3814902    7.4523700
:EIG00081:       7.4595072    7.5705874    7.6474347    7.7850720    7.8850077
:EIG00086:       7.9545704    8.0078971    8.1168212    8.1482640    8.2817548
:EIG00091:       8.4278554    8.4929492    8.5185266    8.5394654    8.6108924
:EIG00096:       8.6840929    8.7400284    8.8577658    8.9647006    9.0097765
 
:EIG00101:       9.0476423    9.0752548    9.1493540
       ********************************************************

:KPT   :      NUMBER OF K-POINTS:   288
   0.0   0.0 angle (M,z), angle (M,x) deg
 
        SPIN-ORBIT EIGENVALUES:
     K=   0.06250   0.00000   0.06250            1
      MATRIX SIZE=  206   WEIGHT= 4.00
     EIGENVALUES ARE:
          -1.1191118   -1.1191118   -0.8998606   -0.8998606   -0.0200652
          -0.0200652    0.4950890    0.4950890    0.5256912    0.5256912
           0.7498569    0.7498569    0.7780543    0.7780543    0.8071471
           0.8071471    1.4895201    1.4895201    1.6168796    1.6168796
           1.6248040    1.6248040    1.6295064    1.6295064    1.6614152
           1.6614152    1.7029247    1.7029247    1.7293081    1.7293081
           1.7399645    1.7399645    1.7603868    1.7603868    1.7733408
           1.7733408    1.7872519    1.7872519    1.8021525    1.8021525

           1.8123851    1.8123851    1.8246094    1.8246094    1.8562743
           1.8562743    1.8697642    1.8697642    1.8967730    1.8967730
           1.9704085    1.9704086    2.0011707    2.0011707    2.0288077
           2.0288077    2.1148141    2.1148141    2.1771953    2.1771953
           2.3098119    2.3098119    2.5238556    2.5238556    2.6881474
           2.6881474    2.7357011    2.7357011    2.9630026    2.9630026
           3.0039005    3.0039005    3.0564427    3.0564427    3.3925879
           3.3925879    3.4908849    3.4908849    3.7755886    3.7755886

           3.9330861    3.9330861    3.9947058    3.9947058    4.1363816
           4.1363816    4.2566918    4.2566918    4.3983891    4.3983891
           4.4064346    4.4064346    4.4674431    4.4674431
       ********************************************************
:GAP (global)   :    0.0    Ry =     0.0   eV (metal)
:GAP (this spin):    0.0    Ry =     0.0   eV (metal)
         Bandranges (emin - emax) and occupancy:
:BAN00022:  22    1.491425    1.691472  1.00000000
:BAN00023:  23    1.546371    1.703941  0.94742164
:BAN00024:  24    1.546371    1.703941  0.94742163
:BAN00025:  25    1.620442    1.744498  0.60501722
:BAN00026:  26    1.620442    1.744498  0.60501720
:BAN00027:  27    1.646873    1.762458  0.34694572
:BAN00028:  28    1.646873    1.762458  0.34694571
:BAN00029:  29    1.664539    1.766517  0.09828265
:BAN00030:  30    1.664539    1.766517  0.09828263
:BAN00031:  31    1.690467    1.773588  0.00233280
:BAN00032:  32    1.690467    1.773588  0.00233280
:BAN00033:  33    1.743276    1.795078  0.00000000
:BAN00034:  34    1.743276    1.795078  0.00000000
:BAN00035:  35    1.762330    1.805704  0.00000000
:BAN00036:  36    1.762330    1.805704  0.00000000
:BAN00037:  37    1.779360    1.820520  0.00000000
        Energy to separate low and high energystates:    1.23784


:NOE  : NUMBER OF ELECTRONS          =   26.000

:FER  : F E R M I - ENERGY(TETRAH.M.)=   1.6931483229
:GMA  : POTENTIAL AND CHARGE CUT-OFF  12.00 Ry**.5

:POS001: ATOM   -1 X,Y,Z = 0.00000 0.89750 0.25000  MULT= 2  ZZ= 59.000  Pr1       

       LMMAX 16
       LM=   0 0  1 0  2 0  2 2  3 0  3 2  4 0  4 2  4 4  5 0  5 2  5 4  6 0  6 2  6 4  6 6

:CHA001: TOTAL VALENCE CHARGE INSIDE SPHERE   1 =  10.4121    (RMT=  2.3000 )
:PCS001: PARTIAL CHARGES SPHERE =  1 S,P,D,F,PX,PY,PZ,D-Z2,D-X2Y2,D-XY,D-XZ,D-YZ 
:QTL001: 1.9235 4.9551 1.2255 2.2904 1.6578 1.6479 1.6494 0.2405 0.2210 0.2541 0.2523 0.2576
        Q-s-low E-s-low   Q-p-low E-p-low   Q-d-low E-d-low   Q-f-low E-f-low
:EPL001:  1.8794 -0.8650    4.8234  0.3963    0.1162  0.3608    0.0436  0.3855
        Q-s-hi  E-s-hi    Q-p-hi  E-p-hi    Q-d-hi  E-d-hi    Q-f-hi  E-f-hi 
:EPH001:  0.0441  1.5489    0.1318  1.5694    1.1093  1.5347    2.2468  1.6238

                      VXX         VYY         VZZ       UP TO R
:VZZ001:            -8.52190     8.84966    -0.32776       2.300

:CHA  : TOTAL VALENCE CHARGE INSIDE UNIT CELL =      26.000000

:SUM  : SUM OF EIGENVALUES =          16.862390256


        1.ATOM      Pr1                  14 CORE STATES
       CORE-FORCE in mRy/a.u. = |F|      Fx             Fy             Fz
:FCO001:   1.ATOM   1162.945782992401      0.000000000000      0.000000000000   1162.945782992401

:1S 001: 1S               -3065.833373340 Ry
:2S 001: 2S                -491.582354534 Ry
:2PP001: 2P*               -464.681212653 Ry
:2P 001: 2P                -429.283764368 Ry
:3S 001: 3S                -104.682749741 Ry
:3PP001: 3P*                -93.220220234 Ry
:3P 001: 3P                 -86.212606834 Ry
:3DD001: 3D*                -66.137939361 Ry
:3D 001: 3D                 -64.626526983 Ry
:4S 001: 4S                 -19.351547314 Ry
:4PP001: 4P*                -15.057668493 Ry
:4P 001: 4P                 -13.529300580 Ry
:4DD001: 4D*                 -6.460904846 Ry
:4D 001: 4D                  -6.191262590 Ry
:CINT001 Core Integral Atom   1   45.998385

       DENSITY AT NUCLEUS
        JATOM        VALENCE       SEMI-CORE          CORE           TOTAL
:RTO001:   1      631.109618        0.000000   656826.119939   657457.229557
     
       CHARGES OF NEW CHARGE DENSITY
:NTO   : INTERSTITIAL CHARGE =     5.175706
:NPC   : PW Pseudocharge     =    18.692134
:NTO001: CHARGE SPHERE  1    =    56.410514

:NEC01: NUCLEAR AND ELECTRONIC CHARGE    118.00000   117.99674
     
       CHARGES OF OLD CHARGE DENSITY
:OTO   : INTERSTITIAL CHARGE =     5.178993
:OPC   : PW Pseudocharge     =    18.703762
:OTO001: CHARGE SPHERE  1    =    56.410503

:NEC02: NUCLEAR AND ELECTRONIC CHARGE    118.00000   118.00000
     
       CONVERGENCE TEST
:DTO001: DIFFERENCE IN SPHERE  1 =  0.0000698

:DIS  :  CHARGE DISTANCE       ( 0.0000698 for atom    1 spin 1)      0.0000698
 PW Mixed is          216
 
******************************************************
* MULTISECANT MIXING VER9 RELEASE 10.4.0              *
* Standard Mode with controls                        *
* Fixed density scale                                *
* Regularization       1.000E-04                     *
* Trust Upper Limit    5.000E+00                     *
* Max Number of Memory Steps    8                    *
******************************************************
 
:PWTMP   9.2422E+01  1.9467E+02  1.9435E+02
:PLANE:  PW TOTAL      5.3514 DISTAN   6.49E-05  1.21E-03 %
:CHARG:  CLM/ATOM   1381.9264 DISTAN   1.23E-04  8.93E-06 %
 
Step History
        DMIX         DMIXT        Red     Pred      Trust     Lambda    MagRel    MagAbs     Beta
  1   3.5000E-02   3.5000E-02 -1.00E+00  1.00E+00 -1.00E+01  1.00E+00  3.50E-02  3.50E-02  1.00E+00
  2   1.5000E-01   1.5000E-01  4.29E-01  1.00E+00 -1.00E+01  1.00E+00  1.50E-01  2.89E-03  1.00E+00
  3   7.1250E-02   7.1250E-02  6.96E-01  7.62E-01  3.00E+00  9.59E-01  2.05E-01  1.69E-03  1.00E+00
  4   1.7813E-01   1.7813E-01  2.03E-01  2.84E-01  4.00E+00  8.50E-01  8.49E-01  4.88E-03  1.00E+00
  5   7.3499E-02   7.3499E-02  8.44E-01  9.65E-01  5.33E+00  1.02E+00  1.99E-01  2.33E-04  1.00E+00
  6   1.8375E-01   1.8375E-01  2.68E-01  3.68E-01  6.32E+00  7.04E-01  6.88E-01  6.78E-04  1.00E+00
  7   1.7213E-01   1.7213E-01 -1.00E+00  7.08E-01  8.43E+00  1.00E+00  4.15E-01  1.09E-04  1.00E+00
:JACOBIANS    4.585E-01   1.564E+00
  
:NORMS:  1/Froebius, Min, Max, Used   0.7862E+00  0.5293E+00  0.9565E+00  0.9280E+00
:INFO :  Number of Memory Steps    6 Skipping    0
:INFO :  SLambda=    1.0561038580  Max    1.0561038580
:PREDicted Charge, CTotal, PW Trust    2.927E-05   5.855E-05   1.880E-04
:PREDicted DMix, Beta, BLim   6.5443E-01  1.7422E+00  4.3065E+00

Eigenvalues, unscaled except for SY+YY
   #     SY Real        SY Imag          SS             YY         SY+YY Real      SY+YY Imag
   1   2.207403E+00   0.000000E+00   2.168683E+00   2.518034E+00   4.801943E+00   0.000000E+00
   2   1.581860E+00   0.000000E+00   1.334891E+00   2.085952E+00   3.735098E+00   0.000000E+00
   3   3.923915E-01   0.000000E+00   1.749330E-01   8.200618E-01   7.491133E-01   0.000000E+00
   4   1.300181E-01   0.000000E+00   2.982944E-02   5.759512E-01   1.267418E+00   0.000000E+00
   5   5.356287E-09   0.000000E+00   1.852283E-07   7.463031E-07   3.228663E-08   0.000000E+00
   6   3.328384E-07   0.000000E+00   1.104509E-09   2.585144E-08   1.096996E-06   0.000000E+00
 
:INFO :  Singular value  4.810E+00 Weight  1.000E+00 Projection  5.519E-06
:INFO :  Singular value  3.736E+00 Weight  1.000E+00 Projection  5.585E-05
:INFO :  Singular value  1.266E+00 Weight  1.000E+00 Projection -1.273E-04
:INFO :  Singular value  7.484E-01 Weight  1.000E+00 Projection  1.370E-05
:INFO :  Singular value  1.097E-06 Weight  1.899E-05 Projection -8.182E-07
:INFO :  Singular value  3.228E-08 Weight  1.643E-08 Projection -1.526E-09
:RANK :  ACTIVE   4.00/6  =  66.67 % ; YY RANK   4.00/6  =  66.67 %
 
:BLIM :  VZERO Control Off
:TRUST:  Step 1.12E+01  Charge 3.84E-02 (e) CTO  1.28E-01 (e) PW  1.79E-01 (e)
:DIRM :  MEMORY  6/8  SCALE   1.000 RED  0.53 PRED  0.71 NEXT  0.31 
:TRAVE:  Charge 9.72E-05 (e) CTO  1.94E-04 (e) PW  2.03E-04 (e)
:DIRP :  |MSR1|= 7.059E-05 |PRATT|= 6.494E-05 ANGLE=  10.1 DEGREES
:DIRQ :  |MSR1|= 8.401E-05 |PRATT|= 1.234E-04 ANGLE=  13.9 DEGREES
:DIRT :  |MSR1|= 1.097E-04 |PRATT|= 1.394E-04 ANGLE=  17.7 DEGREES
:MIX  :   MSE1   REGULARIZATION:  2.52E-04 GREED: 0.35000  Newton 1.00  0.7870                
     
       CHARGES OF MIXED CHARGE DENSITY
:CTO   : INTERSTITIAL CHARGE =     5.178971
:CPC   : PW Pseudocharge     =    18.703947
:CTO001: CHARGE SPHERE  1    =    56.410515

:NEC03: NUCLEAR AND ELECTRONIC CHARGE    118.00000   118.00000

PW CHANGE     H    K    L      Current       Change    Residue
:PTO001:      0    0    0  1.22884859E-01  8.388E-07  7.241E-07
:PTO003:      0    2    0  2.33449186E-02  9.258E-08 -1.280E-07
:PTO004:     -1    1    0  9.98346865E-02  1.233E-06  1.291E-06
:PTO005:      0    2   -1 -1.12061959E-01 -1.009E-06 -9.139E-07
:PTO006:      0    0   -2 -5.77431934E-02 -6.979E-07 -7.580E-07
:PTO007:     -1    1   -1 -1.07339761E-01 -1.046E-06 -1.279E-06
:PTO008:      0    2   -2 -1.12471713E-02  3.279E-07  4.508E-07
:PTO009:     -1    1   -2 -5.42018583E-02  9.747E-07  9.002E-07
:PTO011:     -1    3    0 -6.35284942E-03  2.849E-07  2.383E-07
:PTO012:     -1    3   -1 -2.20963606E-02  1.640E-06  1.465E-06
:PTO013:      0    4    0 -2.86660779E-03  4.154E-07  3.790E-07
:PTO014:      0    2   -3  7.16266246E-03 -6.191E-07 -4.174E-07

:ENE  : ********** TOTAL ENERGY IN Ry =       -36944.25425808

       TOTAL FORCE IN mRy/a.u. = |F|     Fx             Fy             Fz     with/without FOR in case.in2
:FOR001:   1.ATOM         26.110          0.000          0.000        -26.110 partial forces
       TOTAL FORCE WITH RESPECT TO GLOBAL CARTESIAN COORDINATES:
:FCA001:   1.ATOM                         0.000        -26.110          0.000 partial forces
       TOTAL FORCE WITH RESPECT TO THE GLOBAL COORDINATE SYSTEM:
:FGL001:   1.ATOM                 0.000000000   -26.109787549     0.000000000 partial forces
