
:LABEL1: Calculations in /home/ykent/GWIEN/example/Pr/aU/V12/case
:LABEL2: on didymium-2.cmpgroup.ameslab.gov at Fri Jul 10 14:12:04 CDT 2020
:LABEL3: using WIEN2k_19.1 (Release 25/6/2019) in /home/ykent/opt/src/WIEN2k_19.1
:LABEL4: using the command: run_lapw -so -i 70 -cc 0.0001

:LABEL1: Calculations in /home/ykent/GWIEN/example/Pr/aU/V12/case
:LABEL2: on didymium-2.cmpgroup.ameslab.gov at Fri Jul 10 14:18:54 CDT 2020
:LABEL3: using WIEN2k_19.1 (Release 25/6/2019) in /home/ykent/opt/src/WIEN2k_19.1
:LABEL4: using the command: run_lapw -so -i 70 -cc 0.0001
 Flat Integration
 New Mode for Coulomb Integral
 Consistent 3/8+Simpson combinations
 Extension of core to zero
 LDM version in phi
 Fifth-order quadrature in outwin


            ---------
:ITE014: 14. ITERATION
            ---------

:NATO :    1 INDEPENDENT AND    2 TOTAL ATOMS IN UNITCELL
       SUBSTANCE: aU                                                          

       LATTICE                      = CXY 
:POT  : POTENTIAL OPTION EX_LDA EC_LDA VX_LDA VC_LDA
:LAT  : LATTICE CONSTANTS=  6.02469 12.22562 10.55463    1.571    1.571    1.571
:VOL  : UNIT CELL VOLUME =     388.70398
       MODE OF CALCULATION IS       = RELA
       NON-SPINPOLARIZED CALCULATION
:IFFT  : FFT-parameters:   48   96   90 Factor: 2.00


   CONVERGENCE PARAMETER FOR PSEUDOCHARGE: NCON=  9
   MAXIMAL VALUE OF RMT(JATOM)*ABSK(NKK) : RK  =27.59258


:VKCOUL :  VK-COUL convergence: 0.255E-06
       ATOMNUMBER=  1 Pr1        VCOUL-ZERO =  0.26852E+00
:EFG001:                        EFG         =    -9.43314   *10**21  V / m**2
                               V20  TOT/SRF=    -8.16934    -0.04142
                               V22  TOT/SRF=    -1.24295    -0.00405
                               V22M TOT/SRF=     0.00000     0.00000
                               V21  TOT/SRF=     0.00000     0.00000
                               V21M TOT/SRF=     0.00000     0.00000

              3.47362    0.00000    0.00000        3.47362    0.00000    0.00000
              0.00000    5.95952    0.00000        0.00000    5.95952    0.00000
              0.00000    0.00000   -9.43314        0.00000    0.00000   -9.43314

         MAIN DIRECTIONS OF THE EFG   1.0000  0.0000  0.0000
                                      0.0000  1.0000  0.0000
                                      0.0000  0.0000  1.0000
:ANG001:  ANGLE WITH OLD X-AXIS =         0.0

:ETA001:                         ASYMM. ETA =     0.26353


     HELLMANN-FEYNMAN-FORCE IN mRy/a.u. = |F|  Fx       Fy             Fz
:FHF001:   1.ATOM   1604.121398548509      0.000000000000      0.000000000000  -1604.121398548509

:FIT001: LUSE= 13 SIGMA OF V-XC FIT FOR ATOM  1  0.5760385E-04
:FIT001: LUSE= 13 SIGMA OF V-XC FIT FOR ATOM  1  0.5760385E-04
:DEN  : DENSITY INTEGRAL  =        -14169.18922336   (Ry)
       ELS_POTENTIAL_AT Z=0 and Z=0.5:   0.82416   0.82416
       ELS_POTENTIAL_AT Y=0 and Y=0.5:   0.04841   0.04841
:VZERO:v0,v0c,v0x   0.18974   0.82416  -0.63442 v5,v5c,v5x   0.18974   0.82416  -0.63442
:VZERY:v0,v0c,v0x  -0.79596   0.04841  -0.84437 v5,v5c,v5x  -0.79596   0.04841  -0.84437
:VZERX:v0,v0c,v0x  -1.18857  -0.38822  -0.80035 v5,v5c,v5x  -1.18857  -0.38822  -0.80035
:LMAX-WF:   10   Non-Spherical LMAX:   4

          ATOMIC SPHERE DEPENDENT PARAMETERS FOR ATOM  Pr1       
:e__0001: OVERALL ENERGY PARAMETER IS    0.6020
          OVERALL BASIS SET ON ATOM IS LAPW
:E0_0001: E( 0)=    0.6020
             APW+lo
:E0_0001: E( 0)=   -1.8466   E(BOTTOM)=   -2.482   E(TOP)=   -1.212  4  5   200
             LOCAL ORBITAL
:E1_0001: E( 1)=    1.0020
             APW+lo
:E1_0001: E( 1)=   -0.3761   E(BOTTOM)=   -1.333   E(TOP)=    0.581  3  4   202
             LOCAL ORBITAL
:E3_0001: E( 3)=    0.7964   E(BOTTOM)=    0.591   E(TOP)=    1.002  0  1   122
             APW+lo
:E2_0001: E( 2)=    0.6020   E(BOTTOM)=    0.407   E(TOP)= -200.000  2 -1   119
             APW+lo

       K=   0.06250   0.00000   0.06250            1
:RKM  : MATRIX SIZE   364LOs:  40  RKM= 8.48  WEIGHT= 4.00  PGR:    
       EIGENVALUES ARE:
:EIG00001:      -1.8344305   -1.8050662   -0.5898522   -0.4629384   -0.4339663
:EIG00006:      -0.4226789   -0.4104838   -0.4103947    0.5857508    0.6907525
:EIG00011:       0.7901980    0.7935775    0.7941260    0.7980196    0.8053902
:EIG00016:       0.8202386    0.8262519    0.8267239    0.8309192    0.8337076
:EIG00021:       0.8404626    0.8436274    0.8441389    0.8547596    0.8818843
:EIG00026:       0.9012562    0.9951933    1.0025539    1.0601519    1.0896786
:EIG00031:       1.0944656    1.2246095    1.2604886    1.3225739    1.6272517
:EIG00036:       1.6698994    1.7120952    1.7647457    1.9079125    1.9691894
:EIG00041:       2.0904591    2.1814131    2.2915274    2.3106284    2.4500917
:EIG00046:       2.4639548    2.4832684    2.6019756    2.6295953    2.7526974
 
:EIG00051:       2.8101292    2.8795044    2.8960950    3.0062280    3.0568036
:EIG00056:       3.0963417    3.1278221    3.2278967    3.2862550    3.3908381
:EIG00061:       3.4081246    3.4947129    3.6101070    3.6101358    3.6597666
:EIG00066:       3.8046126    3.8304011    3.9238498    3.9290980    3.9553760
:EIG00071:       3.9600299    4.0175338    4.0572660    4.1632798    4.1736031
:EIG00076:       4.2212365    4.2338462    4.2894105    4.3124077    4.3394910
:EIG00081:       4.3598918    4.4077539    4.4098892    4.4931144    4.5201725
:EIG00086:       4.5953986    4.6350572    4.6967881    4.7328509    4.7507188
:EIG00091:       4.7745008    4.8189720    4.8504458    4.8850154    4.8920018
:EIG00096:       4.9123134    4.9811661    4.9902093    5.0362133    5.0881640
 
:EIG00101:       5.1813269    5.2956741    5.3337016    5.4143246    5.4163273
:EIG00106:       5.4551706    5.4992884    5.5592402    5.5949687    5.6007334
:EIG00111:       5.7132030    5.7571415    5.8531511    5.9246283    5.9351391
:EIG00116:       5.9599665    6.0290647    6.0511973    6.1176307    6.1381702
:EIG00121:       6.2082508    6.2089120    6.2900361    6.3127154    6.3654985
:EIG00126:       6.4546122    6.5268881    6.5275991    6.5512215    6.6255453
:EIG00131:       6.6680656    6.7092801    6.7167394    6.7598184    6.8221916
:EIG00136:       6.8732201    6.9064359    6.9386059    6.9794084    6.9899664
:EIG00141:       7.0410296    7.0632599    7.1086233    7.1248012    7.1817656
:EIG00146:       7.1937579    7.2209167    7.3040977    7.3311664    7.3772510
 
:EIG00151:       7.3900077    7.4264372    7.4597568    7.5973909    7.6432957
:EIG00156:       7.7561508    7.8118654    7.8192079    7.8324848    7.9458254
:EIG00161:       8.0081195    8.0785570    8.1199557    8.1393819    8.1884264
:EIG00166:       8.1994921    8.2224599    8.2334243
       ********************************************************

:KPT   :      NUMBER OF K-POINTS:   288
   0.0   0.0 angle (M,z), angle (M,x) deg
 
        SPIN-ORBIT EIGENVALUES:
     K=   0.06250   0.00000   0.06250            1
      MATRIX SIZE=  336   WEIGHT= 4.00
     EIGENVALUES ARE:
          -1.8344309   -1.8344309   -1.8050665   -1.8050665   -0.6541878
          -0.6541878   -0.5737761   -0.5737761   -0.4583842   -0.4583842
          -0.3618679   -0.3618679   -0.3582036   -0.3582035   -0.3439455
          -0.3439455    0.5858203    0.5858203    0.6906273    0.6906273
           0.7862959    0.7862959    0.7896729    0.7896729    0.7906912
           0.7906912    0.7946948    0.7946948    0.8008836    0.8008836
           0.8098503    0.8098503    0.8223037    0.8223037    0.8310250
           0.8310250    0.8369931    0.8369931    0.8379023    0.8379023

           0.8439389    0.8439390    0.8473806    0.8473806    0.8487469
           0.8487469    0.8587118    0.8587118    0.8830636    0.8830636
           0.9014004    0.9014004    0.9920887    0.9920887    1.0054273
           1.0054273    1.0605631    1.0605631    1.0891597    1.0891598
           1.0953479    1.0953479    1.2245123    1.2245123    1.2607575
           1.2607575    1.3227046    1.3227046    1.6275309    1.6275309
           1.6699337    1.6699337    1.7120721    1.7120721    1.7647786
           1.7647786    1.9076327    1.9076327    1.9686723    1.9686723

           2.0905111    2.0905111    2.1806080    2.1806080    2.2902207
           2.2902207    2.3112788    2.3112788    2.4503551    2.4503551
           2.4638873    2.4638873    2.4822559    2.4822559    2.6006263
           2.6006263    2.6311861    2.6311861    2.7527351    2.7527351
           2.8094972    2.8094972    2.8760233    2.8760233    2.8984136
           2.8984136    3.0060667    3.0060667    3.0573997    3.0573997
           3.0967658    3.0967658    3.1270811    3.1270811    3.2284405
           3.2284405    3.2871996    3.2871996    3.3905450    3.3905450

           3.4086194    3.4086194    3.4990914    3.4990914    3.6098267
           3.6098267    3.6103880    3.6103880    3.6600296    3.6600296
           3.8046447    3.8046447    3.8305800    3.8305800    3.9234713
           3.9234713    3.9292988    3.9292988    3.9557383    3.9557383
           3.9600332    3.9600332    4.0169744    4.0169744    4.0573547
           4.0573547    4.1616422    4.1616422    4.1754256    4.1754256
           4.2227163    4.2227163    4.2347341    4.2347341    4.2895351
           4.2895351    4.3129090    4.3129090    4.3396828    4.3396828

           4.3600128    4.3600128    4.4076216    4.4076216    4.4107348
           4.4107348    4.4932273    4.4932273
       ********************************************************
:GAP (global)   :    0.0    Ry =     0.0   eV (metal)
:GAP (this spin):    0.0    Ry =     0.0   eV (metal)
         Bandranges (emin - emax) and occupancy:
:BAN00018:  18    0.579262    0.755119  1.00000000
:BAN00019:  19    0.679729    0.772461  1.00000000
:BAN00020:  20    0.679729    0.772461  1.00000000
:BAN00021:  21    0.706998    0.794827  1.00000000
:BAN00022:  22    0.706998    0.794827  1.00000000
:BAN00023:  23    0.762605    0.798819  0.99812037
:BAN00024:  24    0.762605    0.798819  0.99812035
:BAN00025:  25    0.775029    0.808529  0.73064595
:BAN00026:  26    0.775029    0.808529  0.73064580
:BAN00027:  27    0.791467    0.810680  0.27123395
:BAN00028:  28    0.791467    0.810680  0.27123358
:BAN00029:  29    0.799535    0.813498  0.00000000
:BAN00030:  30    0.799535    0.813498  0.00000000
:BAN00031:  31    0.804352    0.822053  0.00000000
:BAN00032:  32    0.804352    0.822053  0.00000000
:BAN00033:  33    0.812913    0.830387  0.00000000
        Energy to separate low and high energystates:    0.52926


:NOE  : NUMBER OF ELECTRONS          =   26.000

:FER  : F E R M I - ENERGY(TETRAH.M.)=   0.7979539123
:GMA  : POTENTIAL AND CHARGE CUT-OFF  12.00 Ry**.5

:POS001: ATOM   -1 X,Y,Z = 0.00000 0.89750 0.25000  MULT= 2  ZZ= 59.000  Pr1       

       LMMAX 16
       LM=   0 0  1 0  2 0  2 2  3 0  3 2  4 0  4 2  4 4  5 0  5 2  5 4  6 0  6 2  6 4  6 6

:CHA001: TOTAL VALENCE CHARGE INSIDE SPHERE   1 =   9.6469    (RMT=  2.3000 )
:PCS001: PARTIAL CHARGES SPHERE =  1 S,P,D,F,PX,PY,PZ,D-Z2,D-X2Y2,D-XY,D-XZ,D-YZ 
:QTL001: 1.9410 4.9940 0.6164 2.0948 1.6624 1.6607 1.6708 0.1169 0.1096 0.1312 0.1239 0.1348
        Q-s-low E-s-low   Q-p-low E-p-low   Q-d-low E-d-low   Q-f-low E-f-low
:EPL001:  1.8690 -1.8041    4.9229 -0.4916    0.0050 -0.4969    0.0015 -0.5106
        Q-s-hi  E-s-hi    Q-p-hi  E-p-hi    Q-d-hi  E-d-hi    Q-f-hi  E-f-hi 
:EPH001:  0.0719  0.7076    0.0711  0.7407    0.6114  0.7376    2.0934  0.7792

                      VXX         VYY         VZZ       UP TO R
:VZZ001:             3.17838     5.23832    -8.41670       2.300

:CHA  : TOTAL VALENCE CHARGE INSIDE UNIT CELL =      26.000000

:SUM  : SUM OF EIGENVALUES =          -5.591544223


        1.ATOM      Pr1                  14 CORE STATES
       CORE-FORCE in mRy/a.u. = |F|      Fx             Fy             Fz
:FCO001:   1.ATOM   1585.227760547700      0.000000000000      0.000000000000   1585.227760547700

:1S 001: 1S               -3066.800825173 Ry
:2S 001: 2S                -492.554782407 Ry
:2PP001: 2P*               -465.653489293 Ry
:2P 001: 2P                -430.256150040 Ry
:3S 001: 3S                -105.649081168 Ry
:3PP001: 3P*                -94.186765936 Ry
:3P 001: 3P                 -87.178988720 Ry
:3DD001: 3D*                -67.105513293 Ry
:3D 001: 3D                 -65.594000985 Ry
:4S 001: 4S                 -20.319280002 Ry
:4PP001: 4P*                -16.025410290 Ry
:4P 001: 4P                 -14.497070636 Ry
:4DD001: 4D*                 -7.428169630 Ry
:4D 001: 4D                  -7.158437063 Ry
:CINT001 Core Integral Atom   1   45.998505

       DENSITY AT NUCLEUS
        JATOM        VALENCE       SEMI-CORE          CORE           TOTAL
:RTO001:   1      648.986458        0.000000   656825.816278   657474.802736
     
       CHARGES OF NEW CHARGE DENSITY
:NTO   : INTERSTITIAL CHARGE =     6.706123
:NPC   : PW Pseudocharge     =    17.156166
:NTO001: CHARGE SPHERE  1    =    55.645443

:NEC01: NUCLEAR AND ELECTRONIC CHARGE    118.00000   117.99701
     
       CHARGES OF OLD CHARGE DENSITY
:OTO   : INTERSTITIAL CHARGE =     6.816181
:OPC   : PW Pseudocharge     =    17.216661
:OTO001: CHARGE SPHERE  1    =    55.591909

:NEC02: NUCLEAR AND ELECTRONIC CHARGE    118.00000   118.00000
     
       CONVERGENCE TEST
:DTO001: DIFFERENCE IN SPHERE  1 =  0.1008138

:DIS  :  CHARGE DISTANCE       ( 0.1008138 for atom    1 spin 1)      0.1008138
 PW Mixed is          404
 
******************************************************
* MULTISECANT MIXING VER9 RELEASE 10.4.0              *
* Standard Mode with controls                        *
* Fixed density scale                                *
* Regularization       1.000E-04                     *
* Trust Upper Limit    5.000E+00                     *
* Max Number of Memory Steps    8                    *
******************************************************
 
:PWTMP   2.8677E+02  1.9467E+02  3.8870E+02
:PLANE:  PW TOTAL      5.2383 DISTAN   2.10E-02  4.02E-01 %
:CHARG:  CLM/ATOM   1381.9554 DISTAN   1.49E-01  1.08E-02 %
 
Step History
        DMIX         DMIXT        Red     Pred      Trust     Lambda    MagRel    MagAbs     Beta
  1   3.5000E-02   3.5000E-02 -1.00E+00  1.00E+00 -1.00E+01  1.00E+00  3.50E-02  3.50E-02  1.00E+00
:INFO :  Note, Pratt in use
:TRUST:  Step 3.75E-02  Charge 7.50E-02 (e) CTO  2.50E-01 (e) PW  3.50E-01 (e)
:DIRM :  MEMORY  0/ 8 SCALE   1.000
Performing Pseudo Compensation
Final Pseudo Compensation Rescaling     1.00000E+00
:MIX  :   PRATT  REGULARIZATION:  1.00E-04 GREED: 0.02500                  
     
       CHARGES OF MIXED CHARGE DENSITY
:CTO   : INTERSTITIAL CHARGE =     6.813505
:CPC   : PW Pseudocharge     =    17.201254
:CTO001: CHARGE SPHERE  1    =    55.593248

:NEC03: NUCLEAR AND ELECTRONIC CHARGE    118.00000   118.00000

PW CHANGE     H    K    L      Current       Change    Residue
:PTO001:      0    0    0  6.17816117E-02 -4.652E-05 -4.114E-04
:PTO003:      0    2    0  1.59750218E-02 -1.329E-05  1.226E-05
:PTO004:     -1    1    0  7.73937346E-02 -7.179E-05 -1.003E-04
:PTO005:      0    2   -1 -8.93454420E-02  8.223E-05  4.082E-05
:PTO006:      0    0   -2 -4.62955719E-02  4.314E-05  3.879E-05
:PTO007:     -1    1   -1 -9.53479829E-02  9.196E-05  8.526E-05
:PTO008:      0    2   -2 -1.47807574E-02  1.581E-05  3.890E-05
:PTO009:     -1    1   -2 -7.52147898E-02  7.467E-05  3.371E-05
:PTO011:     -1    3    0 -1.18791263E-02  1.246E-05  4.443E-05
:PTO012:     -1    3   -1 -5.16676719E-02  4.952E-05  2.605E-05
:PTO013:      0    4    0 -9.19672933E-03  8.604E-06  4.358E-06
:PTO014:      0    2   -3  2.11969187E-02 -1.973E-05 -2.659E-05

:ENE  : ********** TOTAL ENERGY IN Ry =       -36944.29569979

       TOTAL FORCE IN mRy/a.u. = |F|     Fx             Fy             Fz     with/without FOR in case.in2
:FOR001:   1.ATOM         18.894          0.000          0.000        -18.894 partial forces
       TOTAL FORCE WITH RESPECT TO GLOBAL CARTESIAN COORDINATES:
:FCA001:   1.ATOM                         0.000        -18.894          0.000 partial forces
       TOTAL FORCE WITH RESPECT TO THE GLOBAL COORDINATE SYSTEM:
:FGL001:   1.ATOM                 0.000000000   -18.893638001     0.000000000 partial forces
 Flat Integration
 New Mode for Coulomb Integral
 Consistent 3/8+Simpson combinations
 Extension of core to zero
 LDM version in phi
 Fifth-order quadrature in outwin


            ---------
:ITE015: 15. ITERATION
            ---------

:NATO :    1 INDEPENDENT AND    2 TOTAL ATOMS IN UNITCELL
       SUBSTANCE: aU                                                          

       LATTICE                      = CXY 
:POT  : POTENTIAL OPTION EX_LDA EC_LDA VX_LDA VC_LDA
:LAT  : LATTICE CONSTANTS=  6.02469 12.22562 10.55463    1.571    1.571    1.571
:VOL  : UNIT CELL VOLUME =     388.70398
       MODE OF CALCULATION IS       = RELA
       NON-SPINPOLARIZED CALCULATION
:IFFT  : FFT-parameters:   48   96   90 Factor: 2.00


   CONVERGENCE PARAMETER FOR PSEUDOCHARGE: NCON=  9
   MAXIMAL VALUE OF RMT(JATOM)*ABSK(NKK) : RK  =27.59258


:VKCOUL :  VK-COUL convergence: 0.254E-06
       ATOMNUMBER=  1 Pr1        VCOUL-ZERO =  0.26831E+00
:EFG001:                        EFG         =    -9.40890   *10**21  V / m**2
                               V20  TOT/SRF=    -8.14835    -0.04133
                               V22  TOT/SRF=    -1.23762    -0.00401
                               V22M TOT/SRF=     0.00000     0.00000
                               V21  TOT/SRF=     0.00000     0.00000
                               V21M TOT/SRF=     0.00000     0.00000

              3.46683    0.00000    0.00000        3.46683    0.00000    0.00000
              0.00000    5.94207    0.00000        0.00000    5.94207    0.00000
              0.00000    0.00000   -9.40890        0.00000    0.00000   -9.40890

         MAIN DIRECTIONS OF THE EFG   1.0000  0.0000  0.0000
                                      0.0000  1.0000  0.0000
                                      0.0000  0.0000  1.0000
:ANG001:  ANGLE WITH OLD X-AXIS =         0.0

:ETA001:                         ASYMM. ETA =     0.26307


     HELLMANN-FEYNMAN-FORCE IN mRy/a.u. = |F|  Fx       Fy             Fz
:FHF001:   1.ATOM   1603.230107722528      0.000000000000      0.000000000000  -1603.230107722528

:FIT001: LUSE= 13 SIGMA OF V-XC FIT FOR ATOM  1  0.5745733E-04
:FIT001: LUSE= 13 SIGMA OF V-XC FIT FOR ATOM  1  0.5745733E-04
:DEN  : DENSITY INTEGRAL  =        -14169.46045568   (Ry)
       ELS_POTENTIAL_AT Z=0 and Z=0.5:   0.82369   0.82369
       ELS_POTENTIAL_AT Y=0 and Y=0.5:   0.04835   0.04835
:VZERO:v0,v0c,v0x   0.18936   0.82369  -0.63433 v5,v5c,v5x   0.18936   0.82369  -0.63433
:VZERY:v0,v0c,v0x  -0.79587   0.04835  -0.84421 v5,v5c,v5x  -0.79587   0.04835  -0.84421
:VZERX:v0,v0c,v0x  -1.18814  -0.38795  -0.80019 v5,v5c,v5x  -1.18814  -0.38795  -0.80019
:LMAX-WF:   10   Non-Spherical LMAX:   4

          ATOMIC SPHERE DEPENDENT PARAMETERS FOR ATOM  Pr1       
:e__0001: OVERALL ENERGY PARAMETER IS    0.5993
          OVERALL BASIS SET ON ATOM IS LAPW
:E0_0001: E( 0)=    0.5993
             APW+lo
:E0_0001: E( 0)=   -1.8458   E(BOTTOM)=   -2.481   E(TOP)=   -1.211  4  5   200
             LOCAL ORBITAL
:E1_0001: E( 1)=    0.9993
             APW+lo
:E1_0001: E( 1)=   -0.3754   E(BOTTOM)=   -1.333   E(TOP)=    0.582  3  4   207
             LOCAL ORBITAL
:E3_0001: E( 3)=    0.7980   E(BOTTOM)=    0.592   E(TOP)=    1.004  0  1   122
             APW+lo
:E2_0001: E( 2)=    0.5993   E(BOTTOM)=    0.407   E(TOP)= -200.000  2 -1    82
             APW+lo

       K=   0.06250   0.00000   0.06250            1
:RKM  : MATRIX SIZE   364LOs:  40  RKM= 8.48  WEIGHT= 4.00  PGR:    
       EIGENVALUES ARE:
:EIG00001:      -1.8337388   -1.8043439   -0.5894862   -0.4624751   -0.4334783
:EIG00006:      -0.4221391   -0.4099328   -0.4098715    0.5855732    0.6906459
:EIG00011:       0.7913861    0.7949077    0.7954837    0.7993301    0.8066948
:EIG00016:       0.8217616    0.8277943    0.8282795    0.8324686    0.8351998
:EIG00021:       0.8420533    0.8451024    0.8455577    0.8563387    0.8825205
:EIG00026:       0.9015956    0.9954112    1.0026093    1.0602287    1.0897495
:EIG00031:       1.0945643    1.2247016    1.2606569    1.3227685    1.6272275
:EIG00036:       1.6699035    1.7120228    1.7648351    1.9077985    1.9690817
:EIG00041:       2.0904059    2.1813444    2.2914660    2.3106093    2.4501005
:EIG00046:       2.4639032    2.4831163    2.6019120    2.6294816    2.7525945
 
:EIG00051:       2.8100730    2.8795168    2.8960249    3.0062476    3.0568362
:EIG00056:       3.0962359    3.1277381    3.2280947    3.2862097    3.3908361
:EIG00061:       3.4080174    3.4947834    3.6099066    3.6101531    3.6596281
:EIG00066:       3.8046029    3.8302331    3.9236266    3.9289432    3.9553083
:EIG00071:       3.9599554    4.0174752    4.0571258    4.1631183    4.1734466
:EIG00076:       4.2210412    4.2337725    4.2892714    4.3122250    4.3393064
:EIG00081:       4.3597497    4.4076140    4.4096938    4.4929443    4.5199272
:EIG00086:       4.5952836    4.6347715    4.6965908    4.7327764    4.7505966
:EIG00091:       4.7742871    4.8187341    4.8504052    4.8848677    4.8919906
:EIG00096:       4.9120735    4.9809360    4.9899924    5.0361123    5.0879717
 
:EIG00101:       5.1811956    5.2955045    5.3335664    5.4140992    5.4161045
:EIG00106:       5.4550499    5.4990746    5.5590181    5.5947412    5.6006022
:EIG00111:       5.7130329    5.7569196    5.8531694    5.9244610    5.9350952
:EIG00116:       5.9597732    6.0289737    6.0511080    6.1176269    6.1380401
:EIG00121:       6.2082211    6.2087842    6.2900077    6.3125454    6.3653869
:EIG00126:       6.4544395    6.5267166    6.5274766    6.5511348    6.6253766
:EIG00131:       6.6679871    6.7091364    6.7165394    6.7598141    6.8221622
:EIG00136:       6.8730250    6.9062588    6.9384646    6.9792126    6.9898326
:EIG00141:       7.0409025    7.0630110    7.1085065    7.1246212    7.1817440
:EIG00146:       7.1935684    7.2208144    7.3039442    7.3309473    7.3774946
 
:EIG00151:       7.3897689    7.4263223    7.4595286    7.5973508    7.6431137
:EIG00156:       7.7560805    7.8117046    7.8190228    7.8323507    7.9456583
:EIG00161:       8.0079591    8.0783962    8.1197835    8.1393448    8.1883197
:EIG00166:       8.1993744    8.2224456    8.2333357
       ********************************************************

:KPT   :      NUMBER OF K-POINTS:   288
   0.0   0.0 angle (M,z), angle (M,x) deg
 
        SPIN-ORBIT EIGENVALUES:
     K=   0.06250   0.00000   0.06250            1
      MATRIX SIZE=  336   WEIGHT= 4.00
     EIGENVALUES ARE:
          -1.8337392   -1.8337392   -1.8043442   -1.8043442   -0.6537348
          -0.6537348   -0.5732143   -0.5732143   -0.4579577   -0.4579577
          -0.3613694   -0.3613694   -0.3577134   -0.3577134   -0.3434411
          -0.3434411    0.5856429    0.5856429    0.6905223    0.6905223
           0.7875489    0.7875489    0.7910397    0.7910397    0.7920593
           0.7920593    0.7960503    0.7960503    0.8022529    0.8022529
           0.8114116    0.8114116    0.8236825    0.8236825    0.8325281
           0.8325281    0.8385158    0.8385158    0.8394021    0.8394021

           0.8454057    0.8454057    0.8487917    0.8487918    0.8502404
           0.8502404    0.8602837    0.8602837    0.8837537    0.8837537
           0.9017679    0.9017679    0.9922962    0.9922962    1.0055049
           1.0055049    1.0606399    1.0606399    1.0892387    1.0892388
           1.0954398    1.0954398    1.2246051    1.2246051    1.2609253
           1.2609253    1.3228989    1.3228989    1.6275071    1.6275071
           1.6699378    1.6699378    1.7120000    1.7120000    1.7648677
           1.7648677    1.9075191    1.9075191    1.9685646    1.9685646

           2.0904581    2.0904581    2.1805400    2.1805400    2.2901635
           2.2901635    2.3112553    2.3112554    2.4503629    2.4503629
           2.4638354    2.4638354    2.4821060    2.4821060    2.6005588
           2.6005588    2.6310771    2.6310771    2.7526330    2.7526330
           2.8094405    2.8094405    2.8760249    2.8760249    2.8983539
           2.8983539    3.0060860    3.0060860    3.0574268    3.0574268
           3.0966611    3.0966611    3.1269996    3.1269996    3.2286362
           3.2286362    3.2871554    3.2871554    3.3905433    3.3905433

           3.4085161    3.4085161    3.4991570    3.4991570    3.6097607
           3.6097607    3.6102712    3.6102712    3.6598916    3.6598916
           3.8046344    3.8046344    3.8304123    3.8304123    3.9232516
           3.9232516    3.9291413    3.9291413    3.9556708    3.9556708
           3.9599582    3.9599582    4.0169136    4.0169136    4.0572146
           4.0572146    4.1614806    4.1614806    4.1752702    4.1752702
           4.2225286    4.2225286    4.2346530    4.2346530    4.2893957
           4.2893957    4.3127263    4.3127263    4.3394990    4.3394990

           4.3598700    4.3598700    4.4074757    4.4074757    4.4105454
           4.4105454    4.4930572    4.4930572
       ********************************************************
:GAP (global)   :    0.0    Ry =     0.0   eV (metal)
:GAP (this spin):    0.0    Ry =     0.0   eV (metal)
         Bandranges (emin - emax) and occupancy:
:BAN00018:  18    0.579082    0.755637  1.00000000
:BAN00019:  19    0.679588    0.773261  1.00000000
:BAN00020:  20    0.679588    0.773261  1.00000000
:BAN00021:  21    0.706964    0.796209  1.00000000
:BAN00022:  22    0.706964    0.796209  1.00000000
:BAN00023:  23    0.763044    0.800193  0.99807330
:BAN00024:  24    0.763044    0.800193  0.99807329
:BAN00025:  25    0.775878    0.810056  0.73197438
:BAN00026:  26    0.775878    0.810056  0.73197424
:BAN00027:  27    0.792551    0.812225  0.26995248
:BAN00028:  28    0.792551    0.812225  0.26995231
:BAN00029:  29    0.800947    0.814780  0.00000000
:BAN00030:  30    0.800947    0.814780  0.00000000
:BAN00031:  31    0.805739    0.823405  0.00000000
:BAN00032:  32    0.805739    0.823405  0.00000000
:BAN00033:  33    0.814400    0.831741  0.00000000
        Energy to separate low and high energystates:    0.52908


:NOE  : NUMBER OF ELECTRONS          =   26.000

:FER  : F E R M I - ENERGY(TETRAH.M.)=   0.7993012859
:GMA  : POTENTIAL AND CHARGE CUT-OFF  12.00 Ry**.5

:POS001: ATOM   -1 X,Y,Z = 0.00000 0.89750 0.25000  MULT= 2  ZZ= 59.000  Pr1       

       LMMAX 16
       LM=   0 0  1 0  2 0  2 2  3 0  3 2  4 0  4 2  4 4  5 0  5 2  5 4  6 0  6 2  6 4  6 6

:CHA001: TOTAL VALENCE CHARGE INSIDE SPHERE   1 =   9.6301    (RMT=  2.3000 )
:PCS001: PARTIAL CHARGES SPHERE =  1 S,P,D,F,PX,PY,PZ,D-Z2,D-X2Y2,D-XY,D-XZ,D-YZ 
:QTL001: 1.9412 4.9942 0.6225 2.0715 1.6624 1.6608 1.6710 0.1182 0.1109 0.1321 0.1252 0.1360
        Q-s-low E-s-low   Q-p-low E-p-low   Q-d-low E-d-low   Q-f-low E-f-low
:EPL001:  1.8689 -1.8034    4.9221 -0.4911    0.0051 -0.4964    0.0015 -0.5102
        Q-s-hi  E-s-hi    Q-p-hi  E-p-hi    Q-d-hi  E-d-hi    Q-f-hi  E-f-hi 
:EPH001:  0.0723  0.7079    0.0722  0.7414    0.6174  0.7382    2.0700  0.7804

                      VXX         VYY         VZZ       UP TO R
:VZZ001:             3.28382     5.36215    -8.64597       2.300

:CHA  : TOTAL VALENCE CHARGE INSIDE UNIT CELL =      26.000000

:SUM  : SUM OF EIGENVALUES =          -5.577320636


        1.ATOM      Pr1                  14 CORE STATES
       CORE-FORCE in mRy/a.u. = |F|      Fx             Fy             Fz
:FCO001:   1.ATOM   1584.457677163959      0.000000000000      0.000000000000   1584.457677163959

:1S 001: 1S               -3066.797638996 Ry
:2S 001: 2S                -492.551586429 Ry
:2PP001: 2P*               -465.650295358 Ry
:2P 001: 2P                -430.252955428 Ry
:3S 001: 3S                -105.645958381 Ry
:3PP001: 3P*                -94.183636065 Ry
:3P 001: 3P                 -87.175872181 Ry
:3DD001: 3D*                -67.102372609 Ry
:3D 001: 3D                 -65.590863564 Ry
:4S 001: 4S                 -20.316868338 Ry
:4PP001: 4P*                -16.023043345 Ry
:4P 001: 4P                 -14.494772943 Ry
:4DD001: 4D*                 -7.425994516 Ry
:4D 001: 4D                  -7.156285580 Ry
:CINT001 Core Integral Atom   1   45.998504

       DENSITY AT NUCLEUS
        JATOM        VALENCE       SEMI-CORE          CORE           TOTAL
:RTO001:   1      649.016265        0.000000   656825.670084   657474.686349
     
       CHARGES OF NEW CHARGE DENSITY
:NTO   : INTERSTITIAL CHARGE =     6.739888
:NPC   : PW Pseudocharge     =    17.167295
:NTO001: CHARGE SPHERE  1    =    55.628559

:NEC01: NUCLEAR AND ELECTRONIC CHARGE    118.00000   117.99701
     
       CHARGES OF OLD CHARGE DENSITY
:OTO   : INTERSTITIAL CHARGE =     6.813505
:OPC   : PW Pseudocharge     =    17.201254
:OTO001: CHARGE SPHERE  1    =    55.593248

:NEC02: NUCLEAR AND ELECTRONIC CHARGE    118.00000   118.00000
     
       CONVERGENCE TEST
:DTO001: DIFFERENCE IN SPHERE  1 =  0.0691771

:DIS  :  CHARGE DISTANCE       ( 0.0691771 for atom    1 spin 1)      0.0691771
 PW Mixed is          404
 
******************************************************
* MULTISECANT MIXING VER9 RELEASE 10.4.0              *
* Slow Mode, cautious                                *
* Fixed density scale                                *
* Regularization       1.000E-04                     *
* Step Trust Radius    0.75000                       *
* Trust Upper Limit    2.000E+00                     *
* Max Number of Memory Steps   12                    *
******************************************************
 
:PWTMP   2.8677E+02  1.9467E+02  3.8870E+02
:PLANE:  PW TOTAL      5.2338 DISTAN   1.28E-02  2.45E-01 %
:CHARG:  CLM/ATOM   1381.9556 DISTAN   1.06E-01  7.64E-03 %
 
Step History
        DMIX         DMIXT        Red     Pred      Trust     Lambda    MagRel    MagAbs     Beta
  1   3.5000E-02   3.5000E-02 -1.00E+00  1.00E+00 -1.00E+01  1.00E+00  3.50E-02  3.50E-02  1.00E+00
  2   2.5000E-02   2.5000E-02 -1.00E+00  1.00E+00 -1.00E+01  1.00E+00  2.50E-02  3.76E-03  1.00E+00
:JACOBIANS    7.973E-03   3.845E-02
  
:NORMS:  1/Froebius, Min, Max, Used   0.1679E-01  0.1679E-01  0.9260E-01  0.1679E-01
:INFO :  Number of Memory Steps    1 Skipping    0
:PREDicted Charge, CTotal, PW Trust    4.217E-03   8.434E-03   2.854E-02
:PREDicted DMix, Beta, BLim   1.0000E-02  3.1510E+00  3.9843E-01

Eigenvalues, unscaled except for SY+YY
   #     SY Real        SY Imag          SS             YY         SY+YY Real      SY+YY Imag
   1   9.260468E-02   0.000000E+00   1.678717E-02   1.000000E+00   1.092605E+00   0.000000E+00
 
:BLIM :  VZERO Control Off
:TRUST:  Step 3.98E-01  Charge 7.50E-02 (e) CTO  2.50E-01 (e) PW  3.50E-01 (e)
:DIRM :  MEMORY  1/12 SCALE   1.000 RED  0.71 PRED  1.00 NEXT  0.36 
:TRAVE:  Charge 2.80E-03 (e) CTO  5.60E-03 (e) PW  1.91E-02 (e)
:DIRP :  |MSR1|= 9.874E-03 |PRATT|= 1.282E-02 ANGLE=  62.7 DEGREES
:DIRQ :  |MSR1|= 8.244E-03 |PRATT|= 1.055E-01 ANGLE=   1.2 DEGREES
:DIRT :  |MSR1|= 1.286E-02 |PRATT|= 1.063E-01 ANGLE=  47.3 DEGREES
:MIX  :   MSR1   REGULARIZATION:  1.00E-04 GREED: 0.02000  Newton 1.00  0.1210                
     
       CHARGES OF MIXED CHARGE DENSITY
:CTO   : INTERSTITIAL CHARGE =     6.807903
:CPC   : PW Pseudocharge     =    17.168728
:CTO001: CHARGE SPHERE  1    =    55.596049

:NEC03: NUCLEAR AND ELECTRONIC CHARGE    118.00000   118.00000

PW CHANGE     H    K    L      Current       Change    Residue
:PTO001:      0    0    0  6.16835224E-02 -9.809E-05 -2.494E-04
:PTO003:      0    2    0  1.59468598E-02 -2.816E-05  1.517E-05
:PTO004:     -1    1    0  7.72420661E-02 -1.517E-04 -2.500E-05
:PTO005:      0    2   -1 -8.91723953E-02  1.730E-04 -3.295E-05
:PTO006:      0    0   -2 -4.62046137E-02  9.096E-05 -2.635E-06
:PTO007:     -1    1   -1 -9.51534521E-02  1.945E-04  6.336E-06
:PTO008:      0    2   -2 -1.47471453E-02  3.361E-05  2.034E-05
:PTO009:     -1    1   -2 -7.50574081E-02  1.574E-04 -2.838E-05
:PTO011:     -1    3    0 -1.18525521E-02  2.657E-05  2.684E-05
:PTO012:     -1    3   -1 -5.15631748E-02  1.045E-04 -1.413E-05
:PTO013:      0    4    0 -9.17843734E-03  1.829E-05 -4.201E-07
:PTO014:      0    2   -3  2.11552901E-02 -4.163E-05 -5.395E-06

:ENE  : ********** TOTAL ENERGY IN Ry =       -36944.29541511

       TOTAL FORCE IN mRy/a.u. = |F|     Fx             Fy             Fz     with/without FOR in case.in2
:FOR001:   1.ATOM         18.772          0.000          0.000        -18.772 partial forces
       TOTAL FORCE WITH RESPECT TO GLOBAL CARTESIAN COORDINATES:
:FCA001:   1.ATOM                         0.000        -18.772          0.000 partial forces
       TOTAL FORCE WITH RESPECT TO THE GLOBAL COORDINATE SYSTEM:
:FGL001:   1.ATOM                 0.000000000   -18.772430559     0.000000000 partial forces
 Flat Integration
 New Mode for Coulomb Integral
 Consistent 3/8+Simpson combinations
 Extension of core to zero
 LDM version in phi
 Fifth-order quadrature in outwin


            ---------
:ITE016: 16. ITERATION
            ---------

:NATO :    1 INDEPENDENT AND    2 TOTAL ATOMS IN UNITCELL
       SUBSTANCE: aU                                                          

       LATTICE                      = CXY 
:POT  : POTENTIAL OPTION EX_LDA EC_LDA VX_LDA VC_LDA
:LAT  : LATTICE CONSTANTS=  6.02469 12.22562 10.55463    1.571    1.571    1.571
:VOL  : UNIT CELL VOLUME =     388.70398
       MODE OF CALCULATION IS       = RELA
       NON-SPINPOLARIZED CALCULATION
:IFFT  : FFT-parameters:   48   96   90 Factor: 2.00


   CONVERGENCE PARAMETER FOR PSEUDOCHARGE: NCON=  9
   MAXIMAL VALUE OF RMT(JATOM)*ABSK(NKK) : RK  =27.59258


:VKCOUL :  VK-COUL convergence: 0.253E-06
       ATOMNUMBER=  1 Pr1        VCOUL-ZERO =  0.26785E+00
:EFG001:                        EFG         =    -9.35339   *10**21  V / m**2
                               V20  TOT/SRF=    -8.10027    -0.04113
                               V22  TOT/SRF=    -1.22280    -0.00390
                               V22M TOT/SRF=     0.00000     0.00000
                               V21  TOT/SRF=     0.00000     0.00000
                               V21M TOT/SRF=     0.00000     0.00000

              3.45390    0.00000    0.00000        3.45390    0.00000    0.00000
              0.00000    5.89949    0.00000        0.00000    5.89949    0.00000
              0.00000    0.00000   -9.35339        0.00000    0.00000   -9.35339

         MAIN DIRECTIONS OF THE EFG   1.0000  0.0000  0.0000
                                      0.0000  1.0000  0.0000
                                      0.0000  0.0000  1.0000
:ANG001:  ANGLE WITH OLD X-AXIS =         0.0

:ETA001:                         ASYMM. ETA =     0.26147


     HELLMANN-FEYNMAN-FORCE IN mRy/a.u. = |F|  Fx       Fy             Fz
:FHF001:   1.ATOM   1601.082661952380      0.000000000000      0.000000000000  -1601.082661952380

:FIT001: LUSE= 13 SIGMA OF V-XC FIT FOR ATOM  1  0.5705779E-04
:FIT001: LUSE= 13 SIGMA OF V-XC FIT FOR ATOM  1  0.5705779E-04
:DEN  : DENSITY INTEGRAL  =        -14170.04073500   (Ry)
       ELS_POTENTIAL_AT Z=0 and Z=0.5:   0.82268   0.82268
       ELS_POTENTIAL_AT Y=0 and Y=0.5:   0.04822   0.04822
:VZERO:v0,v0c,v0x   0.18855   0.82268  -0.63414 v5,v5c,v5x   0.18855   0.82268  -0.63414
:VZERY:v0,v0c,v0x  -0.79567   0.04822  -0.84388 v5,v5c,v5x  -0.79567   0.04822  -0.84388
:VZERX:v0,v0c,v0x  -1.18724  -0.38738  -0.79986 v5,v5c,v5x  -1.18724  -0.38738  -0.79986
:LMAX-WF:   10   Non-Spherical LMAX:   4

          ATOMIC SPHERE DEPENDENT PARAMETERS FOR ATOM  Pr1       
:e__0001: OVERALL ENERGY PARAMETER IS    0.5993
          OVERALL BASIS SET ON ATOM IS LAPW
:E0_0001: E( 0)=    0.5993
             APW+lo
:E0_0001: E( 0)=   -1.8442   E(BOTTOM)=   -2.480   E(TOP)=   -1.209  4  5   193
             LOCAL ORBITAL
:E1_0001: E( 1)=    0.9993
             APW+lo
:E1_0001: E( 1)=   -0.3740   E(BOTTOM)=   -1.332   E(TOP)=    0.584  3  4   205
             LOCAL ORBITAL
:E3_0001: E( 3)=    0.8014   E(BOTTOM)=    0.595   E(TOP)=    1.008  0  1   118
             APW+lo
:E2_0001: E( 2)=    0.5993   E(BOTTOM)=    0.408   E(TOP)= -200.000  2 -1    87
             APW+lo

       K=   0.06250   0.00000   0.06250            1
:RKM  : MATRIX SIZE   364LOs:  40  RKM= 8.48  WEIGHT= 4.00  PGR:    
       EIGENVALUES ARE:
:EIG00001:      -1.8322541   -1.8027935   -0.5887029   -0.4614811   -0.4324317
:EIG00006:      -0.4209737   -0.4087518   -0.4087429    0.5852050    0.6904220
:EIG00011:       0.7939046    0.7977591    0.7983847    0.8021310    0.8094784
:EIG00016:       0.8250341    0.8311060    0.8316206    0.8357930    0.8383935
:EIG00021:       0.8454656    0.8482517    0.8485752    0.8597218    0.8839582
:EIG00026:       0.9023802    0.9958974    1.0027363    1.0604046    1.0899109
:EIG00031:       1.0947864    1.2249061    1.2610231    1.3231847    1.6271920
:EIG00036:       1.6699228    1.7118786    1.7650253    1.9075689    1.9688592
:EIG00041:       2.0902982    2.1812012    2.2913290    2.3105632    2.4500742
:EIG00046:       2.4637769    2.4827845    2.6017654    2.6292137    2.7523561
 
:EIG00051:       2.8099163    2.8795073    2.8958377    3.0062214    3.0568562
:EIG00056:       3.0959671    3.1275472    3.2283751    3.2860824    3.3908108
:EIG00061:       3.4077041    3.4948575    3.6094350    3.6100722    3.6592797
:EIG00066:       3.8044593    3.8298084    3.9231394    3.9285566    3.9551249
:EIG00071:       3.9597275    4.0172863    4.0567824    4.1627524    4.1730703
:EIG00076:       4.2205953    4.2335233    4.2888795    4.3117980    4.3388906
:EIG00081:       4.3593836    4.4072577    4.4092435    4.4925180    4.5193565
:EIG00086:       4.5949928    4.6341378    4.6961335    4.7324594    4.7502939
:EIG00091:       4.7737667    4.8181868    4.8501533    4.8844799    4.8918012
:EIG00096:       4.9115255    4.9804086    4.9894721    5.0357857    5.0874998
 
:EIG00101:       5.1808157    5.2950363    5.3332029    5.4135436    5.4155565
:EIG00106:       5.4546841    5.4985411    5.5584694    5.5942034    5.6002161
:EIG00111:       5.7125606    5.7563871    5.8529561    5.9239803    5.9347825
:EIG00116:       5.9592594    6.0286517    6.0507516    6.1173431    6.1375807
:EIG00121:       6.2079214    6.2083126    6.2896639    6.3120748    6.3649830
:EIG00126:       6.4539281    6.5262297    6.5270646    6.5507724    6.6249033
:EIG00131:       6.6675984    6.7086702    6.7160189    6.7595533    6.8218491
:EIG00136:       6.8724895    6.9057225    6.9379919    6.9786819    6.9893745
:EIG00141:       7.0404524    7.0623798    7.1080223    7.1241375    7.1813604
:EIG00146:       7.1930236    7.2203558    7.3034333    7.3303542    7.3773660
 
:EIG00151:       7.3891628    7.4258385    7.4589288    7.5970071    7.6425769
:EIG00156:       7.7556981    7.8111841    7.8184591    7.8318777    7.9451326
:EIG00161:       8.0074379    8.0779062    8.1192489    8.1390052    8.1878597
:EIG00166:       8.1988739    8.2221211    8.2329502
       ********************************************************

:KPT   :      NUMBER OF K-POINTS:   288
   0.0   0.0 angle (M,z), angle (M,x) deg
 
        SPIN-ORBIT EIGENVALUES:
     K=   0.06250   0.00000   0.06250            1
      MATRIX SIZE=  336   WEIGHT= 4.00
     EIGENVALUES ARE:
          -1.8322545   -1.8322545   -1.8027937   -1.8027937   -0.6527650
          -0.6527650   -0.5720087   -0.5720087   -0.4570418   -0.4570418
          -0.3602953   -0.3602953   -0.3566585   -0.3566585   -0.3423585
          -0.3423585    0.5852748    0.5852749    0.6903017    0.6903017
           0.7902109    0.7902109    0.7939667    0.7939667    0.7949863
           0.7949863    0.7989469    0.7989469    0.8051724    0.8051724
           0.8147650    0.8147650    0.8266360    0.8266361    0.8357521
           0.8357521    0.8417801    0.8417801    0.8426153    0.8426153

           0.8485359    0.8485359    0.8517922    0.8517922    0.8534473
           0.8534474    0.8636517    0.8636517    0.8853102    0.8853102
           0.9026178    0.9026178    0.9927560    0.9927560    1.0056838
           1.0056838    1.0608158    1.0608158    1.0894173    1.0894174
           1.0956476    1.0956476    1.2248110    1.2248110    1.2612903
           1.2612903    1.3233143    1.3233143    1.6274722    1.6274722
           1.6699573    1.6699573    1.7118563    1.7118563    1.7650573
           1.7650573    1.9072903    1.9072903    1.9683419    1.9683419

           2.0903506    2.0903506    2.1803978    2.1803978    2.2900354
           2.2900354    2.3111996    2.3111996    2.4503351    2.4503351
           2.4637084    2.4637084    2.4817781    2.4817781    2.6004033
           2.6004033    2.6308192    2.6308192    2.7523959    2.7523959
           2.8092838    2.8092838    2.8759898    2.8759898    2.8981905
           2.8981905    3.0060590    3.0060590    3.0574363    3.0574363
           3.0963950    3.0963950    3.1268119    3.1268119    3.2289121
           3.2289121    3.2870307    3.2870307    3.3905131    3.3905131

           3.4082135    3.4082135    3.4992233    3.4992233    3.6094245
           3.6094245    3.6100552    3.6100552    3.6595442    3.6595442
           3.8044899    3.8044899    3.8299885    3.8299885    3.9227699
           3.9227699    3.9287502    3.9287502    3.9554877    3.9554877
           3.9597296    3.9597296    4.0167196    4.0167196    4.0568714
           4.0568714    4.1611120    4.1611120    4.1748983    4.1748983
           4.2220931    4.2220931    4.2343937    4.2343937    4.2890038
           4.2890038    4.3122992    4.3122992    4.3390849    4.3390849

           4.3595026    4.3595026    4.4071090    4.4071090    4.4101064
           4.4101064    4.4926310    4.4926310
       ********************************************************
:GAP (global)   :    0.0    Ry =     0.0   eV (metal)
:GAP (this spin):    0.0    Ry =     0.0   eV (metal)
         Bandranges (emin - emax) and occupancy:
:BAN00018:  18    0.578709    0.756699  1.00000000
:BAN00019:  19    0.679296    0.774933  1.00000000
:BAN00020:  20    0.679296    0.774933  1.00000000
:BAN00021:  21    0.706890    0.799161  1.00000000
:BAN00022:  22    0.706890    0.799161  1.00000000
:BAN00023:  23    0.763870    0.803120  0.99802784
:BAN00024:  24    0.763870    0.803120  0.99802784
:BAN00025:  25    0.777674    0.813329  0.73413226
:BAN00026:  26    0.777674    0.813329  0.73413206
:BAN00027:  27    0.794863    0.815543  0.26784014
:BAN00028:  28    0.794863    0.815543  0.26783986
:BAN00029:  29    0.803981    0.818118  0.00000000
:BAN00030:  30    0.803981    0.818118  0.00000000
:BAN00031:  31    0.808708    0.826310  0.00000000
:BAN00032:  32    0.808708    0.826310  0.00000000
:BAN00033:  33    0.817586    0.834615  0.00000000
        Energy to separate low and high energystates:    0.52871


:NOE  : NUMBER OF ELECTRONS          =   26.000

:FER  : F E R M I - ENERGY(TETRAH.M.)=   0.8021891768
:GMA  : POTENTIAL AND CHARGE CUT-OFF  12.00 Ry**.5

:POS001: ATOM   -1 X,Y,Z = 0.00000 0.89750 0.25000  MULT= 2  ZZ= 59.000  Pr1       

       LMMAX 16
       LM=   0 0  1 0  2 0  2 2  3 0  3 2  4 0  4 2  4 4  5 0  5 2  5 4  6 0  6 2  6 4  6 6

:CHA001: TOTAL VALENCE CHARGE INSIDE SPHERE   1 =   9.5944    (RMT=  2.3000 )
:PCS001: PARTIAL CHARGES SPHERE =  1 S,P,D,F,PX,PY,PZ,D-Z2,D-X2Y2,D-XY,D-XZ,D-YZ 
:QTL001: 1.9418 4.9947 0.6352 2.0221 1.6624 1.6609 1.6714 0.1210 0.1139 0.1339 0.1278 0.1386
        Q-s-low E-s-low   Q-p-low E-p-low   Q-d-low E-d-low   Q-f-low E-f-low
:EPL001:  1.8687 -1.8018    4.9203 -0.4901    0.0051 -0.4954    0.0015 -0.5092
        Q-s-hi  E-s-hi    Q-p-hi  E-p-hi    Q-d-hi  E-d-hi    Q-f-hi  E-f-hi 
:EPH001:  0.0730  0.7085    0.0744  0.7429    0.6301  0.7396    2.0206  0.7828

                      VXX         VYY         VZZ       UP TO R
:VZZ001:             3.50207     5.64282    -9.14490       2.300

:CHA  : TOTAL VALENCE CHARGE INSIDE UNIT CELL =      26.000000

:SUM  : SUM OF EIGENVALUES =          -5.547003624


        1.ATOM      Pr1                  14 CORE STATES
       CORE-FORCE in mRy/a.u. = |F|      Fx             Fy             Fz
:FCO001:   1.ATOM   1582.510635121549      0.000000000000      0.000000000000   1582.510635121549

:1S 001: 1S               -3066.790874683 Ry
:2S 001: 2S                -492.544782388 Ry
:2PP001: 2P*               -465.643499827 Ry
:2P 001: 2P                -430.246156896 Ry
:3S 001: 3S                -105.639276883 Ry
:3PP001: 3P*                -94.176941209 Ry
:3P 001: 3P                 -87.169204170 Ry
:3DD001: 3D*                -67.095657612 Ry
:3D 001: 3D                 -65.584154925 Ry
:4S 001: 4S                 -20.311690174 Ry
:4PP001: 4P*                -16.017961274 Ry
:4P 001: 4P                 -14.489839116 Ry
:4DD001: 4D*                 -7.421324133 Ry
:4D 001: 4D                  -7.151665847 Ry
:CINT001 Core Integral Atom   1   45.998500

       DENSITY AT NUCLEUS
        JATOM        VALENCE       SEMI-CORE          CORE           TOTAL
:RTO001:   1      649.069577        0.000000   656825.364043   657474.433620
     
       CHARGES OF NEW CHARGE DENSITY
:NTO   : INTERSTITIAL CHARGE =     6.811152
:NPC   : PW Pseudocharge     =    17.190815
:NTO001: CHARGE SPHERE  1    =    55.592923

:NEC01: NUCLEAR AND ELECTRONIC CHARGE    118.00000   117.99700
     
       CHARGES OF OLD CHARGE DENSITY
:OTO   : INTERSTITIAL CHARGE =     6.807903
:OPC   : PW Pseudocharge     =    17.168728
:OTO001: CHARGE SPHERE  1    =    55.596049

:NEC02: NUCLEAR AND ELECTRONIC CHARGE    118.00000   118.00000
     
       CONVERGENCE TEST
:DTO001: DIFFERENCE IN SPHERE  1 =  0.0077235

:DIS  :  CHARGE DISTANCE       ( 0.0077235 for atom    1 spin 1)      0.0077235
 PW Mixed is          404
 
******************************************************
* MULTISECANT MIXING VER9 RELEASE 10.4.0              *
* Slow Mode, cautious                                *
* Fixed density scale                                *
* Regularization       1.000E-04                     *
* Step Trust Radius    0.75000                       *
* Trust Upper Limit    2.000E+00                     *
* Max Number of Memory Steps   12                    *
******************************************************
 
:PWTMP   2.8677E+02  1.9467E+02  3.8870E+02
:PLANE:  PW TOTAL      5.2241 DISTAN   9.78E-03  1.87E-01 %
:CHARG:  CLM/ATOM   1381.9560 DISTAN   3.58E-02  2.59E-03 %
 
Step History
        DMIX         DMIXT        Red     Pred      Trust     Lambda    MagRel    MagAbs     Beta
  1   3.5000E-02   3.5000E-02 -1.00E+00  1.00E+00 -1.00E+01  1.00E+00  3.50E-02  3.50E-02  1.00E+00
  2   2.5000E-02   2.5000E-02  7.07E-01  1.00E+00 -1.00E+01  1.00E+00  2.50E-02  3.76E-03  1.00E+00
  3   2.0000E-02   2.0000E-02 -1.00E+00  3.58E-01  3.98E-01  1.00E+00  1.21E-01  1.29E-02  1.00E+00
:JACOBIANS    1.192E-02   5.902E-02
  
:NORMS:  1/Froebius, Min, Max, Used   0.1313E+00  0.1313E+00  0.4097E+00  0.1322E+00
:INFO :  Number of Memory Steps    2 Skipping    0
:INFO :  SLambda=    3.0000000000  Max    3.0000000000
:PREDicted Charge, CTotal, PW Trust    2.853E-03   5.705E-03   1.948E-02
:PREDicted DMix, Beta, BLim   7.5451E-03  1.0198E+00  2.8689E-01

Eigenvalues, unscaled except for SY+YY
   #     SY Real        SY Imag          SS             YY         SY+YY Real      SY+YY Imag
   1   4.028947E-06   0.000000E+00   3.448463E-02   1.999990E+00   2.295160E-05   0.000000E+00
   2   1.881107E-01   0.000000E+00   3.035768E-06   1.042690E-05   2.564321E+00   0.000000E+00
 
:INFO :  Singular value  2.564E+00 Weight  1.000E+00 Projection -1.439E-03
:INFO :  Singular value  2.295E-05 Weight  1.300E-02 Projection  1.572E-01
:RANK :  ACTIVE   1.01/2  =  50.65 % ; YY RANK   1.00/2  =  50.14 %
 
:BLIM :  VZERO Control Off
:TRUST:  Step 4.98E-01  Charge 7.50E-02 (e) CTO  2.50E-01 (e) PW  3.50E-01 (e)
:DIRM :  MEMORY  2/12 SCALE   1.000 RED  0.35 PRED  0.36 NEXT  0.99 
:TRAVE:  Charge 1.41E-03 (e) CTO  2.82E-03 (e) PW  9.57E-03 (e)
:DIRP :  |MSR1|= 7.080E-05 |PRATT|= 9.779E-03 ANGLE= 102.5 DEGREES
:DIRQ :  |MSR1|= 9.357E-04 |PRATT|= 3.576E-02 ANGLE=   9.6 DEGREES
:DIRT :  |MSR1|= 9.383E-04 |PRATT|= 3.708E-02 ANGLE=  19.2 DEGREES
:MIX  :   MSE1   REGULARIZATION:  2.00E-04 GREED: 0.01627  Newton 1.00  0.0253                
     
       CHARGES OF MIXED CHARGE DENSITY
:CTO   : INTERSTITIAL CHARGE =     6.807936
:CPC   : PW Pseudocharge     =    17.168589
:CTO001: CHARGE SPHERE  1    =    55.596032

:NEC03: NUCLEAR AND ELECTRONIC CHARGE    118.00000   118.00000

PW CHANGE     H    K    L      Current       Change    Residue
:PTO001:      0    0    0  6.16832504E-02 -2.720E-07  9.239E-05
:PTO003:      0    2    0  1.59466386E-02 -2.212E-07  2.223E-05
:PTO004:     -1    1    0  7.72412701E-02 -7.960E-07  1.340E-04
:PTO005:      0    2   -1 -8.91722996E-02  9.576E-08 -1.881E-04
:PTO006:      0    0   -2 -4.62043507E-02  2.629E-07 -8.967E-05
:PTO007:     -1    1   -1 -9.51521763E-02  1.276E-06 -1.618E-04
:PTO008:      0    2   -2 -1.47467158E-02  4.295E-07 -1.880E-05
:PTO009:     -1    1   -2 -7.50570253E-02  3.828E-07 -1.586E-04
:PTO011:     -1    3    0 -1.18520981E-02  4.540E-07 -9.836E-06
:PTO012:     -1    3   -1 -5.15627655E-02  4.094E-07 -9.874E-05
:PTO013:      0    4    0 -9.17820984E-03  2.275E-07 -1.072E-05
:PTO014:      0    2   -3  2.11551160E-02 -1.741E-07  3.863E-05

:ENE  : ********** TOTAL ENERGY IN Ry =       -36944.29514906

       TOTAL FORCE IN mRy/a.u. = |F|     Fx             Fy             Fz     with/without FOR in case.in2
:FOR001:   1.ATOM         18.572          0.000          0.000        -18.572 partial forces
       TOTAL FORCE WITH RESPECT TO GLOBAL CARTESIAN COORDINATES:
:FCA001:   1.ATOM                         0.000        -18.572          0.000 partial forces
       TOTAL FORCE WITH RESPECT TO THE GLOBAL COORDINATE SYSTEM:
:FGL001:   1.ATOM                 0.000000000   -18.572026831     0.000000000 partial forces
 Flat Integration
 New Mode for Coulomb Integral
 Consistent 3/8+Simpson combinations
 Extension of core to zero
 LDM version in phi
 Fifth-order quadrature in outwin


            ---------
:ITE017: 17. ITERATION
            ---------

:NATO :    1 INDEPENDENT AND    2 TOTAL ATOMS IN UNITCELL
       SUBSTANCE: aU                                                          

       LATTICE                      = CXY 
:POT  : POTENTIAL OPTION EX_LDA EC_LDA VX_LDA VC_LDA
:LAT  : LATTICE CONSTANTS=  6.02469 12.22562 10.55463    1.571    1.571    1.571
:VOL  : UNIT CELL VOLUME =     388.70398
       MODE OF CALCULATION IS       = RELA
       NON-SPINPOLARIZED CALCULATION
:IFFT  : FFT-parameters:   48   96   90 Factor: 2.00


   CONVERGENCE PARAMETER FOR PSEUDOCHARGE: NCON=  9
   MAXIMAL VALUE OF RMT(JATOM)*ABSK(NKK) : RK  =27.59258


:VKCOUL :  VK-COUL convergence: 0.253E-06
       ATOMNUMBER=  1 Pr1        VCOUL-ZERO =  0.26784E+00
:EFG001:                        EFG         =    -9.34841   *10**21  V / m**2
                               V20  TOT/SRF=    -8.09596    -0.04112
                               V22  TOT/SRF=    -1.21883    -0.00387
                               V22M TOT/SRF=     0.00000     0.00000
                               V21  TOT/SRF=     0.00000     0.00000
                               V21M TOT/SRF=     0.00000     0.00000

              3.45537    0.00000    0.00000        3.45537    0.00000    0.00000
              0.00000    5.89304    0.00000        0.00000    5.89304    0.00000
              0.00000    0.00000   -9.34841        0.00000    0.00000   -9.34841

         MAIN DIRECTIONS OF THE EFG   1.0000  0.0000  0.0000
                                      0.0000  1.0000  0.0000
                                      0.0000  0.0000  1.0000
:ANG001:  ANGLE WITH OLD X-AXIS =         0.0

:ETA001:                         ASYMM. ETA =     0.26076


     HELLMANN-FEYNMAN-FORCE IN mRy/a.u. = |F|  Fx       Fy             Fz
:FHF001:   1.ATOM   1600.717374673512      0.000000000000      0.000000000000  -1600.717374673512

:FIT001: LUSE= 13 SIGMA OF V-XC FIT FOR ATOM  1  0.5695029E-04
:FIT001: LUSE= 13 SIGMA OF V-XC FIT FOR ATOM  1  0.5695029E-04
:DEN  : DENSITY INTEGRAL  =        -14170.05210871   (Ry)
       ELS_POTENTIAL_AT Z=0 and Z=0.5:   0.82268   0.82268
       ELS_POTENTIAL_AT Y=0 and Y=0.5:   0.04821   0.04821
:VZERO:v0,v0c,v0x   0.18854   0.82268  -0.63414 v5,v5c,v5x   0.18854   0.82268  -0.63414
:VZERY:v0,v0c,v0x  -0.79567   0.04821  -0.84388 v5,v5c,v5x  -0.79567   0.04821  -0.84388
:VZERX:v0,v0c,v0x  -1.18724  -0.38738  -0.79986 v5,v5c,v5x  -1.18724  -0.38738  -0.79986
:LMAX-WF:   10   Non-Spherical LMAX:   4

          ATOMIC SPHERE DEPENDENT PARAMETERS FOR ATOM  Pr1       
:e__0001: OVERALL ENERGY PARAMETER IS    0.6012
          OVERALL BASIS SET ON ATOM IS LAPW
:E0_0001: E( 0)=    0.6012
             APW+lo
:E0_0001: E( 0)=   -1.8441   E(BOTTOM)=   -2.480   E(TOP)=   -1.209  4  5   200
             LOCAL ORBITAL
:E1_0001: E( 1)=    1.0012
             APW+lo
:E1_0001: E( 1)=   -0.3740   E(BOTTOM)=   -1.332   E(TOP)=    0.584  3  4   206
             LOCAL ORBITAL
:E3_0001: E( 3)=    0.8015   E(BOTTOM)=    0.595   E(TOP)=    1.008  0  1   119
             APW+lo
:E2_0001: E( 2)=    0.6012   E(BOTTOM)=    0.408   E(TOP)= -200.000  2 -1   120
             APW+lo

       K=   0.06250   0.00000   0.06250            1
:RKM  : MATRIX SIZE   364LOs:  40  RKM= 8.48  WEIGHT= 4.00  PGR:    
       EIGENVALUES ARE:
:EIG00001:      -1.8322186   -1.8027564   -0.5886859   -0.4614572   -0.4324068
:EIG00006:      -0.4209385   -0.4087285   -0.4087069    0.5852108    0.6904273
:EIG00011:       0.7939703    0.7978353    0.7984460    0.8022031    0.8095389
:EIG00016:       0.8251194    0.8311900    0.8317061    0.8358769    0.8384652
:EIG00021:       0.8455506    0.8483335    0.8486542    0.8597939    0.8840014
:EIG00026:       0.9024095    0.9959148    1.0027453    1.0604183    1.0899237
:EIG00031:       1.0948013    1.2249193    1.2610385    1.3231962    1.6272065
:EIG00036:       1.6699351    1.7118869    1.7650362    1.9075807    1.9688660
:EIG00041:       2.0903054    2.1812080    2.2913345    2.3105684    2.4500658
:EIG00046:       2.4637782    2.4827841    2.6017675    2.6292084    2.7523551
 
:EIG00051:       2.8099091    2.8794994    2.8958295    3.0062048    3.0568477
:EIG00056:       3.0959548    3.1275472    3.2283397    3.2860789    3.3908105
:EIG00061:       3.4076787    3.4948399    3.6094185    3.6100395    3.6592625
:EIG00066:       3.8044235    3.8297850    3.9231343    3.9285396    3.9551167
:EIG00071:       3.9597091    4.0172688    4.0567700    4.1627462    4.1730580
:EIG00076:       4.2205860    4.2334969    4.2888483    4.3117850    4.3388833
:EIG00081:       4.3593642    4.4072402    4.4092313    4.4924963    4.5193385
:EIG00086:       4.5949792    4.6341272    4.6961217    4.7324098    4.7502823
:EIG00091:       4.7737439    4.8181713    4.8501022    4.8844545    4.8917506
:EIG00096:       4.9115113    4.9803935    4.9894509    5.0357506    5.0874786
 
:EIG00101:       5.1807826    5.2949998    5.3331784    5.4135168    5.4155302
:EIG00106:       5.4546498    5.4985138    5.5584425    5.5941843    5.6001813
:EIG00111:       5.7125232    5.7563662    5.8528765    5.9239386    5.9347127
:EIG00116:       5.9592234    6.0286100    6.0506974    6.1172545    6.1375205
:EIG00121:       6.2078449    6.2082458    6.2895718    6.3120375    6.3649275
:EIG00126:       6.4538798    6.5261873    6.5270153    6.5507136    6.6248647
:EIG00131:       6.6675266    6.7086165    6.7159850    6.7594711    6.8217686
:EIG00136:       6.8724482    6.9056680    6.9379339    6.9786426    6.9893169
:EIG00141:       7.0403926    7.0623446    7.1079443    7.1241018    7.1812484
:EIG00146:       7.1929751    7.2202748    7.3033695    7.3303094    7.3771563
 
:EIG00151:       7.3891282    7.4257584    7.4588880    7.5969237    7.6425260
:EIG00156:       7.7556223    7.8111233    7.8183998    7.8318149    7.9450754
:EIG00161:       8.0073767    8.0778557    8.1191915    8.1389202    8.1877820
:EIG00166:       8.1987898    8.2220258    8.2328855
       ********************************************************

:KPT   :      NUMBER OF K-POINTS:   288
   0.0   0.0 angle (M,z), angle (M,x) deg
 
        SPIN-ORBIT EIGENVALUES:
     K=   0.06250   0.00000   0.06250            1
      MATRIX SIZE=  336   WEIGHT= 4.00
     EIGENVALUES ARE:
          -1.8322189   -1.8322189   -1.8027567   -1.8027567   -0.6527427
          -0.6527427   -0.5719793   -0.5719793   -0.4570188   -0.4570188
          -0.3602649   -0.3602649   -0.3566301   -0.3566301   -0.3423325
          -0.3423325    0.5852807    0.5852807    0.6903070    0.6903070
           0.7902800    0.7902800    0.7940412    0.7940412    0.7950525
           0.7950525    0.7990196    0.7990196    0.8052379    0.8052379
           0.8148504    0.8148504    0.8267100    0.8267100    0.8358348
           0.8358348    0.8418607    0.8418607    0.8426924    0.8426924

           0.8486154    0.8486154    0.8518687    0.8518687    0.8535294
           0.8535294    0.8637249    0.8637249    0.8853562    0.8853562
           0.9026486    0.9026486    0.9927720    0.9927720    1.0056945
           1.0056945    1.0608294    1.0608294    1.0894304    1.0894305
           1.0956621    1.0956622    1.2248241    1.2248241    1.2613057
           1.2613057    1.3233257    1.3233258    1.6274867    1.6274867
           1.6699696    1.6699696    1.7118646    1.7118646    1.7650682
           1.7650682    1.9073022    1.9073022    1.9683486    1.9683486

           2.0903577    2.0903577    2.1804046    2.1804046    2.2900409
           2.2900409    2.3112047    2.3112047    2.4503269    2.4503269
           2.4637096    2.4637096    2.4817776    2.4817776    2.6004050
           2.6004050    2.6308139    2.6308139    2.7523947    2.7523947
           2.8092768    2.8092768    2.8759812    2.8759812    2.8981827
           2.8981827    3.0060423    3.0060423    3.0574281    3.0574281
           3.0963829    3.0963829    3.1268113    3.1268113    3.2288768
           3.2288768    3.2870272    3.2870272    3.3905110    3.3905110

           3.4081890    3.4081890    3.4992066    3.4992066    3.6094047
           3.6094047    3.6100257    3.6100257    3.6595269    3.6595269
           3.8044541    3.8044541    3.8299652    3.8299652    3.9227644
           3.9227644    3.9287336    3.9287336    3.9554795    3.9554795
           3.9597114    3.9597114    4.0167020    4.0167020    4.0568589
           4.0568589    4.1611051    4.1611051    4.1748867    4.1748867
           4.2220822    4.2220822    4.2343690    4.2343690    4.2889729
           4.2889729    4.3122862    4.3122862    4.3390777    4.3390777

           4.3594833    4.3594833    4.4070922    4.4070922    4.4100936
           4.4100936    4.4926093    4.4926093
       ********************************************************
:GAP (global)   :    0.0    Ry =     0.0   eV (metal)
:GAP (this spin):    0.0    Ry =     0.0   eV (metal)
         Bandranges (emin - emax) and occupancy:
:BAN00018:  18    0.578715    0.756732  1.00000000
:BAN00019:  19    0.679300    0.774978  1.00000000
:BAN00020:  20    0.679300    0.774978  1.00000000
:BAN00021:  21    0.706900    0.799227  1.00000000
:BAN00022:  22    0.706900    0.799227  1.00000000
:BAN00023:  23    0.763897    0.803195  0.99802187
:BAN00024:  24    0.763897    0.803195  0.99802186
:BAN00025:  25    0.777726    0.813406  0.73415292
:BAN00026:  26    0.777726    0.813406  0.73415267
:BAN00027:  27    0.794923    0.815625  0.26782551
:BAN00028:  28    0.794923    0.815625  0.26782516
:BAN00029:  29    0.804056    0.818205  0.00000000
:BAN00030:  30    0.804056    0.818205  0.00000000
:BAN00031:  31    0.808778    0.826381  0.00000000
:BAN00032:  32    0.808778    0.826381  0.00000000
:BAN00033:  33    0.817665    0.834687  0.00000000
        Energy to separate low and high energystates:    0.52871


:NOE  : NUMBER OF ELECTRONS          =   26.000

:FER  : F E R M I - ENERGY(TETRAH.M.)=   0.8022602088
:GMA  : POTENTIAL AND CHARGE CUT-OFF  12.00 Ry**.5

:POS001: ATOM   -1 X,Y,Z = 0.00000 0.89750 0.25000  MULT= 2  ZZ= 59.000  Pr1       

       LMMAX 16
       LM=   0 0  1 0  2 0  2 2  3 0  3 2  4 0  4 2  4 4  5 0  5 2  5 4  6 0  6 2  6 4  6 6

:CHA001: TOTAL VALENCE CHARGE INSIDE SPHERE   1 =   9.5937    (RMT=  2.3000 )
:PCS001: PARTIAL CHARGES SPHERE =  1 S,P,D,F,PX,PY,PZ,D-Z2,D-X2Y2,D-XY,D-XZ,D-YZ 
:QTL001: 1.9418 4.9947 0.6355 2.0210 1.6624 1.6609 1.6714 0.1211 0.1139 0.1339 0.1279 0.1387
        Q-s-low E-s-low   Q-p-low E-p-low   Q-d-low E-d-low   Q-f-low E-f-low
:EPL001:  1.8687 -1.8018    4.9203 -0.4901    0.0051 -0.4954    0.0015 -0.5092
        Q-s-hi  E-s-hi    Q-p-hi  E-p-hi    Q-d-hi  E-d-hi    Q-f-hi  E-f-hi 
:EPH001:  0.0730  0.7085    0.0744  0.7429    0.6304  0.7396    2.0196  0.7828

                      VXX         VYY         VZZ       UP TO R
:VZZ001:             3.49371     5.66977    -9.16348       2.300

:CHA  : TOTAL VALENCE CHARGE INSIDE UNIT CELL =      26.000000

:SUM  : SUM OF EIGENVALUES =          -5.546190098


        1.ATOM      Pr1                  14 CORE STATES
       CORE-FORCE in mRy/a.u. = |F|      Fx             Fy             Fz
:FCO001:   1.ATOM   1582.083332989100      0.000000000000      0.000000000000   1582.083332989100

:1S 001: 1S               -3066.790802103 Ry
:2S 001: 2S                -492.544687356 Ry
:2PP001: 2P*               -465.643409743 Ry
:2P 001: 2P                -430.246064962 Ry
:3S 001: 3S                -105.639144923 Ry
:3PP001: 3P*                -94.176811062 Ry
:3P 001: 3P                 -87.169072613 Ry
:3DD001: 3D*                -67.095530528 Ry
:3D 001: 3D                 -65.584027249 Ry
:4S 001: 4S                 -20.311566835 Ry
:4PP001: 4P*                -16.017840284 Ry
:4P 001: 4P                 -14.489721117 Ry
:4DD001: 4D*                 -7.421212571 Ry
:4D 001: 4D                  -7.151555376 Ry
:CINT001 Core Integral Atom   1   45.998500

       DENSITY AT NUCLEUS
        JATOM        VALENCE       SEMI-CORE          CORE           TOTAL
:RTO001:   1      649.070072        0.000000   656825.365828   657474.435900
     
       CHARGES OF NEW CHARGE DENSITY
:NTO   : INTERSTITIAL CHARGE =     6.812620
:NPC   : PW Pseudocharge     =    17.191340
:NTO001: CHARGE SPHERE  1    =    55.592189

:NEC01: NUCLEAR AND ELECTRONIC CHARGE    118.00000   117.99700
     
       CHARGES OF OLD CHARGE DENSITY
:OTO   : INTERSTITIAL CHARGE =     6.807936
:OPC   : PW Pseudocharge     =    17.168589
:OTO001: CHARGE SPHERE  1    =    55.596032

:NEC02: NUCLEAR AND ELECTRONIC CHARGE    118.00000   118.00000
     
       CONVERGENCE TEST
:DTO001: DIFFERENCE IN SPHERE  1 =  0.0073358

:DIS  :  CHARGE DISTANCE       ( 0.0073358 for atom    1 spin 1)      0.0073358
 PW Mixed is          404
 
******************************************************
* MULTISECANT MIXING VER9 RELEASE 10.4.0              *
* Slow Mode, cautious                                *
* Fixed density scale                                *
* Regularization       1.000E-04                     *
* Step Trust Radius    0.75000                       *
* Trust Upper Limit    2.000E+00                     *
* Max Number of Memory Steps   12                    *
******************************************************
 
:PWTMP   2.8677E+02  1.9467E+02  3.8870E+02
:PLANE:  PW TOTAL      5.2241 DISTAN   9.91E-03  1.90E-01 %
:CHARG:  CLM/ATOM   1381.9559 DISTAN   3.45E-02  2.50E-03 %
 
Step History
        DMIX         DMIXT        Red     Pred      Trust     Lambda    MagRel    MagAbs     Beta
  1   3.5000E-02   3.5000E-02 -1.00E+00  1.00E+00 -1.00E+01  1.00E+00  3.50E-02  3.50E-02  1.00E+00
  2   2.5000E-02   2.5000E-02  7.07E-01  1.00E+00 -1.00E+01  1.00E+00  2.50E-02  3.76E-03  1.00E+00
  3   2.0000E-02   2.0000E-02  3.49E-01  3.58E-01  3.98E-01  3.00E+00  1.21E-01  1.29E-02  1.00E+00
  4   1.6273E-02   1.6273E-02 -1.00E+00  9.89E-01  4.98E-01  1.00E+00  2.53E-02  9.38E-04  1.00E+00
:JACOBIANS    2.408E-02   3.247E-01
  
:NORMS:  1/Froebius, Min, Max, Used   0.2377E+00  0.2255E+00  0.5321E+00  0.2557E+00
:INFO :  Number of Memory Steps    3 Skipping    0
:INFO :  SLambda=    1.2553073585  Max    1.2553073585
:PREDicted Charge, CTotal, PW Trust    2.067E-03   4.133E-03   9.602E-03
:PREDicted DMix, Beta, BLim   5.1996E-01  1.5346E+01  6.2530E-01

Eigenvalues, unscaled except for SY+YY
   #     SY Real        SY Imag          SS             YY         SY+YY Real      SY+YY Imag
   1   3.461236E-01   0.000000E+00   1.424885E-01   2.802704E+00   3.213801E+00   0.000000E+00
   2   4.017926E-08   0.000000E+00   2.703072E-02   1.972938E-01   1.928151E-06   0.000000E+00
   3   7.869732E-02   0.000000E+00   1.745079E-09   1.795338E-06   3.194780E-01   0.000000E+00
 
:INFO :  Singular value  3.214E+00 Weight  1.000E+00 Projection -5.732E-03
:INFO :  Singular value  3.195E-01 Weight  1.000E+00 Projection -7.707E-02
:INFO :  Singular value  1.928E-06 Weight  4.733E-05 Projection -2.049E-04
:RANK :  ACTIVE   2.00/3  =  66.67 % ; YY RANK   2.00/3  =  66.67 %
 
:BLIM :  VZERO Control Off
:TRUST:  Step 5.37E-01  Charge 7.50E-02 (e) CTO  2.50E-01 (e) PW  3.50E-01 (e)
:DTRUS:  Lambda    6.653E-02 Increment    3.638E-12 Iterations    99 DMIX    3.489E-02
:INFOA:  Angle SubSpace to MSR1      0.05
:DIRM :  MEMORY  3/12 SCALE   1.000 RED  0.97 PRED  0.99 NEXT  0.59 
:INFO :  Limited by Atoms F by Step T

:TRAVE:  Charge 1.58E-03 (e) CTO  3.15E-03 (e) PW  9.01E-03 (e)
:DIRP :  |MSR1|= 4.481E-03 |PRATT|= 9.909E-03 ANGLE=   2.9 DEGREES
:DIRQ :  |MSR1|= 1.875E-02 |PRATT|= 3.452E-02 ANGLE=   2.7 DEGREES
:DIRT :  |MSR1|= 1.928E-02 |PRATT|= 3.591E-02 ANGLE=   3.7 DEGREES
:MIX  :   MSE1   REGULARIZATION:  2.80E-04 GREED: 0.04068  LMStep 0.86  0.5368 Step           
     
       CHARGES OF MIXED CHARGE DENSITY
:CTO   : INTERSTITIAL CHARGE =     6.811420
:CPC   : PW Pseudocharge     =    17.181977
:CTO001: CHARGE SPHERE  1    =    55.594290

:NEC03: NUCLEAR AND ELECTRONIC CHARGE    118.00000   118.00000

PW CHANGE     H    K    L      Current       Change    Residue
:PTO001:      0    0    0  6.17266569E-02  4.341E-05  9.779E-05
:PTO003:      0    2    0  1.59565355E-02  9.897E-06  2.260E-05
:PTO004:     -1    1    0  7.73012942E-02  6.002E-05  1.359E-04
:PTO005:      0    2   -1 -8.92576268E-02 -8.533E-05 -1.874E-04
:PTO006:      0    0   -2 -4.62444565E-02 -4.011E-05 -8.968E-05
:PTO007:     -1    1   -1 -9.52228521E-02 -7.068E-05 -1.631E-04
:PTO008:      0    2   -2 -1.47541018E-02 -7.386E-06 -1.931E-05
:PTO009:     -1    1   -2 -7.51281770E-02 -7.115E-05 -1.583E-04
:PTO011:     -1    3    0 -1.18551364E-02 -3.038E-06 -1.023E-05
:PTO012:     -1    3   -1 -5.16066974E-02 -4.393E-05 -9.880E-05
:PTO013:      0    4    0 -9.18229035E-03 -4.081E-06 -1.066E-05
:PTO014:      0    2   -3  2.11720532E-02  1.694E-05  3.855E-05

:ENE  : ********** TOTAL ENERGY IN Ry =       -36944.29515386

       TOTAL FORCE IN mRy/a.u. = |F|     Fx             Fy             Fz     with/without FOR in case.in2
:FOR001:   1.ATOM         18.634          0.000          0.000        -18.634 partial forces
       TOTAL FORCE WITH RESPECT TO GLOBAL CARTESIAN COORDINATES:
:FCA001:   1.ATOM                         0.000        -18.634          0.000 partial forces
       TOTAL FORCE WITH RESPECT TO THE GLOBAL COORDINATE SYSTEM:
:FGL001:   1.ATOM                 0.000000000   -18.634041684     0.000000000 partial forces
 Flat Integration
 New Mode for Coulomb Integral
 Consistent 3/8+Simpson combinations
 Extension of core to zero
 LDM version in phi
 Fifth-order quadrature in outwin


            ---------
:ITE018: 18. ITERATION
            ---------

:NATO :    1 INDEPENDENT AND    2 TOTAL ATOMS IN UNITCELL
       SUBSTANCE: aU                                                          

       LATTICE                      = CXY 
:POT  : POTENTIAL OPTION EX_LDA EC_LDA VX_LDA VC_LDA
:LAT  : LATTICE CONSTANTS=  6.02469 12.22562 10.55463    1.571    1.571    1.571
:VOL  : UNIT CELL VOLUME =     388.70398
       MODE OF CALCULATION IS       = RELA
       NON-SPINPOLARIZED CALCULATION
:IFFT  : FFT-parameters:   48   96   90 Factor: 2.00


   CONVERGENCE PARAMETER FOR PSEUDOCHARGE: NCON=  9
   MAXIMAL VALUE OF RMT(JATOM)*ABSK(NKK) : RK  =27.59258


:VKCOUL :  VK-COUL convergence: 0.248E-06
       ATOMNUMBER=  1 Pr1        VCOUL-ZERO =  0.26803E+00
:EFG001:                        EFG         =    -9.27187   *10**21  V / m**2
                               V20  TOT/SRF=    -8.02967    -0.04093
                               V22  TOT/SRF=    -1.15323    -0.00346
                               V22M TOT/SRF=     0.00000     0.00000
                               V21  TOT/SRF=     0.00000     0.00000
                               V21M TOT/SRF=     0.00000     0.00000

              3.48270    0.00000    0.00000        3.48270    0.00000    0.00000
              0.00000    5.78917    0.00000        0.00000    5.78917    0.00000
              0.00000    0.00000   -9.27187        0.00000    0.00000   -9.27187

         MAIN DIRECTIONS OF THE EFG   1.0000  0.0000  0.0000
                                      0.0000  1.0000  0.0000
                                      0.0000  0.0000  1.0000
:ANG001:  ANGLE WITH OLD X-AXIS =         0.0

:ETA001:                         ASYMM. ETA =     0.24876


     HELLMANN-FEYNMAN-FORCE IN mRy/a.u. = |F|  Fx       Fy             Fz
:FHF001:   1.ATOM   1593.192659643868      0.000000000000      0.000000000000  -1593.192659643868

:FIT001: LUSE= 13 SIGMA OF V-XC FIT FOR ATOM  1  0.5478782E-04
:FIT001: LUSE= 13 SIGMA OF V-XC FIT FOR ATOM  1  0.5478782E-04
:DEN  : DENSITY INTEGRAL  =        -14170.02268725   (Ry)
       ELS_POTENTIAL_AT Z=0 and Z=0.5:   0.82312   0.82312
       ELS_POTENTIAL_AT Y=0 and Y=0.5:   0.04821   0.04821
:VZERO:v0,v0c,v0x   0.18887   0.82312  -0.63425 v5,v5c,v5x   0.18887   0.82312  -0.63425
:VZERY:v0,v0c,v0x  -0.79586   0.04821  -0.84407 v5,v5c,v5x  -0.79586   0.04821  -0.84407
:VZERX:v0,v0c,v0x  -1.18771  -0.38770  -0.80001 v5,v5c,v5x  -1.18771  -0.38770  -0.80001
:LMAX-WF:   10   Non-Spherical LMAX:   4

          ATOMIC SPHERE DEPENDENT PARAMETERS FOR ATOM  Pr1       
:e__0001: OVERALL ENERGY PARAMETER IS    0.6019
          OVERALL BASIS SET ON ATOM IS LAPW
:E0_0001: E( 0)=    0.6019
             APW+lo
:E0_0001: E( 0)=   -1.8441   E(BOTTOM)=   -2.480   E(TOP)=   -1.208  4  5   193
             LOCAL ORBITAL
:E1_0001: E( 1)=    1.0019
             APW+lo
:E1_0001: E( 1)=   -0.3739   E(BOTTOM)=   -1.332   E(TOP)=    0.584  3  4   205
             LOCAL ORBITAL
:E3_0001: E( 3)=    0.8017   E(BOTTOM)=    0.595   E(TOP)=    1.008  0  1   122
             APW+lo
:E2_0001: E( 2)=    0.6019   E(BOTTOM)=    0.408   E(TOP)= -200.000  2 -1   118
             APW+lo

       K=   0.06250   0.00000   0.06250            1
:RKM  : MATRIX SIZE   364LOs:  40  RKM= 8.48  WEIGHT= 4.00  PGR:    
       EIGENVALUES ARE:
:EIG00001:      -1.8321429   -1.8026806   -0.5886605   -0.4613887   -0.4323426
:EIG00006:      -0.4207472   -0.4087280   -0.4085114    0.5855297    0.6906694
:EIG00011:       0.7942033    0.7981255    0.7984442    0.8024407    0.8095699
:EIG00016:       0.8254109    0.8314483    0.8319749    0.8361229    0.8385379
:EIG00021:       0.8457857    0.8486103    0.8489289    0.8597961    0.8842306
:EIG00026:       0.9026538    0.9960840    1.0029061    1.0606491    1.0901460
:EIG00031:       1.0950356    1.2251379    1.2612378    1.3233098    1.6275551
:EIG00036:       1.6702278    1.7121764    1.7652790    1.9079787    1.9691716
:EIG00041:       2.0905617    2.1815024    2.2916648    2.3108344    2.4502979
:EIG00046:       2.4640774    2.4830721    2.6020514    2.6294812    2.7526697
 
:EIG00051:       2.8101713    2.8796581    2.8960921    3.0064225    3.0570843
:EIG00056:       3.0961936    3.1278104    3.2285248    3.2863725    3.3910507
:EIG00061:       3.4079670    3.4950447    3.6096755    3.6102774    3.6595115
:EIG00066:       3.8046677    3.8300229    3.9234138    3.9288320    3.9553944
:EIG00071:       3.9599909    4.0175171    4.0570607    4.1630194    4.1733609
:EIG00076:       4.2208854    4.2337825    4.2891126    4.3120431    4.3391591
:EIG00081:       4.3596423    4.4075298    4.4094902    4.4927509    4.5196377
:EIG00086:       4.5952111    4.6344617    4.6964239    4.7326899    4.7505542
:EIG00091:       4.7740346    4.8184639    4.8503491    4.8846904    4.8920041
:EIG00096:       4.9117994    4.9806499    4.9897257    5.0360195    5.0877635
 
:EIG00101:       5.1810301    5.2952613    5.3334215    5.4138123    5.4158097
:EIG00106:       5.4549350    5.4988092    5.5587250    5.5944807    5.6004419
:EIG00111:       5.7128010    5.7566710    5.8531168    5.9242159    5.9349829
:EIG00116:       5.9594860    6.0288536    6.0509527    6.1175075    6.1377900
:EIG00121:       6.2080852    6.2085314    6.2898313    6.3122954    6.3651661
:EIG00126:       6.4541791    6.5264269    6.5272912    6.5509492    6.6251369
:EIG00131:       6.6678111    6.7088829    6.7162363    6.7596686    6.8220311
:EIG00136:       6.8727389    6.9059411    6.9382051    6.9789225    6.9895978
:EIG00141:       7.0406551    7.0626760    7.1082162    7.1243316    7.1814923
:EIG00146:       7.1932644    7.2205220    7.3036021    7.3305939    7.3773481
 
:EIG00151:       7.3894343    7.4260320    7.4591674    7.5971967    7.6428122
:EIG00156:       7.7558887    7.8113899    7.8186507    7.8320859    7.9453703
:EIG00161:       8.0076452    8.0781095    8.1194598    8.1391680    8.1880406
:EIG00166:       8.1990569    8.2222841    8.2331383
       ********************************************************

:KPT   :      NUMBER OF K-POINTS:   288
   0.0   0.0 angle (M,z), angle (M,x) deg
 
        SPIN-ORBIT EIGENVALUES:
     K=   0.06250   0.00000   0.06250            1
      MATRIX SIZE=  336   WEIGHT= 4.00
     EIGENVALUES ARE:
          -1.8321433   -1.8321433   -1.8026809   -1.8026809   -0.6526939
          -0.6526939   -0.5718973   -0.5718973   -0.4569373   -0.4569373
          -0.3601174   -0.3601174   -0.3565083   -0.3565083   -0.3422681
          -0.3422681    0.5855996    0.5855996    0.6905490    0.6905490
           0.7905159    0.7905159    0.7942536    0.7942536    0.7951464
           0.7951464    0.7992308    0.7992308    0.8053101    0.8053101
           0.8151094    0.8151094    0.8269275    0.8269275    0.8361030
           0.8361030    0.8420662    0.8420662    0.8428609    0.8428609

           0.8488589    0.8488589    0.8521112    0.8521112    0.8537857
           0.8537857    0.8637533    0.8637533    0.8855872    0.8855872
           0.9028930    0.9028930    0.9929340    0.9929340    1.0058614
           1.0058614    1.0610595    1.0610595    1.0896541    1.0896542
           1.0958953    1.0958953    1.2250424    1.2250424    1.2615052
           1.2615052    1.3234397    1.3234397    1.6278351    1.6278351
           1.6702622    1.6702622    1.7121542    1.7121542    1.7653110
           1.7653110    1.9076999    1.9076999    1.9686543    1.9686543

           2.0906141    2.0906141    2.1806987    2.1806987    2.2903653
           2.2903653    2.3114762    2.3114762    2.4505591    2.4505591
           2.4640087    2.4640087    2.4820659    2.4820659    2.6006875
           2.6006875    2.6310878    2.6310878    2.7527085    2.7527085
           2.8095385    2.8095385    2.8761585    2.8761585    2.8984291
           2.8984291    3.0062600    3.0062600    3.0576649    3.0576649
           3.0966220    3.0966220    3.1270733    3.1270733    3.2290625
           3.2290625    3.2873202    3.2873202    3.3907517    3.3907517

           3.4084754    3.4084754    3.4994134    3.4994134    3.6096578
           3.6096578    3.6102675    3.6102675    3.6597759    3.6597759
           3.8046984    3.8046984    3.8302032    3.8302032    3.9230444
           3.9230444    3.9290257    3.9290257    3.9557573    3.9557573
           3.9599929    3.9599929    4.0169506    4.0169506    4.0571496
           4.0571496    4.1613821    4.1613821    4.1751847    4.1751847
           4.2223800    4.2223800    4.2346558    4.2346558    4.2892371
           4.2892371    4.3125445    4.3125445    4.3393535    4.3393535

           4.3597615    4.3597615    4.4073781    4.4073781    4.4103561
           4.4103561    4.4928640    4.4928640
       ********************************************************
:GAP (global)   :    0.0    Ry =     0.0   eV (metal)
:GAP (this spin):    0.0    Ry =     0.0   eV (metal)
         Bandranges (emin - emax) and occupancy:
:BAN00018:  18    0.579035    0.756985  1.00000000
:BAN00019:  19    0.679558    0.775185  1.00000000
:BAN00020:  20    0.679558    0.775185  1.00000000
:BAN00021:  21    0.707174    0.799297  1.00000000
:BAN00022:  22    0.707174    0.799297  1.00000000
:BAN00023:  23    0.764105    0.803442  0.99792060
:BAN00024:  24    0.764105    0.803442  0.99792059
:BAN00025:  25    0.778008    0.813525  0.73416837
:BAN00026:  26    0.778008    0.813525  0.73416813
:BAN00027:  27    0.795138    0.815843  0.26791127
:BAN00028:  28    0.795138    0.815843  0.26791103
:BAN00029:  29    0.804253    0.818473  0.00000000
:BAN00030:  30    0.804253    0.818473  0.00000000
:BAN00031:  31    0.808921    0.826565  0.00000000
:BAN00032:  32    0.808921    0.826565  0.00000000
:BAN00033:  33    0.817880    0.834888  0.00000000
        Energy to separate low and high energystates:    0.52903


:NOE  : NUMBER OF ELECTRONS          =   26.000

:FER  : F E R M I - ENERGY(TETRAH.M.)=   0.8024406335
:GMA  : POTENTIAL AND CHARGE CUT-OFF  12.00 Ry**.5

:POS001: ATOM   -1 X,Y,Z = 0.00000 0.89750 0.25000  MULT= 2  ZZ= 59.000  Pr1       

       LMMAX 16
       LM=   0 0  1 0  2 0  2 2  3 0  3 2  4 0  4 2  4 4  5 0  5 2  5 4  6 0  6 2  6 4  6 6

:CHA001: TOTAL VALENCE CHARGE INSIDE SPHERE   1 =   9.5946    (RMT=  2.3000 )
:PCS001: PARTIAL CHARGES SPHERE =  1 S,P,D,F,PX,PY,PZ,D-Z2,D-X2Y2,D-XY,D-XZ,D-YZ 
:QTL001: 1.9418 4.9948 0.6355 2.0219 1.6625 1.6609 1.6714 0.1211 0.1140 0.1339 0.1279 0.1386
        Q-s-low E-s-low   Q-p-low E-p-low   Q-d-low E-d-low   Q-f-low E-f-low
:EPL001:  1.8687 -1.8017    4.9205 -0.4900    0.0051 -0.4953    0.0015 -0.5092
        Q-s-hi  E-s-hi    Q-p-hi  E-p-hi    Q-d-hi  E-d-hi    Q-f-hi  E-f-hi 
:EPH001:  0.0730  0.7088    0.0743  0.7431    0.6304  0.7398    2.0204  0.7830

                      VXX         VYY         VZZ       UP TO R
:VZZ001:             3.25342     6.03786    -9.29129       2.300

:CHA  : TOTAL VALENCE CHARGE INSIDE UNIT CELL =      26.000000

:SUM  : SUM OF EIGENVALUES =          -5.542428717


        1.ATOM      Pr1                  14 CORE STATES
       CORE-FORCE in mRy/a.u. = |F|      Fx             Fy             Fz
:FCO001:   1.ATOM   1573.215952888105      0.000000000000      0.000000000000   1573.215952888105

:1S 001: 1S               -3066.792472593 Ry
:2S 001: 2S                -492.545883013 Ry
:2PP001: 2P*               -465.644710197 Ry
:2P 001: 2P                -430.247326164 Ry
:3S 001: 3S                -105.639466797 Ry
:3PP001: 3P*                -94.177179432 Ry
:3P 001: 3P                 -87.169396806 Ry
:3DD001: 3D*                -67.095976298 Ry
:3D 001: 3D                 -65.584456867 Ry
:4S 001: 4S                 -20.311346825 Ry
:4PP001: 4P*                -16.017625389 Ry
:4P 001: 4P                 -14.489500184 Ry
:4DD001: 4D*                 -7.421005755 Ry
:4D 001: 4D                  -7.151348027 Ry
:CINT001 Core Integral Atom   1   45.998500

       DENSITY AT NUCLEUS
        JATOM        VALENCE       SEMI-CORE          CORE           TOTAL
:RTO001:   1      649.063247        0.000000   656825.553866   657474.617113
     
       CHARGES OF NEW CHARGE DENSITY
:NTO   : INTERSTITIAL CHARGE =     6.810733
:NPC   : PW Pseudocharge     =    17.191662
:NTO001: CHARGE SPHERE  1    =    55.593133

[...]
:PTO012:     -1    3   -1 -5.16619346E-02 -4.423E-07 -1.916E-07
:PTO013:      0    4    0 -9.18876507E-03 -1.542E-07 -1.738E-07
:PTO014:      0    2   -3  2.11944828E-02  2.978E-07  2.366E-07

:ENE  : ********** TOTAL ENERGY IN Ry =       -36944.29515230

       TOTAL FORCE IN mRy/a.u. = |F|     Fx             Fy             Fz     with/without FOR in case.in2
:FOR001:   1.ATOM         19.696          0.000          0.000        -19.696 partial forces
       TOTAL FORCE WITH RESPECT TO GLOBAL CARTESIAN COORDINATES:
:FCA001:   1.ATOM                         0.000        -19.696          0.000 partial forces
       TOTAL FORCE WITH RESPECT TO THE GLOBAL COORDINATE SYSTEM:
:FGL001:   1.ATOM                 0.000000000   -19.696228142     0.000000000 partial forces
 Flat Integration
 New Mode for Coulomb Integral
 Consistent 3/8+Simpson combinations
 Extension of core to zero
 LDM version in phi
 Fifth-order quadrature in outwin


            ---------
:ITE026: 26. ITERATION
            ---------

:NATO :    1 INDEPENDENT AND    2 TOTAL ATOMS IN UNITCELL
       SUBSTANCE: aU                                                          

       LATTICE                      = CXY 
:POT  : POTENTIAL OPTION EX_LDA EC_LDA VX_LDA VC_LDA
:LAT  : LATTICE CONSTANTS=  6.02469 12.22562 10.55463    1.571    1.571    1.571
:VOL  : UNIT CELL VOLUME =     388.70398
       MODE OF CALCULATION IS       = RELA
       NON-SPINPOLARIZED CALCULATION
:IFFT  : FFT-parameters:   48   96   90 Factor: 2.00


   CONVERGENCE PARAMETER FOR PSEUDOCHARGE: NCON=  9
   MAXIMAL VALUE OF RMT(JATOM)*ABSK(NKK) : RK  =27.59258


:VKCOUL :  VK-COUL convergence: 0.245E-06
       ATOMNUMBER=  1 Pr1        VCOUL-ZERO =  0.26833E+00
:EFG001:                        EFG         =    -9.23360   *10**21  V / m**2
                               V20  TOT/SRF=    -7.99653    -0.04086
                               V22  TOT/SRF=    -1.18121    -0.00363
                               V22M TOT/SRF=     0.00000     0.00000
                               V21  TOT/SRF=     0.00000     0.00000
                               V21M TOT/SRF=     0.00000     0.00000

              3.43558    0.00000    0.00000        3.43558    0.00000    0.00000
              0.00000    5.79801    0.00000        0.00000    5.79801    0.00000
              0.00000    0.00000   -9.23360        0.00000    0.00000   -9.23360

         MAIN DIRECTIONS OF THE EFG   1.0000  0.0000  0.0000
                                      0.0000  1.0000  0.0000
                                      0.0000  0.0000  1.0000
:ANG001:  ANGLE WITH OLD X-AXIS =         0.0

:ETA001:                         ASYMM. ETA =     0.25585


     HELLMANN-FEYNMAN-FORCE IN mRy/a.u. = |F|  Fx       Fy             Fz
:FHF001:   1.ATOM   1586.330001189330      0.000000000000      0.000000000000  -1586.330001189330

:FIT001: LUSE= 13 SIGMA OF V-XC FIT FOR ATOM  1  0.5322316E-04
:FIT001: LUSE= 13 SIGMA OF V-XC FIT FOR ATOM  1  0.5322316E-04
:DEN  : DENSITY INTEGRAL  =        -14170.03845589   (Ry)
       ELS_POTENTIAL_AT Z=0 and Z=0.5:   0.82357   0.82357
       ELS_POTENTIAL_AT Y=0 and Y=0.5:   0.04845   0.04845
:VZERO:v0,v0c,v0x   0.18925   0.82357  -0.63432 v5,v5c,v5x   0.18925   0.82357  -0.63432
:VZERY:v0,v0c,v0x  -0.79584   0.04845  -0.84428 v5,v5c,v5x  -0.79584   0.04845  -0.84428
:VZERX:v0,v0c,v0x  -1.18812  -0.38795  -0.80017 v5,v5c,v5x  -1.18812  -0.38795  -0.80017
:LMAX-WF:   10   Non-Spherical LMAX:   4

          ATOMIC SPHERE DEPENDENT PARAMETERS FOR ATOM  Pr1       
:e__0001: OVERALL ENERGY PARAMETER IS    0.6028
          OVERALL BASIS SET ON ATOM IS LAPW
:E0_0001: E( 0)=    0.6028
             APW+lo
:E0_0001: E( 0)=   -1.8438   E(BOTTOM)=   -2.479   E(TOP)=   -1.208  4  5   198
             LOCAL ORBITAL
:E1_0001: E( 1)=    1.0028
             APW+lo
:E1_0001: E( 1)=   -0.3737   E(BOTTOM)=   -1.332   E(TOP)=    0.584  3  4   202
             LOCAL ORBITAL
:E3_0001: E( 3)=    0.8020   E(BOTTOM)=    0.596   E(TOP)=    1.008  0  1   121
             APW+lo
:E2_0001: E( 2)=    0.6028   E(BOTTOM)=    0.408   E(TOP)= -200.000  2 -1   120
             APW+lo

       K=   0.06250   0.00000   0.06250            1
:RKM  : MATRIX SIZE   364LOs:  40  RKM= 8.48  WEIGHT= 4.00  PGR:    
       EIGENVALUES ARE:
:EIG00001:      -1.8318930   -1.8024355   -0.5883424   -0.4611027   -0.4320560
:EIG00006:      -0.4205901   -0.4084257   -0.4083593    0.5858748    0.6910027
:EIG00011:       0.7944562    0.7983739    0.7988690    0.8027390    0.8099858
:EIG00016:       0.8256959    0.8317785    0.8322850    0.8364368    0.8389219
:EIG00021:       0.8461186    0.8488723    0.8491662    0.8602381    0.8844799
:EIG00026:       0.9029010    0.9964213    1.0032246    1.0609422    1.0904588
:EIG00031:       1.0953082    1.2254513    1.2615278    1.3236242    1.6278979
:EIG00036:       1.6705558    1.7125417    1.7655854    1.9083276    1.9695420
:EIG00041:       2.0909094    2.1818417    2.2919777    2.3111671    2.4506463
:EIG00046:       2.4643969    2.4834233    2.6023761    2.6298295    2.7529896
 
:EIG00051:       2.8104710    2.8800055    2.8963993    3.0067450    3.0573726
:EIG00056:       3.0964940    3.1281313    3.2287828    3.2866702    3.3913562
:EIG00061:       3.4083016    3.4953567    3.6100170    3.6105586    3.6598257
:EIG00066:       3.8049628    3.8303714    3.9237565    3.9291322    3.9556975
:EIG00071:       3.9602815    4.0178083    4.0573626    4.1633385    4.1736850
:EIG00076:       4.2212219    4.2340793    4.2894264    4.3123688    4.3394843
:EIG00081:       4.3599324    4.4078358    4.4098193    4.4930717    4.5199673
:EIG00086:       4.5955156    4.6348174    4.6967430    4.7329825    4.7508836
:EIG00091:       4.7743754    4.8187931    4.8506420    4.8850189    4.8922897
:EIG00096:       4.9121387    4.9809927    4.9900572    5.0363294    5.0880866
 
:EIG00101:       5.1813552    5.2955848    5.3337470    5.4141429    5.4161517
:EIG00106:       5.4552449    5.4991390    5.5590651    5.5948101    5.6007551
:EIG00111:       5.7131348    5.7569960    5.8534189    5.9245264    5.9352648
:EIG00116:       5.9598065    6.0291679    6.0512544    6.1177893    6.1381069
:EIG00121:       6.2083787    6.2088414    6.2901310    6.3126232    6.3654773
:EIG00126:       6.4545080    6.5267523    6.5276138    6.5512623    6.6254609
:EIG00131:       6.6681178    6.7092007    6.7165604    6.7599671    6.8223225
:EIG00136:       6.8730657    6.9062679    6.9385201    6.9792312    6.9899095
:EIG00141:       7.0409654    7.0630012    7.1085241    7.1246486    7.1817820
:EIG00146:       7.1935910    7.2208185    7.3039294    7.3309133    7.3775762
 
:EIG00151:       7.3897588    7.4263410    7.4594952    7.5975148    7.6431415
:EIG00156:       7.7561998    7.8117102    7.8189773    7.8323954    7.9456689
:EIG00161:       8.0079455    8.0784264    8.1197812    8.1394599    8.1883417
:EIG00166:       8.1993619    8.2225683    8.2334392
       ********************************************************

:KPT   :      NUMBER OF K-POINTS:   288
   0.0   0.0 angle (M,z), angle (M,x) deg
 
        SPIN-ORBIT EIGENVALUES:
     K=   0.06250   0.00000   0.06250            1
      MATRIX SIZE=  336   WEIGHT= 4.00
     EIGENVALUES ARE:
          -1.8318934   -1.8318934   -1.8024358   -1.8024358   -0.6524048
          -0.6524048   -0.5716499   -0.5716499   -0.4566630   -0.4566630
          -0.3599139   -0.3599139   -0.3562782   -0.3562782   -0.3420101
          -0.3420101    0.5859446    0.5859446    0.6908824    0.6908824
           0.7907748    0.7907748    0.7945535    0.7945535    0.7955111
           0.7955111    0.7995458    0.7995458    0.8057056    0.8057056
           0.8154126    0.8154126    0.8272614    0.8272614    0.8364079
           0.8364079    0.8423921    0.8423921    0.8432022    0.8432022

           0.8491529    0.8491529    0.8523900    0.8523901    0.8540775
           0.8540775    0.8641818    0.8641818    0.8858373    0.8858373
           0.9031402    0.9031403    0.9932664    0.9932664    1.0061847
           1.0061847    1.0613532    1.0613532    1.0899608    1.0899609
           1.0961736    1.0961736    1.2253558    1.2253558    1.2617953
           1.2617953    1.3237540    1.3237540    1.6281778    1.6281778
           1.6705902    1.6705902    1.7125194    1.7125194    1.7656174
           1.7656174    1.9080488    1.9080488    1.9690246    1.9690246

           2.0909618    2.0909618    2.1810379    2.1810379    2.2906798
           2.2906798    2.3118075    2.3118075    2.4509076    2.4509076
           2.4643283    2.4643283    2.4824164    2.4824164    2.6010142
           2.6010142    2.6314341    2.6314341    2.7530283    2.7530283
           2.8098392    2.8098392    2.8764983    2.8764983    2.8987429
           2.8987429    3.0065824    3.0065824    3.0579541    3.0579541
           3.0969227    3.0969227    3.1273933    3.1273933    3.2293213
           3.2293213    3.2876177    3.2876177    3.3910579    3.3910579

           3.4088088    3.4088088    3.4997254    3.4997254    3.6099844
           3.6099844    3.6105637    3.6105637    3.6600899    3.6600899
           3.8049937    3.8049937    3.8305515    3.8305515    3.9233855
           3.9233855    3.9293274    3.9293274    3.9560603    3.9560603
           3.9602838    3.9602838    4.0172420    4.0172420    4.0574516
           4.0574516    4.1617027    4.1617027    4.1755076    4.1755076
           4.2227141    4.2227141    4.2349546    4.2349546    4.2895510
           4.2895510    4.3128700    4.3128700    4.3396787    4.3396787

           4.3600518    4.3600518    4.4076868    4.4076868    4.4106824
           4.4106824    4.4931848    4.4931848
       ********************************************************
:GAP (global)   :    0.0    Ry =     0.0   eV (metal)
:GAP (this spin):    0.0    Ry =     0.0   eV (metal)
         Bandranges (emin - emax) and occupancy:
:BAN00018:  18    0.579381    0.757311  1.00000000
:BAN00019:  19    0.679891    0.775538  1.00000000
:BAN00020:  20    0.679891    0.775538  1.00000000
:BAN00021:  21    0.707487    0.799681  1.00000000
:BAN00022:  22    0.707487    0.799681  1.00000000
:BAN00023:  23    0.764435    0.803719  0.99801517
:BAN00024:  24    0.764435    0.803719  0.99801517
:BAN00025:  25    0.778279    0.813885  0.73454883
:BAN00026:  26    0.778279    0.813885  0.73454861
:BAN00027:  27    0.795467    0.816156  0.26743622
:BAN00028:  28    0.795467    0.816156  0.26743600
:BAN00029:  29    0.804571    0.818775  0.00000000
:BAN00030:  30    0.804571    0.818775  0.00000000
:BAN00031:  31    0.809292    0.826891  0.00000000
:BAN00032:  32    0.809292    0.826891  0.00000000
:BAN00033:  33    0.818180    0.835221  0.00000000
        Energy to separate low and high energystates:    0.52938


:NOE  : NUMBER OF ELECTRONS          =   26.000

:FER  : F E R M I - ENERGY(TETRAH.M.)=   0.8027725029
:GMA  : POTENTIAL AND CHARGE CUT-OFF  12.00 Ry**.5

:POS001: ATOM   -1 X,Y,Z = 0.00000 0.89750 0.25000  MULT= 2  ZZ= 59.000  Pr1       

       LMMAX 16
       LM=   0 0  1 0  2 0  2 2  3 0  3 2  4 0  4 2  4 4  5 0  5 2  5 4  6 0  6 2  6 4  6 6

:CHA001: TOTAL VALENCE CHARGE INSIDE SPHERE   1 =   9.5947    (RMT=  2.3000 )
:PCS001: PARTIAL CHARGES SPHERE =  1 S,P,D,F,PX,PY,PZ,D-Z2,D-X2Y2,D-XY,D-XZ,D-YZ 
:QTL001: 1.9418 4.9948 0.6356 2.0218 1.6625 1.6609 1.6714 0.1211 0.1141 0.1339 0.1279 0.1386
        Q-s-low E-s-low   Q-p-low E-p-low   Q-d-low E-d-low   Q-f-low E-f-low
:EPL001:  1.8688 -1.8015    4.9205 -0.4897    0.0051 -0.4951    0.0015 -0.5089
        Q-s-hi  E-s-hi    Q-p-hi  E-p-hi    Q-d-hi  E-d-hi    Q-f-hi  E-f-hi 
:EPH001:  0.0730  0.7091    0.0743  0.7435    0.6305  0.7402    2.0203  0.7833

                      VXX         VYY         VZZ       UP TO R
:VZZ001:             3.41183     5.77156    -9.18340       2.300

:CHA  : TOTAL VALENCE CHARGE INSIDE UNIT CELL =      26.000000

:SUM  : SUM OF EIGENVALUES =          -5.535156468


        1.ATOM      Pr1                  14 CORE STATES
       CORE-FORCE in mRy/a.u. = |F|      Fx             Fy             Fz
:FCO001:   1.ATOM   1566.449778668288      0.000000000000      0.000000000000   1566.449778668288

:1S 001: 1S               -3066.792869171 Ry
:2S 001: 2S                -492.546131722 Ry
:2PP001: 2P*               -465.644992941 Ry
:2P 001: 2P                -430.247596159 Ry
:3S 001: 3S                -105.639387806 Ry
:3PP001: 3P*                -94.177118595 Ry
:3P 001: 3P                 -87.169317754 Ry
:3DD001: 3D*                -67.095947427 Ry
:3D 001: 3D                 -65.584421592 Ry
:4S 001: 4S                 -20.310996461 Ry
:4PP001: 4P*                -16.017276717 Ry
:4P 001: 4P                 -14.489147286 Ry
:4DD001: 4D*                 -7.420660745 Ry
:4D 001: 4D                  -7.151002681 Ry
:CINT001 Core Integral Atom   1   45.998500

       DENSITY AT NUCLEUS
        JATOM        VALENCE       SEMI-CORE          CORE           TOTAL
:RTO001:   1      649.058635        0.000000   656825.627886   657474.686520
     
       CHARGES OF NEW CHARGE DENSITY
:NTO   : INTERSTITIAL CHARGE =     6.810599
:NPC   : PW Pseudocharge     =    17.192016
:NTO001: CHARGE SPHERE  1    =    55.593199

:NEC01: NUCLEAR AND ELECTRONIC CHARGE    118.00000   117.99700
     
       CHARGES OF OLD CHARGE DENSITY
:OTO   : INTERSTITIAL CHARGE =     6.813615
:OPC   : PW Pseudocharge     =    17.199618
:OTO001: CHARGE SPHERE  1    =    55.593193

:NEC02: NUCLEAR AND ELECTRONIC CHARGE    118.00000   118.00000
     
       CONVERGENCE TEST
:DTO001: DIFFERENCE IN SPHERE  1 =  0.0000312

:DIS  :  CHARGE DISTANCE       ( 0.0000312 for atom    1 spin 1)      0.0000312
 PW Mixed is          404
 
******************************************************
* MULTISECANT MIXING VER9 RELEASE 10.4.0              *
* Standard Mode with controls                        *
* Fixed density scale                                *
* Regularization       1.000E-04                     *
* Trust Upper Limit    5.000E+00                     *
* Max Number of Memory Steps    8                    *
******************************************************
 
:PWTMP   2.8677E+02  1.9467E+02  3.8870E+02
:PLANE:  PW TOTAL      5.2337 DISTAN   2.72E-05  5.19E-04 %
:CHARG:  CLM/ATOM   1381.9527 DISTAN   8.04E-05  5.82E-06 %
 
Step History
        DMIX         DMIXT        Red     Pred      Trust     Lambda    MagRel    MagAbs     Beta
  3   2.0000E-02   2.0000E-02  3.49E-01  3.58E-01  3.98E-01  3.00E+00  1.21E-01  1.29E-02  1.00E+00
  4   1.6273E-02   1.6273E-02  9.69E-01  9.89E-01  4.98E-01  1.26E+00  2.53E-02  9.38E-04  1.00E+00
  5   4.0681E-02   3.4889E-02  5.18E-01  5.86E-01  5.37E-01  3.84E-01  5.37E-01  1.93E-02  1.00E+00
  6   2.7829E-02   2.7829E-02  8.81E-01  9.87E-01  7.16E-01  5.10E-01  2.19E-01  4.06E-03  1.00E+00
  7   6.9574E-02   6.9574E-02  2.98E-01  3.41E-01  8.12E-01  2.74E-01  5.83E-01  9.54E-03  1.00E+00
  8   2.7829E-02   2.7829E-02  9.50E-01  9.98E-01  1.08E+00  1.00E+00  3.49E-02  1.70E-04  9.96E-01
  9   6.9574E-02   6.9574E-02  2.36E-01  3.32E-01  1.14E+00  5.15E-01  6.08E-01  2.82E-03  1.00E+00
 10   3.0307E-02   3.0307E-02  8.71E-01  9.92E-01  1.52E+00  1.00E+00  1.02E-01  1.12E-04  1.00E+00
 11   7.5767E-02   7.5767E-02  3.33E-01  3.85E-01  1.75E+00  5.11E-01  3.35E-01  3.19E-04  1.00E+00
 12   3.3111E-02   3.3111E-02  9.31E-01  9.89E-01  2.33E+00  1.00E+00  5.81E-02  1.85E-05  9.98E-01
 13   8.2779E-02   8.2779E-02 -1.00E+00  3.44E-01  2.50E+00  1.00E+00  6.06E-01  1.79E-04  1.00E+00
:JACOBIANS    2.703E-01   2.201E+00
  
:NORMS:  1/Froebius, Min, Max, Used   0.7160E+00  0.3832E+00  0.9905E+00  0.9626E+00
:INFO :  Number of Memory Steps   10 Skipping    2
:INFO :  SLambda=    0.3074138655  Max    0.3074138655
:PREDicted Charge, CTotal, PW Trust    1.575E-05   3.150E-05   1.046E-04
:PREDicted DMix, Beta, BLim   4.7440E-03  1.0008E+00  8.4643E-01

Eigenvalues, unscaled except for SY+YY
   #     SY Real        SY Imag          SS             YY         SY+YY Real      SY+YY Imag
   1   3.228862E+00   0.000000E+00   3.167888E+00   3.419159E+00   4.401668E+00   0.000000E+00
   2   1.803657E+00   0.000000E+00   1.356599E+00   2.681243E+00   3.225011E+00   0.000000E+00
   3   9.704407E-01   0.000000E+00   5.306181E-01   1.828370E+00   2.128926E+00   0.000000E+00
   4   2.447873E-01   0.000000E+00   4.758890E-02   1.234281E+00   1.321926E+00   0.000000E+00
   5   1.437402E-01   0.000000E+00   2.417382E-02   8.311221E-01   8.814812E-01   0.000000E+00
   6   4.967002E-04   0.000000E+00   7.439110E-05   5.815324E-03   5.963880E-03   0.000000E+00
   7   4.050067E-06   0.000000E+00   1.735456E-06   8.693035E-06   1.003965E-05   0.000000E+00
   8   3.255873E-08   0.000000E+00   1.105036E-08   8.919899E-08   9.879606E-08   0.000000E+00
   9   7.614624E-10   0.000000E+00   1.983325E-10   2.904095E-08   3.110698E-08   0.000000E+00
  10   2.535527E-09   0.000000E+00   5.054929E-11   1.197941E-08   1.222741E-08   0.000000E+00
 
:INFO :  Singular value  4.402E+00 Weight  1.000E+00 Projection -4.663E-07
:INFO :  Singular value  3.225E+00 Weight  1.000E+00 Projection -2.359E-06
:INFO :  Singular value  2.129E+00 Weight  1.000E+00 Projection -3.977E-06
:INFO :  Singular value  1.322E+00 Weight  1.000E+00 Projection -1.469E-06
:INFO :  Singular value  8.815E-01 Weight  1.000E+00 Projection  2.131E-06
:INFO :  Singular value  5.964E-03 Weight  9.967E-01 Projection  1.226E-04
:INFO :  Singular value  1.004E-05 Weight  8.615E-04 Projection  2.389E-05
:INFO :  Singular value  9.884E-08 Weight  8.357E-08 Projection -3.947E-09
:INFO :  Singular value  3.110E-08 Weight  8.276E-09 Projection  2.730E-10
:INFO :  Singular value  1.222E-08 Weight  1.278E-09 Projection -3.391E-11
:RANK :  ACTIVE   6.00/10 =  59.98 % ; YY RANK   6.00/10 =  59.97 %
 
:BLIM :  VZERO Control Off
:TRUST:  Step 3.33E+00  Charge 9.72E-03 (e) CTO  3.24E-02 (e) PW  4.54E-02 (e)
:DIRM :  MEMORY 10/8  SCALE   1.000 RED  0.29 PRED  0.34 NEXT  0.99 
:TRAVE:  Charge 1.20E-05 (e) CTO  2.39E-05 (e) PW  1.21E-04 (e)
:DIRP :  |MSR1|= 9.635E-07 |PRATT|= 2.716E-05 ANGLE=  69.1 DEGREES
:DIRQ :  |MSR1|= 4.777E-06 |PRATT|= 8.043E-05 ANGLE=  37.6 DEGREES
:DIRT :  |MSR1|= 4.873E-06 |PRATT|= 8.489E-05 ANGLE=  40.7 DEGREES
:MIX  :   MSD1   REGULARIZATION:  3.42E-04 GREED: 0.03458  Newton 1.00  0.0574                
     
       CHARGES OF MIXED CHARGE DENSITY
:CTO   : INTERSTITIAL CHARGE =     6.813614
:CPC   : PW Pseudocharge     =    17.199620
:CTO001: CHARGE SPHERE  1    =    55.593193

:NEC03: NUCLEAR AND ELECTRONIC CHARGE    118.00000   118.00000

PW CHANGE     H    K    L      Current       Change    Residue
:PTO001:      0    0    0  6.17776900E-02  4.863E-09 -9.603E-08
:PTO003:      0    2    0  1.59772456E-02  9.703E-09  4.738E-07
:PTO004:     -1    1    0  7.73902681E-02  2.176E-08  1.860E-07
:PTO005:      0    2   -1 -8.93632626E-02 -6.864E-09  3.822E-07
:PTO006:      0    0   -2 -4.62973298E-02 -8.766E-09  3.269E-08
:PTO007:     -1    1   -1 -9.53269343E-02 -1.646E-08  3.675E-07
:PTO008:      0    2   -2 -1.47671218E-02 -1.044E-08 -2.611E-07
:PTO009:     -1    1   -2 -7.52091022E-02 -2.422E-09  3.299E-07
:PTO011:     -1    3    0 -1.18606886E-02  4.093E-09  2.974E-07
:PTO012:     -1    3   -1 -5.16619348E-02 -1.729E-10  2.006E-07
:PTO013:      0    4    0 -9.18876321E-03  1.858E-09  1.222E-07
:PTO014:      0    2   -3  2.11944836E-02  7.271E-10 -8.299E-08

:ENE  : ********** TOTAL ENERGY IN Ry =       -36944.29515225

       TOTAL FORCE IN mRy/a.u. = |F|     Fx             Fy             Fz     with/without FOR in case.in2
:FOR001:   1.ATOM         19.880          0.000          0.000        -19.880 partial forces
       TOTAL FORCE WITH RESPECT TO GLOBAL CARTESIAN COORDINATES:
:FCA001:   1.ATOM                         0.000        -19.880          0.000 partial forces
       TOTAL FORCE WITH RESPECT TO THE GLOBAL COORDINATE SYSTEM:
:FGL001:   1.ATOM                 0.000000000   -19.880222521     0.000000000 partial forces
