
:LABEL1: Calculations in /home/ykent/GWIEN/example/Pr/V16/case
:LABEL2: on didymium-2.cmpgroup.ameslab.gov at Wed Jul  8 16:44:09 CDT 2020
:LABEL3: using WIEN2k_19.1 (Release 25/6/2019) in /home/ykent/opt/src/WIEN2k_19.1
:LABEL4: using the command: run_lapw -so -i 70 -cc 0.0001
 Flat Integration
 New Mode for Coulomb Integral
 Consistent 3/8+Simpson combinations
 Extension of core to zero
 LDM version in phi
 Fifth-order quadrature in outwin


            ---------
:ITE017: 17. ITERATION
            ---------

:NATO :    1 INDEPENDENT AND    1 TOTAL ATOMS IN UNITCELL
       SUBSTANCE: blebleble                                                   

       LATTICE                      = F   
:POT  : POTENTIAL OPTION EX_LDA EC_LDA VX_LDA VC_LDA
:LAT  : LATTICE CONSTANTS= 10.57986 10.57986 10.57986    1.571    1.571    1.571
:VOL  : UNIT CELL VOLUME =     296.06019
       MODE OF CALCULATION IS       = RELA
       NON-SPINPOLARIZED CALCULATION
:IFFT  : FFT-parameters:   90   90   90 Factor: 2.00


   CONVERGENCE PARAMETER FOR PSEUDOCHARGE: NCON=  9
   MAXIMAL VALUE OF RMT(JATOM)*ABSK(NKK) : RK  =29.98955


:VKCOUL :  VK-COUL convergence: 0.295E-06
       ATOMNUMBER=  1 Pr         VCOUL-ZERO =  0.77467E-01
:FIT001: LUSE= 13 SIGMA OF V-XC FIT FOR ATOM  1  0.5250100E-04
:FIT001: LUSE= 13 SIGMA OF V-XC FIT FOR ATOM  1  0.5250100E-04
:DEN  : DENSITY INTEGRAL  =         -7063.10499720   (Ry)
       ELS_POTENTIAL_AT Z=0 and Z=0.5:  -2.30827  -2.30827
       ELS_POTENTIAL_AT Y=0 and Y=0.5:   0.00000   0.00000
:VZERO:v0,v0c,v0x  -3.22640  -2.30827  -0.91814 v5,v5c,v5x  -3.22640  -2.30827  -0.91814
:VZERY:v0,v0c,v0x  -0.65266   0.00000  -0.65266 v5,v5c,v5x  -0.65266   0.00000  -0.65266
:VZERX:v0,v0c,v0x  -0.65266   0.00000  -0.65266 v5,v5c,v5x  -0.65266   0.00000  -0.65266
:LMAX-WF:   10   Non-Spherical LMAX:   4

          ATOMIC SPHERE DEPENDENT PARAMETERS FOR ATOM  Pr        
:e__0001: OVERALL ENERGY PARAMETER IS    0.2404
          OVERALL BASIS SET ON ATOM IS LAPW
:E0_0001: E( 0)=    0.2404
             APW+lo
:E0_0001: E( 0)=   -2.2543   E(BOTTOM)=   -2.636   E(TOP)=   -1.873  4  5   160
             LOCAL ORBITAL
:E1_0001: E( 1)=    0.6404
             APW+lo
:E1_0001: E( 1)=   -0.8670   E(BOTTOM)=   -1.514   E(TOP)=   -0.220  3  4   165
             LOCAL ORBITAL
:E3_0001: E( 3)=    0.4250   E(BOTTOM)=    0.282   E(TOP)=    0.568  0  1   113
             APW+lo
:E2_0001: E( 2)=    0.2404   E(BOTTOM)=    0.062   E(TOP)= -200.000  2 -1    97
             APW+lo

       K=   0.00000   0.00000   0.00000            1
:RKM  : MATRIX SIZE   201LOs:  20  RKM= 8.40  WEIGHT= 1.00  PGR:    
       EIGENVALUES ARE:
:EIG00001:      -2.2086115   -0.8599247   -0.8599247   -0.8599247    0.1951141
:EIG00006:       0.4335544    0.4446243    0.4446243    0.4446243    0.4611442
:EIG00011:       0.4611442    0.4611442    0.5604551    0.5604551    0.5604551
:EIG00016:       0.6949905    0.6949905    1.0823226    1.2740594    1.2740594
:EIG00021:       1.2740594    1.3807312    1.8971222    1.8971222    1.8971222
:EIG00026:       1.9320937    1.9320937    1.9320937    2.1757670    2.1757670
:EIG00031:       2.4362510    2.6307201    2.6307201    2.6307201    3.0236977
:EIG00036:       3.0236977    3.2452765    3.2452765    3.2452765    3.2712599
:EIG00041:       3.2712599    3.2712599    3.4567229    3.4567229    3.4567229
:EIG00046:       3.5994639    3.6937675    3.6937675    3.6937675    3.7716667
 
:EIG00051:       3.7716667    3.7716667    3.7723175    3.7723175    3.7723175
:EIG00056:       3.7850195    3.7850195    3.8663153    3.9566370    4.0839338
:EIG00061:       4.0839338    4.0839338    4.1224764    4.1224764    4.1224764
:EIG00066:       4.2660154    5.2469894    5.2469894    5.2767732    5.4901277
:EIG00071:       5.4901277    5.4901277    5.8407364    5.8407364    5.9798050
:EIG00076:       5.9798050    5.9798050    6.0747159    6.0747159    6.0747159
:EIG00081:       6.3771237    6.3771237    6.3771237    6.4297247    6.4297247
:EIG00086:       6.4297247    6.4820892    6.4820892    6.5227979    6.5227979
:EIG00091:       6.5227979    6.6193873    6.6193873    6.6193873    6.6234047
:EIG00096:       6.6234047    6.6234047    6.6576040    6.7748821    6.7748821
 
:EIG00101:       6.7928058    6.8737916    6.8737916    6.8737916    6.9068881
:EIG00106:       6.9068881    6.9068881    6.9070713    6.9070713    6.9070713
:EIG00111:       6.9659286    6.9659286    7.1331511    7.1737613    7.4502206
:EIG00116:       7.4502206    7.4502206    7.7260046    7.7260046    7.7260046
       ********************************************************

:KPT   :      NUMBER OF K-POINTS:   165
   0.0   0.0 angle (M,z), angle (M,x) deg
 
        SPIN-ORBIT EIGENVALUES:
     K=   0.00000   0.00000   0.00000            1
      MATRIX SIZE=  240   WEIGHT= 1.00
     EIGENVALUES ARE:
          -2.2086115   -2.2086115   -1.0049161   -1.0049161   -0.7920675
          -0.7920675   -0.7920675   -0.7920675    0.1951141    0.1951141
           0.4272820    0.4272820    0.4327195    0.4327195    0.4327195
           0.4327195    0.4563527    0.4563527    0.4632133    0.4632133
           0.4691958    0.4691958    0.4691958    0.4691958    0.5567898
           0.5567898    0.5567898    0.5567898    0.5665101    0.5665101
           0.6954206    0.6954206    0.6954206    0.6954206    1.0823684
           1.0823684    1.2683287    1.2683287    1.2766245    1.2766245

           1.2766245    1.2766245    1.3807312    1.3807312    1.8689668
           1.8689668    1.8924756    1.8924756    1.8924756    1.8924756
           1.9059394    1.9059394    1.9646684    1.9646684    1.9646684
           1.9646684    2.1760448    2.1760448    2.1760448    2.1760448
           2.4362510    2.4362510    2.6302908    2.6302908    2.6309489
           2.6309489    2.6309489    2.6309489    3.0236779    3.0236779
           3.0236779    3.0236779    3.2440361    3.2440361    3.2440361
           3.2440361    3.2452044    3.2452044    3.2479762    3.2479762

           3.2854030    3.2854030    3.2854030    3.2854030    3.4567169
           3.4567169    3.4567259    3.4567259    3.4567259    3.4567259
           3.5994639    3.5994639    3.6937328    3.6937328    3.6937328
           3.6937328    3.6938407    3.6938407    3.7710213    3.7710213
           3.7710213    3.7710213    3.7721748    3.7721748    3.7724051
           3.7724051    3.7726718    3.7726718    3.7726718    3.7726718
           3.7850195    3.7850195    3.7850195    3.7850195    3.8663244
           3.8663244    3.9566370    3.9566370    4.0838777    4.0838777

           4.0838777    4.0838777    4.0840495    4.0840495    4.1216692
           4.1216692    4.1229222    4.1229222    4.1229222    4.1229222
           4.2660185    4.2660185
       ********************************************************
:GAP (global)   :    0.0    Ry =     0.0   eV (metal)
:GAP (this spin):    0.0    Ry =     0.0   eV (metal)
         Bandranges (emin - emax) and occupancy:
:BAN00004:   4   -1.024762   -1.004916  1.00000000
:BAN00005:   5   -0.829693   -0.792067  1.00000000
:BAN00006:   6   -0.829693   -0.792067  1.00000000
:BAN00007:   7   -0.815793   -0.792067  1.00000000
:BAN00008:   8   -0.815793   -0.792067  1.00000000
:BAN00009:   9    0.195114    0.417194  1.00000000
:BAN00010:  10    0.195114    0.417194  1.00000000
:BAN00011:  11    0.393789    0.431267  1.00000000
:BAN00012:  12    0.393789    0.431267  1.00000000
:BAN00013:  13    0.426533    0.433986  0.50000002
:BAN00014:  14    0.426533    0.433986  0.49999998
:BAN00015:  15    0.432706    0.440373  0.00000000
:BAN00016:  16    0.432706    0.440373  0.00000000
:BAN00017:  17    0.434253    0.458675  0.00000000
:BAN00018:  18    0.434253    0.458675  0.00000000
:BAN00019:  19    0.454594    0.463213  0.00000000
        Energy to separate low and high energystates:    0.14511


:NOE  : NUMBER OF ELECTRONS          =   13.000

:FER  : F E R M I - ENERGY(TETRAH.M.)=   0.4315495268
:GMA  : POTENTIAL AND CHARGE CUT-OFF  12.00 Ry**.5

:POS001: ATOM    1 X,Y,Z = 0.00000 0.00000 0.50000  MULT= 1  ZZ= 59.000  Pr        

       LMMAX  5
       LM=   0 0  4 0  4 4  6 0  6 4

:CHA001: TOTAL VALENCE CHARGE INSIDE SPHERE   1 =  10.2269    (RMT=  2.5000 )
:PCS001: PARTIAL CHARGES SPHERE =  1 S,P,D,F,      D-EG,D-T2G 
:QTL001: 2.0187 5.3527 0.4329 2.4224 0.0000 0.0000 0.0000 0.1605 0.2725 0.0000 0.0000 0.0000
        Q-s-low E-s-low   Q-p-low E-p-low   Q-d-low E-d-low   Q-f-low E-f-low
:EPL001:  1.9262 -2.2040    5.3025 -0.8841    0.0004 -0.8605    0.0001 -0.8684
        Q-s-hi  E-s-hi    Q-p-hi  E-p-hi    Q-d-hi  E-d-hi    Q-f-hi  E-f-hi 
:EPH001:  0.0925  0.3369    0.0503  0.3680    0.4326  0.3940    2.4223  0.4250

:CHA  : TOTAL VALENCE CHARGE INSIDE UNIT CELL =      13.000000

:SUM  : SUM OF EIGENVALUES =          -7.707322628


        1.ATOM      Pr                   14 CORE STATES
:1S 001: 1S               -3067.167599789 Ry
:2S 001: 2S                -492.917391888 Ry
:2PP001: 2P*               -466.017380237 Ry
:2P 001: 2P                -430.619578596 Ry
:3S 001: 3S                -105.999352223 Ry
:3PP001: 3P*                -94.537586448 Ry
:3P 001: 3P                 -87.529432209 Ry
:3DD001: 3D*                -67.457565817 Ry
:3D 001: 3D                 -65.945868090 Ry
:4S 001: 4S                 -20.678562308 Ry
:4PP001: 4P*                -16.385912318 Ry
:4P 001: 4P                 -14.859224935 Ry
:4DD001: 4D*                 -7.793751357 Ry
:4D 001: 4D                  -7.524610517 Ry
:CINT001 Core Integral Atom   1   45.999513

       DENSITY AT NUCLEUS
        JATOM        VALENCE       SEMI-CORE          CORE           TOTAL
:RTO001:   1      645.888403        0.000000   656824.719428   657470.607831
     
       CHARGES OF NEW CHARGE DENSITY
:NTO   : INTERSTITIAL CHARGE =     2.773063
:NPC   : PW Pseudocharge     =     7.432586
:NTO001: CHARGE SPHERE  1    =    56.226449

:NEC01: NUCLEAR AND ELECTRONIC CHARGE     59.00000    58.99951
     
       CHARGES OF OLD CHARGE DENSITY
:OTO   : INTERSTITIAL CHARGE =     2.977340
:OPC   : PW Pseudocharge     =     7.503218
:OTO001: CHARGE SPHERE  1    =    56.022660

:NEC02: NUCLEAR AND ELECTRONIC CHARGE     59.00000    59.00000
     
       CONVERGENCE TEST
:DTO001: DIFFERENCE IN SPHERE  1 =  0.3454717

:DIS  :  CHARGE DISTANCE       ( 0.3454717 for atom    1 spin 1)      0.3454717
 PW Mixed is           60
 
******************************************************
* MULTISECANT MIXING VER9 RELEASE 10.4.0              *
* Standard Mode with controls                        *
* Fixed density scale                                *
* Regularization       1.000E-04                     *
* Trust Upper Limit    5.000E+00                     *
* Max Number of Memory Steps    8                    *
******************************************************
 
:PWTMP   2.3061E+02  1.2500E+02  2.9606E+02
:PLANE:  PW TOTAL      2.6873 DISTAN   3.76E-02  1.40E+00 %
:CHARG:  CLM/ATOM    977.1774 DISTAN   4.36E-01  4.46E-02 %
 
Step History
        DMIX         DMIXT        Red     Pred      Trust     Lambda    MagRel    MagAbs     Beta
  1   3.5000E-02   3.5000E-02 -1.00E+00  1.00E+00 -1.00E+01  1.00E+00  3.50E-02  3.50E-02  1.00E+00
:INFO :  Note, Pratt in use
:TRUST:  Step 3.75E-02  Charge 7.50E-02 (e) CTO  2.50E-01 (e) PW  3.50E-01 (e)
:DIRM :  MEMORY  0/ 8 SCALE   1.000
Performing Pseudo Compensation
Final Pseudo Compensation Rescaling     1.00000E+00
:MIX  :   PRATT  REGULARIZATION:  1.00E-04 GREED: 0.02500                  
     
       CHARGES OF MIXED CHARGE DENSITY
:CTO   : INTERSTITIAL CHARGE =     2.972245
:CPC   : PW Pseudocharge     =     7.473292
:CTO001: CHARGE SPHERE  1    =    56.027755

:NEC03: NUCLEAR AND ELECTRONIC CHARGE     59.00000    59.00000

PW CHANGE     H    K    L      Current       Change    Residue
:PTO001:      0    0    0  3.52818016E-02 -1.183E-04 -9.225E-04
:PTO002:     -1   -1   -1 -1.19203975E-01  4.773E-04  3.558E-04
:PTO003:      0    0   -2  7.23271494E-02 -2.902E-04  1.755E-04
:PTO004:      0   -2   -2  6.85135943E-02 -2.707E-04 -3.257E-04
:PTO005:     -1   -1   -3 -7.20556774E-02  2.312E-04 -1.622E-04
:PTO006:     -2   -2   -2  1.91327455E-02 -5.401E-05  5.856E-05
:PTO007:      0    0   -4  4.74377942E-03  5.903E-06  1.468E-04
:PTO008:     -1   -3   -3 -7.23945179E-03 -6.160E-05  1.861E-04
:PTO009:      0   -2   -4  3.88301156E-03  7.348E-05 -9.602E-05
:PTO010:     -2   -2   -4 -4.02812735E-03  8.674E-05  1.207E-04
:PTO011:     -3   -3   -3  2.26027691E-03 -2.640E-05 -1.212E-04
:PTO012:     -1   -1   -5  6.23657926E-03 -7.459E-05 -1.788E-04

:ENE  : ********** TOTAL ENERGY IN Ry =       -18472.08097355

 Flat Integration
 New Mode for Coulomb Integral
 Consistent 3/8+Simpson combinations
 Extension of core to zero
 LDM version in phi
 Fifth-order quadrature in outwin


            ---------
:ITE018: 18. ITERATION
            ---------

:NATO :    1 INDEPENDENT AND    1 TOTAL ATOMS IN UNITCELL
       SUBSTANCE: blebleble                                                   

       LATTICE                      = F   
:POT  : POTENTIAL OPTION EX_LDA EC_LDA VX_LDA VC_LDA
:LAT  : LATTICE CONSTANTS= 10.57986 10.57986 10.57986    1.571    1.571    1.571
:VOL  : UNIT CELL VOLUME =     296.06019
       MODE OF CALCULATION IS       = RELA
       NON-SPINPOLARIZED CALCULATION
:IFFT  : FFT-parameters:   90   90   90 Factor: 2.00


   CONVERGENCE PARAMETER FOR PSEUDOCHARGE: NCON=  9
   MAXIMAL VALUE OF RMT(JATOM)*ABSK(NKK) : RK  =29.98955


:VKCOUL :  VK-COUL convergence: 0.292E-06
       ATOMNUMBER=  1 Pr         VCOUL-ZERO =  0.76939E-01
:FIT001: LUSE= 13 SIGMA OF V-XC FIT FOR ATOM  1  0.5175268E-04
:FIT001: LUSE= 13 SIGMA OF V-XC FIT FOR ATOM  1  0.5175268E-04
:DEN  : DENSITY INTEGRAL  =         -7063.61637422   (Ry)
       ELS_POTENTIAL_AT Z=0 and Z=0.5:  -2.30132  -2.30132
       ELS_POTENTIAL_AT Y=0 and Y=0.5:   0.00000   0.00000
:VZERO:v0,v0c,v0x  -3.21857  -2.30132  -0.91726 v5,v5c,v5x  -3.21857  -2.30132  -0.91726
:VZERY:v0,v0c,v0x  -0.65215   0.00000  -0.65215 v5,v5c,v5x  -0.65215   0.00000  -0.65215
:VZERX:v0,v0c,v0x  -0.65215   0.00000  -0.65215 v5,v5c,v5x  -0.65215   0.00000  -0.65215
:LMAX-WF:   10   Non-Spherical LMAX:   4

          ATOMIC SPHERE DEPENDENT PARAMETERS FOR ATOM  Pr        
:e__0001: OVERALL ENERGY PARAMETER IS    0.2345
          OVERALL BASIS SET ON ATOM IS LAPW
:E0_0001: E( 0)=    0.2345
             APW+lo
:E0_0001: E( 0)=   -2.2510   E(BOTTOM)=   -2.633   E(TOP)=   -1.869  4  5   153
             LOCAL ORBITAL
:E1_0001: E( 1)=    0.6345
             APW+lo
:E1_0001: E( 1)=   -0.8643   E(BOTTOM)=   -1.512   E(TOP)=   -0.217  3  4   166
             LOCAL ORBITAL
:E3_0001: E( 3)=    0.4311   E(BOTTOM)=    0.287   E(TOP)=    0.575  0  1   114
             APW+lo
:E2_0001: E( 2)=    0.2345   E(BOTTOM)=    0.063   E(TOP)= -200.000  2 -1    98
             APW+lo

       K=   0.00000   0.00000   0.00000            1
:RKM  : MATRIX SIZE   201LOs:  20  RKM= 8.40  WEIGHT= 1.00  PGR:    
       EIGENVALUES ARE:
:EIG00001:      -2.2054210   -0.8575570   -0.8575570   -0.8575570    0.1944915
:EIG00006:       0.4392317    0.4505932    0.4505932    0.4505932    0.4674480
:EIG00011:       0.4674480    0.4674480    0.5606797    0.5606797    0.5606797
:EIG00016:       0.6955829    0.6955829    1.0821850    1.2736539    1.2736539
:EIG00021:       1.2736539    1.3795565    1.8976806    1.8976806    1.8976806
:EIG00026:       1.9322821    1.9322821    1.9322821    2.1759386    2.1759386
:EIG00031:       2.4361709    2.6303864    2.6303864    2.6303864    3.0236800
:EIG00036:       3.0236800    3.2451036    3.2451036    3.2451036    3.2706417
:EIG00041:       3.2706417    3.2706417    3.4562840    3.4562840    3.4562840
:EIG00046:       3.5991279    3.6929532    3.6929532    3.6929532    3.7709288
 
:EIG00051:       3.7709288    3.7709288    3.7714885    3.7714885    3.7714885
:EIG00056:       3.7840617    3.7840617    3.8654603    3.9560913    4.0828669
:EIG00061:       4.0828669    4.0828669    4.1215246    4.1215246    4.1215246
:EIG00066:       4.2650010    5.2467697    5.2467697    5.2763579    5.4896073
:EIG00071:       5.4896073    5.4896073    5.8419119    5.8419119    5.9812169
:EIG00076:       5.9812169    5.9812169    6.0749645    6.0749645    6.0749645
:EIG00081:       6.3772423    6.3772423    6.3772423    6.4294237    6.4294237
:EIG00086:       6.4294237    6.4813312    6.4813312    6.5221149    6.5221149
:EIG00091:       6.5221149    6.6189155    6.6189155    6.6189155    6.6228349
:EIG00096:       6.6228349    6.6228349    6.6571511    6.7748627    6.7748627
 
:EIG00101:       6.7920424    6.8729091    6.8729091    6.8729091    6.9060013
:EIG00106:       6.9060013    6.9060013    6.9060016    6.9060016    6.9060016
:EIG00111:       6.9650075    6.9650075    7.1318975    7.1736759    7.4490544
:EIG00116:       7.4490544    7.4490544    7.7249946    7.7249946    7.7249946
       ********************************************************

:KPT   :      NUMBER OF K-POINTS:   165
   0.0   0.0 angle (M,z), angle (M,x) deg
 
        SPIN-ORBIT EIGENVALUES:
     K=   0.00000   0.00000   0.00000            1
      MATRIX SIZE=  240   WEIGHT= 1.00
     EIGENVALUES ARE:
          -2.2054210   -2.2054210   -1.0023702   -1.0023702   -0.7897855
          -0.7897855   -0.7897855   -0.7897855    0.1944915    0.1944915
           0.4331025    0.4331025    0.4387846    0.4387846    0.4387846
           0.4387846    0.4622821    0.4622821    0.4693809    0.4693809
           0.4754181    0.4754181    0.4754181    0.4754181    0.5570297
           0.5570297    0.5570297    0.5570297    0.5667145    0.5667145
           0.6960086    0.6960086    0.6960086    0.6960086    1.0822320
           1.0822320    1.2679483    1.2679483    1.2762081    1.2762081

           1.2762081    1.2762081    1.3795565    1.3795565    1.8691622
           1.8691622    1.8930399    1.8930399    1.8930399    1.8930399
           1.9064865    1.9064865    1.9648506    1.9648506    1.9648506
           1.9648506    2.1762158    2.1762158    2.1762158    2.1762158
           2.4361709    2.4361709    2.6299549    2.6299549    2.6306163
           2.6306163    2.6306163    2.6306163    3.0236601    3.0236601
           3.0236601    3.0236601    3.2438636    3.2438636    3.2438636
           3.2438636    3.2445695    3.2445695    3.2478026    3.2478026

           3.2847945    3.2847945    3.2847945    3.2847945    3.4562780
           3.4562780    3.4562869    3.4562869    3.4562869    3.4562869
           3.5991279    3.5991279    3.6929188    3.6929188    3.6929188
           3.6929188    3.6930260    3.6930260    3.7702638    3.7702638
           3.7702638    3.7702638    3.7713450    3.7713450    3.7716702
           3.7716702    3.7718613    3.7718613    3.7718613    3.7718613
           3.7840617    3.7840617    3.7840617    3.7840617    3.8654694
           3.8654694    3.9560913    3.9560913    4.0828107    4.0828107

           4.0828107    4.0828107    4.0829826    4.0829826    4.1207172
           4.1207172    4.1219707    4.1219707    4.1219707    4.1219707
           4.2650042    4.2650042
       ********************************************************
:GAP (global)   :    0.0    Ry =     0.0   eV (metal)
:GAP (this spin):    0.0    Ry =     0.0   eV (metal)
         Bandranges (emin - emax) and occupancy:
:BAN00004:   4   -1.022331   -1.002370  1.00000000
:BAN00005:   5   -0.827607   -0.789785  1.00000000
:BAN00006:   6   -0.827607   -0.789785  1.00000000
:BAN00007:   7   -0.813635   -0.789785  1.00000000
:BAN00008:   8   -0.813635   -0.789785  1.00000000
:BAN00009:   9    0.194492    0.420255  1.00000000
:BAN00010:  10    0.194492    0.420255  1.00000000
:BAN00011:  11    0.393650    0.437019  1.00000000
:BAN00012:  12    0.393650    0.437019  1.00000000
:BAN00013:  13    0.431579    0.440042  0.50000002
:BAN00014:  14    0.431579    0.440042  0.49999998
:BAN00015:  15    0.438755    0.444548  0.00000000
:BAN00016:  16    0.438755    0.444548  0.00000000
:BAN00017:  17    0.440372    0.464466  0.00000000
:BAN00018:  18    0.440372    0.464466  0.00000000
:BAN00019:  19    0.459639    0.469381  0.00000000
        Energy to separate low and high energystates:    0.14449


:NOE  : NUMBER OF ELECTRONS          =   13.000

:FER  : F E R M I - ENERGY(TETRAH.M.)=   0.4372375496
:GMA  : POTENTIAL AND CHARGE CUT-OFF  12.00 Ry**.5

:POS001: ATOM    1 X,Y,Z = 0.00000 0.00000 0.50000  MULT= 1  ZZ= 59.000  Pr        

       LMMAX  5
       LM=   0 0  4 0  4 4  6 0  6 4

:CHA001: TOTAL VALENCE CHARGE INSIDE SPHERE   1 =  10.1195    (RMT=  2.5000 )
:PCS001: PARTIAL CHARGES SPHERE =  1 S,P,D,F,      D-EG,D-T2G 
:QTL001: 2.0195 5.3547 0.4714 2.2739 0.0000 0.0000 0.0000 0.1717 0.2997 0.0000 0.0000 0.0000
        Q-s-low E-s-low   Q-p-low E-p-low   Q-d-low E-d-low   Q-f-low E-f-low
:EPL001:  1.9260 -2.2008    5.3001 -0.8818    0.0004 -0.8583    0.0001 -0.8662
        Q-s-hi  E-s-hi    Q-p-hi  E-p-hi    Q-d-hi  E-d-hi    Q-f-hi  E-f-hi 
:EPH001:  0.0935  0.3376    0.0546  0.3729    0.4710  0.3977    2.2738  0.4301

:CHA  : TOTAL VALENCE CHARGE INSIDE UNIT CELL =      13.000000

:SUM  : SUM OF EIGENVALUES =          -7.673428066


        1.ATOM      Pr                   14 CORE STATES
:1S 001: 1S               -3067.155840886 Ry
:2S 001: 2S                -492.905605602 Ry
:2PP001: 2P*               -466.005599760 Ry
:2P 001: 2P                -430.607796259 Ry
:3S 001: 3S                -105.987823814 Ry
:3PP001: 3P*                -94.526033487 Ry
:3P 001: 3P                 -87.517925037 Ry
:3DD001: 3D*                -67.445975361 Ry
:3D 001: 3D                 -65.934288893 Ry
:4S 001: 4S                 -20.669465820 Ry
:4PP001: 4P*                -16.376969757 Ry
:4P 001: 4P                 -14.850520076 Ry
:4DD001: 4D*                 -7.785471329 Ry
:4D 001: 4D                  -7.516411973 Ry
:CINT001 Core Integral Atom   1   45.999511

       DENSITY AT NUCLEUS
        JATOM        VALENCE       SEMI-CORE          CORE           TOTAL
:RTO001:   1      645.741289        0.000000   656824.216993   657469.958282
     
       CHARGES OF NEW CHARGE DENSITY
:NTO   : INTERSTITIAL CHARGE =     2.880462
:NPC   : PW Pseudocharge     =     7.464259
:NTO001: CHARGE SPHERE  1    =    56.119049

:NEC01: NUCLEAR AND ELECTRONIC CHARGE     59.00000    58.99951
     
       CHARGES OF OLD CHARGE DENSITY
:OTO   : INTERSTITIAL CHARGE =     2.972245
:OPC   : PW Pseudocharge     =     7.473292
:OTO001: CHARGE SPHERE  1    =    56.027755

:NEC02: NUCLEAR AND ELECTRONIC CHARGE     59.00000    59.00000
     
       CONVERGENCE TEST
:DTO001: DIFFERENCE IN SPHERE  1 =  0.1583768

:DIS  :  CHARGE DISTANCE       ( 0.1583768 for atom    1 spin 1)      0.1583768
 PW Mixed is           60
 
******************************************************
* MULTISECANT MIXING VER9 RELEASE 10.4.0              *
* Slow Mode, cautious                                *
* Fixed density scale                                *
* Regularization       1.000E-04                     *
* Step Trust Radius    0.75000                       *
* Trust Upper Limit    2.000E+00                     *
* Max Number of Memory Steps   12                    *
******************************************************
 
:PWTMP   2.3061E+02  1.2500E+02  2.9606E+02
:PLANE:  PW TOTAL      2.6772 DISTAN   1.55E-02  5.79E-01 %
:CHARG:  CLM/ATOM    977.1779 DISTAN   2.86E-01  2.93E-02 %
 
Step History
        DMIX         DMIXT        Red     Pred      Trust     Lambda    MagRel    MagAbs     Beta
  1   3.5000E-02   3.5000E-02 -1.00E+00  1.00E+00 -1.00E+01  1.00E+00  3.50E-02  3.50E-02  1.00E+00
  2   2.5000E-02   2.5000E-02 -1.00E+00  1.00E+00 -1.00E+01  1.00E+00  2.50E-02  1.09E-02  1.00E+00
:JACOBIANS    2.572E-03   2.468E-02
  
:TRUST:  Step 2.98E-02  Charge 7.50E-02 (e) CTO  2.50E-01 (e) PW  3.50E-01 (e)
:DIRM :  MEMORY  1/12 SCALE   1.000
:MIX  :   PRATT  REGULARIZATION:  1.00E-04 GREED: 0.02978  Expand 1.19  0.0298                
     
       CHARGES OF MIXED CHARGE DENSITY
:CTO   : INTERSTITIAL CHARGE =     2.967158
:CPC   : PW Pseudocharge     =     7.443407
:CTO001: CHARGE SPHERE  1    =    56.032842

:NEC03: NUCLEAR AND ELECTRONIC CHARGE     59.00000    59.00000

PW CHANGE     H    K    L      Current       Change    Residue
:PTO001:      0    0    0  3.51636760E-02 -1.181E-04 -3.346E-04
:PTO002:     -1   -1   -1 -1.18727380E-01  4.766E-04 -1.857E-04
:PTO003:      0    0   -2  7.20373524E-02 -2.898E-04  3.498E-04
:PTO004:      0   -2   -2  6.82432280E-02 -2.704E-04 -2.139E-05
:PTO005:     -1   -1   -3 -7.18247707E-02  2.309E-04 -1.894E-04
:PTO006:     -2   -2   -2  1.90788138E-02 -5.393E-05  6.849E-05
:PTO007:      0    0   -4  4.74967447E-03  5.895E-06  6.611E-05
:PTO008:     -1   -3   -3 -7.30096205E-03 -6.151E-05  2.570E-04
:PTO009:      0   -2   -4  3.95638708E-03  7.338E-05 -2.309E-04
:PTO010:     -2   -2   -4 -3.94150545E-03  8.662E-05 -2.072E-05
:PTO011:     -3   -3   -3  2.23391084E-03 -2.637E-05 -7.443E-05
:PTO012:     -1   -1   -5  6.16209644E-03 -7.448E-05 -1.112E-05

:ENE  : ********** TOTAL ENERGY IN Ry =       -18472.07943798

 Flat Integration
 New Mode for Coulomb Integral
 Consistent 3/8+Simpson combinations
 Extension of core to zero
 LDM version in phi
 Fifth-order quadrature in outwin


            ---------
:ITE019: 19. ITERATION
            ---------

:NATO :    1 INDEPENDENT AND    1 TOTAL ATOMS IN UNITCELL
       SUBSTANCE: blebleble                                                   

       LATTICE                      = F   
:POT  : POTENTIAL OPTION EX_LDA EC_LDA VX_LDA VC_LDA
:LAT  : LATTICE CONSTANTS= 10.57986 10.57986 10.57986    1.571    1.571    1.571
:VOL  : UNIT CELL VOLUME =     296.06019
       MODE OF CALCULATION IS       = RELA
       NON-SPINPOLARIZED CALCULATION
:IFFT  : FFT-parameters:   90   90   90 Factor: 2.00


   CONVERGENCE PARAMETER FOR PSEUDOCHARGE: NCON=  9
   MAXIMAL VALUE OF RMT(JATOM)*ABSK(NKK) : RK  =29.98955


:VKCOUL :  VK-COUL convergence: 0.289E-06
       ATOMNUMBER=  1 Pr         VCOUL-ZERO =  0.76411E-01
:FIT001: LUSE= 13 SIGMA OF V-XC FIT FOR ATOM  1  0.5100970E-04
:FIT001: LUSE= 13 SIGMA OF V-XC FIT FOR ATOM  1  0.5100970E-04
:DEN  : DENSITY INTEGRAL  =         -7064.12709795   (Ry)
       ELS_POTENTIAL_AT Z=0 and Z=0.5:  -2.29438  -2.29438
       ELS_POTENTIAL_AT Y=0 and Y=0.5:   0.00000   0.00000
:VZERO:v0,v0c,v0x  -3.21075  -2.29438  -0.91638 v5,v5c,v5x  -3.21075  -2.29438  -0.91638
:VZERY:v0,v0c,v0x  -0.65163   0.00000  -0.65163 v5,v5c,v5x  -0.65163   0.00000  -0.65163
:VZERX:v0,v0c,v0x  -0.65163   0.00000  -0.65163 v5,v5c,v5x  -0.65163   0.00000  -0.65163
:LMAX-WF:   10   Non-Spherical LMAX:   4

          ATOMIC SPHERE DEPENDENT PARAMETERS FOR ATOM  Pr        
:e__0001: OVERALL ENERGY PARAMETER IS    0.2363
          OVERALL BASIS SET ON ATOM IS LAPW
:E0_0001: E( 0)=    0.2363
             APW+lo
:E0_0001: E( 0)=   -2.2478   E(BOTTOM)=   -2.630   E(TOP)=   -1.865  4  5   162
             LOCAL ORBITAL
:E1_0001: E( 1)=    0.6363
             APW+lo
:E1_0001: E( 1)=   -0.8616   E(BOTTOM)=   -1.510   E(TOP)=   -0.213  3  4   159
             LOCAL ORBITAL
:E3_0001: E( 3)=    0.4372   E(BOTTOM)=    0.292   E(TOP)=    0.582  0  1   120
             APW+lo
:E2_0001: E( 2)=    0.2363   E(BOTTOM)=    0.065   E(TOP)= -200.000  2 -1    95
             APW+lo

       K=   0.00000   0.00000   0.00000            1
:RKM  : MATRIX SIZE   201LOs:  20  RKM= 8.40  WEIGHT= 1.00  PGR:    
       EIGENVALUES ARE:
:EIG00001:      -2.2022371   -0.8551952   -0.8551952   -0.8551952    0.1938703
:EIG00006:       0.4448780    0.4565393    0.4565393    0.4565393    0.4737357
:EIG00011:       0.4737357    0.4737357    0.5608999    0.5608999    0.5608999
:EIG00016:       0.6961674    0.6961674    1.0820664    1.2732585    1.2732585
:EIG00021:       1.2732585    1.3783835    1.8980884    1.8980884    1.8980884
:EIG00026:       1.9324697    1.9324697    1.9324697    2.1759548    2.1759548
:EIG00031:       2.4360718    2.6300586    2.6300586    2.6300586    3.0234094
:EIG00036:       3.0234094    3.2447010    3.2447010    3.2447010    3.2700163
:EIG00041:       3.2700163    3.2700163    3.4557664    3.4557664    3.4557664
:EIG00046:       3.5987315    3.6920911    3.6920911    3.6920911    3.7701930
 
:EIG00051:       3.7701930    3.7701930    3.7706588    3.7706588    3.7706588
:EIG00056:       3.7830994    3.7830994    3.8646104    3.9554597    4.0817753
:EIG00061:       4.0817753    4.0817753    4.1205691    4.1205691    4.1205691
:EIG00066:       4.2639915    5.2461403    5.2461403    5.2757095    5.4890160
:EIG00071:       5.4890160    5.4890160    5.8419930    5.8419930    5.9813207
:EIG00076:       5.9813207    5.9813207    6.0749987    6.0749987    6.0749987
:EIG00081:       6.3766532    6.3766532    6.3766532    6.4287579    6.4287579
:EIG00086:       6.4287579    6.4805074    6.4805074    6.5213486    6.5213486
:EIG00091:       6.5213486    6.6182095    6.6182095    6.6182095    6.6221354
:EIG00096:       6.6221354    6.6221354    6.6564160    6.7742244    6.7742244
 
:EIG00101:       6.7912502    6.8719505    6.8719505    6.8719505    6.9049265
:EIG00106:       6.9049265    6.9049265    6.9049958    6.9049958    6.9049958
:EIG00111:       6.9639536    6.9639536    7.1306475    7.1732633    7.4478691
:EIG00116:       7.4478691    7.4478691    7.7239502    7.7239502    7.7239502
       ********************************************************

:KPT   :      NUMBER OF K-POINTS:   165
   0.0   0.0 angle (M,z), angle (M,x) deg
 
        SPIN-ORBIT EIGENVALUES:
     K=   0.00000   0.00000   0.00000            1
      MATRIX SIZE=  240   WEIGHT= 1.00
     EIGENVALUES ARE:
          -2.2022371   -2.2022371   -0.9998322   -0.9998322   -0.7875096
          -0.7875096   -0.7875096   -0.7875096    0.1938703    0.1938703
           0.4388908    0.4388908    0.4448273    0.4448273    0.4448273
           0.4448273    0.4681884    0.4681884    0.4755336    0.4755336
           0.4816241    0.4816241    0.4816241    0.4816241    0.5572635
           0.5572635    0.5572635    0.5572635    0.5669163    0.5669163
           0.6965892    0.6965892    0.6965892    0.6965892    1.0821147
           1.0821147    1.2675774    1.2675774    1.2758016    1.2758016

           1.2758016    1.2758016    1.3783835    1.3783835    1.8693487
           1.8693487    1.8934463    1.8934463    1.8934463    1.8934463
           1.9068955    1.9068955    1.9650352    1.9650352    1.9650352
           1.9650352    2.1762322    2.1762322    2.1762322    2.1762322
           2.4360718    2.4360718    2.6296249    2.6296249    2.6302897
           2.6302897    2.6302897    2.6302897    3.0233893    3.0233893
           3.0233893    3.0233893    3.2434591    3.2434591    3.2434591
           3.2434591    3.2439189    3.2439189    3.2474043    3.2474043

           3.2841831    3.2841831    3.2841831    3.2841831    3.4557604
           3.4557604    3.4557694    3.4557694    3.4557694    3.4557694
           3.5987315    3.5987315    3.6920567    3.6920567    3.6920567
           3.6920567    3.6921637    3.6921637    3.7695060    3.7695060
           3.7695060    3.7695060    3.7705145    3.7705145    3.7709374
           3.7709374    3.7710525    3.7710525    3.7710525    3.7710525
           3.7830994    3.7830994    3.7830994    3.7830994    3.8646196
           3.8646196    3.9554597    3.9554597    4.0817190    4.0817190

           4.0817190    4.0817190    4.0818913    4.0818913    4.1197610
           4.1197610    4.1210158    4.1210158    4.1210158    4.1210158
           4.2639947    4.2639947
       ********************************************************
:GAP (global)   :    0.0    Ry =     0.0   eV (metal)
:GAP (this spin):    0.0    Ry =     0.0   eV (metal)
         Bandranges (emin - emax) and occupancy:
:BAN00004:   4   -1.019909   -0.999832  1.00000000
:BAN00005:   5   -0.825527   -0.787510  1.00000000
:BAN00006:   6   -0.825527   -0.787510  1.00000000
:BAN00007:   7   -0.811488   -0.787510  1.00000000
:BAN00008:   8   -0.811488   -0.787510  1.00000000
:BAN00009:   9    0.193870    0.422609  1.00000000
:BAN00010:  10    0.193870    0.422609  1.00000000
:BAN00011:  11    0.393501    0.441877  1.00000000
:BAN00012:  12    0.393501    0.441877  1.00000000
:BAN00013:  13    0.436449    0.446070  0.50000005
:BAN00014:  14    0.436449    0.446070  0.49999995
:BAN00015:  15    0.444778    0.448541  0.00000000
:BAN00016:  16    0.444778    0.448541  0.00000000
:BAN00017:  17    0.446491    0.470186  0.00000000
:BAN00018:  18    0.446491    0.470186  0.00000000
:BAN00019:  19    0.464636    0.475534  0.00000000
        Energy to separate low and high energystates:    0.14387


:NOE  : NUMBER OF ELECTRONS          =   13.000

:FER  : F E R M I - ENERGY(TETRAH.M.)=   0.4428138346
:GMA  : POTENTIAL AND CHARGE CUT-OFF  12.00 Ry**.5

:POS001: ATOM    1 X,Y,Z = 0.00000 0.00000 0.50000  MULT= 1  ZZ= 59.000  Pr        

       LMMAX  5
       LM=   0 0  4 0  4 4  6 0  6 4

:CHA001: TOTAL VALENCE CHARGE INSIDE SPHERE   1 =  10.0083    (RMT=  2.5000 )
:PCS001: PARTIAL CHARGES SPHERE =  1 S,P,D,F,      D-EG,D-T2G 
:QTL001: 2.0201 5.3573 0.5111 2.1196 0.0000 0.0000 0.0000 0.1835 0.3276 0.0000 0.0000 0.0000
        Q-s-low E-s-low   Q-p-low E-p-low   Q-d-low E-d-low   Q-f-low E-f-low
:EPL001:  1.9257 -2.1975    5.2977 -0.8796    0.0004 -0.8561    0.0001 -0.8640
        Q-s-hi  E-s-hi    Q-p-hi  E-p-hi    Q-d-hi  E-d-hi    Q-f-hi  E-f-hi 
:EPH001:  0.0944  0.3382    0.0596  0.3781    0.5107  0.4013    2.1195  0.4351

:CHA  : TOTAL VALENCE CHARGE INSIDE UNIT CELL =      13.000000

:SUM  : SUM OF EIGENVALUES =          -7.640646768


        1.ATOM      Pr                   14 CORE STATES
:1S 001: 1S               -3067.144098214 Ry
:2S 001: 2S                -492.893835585 Ry
:2PP001: 2P*               -465.993835546 Ry
:2P 001: 2P                -430.596030187 Ry
:3S 001: 3S                -105.976311314 Ry
:3PP001: 3P*                -94.514496471 Ry
:3P 001: 3P                 -87.506433746 Ry
:3DD001: 3D*                -67.434400905 Ry
:3D 001: 3D                 -65.922725681 Ry
:4S 001: 4S                 -20.660382083 Ry
:4PP001: 4P*                -16.368039814 Ry
:4P 001: 4P                 -14.841827562 Ry
:4DD001: 4D*                 -7.777203453 Ry
:4D 001: 4D                  -7.508225507 Ry
:CINT001 Core Integral Atom   1   45.999509

       DENSITY AT NUCLEUS
        JATOM        VALENCE       SEMI-CORE          CORE           TOTAL
:RTO001:   1      645.543899        0.000000   656823.715178   657469.259077
     
       CHARGES OF NEW CHARGE DENSITY
:NTO   : INTERSTITIAL CHARGE =     2.991722
:NPC   : PW Pseudocharge     =     7.496721
:NTO001: CHARGE SPHERE  1    =    56.007786

:NEC01: NUCLEAR AND ELECTRONIC CHARGE     59.00000    58.99951
     
       CHARGES OF OLD CHARGE DENSITY
:OTO   : INTERSTITIAL CHARGE =     2.967158
:OPC   : PW Pseudocharge     =     7.443407
:OTO001: CHARGE SPHERE  1    =    56.032842

:NEC02: NUCLEAR AND ELECTRONIC CHARGE     59.00000    59.00000
     
       CONVERGENCE TEST
:DTO001: DIFFERENCE IN SPHERE  1 =  0.0387475

:DIS  :  CHARGE DISTANCE       ( 0.0387475 for atom    1 spin 1)      0.0387475
 PW Mixed is           60
 
******************************************************
* MULTISECANT MIXING VER9 RELEASE 10.4.0              *
* Slow Mode, cautious                                *
* Fixed density scale                                *
* Regularization       1.000E-04                     *
* Step Trust Radius    0.75000                       *
* Trust Upper Limit    2.000E+00                     *
* Max Number of Memory Steps   12                    *
******************************************************
 
:PWTMP   2.3061E+02  1.2500E+02  2.9606E+02
:PLANE:  PW TOTAL      2.6672 DISTAN   1.83E-02  6.87E-01 %
:CHARG:  CLM/ATOM    977.1784 DISTAN   2.21E-01  2.26E-02 %
 
Step History
        DMIX         DMIXT        Red     Pred      Trust     Lambda    MagRel    MagAbs     Beta
  1   3.5000E-02   3.5000E-02 -1.00E+00  1.00E+00 -1.00E+01  1.00E+00  3.50E-02  3.50E-02  1.00E+00
  2   2.5000E-02   2.5000E-02  6.54E-01  1.00E+00 -1.00E+01  1.00E+00  2.50E-02  1.09E-02  1.00E+00
  3   2.9778E-02   2.9778E-02 -1.00E+00  1.00E+00 -1.00E+01  1.00E+00  2.98E-02  8.52E-03  1.00E+00
:JACOBIANS    4.016E-03   4.089E-02
  
:NORMS:  1/Froebius, Min, Max, Used   0.7675E-01  0.3390E-01  0.7675E-01  0.7675E-01
:INFO :  Number of Memory Steps    2 Skipping    0
:INFO :  SLambda=    2.4410885638  Max    2.4410885638
:PREDicted Charge, CTotal, PW Trust    7.019E-03   7.019E-03   2.037E-02
:PREDicted DMix, Beta, BLim   4.1761E-02  9.0984E-01  9.6231E-02

Eigenvalues, unscaled except for SY+YY
   #     SY Real        SY Imag          SS             YY         SY+YY Real      SY+YY Imag
   1   1.050454E-01   0.000000E+00   1.178003E-02   1.999728E+00   2.256144E+00   0.000000E+00
   2   1.984524E-15   0.000000E+00  -8.673617E-19   2.720205E-04   2.810082E-04   0.000000E+00
 
:INFO :  Singular value  2.256E+00 Weight  1.000E+00 Projection -1.503E-04
:INFO :  Singular value  2.810E-04 Weight  6.638E-01 Projection  8.250E+00
:RANK :  ACTIVE   1.66/2  =  83.19 % ; YY RANK   1.65/2  =  82.46 %
 
:DLIM :  Beta Active  9.324E-01
:BLIM :  VZERO Control Off
:TRUST:  Step 2.98E-01  Charge 7.50E-02 (e) CTO  2.50E-01 (e) PW  3.50E-01 (e)
:DIRM :  MEMORY  2/12 SCALE   1.000 RED  0.77 PRED  1.00 NEXT  0.52 BETA  0.93
:TRAVE:  Charge 1.46E-03 (e) CTO  1.46E-03 (e) PW  3.64E-03 (e)
:DIRP :  |MSR1|= 2.515E-03 |PRATT|= 1.832E-02 ANGLE= 159.6 DEGREES
:DIRQ :  |MSR1|= 6.143E-03 |PRATT|= 2.210E-01 ANGLE=  35.5 DEGREES
:DIRT :  |MSR1|= 6.638E-03 |PRATT|= 2.217E-01 ANGLE=  43.8 DEGREES
:MIX  :   MSE1   REGULARIZATION:  2.00E-04 GREED: 0.03582  Newton 1.00  0.0299                
     
       CHARGES OF MIXED CHARGE DENSITY
:CTO   : INTERSTITIAL CHARGE =     2.965695
:CPC   : PW Pseudocharge     =     7.436253
:CTO001: CHARGE SPHERE  1    =    56.034305

:NEC03: NUCLEAR AND ELECTRONIC CHARGE     59.00000    59.00000

PW CHANGE     H    K    L      Current       Change    Residue
:PTO001:      0    0    0  3.51345696E-02 -2.911E-05  2.689E-04
:PTO002:     -1   -1   -1 -1.18615571E-01  1.118E-04 -7.149E-04
:PTO003:      0    0   -2  7.19651318E-02 -7.222E-05  5.275E-04
:PTO004:      0   -2   -2  6.81698126E-02 -7.342E-05  2.866E-04
:PTO005:     -1   -1   -3 -7.17587597E-02  6.601E-05 -2.192E-04
:PTO006:     -2   -2   -2  1.90645226E-02 -1.429E-05  7.887E-05
:PTO007:      0    0   -4  4.75055900E-03  8.845E-07 -1.547E-05
:PTO008:     -1   -3   -3 -7.31261449E-03 -1.165E-05  3.378E-04
:PTO009:      0   -2   -4  3.97096986E-03  1.458E-05 -3.781E-04
:PTO010:     -2   -2   -4 -3.91928715E-03  2.222E-05 -1.669E-04
:PTO011:     -3   -3   -3  2.22583771E-03 -8.073E-06 -2.902E-05
:PTO012:     -1   -1   -5  6.14238563E-03 -1.971E-05  1.642E-04

:ENE  : ********** TOTAL ENERGY IN Ry =       -18472.07903331

 Flat Integration
 New Mode for Coulomb Integral
 Consistent 3/8+Simpson combinations
 Extension of core to zero
 LDM version in phi
 Fifth-order quadrature in outwin


            ---------
:ITE020: 20. ITERATION
            ---------

:NATO :    1 INDEPENDENT AND    1 TOTAL ATOMS IN UNITCELL
       SUBSTANCE: blebleble                                                   

       LATTICE                      = F   
:POT  : POTENTIAL OPTION EX_LDA EC_LDA VX_LDA VC_LDA
:LAT  : LATTICE CONSTANTS= 10.57986 10.57986 10.57986    1.571    1.571    1.571
:VOL  : UNIT CELL VOLUME =     296.06019
       MODE OF CALCULATION IS       = RELA
       NON-SPINPOLARIZED CALCULATION
:IFFT  : FFT-parameters:   90   90   90 Factor: 2.00


   CONVERGENCE PARAMETER FOR PSEUDOCHARGE: NCON=  9
   MAXIMAL VALUE OF RMT(JATOM)*ABSK(NKK) : RK  =29.98955


:VKCOUL :  VK-COUL convergence: 0.287E-06
       ATOMNUMBER=  1 Pr         VCOUL-ZERO =  0.76333E-01
:FIT001: LUSE= 13 SIGMA OF V-XC FIT FOR ATOM  1  0.5055999E-04
:FIT001: LUSE= 13 SIGMA OF V-XC FIT FOR ATOM  1  0.5055999E-04
:DEN  : DENSITY INTEGRAL  =         -7064.25600475   (Ry)
       ELS_POTENTIAL_AT Z=0 and Z=0.5:  -2.29267  -2.29267
       ELS_POTENTIAL_AT Y=0 and Y=0.5:   0.00000   0.00000
:VZERO:v0,v0c,v0x  -3.20882  -2.29267  -0.91614 v5,v5c,v5x  -3.20882  -2.29267  -0.91614
:VZERY:v0,v0c,v0x  -0.65150   0.00000  -0.65150 v5,v5c,v5x  -0.65150   0.00000  -0.65150
:VZERX:v0,v0c,v0x  -0.65150   0.00000  -0.65150 v5,v5c,v5x  -0.65150   0.00000  -0.65150
:LMAX-WF:   10   Non-Spherical LMAX:   4

          ATOMIC SPHERE DEPENDENT PARAMETERS FOR ATOM  Pr        
:e__0001: OVERALL ENERGY PARAMETER IS    0.2407
          OVERALL BASIS SET ON ATOM IS LAPW
:E0_0001: E( 0)=    0.2407
             APW+lo
:E0_0001: E( 0)=   -2.2469   E(BOTTOM)=   -2.630   E(TOP)=   -1.864  4  5   156
             LOCAL ORBITAL
:E1_0001: E( 1)=    0.6407
             APW+lo
:E1_0001: E( 1)=   -0.8609   E(BOTTOM)=   -1.509   E(TOP)=   -0.212  3  4   156
             LOCAL ORBITAL
:E3_0001: E( 3)=    0.4389   E(BOTTOM)=    0.294   E(TOP)=    0.584  0  1   115
             APW+lo
:E2_0001: E( 2)=    0.2407   E(BOTTOM)=    0.065   E(TOP)= -200.000  2 -1    97
             APW+lo

       K=   0.00000   0.00000   0.00000            1
:RKM  : MATRIX SIZE   201LOs:  20  RKM= 8.40  WEIGHT= 1.00  PGR:    
       EIGENVALUES ARE:
:EIG00001:      -2.2013261   -0.8545077   -0.8545077   -0.8545077    0.1937307
:EIG00006:       0.4464141    0.4581733    0.4581733    0.4581733    0.4754585
:EIG00011:       0.4754585    0.4754585    0.5609957    0.5609957    0.5609957
:EIG00016:       0.6963622    0.6963622    1.0820691    1.2731756    1.2731756
:EIG00021:       1.2731756    1.3780861    1.8981614    1.8981614    1.8981614
:EIG00026:       1.9325522    1.9325522    1.9325522    2.1759183    2.1759183
:EIG00031:       2.4360702    2.6299957    2.6299957    2.6299957    3.0232371
:EIG00036:       3.0232371    3.2445128    3.2445128    3.2445128    3.2698691
:EIG00041:       3.2698691    3.2698691    3.4556193    3.4556193    3.4556193
:EIG00046:       3.5986195    3.6918650    3.6918650    3.6918650    3.7700216
 
:EIG00051:       3.7700216    3.7700216    3.7704586    3.7704586    3.7704586
:EIG00056:       3.7828685    3.7828685    3.8644179    3.9552799    4.0814952
:EIG00061:       4.0814952    4.0814952    4.1203325    4.1203325    4.1203325
:EIG00066:       4.2637481    5.2457957    5.2457957    5.2754521    5.4888499
:EIG00071:       5.4888499    5.4888499    5.8415181    5.8415181    5.9807444
:EIG00076:       5.9807444    5.9807444    6.0749370    6.0749370    6.0749370
:EIG00081:       6.3761817    6.3761817    6.3761817    6.4284356    6.4284356
:EIG00086:       6.4284356    6.4802839    6.4802839    6.5211317    6.5211317
:EIG00091:       6.5211317    6.6179330    6.6179330    6.6179330    6.6219119
:EIG00096:       6.6219119    6.6219119    6.6561069    6.7737774    6.7737774
 
:EIG00101:       6.7910465    6.8716810    6.8716810    6.8716810    6.9046557
:EIG00106:       6.9046557    6.9046557    6.9046899    6.9046899    6.9046899
:EIG00111:       6.9636265    6.9636265    7.1303417    7.1730259    7.4475668
:EIG00116:       7.4475668    7.4475668    7.7236811    7.7236811    7.7236811
       ********************************************************

:KPT   :      NUMBER OF K-POINTS:   165
   0.0   0.0 angle (M,z), angle (M,x) deg
 
        SPIN-ORBIT EIGENVALUES:
     K=   0.00000   0.00000   0.00000            1
      MATRIX SIZE=  240   WEIGHT= 1.00
     EIGENVALUES ARE:
          -2.2013261   -2.2013261   -0.9990977   -0.9990977   -0.7868459
          -0.7868459   -0.7868459   -0.7868459    0.1937307    0.1937307
           0.4404665    0.4404665    0.4464863    0.4464863    0.4464863
           0.4464863    0.4698119    0.4698119    0.4772186    0.4772186
           0.4833259    0.4833259    0.4833259    0.4833259    0.5573623
           0.5573623    0.5573623    0.5573623    0.5670078    0.5670078
           0.6967829    0.6967829    0.6967829    0.6967829    1.0821177
           1.0821177    1.2675010    1.2675010    1.2757158    1.2757158

           1.2757158    1.2757158    1.3780861    1.3780861    1.8694267
           1.8694267    1.8935154    1.8935154    1.8935154    1.8935154
           1.9069749    1.9069749    1.9651184    1.9651184    1.9651185
           1.9651185    2.1761961    2.1761961    2.1761961    2.1761961
           2.4360702    2.4360702    2.6295615    2.6295615    2.6302272
           2.6302272    2.6302272    2.6302272    3.0232169    3.0232169
           3.0232169    3.0232169    3.2432693    3.2432693    3.2432693
           3.2432693    3.2437609    3.2437609    3.2472197    3.2472197

           3.2840418    3.2840418    3.2840418    3.2840418    3.4556133
           3.4556133    3.4556222    3.4556222    3.4556222    3.4556222
           3.5986195    3.5986195    3.6918306    3.6918306    3.6918306
           3.6918306    3.6919376    3.6919376    3.7693277    3.7693277
           3.7693277    3.7693277    3.7703141    3.7703141    3.7707668
           3.7707668    3.7708590    3.7708590    3.7708590    3.7708590
           3.7828685    3.7828685    3.7828685    3.7828685    3.8644271
           3.8644271    3.9552799    3.9552799    4.0814389    4.0814389

           4.0814389    4.0814389    4.0816114    4.0816114    4.1195239
           4.1195239    4.1207794    4.1207794    4.1207794    4.1207794
           4.2637513    4.2637513
       ********************************************************
:GAP (global)   :    0.0    Ry =     0.0   eV (metal)
:GAP (this spin):    0.0    Ry =     0.0   eV (metal)
         Bandranges (emin - emax) and occupancy:
:BAN00004:   4   -1.019206   -0.999098  1.00000000
:BAN00005:   5   -0.824917   -0.786846  1.00000000
:BAN00006:   6   -0.824917   -0.786846  1.00000000
:BAN00007:   7   -0.810859   -0.786846  1.00000000
:BAN00008:   8   -0.810859   -0.786846  1.00000000
:BAN00009:   9    0.193731    0.423148  1.00000000
:BAN00010:  10    0.193731    0.423148  1.00000000
:BAN00011:  11    0.393497    0.442681  1.00000000
:BAN00012:  12    0.393497    0.442681  1.00000000
:BAN00013:  13    0.437761    0.447723  0.50000012
:BAN00014:  14    0.437761    0.447723  0.49999988
:BAN00015:  15    0.446430    0.449945  0.00000000
:BAN00016:  16    0.446430    0.449945  0.00000000
:BAN00017:  17    0.448166    0.471740  0.00000000
:BAN00018:  18    0.448166    0.471740  0.00000000
:BAN00019:  19    0.466009    0.477219  0.00000000
        Energy to separate low and high energystates:    0.14373


:NOE  : NUMBER OF ELECTRONS          =   13.000

:FER  : F E R M I - ENERGY(TETRAH.M.)=   0.4443114843
:GMA  : POTENTIAL AND CHARGE CUT-OFF  12.00 Ry**.5

:POS001: ATOM    1 X,Y,Z = 0.00000 0.00000 0.50000  MULT= 1  ZZ= 59.000  Pr        

       LMMAX  5
       LM=   0 0  4 0  4 4  6 0  6 4

:CHA001: TOTAL VALENCE CHARGE INSIDE SPHERE   1 =   9.9776    (RMT=  2.5000 )
:PCS001: PARTIAL CHARGES SPHERE =  1 S,P,D,F,      D-EG,D-T2G 
:QTL001: 2.0203 5.3581 0.5221 2.0771 0.0000 0.0000 0.0000 0.1868 0.3352 0.0000 0.0000 0.0000
        Q-s-low E-s-low   Q-p-low E-p-low   Q-d-low E-d-low   Q-f-low E-f-low
:EPL001:  1.9256 -2.1966    5.2970 -0.8789    0.0004 -0.8554    0.0001 -0.8634
        Q-s-hi  E-s-hi    Q-p-hi  E-p-hi    Q-d-hi  E-d-hi    Q-f-hi  E-f-hi 
:EPH001:  0.0946  0.3384    0.0611  0.3796    0.5217  0.4023    2.0770  0.4364

:CHA  : TOTAL VALENCE CHARGE INSIDE UNIT CELL =      13.000000

:SUM  : SUM OF EIGENVALUES =          -7.631441113


        1.ATOM      Pr                   14 CORE STATES
:1S 001: 1S               -3067.141482762 Ry
:2S 001: 2S                -492.891101486 Ry
:2PP001: 2P*               -465.991127232 Ry
:2P 001: 2P                -430.593312305 Ry
:3S 001: 3S                -105.973439875 Ry
:3PP001: 3P*                -94.511629941 Ry
:3P 001: 3P                 -87.503567780 Ry
:3DD001: 3D*                -67.431542805 Ry
:3D 001: 3D                 -65.919866544 Ry
:4S 001: 4S                 -20.657956682 Ry
:4PP001: 4P*                -16.365652511 Ry
:4P 001: 4P                 -14.839495620 Ry
:4DD001: 4D*                 -7.774977782 Ry
:4D 001: 4D                  -7.506019362 Ry
:CINT001 Core Integral Atom   1   45.999508

       DENSITY AT NUCLEUS
        JATOM        VALENCE       SEMI-CORE          CORE           TOTAL
:RTO001:   1      645.479990        0.000000   656823.639175   657469.119164
     
       CHARGES OF NEW CHARGE DENSITY
:NTO   : INTERSTITIAL CHARGE =     3.022351
:NPC   : PW Pseudocharge     =     7.505590
:NTO001: CHARGE SPHERE  1    =    55.977157

:NEC01: NUCLEAR AND ELECTRONIC CHARGE     59.00000    58.99951
     
       CHARGES OF OLD CHARGE DENSITY
:OTO   : INTERSTITIAL CHARGE =     2.965695
:OPC   : PW Pseudocharge     =     7.436253
:OTO001: CHARGE SPHERE  1    =    56.034305

:NEC02: NUCLEAR AND ELECTRONIC CHARGE     59.00000    59.00000
     
       CONVERGENCE TEST
:DTO001: DIFFERENCE IN SPHERE  1 =  0.0893839

:DIS  :  CHARGE DISTANCE       ( 0.0893839 for atom    1 spin 1)      0.0893839
 PW Mixed is           60
 
******************************************************
* MULTISECANT MIXING VER9 RELEASE 10.4.0              *
* Standard Mode with controls                        *
* Fixed density scale                                *
* Regularization       1.000E-04                     *
* Trust Upper Limit    5.000E+00                     *
* Max Number of Memory Steps    8                    *
******************************************************
 
:PWTMP   2.3061E+02  1.2500E+02  2.9606E+02
:PLANE:  PW TOTAL      2.6647 DISTAN   2.40E-02  9.02E-01 %
:CHARG:  CLM/ATOM    977.1781 DISTAN   2.29E-01  2.34E-02 %
 
Step History
        DMIX         DMIXT        Red     Pred      Trust     Lambda    MagRel    MagAbs     Beta
  1   3.5000E-02   3.5000E-02 -1.00E+00  1.00E+00 -1.00E+01  1.00E+00  3.50E-02  3.50E-02  1.00E+00
  2   2.5000E-02   2.5000E-02  6.54E-01  1.00E+00 -1.00E+01  1.00E+00  2.50E-02  1.09E-02  1.00E+00
  3   2.9778E-02   2.9778E-02  7.74E-01  1.00E+00 -1.00E+01  2.44E+00  2.98E-02  8.52E-03  1.00E+00
  4   3.5825E-02   3.5825E-02 -1.00E+00  5.16E-01  2.98E-01  1.00E+00  2.99E-02  6.64E-03  9.32E-01
:JACOBIANS    9.002E-03   3.554E-01
  
:NORMS:  1/Froebius, Min, Max, Used   0.9767E-01  0.9508E-01  0.8424E+00  0.1137E+00
:INFO :  Number of Memory Steps    3 Skipping    0
:INFO :  SLambda=    3.0000000000  Max    3.0000000000
:PREDicted Charge, CTotal, PW Trust    4.116E-03   4.116E-03   1.873E-02
:PREDicted DMix, Beta, BLim   6.1482E-01  1.9755E+01  8.4823E-01

Eigenvalues, unscaled except for SY+YY
   #     SY Real        SY Imag          SS             YY         SY+YY Real      SY+YY Imag
   1   1.657493E-01   0.000000E+00   2.709773E-02   2.997661E+00   3.494758E+00   0.000000E+00
   2  -3.686113E-14   0.000000E+00   1.521747E-03   2.166875E-03   2.265824E-04   0.000000E+00
   3   1.223599E-03   0.000000E+00  -9.057041E-20   1.721438E-04   5.933719E-03   0.000000E+00
 
:INFO :  Singular value  3.495E+00 Weight  1.000E+00 Projection  1.920E-02
:INFO :  Singular value  6.091E-03 Weight  9.976E-01 Projection -5.058E+00
:INFO :  Singular value  2.207E-04 Weight  3.516E-01 Projection  5.600E+00
:RANK :  ACTIVE   2.35/3  =  78.31 % ; YY RANK   2.23/3  =  74.31 %
 
:BLIM :  VZERO Control Off
:TRUST:  Step 2.65E-01  Charge 6.82E-02 (e) CTO  2.27E-01 (e) PW  3.18E-01 (e)
:DTRUS:  Lambda    2.160E+00 Increment    7.276E-12 Iterations   116 DMIX    4.583E-02
:INFOA:  Angle SubSpace to MSR1      3.40
:DIRM :  MEMORY  3/8  SCALE   1.000 RED  1.04 PRED  0.52 NEXT  0.70 
:INFO :  Limited by Atoms F by Step T

:TRAVE:  Charge 1.30E-03 (e) CTO  1.30E-03 (e) PW  6.41E-03 (e)
:DIRP :  |MSR1|= 6.543E-03 |PRATT|= 2.403E-02 ANGLE=  22.7 DEGREES
:DIRQ :  |MSR1|= 6.069E-02 |PRATT|= 2.291E-01 ANGLE=  26.8 DEGREES
:DIRT :  |MSR1|= 6.104E-02 |PRATT|= 2.304E-01 ANGLE=  26.7 DEGREES
:MIX  :   MSE1   REGULARIZATION:  3.00E-04 GREED: 0.08956  LMStep 0.31  0.2649 Step           
     
       CHARGES OF MIXED CHARGE DENSITY
:CTO   : INTERSTITIAL CHARGE =     2.966829
:CPC   : PW Pseudocharge     =     7.456842
:CTO001: CHARGE SPHERE  1    =    56.033171

:NEC03: NUCLEAR AND ELECTRONIC CHARGE     59.00000    59.00000

PW CHANGE     H    K    L      Current       Change    Residue
:PTO001:      0    0    0  3.52079441E-02  7.337E-05  4.314E-04
:PTO002:     -1   -1   -1 -1.18966230E-01 -3.507E-04 -8.394E-04
:PTO003:      0    0   -2  7.21286576E-02  1.635E-04  5.691E-04
:PTO004:      0   -2   -2  6.82383458E-02  6.853E-05  3.704E-04
:PTO005:     -1   -1   -3 -7.17739027E-02 -1.514E-05 -2.303E-04
:PTO006:     -2   -2   -2  1.90868465E-02  2.232E-05  8.277E-05
:PTO007:      0    0   -4  4.73976929E-03 -1.079E-05 -3.699E-05
:PTO008:     -1   -3   -3 -7.22144770E-03  9.117E-05  3.558E-04
:PTO009:      0   -2   -4  3.86944406E-03 -1.015E-04 -4.153E-04
:PTO010:     -2   -2   -4 -3.95854598E-03 -3.926E-05 -2.047E-04
:PTO011:     -3   -3   -3  2.21616566E-03 -9.672E-06 -1.701E-05
:PTO012:     -1   -1   -5  6.17051821E-03  2.813E-05  2.117E-04

:ENE  : ********** TOTAL ENERGY IN Ry =       -18472.07912745

 Flat Integration
 New Mode for Coulomb Integral
 Consistent 3/8+Simpson combinations
 Extension of core to zero
 LDM version in phi
 Fifth-order quadrature in outwin


            ---------
:ITE021: 21. ITERATION
            ---------

:NATO :    1 INDEPENDENT AND    1 TOTAL ATOMS IN UNITCELL
       SUBSTANCE: blebleble                                                   

       LATTICE                      = F   
:POT  : POTENTIAL OPTION EX_LDA EC_LDA VX_LDA VC_LDA
:LAT  : LATTICE CONSTANTS= 10.57986 10.57986 10.57986    1.571    1.571    1.571
:VOL  : UNIT CELL VOLUME =     296.06019
       MODE OF CALCULATION IS       = RELA
       NON-SPINPOLARIZED CALCULATION
:IFFT  : FFT-parameters:   90   90   90 Factor: 2.00


   CONVERGENCE PARAMETER FOR PSEUDOCHARGE: NCON=  9
   MAXIMAL VALUE OF RMT(JATOM)*ABSK(NKK) : RK  =29.98955


:VKCOUL :  VK-COUL convergence: 0.263E-06
       ATOMNUMBER=  1 Pr         VCOUL-ZERO =  0.77269E-01
:FIT001: LUSE= 13 SIGMA OF V-XC FIT FOR ATOM  1  0.4669794E-04
:FIT001: LUSE= 13 SIGMA OF V-XC FIT FOR ATOM  1  0.4669794E-04
:DEN  : DENSITY INTEGRAL  =         -7063.95023384   (Ry)
       ELS_POTENTIAL_AT Z=0 and Z=0.5:  -2.29717  -2.29717
       ELS_POTENTIAL_AT Y=0 and Y=0.5:   0.00000   0.00000
:VZERO:v0,v0c,v0x  -3.21371  -2.29717  -0.91654 v5,v5c,v5x  -3.21371  -2.29717  -0.91654
:VZERY:v0,v0c,v0x  -0.65171   0.00000  -0.65171 v5,v5c,v5x  -0.65171   0.00000  -0.65171
:VZERX:v0,v0c,v0x  -0.65171   0.00000  -0.65171 v5,v5c,v5x  -0.65171   0.00000  -0.65171
:LMAX-WF:   10   Non-Spherical LMAX:   4

          ATOMIC SPHERE DEPENDENT PARAMETERS FOR ATOM  Pr        
:e__0001: OVERALL ENERGY PARAMETER IS    0.2431
          OVERALL BASIS SET ON ATOM IS LAPW
:E0_0001: E( 0)=    0.2431
             APW+lo
:E0_0001: E( 0)=   -2.2476   E(BOTTOM)=   -2.630   E(TOP)=   -1.865  4  5   161
             LOCAL ORBITAL
:E1_0001: E( 1)=    0.6431
             APW+lo
:E1_0001: E( 1)=   -0.8614   E(BOTTOM)=   -1.510   E(TOP)=   -0.213  3  4   161
             LOCAL ORBITAL
:E3_0001: E( 3)=    0.4368   E(BOTTOM)=    0.292   E(TOP)=    0.582  0  1   123
             APW+lo
:E2_0001: E( 2)=    0.2431   E(BOTTOM)=    0.065   E(TOP)= -200.000  2 -1    94
             APW+lo

       K=   0.00000   0.00000   0.00000            1
:RKM  : MATRIX SIZE   201LOs:  20  RKM= 8.40  WEIGHT= 1.00  PGR:    
       EIGENVALUES ARE:
:EIG00001:      -2.2020197   -0.8548993   -0.8548993   -0.8548993    0.1942768
:EIG00006:       0.4444102    0.4561783    0.4561783    0.4561783    0.4733149
:EIG00011:       0.4733149    0.4733149    0.5613038    0.5613038    0.5613038
:EIG00016:       0.6965403    0.6965403    1.0824711    1.2735695    1.2735695
:EIG00021:       1.2735695    1.3787593    1.8983461    1.8983461    1.8983461
:EIG00026:       1.9328250    1.9328250    1.9328250    2.1762220    2.1762220
:EIG00031:       2.4364771    2.6303753    2.6303753    2.6303753    3.0235143
:EIG00036:       3.0235143    3.2449549    3.2449549    3.2449549    3.2703898
:EIG00041:       3.2703898    3.2703898    3.4561198    3.4561198    3.4561198
:EIG00046:       3.5990221    3.6925131    3.6925131    3.6925131    3.7706126
 
:EIG00051:       3.7706126    3.7706126    3.7710402    3.7710402    3.7710402
:EIG00056:       3.7835908    3.7835908    3.8651573    3.9558536    4.0822207
:EIG00061:       4.0822207    4.0822207    4.1209597    4.1209597    4.1209597
:EIG00066:       4.2644631    5.2461765    5.2461765    5.2759725    5.4893650
:EIG00071:       5.4893650    5.4893650    5.8415026    5.8415026    5.9806248
:EIG00076:       5.9806248    5.9806248    6.0752130    6.0752130    6.0752130
:EIG00081:       6.3765498    6.3765498    6.3765498    6.4289549    6.4289549
:EIG00086:       6.4289549    6.4809222    6.4809222    6.5217435    6.5217435
:EIG00091:       6.5217435    6.6184439    6.6184439    6.6184439    6.6224432
:EIG00096:       6.6224432    6.6224432    6.6566013    6.7741226    6.7741226
 
:EIG00101:       6.7915935    6.8723272    6.8723272    6.8723272    6.9053132
:EIG00106:       6.9053132    6.9053132    6.9053166    6.9053166    6.9053166
:EIG00111:       6.9642516    6.9642516    7.1311799    7.1734612    7.4483352
:EIG00116:       7.4483352    7.4483352    7.7244094    7.7244094    7.7244094
       ********************************************************

:KPT   :      NUMBER OF K-POINTS:   165
   0.0   0.0 angle (M,z), angle (M,x) deg
 
        SPIN-ORBIT EIGENVALUES:
     K=   0.00000   0.00000   0.00000            1
      MATRIX SIZE=  240   WEIGHT= 1.00
     EIGENVALUES ARE:
          -2.2020197   -2.2020197   -0.9995534   -0.9995534   -0.7872069
          -0.7872069   -0.7872069   -0.7872069    0.1942768    0.1942768
           0.4384219    0.4384219    0.4444466    0.4444466    0.4444466
           0.4444466    0.4678364    0.4678364    0.4751117    0.4751117
           0.4812198    0.4812198    0.4812198    0.4812198    0.5576657
           0.5576657    0.5576657    0.5576657    0.5673222    0.5673222
           0.6969624    0.6969624    0.6969624    0.6969624    1.0825192
           1.0825192    1.2678843    1.2678843    1.2761145    1.2761145

           1.2761145    1.2761145    1.3787593    1.3787593    1.8696958
           1.8696958    1.8936979    1.8936979    1.8936979    1.8936979
           1.9071639    1.9071639    1.9653943    1.9653943    1.9653943
           1.9653943    2.1765001    2.1765001    2.1765001    2.1765001
           2.4364771    2.4364771    2.6299419    2.6299419    2.6306063
           2.6306063    2.6306063    2.6306063    3.0234942    3.0234942
           3.0234942    3.0234942    3.2437112    3.2437112    3.2437112
           3.2437112    3.2442906    3.2442906    3.2476622    3.2476622

           3.2845574    3.2845574    3.2845574    3.2845574    3.4561138
           3.4561138    3.4561228    3.4561228    3.4561228    3.4561228
           3.5990221    3.5990221    3.6924787    3.6924787    3.6924787
           3.6924787    3.6925857    3.6925857    3.7699181    3.7699181
           3.7699181    3.7699181    3.7708960    3.7708960    3.7713565
           3.7713565    3.7714416    3.7714416    3.7714416    3.7714416
           3.7835908    3.7835908    3.7835908    3.7835908    3.8651665
           3.8651665    3.9558536    3.9558536    4.0821643    4.0821643

           4.0821643    4.0821643    4.0823368    4.0823368    4.1201507
           4.1201507    4.1214068    4.1214068    4.1214068    4.1214068
           4.2644662    4.2644662
       ********************************************************
:GAP (global)   :    0.0    Ry =     0.0   eV (metal)
:GAP (this spin):    0.0    Ry =     0.0   eV (metal)
         Bandranges (emin - emax) and occupancy:
:BAN00004:   4   -1.019622   -0.999553  1.00000000
:BAN00005:   5   -0.825213   -0.787207  1.00000000
:BAN00006:   6   -0.825213   -0.787207  1.00000000
:BAN00007:   7   -0.811178   -0.787207  1.00000000
:BAN00008:   8   -0.811178   -0.787207  1.00000000
:BAN00009:   9    0.194277    0.422721  1.00000000
:BAN00010:  10    0.194277    0.422721  1.00000000
:BAN00011:  11    0.393951    0.441787  1.00000000
:BAN00012:  12    0.393951    0.441787  1.00000000
:BAN00013:  13    0.436217    0.445689  0.50000008
:BAN00014:  14    0.436217    0.445689  0.49999992
:BAN00015:  15    0.444398    0.448260  0.00000000
:BAN00016:  16    0.444398    0.448260  0.00000000
:BAN00017:  17    0.446060    0.469775  0.00000000
:BAN00018:  18    0.446060    0.469775  0.00000000
:BAN00019:  19    0.464388    0.475112  0.00000000
        Energy to separate low and high energystates:    0.14428


:NOE  : NUMBER OF ELECTRONS          =   13.000

:FER  : F E R M I - ENERGY(TETRAH.M.)=   0.4424795787
:GMA  : POTENTIAL AND CHARGE CUT-OFF  12.00 Ry**.5

:POS001: ATOM    1 X,Y,Z = 0.00000 0.00000 0.50000  MULT= 1  ZZ= 59.000  Pr        

       LMMAX  5
       LM=   0 0  4 0  4 4  6 0  6 4

:CHA001: TOTAL VALENCE CHARGE INSIDE SPHERE   1 =  10.0229    (RMT=  2.5000 )
:PCS001: PARTIAL CHARGES SPHERE =  1 S,P,D,F,      D-EG,D-T2G 
:QTL001: 2.0201 5.3568 0.5055 2.1404 0.0000 0.0000 0.0000 0.1819 0.3235 0.0000 0.0000 0.0000
        Q-s-low E-s-low   Q-p-low E-p-low   Q-d-low E-d-low   Q-f-low E-f-low
:EPL001:  1.9257 -2.1973    5.2978 -0.8793    0.0004 -0.8558    0.0001 -0.8637
        Q-s-hi  E-s-hi    Q-p-hi  E-p-hi    Q-d-hi  E-d-hi    Q-f-hi  E-f-hi 
:EPH001:  0.0943  0.3385    0.0590  0.3778    0.5051  0.4012    2.1403  0.4348

:CHA  : TOTAL VALENCE CHARGE INSIDE UNIT CELL =      13.000000

:SUM  : SUM OF EIGENVALUES =          -7.638173389


        1.ATOM      Pr                   14 CORE STATES
:1S 001: 1S               -3067.152655266 Ry
:2S 001: 2S                -492.900946171 Ry
:2PP001: 2P*               -466.001260414 Ry
:2P 001: 2P                -430.603337323 Ry
:3S 001: 3S                -105.980705881 Ry
:3PP001: 3P*                -94.519043642 Ry
:3P 001: 3P                 -87.510822865 Ry
:3DD001: 3D*                -67.439193102 Ry
:3D 001: 3D                 -65.927463726 Ry
:4S 001: 4S                 -20.661799597 Ry
:4PP001: 4P*                -16.369397755 Ry
:4P 001: 4P                 -14.843048324 Ry
:4DD001: 4D*                 -7.778273040 Ry
:4D 001: 4D                  -7.509255096 Ry
:CINT001 Core Integral Atom   1   45.999509

       DENSITY AT NUCLEUS
        JATOM        VALENCE       SEMI-CORE          CORE           TOTAL
:RTO001:   1      645.565465        0.000000   656824.539056   657470.104521
     
       CHARGES OF NEW CHARGE DENSITY
:NTO   : INTERSTITIAL CHARGE =     2.977106
:NPC   : PW Pseudocharge     =     7.491548
:NTO001: CHARGE SPHERE  1    =    56.022402

:NEC01: NUCLEAR AND ELECTRONIC CHARGE     59.00000    58.99951
     
       CHARGES OF OLD CHARGE DENSITY
:OTO   : INTERSTITIAL CHARGE =     2.966829
:OPC   : PW Pseudocharge     =     7.456842
:OTO001: CHARGE SPHERE  1    =    56.033171

:NEC02: NUCLEAR AND ELECTRONIC CHARGE     59.00000    59.00000
     
       CONVERGENCE TEST
:DTO001: DIFFERENCE IN SPHERE  1 =  0.0081210

:DIS  :  CHARGE DISTANCE       ( 0.0081210 for atom    1 spin 1)      0.0081210
 PW Mixed is           60
 
******************************************************
* MULTISECANT MIXING VER9 RELEASE 10.4.0              *
* Standard Mode with controls                        *
* Fixed density scale                                *
* Regularization       1.000E-04                     *
* Trust Upper Limit    5.000E+00                     *
* Max Number of Memory Steps    8                    *
******************************************************
 
:PWTMP   2.3061E+02  1.2500E+02  2.9606E+02
:PLANE:  PW TOTAL      2.6707 DISTAN   1.29E-02  4.84E-01 %
:CHARG:  CLM/ATOM    977.1732 DISTAN   1.57E-01  1.61E-02 %
 
Step History
        DMIX         DMIXT        Red     Pred      Trust     Lambda    MagRel    MagAbs     Beta
  1   3.5000E-02   3.5000E-02 -1.00E+00  1.00E+00 -1.00E+01  1.00E+00  3.50E-02  3.50E-02  1.00E+00
  2   2.5000E-02   2.5000E-02  6.54E-01  1.00E+00 -1.00E+01  1.00E+00  2.50E-02  1.09E-02  1.00E+00
  3   2.9778E-02   2.9778E-02  7.74E-01  1.00E+00 -1.00E+01  2.44E+00  2.98E-02  8.52E-03  1.00E+00
  4   3.5825E-02   3.5825E-02  1.04E+00  5.16E-01  2.98E-01  3.00E+00  2.99E-02  6.64E-03  9.32E-01
  5   8.9562E-02   4.5828E-02 -1.00E+00  7.01E-01  2.65E-01  1.00E+00  2.65E-01  6.10E-02  1.00E+00
:JACOBIANS    1.144E-02   7.147E-01
  
:NORMS:  1/Froebius, Min, Max, Used   0.5862E+00  0.2563E+00  0.8750E+00  0.7372E+00
:INFO :  Number of Memory Steps    4 Skipping    0
:INFO :  SLambda=    1.0356026577  Max    1.0356026577
:PREDicted Charge, CTotal, PW Trust    2.175E-04   2.175E-04   7.908E-03
:PREDicted DMix, Beta, BLim   2.3592E-02  9.4368E-01  6.5225E-01

Eigenvalues, unscaled except for SY+YY
   #     SY Real        SY Imag          SS             YY         SY+YY Real      SY+YY Imag
   1   1.427487E+00   0.000000E+00   1.362411E+00   2.506893E+00   2.484572E+00   0.000000E+00
   2   1.219829E-01   0.000000E+00   1.196918E-02   1.492415E+00   3.119375E+00   0.000000E+00
   3  -1.877719E-15   0.000000E+00   1.439372E-05   6.898224E-04   1.471107E-06   0.000000E+00
   4   9.163344E-05   0.000000E+00  -4.369319E-17   1.550976E-06   7.810797E-04   0.000000E+00
 
:INFO :  Singular value  3.125E+00 Weight  1.000E+00 Projection -9.993E-02
:INFO :  Singular value  2.480E+00 Weight  1.000E+00 Projection -5.242E-02
:INFO :  Singular value  7.823E-04 Weight  9.069E-01 Projection -2.599E+00
:INFO :  Singular value  1.469E-06 Weight  3.432E-05 Projection -2.224E-04
:RANK :  ACTIVE   2.91/4  =  72.67 % ; YY RANK   2.88/4  =  72.08 %
 
:DLIM :  Beta Active  9.578E-01
:BLIM :  VZERO Control Off
:TRUST:  Step 4.67E-01  Charge 6.82E-02 (e) CTO  2.27E-01 (e) PW  3.18E-01 (e)
:DIRM :  MEMORY  4/8  SCALE   1.000 RED  0.69 PRED  0.70 NEXT  0.14 BETA  0.96
:TRAVE:  Charge 1.22E-03 (e) CTO  1.22E-03 (e) PW  3.24E-03 (e)
:DIRP :  |MSR1|= 2.016E-03 |PRATT|= 1.292E-02 ANGLE=  92.1 DEGREES
:DIRQ :  |MSR1|= 7.255E-02 |PRATT|= 1.574E-01 ANGLE=  20.2 DEGREES
:DIRT :  |MSR1|= 7.257E-02 |PRATT|= 1.579E-01 ANGLE=  20.8 DEGREES
:MIX  :   MSE1   REGULARIZATION:  2.51E-04 GREED: 0.04240  Newton 1.00  0.4596                
     
       CHARGES OF MIXED CHARGE DENSITY
:CTO   : INTERSTITIAL CHARGE =     2.965686
:CPC   : PW Pseudocharge     =     7.458139
:CTO001: CHARGE SPHERE  1    =    56.034314

:NEC03: NUCLEAR AND ELECTRONIC CHARGE     59.00000    59.00000

PW CHANGE     H    K    L      Current       Change    Residue
:PTO001:      0    0    0  3.52084650E-02  5.208E-07  1.578E-04
:PTO002:     -1   -1   -1 -1.18995988E-01 -2.976E-05 -4.484E-04
:PTO003:      0    0   -2  7.21134435E-02 -1.521E-05  4.462E-04
:PTO004:      0   -2   -2  6.81372912E-02 -1.011E-04  2.748E-04
:PTO005:     -1   -1   -3 -7.16497069E-02  1.242E-04 -2.835E-04
:PTO006:     -2   -2   -2  1.90781896E-02 -8.657E-06  7.334E-05
:PTO007:      0    0   -4  4.73364187E-03 -6.127E-06  2.040E-06
:PTO008:     -1   -3   -3 -7.16042491E-03  6.102E-05  2.553E-04
:PTO009:      0   -2   -4  3.80267331E-03 -6.677E-05 -2.833E-04
:PTO010:     -2   -2   -4 -3.94458435E-03  1.396E-05 -1.410E-04
:PTO011:     -3   -3   -3  2.18654033E-03 -2.963E-05 -1.444E-05
:PTO012:     -1   -1   -5  6.15638374E-03 -1.413E-05  1.454E-04

:ENE  : ********** TOTAL ENERGY IN Ry =       -18472.07903623

 Flat Integration
 New Mode for Coulomb Integral
 Consistent 3/8+Simpson combinations
 Extension of core to zero
 LDM version in phi
 Fifth-order quadrature in outwin


            ---------
:ITE022: 22. ITERATION
            ---------

:NATO :    1 INDEPENDENT AND    1 TOTAL ATOMS IN UNITCELL
       SUBSTANCE: blebleble                                                   

       LATTICE                      = F   
:POT  : POTENTIAL OPTION EX_LDA EC_LDA VX_LDA VC_LDA
:LAT  : LATTICE CONSTANTS= 10.57986 10.57986 10.57986    1.571    1.571    1.571
:VOL  : UNIT CELL VOLUME =     296.06019
       MODE OF CALCULATION IS       = RELA
       NON-SPINPOLARIZED CALCULATION
:IFFT  : FFT-parameters:   90   90   90 Factor: 2.00


   CONVERGENCE PARAMETER FOR PSEUDOCHARGE: NCON=  9
   MAXIMAL VALUE OF RMT(JATOM)*ABSK(NKK) : RK  =29.98955


:VKCOUL :  VK-COUL convergence: 0.235E-06
       ATOMNUMBER=  1 Pr         VCOUL-ZERO =  0.77740E-01
:FIT001: LUSE= 13 SIGMA OF V-XC FIT FOR ATOM  1  0.4184233E-04
:FIT001: LUSE= 13 SIGMA OF V-XC FIT FOR ATOM  1  0.4184233E-04
:DEN  : DENSITY INTEGRAL  =         -7063.95568308   (Ry)
       ELS_POTENTIAL_AT Z=0 and Z=0.5:  -2.29741  -2.29741
       ELS_POTENTIAL_AT Y=0 and Y=0.5:   0.00000   0.00000
:VZERO:v0,v0c,v0x  -3.21395  -2.29741  -0.91655 v5,v5c,v5x  -3.21395  -2.29741  -0.91655
:VZERY:v0,v0c,v0x  -0.65165   0.00000  -0.65165 v5,v5c,v5x  -0.65165   0.00000  -0.65165
:VZERX:v0,v0c,v0x  -0.65165   0.00000  -0.65165 v5,v5c,v5x  -0.65165   0.00000  -0.65165
:LMAX-WF:   10   Non-Spherical LMAX:   4

          ATOMIC SPHERE DEPENDENT PARAMETERS FOR ATOM  Pr        
:e__0001: OVERALL ENERGY PARAMETER IS    0.2427
          OVERALL BASIS SET ON ATOM IS LAPW
:E0_0001: E( 0)=    0.2427
             APW+lo
:E0_0001: E( 0)=   -2.2467   E(BOTTOM)=   -2.629   E(TOP)=   -1.864  4  5   152
             LOCAL ORBITAL
:E1_0001: E( 1)=    0.6427
             APW+lo
:E1_0001: E( 1)=   -0.8606   E(BOTTOM)=   -1.509   E(TOP)=   -0.212  3  4   161
             LOCAL ORBITAL
:E3_0001: E( 3)=    0.4381   E(BOTTOM)=    0.293   E(TOP)=    0.583  0  1   118
             APW+lo
:E2_0001: E( 2)=    0.2427   E(BOTTOM)=    0.066   E(TOP)= -200.000  2 -1    97
             APW+lo

       K=   0.00000   0.00000   0.00000            1
:RKM  : MATRIX SIZE   201LOs:  20  RKM= 8.40  WEIGHT= 1.00  PGR:    
       EIGENVALUES ARE:
:EIG00001:      -2.2011255   -0.8541554   -0.8541554   -0.8541554    0.1944242
:EIG00006:       0.4455480    0.4573868    0.4573868    0.4573868    0.4746286
:EIG00011:       0.4746286    0.4746286    0.5616214    0.5616214    0.5616214
:EIG00016:       0.6969117    0.6969117    1.0827643    1.2737185    1.2737185
:EIG00021:       1.2737185    1.3787770    1.8987377    1.8987377    1.8987377
:EIG00026:       1.9331204    1.9331204    1.9331204    2.1765058    2.1765058
:EIG00031:       2.4367583    2.6305113    2.6305113    2.6305113    3.0237044
:EIG00036:       3.0237044    3.2452070    3.2452070    3.2452070    3.2705235
:EIG00041:       3.2705235    3.2705235    3.4562817    3.4562817    3.4562817
:EIG00046:       3.5991927    3.6926360    3.6926360    3.6926360    3.7707429
 
:EIG00051:       3.7707429    3.7707429    3.7710992    3.7710992    3.7710992
:EIG00056:       3.7837117    3.7837117    3.8653519    3.9560394    4.0823136
:EIG00061:       4.0823136    4.0823136    4.1210156    4.1210156    4.1210156
:EIG00066:       4.2645774    5.2463494    5.2463494    5.2761748    5.4895271
:EIG00071:       5.4895271    5.4895271    5.8419272    5.8419272    5.9810936
:EIG00076:       5.9810936    5.9810936    6.0755164    6.0755164    6.0755164
:EIG00081:       6.3768544    6.3768544    6.3768544    6.4291908    6.4291908
:EIG00086:       6.4291908    6.4810590    6.4810590    6.5218999    6.5218999
:EIG00091:       6.5218999    6.6186033    6.6186033    6.6186033    6.6225716
:EIG00096:       6.6225716    6.6225716    6.6567822    6.7743503    6.7743503
 
:EIG00101:       6.7916431    6.8724337    6.8724337    6.8724337    6.9053439
:EIG00106:       6.9053439    6.9053439    6.9054079    6.9054079    6.9054079
:EIG00111:       6.9643232    6.9643232    7.1312722    7.1737510    7.4484074
:EIG00116:       7.4484074    7.4484074    7.7245026    7.7245026    7.7245026
       ********************************************************

:KPT   :      NUMBER OF K-POINTS:   165
   0.0   0.0 angle (M,z), angle (M,x) deg
 
        SPIN-ORBIT EIGENVALUES:
     K=   0.00000   0.00000   0.00000            1
      MATRIX SIZE=  240   WEIGHT= 1.00
     EIGENVALUES ARE:
          -2.2011255   -2.2011255   -0.9987767   -0.9987767   -0.7864789
          -0.7864789   -0.7864789   -0.7864789    0.1944242    0.1944242
           0.4395914    0.4395914    0.4456756    0.4456756    0.4456756
           0.4456756    0.4690409    0.4690409    0.4763940    0.4763940
           0.4825145    0.4825145    0.4825145    0.4825145    0.5579863
           0.5579863    0.5579863    0.5579863    0.5676358    0.5676358
           0.6973329    0.6973329    0.6973329    0.6973329    1.0828126
           1.0828126    1.2680364    1.2680364    1.2762621    1.2762621

           1.2762621    1.2762621    1.3787770    1.3787770    1.8699907
           1.8699907    1.8940901    1.8940901    1.8940901    1.8940901
           1.9075543    1.9075543    1.9656896    1.9656896    1.9656896
           1.9656896    2.1767839    2.1767839    2.1767839    2.1767839
           2.4367583    2.4367583    2.6300775    2.6300775    2.6307425
           2.6307425    2.6307425    2.6307425    3.0236843    3.0236843
           3.0236843    3.0236843    3.2439633    3.2439633    3.2439633
           3.2439633    3.2444235    3.2444235    3.2479145    3.2479145

           3.2846916    3.2846916    3.2846916    3.2846916    3.4562757
           3.4562757    3.4562847    3.4562847    3.4562847    3.4562847
           3.5991927    3.5991927    3.6926016    3.6926016    3.6926016
           3.6926016    3.6927086    3.6927086    3.7700319    3.7700319
           3.7700319    3.7700319    3.7709550    3.7709550    3.7714873
           3.7714873    3.7715170    3.7715170    3.7715170    3.7715170
           3.7837117    3.7837117    3.7837117    3.7837117    3.8653611
           3.8653611    3.9560394    3.9560394    4.0822572    4.0822572

           4.0822572    4.0822572    4.0824297    4.0824297    4.1202063
           4.1202063    4.1214629    4.1214629    4.1214629    4.1214629
           4.2645805    4.2645805
       ********************************************************
:GAP (global)   :    0.0    Ry =     0.0   eV (metal)
:GAP (this spin):    0.0    Ry =     0.0   eV (metal)
         Bandranges (emin - emax) and occupancy:
:BAN00004:   4   -1.018868   -0.998777  1.00000000
:BAN00005:   5   -0.824523   -0.786479  1.00000000
:BAN00006:   6   -0.824523   -0.786479  1.00000000
:BAN00007:   7   -0.810475   -0.786479  1.00000000
:BAN00008:   8   -0.810475   -0.786479  1.00000000
:BAN00009:   9    0.194424    0.423309  1.00000000
:BAN00010:  10    0.194424    0.423309  1.00000000
:BAN00011:  11    0.394223    0.442662  1.00000000
:BAN00012:  12    0.394223    0.442662  1.00000000
:BAN00013:  13    0.437247    0.446928  0.50000006
:BAN00014:  14    0.437247    0.446928  0.49999994
:BAN00015:  15    0.445628    0.449349  0.00000000
:BAN00016:  16    0.445628    0.449349  0.00000000
:BAN00017:  17    0.447322    0.470947  0.00000000
:BAN00018:  18    0.447322    0.470947  0.00000000
:BAN00019:  19    0.465477    0.476394  0.00000000
        Energy to separate low and high energystates:    0.14442


:NOE  : NUMBER OF ELECTRONS          =   13.000

:FER  : F E R M I - ENERGY(TETRAH.M.)=   0.4436347051
:GMA  : POTENTIAL AND CHARGE CUT-OFF  12.00 Ry**.5

:POS001: ATOM    1 X,Y,Z = 0.00000 0.00000 0.50000  MULT= 1  ZZ= 59.000  Pr        

       LMMAX  5
       LM=   0 0  4 0  4 4  6 0  6 4

:CHA001: TOTAL VALENCE CHARGE INSIDE SPHERE   1 =  10.0047    (RMT=  2.5000 )
:PCS001: PARTIAL CHARGES SPHERE =  1 S,P,D,F,      D-EG,D-T2G 
:QTL001: 2.0202 5.3572 0.5118 2.1154 0.0000 0.0000 0.0000 0.1839 0.3279 0.0000 0.0000 0.0000
        Q-s-low E-s-low   Q-p-low E-p-low   Q-d-low E-d-low   Q-f-low E-f-low
:EPL001:  1.9257 -2.1964    5.2973 -0.8786    0.0004 -0.8550    0.0001 -0.8630
        Q-s-hi  E-s-hi    Q-p-hi  E-p-hi    Q-d-hi  E-d-hi    Q-f-hi  E-f-hi 
:EPH001:  0.0945  0.3389    0.0598  0.3789    0.5114  0.4021    2.1153  0.4359

:CHA  : TOTAL VALENCE CHARGE INSIDE UNIT CELL =      13.000000

:SUM  : SUM OF EIGENVALUES =          -7.628740463


        1.ATOM      Pr                   14 CORE STATES
:1S 001: 1S               -3067.155756058 Ry
:2S 001: 2S                -492.902985098 Ry
:2PP001: 2P*               -466.003529283 Ry
:2P 001: 2P                -430.605520087 Ry
:3S 001: 3S                -105.980841008 Ry
:3PP001: 3P*                -94.519283263 Ry
:3P 001: 3P                 -87.510959946 Ry
:3DD001: 3D*                -67.439600872 Ry
:3D 001: 3D                 -65.927835190 Ry
:4S 001: 4S                 -20.660445785 Ry
:4PP001: 4P*                -16.368045107 Ry
:4P 001: 4P                 -14.841663905 Ry
:4DD001: 4D*                 -7.776901172 Ry
:4D 001: 4D                  -7.507877462 Ry
:CINT001 Core Integral Atom   1   45.999509

       DENSITY AT NUCLEUS
        JATOM        VALENCE       SEMI-CORE          CORE           TOTAL
:RTO001:   1      645.527172        0.000000   656824.995959   657470.523130
     
       CHARGES OF NEW CHARGE DENSITY
:NTO   : INTERSTITIAL CHARGE =     2.995299
:NPC   : PW Pseudocharge     =     7.496347
:NTO001: CHARGE SPHERE  1    =    56.004210

:NEC01: NUCLEAR AND ELECTRONIC CHARGE     59.00000    58.99951
     
       CHARGES OF OLD CHARGE DENSITY
:OTO   : INTERSTITIAL CHARGE =     2.965686
:OPC   : PW Pseudocharge     =     7.458139
:OTO001: CHARGE SPHERE  1    =    56.034314

:NEC02: NUCLEAR AND ELECTRONIC CHARGE     59.00000    59.00000
     
       CONVERGENCE TEST
:DTO001: DIFFERENCE IN SPHERE  1 =  0.0397142

:DIS  :  CHARGE DISTANCE       ( 0.0397142 for atom    1 spin 1)      0.0397142
 PW Mixed is           60
 
******************************************************
* MULTISECANT MIXING VER9 RELEASE 10.4.0              *
* Standard Mode with controls                        *
* Fixed density scale                                *
* Regularization       1.000E-04                     *
* Trust Upper Limit    5.000E+00                     *
* Max Number of Memory Steps    8                    *
******************************************************
 
:PWTMP   2.3061E+02  1.2500E+02  2.9606E+02
:PLANE:  PW TOTAL      2.6703 DISTAN   1.46E-02  5.48E-01 %
:CHARG:  CLM/ATOM    977.1696 DISTAN   9.79E-02  1.00E-02 %
 
Step History
        DMIX         DMIXT        Red     Pred      Trust     Lambda    MagRel    MagAbs     Beta
  1   3.5000E-02   3.5000E-02 -1.00E+00  1.00E+00 -1.00E+01  1.00E+00  3.50E-02  3.50E-02  1.00E+00
  2   2.5000E-02   2.5000E-02  6.54E-01  1.00E+00 -1.00E+01  1.00E+00  2.50E-02  1.09E-02  1.00E+00
  3   2.9778E-02   2.9778E-02  7.74E-01  1.00E+00 -1.00E+01  2.44E+00  2.98E-02  8.52E-03  1.00E+00
  4   3.5825E-02   3.5825E-02  1.04E+00  5.16E-01  2.98E-01  3.00E+00  2.99E-02  6.64E-03  9.32E-01
  5   8.9562E-02   4.5828E-02  6.85E-01  7.01E-01  2.65E-01  1.04E+00  2.65E-01  6.10E-02  1.00E+00
  6   4.2401E-02   4.2401E-02 -1.00E+00  1.45E-01  4.67E-01  1.00E+00  4.60E-01  7.26E-02  9.58E-01
:JACOBIANS    1.371E-02   1.214E+00
  
:NORMS:  1/Froebius, Min, Max, Used   0.7745E+00  0.2756E+00  0.9536E+00  0.8943E+00
:INFO :  Number of Memory Steps    5 Skipping    0
:INFO :  SLambda=    0.9499328141  Max    0.9499328141
:PREDicted Charge, CTotal, PW Trust    3.047E-03   3.047E-03   2.083E-04
:PREDicted DMix, Beta, BLim   1.7202E-01  2.1034E+00  9.5726E-01

Eigenvalues, unscaled except for SY+YY
   #     SY Real        SY Imag          SS             YY         SY+YY Real      SY+YY Imag
   1   3.155514E+00   0.000000E+00   2.990103E+00   3.739047E+00   6.642640E+00   0.000000E+00
   2   7.172377E-02   0.000000E+00   7.581952E-03   1.257571E+00   1.419569E+00   0.000000E+00
   3   2.333171E-03   0.000000E+00   1.891582E-03   3.325794E-03   5.622189E-03   0.000000E+00
   4   7.004163E-16   0.000000E+00   3.792560E-08   5.581828E-05   4.476999E-05   0.000000E+00
   5   9.361293E-07   0.000000E+00  -7.520416E-17   6.088538E-07   6.170861E-07   0.000000E+00
 
:INFO :  Singular value  6.644E+00 Weight  1.000E+00 Projection -3.180E-02
[...]
 
Step History
        DMIX         DMIXT        Red     Pred      Trust     Lambda    MagRel    MagAbs     Beta
  2   2.5000E-02   2.5000E-02  6.54E-01  1.00E+00 -1.00E+01  1.00E+00  2.50E-02  1.09E-02  1.00E+00
  3   2.9778E-02   2.9778E-02  7.74E-01  1.00E+00 -1.00E+01  2.44E+00  2.98E-02  8.52E-03  1.00E+00
  4   3.5825E-02   3.5825E-02  1.04E+00  5.16E-01  2.98E-01  3.00E+00  2.99E-02  6.64E-03  9.32E-01
  5   8.9562E-02   4.5828E-02  6.85E-01  7.01E-01  2.65E-01  1.04E+00  2.65E-01  6.10E-02  1.00E+00
  6   4.2401E-02   4.2401E-02  6.27E-01  1.45E-01  4.67E-01  9.50E-01  4.60E-01  7.26E-02  9.58E-01
  7   1.0600E-01   9.8174E-02  2.70E-01  3.51E-01  6.66E-01  1.01E+00  6.66E-01  6.59E-02  1.00E+00
  8   4.2401E-02   4.2401E-02  7.03E-01  7.41E-01  8.88E-01  4.58E-01  6.24E-01  1.67E-02  1.00E+00
  9   1.0600E-01   1.0600E-01  2.65E-01  2.55E-01  1.18E+00  1.00E+00  8.21E-01  1.54E-02  1.00E+00
 10   1.0176E-01   1.0176E-01 -1.00E+00  7.09E-01  1.58E+00  1.00E+00  6.05E-01  3.01E-03  1.00E+00
:JACOBIANS    4.496E-01   2.316E+00
  
:NORMS:  1/Froebius, Min, Max, Used   0.8946E+00  0.4330E+00  0.1018E+01  0.9694E+00
:INFO :  Number of Memory Steps    8 Skipping    1
:INFO :  SLambda=    1.0893602805  Max    1.0893602805
:PREDicted Charge, CTotal, PW Trust    3.295E-04   3.295E-04   3.733E-03
:PREDicted DMix, Beta, BLim   6.6090E-01  1.4050E+00  1.4232E+00

Eigenvalues, unscaled except for SY+YY
   #     SY Real        SY Imag          SS             YY         SY+YY Real      SY+YY Imag
   1   5.170850E+00   0.000000E+00   5.067089E+00   5.392450E+00   1.101718E+01   0.000000E+00
   2   1.335553E+00   0.000000E+00   1.192069E+00   1.720676E+00   3.154812E+00   0.000000E+00
   3   1.863944E-01   0.000000E+00   1.389241E-01   6.802873E-01   8.109663E-01   0.000000E+00
   4   2.650734E-02   0.000000E+00   3.613493E-03   1.993153E-01   3.288368E-01   0.000000E+00
   5   4.313624E-03   0.000000E+00   1.048631E-03   7.265242E-03   1.263959E-02   0.000000E+00
   6   3.797035E-07   0.000000E+00   3.217941E-08   4.805868E-06   4.778266E-06   0.000000E+00
   7   7.190612E-11   0.000000E+00   6.679510E-09   1.155953E-06   1.293357E-06   0.000000E+00
   8   9.759013E-08   0.000000E+00   9.210821E-11   3.812390E-09   4.157203E-09   0.000000E+00
 
:INFO :  Singular value  1.102E+01 Weight  1.000E+00 Projection -3.195E-05
:INFO :  Singular value  3.155E+00 Weight  1.000E+00 Projection  2.032E-04
:INFO :  Singular value  8.110E-01 Weight  1.000E+00 Projection  8.873E-04
:INFO :  Singular value  3.288E-01 Weight  1.000E+00 Projection -2.460E-03
:INFO :  Singular value  1.264E-02 Weight  9.982E-01 Projection  3.405E-02
:INFO :  Singular value  4.778E-06 Weight  7.851E-05 Projection -7.746E-06
:INFO :  Singular value  1.293E-06 Weight  5.753E-06 Projection  3.008E-07
:INFO :  Singular value  4.157E-09 Weight  5.943E-11 Projection  8.459E-11
:RANK :  ACTIVE   5.00/8  =  62.48 % ; YY RANK   4.99/8  =  62.43 %
 
:BLIM :  VZERO Control Off
:TRUST:  Step 2.10E+00  Charge 2.79E-02 (e) CTO  9.31E-02 (e) PW  1.30E-01 (e)
:DIRM :  MEMORY  8/8  SCALE   1.000 RED  0.64 PRED  0.71 NEXT  0.08 
:TRAVE:  Charge 4.29E-04 (e) CTO  4.29E-04 (e) PW  2.92E-03 (e)
:DIRP :  |MSR1|= 1.883E-03 |PRATT|= 1.956E-03 ANGLE=   2.2 DEGREES
:DIRQ :  |MSR1|= 1.391E-03 |PRATT|= 2.537E-03 ANGLE=  20.3 DEGREES
:DIRT :  |MSR1|= 2.341E-03 |PRATT|= 3.203E-03 ANGLE=  21.2 DEGREES
:MIX  :   MSE1   REGULARIZATION:  5.39E-04 GREED: 0.25441  Newton 1.00  0.7308                
     
       CHARGES OF MIXED CHARGE DENSITY
:CTO   : INTERSTITIAL CHARGE =     2.970454
:CPC   : PW Pseudocharge     =     7.492771
:CTO001: CHARGE SPHERE  1    =    56.029546

:NEC03: NUCLEAR AND ELECTRONIC CHARGE     59.00000    59.00000

PW CHANGE     H    K    L      Current       Change    Residue
:PTO001:      0    0    0  3.53415453E-02  1.701E-05  1.880E-05
:PTO002:     -1   -1   -1 -1.19460414E-01 -8.836E-05 -9.112E-05
:PTO003:      0    0   -2  7.25860395E-02  5.583E-05  5.553E-05
:PTO004:      0   -2   -2  6.85251684E-02  5.690E-05  6.050E-05
:PTO005:     -1   -1   -3 -7.20812121E-02 -5.353E-05 -5.580E-05
:PTO006:     -2   -2   -2  1.91651822E-02  1.177E-05  1.283E-05
:PTO007:      0    0   -4  4.74993441E-03 -1.064E-06 -2.078E-06
:PTO008:     -1   -3   -3 -6.96361352E-03  1.225E-05  1.148E-05
:PTO009:      0   -2   -4  3.59483457E-03 -1.605E-05 -1.732E-05
:PTO010:     -2   -2   -4 -4.10126889E-03 -1.810E-05 -1.872E-05
:PTO011:     -3   -3   -3  2.20509618E-03  5.280E-06  5.332E-06
:PTO012:     -1   -1   -5  6.30329446E-03  1.922E-05  2.239E-05

:ENE  : ********** TOTAL ENERGY IN Ry =       -18472.07901049

 Flat Integration
 New Mode for Coulomb Integral
 Consistent 3/8+Simpson combinations
 Extension of core to zero
 LDM version in phi
 Fifth-order quadrature in outwin


            ---------
:ITE027: 27. ITERATION
            ---------

:NATO :    1 INDEPENDENT AND    1 TOTAL ATOMS IN UNITCELL
       SUBSTANCE: blebleble                                                   

       LATTICE                      = F   
:POT  : POTENTIAL OPTION EX_LDA EC_LDA VX_LDA VC_LDA
:LAT  : LATTICE CONSTANTS= 10.57986 10.57986 10.57986    1.571    1.571    1.571
:VOL  : UNIT CELL VOLUME =     296.06019
       MODE OF CALCULATION IS       = RELA
       NON-SPINPOLARIZED CALCULATION
:IFFT  : FFT-parameters:   90   90   90 Factor: 2.00


   CONVERGENCE PARAMETER FOR PSEUDOCHARGE: NCON=  9
   MAXIMAL VALUE OF RMT(JATOM)*ABSK(NKK) : RK  =29.98955


:VKCOUL :  VK-COUL convergence: 0.207E-06
       ATOMNUMBER=  1 Pr         VCOUL-ZERO =  0.77600E-01
:FIT001: LUSE= 13 SIGMA OF V-XC FIT FOR ATOM  1  0.3495646E-04
:FIT001: LUSE= 13 SIGMA OF V-XC FIT FOR ATOM  1  0.3495646E-04
:DEN  : DENSITY INTEGRAL  =         -7064.00377445   (Ry)
       ELS_POTENTIAL_AT Z=0 and Z=0.5:  -2.30263  -2.30263
       ELS_POTENTIAL_AT Y=0 and Y=0.5:   0.00000   0.00000
:VZERO:v0,v0c,v0x  -3.22195  -2.30263  -0.91932 v5,v5c,v5x  -3.22195  -2.30263  -0.91932
:VZERY:v0,v0c,v0x  -0.65229   0.00000  -0.65229 v5,v5c,v5x  -0.65229   0.00000  -0.65229
:VZERX:v0,v0c,v0x  -0.65229   0.00000  -0.65229 v5,v5c,v5x  -0.65229   0.00000  -0.65229
:LMAX-WF:   10   Non-Spherical LMAX:   4

          ATOMIC SPHERE DEPENDENT PARAMETERS FOR ATOM  Pr        
:e__0001: OVERALL ENERGY PARAMETER IS    0.2428
          OVERALL BASIS SET ON ATOM IS LAPW
:E0_0001: E( 0)=    0.2428
             APW+lo
:E0_0001: E( 0)=   -2.2475   E(BOTTOM)=   -2.630   E(TOP)=   -1.865  4  5   149
             LOCAL ORBITAL
:E1_0001: E( 1)=    0.6428
             APW+lo
:E1_0001: E( 1)=   -0.8613   E(BOTTOM)=   -1.509   E(TOP)=   -0.213  3  4   163
             LOCAL ORBITAL
:E3_0001: E( 3)=    0.4373   E(BOTTOM)=    0.292   E(TOP)=    0.582  0  1   119
             APW+lo
:E2_0001: E( 2)=    0.2428   E(BOTTOM)=    0.065   E(TOP)= -200.000  2 -1    95
             APW+lo

       K=   0.00000   0.00000   0.00000            1
:RKM  : MATRIX SIZE   201LOs:  20  RKM= 8.40  WEIGHT= 1.00  PGR:    
       EIGENVALUES ARE:
:EIG00001:      -2.2019100   -0.8547359   -0.8547359   -0.8547359    0.1953181
:EIG00006:       0.4450409    0.4564892    0.4564892    0.4564892    0.4738848
:EIG00011:       0.4738848    0.4738848    0.5618904    0.5618904    0.5618904
:EIG00016:       0.6970674    0.6970674    1.0833848    1.2747747    1.2747747
:EIG00021:       1.2747747    1.3802380    1.8990732    1.8990732    1.8990732
:EIG00026:       1.9336118    1.9336118    1.9336118    2.1769294    2.1769294
:EIG00031:       2.4373090    2.6312564    2.6312564    2.6312564    3.0245570
:EIG00036:       3.0245570    3.2458441    3.2458441    3.2458441    3.2715140
:EIG00041:       3.2715140    3.2715140    3.4569529    3.4569529    3.4569529
:EIG00046:       3.6001887    3.6934489    3.6934489    3.6934489    3.7716762
 
:EIG00051:       3.7716762    3.7716762    3.7719702    3.7719702    3.7719702
:EIG00056:       3.7845184    3.7845184    3.8659983    3.9567780    4.0834004
:EIG00061:       4.0834004    4.0834004    4.1220921    4.1220921    4.1220921
:EIG00066:       4.2656097    5.2472628    5.2472628    5.2769999    5.4903820
:EIG00071:       5.4903820    5.4903820    5.8421187    5.8421187    5.9814465
:EIG00076:       5.9814465    5.9814465    6.0759423    6.0759423    6.0759423
:EIG00081:       6.3774811    6.3774811    6.3774811    6.4298201    6.4298201
:EIG00086:       6.4298201    6.4818206    6.4818206    6.5226875    6.5226875
:EIG00091:       6.5226875    6.6194132    6.6194132    6.6194132    6.6233616
:EIG00096:       6.6233616    6.6233616    6.6578333    6.7751783    6.7751783
 
:EIG00101:       6.7924882    6.8734778    6.8734778    6.8734778    6.9065350
:EIG00106:       6.9065350    6.9065350    6.9065471    6.9065471    6.9065471
:EIG00111:       6.9654853    6.9654853    7.1322540    7.1743743    7.4494522
:EIG00116:       7.4494522    7.4494522    7.7253112    7.7253112    7.7253112
       ********************************************************

:KPT   :      NUMBER OF K-POINTS:   165
   0.0   0.0 angle (M,z), angle (M,x) deg
 
        SPIN-ORBIT EIGENVALUES:
     K=   0.00000   0.00000   0.00000            1
      MATRIX SIZE=  240   WEIGHT= 1.00
     EIGENVALUES ARE:
          -2.2019100   -2.2019100   -0.9994065   -0.9994065   -0.7870348
          -0.7870348   -0.7870348   -0.7870348    0.1953181    0.1953181
           0.4390447    0.4390447    0.4448001    0.4448001    0.4448001
           0.4448001    0.4681470    0.4681470    0.4756905    0.4756905
           0.4817468    0.4817468    0.4817468    0.4817468    0.5582489
           0.5582489    0.5582489    0.5582489    0.5679137    0.5679137
           0.6974904    0.6974904    0.6974904    0.6974904    1.0834328
           1.0834328    1.2690872    1.2690872    1.2773203    1.2773203

           1.2773203    1.2773203    1.3802380    1.3802380    1.8704791
           1.8704791    1.8944260    1.8944260    1.8944260    1.8944260
           1.9078894    1.9078894    1.9661835    1.9661835    1.9661835
           1.9661835    2.1772075    2.1772075    2.1772075    2.1772075
           2.4373090    2.4373090    2.6308228    2.6308228    2.6314874
           2.6314874    2.6314874    2.6314874    3.0245369    3.0245369
           3.0245369    3.0245369    3.2446016    3.2446016    3.2446016
           3.2446016    3.2454184    3.2454184    3.2485490    3.2485490

           3.2856794    3.2856794    3.2856794    3.2856794    3.4569469
           3.4569469    3.4569559    3.4569559    3.4569559    3.4569559
           3.6001887    3.6001887    3.6934144    3.6934144    3.6934144
           3.6934144    3.6935220    3.6935220    3.7709507    3.7709507
           3.7709507    3.7709507    3.7718261    3.7718261    3.7724025
           3.7724025    3.7724025    3.7724025    3.7724204    3.7724204
           3.7845184    3.7845184    3.7845184    3.7845184    3.8660074
           3.8660074    3.9567780    3.9567780    4.0833442    4.0833442

           4.0833442    4.0833442    4.0835164    4.0835164    4.1212861
           4.1212861    4.1225375    4.1225375    4.1225375    4.1225375
           4.2656129    4.2656129
       ********************************************************
:GAP (global)   :    0.0    Ry =     0.0   eV (metal)
:GAP (this spin):    0.0    Ry =     0.0   eV (metal)
         Bandranges (emin - emax) and occupancy:
:BAN00004:   4   -1.019453   -0.999406  1.00000000
:BAN00005:   5   -0.824999   -0.787035  1.00000000
:BAN00006:   6   -0.824999   -0.787035  1.00000000
:BAN00007:   7   -0.810979   -0.787035  1.00000000
:BAN00008:   8   -0.810979   -0.787035  1.00000000
:BAN00009:   9    0.195318    0.423446  1.00000000
:BAN00010:  10    0.195318    0.423446  1.00000000
:BAN00011:  11    0.394645    0.442359  1.00000000
:BAN00012:  12    0.394645    0.442359  1.00000000
:BAN00013:  13    0.436690    0.446104  0.50000007
:BAN00014:  14    0.436690    0.446104  0.49999993
:BAN00015:  15    0.444775    0.448841  0.00000000
:BAN00016:  16    0.444775    0.448841  0.00000000
:BAN00017:  17    0.446621    0.470352  0.00000000
:BAN00018:  18    0.446621    0.470352  0.00000000
:BAN00019:  19    0.464946    0.475691  0.00000000
        Energy to separate low and high energystates:    0.14532


:NOE  : NUMBER OF ELECTRONS          =   13.000

:FER  : F E R M I - ENERGY(TETRAH.M.)=   0.4429572863
:GMA  : POTENTIAL AND CHARGE CUT-OFF  12.00 Ry**.5

:POS001: ATOM    1 X,Y,Z = 0.00000 0.00000 0.50000  MULT= 1  ZZ= 59.000  Pr        

       LMMAX  5
       LM=   0 0  4 0  4 4  6 0  6 4

:CHA001: TOTAL VALENCE CHARGE INSIDE SPHERE   1 =  10.0300    (RMT=  2.5000 )
:PCS001: PARTIAL CHARGES SPHERE =  1 S,P,D,F,      D-EG,D-T2G 
:QTL001: 2.0200 5.3568 0.5040 2.1490 0.0000 0.0000 0.0000 0.1812 0.3229 0.0000 0.0000 0.0000
        Q-s-low E-s-low   Q-p-low E-p-low   Q-d-low E-d-low   Q-f-low E-f-low
:EPL001:  1.9258 -2.1972    5.2983 -0.8791    0.0004 -0.8556    0.0001 -0.8636
        Q-s-hi  E-s-hi    Q-p-hi  E-p-hi    Q-d-hi  E-d-hi    Q-f-hi  E-f-hi 
:EPH001:  0.0943  0.3394    0.0586  0.3784    0.5037  0.4019    2.1489  0.4353

:CHA  : TOTAL VALENCE CHARGE INSIDE UNIT CELL =      13.000000

:SUM  : SUM OF EIGENVALUES =          -7.633391307


        1.ATOM      Pr                   14 CORE STATES
:1S 001: 1S               -3067.151346860 Ry
:2S 001: 2S                -492.899680733 Ry
:2PP001: 2P*               -465.999990526 Ry
:2P 001: 2P                -430.602068889 Ry
:3S 001: 3S                -105.979420890 Ry
:3PP001: 3P*                -94.517756504 Ry
:3P 001: 3P                 -87.509542328 Ry
:3DD001: 3D*                -67.437911823 Ry
:3D 001: 3D                 -65.926183425 Ry
:4S 001: 4S                 -20.660973600 Ry
:4PP001: 4P*                -16.368600628 Ry
:4P 001: 4P                 -14.842295074 Ry
:4DD001: 4D*                 -7.777595552 Ry
:4D 001: 4D                  -7.508591934 Ry
:CINT001 Core Integral Atom   1   45.999509

       DENSITY AT NUCLEUS
        JATOM        VALENCE       SEMI-CORE          CORE           TOTAL
:RTO001:   1      645.557314        0.000000   656824.448411   657470.005724
     
       CHARGES OF NEW CHARGE DENSITY
:NTO   : INTERSTITIAL CHARGE =     2.969956
:NPC   : PW Pseudocharge     =     7.491559
:NTO001: CHARGE SPHERE  1    =    56.029552

:NEC01: NUCLEAR AND ELECTRONIC CHARGE     59.00000    58.99951
     
       CHARGES OF OLD CHARGE DENSITY
:OTO   : INTERSTITIAL CHARGE =     2.970454
:OPC   : PW Pseudocharge     =     7.492771
:OTO001: CHARGE SPHERE  1    =    56.029546

:NEC02: NUCLEAR AND ELECTRONIC CHARGE     59.00000    59.00000
     
       CONVERGENCE TEST
:DTO001: DIFFERENCE IN SPHERE  1 =  0.0000988

:DIS  :  CHARGE DISTANCE       ( 0.0000988 for atom    1 spin 1)      0.0000988
 PW Mixed is           60
 
******************************************************
* MULTISECANT MIXING VER9 RELEASE 10.4.0              *
* Standard Mode with controls                        *
* Fixed density scale                                *
* Regularization       1.000E-04                     *
* Trust Upper Limit    5.000E+00                     *
* Max Number of Memory Steps    8                    *
******************************************************
 
:PWTMP   2.3061E+02  1.2500E+02  2.9606E+02
:PLANE:  PW TOTAL      2.6826 DISTAN   5.91E-05  2.20E-03 %
:CHARG:  CLM/ATOM    977.1730 DISTAN   1.97E-04  2.02E-05 %
 
Step History
        DMIX         DMIXT        Red     Pred      Trust     Lambda    MagRel    MagAbs     Beta
  3   2.9778E-02   2.9778E-02  7.74E-01  1.00E+00 -1.00E+01  2.44E+00  2.98E-02  8.52E-03  1.00E+00
  4   3.5825E-02   3.5825E-02  1.04E+00  5.16E-01  2.98E-01  3.00E+00  2.99E-02  6.64E-03  9.32E-01
  5   8.9562E-02   4.5828E-02  6.85E-01  7.01E-01  2.65E-01  1.04E+00  2.65E-01  6.10E-02  1.00E+00
  6   4.2401E-02   4.2401E-02  6.27E-01  1.45E-01  4.67E-01  9.50E-01  4.60E-01  7.26E-02  9.58E-01
  7   1.0600E-01   9.8174E-02  2.70E-01  3.51E-01  6.66E-01  1.01E+00  6.66E-01  6.59E-02  1.00E+00
  8   4.2401E-02   4.2401E-02  7.03E-01  7.41E-01  8.88E-01  4.58E-01  6.24E-01  1.67E-02  1.00E+00
  9   1.0600E-01   1.0600E-01  2.65E-01  2.55E-01  1.18E+00  1.00E+00  8.21E-01  1.54E-02  1.00E+00
 10   1.0176E-01   1.0176E-01  6.43E-01  7.09E-01  1.58E+00  1.09E+00  6.05E-01  3.01E-03  1.00E+00
 11   2.5441E-01   2.5441E-01 -1.00E+00  8.44E-02  2.10E+00  1.00E+00  7.31E-01  2.34E-03  1.00E+00
:JACOBIANS    5.805E-01   2.452E+00
  
:NORMS:  1/Froebius, Min, Max, Used   0.9128E+00  0.5326E+00  0.1018E+01  0.9650E+00
:INFO :  Number of Memory Steps    8 Skipping    2
:INFO :  SLambda=    1.1358544801  Max    1.1358544801
:PREDicted Charge, CTotal, PW Trust    1.834E-04   1.834E-04   2.144E-03
:PREDicted DMix, Beta, BLim   3.8332E-03  1.0027E+00  3.6860E+00

Eigenvalues, unscaled except for SY+YY
   #     SY Real        SY Imag          SS             YY         SY+YY Real      SY+YY Imag
   1   4.418291E+00   0.000000E+00   4.363327E+00   4.685376E+00   9.697032E+00   0.000000E+00
   2   1.844292E+00   0.000000E+00   1.794270E+00   1.936960E+00   4.029018E+00   0.000000E+00
   3   6.256677E-01   0.000000E+00   4.457726E-01   1.082780E+00   1.784466E+00   0.000000E+00
   4   1.106152E-01   0.000000E+00   6.164927E-02   1.961548E-01   3.303792E-01   0.000000E+00
   5   5.376101E-03   0.000000E+00   3.003284E-04   9.872292E-02   1.148988E-01   0.000000E+00
   6   3.399166E-06   0.000000E+00   2.458509E-06   5.856398E-06   9.609039E-06   0.000000E+00
   7   7.515618E-08   0.000000E+00   6.018186E-09   7.926705E-07   9.004264E-07   0.000000E+00
   8   3.757016E-11   0.000000E+00   9.246624E-11   8.934311E-09   1.083188E-08   0.000000E+00
 
:INFO :  Singular value  9.697E+00 Weight  1.000E+00 Projection -1.963E-05
:INFO :  Singular value  4.029E+00 Weight  1.000E+00 Projection -1.921E-05
:INFO :  Singular value  1.785E+00 Weight  1.000E+00 Projection -2.955E-05
:INFO :  Singular value  3.304E-01 Weight  1.000E+00 Projection -1.045E-04
:INFO :  Singular value  1.149E-01 Weight  1.000E+00 Projection -6.965E-05
:INFO :  Singular value  9.802E-06 Weight  4.375E-04 Projection -3.387E-05
:INFO :  Singular value  8.828E-07 Weight  3.550E-06 Projection -7.672E-08
:INFO :  Singular value  1.083E-08 Weight  5.344E-10 Projection -2.955E-10
:RANK :  ACTIVE   5.00/8  =  62.51 % ; YY RANK   5.00/8  =  62.50 %
 
:BLIM :  VZERO Control Off
:TRUST:  Step 7.49E+00  Charge 2.23E-02 (e) CTO  7.45E-02 (e) PW  1.04E-01 (e)
:DIRM :  MEMORY  8/8  SCALE   1.000 RED  0.06 PRED  0.08 NEXT  0.93 
:TRAVE:  Charge 2.15E-04 (e) CTO  2.15E-04 (e) PW  1.47E-03 (e)
:DIRP :  |MSR1|= 1.681E-05 |PRATT|= 5.910E-05 ANGLE=  41.5 DEGREES
:DIRQ :  |MSR1|= 5.458E-05 |PRATT|= 1.969E-04 ANGLE=  47.9 DEGREES
:DIRT :  |MSR1|= 5.711E-05 |PRATT|= 2.056E-04 ANGLE=  47.4 DEGREES
:MIX  :   MSE1   REGULARIZATION:  4.69E-04 GREED: 0.10176  Newton 1.00  0.2778                
     
       CHARGES OF MIXED CHARGE DENSITY
:CTO   : INTERSTITIAL CHARGE =     2.970452
:CPC   : PW Pseudocharge     =     7.492811
:CTO001: CHARGE SPHERE  1    =    56.029548

:NEC03: NUCLEAR AND ELECTRONIC CHARGE     59.00000    59.00000

PW CHANGE     H    K    L      Current       Change    Residue
:PTO001:      0    0    0  3.53416754E-02  1.302E-07  7.490E-08
:PTO002:     -1   -1   -1 -1.19461137E-01 -7.234E-07 -1.171E-06
:PTO003:      0    0   -2  7.25864458E-02  4.064E-07  1.220E-08
:PTO004:      0   -2   -2  6.85258343E-02  6.659E-07  3.065E-06
:PTO005:     -1   -1   -3 -7.20819101E-02 -6.979E-07 -3.501E-06
:PTO006:     -2   -2   -2  1.91652778E-02  9.563E-08  4.838E-07
:PTO007:      0    0   -4  4.74993004E-03 -4.366E-09 -1.196E-07
:PTO008:     -1   -3   -3 -6.96350300E-03  1.105E-07  1.922E-07
:PTO009:      0   -2   -4  3.59470457E-03 -1.300E-07 -6.212E-07
:PTO010:     -2   -2   -4 -4.10150103E-03 -2.321E-07 -9.683E-07
:PTO011:     -3   -3   -3  2.20519025E-03  9.407E-08  3.836E-07
:PTO012:     -1   -1   -5  6.30356023E-03  2.658E-07  1.789E-06

:ENE  : ********** TOTAL ENERGY IN Ry =       -18472.07901206

