
------- case.scf0 --------
 Flat Integration
 New Mode for Coulomb Integral
 Consistent 3/8+Simpson combinations
 Extension of core to zero
 LDM version in phi
 Fifth-order quadrature in outwin


            ---------
:ITE061: 61. ITERATION
            ---------

:NATO :    1 INDEPENDENT AND    2 TOTAL ATOMS IN UNITCELL
       SUBSTANCE: aU                                                          

       LATTICE                      = CXY 
:POT  : POTENTIAL OPTION EX_LDA EC_LDA VX_LDA VC_LDA
:LAT  : LATTICE CONSTANTS=  6.56123 13.31438 11.49459    1.571    1.571    1.571
:VOL  : UNIT CELL VOLUME =     502.07598
       MODE OF CALCULATION IS       = RELA
       NON-SPINPOLARIZED CALCULATION
:IFFT  : FFT-parameters:   54  108   90 Factor: 2.00


   CONVERGENCE PARAMETER FOR PSEUDOCHARGE: NCON=  9
   MAXIMAL VALUE OF RMT(JATOM)*ABSK(NKK) : RK  =27.59428


:VKCOUL :  VK-COUL convergence: 0.673E-07
       ATOMNUMBER=  1 Pr1        VCOUL-ZERO =  0.22786E-01
:EFG001:                        EFG         =    -7.63315   *10**21  V / m**2
                               V20  TOT/SRF=    -6.61050    -0.02487
                               V22  TOT/SRF=     0.81170     0.00286
                               V22M TOT/SRF=     0.00000     0.00000
                               V21  TOT/SRF=     0.00000     0.00000
                               V21M TOT/SRF=     0.00000     0.00000

              4.62827    0.00000    0.00000        4.62827    0.00000    0.00000
              0.00000    3.00488    0.00000        0.00000    3.00488    0.00000
              0.00000    0.00000   -7.63315        0.00000    0.00000   -7.63315

         MAIN DIRECTIONS OF THE EFG   1.0000  0.0000  0.0000
                                      0.0000  1.0000  0.0000
                                      0.0000  0.0000  1.0000
:ANG001:  ANGLE WITH OLD X-AXIS =         0.0

:ETA001:                         ASYMM. ETA =     0.21268


     HELLMANN-FEYNMAN-FORCE IN mRy/a.u. = |F|  Fx       Fy             Fz
:FHF001:   1.ATOM    498.940490487620      0.000000000000      0.000000000000   -498.940490487620

:FIT001: LUSE= 13 SIGMA OF V-XC FIT FOR ATOM  1  0.8263163E-05
:FIT001: LUSE= 13 SIGMA OF V-XC FIT FOR ATOM  1  0.8263163E-05
:DEN  : DENSITY INTEGRAL  =        -14142.78627324   (Ry)
       ELS_POTENTIAL_AT Z=0 and Z=0.5:   0.69715   0.69715
       ELS_POTENTIAL_AT Y=0 and Y=0.5:   0.07127   0.07127
:VZERO:v0,v0c,v0x   0.13305   0.69715  -0.56410 v5,v5c,v5x   0.13305   0.69715  -0.56410
:VZERY:v0,v0c,v0x  -0.68326   0.07127  -0.75453 v5,v5c,v5x  -0.68326   0.07127  -0.75453
:VZERX:v0,v0c,v0x  -1.10065  -0.37512  -0.72554 v5,v5c,v5x  -1.10065  -0.37512  -0.72554

------- case.scf1 --------
:LMAX-WF:   10   Non-Spherical LMAX:   4

          ATOMIC SPHERE DEPENDENT PARAMETERS FOR ATOM  Pr1       
:e__0001: OVERALL ENERGY PARAMETER IS    0.3916
          OVERALL BASIS SET ON ATOM IS LAPW
:E0_0001: E( 0)=    0.3916
             APW+lo
:E0_0001: E( 0)=   -2.0899   E(BOTTOM)=   -2.724   E(TOP)=   -1.455  4  5   172
             LOCAL ORBITAL
:E1_0001: E( 1)=    0.7916
             APW+lo
:E1_0001: E( 1)=   -0.6194   E(BOTTOM)=   -1.576   E(TOP)=    0.337  3  4   199
             LOCAL ORBITAL
:E3_0001: E( 3)=    0.5620   E(BOTTOM)=    0.355   E(TOP)=    0.769  0  1   116
             APW+lo
:E2_0001: E( 2)=    0.3916   E(BOTTOM)=    0.166   E(TOP)= -200.000  2 -1    97
             APW+lo

       K=   0.06250   0.00000   0.06250            1
:RKM  : MATRIX SIZE   463LOs:  40  RKM= 8.50  WEIGHT= 4.00  PGR:    
       EIGENVALUES ARE:
:EIG00001:      -2.0582518   -2.0464983   -0.7769493   -0.7097890   -0.6948376
:EIG00006:      -0.6898577   -0.6839425   -0.6836667    0.3567772    0.4963380
:EIG00011:       0.5751213    0.5754343    0.5755769    0.5789120    0.5815793
:EIG00016:       0.5903499    0.5948538    0.5951184    0.5978230    0.5999954
:EIG00021:       0.6040266    0.6067117    0.6076094    0.6110210    0.6529978
:EIG00026:       0.6678574    0.7407662    0.7585530    0.7760047    0.8136416
:EIG00031:       0.8295681    0.9080342    0.9522659    0.9927800    1.2709720
:EIG00036:       1.2945647    1.3830160    1.3839456    1.5390318    1.5901189
:EIG00041:       1.6443337    1.7468741    1.8180169    1.8345789    1.9244230
:EIG00046:       1.9856376    1.9972604    2.0513574    2.1098878    2.1968074
 
:EIG00051:       2.2465353    2.3010472    2.3164293    2.3830067    2.4083138
:EIG00056:       2.4891306    2.5290297    2.5417855    2.6392603    2.6867372
:EIG00061:       2.7559792    2.7674990    2.9013225    2.9835628    2.9891797
:EIG00066:       3.0866973    3.1452584    3.1561983    3.1664887    3.2463358
:EIG00071:       3.2487055    3.2993534    3.3256918    3.3741307    3.3919869
:EIG00076:       3.4307000    3.4657131    3.5033357    3.5295456    3.5550123
:EIG00081:       3.5878251    3.6303481    3.6403030    3.7004800    3.7341999
:EIG00086:       3.7642345    3.8513332    3.8513829    3.8855533    3.8992220
:EIG00091:       3.9325988    3.9586602    3.9992188    4.0063181    4.0171160
:EIG00096:       4.0694285    4.1031395    4.1085693    4.1225691    4.2035710
 
:EIG00101:       4.2684356    4.3950483    4.4020892    4.4637966    4.5000363
:EIG00106:       4.5061059    4.5522170    4.5592624    4.6043754    4.6361861
:EIG00111:       4.7180344    4.7323709    4.7575782    4.7835109    4.8409176
:EIG00116:       4.8799937    4.9561411    4.9645353    4.9967815    5.0260124
:EIG00121:       5.0394555    5.1277927    5.1606038    5.1867833    5.2324379
:EIG00126:       5.3182874    5.3331972    5.3680658    5.4108755    5.4460430
:EIG00131:       5.4489045    5.5165173    5.5473259    5.5474468    5.5730689
:EIG00136:       5.6424615    5.6803063    5.7305795    5.7427682    5.7723680
:EIG00141:       5.7867360    5.7994868    5.8459010    5.8878052    5.9361848
:EIG00146:       5.9425775    5.9486195    5.9531497    5.9738076    6.0635563
 
:EIG00151:       6.1032664    6.1071374    6.1941425    6.2042910    6.2600134
:EIG00156:       6.3546257    6.4421478    6.4681882    6.5020058    6.5198409
:EIG00161:       6.5848788    6.6175283    6.6654400    6.6885343    6.6902654
:EIG00166:       6.7578506    6.7739088    6.7834740    6.8208902    6.8669114
:EIG00171:       6.8823959    6.9466311    6.9787690    6.9826706    7.0439191
:EIG00176:       7.0636406    7.0727242    7.1224111    7.1347389    7.1732474
:EIG00181:       7.2308782    7.2437700    7.2584127    7.2734812    7.3244562
:EIG00186:       7.3350705    7.3564508    7.4487071    7.4656927    7.4691772
:EIG00191:       7.5050097    7.5258961    7.5841720    7.5856154    7.6136251
:EIG00196:       7.6220367    7.6386696    7.6756881    7.6802462    7.7280427
 
:EIG00201:       7.7290321    7.7851992    7.7992759    7.8220286    7.8860714
:EIG00206:       7.8920481    7.9029939    7.9535645    7.9914700    8.0034885
:EIG00211:       8.0204337    8.0693923    8.0822302
       ********************************************************

:KPT   :      NUMBER OF K-POINTS:   288

------- case.scfso --------
   0.0   0.0 angle (M,z), angle (M,x) deg
 
        SPIN-ORBIT EIGENVALUES:
     K=   0.06250   0.00000   0.06250            1
      MATRIX SIZE=  426   WEIGHT= 4.00
     EIGENVALUES ARE:
          -2.0582521   -2.0582521   -2.0464983   -2.0464983   -0.8710681
          -0.8710681   -0.8372909   -0.8372909   -0.6832642   -0.6832642
          -0.6268740   -0.6268740   -0.6240526   -0.6240526   -0.6171005
          -0.6171005    0.3568092    0.3568092    0.4962002    0.4962002
           0.5673217    0.5673217    0.5695875    0.5695875    0.5710593
           0.5710593    0.5724555    0.5724555    0.5748498    0.5748498
           0.5777505    0.5777505    0.5956496    0.5956497    0.6014388
           0.6014388    0.6039836    0.6039836    0.6055898    0.6055898

           0.6088151    0.6088151    0.6125974    0.6125974    0.6138630
           0.6138630    0.6172889    0.6172889    0.6534689    0.6534689
           0.6676704    0.6676704    0.7399540    0.7399540    0.7582004
           0.7582005    0.7768014    0.7768015    0.8141500    0.8141500
           0.8295881    0.8295881    0.9078541    0.9078542    0.9525622
           0.9525622    0.9929125    0.9929125    1.2708847    1.2708847
           1.2948635    1.2948635    1.3827954    1.3827954    1.3841790
           1.3841790    1.5385912    1.5385912    1.5895416    1.5895416

           1.6442753    1.6442753    1.7450877    1.7450877    1.8165332
           1.8165332    1.8358726    1.8358726    1.9249148    1.9249148
           1.9852179    1.9852179    1.9952574    1.9952574    2.0522519
           2.0522519    2.1104978    2.1104978    2.1963817    2.1963817
           2.2461398    2.2461398    2.2983059    2.2983059    2.3184002
           2.3184002    2.3836919    2.3836919    2.4096309    2.4096309
           2.4890442    2.4890442    2.5281192    2.5281192    2.5431248
           2.5431248    2.6393636    2.6393636    2.6864635    2.6864635

           2.7590208    2.7590208    2.7682690    2.7682690    2.9012311
           2.9012311    2.9835099    2.9835099    2.9894542    2.9894542
           3.0865868    3.0865868    3.1450306    3.1450306    3.1566453
           3.1566453    3.1663198    3.1663198    3.2462926    3.2462926
           3.2490323    3.2490323    3.2993728    3.2993728    3.3257474
           3.3257474    3.3735234    3.3735234    3.3927812    3.3927812
           3.4308941    3.4308941    3.4671418    3.4671418    3.5034131
           3.5034131    3.5296276    3.5296276    3.5553987    3.5553987

           3.5880031    3.5880031    3.6303635    3.6303635    3.6405117
           3.6405117    3.7006283    3.7006283    3.7342567    3.7342567
           3.7643441    3.7643441    3.8512004    3.8512004    3.8516272
           3.8516272    3.8855583    3.8855583    3.8992777    3.8992777
           3.9326184    3.9326184    3.9587115    3.9587115    3.9991591
           3.9991591    4.0061752    4.0061752    4.0171022    4.0171022
           4.0694547    4.0694547    4.1025115    4.1025115    4.1093132
           4.1093132    4.1226603    4.1226603    4.2036240    4.2036240

           4.2682899    4.2682899    4.3930798    4.3930798    4.4033330
           4.4033330    4.4645667    4.4645667    4.4999364    4.4999364

       ********************************************************

------- case.scf2 --------
:GMA  : POTENTIAL AND CHARGE CUT-OFF  12.00 Ry**.5




:POS001: at.nr.  -1 position = 0.00000 0.89750 0.25000  multiplicity =  2

       lmmax 16
       lm=   0 0  1 0  2 0  2 2  3 0  3 2  4 0  4 2  4 4  5 0  5 2  5 4  6 0  6 2  6 4  6 6
:FER gutzwiller fermi energy   0.60797
:EORB         -0.251741299
:SUM sum of gutz band energies        -11.238032395

:CHA001: total charge inside sphere   1 =     9.492927
:PCS001: partial charges sphere =  1 s,p,d,f,px,py,pz,d-z2,d-x2y2,d-xy,d-xz,d-yz 
:QTL001: 1.9435 5.0317 0.5538 1.9637 1.6738 1.6751 1.6828 0.1033 0.1042 0.1199 0.1060 0.1205

                      vxx         vyy         vzz       up to r

:VZZ001:             4.61406     3.01318    -7.62724       2.300

:CHA  : total charge inside unit cell =      13.000000

------- case.scfc --------

        1.ATOM      Pr1                  14 CORE STATES
       CORE-FORCE in mRy/a.u. = |F|      Fx             Fy             Fz
:FCO001:   1.ATOM    481.592644035856      0.000000000000      0.000000000000    481.592644035856

:1S 001: 1S               -3067.021263519 Ry
:2S 001: 2S                -492.775067630 Ry
:2PP001: 2P*               -465.874020851 Ry
:2P 001: 2P                -430.476599404 Ry
:3S 001: 3S                -105.866432444 Ry
:3PP001: 3P*                -94.404204765 Ry
:3P 001: 3P                 -87.396435295 Ry
:3DD001: 3D*                -67.323286234 Ry
:3D 001: 3D                 -65.811746769 Ry
:4S 001: 4S                 -20.544674768 Ry
:4PP001: 4P*                -16.251431295 Ry
:4P 001: 4P                 -14.724014743 Ry
:4DD001: 4D*                 -7.656803025 Ry
:4D 001: 4D                  -7.387381299 Ry

------- case.scfm --------
:CINT001 Core Integral Atom   1   45.998497

       DENSITY AT NUCLEUS
        JATOM        VALENCE       SEMI-CORE          CORE           TOTAL
:RTO001:   1      650.007684        0.000000   656824.345842   657474.353526
     
       CHARGES OF NEW CHARGE DENSITY
:NTO   : INTERSTITIAL CHARGE =     7.014576
:NPC   : PW Pseudocharge     =    16.969895
:NTO001: CHARGE SPHERE  1    =    55.491424

:NEC01: NUCLEAR AND ELECTRONIC CHARGE    118.00000   117.99742
     
       CHARGES OF OLD CHARGE DENSITY
:OTO   : INTERSTITIAL CHARGE =     7.013318
:OPC   : PW Pseudocharge     =    16.975458
:OTO001: CHARGE SPHERE  1    =    55.493341

:NEC02: NUCLEAR AND ELECTRONIC CHARGE    118.00000   118.00000
     
       CONVERGENCE TEST
:DTO001: DIFFERENCE IN SPHERE  1 =  0.0031870

:DIS  :  CHARGE DISTANCE       ( 0.0031870 for atom    1 spin 1)      0.0031870
 PW Mixed is          517
 
******************************************************
* MULTISECANT MIXING VER9 RELEASE 10.4.0              *
* Standard Mode with controls                        *
* Fixed density scale                                *
* Regularization       1.000E-04                     *
* Trust Upper Limit    5.000E+00                     *
* Max Number of Memory Steps    8                    *
******************************************************
 
:INFO : Forcing a restart
:PWTMP   4.0015E+02  1.9467E+02  5.0208E+02
:PLANE:  PW TOTAL      4.5603 DISTAN   4.78E-04  1.05E-02 %
:CHARG:  CLM/ATOM   1381.9554 DISTAN   4.79E-03  3.46E-04 %
 
Step History
        DMIX         DMIXT        Red     Pred      Trust     Lambda    MagRel    MagAbs     Beta
  1   3.5000E-02   3.5000E-02 -1.00E+00  1.00E+00 -1.00E+01  1.00E+00  3.50E-02  3.50E-02  1.00E+00
:INFO :  Note, Pratt in use
:TRUST:  Step 2.25E-01  Charge 7.50E-02 (e) CTO  2.50E-01 (e) PW  3.50E-01 (e)
:DIRM :  MEMORY  0/ 8 SCALE   1.000
Performing Pseudo Compensation
Final Pseudo Compensation Rescaling     1.00000E+00
:MIX  :   PRATT  REGULARIZATION:  1.00E-04 GREED: 0.15000                  
     
       CHARGES OF MIXED CHARGE DENSITY
:CTO   : INTERSTITIAL CHARGE =     7.013893
:CPC   : PW Pseudocharge     =    16.975582
:CTO001: CHARGE SPHERE  1    =    55.493053

:NEC03: NUCLEAR AND ELECTRONIC CHARGE    118.00000   118.00000

PW CHANGE     H    K    L      Current       Change    Residue
:PTO001:      0    0    0  4.77805677E-02  1.391E-06  8.974E-06
:PTO003:      0    2    0  1.34403204E-02 -2.226E-07 -1.574E-06
:PTO004:     -1    1    0  6.69332578E-02 -1.461E-07 -1.403E-06
:PTO005:      0    2   -1 -7.81485222E-02  2.486E-07  2.152E-06
:PTO006:      0    0   -2 -4.04737814E-02 -9.869E-08 -4.011E-07
:PTO007:     -1    1   -1 -8.53955543E-02 -6.540E-08  7.488E-08
:PTO008:      0    2   -2 -1.42985046E-02 -1.473E-08 -2.462E-08
:PTO009:     -1    1   -2 -7.34434666E-02  2.960E-07  2.335E-06
:PTO011:     -1    3    0 -1.22253684E-02 -8.600E-08 -5.095E-07
:PTO012:     -1    3   -1 -5.53444672E-02  1.481E-07  1.319E-06
:PTO013:      0    4    0 -1.02680878E-02 -5.372E-08 -2.791E-07
:PTO014:      0    2   -3  2.33583996E-02 -2.106E-07 -1.585E-06

:ENE  : ********** TOTAL ENERGY IN Ry =       -36944.23107445

       TOTAL FORCE IN mRy/a.u. = |F|     Fx             Fy             Fz     with/without FOR in case.in2
:FOR001:   1.ATOM         17.348          0.000          0.000        -17.348 partial forces
       TOTAL FORCE WITH RESPECT TO GLOBAL CARTESIAN COORDINATES:
:FCA001:   1.ATOM                         0.000        -17.348          0.000 partial forces
       TOTAL FORCE WITH RESPECT TO THE GLOBAL COORDINATE SYSTEM:
:FGL001:   1.ATOM                 0.000000000   -17.347846452     0.000000000 partial forces

------- case.scf0 --------
 Flat Integration
 New Mode for Coulomb Integral
 Consistent 3/8+Simpson combinations
 Extension of core to zero
 LDM version in phi
 Fifth-order quadrature in outwin


            ---------
:ITE062: 62. ITERATION
            ---------

:NATO :    1 INDEPENDENT AND    2 TOTAL ATOMS IN UNITCELL
       SUBSTANCE: aU                                                          

       LATTICE                      = CXY 
:POT  : POTENTIAL OPTION EX_LDA EC_LDA VX_LDA VC_LDA
:LAT  : LATTICE CONSTANTS=  6.56123 13.31438 11.49459    1.571    1.571    1.571
:VOL  : UNIT CELL VOLUME =     502.07598
       MODE OF CALCULATION IS       = RELA
       NON-SPINPOLARIZED CALCULATION
:IFFT  : FFT-parameters:   54  108   90 Factor: 2.00


   CONVERGENCE PARAMETER FOR PSEUDOCHARGE: NCON=  9
   MAXIMAL VALUE OF RMT(JATOM)*ABSK(NKK) : RK  =27.59428


:VKCOUL :  VK-COUL convergence: 0.673E-07
       ATOMNUMBER=  1 Pr1        VCOUL-ZERO =  0.22766E-01
:EFG001:                        EFG         =    -7.63659   *10**21  V / m**2
                               V20  TOT/SRF=    -6.61348    -0.02488
                               V22  TOT/SRF=     0.81055     0.00286
                               V22M TOT/SRF=     0.00000     0.00000
                               V21  TOT/SRF=     0.00000     0.00000
                               V21M TOT/SRF=     0.00000     0.00000

              4.62885    0.00000    0.00000        4.62885    0.00000    0.00000
              0.00000    3.00774    0.00000        0.00000    3.00774    0.00000
              0.00000    0.00000   -7.63659        0.00000    0.00000   -7.63659

         MAIN DIRECTIONS OF THE EFG   1.0000  0.0000  0.0000
                                      0.0000  1.0000  0.0000
                                      0.0000  0.0000  1.0000
:ANG001:  ANGLE WITH OLD X-AXIS =         0.0

:ETA001:                         ASYMM. ETA =     0.21228


     HELLMANN-FEYNMAN-FORCE IN mRy/a.u. = |F|  Fx       Fy             Fz
:FHF001:   1.ATOM    498.057691839733      0.000000000000      0.000000000000   -498.057691839733

:FIT001: LUSE= 13 SIGMA OF V-XC FIT FOR ATOM  1  0.8251857E-05
:FIT001: LUSE= 13 SIGMA OF V-XC FIT FOR ATOM  1  0.8251857E-05
:DEN  : DENSITY INTEGRAL  =        -14142.72750193   (Ry)
       ELS_POTENTIAL_AT Z=0 and Z=0.5:   0.69719   0.69719
       ELS_POTENTIAL_AT Y=0 and Y=0.5:   0.07125   0.07125
:VZERO:v0,v0c,v0x   0.13308   0.69719  -0.56411 v5,v5c,v5x   0.13308   0.69719  -0.56411
:VZERY:v0,v0c,v0x  -0.68329   0.07125  -0.75454 v5,v5c,v5x  -0.68329   0.07125  -0.75454
:VZERX:v0,v0c,v0x  -1.10068  -0.37513  -0.72555 v5,v5c,v5x  -1.10068  -0.37513  -0.72555

------- case.scf1 --------
:LMAX-WF:   10   Non-Spherical LMAX:   4

          ATOMIC SPHERE DEPENDENT PARAMETERS FOR ATOM  Pr1       
:e__0001: OVERALL ENERGY PARAMETER IS    0.3916
          OVERALL BASIS SET ON ATOM IS LAPW
:E0_0001: E( 0)=    0.3916
             APW+lo
:E0_0001: E( 0)=   -2.0901   E(BOTTOM)=   -2.725   E(TOP)=   -1.456  4  5   171
             LOCAL ORBITAL
:E1_0001: E( 1)=    0.7916
             APW+lo
:E1_0001: E( 1)=   -0.6196   E(BOTTOM)=   -1.576   E(TOP)=    0.337  3  4   196
             LOCAL ORBITAL
:E3_0001: E( 3)=    0.5617   E(BOTTOM)=    0.355   E(TOP)=    0.769  0  1   122
             APW+lo
:E2_0001: E( 2)=    0.3916   E(BOTTOM)=    0.166   E(TOP)= -200.000  2 -1    94
             APW+lo

       K=   0.06250   0.00000   0.06250            1
:RKM  : MATRIX SIZE   463LOs:  40  RKM= 8.50  WEIGHT= 4.00  PGR:    
       EIGENVALUES ARE:
:EIG00001:      -2.0584557   -2.0467049   -0.7770927   -0.7099430   -0.6949947
:EIG00006:      -0.6900231   -0.6841059   -0.6838335    0.3567712    0.4963132
:EIG00011:       0.5748015    0.5750964    0.5752432    0.5785739    0.5812445
:EIG00016:       0.5899875    0.5944895    0.5947562    0.5974586    0.5996389
:EIG00021:       0.6036572    0.6063495    0.6072422    0.6106523    0.6528819
:EIG00026:       0.6677835    0.7406989    0.7584941    0.7759470    0.8135828
:EIG00031:       0.8295033    0.9079646    0.9521857    0.9926938    1.2709018
:EIG00036:       1.2945343    1.3829848    1.3839231    1.5390141    1.5901012
:EIG00041:       1.6443028    1.7468441    1.8179833    1.8345432    1.9243711
:EIG00046:       1.9856043    1.9972434    2.0513227    2.1098621    2.1967607
 
:EIG00051:       2.2465011    2.3010181    2.3164000    2.3829645    2.4082678
:EIG00056:       2.4891064    2.5290140    2.5417200    2.6392303    2.6866943
:EIG00061:       2.7559288    2.7674809    2.9012843    2.9835585    2.9891545
:EIG00066:       3.0866742    3.1452384    3.1561635    3.1664452    3.2463361
:EIG00071:       3.2486915    3.2993418    3.3256759    3.3741068    3.3919714
:EIG00076:       3.4306702    3.4657036    3.5033178    3.5295351    3.5549905
:EIG00081:       3.5878130    3.6303517    3.6402933    3.7004528    3.7341945
:EIG00086:       3.7642390    3.8513291    3.8513917    3.8855526    3.8992071
:EIG00091:       3.9326004    3.9586484    3.9992221    4.0062927    4.0170889
:EIG00096:       4.0694288    4.1031391    4.1085567    4.1225718    4.2035761
 
:EIG00101:       4.2684155    4.3950455    4.4020671    4.4637895    4.5000374
:EIG00106:       4.5061041    4.5522152    4.5592562    4.6043686    4.6361887
:EIG00111:       4.7180416    4.7323445    4.7575912    4.7834900    4.8409092
:EIG00116:       4.8799726    4.9561179    4.9645394    4.9967551    5.0259820
:EIG00121:       5.0394392    5.1277875    5.1605808    5.1867807    5.2324273
:EIG00126:       5.3182783    5.3331722    5.3680513    5.4108648    5.4460245
:EIG00131:       5.4489032    5.5165112    5.5473167    5.5474418    5.5730571
:EIG00136:       5.6424588    5.6803028    5.7305807    5.7427614    5.7723590
:EIG00141:       5.7867229    5.7994651    5.8458921    5.8878156    5.9361573
:EIG00146:       5.9425756    5.9486277    5.9531464    5.9737987    6.0635602
 
:EIG00151:       6.1032443    6.1071451    6.1941354    6.2042983    6.2599939
:EIG00156:       6.3546249    6.4421425    6.4681864    6.5020065    6.5198218
:EIG00161:       6.5848545    6.6175318    6.6654345    6.6885191    6.6902468
:EIG00166:       6.7578404    6.7739053    6.7834663    6.8208854    6.8669006
:EIG00171:       6.8823791    6.9466211    6.9787500    6.9826564    7.0439041
:EIG00176:       7.0636147    7.0727017    7.1223999    7.1347137    7.1732311
:EIG00181:       7.2308634    7.2437661    7.2584030    7.2734752    7.3244544
:EIG00186:       7.3350713    7.3564244    7.4486967    7.4656814    7.4691564
:EIG00191:       7.5050099    7.5258939    7.5841659    7.5856145    7.6136279
:EIG00196:       7.6220265    7.6386713    7.6756796    7.6802404    7.7280448
 
:EIG00201:       7.7290195    7.7852000    7.7992827    7.8220182    7.8860654
:EIG00206:       7.8920337    7.9029832    7.9535627    7.9914641    8.0034847
:EIG00211:       8.0204309    8.0693859    8.0822243
       ********************************************************

:KPT   :      NUMBER OF K-POINTS:   288

------- case.scfso --------
   0.0   0.0 angle (M,z), angle (M,x) deg
 
        SPIN-ORBIT EIGENVALUES:
     K=   0.06250   0.00000   0.06250            1
      MATRIX SIZE=  426   WEIGHT= 4.00
     EIGENVALUES ARE:
          -2.0584559   -2.0584559   -2.0467050   -2.0467050   -0.8712298
          -0.8712298   -0.8374623   -0.8374623   -0.6834095   -0.6834095
          -0.6270311   -0.6270311   -0.6242086   -0.6242086   -0.6172596
          -0.6172596    0.3568032    0.3568032    0.4961748    0.4961748
           0.5669858    0.5669859    0.5692422    0.5692422    0.5707140
           0.5707140    0.5721109    0.5721109    0.5745009    0.5745009
           0.5773844    0.5773844    0.5953202    0.5953202    0.6010836
           0.6010836    0.6036221    0.6036221    0.6052351    0.6052351

           0.6084601    0.6084601    0.6122375    0.6122375    0.6135027
           0.6135027    0.6169231    0.6169231    0.6533448    0.6533448
           0.6675934    0.6675934    0.7398831    0.7398831    0.7581428
           0.7581428    0.7767435    0.7767436    0.8140913    0.8140913
           0.8295233    0.8295233    0.9077844    0.9077844    0.9524822
           0.9524822    0.9928264    0.9928264    1.2708147    1.2708147
           1.2948328    1.2948328    1.3827657    1.3827657    1.3841550
           1.3841550    1.5385734    1.5385734    1.5895238    1.5895238

           1.6442445    1.6442445    1.7450573    1.7450573    1.8164995
           1.8164995    1.8358373    1.8358373    1.9248631    1.9248631
           1.9851852    1.9851852    1.9952389    1.9952389    2.0522180
           2.0522180    2.1104716    2.1104716    2.1963353    2.1963353
           2.2461058    2.2461058    2.2982768    2.2982768    2.3183707
           2.3183707    2.3836510    2.3836510    2.4095844    2.4095844
           2.4890193    2.4890193    2.5281008    2.5281008    2.5430625
           2.5430625    2.6393333    2.6393333    2.6864204    2.6864204

           2.7589732    2.7589732    2.7682483    2.7682483    2.9011929
           2.9011929    2.9835052    2.9835052    2.9894293    2.9894293
           3.0865635    3.0865635    3.1450101    3.1450101    3.1566109
           3.1566109    3.1662766    3.1662766    3.2462921    3.2462921
           3.2490190    3.2490190    3.2993612    3.2993612    3.3257314
           3.3257314    3.3734999    3.3734999    3.3927651    3.3927651
           3.4308644    3.4308644    3.4671322    3.4671322    3.5033952
           3.5033952    3.5296169    3.5296169    3.5553771    3.5553771

           3.5879911    3.5879911    3.6303670    3.6303670    3.6405019
           3.6405019    3.7006011    3.7006011    3.7342513    3.7342513
           3.7643486    3.7643486    3.8512040    3.8512040    3.8516283
           3.8516283    3.8855576    3.8855576    3.8992628    3.8992628
           3.9326200    3.9326200    3.9586997    3.9586997    3.9991621
           3.9991621    4.0061502    4.0061502    4.0170752    4.0170752
           4.0694550    4.0694550    4.1025098    4.1025098    4.1093019
           4.1093019    4.1226628    4.1226628    4.2036291    4.2036291

           4.2682698    4.2682698    4.3930733    4.3930733    4.4033150
           4.4033150    4.4645594    4.4645594    4.4999371    4.4999371

       ********************************************************

------- case.scf2 --------
:GMA  : POTENTIAL AND CHARGE CUT-OFF  12.00 Ry**.5




:POS001: at.nr.  -1 position = 0.00000 0.89750 0.25000  multiplicity =  2

       lmmax 16
       lm=   0 0  1 0  2 0  2 2  3 0  3 2  4 0  4 2  4 4  5 0  5 2  5 4  6 0  6 2  6 4  6 6
:FER gutzwiller fermi energy   0.60790
:EORB         -0.252916224
:SUM sum of gutz band energies        -11.241217788

:CHA001: total charge inside sphere   1 =     9.493557
:PCS001: partial charges sphere =  1 s,p,d,f,px,py,pz,d-z2,d-x2y2,d-xy,d-xz,d-yz 
:QTL001: 1.9435 5.0318 0.5537 1.9643 1.6739 1.6751 1.6828 0.1033 0.1042 0.1199 0.1059 0.1204

                      vxx         vyy         vzz       up to r

:VZZ001:             4.60991     3.00765    -7.61756       2.300

:CHA  : total charge inside unit cell =      13.000000

------- case.scfc --------

        1.ATOM      Pr1                  14 CORE STATES
       CORE-FORCE in mRy/a.u. = |F|      Fx             Fy             Fz
:FCO001:   1.ATOM    480.702671351672      0.000000000000      0.000000000000    480.702671351672

:1S 001: 1S               -3067.021912560 Ry
:2S 001: 2S                -492.775724305 Ry
:2PP001: 2P*               -465.874675780 Ry
:2P 001: 2P                -430.477254963 Ry
:3S 001: 3S                -105.867086211 Ry
:3PP001: 3P*                -94.404859321 Ry
:3P 001: 3P                 -87.397087849 Ry
:3DD001: 3D*                -67.323941909 Ry
:3D 001: 3D                 -65.812402024 Ry
:4S 001: 4S                 -20.545200692 Ry
:4PP001: 4P*                -16.251948855 Ry
:4P 001: 4P                 -14.724519465 Ry
:4DD001: 4D*                 -7.657284779 Ry
:4D 001: 4D                  -7.387858656 Ry

------- case.scfm --------
:CINT001 Core Integral Atom   1   45.998497

       DENSITY AT NUCLEUS
        JATOM        VALENCE       SEMI-CORE          CORE           TOTAL
:RTO001:   1      650.034290        0.000000   656824.370898   657474.405188
     
       CHARGES OF NEW CHARGE DENSITY
:NTO   : INTERSTITIAL CHARGE =     7.013085
:NPC   : PW Pseudocharge     =    16.969697
:NTO001: CHARGE SPHERE  1    =    55.492054

:NEC01: NUCLEAR AND ELECTRONIC CHARGE    118.00000   117.99719
     
       CHARGES OF OLD CHARGE DENSITY
:OTO   : INTERSTITIAL CHARGE =     7.013893
:OPC   : PW Pseudocharge     =    16.975582
:OTO001: CHARGE SPHERE  1    =    55.493053

:NEC02: NUCLEAR AND ELECTRONIC CHARGE    118.00000   118.00000
     
       CONVERGENCE TEST
:DTO001: DIFFERENCE IN SPHERE  1 =  0.0017172

:DIS  :  CHARGE DISTANCE       ( 0.0017172 for atom    1 spin 1)      0.0017172
 PW Mixed is          517
 
******************************************************
* MULTISECANT MIXING VER9 RELEASE 10.4.0              *
* Standard Mode with controls                        *
* Fixed density scale                                *
* Restart from converged density                     *
* Regularization       1.000E-04                     *
* Trust Upper Limit    5.000E+00                     *
* Max Number of Memory Steps    8                    *
******************************************************
 
:INFO : Forcing a restart
:PWTMP   4.0015E+02  1.9467E+02  5.0208E+02
:PLANE:  PW TOTAL      4.5603 DISTAN   3.44E-04  7.54E-03 %
:CHARG:  CLM/ATOM   1381.9554 DISTAN   2.67E-03  1.93E-04 %
 
Step History
        DMIX         DMIXT        Red     Pred      Trust     Lambda    MagRel    MagAbs     Beta
  1   3.5000E-02   3.5000E-02 -1.00E+00  1.00E+00 -1.00E+01  1.00E+00  3.50E-02  3.50E-02  1.00E+00
  2   1.5000E-01   1.5000E-01 -1.00E+00  1.00E+00 -1.00E+01  1.00E+00  1.50E-01  7.21E-04  1.00E+00
:JACOBIANS    1.522E-03   1.443E-01
  
:NORMS:  1/Froebius, Min, Max, Used   0.9118E-01  0.9118E-01  0.2833E+00  0.9118E-01
:INFO :  Number of Memory Steps    1 Skipping    0
:PREDicted Charge, CTotal, PW Trust    5.426E-04   1.085E-03   5.111E-04
:PREDicted DMix, Beta, BLim   5.0000E-02  1.8869E+00  1.5753E+00

Eigenvalues, unscaled except for SY+YY
   #     SY Real        SY Imag          SS             YY         SY+YY Real      SY+YY Imag
   1   2.833059E-01   0.000000E+00   9.118218E-02   1.000000E+00   1.283306E+00   0.000000E+00
 
:BLIM :  VZERO Control Off
:TRUST:  Step 3.00E+00  Charge 7.50E-02 (e) CTO  2.50E-01 (e) PW  3.50E-01 (e)
:DIRM :  MEMORY  1/8  SCALE   1.000 RED  0.56 PRED  1.00 NEXT  0.61 
:TRAVE:  Charge 2.68E-04 (e) CTO  5.37E-04 (e) PW  2.81E-04 (e)
:DIRP :  |MSR1|= 8.771E-05 |PRATT|= 3.440E-04 ANGLE=  28.8 DEGREES
:DIRQ :  |MSR1|= 6.846E-04 |PRATT|= 2.665E-03 ANGLE=   8.4 DEGREES
:DIRT :  |MSR1|= 6.902E-04 |PRATT|= 2.687E-03 ANGLE=   9.1 DEGREES
:MIX  :   MSR1   REGULARIZATION:  1.00E-04 GREED: 0.07125  Newton 1.00  0.2568                
     
       CHARGES OF MIXED CHARGE DENSITY
:CTO   : INTERSTITIAL CHARGE =     7.014430
:CPC   : PW Pseudocharge     =    16.975771
:CTO001: CHARGE SPHERE  1    =    55.492785

:NEC03: NUCLEAR AND ELECTRONIC CHARGE    118.00000   118.00000

PW CHANGE     H    K    L      Current       Change    Residue
:PTO001:      0    0    0  4.77820130E-02  1.445E-06  5.790E-06
:PTO003:      0    2    0  1.34402585E-02 -6.192E-08  2.679E-07
:PTO004:     -1    1    0  6.69335119E-02  2.542E-07  2.196E-06
:PTO005:      0    2   -1 -7.81487595E-02 -2.374E-07 -2.394E-06
:PTO006:      0    0   -2 -4.04740965E-02 -3.151E-07 -1.881E-06
:PTO007:     -1    1   -1 -8.53959830E-02 -4.286E-07 -2.722E-06
:PTO008:      0    2   -2 -1.42986444E-02 -1.398E-07 -9.543E-07
:PTO009:     -1    1   -2 -7.34435806E-02 -1.139E-07 -1.703E-06
:PTO011:     -1    3    0 -1.22254911E-02 -1.227E-07 -5.850E-07
:PTO012:     -1    3   -1 -5.53448307E-02 -3.635E-07 -3.061E-06
:PTO013:      0    4    0 -1.02682524E-02 -1.646E-07 -1.001E-06
:PTO014:      0    2   -3  2.33583871E-02 -1.248E-08  5.517E-07

:ENE  : ********** TOTAL ENERGY IN Ry =       -36944.23110672

       TOTAL FORCE IN mRy/a.u. = |F|     Fx             Fy             Fz     with/without FOR in case.in2
:FOR001:   1.ATOM         17.355          0.000          0.000        -17.355 partial forces
       TOTAL FORCE WITH RESPECT TO GLOBAL CARTESIAN COORDINATES:
:FCA001:   1.ATOM                         0.000        -17.355          0.000 partial forces
       TOTAL FORCE WITH RESPECT TO THE GLOBAL COORDINATE SYSTEM:
:FGL001:   1.ATOM                 0.000000000   -17.355020488     0.000000000 partial forces

------- case.scf0 --------
 Flat Integration
 New Mode for Coulomb Integral
 Consistent 3/8+Simpson combinations
 Extension of core to zero
 LDM version in phi
 Fifth-order quadrature in outwin


            ---------
:ITE063: 63. ITERATION
            ---------

:NATO :    1 INDEPENDENT AND    2 TOTAL ATOMS IN UNITCELL
       SUBSTANCE: aU                                                          

       LATTICE                      = CXY 
:POT  : POTENTIAL OPTION EX_LDA EC_LDA VX_LDA VC_LDA
:LAT  : LATTICE CONSTANTS=  6.56123 13.31438 11.49459    1.571    1.571    1.571
:VOL  : UNIT CELL VOLUME =     502.07598
       MODE OF CALCULATION IS       = RELA
       NON-SPINPOLARIZED CALCULATION
:IFFT  : FFT-parameters:   54  108   90 Factor: 2.00


   CONVERGENCE PARAMETER FOR PSEUDOCHARGE: NCON=  9
   MAXIMAL VALUE OF RMT(JATOM)*ABSK(NKK) : RK  =27.59428


:VKCOUL :  VK-COUL convergence: 0.673E-07
       ATOMNUMBER=  1 Pr1        VCOUL-ZERO =  0.22748E-01
:EFG001:                        EFG         =    -7.63951   *10**21  V / m**2
                               V20  TOT/SRF=    -6.61601    -0.02489
                               V22  TOT/SRF=     0.80924     0.00286
                               V22M TOT/SRF=     0.00000     0.00000
                               V21  TOT/SRF=     0.00000     0.00000
                               V21M TOT/SRF=     0.00000     0.00000

              4.62900    0.00000    0.00000        4.62900    0.00000    0.00000
              0.00000    3.01051    0.00000        0.00000    3.01051    0.00000
              0.00000    0.00000   -7.63951        0.00000    0.00000   -7.63951

         MAIN DIRECTIONS OF THE EFG   1.0000  0.0000  0.0000
                                      0.0000  1.0000  0.0000
                                      0.0000  0.0000  1.0000
:ANG001:  ANGLE WITH OLD X-AXIS =         0.0

:ETA001:                         ASYMM. ETA =     0.21186


     HELLMANN-FEYNMAN-FORCE IN mRy/a.u. = |F|  Fx       Fy             Fz
:FHF001:   1.ATOM    496.914333564404      0.000000000000      0.000000000000   -496.914333564404

:FIT001: LUSE= 13 SIGMA OF V-XC FIT FOR ATOM  1  0.8239624E-05
:FIT001: LUSE= 13 SIGMA OF V-XC FIT FOR ATOM  1  0.8239624E-05
:DEN  : DENSITY INTEGRAL  =        -14142.67536971   (Ry)
       ELS_POTENTIAL_AT Z=0 and Z=0.5:   0.69723   0.69723
       ELS_POTENTIAL_AT Y=0 and Y=0.5:   0.07124   0.07124
:VZERO:v0,v0c,v0x   0.13310   0.69723  -0.56413 v5,v5c,v5x   0.13310   0.69723  -0.56413
:VZERY:v0,v0c,v0x  -0.68331   0.07124  -0.75455 v5,v5c,v5x  -0.68331   0.07124  -0.75455
:VZERX:v0,v0c,v0x  -1.10071  -0.37514  -0.72557 v5,v5c,v5x  -1.10071  -0.37514  -0.72557

------- case.scf1 --------
:LMAX-WF:   10   Non-Spherical LMAX:   4

          ATOMIC SPHERE DEPENDENT PARAMETERS FOR ATOM  Pr1       
:e__0001: OVERALL ENERGY PARAMETER IS    0.3916
          OVERALL BASIS SET ON ATOM IS LAPW
:E0_0001: E( 0)=    0.3916
             APW+lo
:E0_0001: E( 0)=   -2.0903   E(BOTTOM)=   -2.725   E(TOP)=   -1.456  4  5   171
             LOCAL ORBITAL
:E1_0001: E( 1)=    0.7916
             APW+lo
:E1_0001: E( 1)=   -0.6198   E(BOTTOM)=   -1.576   E(TOP)=    0.337  3  4   198
             LOCAL ORBITAL
:E3_0001: E( 3)=    0.5613   E(BOTTOM)=    0.354   E(TOP)=    0.768  0  1   120
             APW+lo
:E2_0001: E( 2)=    0.3916   E(BOTTOM)=    0.166   E(TOP)= -200.000  2 -1    96
             APW+lo

       K=   0.06250   0.00000   0.06250            1
:RKM  : MATRIX SIZE   463LOs:  40  RKM= 8.50  WEIGHT= 4.00  PGR:    
       EIGENVALUES ARE:
:EIG00001:      -2.0586432   -2.0468951   -0.7772237   -0.7100850   -0.6951397
:EIG00006:      -0.6901753   -0.6842555   -0.6839869    0.3567664    0.4962908
:EIG00011:       0.5745078    0.5747876    0.5749374    0.5782636    0.5809381
:EIG00016:       0.5896555    0.5941560    0.5944246    0.5971249    0.5993124
:EIG00021:       0.6033193    0.6060168    0.6069051    0.6103152    0.6527765
:EIG00026:       0.6677164    0.7406380    0.7584403    0.7758947    0.8135291
:EIG00031:       0.8294441    0.9079015    0.9521126    0.9926153    1.2708380
:EIG00036:       1.2945072    1.3829569    1.3839031    1.5389987    1.5900861
:EIG00041:       1.6442753    1.7468175    1.8179528    1.8345113    1.9243240
:EIG00046:       1.9855744    1.9972287    2.0512913    2.1098394    2.1967185
 
:EIG00051:       2.2464700    2.3009922    2.3163738    2.3829264    2.4082259
:EIG00056:       2.4890846    2.5290001    2.5416605    2.6392030    2.6866557
:EIG00061:       2.7558831    2.7674649    2.9012499    2.9835554    2.9891320
:EIG00066:       3.0866536    3.1452208    3.1561321    3.1664061    3.2463372
:EIG00071:       3.2486793    3.2993317    3.3256617    3.3740858    3.3919577
:EIG00076:       3.4306435    3.4656958    3.5033021    3.5295263    3.5549712
:EIG00081:       3.5878030    3.6303552    3.6402852    3.7004288    3.7341902
:EIG00086:       3.7642436    3.8513260    3.8514006    3.8855528    3.8991939
:EIG00091:       3.9326027    3.9586383    3.9992258    4.0062702    4.0170648
:EIG00096:       4.0694301    4.1031395    4.1085460    4.1225748    4.2035813
 
:EIG00101:       4.2683979    4.3950434    4.4020476    4.4637835    4.5000391
:EIG00106:       4.5061031    4.5522144    4.5592513    4.6043630    4.6361915
:EIG00111:       4.7180489    4.7323209    4.7576038    4.7834713    4.8409022
:EIG00116:       4.8799538    4.9560973    4.9645439    4.9967312    5.0259545
:EIG00121:       5.0394251    5.1277837    5.1605604    5.1867791    5.2324183
:EIG00126:       5.3182706    5.3331500    5.3680386    5.4108559    5.4460082
:EIG00131:       5.4489028    5.5165064    5.5473089    5.5474381    5.5730466
:EIG00136:       5.6424569    5.6803005    5.7305822    5.7427558    5.7723513
:EIG00141:       5.7867118    5.7994455    5.8458846    5.8878254    5.9361325
:EIG00146:       5.9425746    5.9486358    5.9531442    5.9737915    6.0635644
 
:EIG00151:       6.1032247    6.1071526    6.1941296    6.2043056    6.2599766
:EIG00156:       6.3546248    6.4421382    6.4681855    6.5020078    6.5198048
:EIG00161:       6.5848325    6.6175356    6.6654303    6.6885056    6.6902304
:EIG00166:       6.7578316    6.7739027    6.7834598    6.8208818    6.8668913
:EIG00171:       6.8823645    6.9466124    6.9787331    6.9826437    7.0438910
:EIG00176:       7.0635913    7.0726815    7.1223902    7.1346912    7.1732168
:EIG00181:       7.2308502    7.2437633    7.2583947    7.2734703    7.3244534
:EIG00186:       7.3350726    7.3564010    7.4486879    7.4656717    7.4691380
:EIG00191:       7.5050107    7.5258928    7.5841608    7.5856145    7.6136311
:EIG00196:       7.6220178    7.6386736    7.6756724    7.6802358    7.7280475
 
:EIG00201:       7.7290084    7.7852015    7.7992896    7.8220094    7.8860605
:EIG00206:       7.8920208    7.9029742    7.9535619    7.9914593    8.0034817
:EIG00211:       8.0204289    8.0693805    8.0822197
       ********************************************************

:KPT   :      NUMBER OF K-POINTS:   288

------- case.scfso --------
   0.0   0.0 angle (M,z), angle (M,x) deg
 
        SPIN-ORBIT EIGENVALUES:
     K=   0.06250   0.00000   0.06250            1
      MATRIX SIZE=  426   WEIGHT= 4.00
     EIGENVALUES ARE:
          -2.0586435   -2.0586435   -2.0468951   -2.0468951   -0.8713783
          -0.8713782   -0.8376200   -0.8376200   -0.6835428   -0.6835428
          -0.6271756   -0.6271756   -0.6243523   -0.6243523   -0.6174055
          -0.6174055    0.3567983    0.3567983    0.4961519    0.4961520
           0.5666781    0.5666781    0.5689265    0.5689265    0.5703972
           0.5703972    0.5717951    0.5717951    0.5741814    0.5741814
           0.5770492    0.5770492    0.5950185    0.5950185    0.6007580
           0.6007580    0.6032911    0.6032911    0.6049103    0.6049103

           0.6081348    0.6081348    0.6119073    0.6119073    0.6131725
           0.6131725    0.6165885    0.6165885    0.6532319    0.6532319
           0.6675235    0.6675235    0.7398188    0.7398188    0.7580903
           0.7580903    0.7766911    0.7766911    0.8140377    0.8140377
           0.8294640    0.8294640    0.9077212    0.9077212    0.9524092
           0.9524092    0.9927479    0.9927479    1.2707510    1.2707510
           1.2948055    1.2948055    1.3827392    1.3827392    1.3841336
           1.3841336    1.5385579    1.5385579    1.5895087    1.5895087

           1.6442170    1.6442170    1.7450303    1.7450303    1.8164690
           1.8164690    1.8358059    1.8358059    1.9248162    1.9248162
           1.9851558    1.9851558    1.9952228    1.9952228    2.0521873
           2.0521873    2.1104484    2.1104484    2.1962933    2.1962933
           2.2460747    2.2460747    2.2982509    2.2982509    2.3183443
           2.3183443    2.3836142    2.3836142    2.4095420    2.4095420
           2.4889969    2.4889969    2.5280846    2.5280846    2.5430060
           2.5430060    2.6393058    2.6393058    2.6863815    2.6863815

           2.7589303    2.7589303    2.7682299    2.7682299    2.9011585
           2.9011585    2.9835017    2.9835017    2.9894072    2.9894072
           3.0865428    3.0865428    3.1449920    3.1449920    3.1565801
           3.1565801    3.1662378    3.1662378    3.2462925    3.2462925
           3.2490075    3.2490075    3.2993511    3.2993511    3.3257173
           3.3257173    3.3734793    3.3734793    3.3927510    3.3927510
           3.4308377    3.4308377    3.4671244    3.4671244    3.5033796
           3.5033796    3.5296079    3.5296079    3.5553580    3.5553580

           3.5879811    3.5879811    3.6303705    3.6303705    3.6404938
           3.6404938    3.7005772    3.7005772    3.7342470    3.7342470
           3.7643532    3.7643532    3.8512079    3.8512079    3.8516302
           3.8516302    3.8855578    3.8855578    3.8992496    3.8992496
           3.9326222    3.9326222    3.9586896    3.9586896    3.9991655
           3.9991655    4.0061280    4.0061280    4.0170513    4.0170513
           4.0694563    4.0694563    4.1025090    4.1025090    4.1092923
           4.1092923    4.1226657    4.1226657    4.2036343    4.2036343

           4.2682523    4.2682523    4.3930679    4.3930679    4.4032994
           4.4032994    4.4645533    4.4645533    4.4999384    4.4999384

       ********************************************************

------- case.scf2 --------
:GMA  : POTENTIAL AND CHARGE CUT-OFF  12.00 Ry**.5




:POS001: at.nr.  -1 position = 0.00000 0.89750 0.25000  multiplicity =  2

       lmmax 16
       lm=   0 0  1 0  2 0  2 2  3 0  3 2  4 0  4 2  4 4  5 0  5 2  5 4  6 0  6 2  6 4  6 6
:FER gutzwiller fermi energy   0.60784
:EORB         -0.253988622
:SUM sum of gutz band energies        -11.244165019

:CHA001: total charge inside sphere   1 =     9.494307
:PCS001: partial charges sphere =  1 s,p,d,f,px,py,pz,d-z2,d-x2y2,d-xy,d-xz,d-yz 
:QTL001: 1.9435 5.0319 0.5536 1.9650 1.6739 1.6752 1.6828 0.1032 0.1042 0.1199 0.1059 0.1204

                      vxx         vyy         vzz       up to r

:VZZ001:             4.60591     3.00176    -7.60767       2.300

:CHA  : total charge inside unit cell =      13.000000

------- case.scfc --------

        1.ATOM      Pr1                  14 CORE STATES
       CORE-FORCE in mRy/a.u. = |F|      Fx             Fy             Fz
:FCO001:   1.ATOM    479.597820472576      0.000000000000      0.000000000000    479.597820472576

:1S 001: 1S               -3067.022457417 Ry
:2S 001: 2S                -492.776286449 Ry
:2PP001: 2P*               -465.875234033 Ry
:2P 001: 2P                -430.477814649 Ry
:3S 001: 3S                -105.867665223 Ry
:3PP001: 3P*                -94.405438003 Ry
:3P 001: 3P                 -87.397665741 Ry
:3DD001: 3D*                -67.324519873 Ry
:3D 001: 3D                 -65.812979975 Ry
:4S 001: 4S                 -20.545678998 Ry
:4PP001: 4P*                -16.252419709 Ry
:4P 001: 4P                 -14.724979170 Ry
:4DD001: 4D*                 -7.657723971 Ry
:4D 001: 4D                  -7.388293988 Ry

------- case.scfm --------
:CINT001 Core Integral Atom   1   45.998498

       DENSITY AT NUCLEUS
        JATOM        VALENCE       SEMI-CORE          CORE           TOTAL
:RTO001:   1      650.059347        0.000000   656824.388749   657474.448096
     
       CHARGES OF NEW CHARGE DENSITY
:NTO   : INTERSTITIAL CHARGE =     7.011618
:NPC   : PW Pseudocharge     =    16.969492
:NTO001: CHARGE SPHERE  1    =    55.492804

:NEC01: NUCLEAR AND ELECTRONIC CHARGE    118.00000   117.99723
     
       CHARGES OF OLD CHARGE DENSITY
:OTO   : INTERSTITIAL CHARGE =     7.014430
:OPC   : PW Pseudocharge     =    16.975771
:OTO001: CHARGE SPHERE  1    =    55.492785

:NEC02: NUCLEAR AND ELECTRONIC CHARGE    118.00000   118.00000
     
       CONVERGENCE TEST
:DTO001: DIFFERENCE IN SPHERE  1 =  0.0009164

:DIS  :  CHARGE DISTANCE       ( 0.0009164 for atom    1 spin 1)      0.0009164
 PW Mixed is          517
 
******************************************************
* MULTISECANT MIXING VER9 RELEASE 10.4.0              *
* Standard Mode with controls                        *
* Fixed density scale                                *
* Regularization       1.000E-04                     *
* Trust Upper Limit    5.000E+00                     *
* Max Number of Memory Steps    8                    *
******************************************************
 
:PWTMP   4.0015E+02  1.9467E+02  5.0208E+02
:PLANE:  PW TOTAL      4.5604 DISTAN   2.32E-04  5.09E-03 %
:CHARG:  CLM/ATOM   1381.9555 DISTAN   1.42E-03  1.03E-04 %
 
Step History
        DMIX         DMIXT        Red     Pred      Trust     Lambda    MagRel    MagAbs     Beta
  1   3.5000E-02   3.5000E-02 -1.00E+00  1.00E+00 -1.00E+01  1.00E+00  3.50E-02  3.50E-02  1.00E+00
  2   1.5000E-01   1.5000E-01  5.59E-01  1.00E+00 -1.00E+01  1.00E+00  1.50E-01  7.21E-04  1.00E+00
  3   7.1250E-02   7.1250E-02 -1.00E+00  6.13E-01  3.00E+00  1.00E+00  2.57E-01  6.90E-04  1.00E+00
:JACOBIANS    2.698E-02   2.945E-01
  
:NORMS:  1/Froebius, Min, Max, Used   0.2836E+00  0.2497E+00  0.2862E+00  0.2862E+00
:INFO :  Number of Memory Steps    2 Skipping    0
:INFO :  SLambda=    2.6285757523  Max    2.6285757523
:PREDicted Charge, CTotal, PW Trust    1.095E-04   2.190E-04   2.599E-04
:PREDicted DMix, Beta, BLim   1.2435E-01  6.3002E-01  8.8782E-01

Eigenvalues, unscaled except for SY+YY
   #     SY Real        SY Imag          SS             YY         SY+YY Real      SY+YY Imag
   1   5.226799E-01   0.000000E+00   1.605662E-01   1.998040E+00   3.372241E+00   0.000000E+00
   2   6.562429E-04   0.000000E+00   2.704345E-04   1.959513E-03   3.387923E-03   0.000000E+00
 
:INFO :  Singular value  3.373E+00 Weight  1.000E+00 Projection  6.860E-07
:INFO :  Singular value  3.387E-03 Weight  9.965E-01 Projection  2.976E-02
:RANK :  ACTIVE   2.00/2  =  99.83 % ; YY RANK   1.99/2  =  99.49 %
 
:DLIM :  Beta Active  8.000E-01
:BLIM :  VZERO Control Off
:TRUST:  Step 4.00E+00  Charge 7.50E-02 (e) CTO  2.50E-01 (e) PW  3.50E-01 (e)
:DIRM :  MEMORY  2/8  SCALE   1.000 RED  0.53 PRED  0.61 NEXT  0.64 BETA  0.80
:TRAVE:  Charge 2.05E-04 (e) CTO  4.09E-04 (e) PW  2.09E-04 (e)
:DIRP :  |MSR1|= 6.275E-05 |PRATT|= 2.322E-04 ANGLE=  56.3 DEGREES
:DIRQ :  |MSR1|= 4.819E-04 |PRATT|= 1.417E-03 ANGLE=  40.0 DEGREES
:DIRT :  |MSR1|= 4.859E-04 |PRATT|= 1.436E-03 ANGLE=  40.5 DEGREES
:MIX  :   MSE1   REGULARIZATION:  2.00E-04 GREED: 0.10311  Newton 1.00  0.3385                
     
       CHARGES OF MIXED CHARGE DENSITY
:CTO   : INTERSTITIAL CHARGE =     7.014148
:CPC   : PW Pseudocharge     =    16.975700
:CTO001: CHARGE SPHERE  1    =    55.492926

:NEC03: NUCLEAR AND ELECTRONIC CHARGE    118.00000   118.00000

PW CHANGE     H    K    L      Current       Change    Residue
:PTO001:      0    0    0  4.77813103E-02 -7.028E-07  7.842E-07
:PTO003:      0    2    0  1.34406006E-02  3.422E-07  1.351E-06
:PTO004:     -1    1    0  6.69338133E-02  3.013E-07  2.851E-06
:PTO005:      0    2   -1 -7.81491064E-02 -3.469E-07 -3.333E-06
:PTO006:      0    0   -2 -4.04741386E-02 -4.216E-08 -1.540E-06
:PTO007:     -1    1   -1 -8.53958313E-02  1.517E-07 -2.039E-06
:PTO008:      0    2   -2 -1.42988363E-02 -1.918E-07 -1.149E-06
:PTO009:     -1    1   -2 -7.34437342E-02 -1.536E-07 -2.433E-06
:PTO011:     -1    3    0 -1.22254027E-02  8.846E-08 -1.689E-07
:PTO012:     -1    3   -1 -5.53457216E-02 -8.909E-07 -4.640E-06
:PTO013:      0    4    0 -1.02684721E-02 -2.197E-07 -1.166E-06
:PTO014:      0    2   -3  2.33586985E-02  3.114E-07  1.542E-06

:ENE  : ********** TOTAL ENERGY IN Ry =       -36944.23115747

       TOTAL FORCE IN mRy/a.u. = |F|     Fx             Fy             Fz     with/without FOR in case.in2
:FOR001:   1.ATOM         17.317          0.000          0.000        -17.317 partial forces
       TOTAL FORCE WITH RESPECT TO GLOBAL CARTESIAN COORDINATES:
:FCA001:   1.ATOM                         0.000        -17.317          0.000 partial forces
       TOTAL FORCE WITH RESPECT TO THE GLOBAL COORDINATE SYSTEM:
:FGL001:   1.ATOM                 0.000000000   -17.316513092     0.000000000 partial forces

------- case.scf0 --------
 Flat Integration
 New Mode for Coulomb Integral
 Consistent 3/8+Simpson combinations
 Extension of core to zero
 LDM version in phi
 Fifth-order quadrature in outwin


            ---------
:ITE064: 64. ITERATION
            ---------

:NATO :    1 INDEPENDENT AND    2 TOTAL ATOMS IN UNITCELL
       SUBSTANCE: aU                                                          

       LATTICE                      = CXY 
:POT  : POTENTIAL OPTION EX_LDA EC_LDA VX_LDA VC_LDA
:LAT  : LATTICE CONSTANTS=  6.56123 13.31438 11.49459    1.571    1.571    1.571
:VOL  : UNIT CELL VOLUME =     502.07598
       MODE OF CALCULATION IS       = RELA
       NON-SPINPOLARIZED CALCULATION
:IFFT  : FFT-parameters:   54  108   90 Factor: 2.00


   CONVERGENCE PARAMETER FOR PSEUDOCHARGE: NCON=  9
   MAXIMAL VALUE OF RMT(JATOM)*ABSK(NKK) : RK  =27.59428


:VKCOUL :  VK-COUL convergence: 0.674E-07
       ATOMNUMBER=  1 Pr1        VCOUL-ZERO =  0.22757E-01
:EFG001:                        EFG         =    -7.63727   *10**21  V / m**2
                               V20  TOT/SRF=    -6.61407    -0.02487
                               V22  TOT/SRF=     0.80868     0.00286
                               V22M TOT/SRF=     0.00000     0.00000
                               V21  TOT/SRF=     0.00000     0.00000
                               V21M TOT/SRF=     0.00000     0.00000

              4.62732    0.00000    0.00000        4.62732    0.00000    0.00000
              0.00000    3.00995    0.00000        0.00000    3.00995    0.00000
              0.00000    0.00000   -7.63727        0.00000    0.00000   -7.63727

         MAIN DIRECTIONS OF THE EFG   1.0000  0.0000  0.0000
                                      0.0000  1.0000  0.0000
                                      0.0000  0.0000  1.0000
:ANG001:  ANGLE WITH OLD X-AXIS =         0.0

:ETA001:                         ASYMM. ETA =     0.21177


     HELLMANN-FEYNMAN-FORCE IN mRy/a.u. = |F|  Fx       Fy             Fz
:FHF001:   1.ATOM    496.019529963896      0.000000000000      0.000000000000   -496.019529963896

:FIT001: LUSE= 13 SIGMA OF V-XC FIT FOR ATOM  1  0.8236313E-05
:FIT001: LUSE= 13 SIGMA OF V-XC FIT FOR ATOM  1  0.8236313E-05
:DEN  : DENSITY INTEGRAL  =        -14142.71024180   (Ry)
       ELS_POTENTIAL_AT Z=0 and Z=0.5:   0.69721   0.69721
       ELS_POTENTIAL_AT Y=0 and Y=0.5:   0.07125   0.07125
:VZERO:v0,v0c,v0x   0.13309   0.69721  -0.56412 v5,v5c,v5x   0.13309   0.69721  -0.56412
:VZERY:v0,v0c,v0x  -0.68329   0.07125  -0.75454 v5,v5c,v5x  -0.68329   0.07125  -0.75454
:VZERX:v0,v0c,v0x  -1.10069  -0.37513  -0.72556 v5,v5c,v5x  -1.10069  -0.37513  -0.72556

------- case.scf1 --------
:LMAX-WF:   10   Non-Spherical LMAX:   4

          ATOMIC SPHERE DEPENDENT PARAMETERS FOR ATOM  Pr1       
:e__0001: OVERALL ENERGY PARAMETER IS    0.3916
          OVERALL BASIS SET ON ATOM IS LAPW
:E0_0001: E( 0)=    0.3916
             APW+lo
:E0_0001: E( 0)=   -2.0902   E(BOTTOM)=   -2.725   E(TOP)=   -1.456  4  5   171
             LOCAL ORBITAL
:E1_0001: E( 1)=    0.7916
             APW+lo
:E1_0001: E( 1)=   -0.6197   E(BOTTOM)=   -1.576   E(TOP)=    0.337  3  4   199
             LOCAL ORBITAL
:E3_0001: E( 3)=    0.5615   E(BOTTOM)=    0.354   E(TOP)=    0.769  0  1   121
             APW+lo
:E2_0001: E( 2)=    0.3916   E(BOTTOM)=    0.166   E(TOP)= -200.000  2 -1    95
             APW+lo

       K=   0.06250   0.00000   0.06250            1
:RKM  : MATRIX SIZE   463LOs:  40  RKM= 8.50  WEIGHT= 4.00  PGR:    
       EIGENVALUES ARE:
:EIG00001:      -2.0585476   -2.0467982   -0.7771548   -0.7100144   -0.6950674
:EIG00006:      -0.6900984   -0.6841771   -0.6839095    0.3567672    0.4963007
:EIG00011:       0.5746624    0.5749540    0.5750998    0.5784262    0.5811025
:EIG00016:       0.5898317    0.5943343    0.5946020    0.5973032    0.5994872
:EIG00021:       0.6035011    0.6061909    0.6070824    0.6104969    0.6528312
:EIG00026:       0.6677501    0.7406692    0.7584668    0.7759215    0.8135549
:EIG00031:       0.8294730    0.9079347    0.9521504    0.9926559    1.2708706
:EIG00036:       1.2945202    1.3829702    1.3839120    1.5390056    1.5900941
:EIG00041:       1.6442889    1.7468311    1.8179666    1.8345279    1.9243474
:EIG00046:       1.9855888    1.9972358    2.0513058    2.1098505    2.1967395
 
:EIG00051:       2.2464835    2.3010051    2.3163861    2.3829452    2.4082455
:EIG00056:       2.4890942    2.5290056    2.5416907    2.6392150    2.6866755
:EIG00061:       2.7559065    2.7674716    2.9012668    2.9835561    2.9891425
:EIG00066:       3.0866635    3.1452292    3.1561474    3.1664262    3.2463356
:EIG00071:       3.2486844    3.2993352    3.3256675    3.3740964    3.3919634
:EIG00076:       3.4306561    3.4656997    3.5033094    3.5295301    3.5549802
:EIG00081:       3.5878079    3.6303503    3.6402889    3.7004415    3.7341914
:EIG00086:       3.7642389    3.8513259    3.8513946    3.8855517    3.8991989
:EIG00091:       3.9326002    3.9586428    3.9992221    4.0062812    4.0170766
:EIG00096:       4.0694288    4.1031383    4.1085504    4.1225714    4.2035763
 
:EIG00101:       4.2684067    4.3950428    4.4020571    4.4637848    4.5000367
:EIG00106:       4.5061021    4.5522134    4.5592530    4.6043645    4.6361877
:EIG00111:       4.7180436    4.7323319    4.7575955    4.7834793    4.8409049
:EIG00116:       4.8799620    4.9561066    4.9645401    4.9967417    5.0259673
:EIG00121:       5.0394315    5.1277848    5.1605702    5.1867786    5.2324214
:EIG00126:       5.3182730    5.3331605    5.3680437    5.4108598    5.4460152
:EIG00131:       5.4489016    5.5165083    5.5473115    5.5474389    5.5730499
:EIG00136:       5.6424561    5.6803005    5.7305795    5.7427568    5.7723536
:EIG00141:       5.7867168    5.7994533    5.8458873    5.8878172    5.9361434
:EIG00146:       5.9425733    5.9486292    5.9531438    5.9737948    6.0635603
 
:EIG00151:       6.1032334    6.1071463    6.1941311    6.2042998    6.2599839
:EIG00156:       6.3546231    6.4421386    6.4681843    6.5020054    6.5198119
:EIG00161:       6.5848418    6.6175316    6.6654314    6.6885106    6.6902375
:EIG00166:       6.7578339    6.7739026    6.7834613    6.8208823    6.8668944
:EIG00171:       6.8823710    6.9466145    6.9787402    6.9826478    7.0438961
:EIG00176:       7.0636011    7.0726898    7.1223934    7.1347011    7.1732228
:EIG00181:       7.2308550    7.2437631    7.2583974    7.2734710    7.3244525
:EIG00186:       7.3350703    7.3564119    7.4486910    7.4656754    7.4691461
:EIG00191:       7.5050084    7.5258922    7.5841614    7.5856132    7.6136278
:EIG00196:       7.6220208    7.6386709    7.6756747    7.6802367    7.7280446
 
:EIG00201:       7.7290120    7.7851991    7.7992844    7.8220125    7.8860616
:EIG00206:       7.8920252    7.9029778    7.9535610    7.9914599    8.0034814
:EIG00211:       8.0204281    8.0693813    8.0822210
       ********************************************************

:KPT   :      NUMBER OF K-POINTS:   288

------- case.scfso --------
   0.0   0.0 angle (M,z), angle (M,x) deg
 
        SPIN-ORBIT EIGENVALUES:
     K=   0.06250   0.00000   0.06250            1
      MATRIX SIZE=  426   WEIGHT= 4.00
     EIGENVALUES ARE:
          -2.0585478   -2.0585478   -2.0467982   -2.0467982   -0.8713021
          -0.8713021   -0.8375397   -0.8375397   -0.6834747   -0.6834747
          -0.6271030   -0.6271030   -0.6242802   -0.6242802   -0.6173300
          -0.6173300    0.3567992    0.3567992    0.4961621    0.4961621
           0.5668414    0.5668415    0.5690964    0.5690964    0.5705637
           0.5705637    0.5719625    0.5719625    0.5743523    0.5743523
           0.5772281    0.5772282    0.5951800    0.5951800    0.6009310
           0.6009310    0.6034680    0.6034680    0.6050836    0.6050836

           0.6083076    0.6083076    0.6120812    0.6120812    0.6133480
           0.6133480    0.6167681    0.6167681    0.6532905    0.6532905
           0.6675587    0.6675587    0.7398517    0.7398517    0.7581163
           0.7581163    0.7767179    0.7767179    0.8140635    0.8140635
           0.8294929    0.8294929    0.9077545    0.9077545    0.9524470
           0.9524470    0.9927885    0.9927885    1.2707836    1.2707836
           1.2948187    1.2948187    1.3827517    1.3827517    1.3841432
           1.3841432    1.5385648    1.5385648    1.5895167    1.5895167

           1.6442306    1.6442306    1.7450442    1.7450442    1.8164830
           1.8164830    1.8358220    1.8358220    1.9248395    1.9248395
           1.9851699    1.9851699    1.9952305    1.9952305    2.0522016
           2.0522016    2.1104597    2.1104597    2.1963142    2.1963142
           2.2460882    2.2460882    2.2982636    2.2982636    2.3183568
           2.3183568    2.3836324    2.3836324    2.4095618    2.4095618
           2.4890068    2.4890068    2.5280914    2.5280914    2.5430345
           2.5430345    2.6393179    2.6393179    2.6864015    2.6864015

           2.7589521    2.7589521    2.7682379    2.7682379    2.9011754
           2.9011754    2.9835026    2.9835026    2.9894175    2.9894175
           3.0865528    3.0865528    3.1450007    3.1450007    3.1565952
           3.1565952    3.1662578    3.1662578    3.2462913    3.2462913
           3.2490123    3.2490123    3.2993546    3.2993546    3.3257230
           3.3257230    3.3734896    3.3734896    3.3927570    3.3927570
           3.4308503    3.4308503    3.4671283    3.4671283    3.5033868
           3.5033868    3.5296118    3.5296118    3.5553668    3.5553668

           3.5879860    3.5879860    3.6303657    3.6303657    3.6404975
           3.6404975    3.7005898    3.7005898    3.7342482    3.7342482
           3.7643486    3.7643486    3.8512043    3.8512043    3.8516276
           3.8516276    3.8855568    3.8855568    3.8992546    3.8992546
           3.9326197    3.9326197    3.9586941    3.9586941    3.9991620
           3.9991620    4.0061388    4.0061388    4.0170630    4.0170630
           4.0694550    4.0694550    4.1025084    4.1025084    4.1092961
           4.1092961    4.1226624    4.1226624    4.2036293    4.2036293

           4.2682610    4.2682610    4.3930692    4.3930692    4.4033066
           4.4033066    4.4645546    4.4645546    4.4999362    4.4999362

       ********************************************************

------- case.scf2 --------
:GMA  : POTENTIAL AND CHARGE CUT-OFF  12.00 Ry**.5




:POS001: at.nr.  -1 position = 0.00000 0.89750 0.25000  multiplicity =  2

       lmmax 16
       lm=   0 0  1 0  2 0  2 2  3 0  3 2  4 0  4 2  4 4  5 0  5 2  5 4  6 0  6 2  6 4  6 6
:FER gutzwiller fermi energy   0.60784
:EORB         -0.253214601
:SUM sum of gutz band energies        -11.242843081

:CHA001: total charge inside sphere   1 =     9.494198
:PCS001: partial charges sphere =  1 s,p,d,f,px,py,pz,d-z2,d-x2y2,d-xy,d-xz,d-yz 
:QTL001: 1.9435 5.0318 0.5535 1.9651 1.6739 1.6751 1.6828 0.1032 0.1041 0.1198 0.1059 0.1204

                      vxx         vyy         vzz       up to r

:VZZ001:             4.60661     3.00226    -7.60887       2.300

:CHA  : total charge inside unit cell =      13.000000

------- case.scfc --------

        1.ATOM      Pr1                  14 CORE STATES
       CORE-FORCE in mRy/a.u. = |F|      Fx             Fy             Fz
:FCO001:   1.ATOM    478.868293479344      0.000000000000      0.000000000000    478.868293479344

:1S 001: 1S               -3067.021958572 Ry
:2S 001: 2S                -492.775821660 Ry
:2PP001: 2P*               -465.874761660 Ry
:2P 001: 2P                -430.477345122 Ry
:3S 001: 3S                -105.867273779 Ry
:3PP001: 3P*                -94.405042309 Ry
:3P 001: 3P                 -87.397274848 Ry
:3DD001: 3D*                -67.324117215 Ry
:3D 001: 3D                 -65.812578890 Ry
:4S 001: 4S                 -20.545409447 Ry
:4PP001: 4P*                -16.252154996 Ry
:4P 001: 4P                 -14.724722933 Ry
:4DD001: 4D*                 -7.657480865 Ry
:4D 001: 4D                  -7.388053646 Ry

------- case.scfm --------
:CINT001 Core Integral Atom   1   45.998497

       DENSITY AT NUCLEUS
        JATOM        VALENCE       SEMI-CORE          CORE           TOTAL
:RTO001:   1      650.045208        0.000000   656824.357869   657474.403077
     
       CHARGES OF NEW CHARGE DENSITY
:NTO   : INTERSTITIAL CHARGE =     7.011792
:NPC   : PW Pseudocharge     =    16.969401
:NTO001: CHARGE SPHERE  1    =    55.492695

:NEC01: NUCLEAR AND ELECTRONIC CHARGE    118.00000   117.99718
     
       CHARGES OF OLD CHARGE DENSITY
:OTO   : INTERSTITIAL CHARGE =     7.014148
:OPC   : PW Pseudocharge     =    16.975700
:OTO001: CHARGE SPHERE  1    =    55.492926

:NEC02: NUCLEAR AND ELECTRONIC CHARGE    118.00000   118.00000
     
       CONVERGENCE TEST
:DTO001: DIFFERENCE IN SPHERE  1 =  0.0004713

:DIS  :  CHARGE DISTANCE       ( 0.0004713 for atom    1 spin 1)      0.0004713
 PW Mixed is          517
 
******************************************************
* MULTISECANT MIXING VER9 RELEASE 10.4.0              *
* Standard Mode with controls                        *
* Fixed density scale                                *
* Regularization       1.000E-04                     *
* Trust Upper Limit    5.000E+00                     *
* Max Number of Memory Steps    8                    *
******************************************************
 
:PWTMP   4.0015E+02  1.9467E+02  5.0208E+02
:PLANE:  PW TOTAL      4.5604 DISTAN   1.84E-04  4.04E-03 %
:CHARG:  CLM/ATOM   1381.9557 DISTAN   8.16E-04  5.90E-05 %
 
Step History
        DMIX         DMIXT        Red     Pred      Trust     Lambda    MagRel    MagAbs     Beta
  1   3.5000E-02   3.5000E-02 -1.00E+00  1.00E+00 -1.00E+01  1.00E+00  3.50E-02  3.50E-02  1.00E+00
  2   1.5000E-01   1.5000E-01  5.59E-01  1.00E+00 -1.00E+01  1.00E+00  1.50E-01  7.21E-04  1.00E+00
  3   7.1250E-02   7.1250E-02  5.34E-01  6.13E-01  3.00E+00  2.63E+00  2.57E-01  6.90E-04  1.00E+00
  4   1.0311E-01   1.0311E-01 -1.00E+00  6.39E-01  4.00E+00  1.00E+00  3.38E-01  4.86E-04  8.00E-01
:JACOBIANS    5.240E-02   5.375E-01
  
:NORMS:  1/Froebius, Min, Max, Used   0.3691E+00  0.2870E+00  0.3780E+00  0.3780E+00
:INFO :  Number of Memory Steps    3 Skipping    0
:INFO :  SLambda=    2.5967299900  Max    2.5967299900
:PREDicted Charge, CTotal, PW Trust    1.410E-04   2.820E-04   1.247E-04
:PREDicted DMix, Beta, BLim   2.3378E-01  1.4540E+00  4.9091E-01

Eigenvalues, unscaled except for SY+YY
   #     SY Real        SY Imag          SS             YY         SY+YY Real      SY+YY Imag
   1   1.518149E-04   0.000000E+00   2.271779E-01   2.262950E+00   3.635043E+00   0.000000E+00
   2   4.762752E-01   1.735745E-01   1.815249E-01   7.356681E-01   1.759116E-03   0.000000E+00
   3   4.762752E-01  -1.735745E-01   1.727500E-05   1.381561E-03   1.837108E+00   0.000000E+00
 
:INFO :  Singular value  3.853E+00 Weight  1.000E+00 Projection -3.579E-04
:INFO :  Singular value  1.733E+00 Weight  1.000E+00 Projection -7.212E-04
:INFO :  Singular value  1.759E-03 Weight  9.837E-01 Projection  3.301E-03
:RANK :  ACTIVE   2.98/3  =  99.46 % ; YY RANK   2.97/3  =  99.13 %
 
:BLIM :  VZERO Control Off
:TRUST:  Step 5.33E+00  Charge 7.50E-02 (e) CTO  2.50E-01 (e) PW  3.50E-01 (e)
:DIRM :  MEMORY  3/8  SCALE   1.000 RED  0.58 PRED  0.64 NEXT  0.29 
:TRAVE:  Charge 1.06E-04 (e) CTO  2.12E-04 (e) PW  1.14E-04 (e)
:DIRP :  |MSR1|= 5.568E-05 |PRATT|= 1.843E-04 ANGLE=  33.0 DEGREES
:DIRQ :  |MSR1|= 3.632E-04 |PRATT|= 8.157E-04 ANGLE=  44.3 DEGREES
:DIRT :  |MSR1|= 3.675E-04 |PRATT|= 8.362E-04 ANGLE=  44.1 DEGREES
:MIX  :   MSE1   REGULARIZATION:  2.26E-04 GREED: 0.16314  Newton 1.00  0.4394                
     
       CHARGES OF MIXED CHARGE DENSITY
:CTO   : INTERSTITIAL CHARGE =     7.014134
:CPC   : PW Pseudocharge     =    16.975764
:CTO001: CHARGE SPHERE  1    =    55.492933

:NEC03: NUCLEAR AND ELECTRONIC CHARGE    118.00000   118.00000

PW CHANGE     H    K    L      Current       Change    Residue
:PTO001:      0    0    0  4.77814105E-02  1.002E-07  1.959E-06
:PTO003:      0    2    0  1.34408952E-02  2.945E-07  5.694E-07
:PTO004:     -1    1    0  6.69343785E-02  5.652E-07  2.138E-06
:PTO005:      0    2   -1 -7.81497542E-02 -6.478E-07 -2.526E-06
:PTO006:      0    0   -2 -4.04744437E-02 -3.051E-07 -1.426E-06
:PTO007:     -1    1   -1 -8.53961125E-02 -2.812E-07 -2.153E-06
:PTO008:      0    2   -2 -1.42991110E-02 -2.747E-07 -7.595E-07
:PTO009:     -1    1   -2 -7.34442079E-02 -4.738E-07 -2.262E-06
:PTO011:     -1    3    0 -1.22253976E-02  5.060E-09 -2.664E-07
:PTO012:     -1    3   -1 -5.53468550E-02 -1.133E-06 -2.913E-06
:PTO013:      0    4    0 -1.02687841E-02 -3.119E-07 -7.816E-07
:PTO014:      0    2   -3  2.33590448E-02  3.464E-07  9.115E-07

:ENE  : ********** TOTAL ENERGY IN Ry =       -36944.23110747

       TOTAL FORCE IN mRy/a.u. = |F|     Fx             Fy             Fz     with/without FOR in case.in2
:FOR001:   1.ATOM         17.151          0.000          0.000        -17.151 partial forces
       TOTAL FORCE WITH RESPECT TO GLOBAL CARTESIAN COORDINATES:
:FCA001:   1.ATOM                         0.000        -17.151          0.000 partial forces
       TOTAL FORCE WITH RESPECT TO THE GLOBAL COORDINATE SYSTEM:
:FGL001:   1.ATOM                 0.000000000   -17.151236485     0.000000000 partial forces

------- case.scf0 --------
 Flat Integration
 New Mode for Coulomb Integral
 Consistent 3/8+Simpson combinations
 Extension of core to zero
 LDM version in phi
 Fifth-order quadrature in outwin


            ---------
:ITE065: 65. ITERATION
            ---------

:NATO :    1 INDEPENDENT AND    2 TOTAL ATOMS IN UNITCELL
       SUBSTANCE: aU                                                          

       LATTICE                      = CXY 
:POT  : POTENTIAL OPTION EX_LDA EC_LDA VX_LDA VC_LDA
:LAT  : LATTICE CONSTANTS=  6.56123 13.31438 11.49459    1.571    1.571    1.571
:VOL  : UNIT CELL VOLUME =     502.07598
       MODE OF CALCULATION IS       = RELA
       NON-SPINPOLARIZED CALCULATION
:IFFT  : FFT-parameters:   54  108   90 Factor: 2.00


   CONVERGENCE PARAMETER FOR PSEUDOCHARGE: NCON=  9
   MAXIMAL VALUE OF RMT(JATOM)*ABSK(NKK) : RK  =27.59428


:VKCOUL :  VK-COUL convergence: 0.674E-07
       ATOMNUMBER=  1 Pr1        VCOUL-ZERO =  0.22758E-01
:EFG001:                        EFG         =    -7.63631   *10**21  V / m**2
                               V20  TOT/SRF=    -6.61324    -0.02486
                               V22  TOT/SRF=     0.80751     0.00285
                               V22M TOT/SRF=     0.00000     0.00000
                               V21  TOT/SRF=     0.00000     0.00000
                               V21M TOT/SRF=     0.00000     0.00000

              4.62567    0.00000    0.00000        4.62567    0.00000    0.00000
              0.00000    3.01064    0.00000        0.00000    3.01064    0.00000
              0.00000    0.00000   -7.63631        0.00000    0.00000   -7.63631

         MAIN DIRECTIONS OF THE EFG   1.0000  0.0000  0.0000
                                      0.0000  1.0000  0.0000
                                      0.0000  0.0000  1.0000
:ANG001:  ANGLE WITH OLD X-AXIS =         0.0

:ETA001:                         ASYMM. ETA =     0.21149


     HELLMANN-FEYNMAN-FORCE IN mRy/a.u. = |F|  Fx       Fy             Fz
:FHF001:   1.ATOM    494.849197412319      0.000000000000      0.000000000000   -494.849197412319

:FIT001: LUSE= 13 SIGMA OF V-XC FIT FOR ATOM  1  0.8227487E-05
:FIT001: LUSE= 13 SIGMA OF V-XC FIT FOR ATOM  1  0.8227487E-05
:DEN  : DENSITY INTEGRAL  =        -14142.71741432   (Ry)
       ELS_POTENTIAL_AT Z=0 and Z=0.5:   0.69721   0.69721
       ELS_POTENTIAL_AT Y=0 and Y=0.5:   0.07126   0.07126
:VZERO:v0,v0c,v0x   0.13309   0.69721  -0.56412 v5,v5c,v5x   0.13309   0.69721  -0.56412
:VZERY:v0,v0c,v0x  -0.68329   0.07126  -0.75454 v5,v5c,v5x  -0.68329   0.07126  -0.75454
:VZERX:v0,v0c,v0x  -1.10069  -0.37513  -0.72556 v5,v5c,v5x  -1.10069  -0.37513  -0.72556

------- case.scf1 --------
:LMAX-WF:   10   Non-Spherical LMAX:   4

          ATOMIC SPHERE DEPENDENT PARAMETERS FOR ATOM  Pr1       
:e__0001: OVERALL ENERGY PARAMETER IS    0.3916
          OVERALL BASIS SET ON ATOM IS LAPW
:E0_0001: E( 0)=    0.3916
             APW+lo
:E0_0001: E( 0)=   -2.0902   E(BOTTOM)=   -2.725   E(TOP)=   -1.456  4  5   172
             LOCAL ORBITAL
:E1_0001: E( 1)=    0.7916
             APW+lo
:E1_0001: E( 1)=   -0.6197   E(BOTTOM)=   -1.576   E(TOP)=    0.337  3  4   199
             LOCAL ORBITAL
:E3_0001: E( 3)=    0.5615   E(BOTTOM)=    0.354   E(TOP)=    0.769  0  1   116
             APW+lo
:E2_0001: E( 2)=    0.3916   E(BOTTOM)=    0.166   E(TOP)= -200.000  2 -1    95
             APW+lo

       K=   0.06250   0.00000   0.06250            1
:RKM  : MATRIX SIZE   463LOs:  40  RKM= 8.50  WEIGHT= 4.00  PGR:    
       EIGENVALUES ARE:
:EIG00001:      -2.0585443   -2.0467948   -0.7771504   -0.7100134   -0.6950663
:EIG00006:      -0.6900963   -0.6841723   -0.6839075    0.3567665    0.4963003
:EIG00011:       0.5746707    0.5749664    0.5751100    0.5784342    0.5811141
:EIG00016:       0.5898426    0.5943465    0.5946141    0.5973150    0.5994992
:EIG00021:       0.6035143    0.6061992    0.6070915    0.6105104    0.6528341
:EIG00026:       0.6677512    0.7406707    0.7584672    0.7759228    0.8135549
:EIG00031:       0.8294731    0.9079370    0.9521524    0.9926581    1.2708720
:EIG00036:       1.2945204    1.3829702    1.3839115    1.5390054    1.5900950
:EIG00041:       1.6442894    1.7468321    1.8179660    1.8345291    1.9243479
:EIG00046:       1.9855889    1.9972361    2.0513055    2.1098509    2.1967401
 
:EIG00051:       2.2464824    2.3010055    2.3163860    2.3829458    2.4082451
:EIG00056:       2.4890937    2.5290050    2.5416920    2.6392142    2.6866767
:EIG00061:       2.7559077    2.7674711    2.9012673    2.9835559    2.9891425
:EIG00066:       3.0866638    3.1452295    3.1561477    3.1664274    3.2463351
:EIG00071:       3.2486842    3.2993345    3.3256669    3.3740971    3.3919630
:EIG00076:       3.4306561    3.4657002    3.5033095    3.5295300    3.5549802
:EIG00081:       3.5878083    3.6303481    3.6402890    3.7004426    3.7341911
:EIG00086:       3.7642374    3.8513250    3.8513936    3.8855514    3.8991981
:EIG00091:       3.9325995    3.9586429    3.9992210    4.0062816    4.0170770
:EIG00096:       4.0694287    4.1031379    4.1085501    4.1225702    4.2035748
 
:EIG00101:       4.2684072    4.3950418    4.4020575    4.4637838    4.5000359
:EIG00106:       4.5061013    4.5522127    4.5592528    4.6043640    4.6361862
:EIG00111:       4.7180428    4.7323319    4.7575943    4.7834788    4.8409048
:EIG00116:       4.8799615    4.9561064    4.9645392    4.9967410    5.0259672
:EIG00121:       5.0394315    5.1277846    5.1605705    5.1867780    5.2324208
:EIG00126:       5.3182724    5.3331606    5.3680432    5.4108599    5.4460148
:EIG00131:       5.4489010    5.5165085    5.5473110    5.5474385    5.5730488
:EIG00136:       5.6424551    5.6803000    5.7305784    5.7427558    5.7723529
:EIG00141:       5.7867170    5.7994523    5.8458870    5.8878149    5.9361428
:EIG00146:       5.9425722    5.9486276    5.9531429    5.9737951    6.0635591
 
:EIG00151:       6.1032331    6.1071445    6.1941304    6.2042984    6.2599834
:EIG00156:       6.3546222    6.4421377    6.4681834    6.5020045    6.5198114
:EIG00161:       6.5848410    6.6175303    6.6654310    6.6885097    6.6902372
:EIG00166:       6.7578328    6.7739019    6.7834604    6.8208818    6.8668937
:EIG00171:       6.8823710    6.9466133    6.9787397    6.9826465    7.0438954
:EIG00176:       7.0636002    7.0726890    7.1223925    7.1347006    7.1732224
:EIG00181:       7.2308542    7.2437623    7.2583968    7.2734701    7.3244518
:EIG00186:       7.3350695    7.3564119    7.4486904    7.4656751    7.4691457
:EIG00191:       7.5050074    7.5258918    7.5841604    7.5856125    7.6136268
:EIG00196:       7.6220202    7.6386701    7.6756741    7.6802362    7.7280437
 
:EIG00201:       7.7290109    7.7851981    7.7992834    7.8220120    7.8860611
:EIG00206:       7.8920241    7.9029777    7.9535604    7.9914590    8.0034805
:EIG00211:       8.0204271    8.0693801    8.0822208
       ********************************************************

:KPT   :      NUMBER OF K-POINTS:   288

------- case.scfso --------
   0.0   0.0 angle (M,z), angle (M,x) deg
 
        SPIN-ORBIT EIGENVALUES:
     K=   0.06250   0.00000   0.06250            1
      MATRIX SIZE=  426   WEIGHT= 4.00
     EIGENVALUES ARE:
          -2.0585445   -2.0585445   -2.0467949   -2.0467949   -0.8712990
          -0.8712989   -0.8375369   -0.8375369   -0.6834721   -0.6834721
          -0.6271013   -0.6271013   -0.6242787   -0.6242787   -0.6173264
          -0.6173264    0.3567985    0.3567985    0.4961618    0.4961618
           0.5668515    0.5668515    0.5691088    0.5691088    0.5705723
           0.5705723    0.5719725    0.5719725    0.5743638    0.5743638
           0.5772401    0.5772401    0.5951911    0.5951912    0.6009416
           0.6009416    0.6034799    0.6034799    0.6050948    0.6050948

           0.6083183    0.6083183    0.6120906    0.6120906    0.6133588
           0.6133588    0.6167808    0.6167808    0.6532936    0.6532936
           0.6675599    0.6675599    0.7398532    0.7398533    0.7581168
           0.7581168    0.7767191    0.7767192    0.8140634    0.8140634
           0.8294931    0.8294931    0.9077568    0.9077568    0.9524490
           0.9524490    0.9927907    0.9927907    1.2707850    1.2707850
           1.2948188    1.2948188    1.3827517    1.3827517    1.3841428
           1.3841428    1.5385647    1.5385647    1.5895176    1.5895176

           1.6442311    1.6442311    1.7450451    1.7450451    1.8164826
           1.8164826    1.8358229    1.8358229    1.9248400    1.9248400
           1.9851701    1.9851701    1.9952308    1.9952308    2.0522013
           2.0522013    2.1104601    2.1104601    2.1963148    2.1963148
           2.2460871    2.2460871    2.2982639    2.2982639    2.3183569
           2.3183569    2.3836331    2.3836331    2.4095615    2.4095615
           2.4890064    2.4890064    2.5280909    2.5280909    2.5430357
           2.5430357    2.6393172    2.6393172    2.6864026    2.6864026

           2.7589532    2.7589532    2.7682376    2.7682376    2.9011760
           2.9011760    2.9835023    2.9835023    2.9894175    2.9894175
           3.0865530    3.0865530    3.1450010    3.1450010    3.1565955
           3.1565955    3.1662589    3.1662589    3.2462908    3.2462908
           3.2490120    3.2490120    3.2993539    3.2993539    3.3257225
           3.3257225    3.3734902    3.3734902    3.3927566    3.3927566
           3.4308503    3.4308503    3.4671288    3.4671288    3.5033869
           3.5033869    3.5296117    3.5296117    3.5553669    3.5553669

           3.5879864    3.5879864    3.6303635    3.6303635    3.6404976
           3.6404976    3.7005909    3.7005909    3.7342479    3.7342479
           3.7643470    3.7643470    3.8512034    3.8512034    3.8516267
           3.8516267    3.8855565    3.8855565    3.8992538    3.8992538
           3.9326190    3.9326190    3.9586942    3.9586942    3.9991609
           3.9991609    4.0061392    4.0061392    4.0170633    4.0170633
           4.0694549    4.0694549    4.1025081    4.1025081    4.1092958
           4.1092958    4.1226613    4.1226613    4.2036278    4.2036278

           4.2682616    4.2682616    4.3930685    4.3930685    4.4033067
           4.4033067    4.4645537    4.4645537    4.4999355    4.4999355

       ********************************************************

------- case.scf2 --------
:GMA  : POTENTIAL AND CHARGE CUT-OFF  12.00 Ry**.5




:POS001: at.nr.  -1 position = 0.00000 0.89750 0.25000  multiplicity =  2

       lmmax 16
       lm=   0 0  1 0  2 0  2 2  3 0  3 2  4 0  4 2  4 4  5 0  5 2  5 4  6 0  6 2  6 4  6 6
:FER gutzwiller fermi energy   0.60783
:EORB         -0.253078498
:SUM sum of gutz band energies        -11.242892041

:CHA001: total charge inside sphere   1 =     9.494475
:PCS001: partial charges sphere =  1 s,p,d,f,px,py,pz,d-z2,d-x2y2,d-xy,d-xz,d-yz 
:QTL001: 1.9435 5.0318 0.5534 1.9655 1.6739 1.6751 1.6828 0.1032 0.1041 0.1198 0.1059 0.1204

                      vxx         vyy         vzz       up to r

:VZZ001:             4.60638     3.00038    -7.60676       2.300

:CHA  : total charge inside unit cell =      13.000000

------- case.scfc --------

        1.ATOM      Pr1                  14 CORE STATES
       CORE-FORCE in mRy/a.u. = |F|      Fx             Fy             Fz
:FCO001:   1.ATOM    477.856978770575      0.000000000000      0.000000000000    477.856978770575

:1S 001: 1S               -3067.021780897 Ry
:2S 001: 2S                -492.775676578 Ry
:2PP001: 2P*               -465.874609293 Ry
:2P 001: 2P                -430.477195478 Ry
:3S 001: 3S                -105.867191290 Ry
:3PP001: 3P*                -94.404956442 Ry
:3P 001: 3P                 -87.397192356 Ry
:3DD001: 3D*                -67.324025740 Ry
:3D 001: 3D                 -65.812488615 Ry
:4S 001: 4S                 -20.545382089 Ry
:4PP001: 4P*                -16.252128537 Ry
:4P 001: 4P                 -14.724698758 Ry
:4DD001: 4D*                 -7.657459039 Ry
:4D 001: 4D                  -7.388032481 Ry

------- case.scfm --------
:CINT001 Core Integral Atom   1   45.998497

       DENSITY AT NUCLEUS
        JATOM        VALENCE       SEMI-CORE          CORE           TOTAL
:RTO001:   1      650.044127        0.000000   656824.340963   657474.385090
     
       CHARGES OF NEW CHARGE DENSITY
:NTO   : INTERSTITIAL CHARGE =     7.011494
:NPC   : PW Pseudocharge     =    16.969297
:NTO001: CHARGE SPHERE  1    =    55.492972

:NEC01: NUCLEAR AND ELECTRONIC CHARGE    118.00000   117.99744
     
       CHARGES OF OLD CHARGE DENSITY
:OTO   : INTERSTITIAL CHARGE =     7.014134
:OPC   : PW Pseudocharge     =    16.975764
:OTO001: CHARGE SPHERE  1    =    55.492933

:NEC02: NUCLEAR AND ELECTRONIC CHARGE    118.00000   118.00000
     
       CONVERGENCE TEST
:DTO001: DIFFERENCE IN SPHERE  1 =  0.0000594

:DIS  :  CHARGE DISTANCE       ( 0.0000594 for atom    1 spin 1)      0.0000594
 PW Mixed is          517
 
******************************************************
* MULTISECANT MIXING VER9 RELEASE 10.4.0              *
* Standard Mode with controls                        *
* Fixed density scale                                *
* Regularization       1.000E-04                     *
* Trust Upper Limit    5.000E+00                     *
* Max Number of Memory Steps    8                    *
******************************************************
 
:PWTMP   4.0015E+02  1.9467E+02  5.0208E+02
:PLANE:  PW TOTAL      4.5604 DISTAN   6.91E-05  1.52E-03 %
:CHARG:  CLM/ATOM   1381.9558 DISTAN   2.23E-04  1.61E-05 %
 
Step History
        DMIX         DMIXT        Red     Pred      Trust     Lambda    MagRel    MagAbs     Beta
  1   3.5000E-02   3.5000E-02 -1.00E+00  1.00E+00 -1.00E+01  1.00E+00  3.50E-02  3.50E-02  1.00E+00
  2   1.5000E-01   1.5000E-01  5.59E-01  1.00E+00 -1.00E+01  1.00E+00  1.50E-01  7.21E-04  1.00E+00
  3   7.1250E-02   7.1250E-02  5.34E-01  6.13E-01  3.00E+00  2.63E+00  2.57E-01  6.90E-04  1.00E+00
  4   1.0311E-01   1.0311E-01  5.83E-01  6.39E-01  4.00E+00  2.60E+00  3.38E-01  4.86E-04  8.00E-01
  5   1.6314E-01   1.6314E-01 -1.00E+00  2.86E-01  5.33E+00  1.00E+00  4.39E-01  3.67E-04  1.00E+00
:JACOBIANS    6.603E-02   6.570E-01
  
:NORMS:  1/Froebius, Min, Max, Used   0.4317E+00  0.2966E+00  0.4975E+00  0.4581E+00
:INFO :  Number of Memory Steps    4 Skipping    0
:INFO :  SLambda=    0.7982394354  Max    0.7982394354
:PREDicted Charge, CTotal, PW Trust    3.674E-06   7.348E-06   2.013E-05
:PREDicted DMix, Beta, BLim   5.8895E-02  9.9140E-01  2.2094E+00

Eigenvalues, unscaled except for SY+YY
   #     SY Real        SY Imag          SS             YY         SY+YY Real      SY+YY Imag
   1   6.592534E-01   8.272268E-02   6.308763E-01   3.005923E+00   3.697557E+00   0.000000E+00
   2   6.592534E-01  -8.272268E-02   1.139911E-01   9.793676E-01   1.340085E+00   0.000000E+00
   3   1.771768E-05   0.000000E+00   4.919012E-04   1.465906E-02   6.426937E-05   0.000000E+00
   4   1.377845E-03   0.000000E+00   1.028204E-05   5.077593E-05   1.589183E-02   0.000000E+00
 
:INFO :  Singular value  3.734E+00 Weight  1.000E+00 Projection -8.155E-06
:INFO :  Singular value  1.327E+00 Weight  1.000E+00 Projection  1.582E-05
:INFO :  Singular value  1.589E-02 Weight  9.996E-01 Projection  2.529E-04
:INFO :  Singular value  6.427E-05 Weight  4.371E-02 Projection -9.594E-04
:RANK :  ACTIVE   3.04/4  =  76.08 % ; YY RANK   3.03/4  =  75.68 %
 
:DLIM :  Beta Active  9.936E-01
:BLIM :  VZERO Control Off
:TRUST:  Step 7.11E+00  Charge 6.00E-02 (e) CTO  2.00E-01 (e) PW  2.80E-01 (e)
:DIRM :  MEMORY  4/8  SCALE   1.000 RED  0.28 PRED  0.29 NEXT  0.97 BETA  0.99
:TRAVE:  Charge 5.29E-05 (e) CTO  1.06E-04 (e) PW  6.17E-05 (e)
:DIRP :  |MSR1|= 6.454E-06 |PRATT|= 6.910E-05 ANGLE=  12.5 DEGREES
:DIRQ :  |MSR1|= 2.641E-05 |PRATT|= 2.225E-04 ANGLE=  27.3 DEGREES
:DIRT :  |MSR1|= 2.719E-05 |PRATT|= 2.330E-04 ANGLE=  26.7 DEGREES
:MIX  :   MSD1   REGULARIZATION:  3.01E-04 GREED: 0.09336  Newton 1.00  0.1167                
     
       CHARGES OF MIXED CHARGE DENSITY
:CTO   : INTERSTITIAL CHARGE =     7.014134
:CPC   : PW Pseudocharge     =    16.975741
:CTO001: CHARGE SPHERE  1    =    55.492933

:NEC03: NUCLEAR AND ELECTRONIC CHARGE    118.00000   118.00000

PW CHANGE     H    K    L      Current       Change    Residue
:PTO001:      0    0    0  4.77813639E-02 -4.653E-08 -6.880E-07
:PTO003:      0    2    0  1.34408704E-02 -2.480E-08 -2.748E-07
:PTO004:     -1    1    0  6.69342876E-02 -9.094E-08 -9.999E-07
:PTO005:      0    2   -1 -7.81496523E-02  1.019E-07  1.103E-06
:PTO006:      0    0   -2 -4.04744024E-02  4.132E-08  4.766E-07
:PTO007:     -1    1   -1 -8.53959736E-02  1.389E-07  1.480E-06
:PTO008:      0    2   -2 -1.42991028E-02  8.130E-09  1.262E-07
:PTO009:     -1    1   -2 -7.34441292E-02  7.869E-08  8.154E-07
:PTO011:     -1    3    0 -1.22253736E-02  2.403E-08  2.599E-07
:PTO012:     -1    3   -1 -5.53468335E-02  2.147E-08  3.642E-07
:PTO013:      0    4    0 -1.02687942E-02 -1.012E-08 -5.364E-08
:PTO014:      0    2   -3  2.33590224E-02 -2.236E-08 -2.503E-07

:ENE  : ********** TOTAL ENERGY IN Ry =       -36944.23110948

       TOTAL FORCE IN mRy/a.u. = |F|     Fx             Fy             Fz     with/without FOR in case.in2
:FOR001:   1.ATOM         16.992          0.000          0.000        -16.992 partial forces
       TOTAL FORCE WITH RESPECT TO GLOBAL CARTESIAN COORDINATES:
:FCA001:   1.ATOM                         0.000        -16.992          0.000 partial forces
       TOTAL FORCE WITH RESPECT TO THE GLOBAL COORDINATE SYSTEM:
:FGL001:   1.ATOM                 0.000000000   -16.992218642     0.000000000 partial forces
