
:LABEL1: Calculations in /home/ykent/GWIEN/example/Pr/aU/V1/case
:LABEL2: on didymium-2.cmpgroup.ameslab.gov at Fri Jul 10 14:12:04 CDT 2020
:LABEL3: using WIEN2k_19.1 (Release 25/6/2019) in /home/ykent/opt/src/WIEN2k_19.1
:LABEL4: using the command: run_lapw -so -i 70 -cc 0.0001

:LABEL1: Calculations in /home/ykent/GWIEN/example/Pr/aU/V1/case
:LABEL2: on didymium-2.cmpgroup.ameslab.gov at Fri Jul 10 14:12:28 CDT 2020
:LABEL3: using WIEN2k_19.1 (Release 25/6/2019) in /home/ykent/opt/src/WIEN2k_19.1
:LABEL4: using the command: run_lapw -so -i 70 -cc 0.0001
 Flat Integration
 New Mode for Coulomb Integral
 Consistent 3/8+Simpson combinations
 Extension of core to zero
 LDM version in phi
 Fifth-order quadrature in outwin


            ---------
:ITE014: 14. ITERATION
            ---------

:NATO :    1 INDEPENDENT AND    2 TOTAL ATOMS IN UNITCELL
       SUBSTANCE: aU                                                          

       LATTICE                      = CXY 
:POT  : POTENTIAL OPTION EX_LDA EC_LDA VX_LDA VC_LDA
:LAT  : LATTICE CONSTANTS=  4.91110  9.96586  8.60374    1.571    1.571    1.571
:VOL  : UNIT CELL VOLUME =     210.54799
       MODE OF CALCULATION IS       = RELA
       NON-SPINPOLARIZED CALCULATION
:IFFT  : FFT-parameters:   40   80   72 Factor: 2.00


   CONVERGENCE PARAMETER FOR PSEUDOCHARGE: NCON=  9
   MAXIMAL VALUE OF RMT(JATOM)*ABSK(NKK) : RK  =27.58737


:VKCOUL :  VK-COUL convergence: 0.328E-06
       ATOMNUMBER=  1 Pr1        VCOUL-ZERO =  0.98892E+00
:EFG001:                        EFG         =     9.57772   *10**21  V / m**2
                               V20  TOT/SRF=    -2.54815    -0.10271
                               V22  TOT/SRF=    -8.10655    -0.01121
                               V22M TOT/SRF=     0.00000     0.00000
                               V21  TOT/SRF=     0.00000     0.00000
                               V21M TOT/SRF=     0.00000     0.00000

             -6.63537    0.00000    0.00000       -6.63537    0.00000    0.00000
              0.00000    9.57772    0.00000        0.00000    9.57772    0.00000
              0.00000    0.00000   -2.94235        0.00000    0.00000   -2.94235

         MAIN DIRECTIONS OF THE EFG   1.0000  0.0000  0.0000
                                      0.0000  1.0000  0.0000
                                      0.0000  0.0000  1.0000
:ANG001:  ANGLE WITH OLD X-AXIS =         0.0

:ETA001:                         ASYMM. ETA =     0.38558


     HELLMANN-FEYNMAN-FORCE IN mRy/a.u. = |F|  Fx       Fy             Fz
:FHF001:   1.ATOM   1226.217142743855      0.000000000000      0.000000000000  -1226.217142743855

:FIT001: LUSE= 13 SIGMA OF V-XC FIT FOR ATOM  1  0.4087711E-03
:FIT001: LUSE= 13 SIGMA OF V-XC FIT FOR ATOM  1  0.4087711E-03
:DEN  : DENSITY INTEGRAL  =        -14264.14758734   (Ry)
       ELS_POTENTIAL_AT Z=0 and Z=0.5:   1.20044   1.20044
       ELS_POTENTIAL_AT Y=0 and Y=0.5:  -0.08002  -0.08002
:VZERO:v0,v0c,v0x   0.34248   1.20044  -0.85797 v5,v5c,v5x   0.34248   1.20044  -0.85797
:VZERY:v0,v0c,v0x  -1.16120  -0.08002  -1.08118 v5,v5c,v5x  -1.16120  -0.08002  -1.08118
:VZERX:v0,v0c,v0x  -1.39672  -0.39038  -1.00633 v5,v5c,v5x  -1.39672  -0.39038  -1.00633
:LMAX-WF:   10   Non-Spherical LMAX:   4

          ATOMIC SPHERE DEPENDENT PARAMETERS FOR ATOM  Pr1       
:e__0001: OVERALL ENERGY PARAMETER IS    1.3650
          OVERALL BASIS SET ON ATOM IS LAPW
:E0_0001: E( 0)=    1.3650
             APW+lo
:E0_0001: E( 0)=   -1.0511   E(BOTTOM)=   -1.704   E(TOP)=   -0.398  4  5   278
             LOCAL ORBITAL
:E1_0001: E( 1)=    1.7650
             APW+lo
:E1_0001: E( 1)=    0.4100   E(BOTTOM)=   -0.571   E(TOP)=    1.391  3  4   284
             LOCAL ORBITAL
:E3_0001: E( 3)=    1.6071   E(BOTTOM)=    1.391   E(TOP)=    1.823  0  1   126
             APW+lo
:E2_0001: E( 2)=    1.3650   E(BOTTOM)=    1.153   E(TOP)= -200.000  2 -1   123
             APW+lo

       K=   0.06250   0.00000   0.06250            1
:RKM  : MATRIX SIZE   214LOs:  40  RKM= 8.50  WEIGHT= 4.00  PGR:    
       EIGENVALUES ARE:
:EIG00001:      -1.2049481   -1.0242142   -0.0790644    0.3740736    0.4880190
:EIG00006:       0.5303102    0.5698583    0.5808209    1.3722504    1.4995723
:EIG00011:       1.5082116    1.5134123    1.5383653    1.5586862    1.5845940
:EIG00016:       1.6086686    1.6267836    1.6348902    1.6471343    1.6544933
:EIG00021:       1.6689789    1.6772785    1.6857424    1.7176582    1.7376685
:EIG00026:       1.8035808    1.8516852    1.8718436    1.9591190    2.0173178
:EIG00031:       2.1324434    2.3373777    2.4864789    2.5048325    2.7652953
:EIG00036:       2.8079928    2.8570435    3.1733999    3.2469484    3.4875870
:EIG00041:       3.6658520    3.7074715    3.8671107    3.9728604    4.1140792
:EIG00046:       4.1198862    4.1726603    4.3569271    4.3833921    4.5171850
 
:EIG00051:       4.6801863    4.8744660    5.0244962    5.1250274    5.2239309
:EIG00056:       5.3522235    5.4335481    5.5811991    5.6268424    5.6805762
:EIG00061:       5.7911658    5.8153390    6.0454685    6.0859759    6.0936535
:EIG00066:       6.1540607    6.2220290    6.3337269    6.3649062    6.5138093
:EIG00071:       6.5245693    6.7219274    6.7264074    6.7411693    6.7497680
:EIG00076:       6.7696842    6.8369681    6.9006019    6.9173855    6.9999553
:EIG00081:       7.0054106    7.1235991    7.1589111    7.2637567    7.3920754
:EIG00086:       7.4389271    7.5276379    7.5302356    7.6471552    7.7291556
:EIG00091:       7.8851012    7.8933508    7.9561943    7.9751882    8.0052905
:EIG00096:       8.1336641    8.1748207    8.3190669    8.4209624    8.4430888
 
:EIG00101:       8.4567339    8.5155836    8.5195440    8.6366172    8.6996556
:EIG00106:       8.8650515    9.0393284
       ********************************************************

:KPT   :      NUMBER OF K-POINTS:   288
   0.0   0.0 angle (M,z), angle (M,x) deg
 
        SPIN-ORBIT EIGENVALUES:
     K=   0.06250   0.00000   0.06250            1
      MATRIX SIZE=  214   WEIGHT= 4.00
     EIGENVALUES ARE:
          -1.2049555   -1.2049555   -1.0242243   -1.0242243   -0.0967780
          -0.0967780    0.3494699    0.3494699    0.3664959    0.3664959
           0.5843874    0.5843874    0.6050863    0.6050863    0.6349458
           0.6349458    1.3722408    1.3722408    1.4988381    1.4988381
           1.5072489    1.5072489    1.5125173    1.5125173    1.5376594
           1.5376594    1.5580881    1.5580881    1.5837541    1.5837541
           1.6060517    1.6060517    1.6232313    1.6232313    1.6342995
           1.6342996    1.6489375    1.6489375    1.6571352    1.6571352

           1.6697345    1.6697345    1.6779796    1.6779796    1.6873088
           1.6873088    1.7190368    1.7190368    1.7388269    1.7388269
           1.8035952    1.8035952    1.8499509    1.8499509    1.8738955
           1.8738955    1.9596976    1.9596976    2.0174616    2.0174616
           2.1327303    2.1327303    2.3376117    2.3376117    2.4857514
           2.4857514    2.5059553    2.5059553    2.7660429    2.7660429
           2.8081814    2.8081814    2.8571114    2.8571114    3.1732615
           3.1732615    3.2465646    3.2465646    3.4869751    3.4869751

           3.6659638    3.6659638    3.7077838    3.7077838    3.8675660
           3.8675660    3.9724663    3.9724663    4.1136973    4.1136973
           4.1198436    4.1198436    4.1730191    4.1730191    4.3557598
           4.3557598    4.3850564    4.3850564
       ********************************************************
:GAP (global)   :    0.0    Ry =     0.0   eV (metal)
:GAP (this spin):    0.0    Ry =     0.0   eV (metal)
         Bandranges (emin - emax) and occupancy:
:BAN00022:  22    1.372953    1.561562  1.00000000
:BAN00023:  23    1.431630    1.572195  0.95864145
:BAN00024:  24    1.431630    1.572195  0.95864144
:BAN00025:  25    1.501634    1.607206  0.60445437
:BAN00026:  26    1.501634    1.607206  0.60445436
:BAN00027:  27    1.523508    1.624316  0.34850559
:BAN00028:  28    1.523508    1.624316  0.34850558
:BAN00029:  29    1.539882    1.628282  0.08775187
:BAN00030:  30    1.539882    1.628282  0.08775185
:BAN00031:  31    1.563314    1.634709  0.00064674
:BAN00032:  32    1.563314    1.634709  0.00064674
:BAN00033:  33    1.608989    1.653394  0.00000000
:BAN00034:  34    1.608989    1.653394  0.00000000
:BAN00035:  35    1.622929    1.661948  0.00000000
:BAN00036:  36    1.622929    1.661948  0.00000000
:BAN00037:  37    1.641516    1.674814  0.00000000
        Energy to separate low and high energystates:    1.14929


:NOE  : NUMBER OF ELECTRONS          =   26.000

:FER  : F E R M I - ENERGY(TETRAH.M.)=   1.5636918340
:GMA  : POTENTIAL AND CHARGE CUT-OFF  12.00 Ry**.5

:POS001: ATOM   -1 X,Y,Z = 0.00000 0.89750 0.25000  MULT= 2  ZZ= 59.000  Pr1       

       LMMAX 16
       LM=   0 0  1 0  2 0  2 2  3 0  3 2  4 0  4 2  4 4  5 0  5 2  5 4  6 0  6 2  6 4  6 6

:CHA001: TOTAL VALENCE CHARGE INSIDE SPHERE   1 =  10.2542    (RMT=  2.3000 )
:PCS001: PARTIAL CHARGES SPHERE =  1 S,P,D,F,PX,PY,PZ,D-Z2,D-X2Y2,D-XY,D-XZ,D-YZ 
:QTL001: 1.9199 4.9511 1.1391 2.2318 1.6552 1.6458 1.6502 0.2242 0.2033 0.2355 0.2352 0.2409
        Q-s-low E-s-low   Q-p-low E-p-low   Q-d-low E-d-low   Q-f-low E-f-low
:EPL001:  1.8759 -0.9979    4.8331  0.2733    0.0841  0.2377    0.0303  0.2522
        Q-s-hi  E-s-hi    Q-p-hi  E-p-hi    Q-d-hi  E-d-hi    Q-f-hi  E-f-hi 
:EPH001:  0.0440  1.4334    0.1180  1.4519    1.0550  1.4201    2.2015  1.5030

                      VXX         VYY         VZZ       UP TO R
:VZZ001:            -6.61610     9.44671    -2.83061       2.300

:CHA  : TOTAL VALENCE CHARGE INSIDE UNIT CELL =      26.000000

:SUM  : SUM OF EIGENVALUES =          13.693139964


        1.ATOM      Pr1                  14 CORE STATES
       CORE-FORCE in mRy/a.u. = |F|      Fx             Fy             Fz
:FCO001:   1.ATOM   1217.315184140504      0.000000000000      0.000000000000   1217.315184140504

:1S 001: 1S               -3065.979818179 Ry
:2S 001: 2S                -491.729377814 Ry
:2PP001: 2P*               -464.828178463 Ry
:2P 001: 2P                -429.430754841 Ry
:3S 001: 3S                -104.829471092 Ry
:3PP001: 3P*                -93.366954303 Ry
:3P 001: 3P                 -86.359316718 Ry
:3DD001: 3D*                -66.284745810 Ry
:3D 001: 3D                 -64.773324732 Ry
:4S 001: 4S                 -19.496628673 Ry
:4PP001: 4P*                -15.202560078 Ry
:4P 001: 4P                 -13.673929406 Ry
:4DD001: 4D*                 -6.604849830 Ry
:4D 001: 4D                  -6.335089139 Ry
:CINT001 Core Integral Atom   1   45.998418

       DENSITY AT NUCLEUS
        JATOM        VALENCE       SEMI-CORE          CORE           TOTAL
:RTO001:   1      631.320188        0.000000   656826.518958   657457.839146
     
       CHARGES OF NEW CHARGE DENSITY
:NTO   : INTERSTITIAL CHARGE =     5.491675
:NPC   : PW Pseudocharge     =    18.355706
:NTO001: CHARGE SPHERE  1    =    56.252569

:NEC01: NUCLEAR AND ELECTRONIC CHARGE    118.00000   117.99681
     
       CHARGES OF OLD CHARGE DENSITY
:OTO   : INTERSTITIAL CHARGE =     5.499075
:OPC   : PW Pseudocharge     =    18.385885
:OTO001: CHARGE SPHERE  1    =    56.250463

:NEC02: NUCLEAR AND ELECTRONIC CHARGE    118.00000   118.00000
     
       CONVERGENCE TEST
:DTO001: DIFFERENCE IN SPHERE  1 =  0.0155338

:DIS  :  CHARGE DISTANCE       ( 0.0155338 for atom    1 spin 1)      0.0155338
 PW Mixed is          232
 
******************************************************
* MULTISECANT MIXING VER9 RELEASE 10.4.0              *
* Standard Mode with controls                        *
* Fixed density scale                                *
* Regularization       1.000E-04                     *
* Trust Upper Limit    5.000E+00                     *
* Max Number of Memory Steps    8                    *
******************************************************
 
:INFO : Forcing a restart
:PWTMP   1.0862E+02  1.9467E+02  2.1055E+02
:PLANE:  PW TOTAL      5.5089 DISTAN   5.67E-03  1.03E-01 %
:CHARG:  CLM/ATOM   1381.9278 DISTAN   2.28E-02  1.65E-03 %
 
Step History
        DMIX         DMIXT        Red     Pred      Trust     Lambda    MagRel    MagAbs     Beta
  1   3.5000E-02   3.5000E-02 -1.00E+00  1.00E+00 -1.00E+01  1.00E+00  3.50E-02  3.50E-02  1.00E+00
:INFO :  Note, Pratt in use
:TRUST:  Step 2.25E-01  Charge 7.50E-02 (e) CTO  2.50E-01 (e) PW  3.50E-01 (e)
:DIRM :  MEMORY  0/ 8 SCALE   1.000
Performing Pseudo Compensation
Final Pseudo Compensation Rescaling     1.00000E+00
:MIX  :   PRATT  REGULARIZATION:  1.00E-04 GREED: 0.15000                  
     
       CHARGES OF MIXED CHARGE DENSITY
:CTO   : INTERSTITIAL CHARGE =     5.498443
:CPC   : PW Pseudocharge     =    18.378280
:CTO001: CHARGE SPHERE  1    =    56.250779

:NEC03: NUCLEAR AND ELECTRONIC CHARGE    118.00000   118.00000

PW CHANGE     H    K    L      Current       Change    Residue
:PTO001:      0    0    0  1.13402758E-01 -3.912E-05 -1.127E-04
:PTO003:      0    2    0  2.24621687E-02 -7.482E-06 -1.707E-05
:PTO004:     -1    1    0  9.78269765E-02 -2.907E-05 -6.220E-05
:PTO005:      0    2   -1 -1.10087479E-01  2.990E-05  5.367E-05
:PTO006:      0    0   -2 -5.67706912E-02  1.579E-05  3.012E-05
:PTO007:     -1    1   -1 -1.07205784E-01  2.496E-05  5.474E-05
:PTO008:      0    2   -2 -1.18893378E-02 -1.316E-06 -2.915E-06
:PTO009:     -1    1   -2 -5.77812119E-02 -1.845E-05 -3.935E-05
:PTO011:     -1    3    0 -7.17377317E-03 -7.691E-06 -1.434E-05
:PTO012:     -1    3   -1 -2.59734193E-02 -5.010E-05 -1.068E-04
:PTO013:      0    4    0 -3.65877065E-03 -1.170E-05 -2.121E-05
:PTO014:      0    2   -3  8.86646934E-03  2.591E-05  4.314E-05

:ENE  : ********** TOTAL ENERGY IN Ry =       -36944.31614108

       TOTAL FORCE IN mRy/a.u. = |F|     Fx             Fy             Fz     with/without FOR in case.in2
:FOR001:   1.ATOM          8.902          0.000          0.000         -8.902 partial forces
       TOTAL FORCE WITH RESPECT TO GLOBAL CARTESIAN COORDINATES:
:FCA001:   1.ATOM                         0.000         -8.902          0.000 partial forces
       TOTAL FORCE WITH RESPECT TO THE GLOBAL COORDINATE SYSTEM:
:FGL001:   1.ATOM                 0.000000000    -8.901958603     0.000000000 partial forces
 Flat Integration
 New Mode for Coulomb Integral
 Consistent 3/8+Simpson combinations
 Extension of core to zero
 LDM version in phi
 Fifth-order quadrature in outwin


            ---------
:ITE015: 15. ITERATION
            ---------

:NATO :    1 INDEPENDENT AND    2 TOTAL ATOMS IN UNITCELL
       SUBSTANCE: aU                                                          

       LATTICE                      = CXY 
:POT  : POTENTIAL OPTION EX_LDA EC_LDA VX_LDA VC_LDA
:LAT  : LATTICE CONSTANTS=  4.91110  9.96586  8.60374    1.571    1.571    1.571
:VOL  : UNIT CELL VOLUME =     210.54799
       MODE OF CALCULATION IS       = RELA
       NON-SPINPOLARIZED CALCULATION
:IFFT  : FFT-parameters:   40   80   72 Factor: 2.00


   CONVERGENCE PARAMETER FOR PSEUDOCHARGE: NCON=  9
   MAXIMAL VALUE OF RMT(JATOM)*ABSK(NKK) : RK  =27.58737


:VKCOUL :  VK-COUL convergence: 0.328E-06
       ATOMNUMBER=  1 Pr1        VCOUL-ZERO =  0.98853E+00
:EFG001:                        EFG         =     9.56802   *10**21  V / m**2
                               V20  TOT/SRF=    -2.55320    -0.10267
                               V22  TOT/SRF=    -8.09393    -0.01120
                               V22M TOT/SRF=     0.00000     0.00000
                               V21  TOT/SRF=     0.00000     0.00000
                               V21M TOT/SRF=     0.00000     0.00000

             -6.61983    0.00000    0.00000       -6.61983    0.00000    0.00000
              0.00000    9.56802    0.00000        0.00000    9.56802    0.00000
              0.00000    0.00000   -2.94819        0.00000    0.00000   -2.94819

         MAIN DIRECTIONS OF THE EFG   1.0000  0.0000  0.0000
                                      0.0000  1.0000  0.0000
                                      0.0000  0.0000  1.0000
:ANG001:  ANGLE WITH OLD X-AXIS =         0.0

:ETA001:                         ASYMM. ETA =     0.38374


     HELLMANN-FEYNMAN-FORCE IN mRy/a.u. = |F|  Fx       Fy             Fz
:FHF001:   1.ATOM   1226.508195322314      0.000000000000      0.000000000000  -1226.508195322314

:FIT001: LUSE= 13 SIGMA OF V-XC FIT FOR ATOM  1  0.4093238E-03
:FIT001: LUSE= 13 SIGMA OF V-XC FIT FOR ATOM  1  0.4093238E-03
:DEN  : DENSITY INTEGRAL  =        -14264.34407364   (Ry)
       ELS_POTENTIAL_AT Z=0 and Z=0.5:   1.20003   1.20003
       ELS_POTENTIAL_AT Y=0 and Y=0.5:  -0.08004  -0.08004
:VZERO:v0,v0c,v0x   0.34210   1.20003  -0.85793 v5,v5c,v5x   0.34210   1.20003  -0.85793
:VZERY:v0,v0c,v0x  -1.16108  -0.08004  -1.08104 v5,v5c,v5x  -1.16108  -0.08004  -1.08104
:VZERX:v0,v0c,v0x  -1.39644  -0.39018  -1.00627 v5,v5c,v5x  -1.39644  -0.39018  -1.00627
:LMAX-WF:   10   Non-Spherical LMAX:   4

          ATOMIC SPHERE DEPENDENT PARAMETERS FOR ATOM  Pr1       
:e__0001: OVERALL ENERGY PARAMETER IS    1.3641
          OVERALL BASIS SET ON ATOM IS LAPW
:E0_0001: E( 0)=    1.3641
             APW+lo
:E0_0001: E( 0)=   -1.0508   E(BOTTOM)=   -1.704   E(TOP)=   -0.398  4  5   276
             LOCAL ORBITAL
:E1_0001: E( 1)=    1.7641
             APW+lo
:E1_0001: E( 1)=    0.4103   E(BOTTOM)=   -0.571   E(TOP)=    1.391  3  4   285
             LOCAL ORBITAL
:E3_0001: E( 3)=    1.6081   E(BOTTOM)=    1.392   E(TOP)=    1.824  0  1   119
             APW+lo
:E2_0001: E( 2)=    1.3641   E(BOTTOM)=    1.153   E(TOP)= -200.000  2 -1   120
             APW+lo

       K=   0.06250   0.00000   0.06250            1
:RKM  : MATRIX SIZE   214LOs:  40  RKM= 8.50  WEIGHT= 4.00  PGR:    
       EIGENVALUES ARE:
:EIG00001:      -1.2047494   -1.0239394   -0.0790638    0.3742255    0.4882098
:EIG00006:       0.5304941    0.5700671    0.5810232    1.3721156    1.5000639
:EIG00011:       1.5088369    1.5141255    1.5390180    1.5590412    1.5849145
:EIG00016:       1.6095442    1.6277057    1.6358581    1.6480362    1.6554263
:EIG00021:       1.6697561    1.6782534    1.6864969    1.7187534    1.7384062
:EIG00026:       1.8039824    1.8516866    1.8721192    1.9591906    2.0173743
:EIG00031:       2.1325219    2.3374768    2.4866244    2.5048493    2.7653509
:EIG00036:       2.8080386    2.8570282    3.1733035    3.2468807    3.4875737
:EIG00041:       3.6657824    3.7074143    3.8669717    3.9727470    4.1139430
:EIG00046:       4.1197139    4.1725452    4.3567510    4.3832345    4.5169664
 
:EIG00051:       4.6800649    4.8743734    5.0243706    5.1249088    5.2239319
:EIG00056:       5.3521077    5.4334759    5.5809494    5.6266443    5.6804330
:EIG00061:       5.7911715    5.8152709    6.0453450    6.0857575    6.0934423
:EIG00066:       6.1539159    6.2220069    6.3337254    6.3647633    6.5135830
:EIG00071:       6.5243883    6.7217032    6.7261864    6.7409740    6.7496077
:EIG00076:       6.7694511    6.8367836    6.9004726    6.9171815    6.9997405
:EIG00081:       7.0051875    7.1233601    7.1587200    7.2635894    7.3917987
:EIG00086:       7.4386702    7.5273259    7.5299988    7.6469163    7.7290309
:EIG00091:       7.8848463    7.8931838    7.9561038    7.9749492    8.0052380
:EIG00096:       8.1333983    8.1747071    8.3188525    8.4206901    8.4428891
 
:EIG00101:       8.4565368    8.5153477    8.5192663    8.6363578    8.6995267
:EIG00106:       8.8649016    9.0391393
       ********************************************************

:KPT   :      NUMBER OF K-POINTS:   288
   0.0   0.0 angle (M,z), angle (M,x) deg
 
        SPIN-ORBIT EIGENVALUES:
     K=   0.06250   0.00000   0.06250            1
      MATRIX SIZE=  214   WEIGHT= 4.00
     EIGENVALUES ARE:
          -1.2047568   -1.2047568   -1.0239495   -1.0239495   -0.0967623
          -0.0967623    0.3496515    0.3496515    0.3666898    0.3666898
           0.5845615    0.5845615    0.6052723    0.6052723    0.6351344
           0.6351344    1.3721066    1.3721067    1.4993364    1.4993364
           1.5078784    1.5078784    1.5132334    1.5132334    1.5383144
           1.5383144    1.5584649    1.5584649    1.5840764    1.5840764
           1.6069275    1.6069275    1.6241472    1.6241472    1.6352405
           1.6352405    1.6498450    1.6498450    1.6580569    1.6580569

           1.6705085    1.6705085    1.6789210    1.6789210    1.6880882
           1.6880882    1.7201284    1.7201284    1.7395662    1.7395662
           1.8040015    1.8040015    1.8499888    1.8499888    1.8741418
           1.8741418    1.9597683    1.9597683    2.0175189    2.0175189
           2.1328088    2.1328088    2.3377107    2.3377107    2.4858920
           2.4858920    2.5059778    2.5059778    2.7660982    2.7660982
           2.8082272    2.8082272    2.8570962    2.8570962    3.1731652
           3.1731652    3.2464967    3.2464967    3.4869618    3.4869618

           3.6658938    3.6658938    3.7077268    3.7077268    3.8674273
           3.8674273    3.9723534    3.9723534    4.1135572    4.1135572
           4.1196751    4.1196751    4.1729038    4.1729038    4.3555852
           4.3555852    4.3848975    4.3848975
       ********************************************************
:GAP (global)   :    0.0    Ry =     0.0   eV (metal)
:GAP (this spin):    0.0    Ry =     0.0   eV (metal)
         Bandranges (emin - emax) and occupancy:
:BAN00022:  22    1.372848    1.562343  1.00000000
:BAN00023:  23    1.431757    1.572900  0.95873440
:BAN00024:  24    1.431757    1.572900  0.95873439
:BAN00025:  25    1.502045    1.608039  0.60453895
:BAN00026:  26    1.502045    1.608039  0.60453892
:BAN00027:  27    1.524115    1.625261  0.34896390
:BAN00028:  28    1.524115    1.625261  0.34896389
:BAN00029:  29    1.540567    1.629194  0.08710574
:BAN00030:  30    1.540567    1.629194  0.08710571
:BAN00031:  31    1.564063    1.635701  0.00065705
:BAN00032:  32    1.564063    1.635701  0.00065705
:BAN00033:  33    1.609871    1.654403  0.00000000
:BAN00034:  34    1.609871    1.654403  0.00000000
:BAN00035:  35    1.623893    1.662908  0.00000000
:BAN00036:  36    1.623893    1.662908  0.00000000
:BAN00037:  37    1.642400    1.675824  0.00000000
        Energy to separate low and high energystates:    1.14909


:NOE  : NUMBER OF ELECTRONS          =   26.000

:FER  : F E R M I - ENERGY(TETRAH.M.)=   1.5644434419
:GMA  : POTENTIAL AND CHARGE CUT-OFF  12.00 Ry**.5

:POS001: ATOM   -1 X,Y,Z = 0.00000 0.89750 0.25000  MULT= 2  ZZ= 59.000  Pr1       

       LMMAX 16
       LM=   0 0  1 0  2 0  2 2  3 0  3 2  4 0  4 2  4 4  5 0  5 2  5 4  6 0  6 2  6 4  6 6

:CHA001: TOTAL VALENCE CHARGE INSIDE SPHERE   1 =  10.2503    (RMT=  2.3000 )
:PCS001: PARTIAL CHARGES SPHERE =  1 S,P,D,F,PX,PY,PZ,D-Z2,D-X2Y2,D-XY,D-XZ,D-YZ 
:QTL001: 1.9200 4.9512 1.1418 2.2250 1.6552 1.6458 1.6502 0.2248 0.2038 0.2359 0.2358 0.2414
        Q-s-low E-s-low   Q-p-low E-p-low   Q-d-low E-d-low   Q-f-low E-f-low
:EPL001:  1.8758 -0.9976    4.8326  0.2734    0.0841  0.2378    0.0303  0.2523
        Q-s-hi  E-s-hi    Q-p-hi  E-p-hi    Q-d-hi  E-d-hi    Q-f-hi  E-f-hi 
:EPH001:  0.0442  1.4338    0.1186  1.4523    1.0577  1.4203    2.1947  1.5036

                      VXX         VYY         VZZ       UP TO R
:VZZ001:            -6.60078     9.46529    -2.86451       2.300

:CHA  : TOTAL VALENCE CHARGE INSIDE UNIT CELL =      26.000000

:SUM  : SUM OF EIGENVALUES =          13.698422876


        1.ATOM      Pr1                  14 CORE STATES
       CORE-FORCE in mRy/a.u. = |F|      Fx             Fy             Fz
:FCO001:   1.ATOM   1217.526947855469      0.000000000000      0.000000000000   1217.526947855469

:1S 001: 1S               -3065.977372920 Ry
:2S 001: 2S                -491.726931721 Ry
:2PP001: 2P*               -464.825732733 Ry
:2P 001: 2P                -429.428309069 Ry
:3S 001: 3S                -104.827100659 Ry
:3PP001: 3P*                -93.364576949 Ry
:3P 001: 3P                 -86.356951878 Ry
:3DD001: 3D*                -66.282358022 Ry
:3D 001: 3D                 -64.770940060 Ry
:4S 001: 4S                 -19.494902555 Ry
:4PP001: 4P*                -15.200873788 Ry
:4P 001: 4P                 -13.672305023 Ry
:4DD001: 4D*                 -6.603333923 Ry
:4D 001: 4D                  -6.333594225 Ry
:CINT001 Core Integral Atom   1   45.998417

       DENSITY AT NUCLEUS
        JATOM        VALENCE       SEMI-CORE          CORE           TOTAL
:RTO001:   1      631.297349        0.000000   656826.385615   657457.682964
     
       CHARGES OF NEW CHARGE DENSITY
:NTO   : INTERSTITIAL CHARGE =     5.499472
:NPC   : PW Pseudocharge     =    18.362079
:NTO001: CHARGE SPHERE  1    =    56.248669

:NEC01: NUCLEAR AND ELECTRONIC CHARGE    118.00000   117.99681
     
       CHARGES OF OLD CHARGE DENSITY
:OTO   : INTERSTITIAL CHARGE =     5.498443
:OPC   : PW Pseudocharge     =    18.378280
:OTO001: CHARGE SPHERE  1    =    56.250779

:NEC02: NUCLEAR AND ELECTRONIC CHARGE    118.00000   118.00000
     
       CONVERGENCE TEST
:DTO001: DIFFERENCE IN SPHERE  1 =  0.0044573

:DIS  :  CHARGE DISTANCE       ( 0.0044573 for atom    1 spin 1)      0.0044573
 PW Mixed is          232
 
******************************************************
* MULTISECANT MIXING VER9 RELEASE 10.4.0              *
* Standard Mode with controls                        *
* Fixed density scale                                *
* Restart from converged density                     *
* Regularization       1.000E-04                     *
* Trust Upper Limit    5.000E+00                     *
* Max Number of Memory Steps    8                    *
******************************************************
 
:INFO : Forcing a restart
:PWTMP   1.0862E+02  1.9467E+02  2.1055E+02
:PLANE:  PW TOTAL      5.5073 DISTAN   2.04E-03  3.70E-02 %
:CHARG:  CLM/ATOM   1381.9280 DISTAN   8.18E-03  5.92E-04 %
 
Step History
        DMIX         DMIXT        Red     Pred      Trust     Lambda    MagRel    MagAbs     Beta
  1   3.5000E-02   3.5000E-02 -1.00E+00  1.00E+00 -1.00E+01  1.00E+00  3.50E-02  3.50E-02  1.00E+00
  2   1.5000E-01   1.5000E-01 -1.00E+00  1.00E+00 -1.00E+01  1.00E+00  1.50E-01  3.53E-03  1.00E+00
:JACOBIANS    1.639E-02   8.947E-02
  
:NORMS:  1/Froebius, Min, Max, Used   0.5843E-01  0.5843E-01  0.2107E+00  0.5843E-01
:INFO :  Number of Memory Steps    1 Skipping    0
:PREDicted Charge, CTotal, PW Trust    3.988E-04   7.977E-04   5.364E-03
:PREDicted DMix, Beta, BLim   5.0000E-02  1.2624E+00  2.9939E+00

Eigenvalues, unscaled except for SY+YY
   #     SY Real        SY Imag          SS             YY         SY+YY Real      SY+YY Imag
   1   2.106643E-01   0.000000E+00   5.842832E-02   1.000000E+00   1.210664E+00   0.000000E+00
 
:BLIM :  VZERO Control Off
:TRUST:  Step 3.00E+00  Charge 7.50E-02 (e) CTO  2.50E-01 (e) PW  3.50E-01 (e)
:DIRM :  MEMORY  1/8  SCALE   1.000 RED  0.36 PRED  1.00 NEXT  0.83 
:TRAVE:  Charge 1.46E-04 (e) CTO  2.93E-04 (e) PW  9.48E-04 (e)
:DIRP :  |MSR1|= 7.141E-04 |PRATT|= 2.035E-03 ANGLE=  39.2 DEGREES
:DIRQ :  |MSR1|= 1.144E-03 |PRATT|= 8.184E-03 ANGLE=  14.9 DEGREES
:DIRT :  |MSR1|= 1.348E-03 |PRATT|= 8.433E-03 ANGLE=  26.6 DEGREES
:MIX  :   MSR1   REGULARIZATION:  1.00E-04 GREED: 0.07125  Newton 1.00  0.1599                
     
       CHARGES OF MIXED CHARGE DENSITY
:CTO   : INTERSTITIAL CHARGE =     5.498735
:CPC   : PW Pseudocharge     =    18.376150
:CTO001: CHARGE SPHERE  1    =    56.250632

:NEC03: NUCLEAR AND ELECTRONIC CHARGE    118.00000   118.00000

PW CHANGE     H    K    L      Current       Change    Residue
:PTO001:      0    0    0  1.13394033E-01 -8.724E-06 -6.309E-06
:PTO003:      0    2    0  2.24591027E-02 -3.066E-06 -1.581E-05
:PTO004:     -1    1    0  9.78169972E-02 -9.979E-06 -3.907E-05
:PTO005:      0    2   -1 -1.10077592E-01  9.886E-06  3.385E-05
:PTO006:      0    0   -2 -5.67653179E-02  5.373E-06  1.995E-05
:PTO007:     -1    1   -1 -1.07196513E-01  9.270E-06  4.165E-05
:PTO008:      0    2   -2 -1.18898417E-02 -5.039E-07 -2.370E-06
:PTO009:     -1    1   -2 -5.77858109E-02 -4.599E-06 -5.489E-06
:PTO011:     -1    3    0 -7.17600161E-03 -2.228E-06 -5.324E-06
:PTO012:     -1    3   -1 -2.59887483E-02 -1.533E-05 -4.650E-05
:PTO013:      0    4    0 -3.66223999E-03 -3.469E-06 -8.864E-06
:PTO014:      0    2   -3  8.87403814E-03  7.569E-06  1.754E-05

:ENE  : ********** TOTAL ENERGY IN Ry =       -36944.31609080

       TOTAL FORCE IN mRy/a.u. = |F|     Fx             Fy             Fz     with/without FOR in case.in2
:FOR001:   1.ATOM          8.981          0.000          0.000         -8.981 partial forces
       TOTAL FORCE WITH RESPECT TO GLOBAL CARTESIAN COORDINATES:
:FCA001:   1.ATOM                         0.000         -8.981          0.000 partial forces
       TOTAL FORCE WITH RESPECT TO THE GLOBAL COORDINATE SYSTEM:
:FGL001:   1.ATOM                 0.000000000    -8.981247467     0.000000000 partial forces
 Flat Integration
 New Mode for Coulomb Integral
 Consistent 3/8+Simpson combinations
 Extension of core to zero
 LDM version in phi
 Fifth-order quadrature in outwin


            ---------
:ITE016: 16. ITERATION
            ---------

:NATO :    1 INDEPENDENT AND    2 TOTAL ATOMS IN UNITCELL
       SUBSTANCE: aU                                                          

       LATTICE                      = CXY 
:POT  : POTENTIAL OPTION EX_LDA EC_LDA VX_LDA VC_LDA
:LAT  : LATTICE CONSTANTS=  4.91110  9.96586  8.60374    1.571    1.571    1.571
:VOL  : UNIT CELL VOLUME =     210.54799
       MODE OF CALCULATION IS       = RELA
       NON-SPINPOLARIZED CALCULATION
:IFFT  : FFT-parameters:   40   80   72 Factor: 2.00


   CONVERGENCE PARAMETER FOR PSEUDOCHARGE: NCON=  9
   MAXIMAL VALUE OF RMT(JATOM)*ABSK(NKK) : RK  =27.58737


:VKCOUL :  VK-COUL convergence: 0.328E-06
       ATOMNUMBER=  1 Pr1        VCOUL-ZERO =  0.98845E+00
:EFG001:                        EFG         =     9.56342   *10**21  V / m**2
                               V20  TOT/SRF=    -2.55914    -0.10268
                               V22  TOT/SRF=    -8.08590    -0.01119
                               V22M TOT/SRF=     0.00000     0.00000
                               V21  TOT/SRF=     0.00000     0.00000
                               V21M TOT/SRF=     0.00000     0.00000

             -6.60838    0.00000    0.00000       -6.60838    0.00000    0.00000
              0.00000    9.56342    0.00000        0.00000    9.56342    0.00000
              0.00000    0.00000   -2.95504        0.00000    0.00000   -2.95504

         MAIN DIRECTIONS OF THE EFG   1.0000  0.0000  0.0000
                                      0.0000  1.0000  0.0000
                                      0.0000  0.0000  1.0000
:ANG001:  ANGLE WITH OLD X-AXIS =         0.0

:ETA001:                         ASYMM. ETA =     0.38201


     HELLMANN-FEYNMAN-FORCE IN mRy/a.u. = |F|  Fx       Fy             Fz
:FHF001:   1.ATOM   1227.014093521327      0.000000000000      0.000000000000  -1227.014093521327

:FIT001: LUSE= 13 SIGMA OF V-XC FIT FOR ATOM  1  0.4096449E-03
:FIT001: LUSE= 13 SIGMA OF V-XC FIT FOR ATOM  1  0.4096449E-03
:DEN  : DENSITY INTEGRAL  =        -14264.38769670   (Ry)
       ELS_POTENTIAL_AT Z=0 and Z=0.5:   1.19996   1.19996
       ELS_POTENTIAL_AT Y=0 and Y=0.5:  -0.08007  -0.08007
:VZERO:v0,v0c,v0x   0.34203   1.19996  -0.85794 v5,v5c,v5x   0.34203   1.19996  -0.85794
:VZERY:v0,v0c,v0x  -1.16108  -0.08007  -1.08101 v5,v5c,v5x  -1.16108  -0.08007  -1.08101
:VZERX:v0,v0c,v0x  -1.39639  -0.39012  -1.00627 v5,v5c,v5x  -1.39639  -0.39012  -1.00627
:LMAX-WF:   10   Non-Spherical LMAX:   4

          ATOMIC SPHERE DEPENDENT PARAMETERS FOR ATOM  Pr1       
:e__0001: OVERALL ENERGY PARAMETER IS    1.3643
          OVERALL BASIS SET ON ATOM IS LAPW
:E0_0001: E( 0)=    1.3643
             APW+lo
:E0_0001: E( 0)=   -1.0507   E(BOTTOM)=   -1.704   E(TOP)=   -0.398  4  5   276
             LOCAL ORBITAL
:E1_0001: E( 1)=    1.7643
             APW+lo
:E1_0001: E( 1)=    0.4103   E(BOTTOM)=   -0.571   E(TOP)=    1.391  3  4   291
             LOCAL ORBITAL
:E3_0001: E( 3)=    1.6083   E(BOTTOM)=    1.392   E(TOP)=    1.825  0  1   119
             APW+lo
:E2_0001: E( 2)=    1.3643   E(BOTTOM)=    1.153   E(TOP)= -200.000  2 -1   121
             APW+lo

       K=   0.06250   0.00000   0.06250            1
:RKM  : MATRIX SIZE   214LOs:  40  RKM= 8.50  WEIGHT= 4.00  PGR:    
       EIGENVALUES ARE:
:EIG00001:      -1.2047150   -1.0238887   -0.0790701    0.3742536    0.4882455
:EIG00006:       0.5305207    0.5701052    0.5810544    1.3720907    1.5001693
:EIG00011:       1.5089795    1.5142899    1.5391621    1.5591255    1.5849852
:EIG00016:       1.6097427    1.6279146    1.6360778    1.6482457    1.6556380
:EIG00021:       1.6699283    1.6784765    1.6866698    1.7190036    1.7385705
:EIG00026:       1.8040677    1.8516891    1.8721826    1.9592074    2.0173876
:EIG00031:       2.1325375    2.3374993    2.4866551    2.5048565    2.7653752
:EIG00036:       2.8080584    2.8570374    3.1732913    3.2468690    3.4875655
:EIG00041:       3.6657668    3.7074055    3.8669469    3.9727188    4.1139137
:EIG00046:       4.1196739    4.1725182    4.3567071    4.3831969    4.5169214
 
:EIG00051:       4.6800235    4.8743353    5.0243352    5.1248704    5.2238992
:EIG00056:       5.3520797    5.4334564    5.5808882    5.6265914    5.6803974
:EIG00061:       5.7911381    5.8152275    6.0453096    6.0856927    6.0933852
:EIG00066:       6.1538620    6.2219578    6.3336936    6.3647044    6.5135254
:EIG00071:       6.5243283    6.7216424    6.7261239    6.7409118    6.7495526
:EIG00076:       6.7693900    6.8367211    6.9004265    6.9171324    6.9996808
:EIG00081:       7.0051231    7.1232982    7.1586709    7.2635276    7.3917305
:EIG00086:       7.4386036    7.5272546    7.5299325    7.6468487    7.7289659
:EIG00091:       7.8847807    7.8931174    7.9560339    7.9748806    8.0051691
:EIG00096:       8.1333257    8.1746355    8.3187849    8.4206201    8.4428265
 
:EIG00101:       8.4564654    8.5152765    8.5191973    8.6362881    8.6994578
:EIG00106:       8.8648434    9.0390675
       ********************************************************

:KPT   :      NUMBER OF K-POINTS:   288
   0.0   0.0 angle (M,z), angle (M,x) deg
 
        SPIN-ORBIT EIGENVALUES:
     K=   0.06250   0.00000   0.06250            1
      MATRIX SIZE=  214   WEIGHT= 4.00
     EIGENVALUES ARE:
          -1.2047224   -1.2047224   -1.0238988   -1.0238988   -0.0967655
          -0.0967655    0.3496837    0.3496837    0.3667247    0.3667247
           0.5845905    0.5845905    0.6053008    0.6053008    0.6351669
           0.6351669    1.3720818    1.3720818    1.4994434    1.4994434
           1.5080219    1.5080219    1.5133984    1.5133984    1.5384590
           1.5384590    1.5585541    1.5585541    1.5841476    1.5841476
           1.6071259    1.6071259    1.6243563    1.6243563    1.6354533
           1.6354533    1.6500549    1.6500549    1.6582661    1.6582661

           1.6706802    1.6706802    1.6791363    1.6791363    1.6882670
           1.6882670    1.7203778    1.7203778    1.7397308    1.7397308
           1.8040879    1.8040879    1.8499993    1.8499993    1.8741987
           1.8741988    1.9597849    1.9597849    2.0175323    2.0175323
           2.1328244    2.1328244    2.3377332    2.3377332    2.4859218
           2.4859218    2.5059861    2.5059861    2.7661224    2.7661224
           2.8082470    2.8082470    2.8571054    2.8571054    3.1731530
           3.1731530    3.2464849    3.2464849    3.4869536    3.4869536

           3.6658781    3.6658781    3.7077180    3.7077180    3.8674025
           3.8674025    3.9723253    3.9723253    4.1135269    4.1135269
           4.1196360    4.1196360    4.1728768    4.1728768    4.3555416
           4.3555416    4.3848596    4.3848596
       ********************************************************
:GAP (global)   :    0.0    Ry =     0.0   eV (metal)
:GAP (this spin):    0.0    Ry =     0.0   eV (metal)
         Bandranges (emin - emax) and occupancy:
:BAN00022:  22    1.372827    1.562520  1.00000000
:BAN00023:  23    1.431782    1.573059  0.95875752
:BAN00024:  24    1.431782    1.573059  0.95875752
:BAN00025:  25    1.502142    1.608230  0.60456058
:BAN00026:  26    1.502142    1.608230  0.60456055
:BAN00027:  27    1.524249    1.625476  0.34906990
:BAN00028:  28    1.524249    1.625476  0.34906989
:BAN00029:  29    1.540725    1.629403  0.08695549
:BAN00030:  30    1.540725    1.629403  0.08695546
:BAN00031:  31    1.564238    1.635925  0.00065655
:BAN00032:  32    1.564238    1.635925  0.00065655
:BAN00033:  33    1.610073    1.654634  0.00000000
:BAN00034:  34    1.610073    1.654634  0.00000000
:BAN00035:  35    1.624113    1.663124  0.00000000
:BAN00036:  36    1.624113    1.663124  0.00000000
:BAN00037:  37    1.642601    1.676053  0.00000000
        Energy to separate low and high energystates:    1.14905


:NOE  : NUMBER OF ELECTRONS          =   26.000

:FER  : F E R M I - ENERGY(TETRAH.M.)=   1.5646142159
:GMA  : POTENTIAL AND CHARGE CUT-OFF  12.00 Ry**.5

:POS001: ATOM   -1 X,Y,Z = 0.00000 0.89750 0.25000  MULT= 2  ZZ= 59.000  Pr1       

       LMMAX 16
       LM=   0 0  1 0  2 0  2 2  3 0  3 2  4 0  4 2  4 4  5 0  5 2  5 4  6 0  6 2  6 4  6 6

:CHA001: TOTAL VALENCE CHARGE INSIDE SPHERE   1 =  10.2494    (RMT=  2.3000 )
:PCS001: PARTIAL CHARGES SPHERE =  1 S,P,D,F,PX,PY,PZ,D-Z2,D-X2Y2,D-XY,D-XZ,D-YZ 
:QTL001: 1.9201 4.9512 1.1424 2.2235 1.6552 1.6458 1.6502 0.2249 0.2040 0.2360 0.2360 0.2415
        Q-s-low E-s-low   Q-p-low E-p-low   Q-d-low E-d-low   Q-f-low E-f-low
:EPL001:  1.8758 -0.9975    4.8325  0.2734    0.0841  0.2378    0.0303  0.2523
        Q-s-hi  E-s-hi    Q-p-hi  E-p-hi    Q-d-hi  E-d-hi    Q-f-hi  E-f-hi 
:EPH001:  0.0442  1.4339    0.1187  1.4524    1.0583  1.4204    2.1931  1.5037

                      VXX         VYY         VZZ       UP TO R
:VZZ001:            -6.59543     9.46452    -2.86909       2.300

:CHA  : TOTAL VALENCE CHARGE INSIDE UNIT CELL =      26.000000

:SUM  : SUM OF EIGENVALUES =          13.699481507


        1.ATOM      Pr1                  14 CORE STATES
       CORE-FORCE in mRy/a.u. = |F|      Fx             Fy             Fz
:FCO001:   1.ATOM   1217.901797529941      0.000000000000      0.000000000000   1217.901797529941

:1S 001: 1S               -3065.976873857 Ry
:2S 001: 2S                -491.726414289 Ry
:2PP001: 2P*               -464.825219533 Ry
:2P 001: 2P                -429.427794313 Ry
:3S 001: 3S                -104.826565725 Ry
:3PP001: 3P*                -93.364042240 Ry
:3P 001: 3P                 -86.356418385 Ry
:3DD001: 3D*                -66.281824042 Ry
:3D 001: 3D                 -64.770406169 Ry
:4S 001: 4S                 -19.494501329 Ry
:4PP001: 4P*                -15.200482478 Ry
:4P 001: 4P                 -13.671928515 Ry
:4DD001: 4D*                 -6.602984422 Ry
:4D 001: 4D                  -6.333249803 Ry
:CINT001 Core Integral Atom   1   45.998416

       DENSITY AT NUCLEUS
        JATOM        VALENCE       SEMI-CORE          CORE           TOTAL
:RTO001:   1      631.292408        0.000000   656826.360794   657457.653202
     
       CHARGES OF NEW CHARGE DENSITY
:NTO   : INTERSTITIAL CHARGE =     5.501170
:NPC   : PW Pseudocharge     =    18.363563
:NTO001: CHARGE SPHERE  1    =    56.247819

:NEC01: NUCLEAR AND ELECTRONIC CHARGE    118.00000   117.99681
     
       CHARGES OF OLD CHARGE DENSITY
:OTO   : INTERSTITIAL CHARGE =     5.498735
:OPC   : PW Pseudocharge     =    18.376150
:OTO001: CHARGE SPHERE  1    =    56.250632

:NEC02: NUCLEAR AND ELECTRONIC CHARGE    118.00000   118.00000
     
       CONVERGENCE TEST
:DTO001: DIFFERENCE IN SPHERE  1 =  0.0029568

:DIS  :  CHARGE DISTANCE       ( 0.0029568 for atom    1 spin 1)      0.0029568
 PW Mixed is          232
 
******************************************************
* MULTISECANT MIXING VER9 RELEASE 10.4.0              *
* Standard Mode with controls                        *
* Fixed density scale                                *
* Regularization       1.000E-04                     *
* Trust Upper Limit    5.000E+00                     *
* Max Number of Memory Steps    8                    *
******************************************************
 
:PWTMP   1.0862E+02  1.9467E+02  2.1055E+02
:PLANE:  PW TOTAL      5.5069 DISTAN   1.69E-03  3.07E-02 %
:CHARG:  CLM/ATOM   1381.9280 DISTAN   6.19E-03  4.48E-04 %
 
Step History
        DMIX         DMIXT        Red     Pred      Trust     Lambda    MagRel    MagAbs     Beta
  1   3.5000E-02   3.5000E-02 -1.00E+00  1.00E+00 -1.00E+01  1.00E+00  3.50E-02  3.50E-02  1.00E+00
  2   1.5000E-01   1.5000E-01  3.58E-01  1.00E+00 -1.00E+01  1.00E+00  1.50E-01  3.53E-03  1.00E+00
  3   7.1250E-02   7.1250E-02 -1.00E+00  8.33E-01  3.00E+00  1.00E+00  1.60E-01  1.35E-03  1.00E+00
:JACOBIANS    5.955E-02   4.991E-01
  
:NORMS:  1/Froebius, Min, Max, Used   0.2887E+00  0.2866E+00  0.8190E+00  0.3067E+00
:INFO :  Number of Memory Steps    2 Skipping    0
:INFO :  SLambda=    1.0824592525  Max    1.0824592525
:PREDicted Charge, CTotal, PW Trust    2.456E-03   4.912E-03   5.501E-04
:PREDicted DMix, Beta, BLim   7.7268E-01  3.8239E+00  7.6621E-01

Eigenvalues, unscaled except for SY+YY
   #     SY Real        SY Imag          SS             YY         SY+YY Real      SY+YY Imag
   1   5.152581E-03   0.000000E+00   1.636041E-01   1.992208E+00   1.412553E-02   0.000000E+00
   2   4.729951E-01   0.000000E+00   3.072035E-03   7.792253E-03   2.503450E+00   0.000000E+00
 
:INFO :  Singular value  2.503E+00 Weight  1.000E+00 Projection -1.206E-03
:INFO :  Singular value  1.413E-02 Weight  9.998E-01 Projection  7.094E-02
:RANK :  ACTIVE   2.00/2  =  99.99 % ; YY RANK   2.00/2  =  99.97 %
 
:BLIM :  VZERO Control Off
:TRUST:  Step 3.94E+00  Charge 7.50E-02 (e) CTO  2.50E-01 (e) PW  3.50E-01 (e)
:DIRM :  MEMORY  2/8  SCALE   1.000 RED  0.76 PRED  0.83 NEXT  0.28 
:TRAVE:  Charge 1.16E-03 (e) CTO  2.31E-03 (e) PW  7.46E-04 (e)
:DIRP :  |MSR1|= 1.572E-03 |PRATT|= 1.691E-03 ANGLE=  22.7 DEGREES
:DIRQ :  |MSR1|= 5.177E-03 |PRATT|= 6.191E-03 ANGLE=   6.9 DEGREES
:DIRT :  |MSR1|= 5.410E-03 |PRATT|= 6.418E-03 ANGLE=   9.2 DEGREES
:MIX  :   MSE1   REGULARIZATION:  1.99E-04 GREED: 0.17813  Newton 1.00  0.8430                
     
       CHARGES OF MIXED CHARGE DENSITY
:CTO   : INTERSTITIAL CHARGE =     5.503068
:CPC   : PW Pseudocharge     =    18.372874
:CTO001: CHARGE SPHERE  1    =    56.248466

:NEC03: NUCLEAR AND ELECTRONIC CHARGE    118.00000   118.00000

PW CHANGE     H    K    L      Current       Change    Residue
:PTO001:      0    0    0  1.13399051E-01  5.017E-06  1.753E-05
:PTO003:      0    2    0  2.24482823E-02 -1.082E-05 -1.294E-05
:PTO004:     -1    1    0  9.77872006E-02 -2.980E-05 -2.962E-05
:PTO005:      0    2   -1 -1.10051037E-01  2.656E-05  2.534E-05
:PTO006:      0    0   -2 -5.67496594E-02  1.566E-05  1.539E-05
:PTO007:     -1    1   -1 -1.07161916E-01  3.460E-05  3.532E-05
:PTO008:      0    2   -2 -1.18921502E-02 -2.309E-06 -2.227E-06
:PTO009:     -1    1   -2 -5.77873066E-02 -1.496E-06  3.007E-06
:PTO011:     -1    3    0 -7.17970640E-03 -3.705E-06 -2.593E-06
:PTO012:     -1    3   -1 -2.60242093E-02 -3.546E-05 -2.906E-05
:PTO013:      0    4    0 -3.66940160E-03 -7.162E-06 -5.315E-06
:PTO014:      0    2   -3  8.88910907E-03  1.507E-05  1.042E-05

:ENE  : ********** TOTAL ENERGY IN Ry =       -36944.31608208

       TOTAL FORCE IN mRy/a.u. = |F|     Fx             Fy             Fz     with/without FOR in case.in2
:FOR001:   1.ATOM          9.112          0.000          0.000         -9.112 partial forces
       TOTAL FORCE WITH RESPECT TO GLOBAL CARTESIAN COORDINATES:
:FCA001:   1.ATOM                         0.000         -9.112          0.000 partial forces
       TOTAL FORCE WITH RESPECT TO THE GLOBAL COORDINATE SYSTEM:
:FGL001:   1.ATOM                 0.000000000    -9.112295991     0.000000000 partial forces
 Flat Integration
 New Mode for Coulomb Integral
 Consistent 3/8+Simpson combinations
 Extension of core to zero
 LDM version in phi
 Fifth-order quadrature in outwin


            ---------
:ITE017: 17. ITERATION
            ---------

:NATO :    1 INDEPENDENT AND    2 TOTAL ATOMS IN UNITCELL
       SUBSTANCE: aU                                                          

       LATTICE                      = CXY 
:POT  : POTENTIAL OPTION EX_LDA EC_LDA VX_LDA VC_LDA
:LAT  : LATTICE CONSTANTS=  4.91110  9.96586  8.60374    1.571    1.571    1.571
:VOL  : UNIT CELL VOLUME =     210.54799
       MODE OF CALCULATION IS       = RELA
       NON-SPINPOLARIZED CALCULATION
:IFFT  : FFT-parameters:   40   80   72 Factor: 2.00


   CONVERGENCE PARAMETER FOR PSEUDOCHARGE: NCON=  9
   MAXIMAL VALUE OF RMT(JATOM)*ABSK(NKK) : RK  =27.58737


:VKCOUL :  VK-COUL convergence: 0.328E-06
       ATOMNUMBER=  1 Pr1        VCOUL-ZERO =  0.98855E+00
:EFG001:                        EFG         =     9.52997   *10**21  V / m**2
                               V20  TOT/SRF=    -2.60244    -0.10273
                               V22  TOT/SRF=    -8.02745    -0.01112
                               V22M TOT/SRF=     0.00000     0.00000
                               V21  TOT/SRF=     0.00000     0.00000
                               V21M TOT/SRF=     0.00000     0.00000

             -6.52493    0.00000    0.00000       -6.52493    0.00000    0.00000
              0.00000    9.52997    0.00000        0.00000    9.52997    0.00000
              0.00000    0.00000   -3.00504        0.00000    0.00000   -3.00504

         MAIN DIRECTIONS OF THE EFG   1.0000  0.0000  0.0000
                                      0.0000  1.0000  0.0000
                                      0.0000  0.0000  1.0000
:ANG001:  ANGLE WITH OLD X-AXIS =         0.0

:ETA001:                         ASYMM. ETA =     0.36935


     HELLMANN-FEYNMAN-FORCE IN mRy/a.u. = |F|  Fx       Fy             Fz
:FHF001:   1.ATOM   1229.738131537577      0.000000000000      0.000000000000  -1229.738131537577

:FIT001: LUSE= 13 SIGMA OF V-XC FIT FOR ATOM  1  0.4117187E-03
:FIT001: LUSE= 13 SIGMA OF V-XC FIT FOR ATOM  1  0.4117187E-03
:DEN  : DENSITY INTEGRAL  =        -14264.37464228   (Ry)
       ELS_POTENTIAL_AT Z=0 and Z=0.5:   1.20027   1.20027
       ELS_POTENTIAL_AT Y=0 and Y=0.5:  -0.08030  -0.08030
:VZERO:v0,v0c,v0x   0.34216   1.20027  -0.85811 v5,v5c,v5x   0.34216   1.20027  -0.85811
:VZERY:v0,v0c,v0x  -1.16132  -0.08030  -1.08102 v5,v5c,v5x  -1.16132  -0.08030  -1.08102
:VZERX:v0,v0c,v0x  -1.39647  -0.39006  -1.00641 v5,v5c,v5x  -1.39647  -0.39006  -1.00641
:LMAX-WF:   10   Non-Spherical LMAX:   4

          ATOMIC SPHERE DEPENDENT PARAMETERS FOR ATOM  Pr1       
:e__0001: OVERALL ENERGY PARAMETER IS    1.3645
          OVERALL BASIS SET ON ATOM IS LAPW
:E0_0001: E( 0)=    1.3645
             APW+lo
:E0_0001: E( 0)=   -1.0508   E(BOTTOM)=   -1.704   E(TOP)=   -0.398  4  5   276
             LOCAL ORBITAL
:E1_0001: E( 1)=    1.7645
             APW+lo
:E1_0001: E( 1)=    0.4102   E(BOTTOM)=   -0.571   E(TOP)=    1.391  3  4   282
             LOCAL ORBITAL
:E3_0001: E( 3)=    1.6083   E(BOTTOM)=    1.392   E(TOP)=    1.825  0  1   124
             APW+lo
:E2_0001: E( 2)=    1.3645   E(BOTTOM)=    1.153   E(TOP)= -200.000  2 -1   123
             APW+lo

       K=   0.06250   0.00000   0.06250            1
:RKM  : MATRIX SIZE   214LOs:  40  RKM= 8.50  WEIGHT= 4.00  PGR:    
       EIGENVALUES ARE:
:EIG00001:      -1.2047988   -1.0239853   -0.0791075    0.3741996    0.4881795
:EIG00006:       0.5304055    0.5700324    0.5809411    1.3721643    1.5001341
:EIG00011:       1.5089946    1.5143118    1.5391413    1.5591824    1.5849741
:EIG00016:       1.6097458    1.6279123    1.6360790    1.6482817    1.6556385
:EIG00021:       1.6699061    1.6784867    1.6866881    1.7190083    1.7385439
:EIG00026:       1.8040280    1.8517257    1.8722009    1.9592330    2.0174115
:EIG00031:       2.1325447    2.3375277    2.4866616    2.5049184    2.7655066
:EIG00036:       2.8081739    2.8571836    3.1734203    3.2469431    3.4875905
:EIG00041:       3.6658298    3.7074804    3.8670682    3.9727686    4.1140159
:EIG00046:       4.1197328    4.1726185    4.3567633    4.3832742    4.5170375
 
:EIG00051:       4.6800568    4.8743637    5.0243736    5.1249074    5.2238613
:EIG00056:       5.3521522    5.4335262    5.5809713    5.6266897    5.6804693
:EIG00061:       5.7911371    5.8152490    6.0453800    6.0857419    6.0934522
:EIG00066:       6.1539113    6.2219677    6.3337184    6.3647301    6.5136297
:EIG00071:       6.5243714    6.7217447    6.7261798    6.7409611    6.7496275
:EIG00076:       6.7694618    6.8367911    6.9004688    6.9172290    6.9997655
:EIG00081:       7.0052118    7.1234080    7.1587688    7.2636074    7.3917995
:EIG00086:       7.4387015    7.5273693    7.5300161    7.6469401    7.7290139
:EIG00091:       7.8849083    7.8931620    7.9560347    7.9749453    8.0051807
:EIG00096:       8.1334214    8.1746613    8.3188497    8.4207163    8.4429026
 
:EIG00101:       8.4565360    8.5153435    8.5192959    8.6363900    8.6995106
:EIG00106:       8.8648889    9.0391263
       ********************************************************

:KPT   :      NUMBER OF K-POINTS:   288
   0.0   0.0 angle (M,z), angle (M,x) deg
 
        SPIN-ORBIT EIGENVALUES:
     K=   0.06250   0.00000   0.06250            1
      MATRIX SIZE=  214   WEIGHT= 4.00
     EIGENVALUES ARE:
          -1.2048062   -1.2048062   -1.0239954   -1.0239954   -0.0968066
          -0.0968066    0.3496101    0.3496101    0.3666501    0.3666501
           0.5845074    0.5845074    0.6051951    0.6051951    0.6350868
           0.6350868    1.3721554    1.3721554    1.4994085    1.4994085
           1.5080370    1.5080370    1.5134203    1.5134203    1.5384378
           1.5384378    1.5586091    1.5586091    1.5841381    1.5841381
           1.6071264    1.6071264    1.6243666    1.6243666    1.6354493
           1.6354493    1.6500850    1.6500850    1.6582675    1.6582675

           1.6706587    1.6706587    1.6791471    1.6791471    1.6882845
           1.6882845    1.7203826    1.7203826    1.7397045    1.7397045
           1.8040486    1.8040486    1.8500339    1.8500339    1.8742184
           1.8742184    1.9598106    1.9598106    2.0175562    2.0175562
           2.1328316    2.1328316    2.3377616    2.3377616    2.4859304
           2.4859304    2.5060459    2.5060459    2.7662536    2.7662536
           2.8083625    2.8083625    2.8572515    2.8572515    3.1732819
           3.1732819    3.2465593    3.2465593    3.4869786    3.4869786

           3.6659412    3.6659412    3.7077928    3.7077928    3.8675232
           3.8675232    3.9723753    3.9723753    4.1136263    4.1136263
           4.1196979    4.1196979    4.1729772    4.1729772    4.3555981
           4.3555981    4.3849367    4.3849367
       ********************************************************
:GAP (global)   :    0.0    Ry =     0.0   eV (metal)
:GAP (this spin):    0.0    Ry =     0.0   eV (metal)
         Bandranges (emin - emax) and occupancy:
:BAN00022:  22    1.372884    1.562519  1.00000000
:BAN00023:  23    1.431780    1.573060  0.95878719
:BAN00024:  24    1.431780    1.573060  0.95878719
:BAN00025:  25    1.502190    1.608249  0.60457569
:BAN00026:  26    1.502190    1.608249  0.60457566
:BAN00027:  27    1.524226    1.625483  0.34905217
:BAN00028:  28    1.524226    1.625483  0.34905217
:BAN00029:  29    1.540757    1.629424  0.08695190
:BAN00030:  30    1.540757    1.629424  0.08695187
:BAN00031:  31    1.564277    1.635917  0.00063308
:BAN00032:  32    1.564277    1.635917  0.00063308
:BAN00033:  33    1.610079    1.654647  0.00000000
:BAN00034:  34    1.610079    1.654647  0.00000000
:BAN00035:  35    1.624122    1.663111  0.00000000
:BAN00036:  36    1.624122    1.663111  0.00000000
:BAN00037:  37    1.642602    1.676056  0.00000000
        Energy to separate low and high energystates:    1.14912


:NOE  : NUMBER OF ELECTRONS          =   26.000

:FER  : F E R M I - ENERGY(TETRAH.M.)=   1.5646192440
:GMA  : POTENTIAL AND CHARGE CUT-OFF  12.00 Ry**.5

:POS001: ATOM   -1 X,Y,Z = 0.00000 0.89750 0.25000  MULT= 2  ZZ= 59.000  Pr1       

       LMMAX 16
       LM=   0 0  1 0  2 0  2 2  3 0  3 2  4 0  4 2  4 4  5 0  5 2  5 4  6 0  6 2  6 4  6 6

:CHA001: TOTAL VALENCE CHARGE INSIDE SPHERE   1 =  10.2498    (RMT=  2.3000 )
:PCS001: PARTIAL CHARGES SPHERE =  1 S,P,D,F,PX,PY,PZ,D-Z2,D-X2Y2,D-XY,D-XZ,D-YZ 
:QTL001: 1.9201 4.9513 1.1424 2.2238 1.6552 1.6458 1.6502 0.2249 0.2040 0.2360 0.2360 0.2415
        Q-s-low E-s-low   Q-p-low E-p-low   Q-d-low E-d-low   Q-f-low E-f-low
:EPL001:  1.8758 -0.9976    4.8327  0.2733    0.0841  0.2377    0.0303  0.2522
        Q-s-hi  E-s-hi    Q-p-hi  E-p-hi    Q-d-hi  E-d-hi    Q-f-hi  E-f-hi 
:EPH001:  0.0442  1.4339    0.1186  1.4524    1.0583  1.4204    2.1935  1.5037

                      VXX         VYY         VZZ       UP TO R
:VZZ001:            -6.57950     9.42859    -2.84908       2.300

:CHA  : TOTAL VALENCE CHARGE INSIDE UNIT CELL =      26.000000

:SUM  : SUM OF EIGENVALUES =          13.698626594


        1.ATOM      Pr1                  14 CORE STATES
       CORE-FORCE in mRy/a.u. = |F|      Fx             Fy             Fz
:FCO001:   1.ATOM   1219.850976094668      0.000000000000      0.000000000000   1219.850976094668

:1S 001: 1S               -3065.977477084 Ry
:2S 001: 2S                -491.726843930 Ry
:2PP001: 2P*               -464.825689103 Ry
:2P 001: 2P                -429.428249017 Ry
:3S 001: 3S                -104.826653407 Ry
:3PP001: 3P*                -93.364147789 Ry
:3P 001: 3P                 -86.356507431 Ry
:3DD001: 3D*                -66.281960621 Ry
:3D 001: 3D                 -64.770536558 Ry
:4S 001: 4S                 -19.494435356 Ry
:4PP001: 4P*                -15.200423515 Ry
:4P 001: 4P                 -13.671874342 Ry
:4DD001: 4D*                 -6.602949800 Ry
:4D 001: 4D                  -6.333217445 Ry
:CINT001 Core Integral Atom   1   45.998416

       DENSITY AT NUCLEUS
        JATOM        VALENCE       SEMI-CORE          CORE           TOTAL
:RTO001:   1      631.295608        0.000000   656826.419344   657457.714952
     
       CHARGES OF NEW CHARGE DENSITY
:NTO   : INTERSTITIAL CHARGE =     5.500313
:NPC   : PW Pseudocharge     =    18.363729
:NTO001: CHARGE SPHERE  1    =    56.248248

:NEC01: NUCLEAR AND ELECTRONIC CHARGE    118.00000   117.99681
     
       CHARGES OF OLD CHARGE DENSITY
:OTO   : INTERSTITIAL CHARGE =     5.503068
:OPC   : PW Pseudocharge     =    18.372874
:OTO001: CHARGE SPHERE  1    =    56.248466

:NEC02: NUCLEAR AND ELECTRONIC CHARGE    118.00000   118.00000
     
       CONVERGENCE TEST
:DTO001: DIFFERENCE IN SPHERE  1 =  0.0004355

:DIS  :  CHARGE DISTANCE       ( 0.0004355 for atom    1 spin 1)      0.0004355
 PW Mixed is          232
 
******************************************************
* MULTISECANT MIXING VER9 RELEASE 10.4.0              *
* Standard Mode with controls                        *
* Fixed density scale                                *
* Regularization       1.000E-04                     *
* Trust Upper Limit    5.000E+00                     *
* Max Number of Memory Steps    8                    *
******************************************************
 
:PWTMP   1.0862E+02  1.9467E+02  2.1055E+02
:PLANE:  PW TOTAL      5.5065 DISTAN   6.61E-04  1.20E-02 %
:CHARG:  CLM/ATOM   1381.9271 DISTAN   1.06E-03  7.68E-05 %
 
Step History
        DMIX         DMIXT        Red     Pred      Trust     Lambda    MagRel    MagAbs     Beta
  1   3.5000E-02   3.5000E-02 -1.00E+00  1.00E+00 -1.00E+01  1.00E+00  3.50E-02  3.50E-02  1.00E+00
  2   1.5000E-01   1.5000E-01  3.58E-01  1.00E+00 -1.00E+01  1.00E+00  1.50E-01  3.53E-03  1.00E+00
  3   7.1250E-02   7.1250E-02  7.61E-01  8.33E-01  3.00E+00  1.08E+00  1.60E-01  1.35E-03  1.00E+00
  4   1.7813E-01   1.7813E-01 -1.00E+00  2.83E-01  3.94E+00  1.00E+00  8.43E-01  5.41E-03  1.00E+00
:JACOBIANS    8.145E-02   7.279E-01
  
:NORMS:  1/Froebius, Min, Max, Used   0.7189E+00  0.5225E+00  0.9406E+00  0.7952E+00
:INFO :  Number of Memory Steps    3 Skipping    0
:INFO :  SLambda=    0.6875565657  Max    0.6875565657
:PREDicted Charge, CTotal, PW Trust    2.281E-03   4.563E-03   6.551E-04
:PREDicted DMix, Beta, BLim   2.0237E-02  1.0296E+00  2.1599E+00

Eigenvalues, unscaled except for SY+YY
   #     SY Real        SY Imag          SS             YY         SY+YY Real      SY+YY Imag
   1   1.782132E+00   0.000000E+00   1.515747E+00   2.396978E+00   3.592702E+00   0.000000E+00
   2   1.352792E-01   0.000000E+00   3.466017E-02   6.029963E-01   7.256006E-01   0.000000E+00
   3   1.177686E-05   0.000000E+00   5.594820E-06   2.558869E-05   3.433568E-05   0.000000E+00
 
:INFO :  Singular value  3.594E+00 Weight  1.000E+00 Projection -6.658E-05
:INFO :  Singular value  7.254E-01 Weight  1.000E+00 Projection -5.108E-04
:INFO :  Singular value  3.434E-05 Weight  2.011E-02 Projection -4.390E-03
:RANK :  ACTIVE   2.02/3  =  67.34 % ; YY RANK   2.01/3  =  67.04 %
 
:BLIM :  VZERO Control Off
:TRUST:  Step 5.26E+00  Charge 7.50E-02 (e) CTO  2.50E-01 (e) PW  3.50E-01 (e)
:DIRM :  MEMORY  3/8  SCALE   1.000 RED  0.19 PRED  0.28 NEXT  0.95 
:TRAVE:  Charge 6.33E-04 (e) CTO  1.27E-03 (e) PW  4.57E-04 (e)
:DIRP :  |MSR1|= 9.042E-05 |PRATT|= 6.606E-04 ANGLE=  34.9 DEGREES
:DIRQ :  |MSR1|= 2.510E-04 |PRATT|= 1.062E-03 ANGLE=  45.7 DEGREES
:DIRT :  |MSR1|= 2.668E-04 |PRATT|= 1.251E-03 ANGLE=  45.2 DEGREES
:MIX  :   MSD1   REGULARIZATION:  2.40E-04 GREED: 0.07512  Newton 1.00  0.2133                
     
       CHARGES OF MIXED CHARGE DENSITY
:CTO   : INTERSTITIAL CHARGE =     5.503289
:CPC   : PW Pseudocharge     =    18.372977
:CTO001: CHARGE SPHERE  1    =    56.248355

:NEC03: NUCLEAR AND ELECTRONIC CHARGE    118.00000   118.00000

PW CHANGE     H    K    L      Current       Change    Residue
:PTO001:      0    0    0  1.13400592E-01  1.541E-06  9.243E-06
:PTO003:      0    2    0  2.24486241E-02  3.418E-07  7.706E-06
:PTO004:     -1    1    0  9.77871149E-02 -8.561E-08  8.263E-06
:PTO005:      0    2   -1 -1.10051173E-01 -1.362E-07 -8.931E-06
:PTO006:      0    0   -2 -5.67496375E-02  2.186E-08 -4.457E-06
:PTO007:     -1    1   -1 -1.07160740E-01  1.176E-06  1.239E-06
:PTO008:      0    2   -2 -1.18922876E-02 -1.374E-07 -6.468E-07
:PTO009:     -1    1   -2 -5.77864220E-02  8.847E-07  7.824E-06
:PTO011:     -1    3    0 -7.17950505E-03  2.013E-07  2.749E-06
:PTO012:     -1    3   -1 -2.60244835E-02 -2.742E-07  5.319E-06
:PTO013:      0    4    0 -3.66939151E-03  1.009E-08  1.526E-06
:PTO014:      0    2   -3  8.88919102E-03  8.195E-08 -1.748E-06

:ENE  : ********** TOTAL ENERGY IN Ry =       -36944.31607415

       TOTAL FORCE IN mRy/a.u. = |F|     Fx             Fy             Fz     with/without FOR in case.in2
:FOR001:   1.ATOM          9.887          0.000          0.000         -9.887 partial forces
       TOTAL FORCE WITH RESPECT TO GLOBAL CARTESIAN COORDINATES:
:FCA001:   1.ATOM                         0.000         -9.887          0.000 partial forces
       TOTAL FORCE WITH RESPECT TO THE GLOBAL COORDINATE SYSTEM:
:FGL001:   1.ATOM                 0.000000000    -9.887155443     0.000000000 partial forces
 Flat Integration
 New Mode for Coulomb Integral
 Consistent 3/8+Simpson combinations
 Extension of core to zero
 LDM version in phi
 Fifth-order quadrature in outwin


            ---------
:ITE018: 18. ITERATION
            ---------

:NATO :    1 INDEPENDENT AND    2 TOTAL ATOMS IN UNITCELL
       SUBSTANCE: aU                                                          

       LATTICE                      = CXY 
:POT  : POTENTIAL OPTION EX_LDA EC_LDA VX_LDA VC_LDA
:LAT  : LATTICE CONSTANTS=  4.91110  9.96586  8.60374    1.571    1.571    1.571
:VOL  : UNIT CELL VOLUME =     210.54799
       MODE OF CALCULATION IS       = RELA
       NON-SPINPOLARIZED CALCULATION
:IFFT  : FFT-parameters:   40   80   72 Factor: 2.00


   CONVERGENCE PARAMETER FOR PSEUDOCHARGE: NCON=  9
   MAXIMAL VALUE OF RMT(JATOM)*ABSK(NKK) : RK  =27.58737


:VKCOUL :  VK-COUL convergence: 0.328E-06
       ATOMNUMBER=  1 Pr1        VCOUL-ZERO =  0.98857E+00
:EFG001:                        EFG         =     9.52559   *10**21  V / m**2
                               V20  TOT/SRF=    -2.60374    -0.10272
                               V22  TOT/SRF=    -8.02232    -0.01111
                               V22M TOT/SRF=     0.00000     0.00000
                               V21  TOT/SRF=     0.00000     0.00000
                               V21M TOT/SRF=     0.00000     0.00000

             -6.51905    0.00000    0.00000       -6.51905    0.00000    0.00000
              0.00000    9.52559    0.00000        0.00000    9.52559    0.00000
              0.00000    0.00000   -3.00654        0.00000    0.00000   -3.00654

         MAIN DIRECTIONS OF THE EFG   1.0000  0.0000  0.0000
                                      0.0000  1.0000  0.0000
                                      0.0000  0.0000  1.0000
:ANG001:  ANGLE WITH OLD X-AXIS =         0.0

:ETA001:                         ASYMM. ETA =     0.36874


     HELLMANN-FEYNMAN-FORCE IN mRy/a.u. = |F|  Fx       Fy             Fz
:FHF001:   1.ATOM   1229.402338322304      0.000000000000      0.000000000000  -1229.402338322304

:FIT001: LUSE= 13 SIGMA OF V-XC FIT FOR ATOM  1  0.4118740E-03
:FIT001: LUSE= 13 SIGMA OF V-XC FIT FOR ATOM  1  0.4118740E-03
:DEN  : DENSITY INTEGRAL  =        -14264.37255666   (Ry)
       ELS_POTENTIAL_AT Z=0 and Z=0.5:   1.20030   1.20030
       ELS_POTENTIAL_AT Y=0 and Y=0.5:  -0.08030  -0.08030
:VZERO:v0,v0c,v0x   0.34218   1.20030  -0.85812 v5,v5c,v5x   0.34218   1.20030  -0.85812
:VZERY:v0,v0c,v0x  -1.16133  -0.08030  -1.08103 v5,v5c,v5x  -1.16133  -0.08030  -1.08103
:VZERX:v0,v0c,v0x  -1.39648  -0.39006  -1.00642 v5,v5c,v5x  -1.39648  -0.39006  -1.00642
:LMAX-WF:   10   Non-Spherical LMAX:   4

          ATOMIC SPHERE DEPENDENT PARAMETERS FOR ATOM  Pr1       
:e__0001: OVERALL ENERGY PARAMETER IS    1.3646
          OVERALL BASIS SET ON ATOM IS LAPW
:E0_0001: E( 0)=    1.3646
             APW+lo
:E0_0001: E( 0)=   -1.0508   E(BOTTOM)=   -1.704   E(TOP)=   -0.398  4  5   273
             LOCAL ORBITAL
:E1_0001: E( 1)=    1.7646
             APW+lo
:E1_0001: E( 1)=    0.4102   E(BOTTOM)=   -0.571   E(TOP)=    1.391  3  4   284
             LOCAL ORBITAL
:E3_0001: E( 3)=    1.6083   E(BOTTOM)=    1.392   E(TOP)=    1.825  0  1   124
             APW+lo
:E2_0001: E( 2)=    1.3646   E(BOTTOM)=    1.153   E(TOP)= -200.000  2 -1   122
             APW+lo

       K=   0.06250   0.00000   0.06250            1
:RKM  : MATRIX SIZE   214LOs:  40  RKM= 8.50  WEIGHT= 4.00  PGR:    
       EIGENVALUES ARE:
:EIG00001:      -1.2047953   -1.0239835   -0.0790999    0.3742011    0.4881805
:EIG00006:       0.5304108    0.5700355    0.5809457    1.3721749    1.5001387
:EIG00011:       1.5089965    1.5143111    1.5391445    1.5591874    1.5849792
:EIG00016:       1.6097459    1.6279110    1.6360776    1.6482785    1.6556372
:EIG00021:       1.6699075    1.6784838    1.6866883    1.7190036    1.7385446
:EIG00026:       1.8040330    1.8517337    1.8722062    1.9592411    2.0174192
:EIG00031:       2.1325538    2.3375360    2.4866679    2.5049299    2.7655186
:EIG00036:       2.8081866    2.8571954    3.1734335    3.2469553    3.4875992
:EIG00041:       3.6658419    3.7074912    3.8670802    3.9727819    4.1140276
:EIG00046:       4.1197478    4.1726289    4.3567777    4.3832858    4.5170510
 
:EIG00051:       4.6800653    4.8743720    5.0243847    5.1249166    5.2238658
:EIG00056:       5.3521622    5.4335359    5.5809839    5.6267015    5.6804807
:EIG00061:       5.7911433    5.8152545    6.0453906    6.0857534    6.0934641
:EIG00066:       6.1539211    6.2219727    6.3337238    6.3647394    6.5136430
:EIG00071:       6.5243827    6.7217569    6.7261920    6.7409722    6.7496377
:EIG00076:       6.7694754    6.8368011    6.9004802    6.9172407    6.9997788
:EIG00081:       7.0052230    7.1234217    7.1587804    7.2636166    7.3918132
:EIG00086:       7.4387135    7.5273838    7.5300281    7.6469513    7.7290216
:EIG00091:       7.8849228    7.8931713    7.9560407    7.9749570    8.0051851
:EIG00096:       8.1334355    8.1746677    8.3188607    8.4207295    8.4429131
 
:EIG00101:       8.4565470    8.5153546    8.5193096    8.6364035    8.6995190
:EIG00106:       8.8648986    9.0391357
       ********************************************************

:KPT   :      NUMBER OF K-POINTS:   288
   0.0   0.0 angle (M,z), angle (M,x) deg
 
        SPIN-ORBIT EIGENVALUES:
     K=   0.06250   0.00000   0.06250            1
      MATRIX SIZE=  214   WEIGHT= 4.00
     EIGENVALUES ARE:
          -1.2048027   -1.2048027   -1.0239935   -1.0239935   -0.0967993
          -0.0967993    0.3496123    0.3496123    0.3666522    0.3666522
           0.5845106    0.5845106    0.6051997    0.6051997    0.6350906
           0.6350906    1.3721660    1.3721660    1.4994131    1.4994131
           1.5080389    1.5080389    1.5134196    1.5134196    1.5384410
           1.5384410    1.5586137    1.5586137    1.5841433    1.5841433
           1.6071264    1.6071264    1.6243649    1.6243649    1.6354483
           1.6354483    1.6500821    1.6500822    1.6582663    1.6582663

           1.6706600    1.6706600    1.6791447    1.6791447    1.6882844
           1.6882844    1.7203779    1.7203779    1.7397052    1.7397052
           1.8040536    1.8040536    1.8500414    1.8500415    1.8742241
           1.8742241    1.9598187    1.9598187    2.0175639    2.0175639
           2.1328407    2.1328407    2.3377699    2.3377699    2.4859369
           2.4859369    2.5060572    2.5060572    2.7662657    2.7662657
           2.8083753    2.8083753    2.8572633    2.8572633    3.1732951
           3.1732951    3.2465714    3.2465714    3.4869873    3.4869873

           3.6659534    3.6659534    3.7078036    3.7078036    3.8675353
           3.8675353    3.9723886    3.9723886    4.1136384    4.1136384
           4.1197126    4.1197126    4.1729875    4.1729875    4.3556123
           4.3556123    4.3849486    4.3849486
       ********************************************************
:GAP (global)   :    0.0    Ry =     0.0   eV (metal)
:GAP (this spin):    0.0    Ry =     0.0   eV (metal)
         Bandranges (emin - emax) and occupancy:
:BAN00022:  22    1.372896    1.562518  1.00000000
:BAN00023:  23    1.431790    1.573061  0.95879040
:BAN00024:  24    1.431790    1.573061  0.95879040
:BAN00025:  25    1.502195    1.608248  0.60457602
:BAN00026:  26    1.502195    1.608248  0.60457598
:BAN00027:  27    1.524229    1.625481  0.34904343
:BAN00028:  28    1.524229    1.625481  0.34904343
:BAN00029:  29    1.540759    1.629421  0.08695682
:BAN00030:  30    1.540759    1.629421  0.08695679
:BAN00031:  31    1.564276    1.635915  0.00063336
:BAN00032:  32    1.564276    1.635915  0.00063336
:BAN00033:  33    1.610077    1.654643  0.00000000
:BAN00034:  34    1.610077    1.654643  0.00000000
:BAN00035:  35    1.624119    1.663109  0.00000000
:BAN00036:  36    1.624119    1.663109  0.00000000
:BAN00037:  37    1.642601    1.676053  0.00000000
        Energy to separate low and high energystates:    1.14914


:NOE  : NUMBER OF ELECTRONS          =   26.000

:FER  : F E R M I - ENERGY(TETRAH.M.)=   1.5646192520
:GMA  : POTENTIAL AND CHARGE CUT-OFF  12.00 Ry**.5

:POS001: ATOM   -1 X,Y,Z = 0.00000 0.89750 0.25000  MULT= 2  ZZ= 59.000  Pr1       

       LMMAX 16
       LM=   0 0  1 0  2 0  2 2  3 0  3 2  4 0  4 2  4 4  5 0  5 2  5 4  6 0  6 2  6 4  6 6

:CHA001: TOTAL VALENCE CHARGE INSIDE SPHERE   1 =  10.2499    (RMT=  2.3000 )
:PCS001: PARTIAL CHARGES SPHERE =  1 S,P,D,F,PX,PY,PZ,D-Z2,D-X2Y2,D-XY,D-XZ,D-YZ 
:QTL001: 1.9201 4.9513 1.1424 2.2239 1.6552 1.6458 1.6502 0.2249 0.2040 0.2360 0.2360 0.2415
        Q-s-low E-s-low   Q-p-low E-p-low   Q-d-low E-d-low   Q-f-low E-f-low
:EPL001:  1.8758 -0.9976    4.8327  0.2733    0.0841  0.2377    0.0303  0.2522
        Q-s-hi  E-s-hi    Q-p-hi  E-p-hi    Q-d-hi  E-d-hi    Q-f-hi  E-f-hi 
:EPH001:  0.0442  1.4339    0.1186  1.4524    1.0583  1.4204    2.1935  1.5037

                      VXX         VYY         VZZ       UP TO R
:VZZ001:            -6.57935     9.43021    -2.85086       2.300

:CHA  : TOTAL VALENCE CHARGE INSIDE UNIT CELL =      26.000000

:SUM  : SUM OF EIGENVALUES =          13.698758550


        1.ATOM      Pr1                  14 CORE STATES
       CORE-FORCE in mRy/a.u. = |F|      Fx             Fy             Fz
:FCO001:   1.ATOM   1219.583307828981      0.000000000000      0.000000000000   1219.583307828981

:1S 001: 1S               -3065.977526194 Ry
:2S 001: 2S                -491.726887248 Ry
:2PP001: 2P*               -464.825733878 Ry
:2P 001: 2P                -429.428293252 Ry
:3S 001: 3S                -104.826680994 Ry
:3PP001: 3P*                -93.364176260 Ry
:3P 001: 3P                 -86.356534954 Ry
:3DD001: 3D*                -66.281990703 Ry
:3D 001: 3D                 -64.770566316 Ry
:4S 001: 4S                 -19.494444244 Ry
:4PP001: 4P*                -15.200432100 Ry
:4P 001: 4P                 -13.671882134 Ry
:4DD001: 4D*                 -6.602956962 Ry
:4D 001: 4D                  -6.333224392 Ry
:CINT001 Core Integral Atom   1   45.998416

       DENSITY AT NUCLEUS
        JATOM        VALENCE       SEMI-CORE          CORE           TOTAL
:RTO001:   1      631.296058        0.000000   656826.423915   657457.719973
     
       CHARGES OF NEW CHARGE DENSITY
:NTO   : INTERSTITIAL CHARGE =     5.500200
:NPC   : PW Pseudocharge     =    18.363659
:NTO001: CHARGE SPHERE  1    =    56.248304

:NEC01: NUCLEAR AND ELECTRONIC CHARGE    118.00000   117.99681
     
       CHARGES OF OLD CHARGE DENSITY
:OTO   : INTERSTITIAL CHARGE =     5.503289
:OPC   : PW Pseudocharge     =    18.372977
:OTO001: CHARGE SPHERE  1    =    56.248355

:NEC02: NUCLEAR AND ELECTRONIC CHARGE    118.00000   118.00000
     
       CONVERGENCE TEST
:DTO001: DIFFERENCE IN SPHERE  1 =  0.0003376

:DIS  :  CHARGE DISTANCE       ( 0.0003376 for atom    1 spin 1)      0.0003376
 PW Mixed is          232
 
******************************************************
* MULTISECANT MIXING VER9 RELEASE 10.4.0              *
* Standard Mode with controls                        *
* Fixed density scale                                *
* Regularization       1.000E-04                     *
* Trust Upper Limit    5.000E+00                     *
* Max Number of Memory Steps    8                    *
******************************************************
 
:PWTMP   1.0862E+02  1.9467E+02  2.1055E+02
:PLANE:  PW TOTAL      5.5065 DISTAN   5.75E-04  1.04E-02 %
:CHARG:  CLM/ATOM   1381.9271 DISTAN   8.65E-04  6.26E-05 %
 
Step History
        DMIX         DMIXT        Red     Pred      Trust     Lambda    MagRel    MagAbs     Beta
  1   3.5000E-02   3.5000E-02 -1.00E+00  1.00E+00 -1.00E+01  1.00E+00  3.50E-02  3.50E-02  1.00E+00
  2   1.5000E-01   1.5000E-01  3.58E-01  1.00E+00 -1.00E+01  1.00E+00  1.50E-01  3.53E-03  1.00E+00
  3   7.1250E-02   7.1250E-02  7.61E-01  8.33E-01  3.00E+00  1.08E+00  1.60E-01  1.35E-03  1.00E+00
  4   1.7813E-01   1.7813E-01  1.95E-01  2.83E-01  3.94E+00  6.88E-01  8.43E-01  5.41E-03  1.00E+00
  5   7.5118E-02   7.5118E-02 -1.00E+00  9.54E-01  5.26E+00  1.00E+00  2.13E-01  2.67E-04  1.00E+00
:JACOBIANS    1.491E-01   1.064E+00
  
:NORMS:  1/Froebius, Min, Max, Used   0.7410E+00  0.5610E+00  0.9473E+00  0.9075E+00
:INFO :  Number of Memory Steps    4 Skipping    0
:INFO :  SLambda=    1.0313348486  Max    1.0313348486
:PREDicted Charge, CTotal, PW Trust    2.664E-04   5.329E-04   7.363E-04
:PREDicted DMix, Beta, BLim   5.3323E-01  2.8090E+00  2.3854E+00

Eigenvalues, unscaled except for SY+YY
   #     SY Real        SY Imag          SS             YY         SY+YY Real      SY+YY Imag
   1   2.165443E+00   0.000000E+00   2.020947E+00   2.453870E+00   4.648483E+00   0.000000E+00
   2   3.954536E-01   0.000000E+00   1.635718E-01   1.429911E+00   1.868274E+00   0.000000E+00
   3   3.997029E-02   0.000000E+00   1.184365E-02   1.162189E-01   1.656075E-01   0.000000E+00
   4   3.227784E-07   0.000000E+00   1.730120E-07   5.740696E-07   9.333992E-07   0.000000E+00
 
:INFO :  Singular value  4.653E+00 Weight  1.000E+00 Projection -1.024E-04
:INFO :  Singular value  1.867E+00 Weight  1.000E+00 Projection -4.151E-04
:INFO :  Singular value  1.656E-01 Weight  1.000E+00 Projection  2.672E-03
:INFO :  Singular value  9.334E-07 Weight  1.447E-05 Projection  8.352E-06
:RANK :  ACTIVE   3.00/4  =  75.00 % ; YY RANK   3.00/4  =  75.00 %
 
:BLIM :  VZERO Control Off
:TRUST:  Step 6.33E+00  Charge 6.00E-02 (e) CTO  2.00E-01 (e) PW  2.80E-01 (e)
:DIRM :  MEMORY  4/8  SCALE   1.000 RED  0.83 PRED  0.95 NEXT  0.45 
:TRAVE:  Charge 3.82E-04 (e) CTO  7.64E-04 (e) PW  5.12E-04 (e)
:DIRP :  |MSR1|= 3.745E-04 |PRATT|= 5.750E-04 ANGLE=   9.0 DEGREES
:DIRQ :  |MSR1|= 5.573E-04 |PRATT|= 8.654E-04 ANGLE=  23.1 DEGREES
:DIRT :  |MSR1|= 6.715E-04 |PRATT|= 1.039E-03 ANGLE=  19.8 DEGREES
:MIX  :   MSE1   REGULARIZATION:  2.45E-04 GREED: 0.18780  Newton 1.00  0.6462                
     
       CHARGES OF MIXED CHARGE DENSITY
:CTO   : INTERSTITIAL CHARGE =     5.503551
:CPC   : PW Pseudocharge     =    18.373816
:CTO001: CHARGE SPHERE  1    =    56.248225

:NEC03: NUCLEAR AND ELECTRONIC CHARGE    118.00000   118.00000

PW CHANGE     H    K    L      Current       Change    Residue
:PTO001:      0    0    0  1.13405820E-01  5.228E-06  6.835E-06
:PTO003:      0    2    0  2.24522255E-02  3.601E-06  7.219E-06
:PTO004:     -1    1    0  9.77917156E-02  4.601E-06  8.737E-06
:PTO005:      0    2   -1 -1.10055989E-01 -4.816E-06 -8.985E-06
:PTO006:      0    0   -2 -5.67521091E-02 -2.472E-06 -4.673E-06
:PTO007:     -1    1   -1 -1.07160598E-01  1.425E-07 -5.927E-07
:PTO008:      0    2   -2 -1.18924158E-02 -1.282E-07 -3.075E-07
:PTO009:     -1    1   -2 -5.77821981E-02  4.224E-06  6.707E-06
:PTO011:     -1    3    0 -7.17803458E-03  1.470E-06  2.513E-06
:PTO012:     -1    3   -1 -2.60212903E-02  3.193E-06  5.586E-06
:PTO013:      0    4    0 -3.66844881E-03  9.427E-07  1.542E-06
:PTO014:      0    2   -3  8.88797018E-03 -1.221E-06 -1.832E-06

:ENE  : ********** TOTAL ENERGY IN Ry =       -36944.31607432

       TOTAL FORCE IN mRy/a.u. = |F|     Fx             Fy             Fz     with/without FOR in case.in2
:FOR001:   1.ATOM          9.819          0.000          0.000         -9.819 partial forces
       TOTAL FORCE WITH RESPECT TO GLOBAL CARTESIAN COORDINATES:
:FCA001:   1.ATOM                         0.000         -9.819          0.000 partial forces
       TOTAL FORCE WITH RESPECT TO THE GLOBAL COORDINATE SYSTEM:
:FGL001:   1.ATOM                 0.000000000    -9.819030493     0.000000000 partial forces
 Flat Integration
 New Mode for Coulomb Integral
 Consistent 3/8+Simpson combinations
 Extension of core to zero
 LDM version in phi
 Fifth-order quadrature in outwin


            ---------
:ITE019: 19. ITERATION
            ---------

:NATO :    1 INDEPENDENT AND    2 TOTAL ATOMS IN UNITCELL
       SUBSTANCE: aU                                                          

       LATTICE                      = CXY 
:POT  : POTENTIAL OPTION EX_LDA EC_LDA VX_LDA VC_LDA
:LAT  : LATTICE CONSTANTS=  4.91110  9.96586  8.60374    1.571    1.571    1.571
:VOL  : UNIT CELL VOLUME =     210.54799
       MODE OF CALCULATION IS       = RELA
       NON-SPINPOLARIZED CALCULATION
:IFFT  : FFT-parameters:   40   80   72 Factor: 2.00


   CONVERGENCE PARAMETER FOR PSEUDOCHARGE: NCON=  9
   MAXIMAL VALUE OF RMT(JATOM)*ABSK(NKK) : RK  =27.58737


:VKCOUL :  VK-COUL convergence: 0.328E-06
       ATOMNUMBER=  1 Pr1        VCOUL-ZERO =  0.98862E+00
:EFG001:                        EFG         =     9.50930   *10**21  V / m**2
                               V20  TOT/SRF=    -2.60444    -0.10265
                               V22  TOT/SRF=    -8.00563    -0.01108
                               V22M TOT/SRF=     0.00000     0.00000
                               V21  TOT/SRF=     0.00000     0.00000
                               V21M TOT/SRF=     0.00000     0.00000

             -6.50196    0.00000    0.00000       -6.50196    0.00000    0.00000
              0.00000    9.50930    0.00000        0.00000    9.50930    0.00000
              0.00000    0.00000   -3.00735        0.00000    0.00000   -3.00735

         MAIN DIRECTIONS OF THE EFG   1.0000  0.0000  0.0000
                                      0.0000  1.0000  0.0000
                                      0.0000  0.0000  1.0000
:ANG001:  ANGLE WITH OLD X-AXIS =         0.0

:ETA001:                         ASYMM. ETA =     0.36749


     HELLMANN-FEYNMAN-FORCE IN mRy/a.u. = |F|  Fx       Fy             Fz
:FHF001:   1.ATOM   1227.313647970049      0.000000000000      0.000000000000  -1227.313647970049

:FIT001: LUSE= 13 SIGMA OF V-XC FIT FOR ATOM  1  0.4123826E-03
:FIT001: LUSE= 13 SIGMA OF V-XC FIT FOR ATOM  1  0.4123826E-03
:DEN  : DENSITY INTEGRAL  =        -14264.37815537   (Ry)
       ELS_POTENTIAL_AT Z=0 and Z=0.5:   1.20035   1.20035
       ELS_POTENTIAL_AT Y=0 and Y=0.5:  -0.08025  -0.08025
:VZERO:v0,v0c,v0x   0.34222   1.20035  -0.85813 v5,v5c,v5x   0.34222   1.20035  -0.85813
:VZERY:v0,v0c,v0x  -1.16131  -0.08025  -1.08106 v5,v5c,v5x  -1.16131  -0.08025  -1.08106
:VZERX:v0,v0c,v0x  -1.39652  -0.39008  -1.00644 v5,v5c,v5x  -1.39652  -0.39008  -1.00644
:LMAX-WF:   10   Non-Spherical LMAX:   4

          ATOMIC SPHERE DEPENDENT PARAMETERS FOR ATOM  Pr1       
:e__0001: OVERALL ENERGY PARAMETER IS    1.3646
          OVERALL BASIS SET ON ATOM IS LAPW
:E0_0001: E( 0)=    1.3646
             APW+lo
:E0_0001: E( 0)=   -1.0508   E(BOTTOM)=   -1.704   E(TOP)=   -0.398  4  5   277
             LOCAL ORBITAL
:E1_0001: E( 1)=    1.7646
             APW+lo
:E1_0001: E( 1)=    0.4103   E(BOTTOM)=   -0.571   E(TOP)=    1.391  3  4   287
             LOCAL ORBITAL
:E3_0001: E( 3)=    1.6084   E(BOTTOM)=    1.392   E(TOP)=    1.825  0  1   125
             APW+lo
:E2_0001: E( 2)=    1.3646   E(BOTTOM)=    1.153   E(TOP)= -200.000  2 -1   123
             APW+lo

       K=   0.06250   0.00000   0.06250            1
:RKM  : MATRIX SIZE   214LOs:  40  RKM= 8.50  WEIGHT= 4.00  PGR:    
       EIGENVALUES ARE:
:EIG00001:      -1.2047394   -1.0239287   -0.0790450    0.3742398    0.4882213
:EIG00006:       0.5304795    0.5700876    0.5810115    1.3722145    1.5002091
:EIG00011:       1.5090522    1.5143599    1.5392144    1.5592337    1.5850367
:EIG00016:       1.6098097    1.6279729    1.6361403    1.6483233    1.6556990
:EIG00021:       1.6699761    1.6785395    1.6867431    1.7190592    1.7386094
:EIG00026:       1.8041004    1.8517762    1.8722569    1.9592904    2.0174659
:EIG00031:       2.1326114    2.3375875    2.4867181    2.5049853    2.7655657
:EIG00036:       2.8082397    2.8572343    3.1734772    3.2470074    3.4876489
:EIG00041:       3.6658961    3.7075369    3.8671184    3.9728421    4.1140700
:EIG00046:       4.1198107    4.1726673    4.3568391    4.3833319    4.5170927
 
:EIG00051:       4.6801107    4.8744198    5.0244386    5.1249635    5.2239190
:EIG00056:       5.3522042    5.4335803    5.5810290    5.6267465    5.6805280
:EIG00061:       5.7912006    5.8152977    6.0454379    6.0858049    6.0935137
:EIG00066:       6.1539725    6.2220255    6.3337723    6.3647942    6.5136908
:EIG00071:       6.5244386    6.7218020    6.7262445    6.7410248    6.7496853
:EIG00076:       6.7695297    6.8368479    6.9005383    6.9172816    6.9998326
:EIG00081:       7.0052671    7.1234703    7.1588242    7.2636609    7.3918648
:EIG00086:       7.4387552    7.5274280    7.5300761    7.6469942    7.7290725
:EIG00091:       7.8849721    7.8932235    7.9560980    7.9750061    8.0052406
[...]
  5   7.5118E-02   7.5118E-02  8.31E-01  9.54E-01  5.26E+00  1.03E+00  2.13E-01  2.67E-04  1.00E+00
  6   1.8780E-01   1.8780E-01 -1.00E+00  4.47E-01  6.33E+00  1.00E+00  6.46E-01  6.71E-04  1.00E+00
:JACOBIANS    2.731E-01   1.337E+00
  
:NORMS:  1/Froebius, Min, Max, Used   0.7486E+00  0.5094E+00  0.9377E+00  0.9153E+00
:INFO :  Number of Memory Steps    5 Skipping    0
:INFO :  SLambda=    0.8297114477  Max    0.8297114477
:PREDicted Charge, CTotal, PW Trust    1.065E-04   2.130E-04   7.876E-04
:PREDicted DMix, Beta, BLim   3.3160E-01  1.1611E+00  5.2005E+00

Eigenvalues, unscaled except for SY+YY
   #     SY Real        SY Imag          SS             YY         SY+YY Real      SY+YY Imag
   1   2.275806E+00   0.000000E+00   2.191147E+00   2.615554E+00   4.479715E+00   0.000000E+00
   2   9.245522E-01   0.000000E+00   5.857871E-01   1.773765E+00   2.537461E+00   0.000000E+00
   3   1.228962E-01   0.000000E+00   2.505258E-02   6.104244E-01   7.398947E-01   0.000000E+00
   4   1.563880E-08   0.000000E+00   8.083844E-05   2.571468E-04   9.729810E-08   0.000000E+00
   5   1.546562E-04   0.000000E+00   3.326106E-09   8.425168E-08   3.992878E-04   0.000000E+00
 
:INFO :  Singular value  4.481E+00 Weight  1.000E+00 Projection  4.137E-06
:INFO :  Singular value  2.539E+00 Weight  1.000E+00 Projection -8.610E-05
:INFO :  Singular value  7.394E-01 Weight  1.000E+00 Projection -6.360E-05
:INFO :  Singular value  3.993E-04 Weight  6.997E-01 Projection -1.384E-02
:INFO :  Singular value  9.730E-08 Weight  1.384E-07 Projection -1.284E-08
:RANK :  ACTIVE   3.70/5  =  73.99 % ; YY RANK   3.49/5  =  69.83 %
 
:BLIM :  VZERO Control Off
:TRUST:  Step 8.44E+00  Charge 4.80E-02 (e) CTO  1.60E-01 (e) PW  2.24E-01 (e)
:DIRM :  MEMORY  5/8  SCALE   1.000 RED  0.33 PRED  0.45 NEXT  0.38 
:TRAVE:  Charge 2.01E-04 (e) CTO  4.03E-04 (e) PW  3.53E-04 (e)
:DIRP :  |MSR1|= 1.541E-04 |PRATT|= 1.923E-04 ANGLE=   5.9 DEGREES
:DIRQ :  |MSR1|= 1.563E-04 |PRATT|= 2.786E-04 ANGLE=  11.9 DEGREES
:DIRT :  |MSR1|= 2.195E-04 |PRATT|= 3.385E-04 ANGLE=  14.0 DEGREES
:MIX  :   MSD1   REGULARIZATION:  2.62E-04 GREED: 0.23839  Newton 1.00  0.6483                
     
       CHARGES OF MIXED CHARGE DENSITY
:CTO   : INTERSTITIAL CHARGE =     5.503510
:CPC   : PW Pseudocharge     =    18.374231
:CTO001: CHARGE SPHERE  1    =    56.248245

:NEC03: NUCLEAR AND ELECTRONIC CHARGE    118.00000   118.00000

PW CHANGE     H    K    L      Current       Change    Residue
:PTO001:      0    0    0  1.13407594E-01  1.775E-06  2.191E-06
:PTO003:      0    2    0  2.24528353E-02  6.098E-07  4.961E-07
:PTO004:     -1    1    0  9.77945005E-02  2.785E-06  3.849E-06
:PTO005:      0    2   -1 -1.10058429E-01 -2.440E-06 -3.083E-06
:PTO006:      0    0   -2 -5.67535563E-02 -1.447E-06 -1.943E-06
:PTO007:     -1    1   -1 -1.07162793E-01 -2.195E-06 -3.253E-06
:PTO008:      0    2   -2 -1.18919299E-02  4.858E-07  8.815E-07
:PTO009:     -1    1   -2 -5.77807744E-02  1.424E-06  1.809E-06
:PTO011:     -1    3    0 -7.17753837E-03  4.962E-07  5.769E-07
:PTO012:     -1    3   -1 -2.60186142E-02  2.676E-06  3.259E-06
:PTO013:      0    4    0 -3.66779460E-03  6.542E-07  7.995E-07
:PTO014:      0    2   -3  8.88689321E-03 -1.077E-06 -1.147E-06

:ENE  : ********** TOTAL ENERGY IN Ry =       -36944.31607462

       TOTAL FORCE IN mRy/a.u. = |F|     Fx             Fy             Fz     with/without FOR in case.in2
:FOR001:   1.ATOM          9.316          0.000          0.000         -9.316 partial forces
       TOTAL FORCE WITH RESPECT TO GLOBAL CARTESIAN COORDINATES:
:FCA001:   1.ATOM                         0.000         -9.316          0.000 partial forces
       TOTAL FORCE WITH RESPECT TO THE GLOBAL COORDINATE SYSTEM:
:FGL001:   1.ATOM                 0.000000000    -9.316091334     0.000000000 partial forces
 Flat Integration
 New Mode for Coulomb Integral
 Consistent 3/8+Simpson combinations
 Extension of core to zero
 LDM version in phi
 Fifth-order quadrature in outwin


            ---------
:ITE020: 20. ITERATION
            ---------

:NATO :    1 INDEPENDENT AND    2 TOTAL ATOMS IN UNITCELL
       SUBSTANCE: aU                                                          

       LATTICE                      = CXY 
:POT  : POTENTIAL OPTION EX_LDA EC_LDA VX_LDA VC_LDA
:LAT  : LATTICE CONSTANTS=  4.91110  9.96586  8.60374    1.571    1.571    1.571
:VOL  : UNIT CELL VOLUME =     210.54799
       MODE OF CALCULATION IS       = RELA
       NON-SPINPOLARIZED CALCULATION
:IFFT  : FFT-parameters:   40   80   72 Factor: 2.00


   CONVERGENCE PARAMETER FOR PSEUDOCHARGE: NCON=  9
   MAXIMAL VALUE OF RMT(JATOM)*ABSK(NKK) : RK  =27.58737


:VKCOUL :  VK-COUL convergence: 0.328E-06
       ATOMNUMBER=  1 Pr1        VCOUL-ZERO =  0.98863E+00
:EFG001:                        EFG         =     9.50946   *10**21  V / m**2
                               V20  TOT/SRF=    -2.60766    -0.10265
                               V22  TOT/SRF=    -8.00392    -0.01108
                               V22M TOT/SRF=     0.00000     0.00000
                               V21  TOT/SRF=     0.00000     0.00000
                               V21M TOT/SRF=     0.00000     0.00000

             -6.49839    0.00000    0.00000       -6.49839    0.00000    0.00000
              0.00000    9.50946    0.00000        0.00000    9.50946    0.00000
              0.00000    0.00000   -3.01107        0.00000    0.00000   -3.01107

         MAIN DIRECTIONS OF THE EFG   1.0000  0.0000  0.0000
                                      0.0000  1.0000  0.0000
                                      0.0000  0.0000  1.0000
:ANG001:  ANGLE WITH OLD X-AXIS =         0.0

:ETA001:                         ASYMM. ETA =     0.36672


     HELLMANN-FEYNMAN-FORCE IN mRy/a.u. = |F|  Fx       Fy             Fz
:FHF001:   1.ATOM   1227.645608596865      0.000000000000      0.000000000000  -1227.645608596865

:FIT001: LUSE= 13 SIGMA OF V-XC FIT FOR ATOM  1  0.4125175E-03
:FIT001: LUSE= 13 SIGMA OF V-XC FIT FOR ATOM  1  0.4125175E-03
:DEN  : DENSITY INTEGRAL  =        -14264.38008461   (Ry)
       ELS_POTENTIAL_AT Z=0 and Z=0.5:   1.20036   1.20036
       ELS_POTENTIAL_AT Y=0 and Y=0.5:  -0.08025  -0.08025
:VZERO:v0,v0c,v0x   0.34223   1.20036  -0.85813 v5,v5c,v5x   0.34223   1.20036  -0.85813
:VZERY:v0,v0c,v0x  -1.16131  -0.08025  -1.08106 v5,v5c,v5x  -1.16131  -0.08025  -1.08106
:VZERX:v0,v0c,v0x  -1.39653  -0.39009  -1.00644 v5,v5c,v5x  -1.39653  -0.39009  -1.00644
:LMAX-WF:   10   Non-Spherical LMAX:   4

          ATOMIC SPHERE DEPENDENT PARAMETERS FOR ATOM  Pr1       
:e__0001: OVERALL ENERGY PARAMETER IS    1.3647
          OVERALL BASIS SET ON ATOM IS LAPW
:E0_0001: E( 0)=    1.3647
             APW+lo
:E0_0001: E( 0)=   -1.0508   E(BOTTOM)=   -1.704   E(TOP)=   -0.398  4  5   278
             LOCAL ORBITAL
:E1_0001: E( 1)=    1.7647
             APW+lo
:E1_0001: E( 1)=    0.4103   E(BOTTOM)=   -0.571   E(TOP)=    1.391  3  4   287
             LOCAL ORBITAL
:E3_0001: E( 3)=    1.6084   E(BOTTOM)=    1.392   E(TOP)=    1.825  0  1   122
             APW+lo
:E2_0001: E( 2)=    1.3647   E(BOTTOM)=    1.153   E(TOP)= -200.000  2 -1   120
             APW+lo

       K=   0.06250   0.00000   0.06250            1
:RKM  : MATRIX SIZE   214LOs:  40  RKM= 8.50  WEIGHT= 4.00  PGR:    
       EIGENVALUES ARE:
:EIG00001:      -1.2047201   -1.0239092   -0.0790266    0.3742608    0.4882425
:EIG00006:       0.5304969    0.5701064    0.5810289    1.3722307    1.5002254
:EIG00011:       1.5090675    1.5143780    1.5392293    1.5592505    1.5850529
:EIG00016:       1.6098234    1.6279882    1.6361545    1.6483398    1.6557136
:EIG00021:       1.6699901    1.6785557    1.6867587    1.7190761    1.7386246
:EIG00026:       1.8041167    1.8517931    1.8722737    1.9593063    2.0174821
:EIG00031:       2.1326261    2.3376023    2.4867354    2.5049989    2.7655787
:EIG00036:       2.8082525    2.8572473    3.1734898    3.2470220    3.4876648
:EIG00041:       3.6659096    3.7075514    3.8671308    3.9728554    4.1140830
:EIG00046:       4.1198238    4.1726807    4.3568523    4.3833460    4.5171055
 
:EIG00051:       4.6801251    4.8744340    5.0244540    5.1249780    5.2239350
:EIG00056:       5.3522195    5.4335955    5.5810425    5.6267599    5.6805423
:EIG00061:       5.7912137    5.8153122    6.0454523    6.0858183    6.0935282
:EIG00066:       6.1539859    6.2220376    6.3337862    6.3648079    6.5137033
:EIG00071:       6.5244522    6.7218148    6.7262580    6.7410382    6.7496980
:EIG00076:       6.7695431    6.8368606    6.9005513    6.9172953    6.9998453
:EIG00081:       7.0052796    7.1234825    7.1588384    7.2636728    7.3918789
:EIG00086:       7.4387681    7.5274413    7.5300897    7.6470073    7.7290848
:EIG00091:       7.8849837    7.8932367    7.9561105    7.9750197    8.0052530
:EIG00096:       8.1335019    8.1747347    8.3189233    8.4207886    8.4429719
 
:EIG00101:       8.4566130    8.5154157    8.5193709    8.6364655    8.6995851
:EIG00106:       8.8649651    9.0391999
       ********************************************************

:KPT   :      NUMBER OF K-POINTS:   288
   0.0   0.0 angle (M,z), angle (M,x) deg
 
        SPIN-ORBIT EIGENVALUES:
     K=   0.06250   0.00000   0.06250            1
      MATRIX SIZE=  214   WEIGHT= 4.00
     EIGENVALUES ARE:
          -1.2047275   -1.2047275   -1.0239193   -1.0239193   -0.0967260
          -0.0967260    0.3496792    0.3496792    0.3667195    0.3667195
           0.5845830    0.5845830    0.6052810    0.6052810    0.6351647
           0.6351647    1.3722217    1.3722217    1.4994997    1.4994997
           1.5081099    1.5081099    1.5134865    1.5134865    1.5385258
           1.5385259    1.5586770    1.5586770    1.5842169    1.5842169
           1.6072044    1.6072044    1.6244375    1.6244375    1.6355271
           1.6355271    1.6501459    1.6501459    1.6583422    1.6583422

           1.6707422    1.6707422    1.6792163    1.6792163    1.6883551
           1.6883551    1.7204505    1.7204505    1.7397851    1.7397851
           1.8041371    1.8041371    1.8501015    1.8501015    1.8742911
           1.8742911    1.9598839    1.9598839    2.0176268    2.0176268
           2.1329130    2.1329130    2.3378363    2.3378363    2.4860044
           2.4860044    2.5061262    2.5061262    2.7663258    2.7663258
           2.8084411    2.8084411    2.8573152    2.8573152    3.1733514
           3.1733514    3.2466381    3.2466381    3.4870530    3.4870530

           3.6660211    3.6660211    3.7078638    3.7078638    3.8675860
           3.8675860    3.9724620    3.9724620    4.1136953    4.1136953
           4.1197870    4.1197870    4.1730393    4.1730393    4.3556864
           4.3556864    4.3850092    4.3850092
       ********************************************************
:GAP (global)   :    0.0    Ry =     0.0   eV (metal)
:GAP (this spin):    0.0    Ry =     0.0   eV (metal)
         Bandranges (emin - emax) and occupancy:
:BAN00022:  22    1.372962    1.562591  1.00000000
:BAN00023:  23    1.431869    1.573134  0.95879792
:BAN00024:  24    1.431869    1.573134  0.95879791
:BAN00025:  25    1.502257    1.608315  0.60457363
:BAN00026:  26    1.502257    1.608315  0.60457360
:BAN00027:  27    1.524311    1.625555  0.34903969
:BAN00028:  28    1.524311    1.625555  0.34903968
:BAN00029:  29    1.540827    1.629489  0.08694898
:BAN00030:  30    1.540827    1.629489  0.08694894
:BAN00031:  31    1.564339    1.635992  0.00063982
:BAN00032:  32    1.564340    1.635992  0.00063982
:BAN00033:  33    1.610150    1.654713  0.00000000
:BAN00034:  34    1.610150    1.654713  0.00000000
:BAN00035:  35    1.624189    1.663188  0.00000000
:BAN00036:  36    1.624189    1.663188  0.00000000
:BAN00037:  37    1.642675    1.676126  0.00000000
        Energy to separate low and high energystates:    1.14921


:NOE  : NUMBER OF ELECTRONS          =   26.000

:FER  : F E R M I - ENERGY(TETRAH.M.)=   1.5646917115
:GMA  : POTENTIAL AND CHARGE CUT-OFF  12.00 Ry**.5

:POS001: ATOM   -1 X,Y,Z = 0.00000 0.89750 0.25000  MULT= 2  ZZ= 59.000  Pr1       

       LMMAX 16
       LM=   0 0  1 0  2 0  2 2  3 0  3 2  4 0  4 2  4 4  5 0  5 2  5 4  6 0  6 2  6 4  6 6

:CHA001: TOTAL VALENCE CHARGE INSIDE SPHERE   1 =  10.2498    (RMT=  2.3000 )
:PCS001: PARTIAL CHARGES SPHERE =  1 S,P,D,F,PX,PY,PZ,D-Z2,D-X2Y2,D-XY,D-XZ,D-YZ 
:QTL001: 1.9201 4.9513 1.1424 2.2238 1.6552 1.6458 1.6502 0.2249 0.2040 0.2360 0.2360 0.2415
        Q-s-low E-s-low   Q-p-low E-p-low   Q-d-low E-d-low   Q-f-low E-f-low
:EPL001:  1.8758 -0.9975    4.8327  0.2734    0.0841  0.2378    0.0303  0.2522
        Q-s-hi  E-s-hi    Q-p-hi  E-p-hi    Q-d-hi  E-d-hi    Q-f-hi  E-f-hi 
:EPH001:  0.0442  1.4340    0.1186  1.4525    1.0583  1.4205    2.1935  1.5038

                      VXX         VYY         VZZ       UP TO R
:VZZ001:            -6.58099     9.44288    -2.86189       2.300

:CHA  : TOTAL VALENCE CHARGE INSIDE UNIT CELL =      26.000000

:SUM  : SUM OF EIGENVALUES =          13.700620591


        1.ATOM      Pr1                  14 CORE STATES
       CORE-FORCE in mRy/a.u. = |F|      Fx             Fy             Fz
:FCO001:   1.ATOM   1218.344579395397      0.000000000000      0.000000000000   1218.344579395397

:1S 001: 1S               -3065.977445179 Ry
:2S 001: 2S                -491.726828425 Ry
:2PP001: 2P*               -464.825671096 Ry
:2P 001: 2P                -429.428231977 Ry
:3S 001: 3S                -104.826635940 Ry
:3PP001: 3P*                -93.364130696 Ry
:3P 001: 3P                 -86.356489403 Ry
:3DD001: 3D*                -66.281945127 Ry
:3D 001: 3D                 -64.770520845 Ry
:4S 001: 4S                 -19.494371939 Ry
:4PP001: 4P*                -15.200358706 Ry
:4P 001: 4P                 -13.671806759 Ry
:4DD001: 4D*                 -6.602880156 Ry
:4D 001: 4D                  -6.333147120 Ry
:CINT001 Core Integral Atom   1   45.998416

       DENSITY AT NUCLEUS
        JATOM        VALENCE       SEMI-CORE          CORE           TOTAL
:RTO001:   1      631.295665        0.000000   656826.424416   657457.720082
     
       CHARGES OF NEW CHARGE DENSITY
:NTO   : INTERSTITIAL CHARGE =     5.500323
:NPC   : PW Pseudocharge     =    18.363651
:NTO001: CHARGE SPHERE  1    =    56.248243

:NEC01: NUCLEAR AND ELECTRONIC CHARGE    118.00000   117.99681
     
       CHARGES OF OLD CHARGE DENSITY
:OTO   : INTERSTITIAL CHARGE =     5.503510
:OPC   : PW Pseudocharge     =    18.374231
:OTO001: CHARGE SPHERE  1    =    56.248245

:NEC02: NUCLEAR AND ELECTRONIC CHARGE    118.00000   118.00000
     
       CONVERGENCE TEST
:DTO001: DIFFERENCE IN SPHERE  1 =  0.0000465

:DIS  :  CHARGE DISTANCE       ( 0.0000465 for atom    1 spin 1)      0.0000465
 PW Mixed is          232
 
******************************************************
* MULTISECANT MIXING VER9 RELEASE 10.4.0              *
* Standard Mode with controls                        *
* Fixed density scale                                *
* Regularization       1.000E-04                     *
* Trust Upper Limit    5.000E+00                     *
* Max Number of Memory Steps    8                    *
******************************************************
 
:PWTMP   1.0862E+02  1.9467E+02  2.1055E+02
:PLANE:  PW TOTAL      5.5068 DISTAN   3.43E-05  6.22E-04 %
:CHARG:  CLM/ATOM   1381.9272 DISTAN   7.80E-05  5.64E-06 %
 
Step History
        DMIX         DMIXT        Red     Pred      Trust     Lambda    MagRel    MagAbs     Beta
  1   3.5000E-02   3.5000E-02 -1.00E+00  1.00E+00 -1.00E+01  1.00E+00  3.50E-02  3.50E-02  1.00E+00
  2   1.5000E-01   1.5000E-01  3.58E-01  1.00E+00 -1.00E+01  1.00E+00  1.50E-01  3.53E-03  1.00E+00
  3   7.1250E-02   7.1250E-02  7.61E-01  8.33E-01  3.00E+00  1.08E+00  1.60E-01  1.35E-03  1.00E+00
  4   1.7813E-01   1.7813E-01  1.95E-01  2.83E-01  3.94E+00  6.88E-01  8.43E-01  5.41E-03  1.00E+00
  5   7.5118E-02   7.5118E-02  8.31E-01  9.54E-01  5.26E+00  1.03E+00  2.13E-01  2.67E-04  1.00E+00
  6   1.8780E-01   1.8780E-01  3.26E-01  4.47E-01  6.33E+00  8.30E-01  6.46E-01  6.71E-04  1.00E+00
  7   2.3839E-01   2.3839E-01 -1.00E+00  3.76E-01  8.44E+00  1.00E+00  6.48E-01  2.19E-04  1.00E+00
:JACOBIANS    4.052E-01   1.596E+00
  
:NORMS:  1/Froebius, Min, Max, Used   0.7857E+00  0.5144E+00  0.9741E+00  0.9463E+00
:INFO :  Number of Memory Steps    6 Skipping    0
:INFO :  SLambda=    1.0238599825  Max    1.0238599825
:PREDicted Charge, CTotal, PW Trust    2.833E-05   5.666E-05   2.536E-04
:PREDicted DMix, Beta, BLim   4.6423E-01  1.2039E+00  6.5089E+00

Eigenvalues, unscaled except for SY+YY
   #     SY Real        SY Imag          SS             YY         SY+YY Real      SY+YY Imag
   1   2.288806E+00   0.000000E+00   2.261242E+00   2.525135E+00   4.837321E+00   0.000000E+00
   2   1.577349E+00   0.000000E+00   1.289346E+00   2.164406E+00   3.757858E+00   0.000000E+00
   3   3.145805E-01   0.000000E+00   1.287701E-01   7.331942E-01   7.370012E-01   0.000000E+00
   4   1.173958E-01   0.000000E+00   2.412449E-02   5.772610E-01   1.068501E+00   0.000000E+00
   5   1.292099E-08   0.000000E+00   9.210013E-07   3.579088E-06   8.985621E-08   0.000000E+00
   6   1.792135E-06   0.000000E+00   2.197947E-09   7.648643E-08   5.461084E-06   0.000000E+00
 
:INFO :  Singular value  4.846E+00 Weight  1.000E+00 Projection  8.600E-06
:INFO :  Singular value  3.759E+00 Weight  1.000E+00 Projection  3.256E-05
:INFO :  Singular value  1.068E+00 Weight  1.000E+00 Projection  6.397E-05
:INFO :  Singular value  7.361E-01 Weight  1.000E+00 Projection -1.238E-05
:INFO :  Singular value  5.461E-06 Weight  4.675E-04 Projection -1.214E-05
:INFO :  Singular value  8.986E-08 Weight  1.266E-07 Projection  2.691E-09
:RANK :  ACTIVE   4.00/6  =  66.67 % ; YY RANK   4.00/6  =  66.67 %
 
:BLIM :  VZERO Control Off
:TRUST:  Step 1.12E+01  Charge 3.84E-02 (e) CTO  1.28E-01 (e) PW  1.79E-01 (e)
:DIRM :  MEMORY  6/8  SCALE   1.000 RED  0.25 PRED  0.38 NEXT  0.61 
:TRAVE:  Charge 1.02E-04 (e) CTO  2.04E-04 (e) PW  1.99E-04 (e)
:DIRP :  |MSR1|= 3.546E-05 |PRATT|= 3.427E-05 ANGLE=  19.4 DEGREES
:DIRQ :  |MSR1|= 4.757E-05 |PRATT|= 7.795E-05 ANGLE=  12.3 DEGREES
:DIRT :  |MSR1|= 5.933E-05 |PRATT|= 8.515E-05 ANGLE=  19.3 DEGREES
:MIX  :   MSE1   REGULARIZATION:  2.53E-04 GREED: 0.32801  Newton 1.00  0.6967                
     
       CHARGES OF MIXED CHARGE DENSITY
:CTO   : INTERSTITIAL CHARGE =     5.503505
:CPC   : PW Pseudocharge     =    18.374323
:CTO001: CHARGE SPHERE  1    =    56.248247

:NEC03: NUCLEAR AND ELECTRONIC CHARGE    118.00000   118.00000

PW CHANGE     H    K    L      Current       Change    Residue
:PTO001:      0    0    0  1.13408008E-01  4.138E-07  3.770E-07
:PTO003:      0    2    0  2.24528145E-02 -2.077E-08 -3.084E-07
:PTO004:     -1    1    0  9.77950736E-02  5.731E-07  4.711E-07
:PTO005:      0    2   -1 -1.10059033E-01 -6.040E-07 -6.024E-07
:PTO006:      0    0   -2 -5.67538825E-02 -3.262E-07 -3.017E-07
:PTO007:     -1    1   -1 -1.07163416E-01 -6.230E-07 -8.122E-07
:PTO008:      0    2   -2 -1.18917716E-02  1.583E-07  2.605E-07
:PTO009:     -1    1   -2 -5.77803694E-02  4.050E-07  4.857E-07
:PTO011:     -1    3    0 -7.17747212E-03  6.624E-08 -2.105E-08
:PTO012:     -1    3   -1 -2.60179682E-02  6.460E-07  5.910E-07
:PTO013:      0    4    0 -3.66765708E-03  1.375E-07  9.691E-08
:PTO014:      0    2   -3  8.88666924E-03 -2.240E-07 -1.196E-07

:ENE  : ********** TOTAL ENERGY IN Ry =       -36944.31607490

       TOTAL FORCE IN mRy/a.u. = |F|     Fx             Fy             Fz     with/without FOR in case.in2
:FOR001:   1.ATOM          9.301          0.000          0.000         -9.301 partial forces
       TOTAL FORCE WITH RESPECT TO GLOBAL CARTESIAN COORDINATES:
:FCA001:   1.ATOM                         0.000         -9.301          0.000 partial forces
       TOTAL FORCE WITH RESPECT TO THE GLOBAL COORDINATE SYSTEM:
:FGL001:   1.ATOM                 0.000000000    -9.301029201     0.000000000 partial forces
