
:LABEL1: Calculations in /home/ykent/GWIEN/example/Pr/aU/V15/case
:LABEL2: on didymium-2.cmpgroup.ameslab.gov at Fri Jul 10 13:23:19 CDT 2020
:LABEL3: using WIEN2k_19.1 (Release 25/6/2019) in /home/ykent/opt/src/WIEN2k_19.1
:LABEL4: using the command: run_lapw -cc 0.0001
 Flat Integration
 New Mode for Coulomb Integral
 Consistent 3/8+Simpson combinations
 Extension of core to zero
 LDM version in phi
 Fifth-order quadrature in outwin


            ---------
:ITE001:  1. ITERATION
            ---------

:NATO :    1 INDEPENDENT AND    2 TOTAL ATOMS IN UNITCELL
       SUBSTANCE: aU                                                          

       LATTICE                      = CXY 
:POT  : POTENTIAL OPTION EX_LDA EC_LDA VX_LDA VC_LDA
:LAT  : LATTICE CONSTANTS=  6.26593 12.71516 10.97726    1.571    1.571    1.571
:VOL  : UNIT CELL VOLUME =     437.29197
       MODE OF CALCULATION IS       = RELA
       NON-SPINPOLARIZED CALCULATION
:IFFT  : FFT-parameters:   48  100   90 Factor: 2.00


   CONVERGENCE PARAMETER FOR PSEUDOCHARGE: NCON=  9
   MAXIMAL VALUE OF RMT(JATOM)*ABSK(NKK) : RK  =27.59083


:VKCOUL :  VK-COUL convergence: 0.124E-06
       ATOMNUMBER=  1 Pr1        VCOUL-ZERO =  0.14650E+00
:EFG001:                        EFG         =    -0.03359   *10**21  V / m**2
                               V20  TOT/SRF=    -0.02909    -0.03695
                               V22  TOT/SRF=     0.00506     0.00609
                               V22M TOT/SRF=     0.00000     0.00000
                               V21  TOT/SRF=     0.00000     0.00000
                               V21M TOT/SRF=     0.00000     0.00000

              0.02185    0.00000    0.00000        0.02185    0.00000    0.00000
              0.00000    0.01174    0.00000        0.00000    0.01174    0.00000
              0.00000    0.00000   -0.03359        0.00000    0.00000   -0.03359

         MAIN DIRECTIONS OF THE EFG   1.0000  0.0000  0.0000
                                      0.0000  1.0000  0.0000
                                      0.0000  0.0000  1.0000
:ANG001:  ANGLE WITH OLD X-AXIS =         0.0

:ETA001:                         ASYMM. ETA =     0.30114


     HELLMANN-FEYNMAN-FORCE IN mRy/a.u. = |F|  Fx       Fy             Fz
:FHF001:   1.ATOM    380.610232282024      0.000000000000      0.000000000000   -380.610232282024

:FIT001: LUSE= 13 SIGMA OF V-XC FIT FOR ATOM  1  0.3432516E-05
:FIT001: LUSE= 13 SIGMA OF V-XC FIT FOR ATOM  1  0.3432516E-05
:DEN  : DENSITY INTEGRAL  =        -14163.37046472   (Ry)
       ELS_POTENTIAL_AT Z=0 and Z=0.5:   0.74820   0.74820
       ELS_POTENTIAL_AT Y=0 and Y=0.5:   0.05008   0.05008
:VZERO:v0,v0c,v0x   0.14997   0.74820  -0.59823 v5,v5c,v5x   0.14997   0.74820  -0.59823
:VZERY:v0,v0c,v0x  -0.74660   0.05008  -0.79669 v5,v5c,v5x  -0.74660   0.05008  -0.79669
:VZERX:v0,v0c,v0x  -1.12791  -0.37241  -0.75549 v5,v5c,v5x  -1.12791  -0.37241  -0.75549
:LMAX-WF:   10   Non-Spherical LMAX:   4

          ATOMIC SPHERE DEPENDENT PARAMETERS FOR ATOM  Pr1       
:e__0001: OVERALL ENERGY PARAMETER IS    0.3000
          OVERALL BASIS SET ON ATOM IS LAPW
:E0_0001: E( 0)=    0.3000
             APW+lo
:E0_0001: E( 0)=   -1.9369   E(BOTTOM)=   -2.577   E(TOP)=   -1.297  4  5   186
             LOCAL ORBITAL
:E1_0001: E( 1)=    0.7000
             APW+lo
:E1_0001: E( 1)=   -0.4698   E(BOTTOM)=   -1.433   E(TOP)=    0.494  3  4   195
             LOCAL ORBITAL
:E3_0001: E( 3)=    0.7284   E(BOTTOM)=    0.516   E(TOP)=    0.941  0  1   144
             APW+lo
:E2_0001: E( 2)=    0.3043   E(BOTTOM)=    0.304   E(TOP)= -200.000  2 -1    85
             APW+lo

       K=   0.06250   0.00000   0.06250            1
:RKM  : MATRIX SIZE   421LOs:  40  RKM= 8.50  WEIGHT= 4.00  PGR:    
       EIGENVALUES ARE:
:EIG00001:      -1.9163977   -1.8960290   -0.6649917   -0.5631937   -0.5409902
:EIG00006:      -0.5337939   -0.5259557   -0.5243685    0.4654420    0.5935767
:EIG00011:       0.7139886    0.7241763    0.7267402    0.7304261    0.7352654
:EIG00016:       0.7518422    0.7565548    0.7576153    0.7613859    0.7628074
:EIG00021:       0.7665905    0.7709042    0.7722233    0.7807619    0.7922454
:EIG00026:       0.8000297    0.8797002    0.8881704    0.9273610    0.9540151
:EIG00031:       0.9708129    1.0714314    1.1169275    1.1689464    1.4660865
:EIG00036:       1.4906307    1.5512919    1.5679764    1.7266144    1.7794900
:EIG00041:       1.8699026    1.9687469
       ********************************************************

:KPT   :      NUMBER OF K-POINTS:   288
:GAP (global)   :    0.0    Ry =     0.0   eV (metal)
         Bandranges (emin - emax) and occupancy:
:BAN00004:   4   -0.643853   -0.563194  2.00000000
:BAN00005:   5   -0.629783   -0.540990  2.00000000
:BAN00006:   6   -0.611070   -0.528779  2.00000000
:BAN00007:   7   -0.586930   -0.525204  2.00000000
:BAN00008:   8   -0.548980   -0.519794  2.00000000
:BAN00009:   9    0.459782    0.674318  2.00000000
:BAN00010:  10    0.569557    0.687508  2.00000000
:BAN00011:  11    0.622543    0.717385  2.00000000
:BAN00012:  12    0.675393    0.728257  2.00000000
:BAN00013:  13    0.701132    0.746763  1.60784370
:BAN00014:  14    0.719900    0.753303  0.39215629
:BAN00015:  15    0.732153    0.757149  0.00000000
:BAN00016:  16    0.740920    0.758050  0.00000000
:BAN00017:  17    0.746622    0.758614  0.00000000
:BAN00018:  18    0.750360    0.760375  0.00000000
:BAN00019:  19    0.754330    0.763530  0.00000000
        Energy to separate low and high energystates:    0.40978


:NOE  : NUMBER OF ELECTRONS          =   26.000

:FER  : F E R M I - ENERGY(TETRAH.M.)=   0.7318740544
:GMA  : POTENTIAL AND CHARGE CUT-OFF  12.00 Ry**.5

:POS001: ATOM   -1 X,Y,Z = 0.00000 0.89750 0.25000  MULT= 2  ZZ= 59.000  Pr1       

       LMMAX 16
       LM=   0 0  1 0  2 0  2 2  3 0  3 2  4 0  4 2  4 4  5 0  5 2  5 4  6 0  6 2  6 4  6 6

:CHA001: TOTAL VALENCE CHARGE INSIDE SPHERE   1 =   9.1133    (RMT=  2.3000 )
:PCS001: PARTIAL CHARGES SPHERE =  1 S,P,D,F,PX,PY,PZ,D-Z2,D-X2Y2,D-XY,D-XZ,D-YZ 
:QTL001: 1.9456 5.0126 0.7141 1.4406 1.6656 1.6675 1.6795 0.1376 0.1478 0.1394 0.1399 0.1495
        Q-s-low E-s-low   Q-p-low E-p-low   Q-d-low E-d-low   Q-f-low E-f-low
:EPL001:  1.8665 -1.8959    4.9186 -0.5819    0.0029 -0.6144    0.0008 -0.6252
        Q-s-hi  E-s-hi    Q-p-hi  E-p-hi    Q-d-hi  E-d-hi    Q-f-hi  E-f-hi 
:EPH001:  0.0791  0.6066    0.0940  0.6549    0.7112  0.6597    1.4398  0.7090

                      VXX         VYY         VZZ       UP TO R
:VZZ001:             4.62418     4.97057    -9.59475       2.300

:CHA  : TOTAL VALENCE CHARGE INSIDE UNIT CELL =      26.000000

:SUM  : SUM OF EIGENVALUES =          -7.918112112


        1.ATOM      Pr1                  14 CORE STATES
       CORE-FORCE in mRy/a.u. = |F|      Fx             Fy             Fz
:FCO001:   1.ATOM    309.367957943011      0.000000000000      0.000000000000    309.367957943011

:1S 001: 1S               -3066.816294169 Ry
:2S 001: 2S                -492.582006957 Ry
:2PP001: 2P*               -465.679633122 Ry
:2P 001: 2P                -430.282833114 Ry
:3S 001: 3S                -105.679743005 Ry
:3PP001: 3P*                -94.217146053 Ry
:3P 001: 3P                 -87.209776630 Ry
:3DD001: 3D*                -67.136093925 Ry
:3D 001: 3D                 -65.624673713 Ry
:4S 001: 4S                 -20.366243517 Ry
:4PP001: 4P*                -16.073362386 Ry
:4P 001: 4P                 -14.546526883 Ry
:4DD001: 4D*                 -7.480702888 Ry
:4D 001: 4D                  -7.211519318 Ry
:CINT001 Core Integral Atom   1   45.998461

       DENSITY AT NUCLEUS
        JATOM        VALENCE       SEMI-CORE          CORE           TOTAL
:RTO001:   1      648.395973        0.000000   656820.582566   657468.978538
     
       CHARGES OF NEW CHARGE DENSITY
:NTO   : INTERSTITIAL CHARGE =     7.773316
:NPC   : PW Pseudocharge     =    17.276076
:NTO001: CHARGE SPHERE  1    =    55.111802

:NEC01: NUCLEAR AND ELECTRONIC CHARGE    118.00000   117.99692
     
       CHARGES OF OLD CHARGE DENSITY
:OTO   : INTERSTITIAL CHARGE =     6.847253
:OPC   : PW Pseudocharge     =    15.843456
:OTO001: CHARGE SPHERE  1    =    55.577008

:NEC02: NUCLEAR AND ELECTRONIC CHARGE    118.00000   118.00127
     
       CONVERGENCE TEST
:DTO001: DIFFERENCE IN SPHERE  1 =  0.7645068

:DIS  :  CHARGE DISTANCE       ( 0.7645068 for atom    1 spin 1)      0.7645068
 PW Mixed is          455
 
******************************************************
* MULTISECANT MIXING VER9 RELEASE 10.4.0              *
* Standard Mode with controls                        *
* Fixed density scale                                *
* Regularization       1.000E-04                     *
* Trust Upper Limit    5.000E+00                     *
* Max Number of Memory Steps    8                    *
******************************************************
 
:PWTMP   3.3536E+02  1.9467E+02  4.3729E+02
:PLANE:  PW TOTAL      4.4398 DISTAN   5.61E-01  1.26E+01 %
:CHARG:  CLM/ATOM   1382.0519 DISTAN   1.17E+00  8.49E-02 %
 
Step History
        DMIX         DMIXT        Red     Pred      Trust     Lambda    MagRel    MagAbs     Beta
  1   3.5000E-02   3.5000E-02 -1.00E+00  1.00E+00 -1.00E+01  1.00E+00  3.50E-02  3.50E-02  1.00E+00
:INFO :  Note, Pratt in use
:TRUST:  Step 3.75E-02  Charge 7.50E-02 (e) CTO  2.50E-01 (e) PW  3.50E-01 (e)
:DIRM :  MEMORY  0/ 8 SCALE   1.000
Performing Pseudo Compensation
Final Pseudo Compensation Rescaling     1.00000E+00
:MIX  :   PRATT  REGULARIZATION:  1.00E-04 GREED: 0.02500                  
     
       CHARGES OF MIXED CHARGE DENSITY
:CTO   : INTERSTITIAL CHARGE =     6.869245
:CPC   : PW Pseudocharge     =    16.731154
:CTO001: CHARGE SPHERE  1    =    55.565378

:NEC03: NUCLEAR AND ELECTRONIC CHARGE    118.00000   118.00000

PW CHANGE     H    K    L      Current       Change    Residue
:PTO001:      0    0    0  5.39694308E-02  2.090E-03  5.426E-03
:PTO003:      0    2    0  1.43697151E-02  9.561E-04  2.047E-03
:PTO004:     -1    1    0  7.06028658E-02  5.104E-03  7.430E-03
:PTO005:      0    2   -1 -8.22764231E-02 -6.028E-03 -7.401E-03
:PTO006:      0    0   -2 -4.26943443E-02 -3.131E-03 -3.700E-03
:PTO007:     -1    1   -1 -8.90404286E-02 -7.108E-03 -7.408E-03
:PTO008:      0    2   -2 -1.44220431E-02 -1.436E-03 -1.683E-03
:PTO009:     -1    1   -2 -7.20606235E-02 -7.793E-03 -9.416E-03
:PTO011:     -1    3    0 -1.14734682E-02 -1.503E-03 -1.703E-03
:PTO012:     -1    3   -1 -5.12220688E-02 -7.449E-03 -9.578E-03
:PTO013:      0    4    0 -9.44840787E-03 -1.541E-03 -1.654E-03
:PTO014:      0    2   -3  2.12967099E-02  3.508E-03  4.450E-03

:ENE  : ********** TOTAL ENERGY IN Ry =       -36944.22807756

       TOTAL FORCE IN mRy/a.u. = |F|     Fx             Fy             Fz     with/without FOR in case.in2
:FOR001:   1.ATOM         71.242          0.000          0.000        -71.242 partial forces
       TOTAL FORCE WITH RESPECT TO GLOBAL CARTESIAN COORDINATES:
:FCA001:   1.ATOM                         0.000        -71.242          0.000 partial forces
       TOTAL FORCE WITH RESPECT TO THE GLOBAL COORDINATE SYSTEM:
:FGL001:   1.ATOM                 0.000000000   -71.242274339     0.000000000 partial forces
 Flat Integration
 New Mode for Coulomb Integral
 Consistent 3/8+Simpson combinations
 Extension of core to zero
 LDM version in phi
 Fifth-order quadrature in outwin


            ---------
:ITE002:  2. ITERATION
            ---------

:NATO :    1 INDEPENDENT AND    2 TOTAL ATOMS IN UNITCELL
       SUBSTANCE: aU                                                          

       LATTICE                      = CXY 
:POT  : POTENTIAL OPTION EX_LDA EC_LDA VX_LDA VC_LDA
:LAT  : LATTICE CONSTANTS=  6.26593 12.71516 10.97726    1.571    1.571    1.571
:VOL  : UNIT CELL VOLUME =     437.29197
       MODE OF CALCULATION IS       = RELA
       NON-SPINPOLARIZED CALCULATION
:IFFT  : FFT-parameters:   48  100   90 Factor: 2.00


   CONVERGENCE PARAMETER FOR PSEUDOCHARGE: NCON=  9
   MAXIMAL VALUE OF RMT(JATOM)*ABSK(NKK) : RK  =27.59083


:VKCOUL :  VK-COUL convergence: 0.742E-07
       ATOMNUMBER=  1 Pr1        VCOUL-ZERO =  0.14989E+00
:EFG001:                        EFG         =    -0.27348   *10**21  V / m**2
                               V20  TOT/SRF=    -0.23684    -0.03663
                               V22  TOT/SRF=     0.00031     0.00545
                               V22M TOT/SRF=     0.00000     0.00000
                               V21  TOT/SRF=     0.00000     0.00000
                               V21M TOT/SRF=     0.00000     0.00000

              0.13705    0.00000    0.00000        0.13705    0.00000    0.00000
              0.00000    0.13643    0.00000        0.00000    0.13643    0.00000
              0.00000    0.00000   -0.27348        0.00000    0.00000   -0.27348

         MAIN DIRECTIONS OF THE EFG   1.0000  0.0000  0.0000
                                      0.0000  1.0000  0.0000
                                      0.0000  0.0000  1.0000
:ANG001:  ANGLE WITH OLD X-AXIS =         0.0

:ETA001:                         ASYMM. ETA =     0.00228


     HELLMANN-FEYNMAN-FORCE IN mRy/a.u. = |F|  Fx       Fy             Fz
:FHF001:   1.ATOM    384.738139835180      0.000000000000      0.000000000000   -384.738139835180

:FIT001: LUSE= 13 SIGMA OF V-XC FIT FOR ATOM  1  0.3480263E-05
:FIT001: LUSE= 13 SIGMA OF V-XC FIT FOR ATOM  1  0.3480263E-05
:DEN  : DENSITY INTEGRAL  =        -14161.40856651   (Ry)
       ELS_POTENTIAL_AT Z=0 and Z=0.5:   0.75394   0.75394
       ELS_POTENTIAL_AT Y=0 and Y=0.5:   0.05374   0.05374
:VZERO:v0,v0c,v0x   0.15498   0.75394  -0.59896 v5,v5c,v5x   0.15498   0.75394  -0.59896
:VZERY:v0,v0c,v0x  -0.74523   0.05374  -0.79896 v5,v5c,v5x  -0.74523   0.05374  -0.79896
:VZERX:v0,v0c,v0x  -1.13974  -0.37845  -0.76129 v5,v5c,v5x  -1.13974  -0.37845  -0.76129
:LMAX-WF:   10   Non-Spherical LMAX:   4

          ATOMIC SPHERE DEPENDENT PARAMETERS FOR ATOM  Pr1       
:e__0001: OVERALL ENERGY PARAMETER IS    0.5000
          OVERALL BASIS SET ON ATOM IS LAPW
:E0_0001: E( 0)=    0.5000
             APW+lo
:E0_0001: E( 0)=   -1.9416   E(BOTTOM)=   -2.580   E(TOP)=   -1.303  4  5   185
             LOCAL ORBITAL
:E1_0001: E( 1)=    0.9000
             APW+lo
:E1_0001: E( 1)=   -0.4735   E(BOTTOM)=   -1.435   E(TOP)=    0.488  3  4   204
             LOCAL ORBITAL
:E3_0001: E( 3)=    0.7174   E(BOTTOM)=    0.507   E(TOP)=    0.928  0  1   119
             APW+lo
:E2_0001: E( 2)=    0.5000   E(BOTTOM)=    0.303   E(TOP)= -200.000  2 -1    86
             APW+lo

       K=   0.06250   0.00000   0.06250            1
:RKM  : MATRIX SIZE   421LOs:  40  RKM= 8.50  WEIGHT= 4.00  PGR:    
       EIGENVALUES ARE:
:EIG00001:      -1.9204688   -1.9003020   -0.6662853   -0.5656062   -0.5435621
:EIG00006:      -0.5363675   -0.5284131   -0.5270368    0.4687838    0.5963824
:EIG00011:       0.7092728    0.7162629    0.7176957    0.7218337    0.7261734
:EIG00016:       0.7416316    0.7464065    0.7473440    0.7508509    0.7539688
:EIG00021:       0.7577261    0.7607217    0.7628295    0.7696933    0.7860626
:EIG00026:       0.7963181    0.8792603    0.8890504    0.9286249    0.9551102
:EIG00031:       0.9715813    1.0723769    1.1172737    1.1690007    1.4680279
:EIG00036:       1.4917038    1.5535170    1.5693605    1.7292491    1.7823455
:EIG00041:       1.8721849    1.9710040    2.0650623    2.0783089    2.1998815
       ********************************************************

:KPT   :      NUMBER OF K-POINTS:   288
:GAP (global)   :    0.0    Ry =     0.0   eV (metal)
         Bandranges (emin - emax) and occupancy:
:BAN00005:   5   -0.631632   -0.543562  2.00000000
:BAN00006:   6   -0.612954   -0.531402  2.00000000
:BAN00007:   7   -0.589026   -0.527861  2.00000000
:BAN00008:   8   -0.551401   -0.522504  2.00000000
:BAN00009:   9    0.463139    0.674743  2.00000000
:BAN00010:  10    0.572557    0.687931  2.00000000
:BAN00011:  11    0.624842    0.715686  2.00000000
:BAN00012:  12    0.675555    0.722074  2.00000000
:BAN00013:  13    0.697527    0.736726  1.59530868
:BAN00014:  14    0.713293    0.744169  0.40468161
:BAN00015:  15    0.723801    0.747394  0.00000971
:BAN00016:  16    0.732285    0.748487  0.00000000
:BAN00017:  17    0.736719    0.748526  0.00000000
:BAN00018:  18    0.740925    0.750163  0.00000000
:BAN00019:  19    0.744344    0.753569  0.00000000
:BAN00020:  20    0.748063    0.760693  0.00000000
        Energy to separate low and high energystates:    0.41314


:NOE  : NUMBER OF ELECTRONS          =   26.000

:FER  : F E R M I - ENERGY(TETRAH.M.)=   0.7238193287
:GMA  : POTENTIAL AND CHARGE CUT-OFF  12.00 Ry**.5

:POS001: ATOM   -1 X,Y,Z = 0.00000 0.89750 0.25000  MULT= 2  ZZ= 59.000  Pr1       

       LMMAX 16
       LM=   0 0  1 0  2 0  2 2  3 0  3 2  4 0  4 2  4 4  5 0  5 2  5 4  6 0  6 2  6 4  6 6

:CHA001: TOTAL VALENCE CHARGE INSIDE SPHERE   1 =   9.2408    (RMT=  2.3000 )
:PCS001: PARTIAL CHARGES SPHERE =  1 S,P,D,F,PX,PY,PZ,D-Z2,D-X2Y2,D-XY,D-XZ,D-YZ 
:QTL001: 1.9446 5.0112 0.6690 1.6157 1.6659 1.6670 1.6783 0.1274 0.1336 0.1338 0.1320 0.1421
        Q-s-low E-s-low   Q-p-low E-p-low   Q-d-low E-d-low   Q-f-low E-f-low
:EPL001:  1.8673 -1.9001    4.9253 -0.5840    0.0028 -0.6164    0.0008 -0.6271
        Q-s-hi  E-s-hi    Q-p-hi  E-p-hi    Q-d-hi  E-d-hi    Q-f-hi  E-f-hi 
:EPH001:  0.0773  0.6069    0.0858  0.6517    0.6661  0.6570    1.6149  0.7030

                      VXX         VYY         VZZ       UP TO R
:VZZ001:             3.30826     4.82123    -8.12949       2.300

:CHA  : TOTAL VALENCE CHARGE INSIDE UNIT CELL =      26.000000

:SUM  : SUM OF EIGENVALUES =          -7.973557764


        1.ATOM      Pr1                  14 CORE STATES
       CORE-FORCE in mRy/a.u. = |F|      Fx             Fy             Fz
:FCO001:   1.ATOM    319.920938225812      0.000000000000      0.000000000000    319.920938225812

:1S 001: 1S               -3066.840678150 Ry
:2S 001: 2S                -492.605955570 Ry
:2PP001: 2P*               -465.703641035 Ry
:2P 001: 2P                -430.306814817 Ry
:3S 001: 3S                -105.702706016 Ry
:3PP001: 3P*                -94.240185863 Ry
:3P 001: 3P                 -87.232694133 Ry
:3DD001: 3D*                -67.159238511 Ry
:3D 001: 3D                 -65.647786140 Ry
:4S 001: 4S                 -20.383604772 Ry
:4PP001: 4P*                -16.090386479 Ry
:4P 001: 4P                 -14.563024904 Ry
:4DD001: 4D*                 -7.496262220 Ry
:4D 001: 4D                  -7.226898138 Ry
:CINT001 Core Integral Atom   1   45.998475

       DENSITY AT NUCLEUS
        JATOM        VALENCE       SEMI-CORE          CORE           TOTAL
:RTO001:   1      648.677072        0.000000   656821.819617   657470.496689
     
       CHARGES OF NEW CHARGE DENSITY
:NTO   : INTERSTITIAL CHARGE =     7.518376
:NPC   : PW Pseudocharge     =    17.196965
:NTO001: CHARGE SPHERE  1    =    55.239286

:NEC01: NUCLEAR AND ELECTRONIC CHARGE    118.00000   117.99695
     
       CHARGES OF OLD CHARGE DENSITY
:OTO   : INTERSTITIAL CHARGE =     6.869245
:OPC   : PW Pseudocharge     =    16.731154
:OTO001: CHARGE SPHERE  1    =    55.565378

:NEC02: NUCLEAR AND ELECTRONIC CHARGE    118.00000   118.00000
     
       CONVERGENCE TEST
:DTO001: DIFFERENCE IN SPHERE  1 =  0.5334058

:DIS  :  CHARGE DISTANCE       ( 0.5334058 for atom    1 spin 1)      0.5334058
 PW Mixed is          455
 
******************************************************
* MULTISECANT MIXING VER9 RELEASE 10.4.0              *
* Slow Mode, cautious                                *
* Fixed density scale                                *
* Regularization       1.000E-04                     *
* Step Trust Radius    0.75000                       *
* Trust Upper Limit    2.000E+00                     *
* Max Number of Memory Steps   12                    *
******************************************************
 
:PWTMP   3.3536E+02  1.9467E+02  4.3729E+02
:PLANE:  PW TOTAL      4.7905 DISTAN   1.73E-01  3.60E+00 %
:CHARG:  CLM/ATOM   1382.0470 DISTAN   8.96E-01  6.48E-02 %
 
Step History
        DMIX         DMIXT        Red     Pred      Trust     Lambda    MagRel    MagAbs     Beta
  1   3.5000E-02   3.5000E-02 -1.00E+00  1.00E+00 -1.00E+01  1.00E+00  3.50E-02  3.50E-02  1.00E+00
  2   2.5000E-02   2.5000E-02 -1.00E+00  1.00E+00 -1.00E+01  1.00E+00  2.50E-02  3.25E-02  1.00E+00
:JACOBIANS    3.071E-01   1.544E-02
  
:TRUST:  Step 3.78E-02  Charge 7.50E-02 (e) CTO  2.50E-01 (e) PW  3.50E-01 (e)
:DIRM :  MEMORY  1/12 SCALE   1.000
:MIX  :   PRATT  REGULARIZATION:  1.00E-04 GREED: 0.03778  Expand 1.51  0.0378                
     
       CHARGES OF MIXED CHARGE DENSITY
:CTO   : INTERSTITIAL CHARGE =     6.890971
:CPC   : PW Pseudocharge     =    17.563041
:CTO001: CHARGE SPHERE  1    =    55.554515

:NEC03: NUCLEAR AND ELECTRONIC CHARGE    118.00000   118.00000

PW CHANGE     H    K    L      Current       Change    Residue
:PTO001:      0    0    0  5.59214744E-02  1.952E-03  2.573E-03
:PTO003:      0    2    0  1.52627391E-02  8.930E-04  1.021E-03
:PTO004:     -1    1    0  7.53700812E-02  4.767E-03  2.257E-03
:PTO005:      0    2   -1 -8.79066416E-02 -5.630E-03 -1.347E-03
:PTO006:      0    0   -2 -4.56188359E-02 -2.924E-03 -5.679E-04
:PTO007:     -1    1   -1 -9.56794292E-02 -6.639E-03 -4.261E-04
:PTO008:      0    2   -2 -1.57636605E-02 -1.342E-03 -2.522E-04
:PTO009:     -1    1   -2 -7.93400093E-02 -7.279E-03 -1.796E-03
:PTO011:     -1    3    0 -1.28774549E-02 -1.404E-03 -2.238E-04
:PTO012:     -1    3   -1 -5.81793051E-02 -6.957E-03 -2.203E-03
:PTO013:      0    4    0 -1.08876176E-02 -1.439E-03 -1.207E-04
:PTO014:      0    2   -3  2.45737234E-02  3.277E-03  9.292E-04

:ENE  : ********** TOTAL ENERGY IN Ry =       -36944.21124383

       TOTAL FORCE IN mRy/a.u. = |F|     Fx             Fy             Fz     with/without FOR in case.in2
:FOR001:   1.ATOM         64.817          0.000          0.000        -64.817 partial forces
       TOTAL FORCE WITH RESPECT TO GLOBAL CARTESIAN COORDINATES:
:FCA001:   1.ATOM                         0.000        -64.817          0.000 partial forces
       TOTAL FORCE WITH RESPECT TO THE GLOBAL COORDINATE SYSTEM:
:FGL001:   1.ATOM                 0.000000000   -64.817201609     0.000000000 partial forces
 Flat Integration
 New Mode for Coulomb Integral
 Consistent 3/8+Simpson combinations
 Extension of core to zero
 LDM version in phi
 Fifth-order quadrature in outwin


            ---------
:ITE003:  3. ITERATION
            ---------

:NATO :    1 INDEPENDENT AND    2 TOTAL ATOMS IN UNITCELL
       SUBSTANCE: aU                                                          

       LATTICE                      = CXY 
:POT  : POTENTIAL OPTION EX_LDA EC_LDA VX_LDA VC_LDA
:LAT  : LATTICE CONSTANTS=  6.26593 12.71516 10.97726    1.571    1.571    1.571
:VOL  : UNIT CELL VOLUME =     437.29197
       MODE OF CALCULATION IS       = RELA
       NON-SPINPOLARIZED CALCULATION
:IFFT  : FFT-parameters:   48  100   90 Factor: 2.00


   CONVERGENCE PARAMETER FOR PSEUDOCHARGE: NCON=  9
   MAXIMAL VALUE OF RMT(JATOM)*ABSK(NKK) : RK  =27.59083


:VKCOUL :  VK-COUL convergence: 0.790E-07
       ATOMNUMBER=  1 Pr1        VCOUL-ZERO =  0.15307E+00
:EFG001:                        EFG         =    -0.49756   *10**21  V / m**2
                               V20  TOT/SRF=    -0.43090    -0.03633
                               V22  TOT/SRF=    -0.00413     0.00484
                               V22M TOT/SRF=     0.00000     0.00000
                               V21  TOT/SRF=     0.00000     0.00000
                               V21M TOT/SRF=     0.00000     0.00000

              0.24465    0.00000    0.00000        0.24465    0.00000    0.00000
              0.00000    0.25291    0.00000        0.00000    0.25291    0.00000
              0.00000    0.00000   -0.49756        0.00000    0.00000   -0.49756

         MAIN DIRECTIONS OF THE EFG   1.0000  0.0000  0.0000
                                      0.0000  1.0000  0.0000
                                      0.0000  0.0000  1.0000
:ANG001:  ANGLE WITH OLD X-AXIS =         0.0

:ETA001:                         ASYMM. ETA =     0.01659


     HELLMANN-FEYNMAN-FORCE IN mRy/a.u. = |F|  Fx       Fy             Fz
:FHF001:   1.ATOM    388.774470177257      0.000000000000      0.000000000000   -388.774470177257

:FIT001: LUSE= 13 SIGMA OF V-XC FIT FOR ATOM  1  0.3603368E-05
:FIT001: LUSE= 13 SIGMA OF V-XC FIT FOR ATOM  1  0.3603368E-05
:DEN  : DENSITY INTEGRAL  =        -14159.57867970   (Ry)
       ELS_POTENTIAL_AT Z=0 and Z=0.5:   0.75943   0.75943
       ELS_POTENTIAL_AT Y=0 and Y=0.5:   0.05716   0.05716
:VZERO:v0,v0c,v0x   0.15976   0.75943  -0.59967 v5,v5c,v5x   0.15976   0.75943  -0.59967
:VZERY:v0,v0c,v0x  -0.74395   0.05716  -0.80111 v5,v5c,v5x  -0.74395   0.05716  -0.80111
:VZERX:v0,v0c,v0x  -1.15057  -0.38415  -0.76642 v5,v5c,v5x  -1.15057  -0.38415  -0.76642
:LMAX-WF:   10   Non-Spherical LMAX:   4

          ATOMIC SPHERE DEPENDENT PARAMETERS FOR ATOM  Pr1       
:e__0001: OVERALL ENERGY PARAMETER IS    0.5159
          OVERALL BASIS SET ON ATOM IS LAPW
:E0_0001: E( 0)=    0.5159
             APW+lo
:E0_0001: E( 0)=   -1.9460   E(BOTTOM)=   -2.583   E(TOP)=   -1.309  4  5   183
             LOCAL ORBITAL
:E1_0001: E( 1)=    0.9159
             APW+lo
:E1_0001: E( 1)=   -0.4770   E(BOTTOM)=   -1.437   E(TOP)=    0.483  3  4   196
             LOCAL ORBITAL
:E3_0001: E( 3)=    0.7071   E(BOTTOM)=    0.499   E(TOP)=    0.915  0  1   120
             APW+lo
:E2_0001: E( 2)=    0.5159   E(BOTTOM)=    0.303   E(TOP)= -200.000  2 -1    87
             APW+lo

       K=   0.06250   0.00000   0.06250            1
:RKM  : MATRIX SIZE   421LOs:  40  RKM= 8.50  WEIGHT= 4.00  PGR:    
       EIGENVALUES ARE:
:EIG00001:      -1.9242598   -1.9042812   -0.6674736   -0.5678381   -0.5459431
:EIG00006:      -0.5387524   -0.5306879   -0.5295097    0.4719949    0.5990398
:EIG00011:       0.7038274    0.7085247    0.7091298    0.7135029    0.7176348
:EIG00016:       0.7320382    0.7368075    0.7376321    0.7409580    0.7445793
:EIG00021:       0.7487123    0.7515464    0.7535148    0.7593653    0.7818205
:EIG00026:       0.7945856    0.8792573    0.8900849    0.9299529    0.9562993
:EIG00031:       0.9724747    1.0734357    1.1178086    1.1692996    1.4700136
:EIG00036:       1.4929856    1.5558051    1.5709844    1.7318949    1.7852326
:EIG00041:       1.8745164    1.9734161    2.0671645    2.0804913    2.2014712
       ********************************************************

:KPT   :      NUMBER OF K-POINTS:   288
:GAP (global)   :    0.0    Ry =     0.0   eV (metal)
         Bandranges (emin - emax) and occupancy:
:BAN00005:   5   -0.633338   -0.545943  2.00000000
:BAN00006:   6   -0.614693   -0.533833  2.00000000
:BAN00007:   7   -0.590963   -0.530324  2.00000000
:BAN00008:   8   -0.553629   -0.525015  2.00000000
:BAN00009:   9    0.466365    0.673075  2.00000000
:BAN00010:  10    0.575431    0.687271  2.00000000
:BAN00011:  11    0.626937    0.711101  2.00000000
:BAN00012:  12    0.675177    0.715628  2.00000000
:BAN00013:  13    0.693523    0.727303  1.57142876
:BAN00014:  14    0.706662    0.734815  0.42783719
:BAN00015:  15    0.715921    0.737521  0.00073406
:BAN00016:  16    0.723634    0.738427  0.00000000
:BAN00017:  17    0.727486    0.739180  0.00000000
:BAN00018:  18    0.731665    0.740356  0.00000000
:BAN00019:  19    0.735183    0.744014  0.00000000
:BAN00020:  20    0.738887    0.750697  0.00000000
        Energy to separate low and high energystates:    0.41637


:NOE  : NUMBER OF ELECTRONS          =   26.000

:FER  : F E R M I - ENERGY(TETRAH.M.)=   0.7159900143
:GMA  : POTENTIAL AND CHARGE CUT-OFF  12.00 Ry**.5

:POS001: ATOM   -1 X,Y,Z = 0.00000 0.89750 0.25000  MULT= 2  ZZ= 59.000  Pr1       

       LMMAX 16
       LM=   0 0  1 0  2 0  2 2  3 0  3 2  4 0  4 2  4 4  5 0  5 2  5 4  6 0  6 2  6 4  6 6

:CHA001: TOTAL VALENCE CHARGE INSIDE SPHERE   1 =   9.3655    (RMT=  2.3000 )
:PCS001: PARTIAL CHARGES SPHERE =  1 S,P,D,F,PX,PY,PZ,D-Z2,D-X2Y2,D-XY,D-XZ,D-YZ 
:QTL001: 1.9436 5.0100 0.6257 1.7858 1.6661 1.6667 1.6771 0.1181 0.1212 0.1282 0.1241 0.1342
        Q-s-low E-s-low   Q-p-low E-p-low   Q-d-low E-d-low   Q-f-low E-f-low
:EPL001:  1.8681 -1.9041    4.9316 -0.5860    0.0028 -0.6182    0.0008 -0.6288
        Q-s-hi  E-s-hi    Q-p-hi  E-p-hi    Q-d-hi  E-d-hi    Q-f-hi  E-f-hi 
:EPH001:  0.0755  0.6073    0.0784  0.6486    0.6229  0.6544    1.7850  0.6970

                      VXX         VYY         VZZ       UP TO R
:VZZ001:             2.22131     4.47472    -6.69604       2.300

:CHA  : TOTAL VALENCE CHARGE INSIDE UNIT CELL =      26.000000

:SUM  : SUM OF EIGENVALUES =          -8.029092344


        1.ATOM      Pr1                  14 CORE STATES
       CORE-FORCE in mRy/a.u. = |F|      Fx             Fy             Fz
:FCO001:   1.ATOM    329.924971495642      0.000000000000      0.000000000000    329.924971495642

:1S 001: 1S               -3066.863441526 Ry
:2S 001: 2S                -492.628312296 Ry
:2PP001: 2P*               -465.726053150 Ry
:2P 001: 2P                -430.329202451 Ry
:3S 001: 3S                -105.724142146 Ry
:3PP001: 3P*                -94.261693729 Ry
:3P 001: 3P                 -87.254087763 Ry
:3DD001: 3D*                -67.180844255 Ry
:3D 001: 3D                 -65.669361846 Ry
:4S 001: 4S                 -20.399809578 Ry
:4PP001: 4P*                -16.106276723 Ry
:4P 001: 4P                 -14.578424020 Ry
:4DD001: 4D*                 -7.510786312 Ry
:4D 001: 4D                  -7.241253784 Ry
:CINT001 Core Integral Atom   1   45.998488

       DENSITY AT NUCLEUS
        JATOM        VALENCE       SEMI-CORE          CORE           TOTAL
:RTO001:   1      648.911217        0.000000   656822.974742   657471.885959
     
       CHARGES OF NEW CHARGE DENSITY
:NTO   : INTERSTITIAL CHARGE =     7.268975
:NPC   : PW Pseudocharge     =    17.121516
:NTO001: CHARGE SPHERE  1    =    55.363999

:NEC01: NUCLEAR AND ELECTRONIC CHARGE    118.00000   117.99697
     
       CHARGES OF OLD CHARGE DENSITY
:OTO   : INTERSTITIAL CHARGE =     6.890971
:OPC   : PW Pseudocharge     =    17.563041
:OTO001: CHARGE SPHERE  1    =    55.554515

:NEC02: NUCLEAR AND ELECTRONIC CHARGE    118.00000   118.00000
     
       CONVERGENCE TEST
:DTO001: DIFFERENCE IN SPHERE  1 =  0.3124674

:DIS  :  CHARGE DISTANCE       ( 0.3124674 for atom    1 spin 1)      0.3124674
 PW Mixed is          455
 
******************************************************
* MULTISECANT MIXING VER9 RELEASE 10.4.0              *
* Standard Mode with controls                        *
* Fixed density scale                                *
* Regularization       1.000E-04                     *
* Trust Upper Limit    5.000E+00                     *
* Max Number of Memory Steps    8                    *
******************************************************
 
:PWTMP   3.3536E+02  1.9467E+02  4.3729E+02
:PLANE:  PW TOTAL      5.1283 DISTAN   3.23E-01  6.29E+00 %
:CHARG:  CLM/ATOM   1382.0424 DISTAN   6.75E-01  4.88E-02 %
 
Step History
        DMIX         DMIXT        Red     Pred      Trust     Lambda    MagRel    MagAbs     Beta
  1   3.5000E-02   3.5000E-02 -1.00E+00  1.00E+00 -1.00E+01  1.00E+00  3.50E-02  3.50E-02  1.00E+00
  2   2.5000E-02   2.5000E-02  7.01E-01  1.00E+00 -1.00E+01  1.00E+00  2.50E-02  3.25E-02  1.00E+00
  3   3.7778E-02   3.7778E-02 -1.00E+00  1.00E+00 -1.00E+01  1.00E+00  3.78E-02  3.45E-02  1.00E+00
:JACOBIANS    4.740E-01   2.182E-02
  
:NORMS:  1/Froebius, Min, Max, Used   0.7703E+00  0.3890E+00  0.7779E+00  0.7703E+00
:INFO :  Number of Memory Steps    2 Skipping    0
:INFO :  SLambda=    0.0140736876  Max    0.0140736876
:PREDicted Charge, CTotal, PW Trust    1.023E-02   2.046E-02   3.579E-01
:PREDicted DMix, Beta, BLim   6.2147E-02  9.2102E-01  7.0031E-01

Eigenvalues, unscaled except for SY+YY
   #     SY Real        SY Imag          SS             YY         SY+YY Real      SY+YY Imag
   1   1.259271E+00   0.000000E+00   1.186603E+00   1.999885E+00   2.017608E+00   0.000000E+00
   2  -1.998401E-15   0.000000E+00   0.000000E+00   1.147956E-04   1.150330E-04   0.000000E+00
 
:INFO :  Singular value  2.018E+00 Weight  1.000E+00 Projection  1.621E-03
:INFO :  Singular value  1.150E-04 Weight  2.486E-01 Projection -8.521E+00
:RANK :  ACTIVE   1.25/2  =  62.43 % ; YY RANK   1.25/2  =  62.39 %
 
:DLIM :  Beta Active  9.408E-01
:BLIM :  VZERO Control Off
:TRUST:  Step 2.82E-01  Charge 7.50E-02 (e) CTO  2.50E-01 (e) PW  3.58E-01 (e)
:DIRM :  MEMORY  2/8  SCALE   1.000 RED  0.82 PRED  1.00 NEXT  0.95 BETA  0.94
:TRAVE:  Charge 7.16E-03 (e) CTO  1.43E-02 (e) PW  3.45E-02 (e)
:DIRP :  |MSR1|= 4.861E-02 |PRATT|= 3.226E-01 ANGLE=  14.4 DEGREES
:DIRQ :  |MSR1|= 2.901E-02 |PRATT|= 6.746E-01 ANGLE=   8.4 DEGREES
:DIRT :  |MSR1|= 5.661E-02 |PRATT|= 7.478E-01 ANGLE=  35.3 DEGREES
:MIX  :   MSD1   REGULARIZATION:  2.00E-04 GREED: 0.04802  Newton 1.00  0.0757                
     
       CHARGES OF MIXED CHARGE DENSITY
:CTO   : INTERSTITIAL CHARGE =     6.905282
:CPC   : PW Pseudocharge     =    17.471191
:CTO001: CHARGE SPHERE  1    =    55.547359

:NEC03: NUCLEAR AND ELECTRONIC CHARGE    118.00000   118.00000

PW CHANGE     H    K    L      Current       Change    Residue
:PTO001:      0    0    0  5.57441593E-02 -1.773E-04 -1.220E-04
:PTO003:      0    2    0  1.51964352E-02 -6.630E-05  8.292E-05
:PTO004:     -1    1    0  7.48389460E-02 -5.311E-04 -2.579E-03
:PTO005:      0    2   -1 -8.72317211E-02  6.749E-04  4.273E-03
:PTO006:      0    0   -2 -4.52592984E-02  3.595E-04  2.349E-03
:PTO007:     -1    1   -1 -9.48194935E-02  8.599E-04  6.098E-03
:PTO008:      0    2   -2 -1.55935039E-02  1.702E-04  1.096E-03
:PTO009:     -1    1   -2 -7.84571949E-02  8.828E-04  5.339E-03
:PTO011:     -1    3    0 -1.26962749E-02  1.812E-04  1.176E-03
:PTO012:     -1    3   -1 -5.73542265E-02  8.251E-04  4.707E-03
:PTO013:      0    4    0 -1.07060228E-02  1.816E-04  1.300E-03
:PTO014:      0    2   -3  2.41850751E-02 -3.886E-04 -2.347E-03

:ENE  : ********** TOTAL ENERGY IN Ry =       -36944.20083460

       TOTAL FORCE IN mRy/a.u. = |F|     Fx             Fy             Fz     with/without FOR in case.in2
:FOR001:   1.ATOM         58.849          0.000          0.000        -58.849 partial forces
       TOTAL FORCE WITH RESPECT TO GLOBAL CARTESIAN COORDINATES:
:FCA001:   1.ATOM                         0.000        -58.849          0.000 partial forces
       TOTAL FORCE WITH RESPECT TO THE GLOBAL COORDINATE SYSTEM:
:FGL001:   1.ATOM                 0.000000000   -58.849498682     0.000000000 partial forces
 Flat Integration
 New Mode for Coulomb Integral
 Consistent 3/8+Simpson combinations
 Extension of core to zero
 LDM version in phi
 Fifth-order quadrature in outwin


            ---------
:ITE004:  4. ITERATION
            ---------

:NATO :    1 INDEPENDENT AND    2 TOTAL ATOMS IN UNITCELL
       SUBSTANCE: aU                                                          

       LATTICE                      = CXY 
:POT  : POTENTIAL OPTION EX_LDA EC_LDA VX_LDA VC_LDA
:LAT  : LATTICE CONSTANTS=  6.26593 12.71516 10.97726    1.571    1.571    1.571
:VOL  : UNIT CELL VOLUME =     437.29197
       MODE OF CALCULATION IS       = RELA
       NON-SPINPOLARIZED CALCULATION
:IFFT  : FFT-parameters:   48  100   90 Factor: 2.00


   CONVERGENCE PARAMETER FOR PSEUDOCHARGE: NCON=  9
   MAXIMAL VALUE OF RMT(JATOM)*ABSK(NKK) : RK  =27.59083


:VKCOUL :  VK-COUL convergence: 0.831E-07
       ATOMNUMBER=  1 Pr1        VCOUL-ZERO =  0.15256E+00
:EFG001:                        EFG         =    -0.76518   *10**21  V / m**2
                               V20  TOT/SRF=    -0.66266    -0.03528
                               V22  TOT/SRF=    -0.00559     0.00404
                               V22M TOT/SRF=     0.00000     0.00000
                               V21  TOT/SRF=     0.00000     0.00000
                               V21M TOT/SRF=     0.00000     0.00000

              0.37700    0.00000    0.00000        0.37700    0.00000    0.00000
              0.00000    0.38817    0.00000        0.00000    0.38817    0.00000
              0.00000    0.00000   -0.76518        0.00000    0.00000   -0.76518

         MAIN DIRECTIONS OF THE EFG   1.0000  0.0000  0.0000
                                      0.0000  1.0000  0.0000
                                      0.0000  0.0000  1.0000
:ANG001:  ANGLE WITH OLD X-AXIS =         0.0

:ETA001:                         ASYMM. ETA =     0.01460


     HELLMANN-FEYNMAN-FORCE IN mRy/a.u. = |F|  Fx       Fy             Fz
:FHF001:   1.ATOM    398.208984874893      0.000000000000      0.000000000000   -398.208984874893

:FIT001: LUSE= 13 SIGMA OF V-XC FIT FOR ATOM  1  0.4020173E-05
:FIT001: LUSE= 13 SIGMA OF V-XC FIT FOR ATOM  1  0.4020173E-05
:DEN  : DENSITY INTEGRAL  =        -14158.06118639   (Ry)
       ELS_POTENTIAL_AT Z=0 and Z=0.5:   0.76056   0.76056
       ELS_POTENTIAL_AT Y=0 and Y=0.5:   0.05786   0.05786
:VZERO:v0,v0c,v0x   0.16038   0.76056  -0.60018 v5,v5c,v5x   0.16038   0.76056  -0.60018
:VZERY:v0,v0c,v0x  -0.74362   0.05786  -0.80147 v5,v5c,v5x  -0.74362   0.05786  -0.80147
:VZERX:v0,v0c,v0x  -1.15024  -0.38388  -0.76636 v5,v5c,v5x  -1.15024  -0.38388  -0.76636
:LMAX-WF:   10   Non-Spherical LMAX:   4

          ATOMIC SPHERE DEPENDENT PARAMETERS FOR ATOM  Pr1       
:e__0001: OVERALL ENERGY PARAMETER IS    0.5160
          OVERALL BASIS SET ON ATOM IS LAPW
:E0_0001: E( 0)=    0.5160
             APW+lo
:E0_0001: E( 0)=   -1.9517   E(BOTTOM)=   -2.588   E(TOP)=   -1.316  4  5   185
             LOCAL ORBITAL
:E1_0001: E( 1)=    0.9160
             APW+lo
:E1_0001: E( 1)=   -0.4821   E(BOTTOM)=   -1.441   E(TOP)=    0.476  3  4   197
             LOCAL ORBITAL
:E3_0001: E( 3)=    0.6976   E(BOTTOM)=    0.490   E(TOP)=    0.905  0  1   121
             APW+lo
:E2_0001: E( 2)=    0.5160   E(BOTTOM)=    0.299   E(TOP)= -200.000  2 -1    84
             APW+lo

       K=   0.06250   0.00000   0.06250            1
:RKM  : MATRIX SIZE   421LOs:  40  RKM= 8.50  WEIGHT= 4.00  PGR:    
       EIGENVALUES ARE:
:EIG00001:      -1.9295629   -1.9097272   -0.6708161   -0.5723355   -0.5505365
:EIG00006:      -0.5430370   -0.5348289   -0.5338697    0.4714250    0.5980148
:EIG00011:       0.6971489    0.7006972    0.7007327    0.7049878    0.7091588
:EIG00016:       0.7230649    0.7278440    0.7284044    0.7316341    0.7352823
:EIG00021:       0.7397929    0.7425402    0.7441306    0.7497702    0.7769970
:EIG00026:       0.7914216    0.8767333    0.8880210    0.9282101    0.9543329
:EIG00031:       0.9702849    1.0715607    1.1154999    1.1668274    1.4685991
:EIG00036:       1.4911338    1.5545495    1.5693765    1.7309264    1.7846570
:EIG00041:       1.8734642    1.9724274    2.0657548    2.0794315    2.1998407
       ********************************************************

:KPT   :      NUMBER OF K-POINTS:   288
:GAP (global)   :    0.0    Ry =     0.0   eV (metal)
         Bandranges (emin - emax) and occupancy:
:BAN00005:   5   -0.637180   -0.550536  2.00000000
:BAN00006:   6   -0.618674   -0.538148  2.00000000
:BAN00007:   7   -0.595172   -0.534667  2.00000000
:BAN00008:   8   -0.557815   -0.529400  2.00000000
:BAN00009:   9    0.465805    0.668859  2.00000000
:BAN00010:  10    0.574626    0.683203  2.00000000
:BAN00011:  11    0.625446    0.703727  2.00000000
:BAN00012:  12    0.671922    0.707831  2.00000000
:BAN00013:  13    0.687715    0.718318  1.54495528
:BAN00014:  14    0.699317    0.725730  0.45487420
:BAN00015:  15    0.707872    0.727986  0.00017052
:BAN00016:  16    0.715023    0.728868  0.00000000
:BAN00017:  17    0.718774    0.730613  0.00000000
:BAN00018:  18    0.722710    0.731110  0.00000000
:BAN00019:  19    0.726494    0.734886  0.00000000
:BAN00020:  20    0.730018    0.741224  0.00000000
        Energy to separate low and high energystates:    0.41580


:NOE  : NUMBER OF ELECTRONS          =   26.000

:FER  : F E R M I - ENERGY(TETRAH.M.)=   0.7079053002
:GMA  : POTENTIAL AND CHARGE CUT-OFF  12.00 Ry**.5

:POS001: ATOM   -1 X,Y,Z = 0.00000 0.89750 0.25000  MULT= 2  ZZ= 59.000  Pr1       

       LMMAX 16
       LM=   0 0  1 0  2 0  2 2  3 0  3 2  4 0  4 2  4 4  5 0  5 2  5 4  6 0  6 2  6 4  6 6

:CHA001: TOTAL VALENCE CHARGE INSIDE SPHERE   1 =   9.4521    (RMT=  2.3000 )
:PCS001: PARTIAL CHARGES SPHERE =  1 S,P,D,F,PX,PY,PZ,D-Z2,D-X2Y2,D-XY,D-XZ,D-YZ 
:QTL001: 1.9428 5.0094 0.5958 1.9037 1.6663 1.6666 1.6765 0.1119 0.1127 0.1242 0.1184 0.1285
        Q-s-low E-s-low   Q-p-low E-p-low   Q-d-low E-d-low   Q-f-low E-f-low
:EPL001:  1.8686 -1.9096    4.9359 -0.5901    0.0028 -0.6217    0.0008 -0.6324
        Q-s-hi  E-s-hi    Q-p-hi  E-p-hi    Q-d-hi  E-d-hi    Q-f-hi  E-f-hi 
:EPH001:  0.0742  0.6047    0.0735  0.6438    0.5930  0.6498    1.9029  0.6901

                      VXX         VYY         VZZ       UP TO R
:VZZ001:             1.90301     4.34946    -6.25248       2.300

:CHA  : TOTAL VALENCE CHARGE INSIDE UNIT CELL =      26.000000

:SUM  : SUM OF EIGENVALUES =          -8.139653308


        1.ATOM      Pr1                  14 CORE STATES
       CORE-FORCE in mRy/a.u. = |F|      Fx             Fy             Fz
:FCO001:   1.ATOM    350.273416842130      0.000000000000      0.000000000000    350.273416842130

:1S 001: 1S               -3066.881377861 Ry
:2S 001: 2S                -492.645620001 Ry
:2PP001: 2P*               -465.743435768 Ry
:2P 001: 2P                -430.346550883 Ry
:3S 001: 3S                -105.740751383 Ry
:3PP001: 3P*                -94.278354449 Ry
:3P 001: 3P                 -87.270671682 Ry
:3DD001: 3D*                -67.197560045 Ry
:3D 001: 3D                 -65.686057227 Ry
:4S 001: 4S                 -20.413156912 Ry
:4PP001: 4P*                -16.119430263 Ry
:4P 001: 4P                 -14.591275069 Ry
:4DD001: 4D*                 -7.523085701 Ry
:4D 001: 4D                  -7.253448119 Ry
:CINT001 Core Integral Atom   1   45.998496

       DENSITY AT NUCLEUS
        JATOM        VALENCE       SEMI-CORE          CORE           TOTAL
:RTO001:   1      649.017645        0.000000   656823.758310   657472.775955
     
       CHARGES OF NEW CHARGE DENSITY
:NTO   : INTERSTITIAL CHARGE =     7.095898
:NPC   : PW Pseudocharge     =    17.069322
:NTO001: CHARGE SPHERE  1    =    55.450547

:NEC01: NUCLEAR AND ELECTRONIC CHARGE    118.00000   117.99699
     
       CHARGES OF OLD CHARGE DENSITY
:OTO   : INTERSTITIAL CHARGE =     6.905282
:OPC   : PW Pseudocharge     =    17.471191
:OTO001: CHARGE SPHERE  1    =    55.547359

:NEC02: NUCLEAR AND ELECTRONIC CHARGE    118.00000   118.00000
     
       CONVERGENCE TEST
:DTO001: DIFFERENCE IN SPHERE  1 =  0.1683289

:DIS  :  CHARGE DISTANCE       ( 0.1683289 for atom    1 spin 1)      0.1683289
 PW Mixed is          455
 
******************************************************
* MULTISECANT MIXING VER9 RELEASE 10.4.0              *
* Standard Mode with controls                        *
* Fixed density scale                                *
* Regularization       1.000E-04                     *
* Trust Upper Limit    5.000E+00                     *
* Max Number of Memory Steps    8                    *
******************************************************
 
:PWTMP   3.3536E+02  1.9467E+02  4.3729E+02
:PLANE:  PW TOTAL      5.0886 DISTAN   2.75E-01  5.40E+00 %
:CHARG:  CLM/ATOM   1382.0367 DISTAN   5.57E-01  4.03E-02 %
 
Step History
        DMIX         DMIXT        Red     Pred      Trust     Lambda    MagRel    MagAbs     Beta
  1   3.5000E-02   3.5000E-02 -1.00E+00  1.00E+00 -1.00E+01  1.00E+00  3.50E-02  3.50E-02  1.00E+00
  2   2.5000E-02   2.5000E-02  7.01E-01  1.00E+00 -1.00E+01  1.00E+00  2.50E-02  3.25E-02  1.00E+00
  3   3.7778E-02   3.7778E-02  8.20E-01  1.00E+00 -1.00E+01  1.41E-02  3.78E-02  3.45E-02  1.00E+00
  4   4.8018E-02   4.8018E-02 -1.00E+00  9.49E-01  2.82E-01  1.00E+00  7.57E-02  5.66E-02  9.41E-01
:JACOBIANS    7.327E-01   4.938E-02
  
:NORMS:  1/Froebius, Min, Max, Used   0.5103E+00  0.3614E+00  0.9947E+00  0.5459E+00
:INFO :  Number of Memory Steps    3 Skipping    0
:INFO :  SLambda=    1.2842112847  Max    1.2842112847
:PREDicted Charge, CTotal, PW Trust    1.611E-02   3.223E-02   3.074E-01
:PREDicted DMix, Beta, BLim   2.4360E-01  3.5803E+00  4.4801E-01

Eigenvalues, unscaled except for SY+YY
   #     SY Real        SY Imag          SS             YY         SY+YY Real      SY+YY Imag
   1   8.290120E-01   0.000000E+00   7.584222E-01   2.545051E+00   3.329986E+00   0.000000E+00
   2  -2.904444E-16   0.000000E+00   2.271993E-02   4.549059E-01   4.366873E-05   0.000000E+00
   3   1.024588E-01   0.000000E+00  -6.736221E-17   4.284545E-05   8.661753E-01   0.000000E+00
 
:INFO :  Singular value  3.330E+00 Weight  1.000E+00 Projection  2.278E-02
:INFO :  Singular value  8.661E-01 Weight  1.000E+00 Projection -5.613E-01
:INFO :  Singular value  4.367E-05 Weight  2.860E-02 Projection  3.375E-01
:RANK :  ACTIVE   2.03/3  =  67.62 % ; YY RANK   2.03/3  =  67.59 %
 
:BLIM :  VZERO Control Off
:TRUST:  Step 3.91E-01  Charge 7.50E-02 (e) CTO  2.50E-01 (e) PW  3.58E-01 (e)
:DTRUS:  Lambda    1.214E-01 Increment    7.276E-12 Iterations    97 DMIX    1.137E-01
:INFOA:  Angle SubSpace to MSR1      3.85
:DIRM :  MEMORY  3/8  SCALE   1.000 RED  0.83 PRED  0.95 NEXT  0.82 
:INFO :  Limited by Atoms F by Step T

:TRAVE:  Charge 6.87E-03 (e) CTO  1.37E-02 (e) PW  1.13E-01 (e)
:DIRP :  |MSR1|= 2.238E-01 |PRATT|= 2.746E-01 ANGLE=  15.5 DEGREES
:DIRQ :  |MSR1|= 9.440E-02 |PRATT|= 5.574E-01 ANGLE=  15.1 DEGREES
:DIRT :  |MSR1|= 2.429E-01 |PRATT|= 6.214E-01 ANGLE=  43.2 DEGREES
:MIX  :   MSE1   REGULARIZATION:  2.55E-04 GREED: 0.12004  LMStep 0.78  0.3909 Step           
     
       CHARGES OF MIXED CHARGE DENSITY
:CTO   : INTERSTITIAL CHARGE =     6.918434
:CPC   : PW Pseudocharge     =    17.028702
:CTO001: CHARGE SPHERE  1    =    55.540783

:NEC03: NUCLEAR AND ELECTRONIC CHARGE    118.00000   118.00000

PW CHANGE     H    K    L      Current       Change    Residue
:PTO001:      0    0    0  5.47623512E-02 -9.818E-04 -4.597E-04
:PTO003:      0    2    0  1.48202014E-02 -3.762E-04  7.506E-05
:PTO004:     -1    1    0  7.23374850E-02 -2.501E-03 -2.130E-03
:PTO005:      0    2   -1 -8.41054708E-02  3.126E-03  3.580E-03
:PTO006:      0    0   -2 -4.36117740E-02  1.648E-03  1.969E-03
:PTO007:     -1    1   -1 -9.09536674E-02  3.866E-03  5.111E-03
:PTO008:      0    2   -2 -1.48166025E-02  7.769E-04  9.536E-04
:PTO009:     -1    1   -2 -7.44436689E-02  4.014E-03  4.346E-03
:PTO011:     -1    3    0 -1.18910692E-02  8.052E-04  9.757E-04
:PTO012:     -1    3   -1 -5.35579241E-02  3.796E-03  3.885E-03
:PTO013:      0    4    0 -9.87374789E-03  8.323E-04  1.102E-03
:PTO014:      0    2   -3  2.23860644E-02 -1.799E-03 -1.952E-03

:ENE  : ********** TOTAL ENERGY IN Ry =       -36944.19655744

       TOTAL FORCE IN mRy/a.u. = |F|     Fx             Fy             Fz     with/without FOR in case.in2
:FOR001:   1.ATOM         47.936          0.000          0.000        -47.936 partial forces
       TOTAL FORCE WITH RESPECT TO GLOBAL CARTESIAN COORDINATES:
:FCA001:   1.ATOM                         0.000        -47.936          0.000 partial forces
       TOTAL FORCE WITH RESPECT TO THE GLOBAL COORDINATE SYSTEM:
:FGL001:   1.ATOM                 0.000000000   -47.935568033     0.000000000 partial forces
 Flat Integration
 New Mode for Coulomb Integral
 Consistent 3/8+Simpson combinations
 Extension of core to zero
 LDM version in phi
 Fifth-order quadrature in outwin


            ---------
:ITE005:  5. ITERATION
            ---------

:NATO :    1 INDEPENDENT AND    2 TOTAL ATOMS IN UNITCELL
       SUBSTANCE: aU                                                          

       LATTICE                      = CXY 
:POT  : POTENTIAL OPTION EX_LDA EC_LDA VX_LDA VC_LDA
:LAT  : LATTICE CONSTANTS=  6.26593 12.71516 10.97726    1.571    1.571    1.571
:VOL  : UNIT CELL VOLUME =     437.29197
       MODE OF CALCULATION IS       = RELA
       NON-SPINPOLARIZED CALCULATION
:IFFT  : FFT-parameters:   48  100   90 Factor: 2.00


   CONVERGENCE PARAMETER FOR PSEUDOCHARGE: NCON=  9
   MAXIMAL VALUE OF RMT(JATOM)*ABSK(NKK) : RK  =27.59083


:VKCOUL :  VK-COUL convergence: 0.101E-06
       ATOMNUMBER=  1 Pr1        VCOUL-ZERO =  0.15083E+00
:EFG001:                        EFG         =    -1.70937   *10**21  V / m**2
                               V20  TOT/SRF=    -1.48036    -0.03226
                               V22  TOT/SRF=    -0.14548     0.00112
                               V22M TOT/SRF=     0.00000     0.00000
                               V21  TOT/SRF=     0.00000     0.00000
                               V21M TOT/SRF=     0.00000     0.00000

              0.70921    0.00000    0.00000        0.70921    0.00000    0.00000
              0.00000    1.00016    0.00000        0.00000    1.00016    0.00000
              0.00000    0.00000   -1.70937        0.00000    0.00000   -1.70937

         MAIN DIRECTIONS OF THE EFG   1.0000  0.0000  0.0000
                                      0.0000  1.0000  0.0000
                                      0.0000  0.0000  1.0000
:ANG001:  ANGLE WITH OLD X-AXIS =         0.0

:ETA001:                         ASYMM. ETA =     0.17021


     HELLMANN-FEYNMAN-FORCE IN mRy/a.u. = |F|  Fx       Fy             Fz
:FHF001:   1.ATOM    495.706001178855      0.000000000000      0.000000000000   -495.706001178855

:FIT001: LUSE= 13 SIGMA OF V-XC FIT FOR ATOM  1  0.7975070E-05
:FIT001: LUSE= 13 SIGMA OF V-XC FIT FOR ATOM  1  0.7975070E-05
:DEN  : DENSITY INTEGRAL  =        -14156.58710136   (Ry)
       ELS_POTENTIAL_AT Z=0 and Z=0.5:   0.76081   0.76081
       ELS_POTENTIAL_AT Y=0 and Y=0.5:   0.05972   0.05972
:VZERO:v0,v0c,v0x   0.16012   0.76081  -0.60069 v5,v5c,v5x   0.16012   0.76081  -0.60069
:VZERY:v0,v0c,v0x  -0.74189   0.05972  -0.80161 v5,v5c,v5x  -0.74189   0.05972  -0.80161
:VZERX:v0,v0c,v0x  -1.14583  -0.38138  -0.76446 v5,v5c,v5x  -1.14583  -0.38138  -0.76446
:LMAX-WF:   10   Non-Spherical LMAX:   4

          ATOMIC SPHERE DEPENDENT PARAMETERS FOR ATOM  Pr1       
:e__0001: OVERALL ENERGY PARAMETER IS    0.5106
          OVERALL BASIS SET ON ATOM IS LAPW
:E0_0001: E( 0)=    0.5106
             APW+lo
:E0_0001: E( 0)=   -1.9589   E(BOTTOM)=   -2.594   E(TOP)=   -1.324  4  5   187
             LOCAL ORBITAL
:E1_0001: E( 1)=    0.9106
             APW+lo
:E1_0001: E( 1)=   -0.4887   E(BOTTOM)=   -1.446   E(TOP)=    0.469  3  4   200
             LOCAL ORBITAL
:E3_0001: E( 3)=    0.6873   E(BOTTOM)=    0.481   E(TOP)=    0.893  0  1   114
             APW+lo
:E2_0001: E( 2)=    0.5106   E(BOTTOM)=    0.295   E(TOP)= -200.000  2 -1    84
             APW+lo

       K=   0.06250   0.00000   0.06250            1
:RKM  : MATRIX SIZE   421LOs:  40  RKM= 8.50  WEIGHT= 4.00  PGR:    
       EIGENVALUES ARE:
:EIG00001:      -1.9362710   -1.9166356   -0.6747626   -0.5789594   -0.5572477
:EIG00006:      -0.5487743   -0.5397979   -0.5397393    0.4694676    0.5954613
:EIG00011:       0.6894203    0.6918193    0.6923778    0.6953929    0.7000849
:EIG00016:       0.7137290    0.7183901    0.7185211    0.7217625    0.7248497
:EIG00021:       0.7302041    0.7323853    0.7329787    0.7397876    0.7714312
:EIG00026:       0.7873158    0.8732441    0.8844361    0.9253407    0.9507954
:EIG00031:       0.9664101    1.0686678    1.1119490    1.1632278    1.4656248
:EIG00036:       1.4879199    1.5517583    1.5663762    1.7284187    1.7833122
:EIG00041:       1.8714536    1.9704033    2.0625881    2.0775696    2.1968341
       ********************************************************

:KPT   :      NUMBER OF K-POINTS:   288
:GAP (global)   :    0.0    Ry =     0.0   eV (metal)
         Bandranges (emin - emax) and occupancy:
:BAN00004:   4   -0.656114   -0.578959  2.00000000
:BAN00005:   5   -0.642344   -0.557248  2.00000000
:BAN00006:   6   -0.624215   -0.543920  2.00000000
:BAN00007:   7   -0.601300   -0.539798  2.00000000
:BAN00008:   8   -0.563248   -0.535290  2.00000000
:BAN00009:   9    0.463852    0.663352  2.00000000
:BAN00010:  10    0.572444    0.677401  2.00000000
:BAN00011:  11    0.622236    0.695668  2.00000000
:BAN00012:  12    0.667515    0.699218  1.99854838
:BAN00013:  13    0.680297    0.708882  1.49025743
:BAN00014:  14    0.691072    0.714679  0.51119419
:BAN00015:  15    0.699607    0.717654  0.00000000
:BAN00016:  16    0.705769    0.719295  0.00000000
:BAN00017:  17    0.709721    0.720933  0.00000000
:BAN00018:  18    0.712704    0.722140  0.00000000
:BAN00019:  19    0.716861    0.725425  0.00000000
        Energy to separate low and high energystates:    0.41385


:NOE  : NUMBER OF ELECTRONS          =   26.000

:FER  : F E R M I - ENERGY(TETRAH.M.)=   0.6987992655
:GMA  : POTENTIAL AND CHARGE CUT-OFF  12.00 Ry**.5

:POS001: ATOM   -1 X,Y,Z = 0.00000 0.89750 0.25000  MULT= 2  ZZ= 59.000  Pr1       

       LMMAX 16
       LM=   0 0  1 0  2 0  2 2  3 0  3 2  4 0  4 2  4 4  5 0  5 2  5 4  6 0  6 2  6 4  6 6

:CHA001: TOTAL VALENCE CHARGE INSIDE SPHERE   1 =   9.5319    (RMT=  2.3000 )
:PCS001: PARTIAL CHARGES SPHERE =  1 S,P,D,F,PX,PY,PZ,D-Z2,D-X2Y2,D-XY,D-XZ,D-YZ 
:QTL001: 1.9420 5.0098 0.5672 2.0127 1.6668 1.6667 1.6763 0.1066 0.1036 0.1207 0.1126 0.1237
        Q-s-low E-s-low   Q-p-low E-p-low   Q-d-low E-d-low   Q-f-low E-f-low
:EPL001:  1.8691 -1.9165    4.9404 -0.5956    0.0027 -0.6254    0.0008 -0.6361
        Q-s-hi  E-s-hi    Q-p-hi  E-p-hi    Q-d-hi  E-d-hi    Q-f-hi  E-f-hi 
:EPH001:  0.0729  0.6008    0.0694  0.6382    0.5645  0.6441    2.0119  0.6824

                      VXX         VYY         VZZ       UP TO R
:VZZ001:             3.72171     4.35294    -8.07465       2.300

:CHA  : TOTAL VALENCE CHARGE INSIDE UNIT CELL =      26.000000

:SUM  : SUM OF EIGENVALUES =          -8.285229849


        1.ATOM      Pr1                  14 CORE STATES
       CORE-FORCE in mRy/a.u. = |F|      Fx             Fy             Fz
:FCO001:   1.ATOM    479.508912326610      0.000000000000      0.000000000000    479.508912326610

:1S 001: 1S               -3066.899335910 Ry
:2S 001: 2S                -492.661540853 Ry
:2PP001: 2P*               -465.759569772 Ry
:2P 001: 2P                -430.362583666 Ry
:3S 001: 3S                -105.755824810 Ry
:3PP001: 3P*                -94.293483244 Ry
:3P 001: 3P                 -87.285733550 Ry
:3DD001: 3D*                -67.212681531 Ry
:3D 001: 3D                 -65.701160964 Ry
:4S 001: 4S                 -20.426234977 Ry
:4PP001: 4P*                -16.132396513 Ry
:4P 001: 4P                 -14.604069180 Ry
:4DD001: 4D*                 -7.535504569 Ry
:4D 001: 4D                  -7.265801225 Ry
:CINT001 Core Integral Atom   1   45.998503

       DENSITY AT NUCLEUS
        JATOM        VALENCE       SEMI-CORE          CORE           TOTAL
:RTO001:   1      649.103548        0.000000   656824.511383   657473.614931
     
       CHARGES OF NEW CHARGE DENSITY
:NTO   : INTERSTITIAL CHARGE =     6.936099
:NPC   : PW Pseudocharge     =    17.020340
:NTO001: CHARGE SPHERE  1    =    55.530453

:NEC01: NUCLEAR AND ELECTRONIC CHARGE    118.00000   117.99700
     
       CHARGES OF OLD CHARGE DENSITY
:OTO   : INTERSTITIAL CHARGE =     6.918434
:OPC   : PW Pseudocharge     =    17.028702
:OTO001: CHARGE SPHERE  1    =    55.540783

:NEC02: NUCLEAR AND ELECTRONIC CHARGE    118.00000   118.00000
     
       CONVERGENCE TEST
:DTO001: DIFFERENCE IN SPHERE  1 =  0.0748302

:DIS  :  CHARGE DISTANCE       ( 0.0748302 for atom    1 spin 1)      0.0748302
 PW Mixed is          455
 
******************************************************
* MULTISECANT MIXING VER9 RELEASE 10.4.0              *
* Standard Mode with controls                        *
* Fixed density scale                                *
* Regularization       1.000E-04                     *
* Trust Upper Limit    5.000E+00                     *
* Max Number of Memory Steps    8                    *
******************************************************
 
:PWTMP   3.3536E+02  1.9467E+02  4.3729E+02
:PLANE:  PW TOTAL      4.9034 DISTAN   7.48E-02  1.53E+00 %
:CHARG:  CLM/ATOM   1382.0205 DISTAN   4.24E-01  3.07E-02 %
 
Step History
        DMIX         DMIXT        Red     Pred      Trust     Lambda    MagRel    MagAbs     Beta
  1   3.5000E-02   3.5000E-02 -1.00E+00  1.00E+00 -1.00E+01  1.00E+00  3.50E-02  3.50E-02  1.00E+00
  2   2.5000E-02   2.5000E-02  7.01E-01  1.00E+00 -1.00E+01  1.00E+00  2.50E-02  3.25E-02  1.00E+00
  3   3.7778E-02   3.7778E-02  8.20E-01  1.00E+00 -1.00E+01  1.41E-02  3.78E-02  3.45E-02  1.00E+00
  4   4.8018E-02   4.8018E-02  8.31E-01  9.49E-01  2.82E-01  1.28E+00  7.57E-02  5.66E-02  9.41E-01
  5   1.2004E-01   1.1374E-01 -1.00E+00  8.22E-01  3.91E-01  1.00E+00  3.91E-01  2.43E-01  1.00E+00
:JACOBIANS    8.710E-01   2.622E-01
  
:NORMS:  1/Froebius, Min, Max, Used   0.5334E+00  0.3826E+00  0.9995E+00  0.5811E+00
:INFO :  Number of Memory Steps    4 Skipping    0
:INFO :  SLambda=    0.8434756500  Max    0.8434756500
:PREDicted Charge, CTotal, PW Trust    7.867E-03   1.573E-02   2.052E-01
:PREDicted DMix, Beta, BLim   3.8812E-01  1.4651E+00  6.6378E-01

Eigenvalues, unscaled except for SY+YY
   #     SY Real        SY Imag          SS             YY         SY+YY Real      SY+YY Imag
   1   1.024760E+00   0.000000E+00   1.014181E+00   3.002962E+00   3.371291E+00   0.000000E+00
   2   2.638648E-01   0.000000E+00   1.234015E-01   9.892399E-01   1.707293E+00   0.000000E+00
   3  -1.397229E-16   0.000000E+00   3.377467E-04   7.766711E-03   3.217240E-05   0.000000E+00
   4   2.680968E-03   0.000000E+00   9.057890E-17   3.120866E-05   1.056830E-02   0.000000E+00
 
:INFO :  Singular value  3.372E+00 Weight  1.000E+00 Projection -9.019E-02
:INFO :  Singular value  1.707E+00 Weight  1.000E+00 Projection -8.256E-02
:INFO :  Singular value  1.057E-02 Weight  9.992E-01 Projection -3.443E+00
:INFO :  Singular value  3.217E-05 Weight  1.135E-02 Projection  2.108E-01
:RANK :  ACTIVE   3.01/4  =  75.26 % ; YY RANK   3.01/4  =  75.23 %
 
:BLIM :  VZERO Control Off
:TRUST:  Step 5.21E-01  Charge 7.50E-02 (e) CTO  2.50E-01 (e) PW  3.58E-01 (e)
:DTRUS:  Lambda    2.578E-01 Increment    7.276E-12 Iterations   105 DMIX    2.317E-01
:INFOA:  Angle SubSpace to MSR1      2.11
:DIRM :  MEMORY  4/8  SCALE   1.000 RED  0.69 PRED  0.82 NEXT  0.79 
:INFO :  Limited by Atoms F by Step T

:TRAVE:  Charge 4.39E-03 (e) CTO  8.77E-03 (e) PW  6.03E-02 (e)
:DIRP :  |MSR1|= 4.366E-02 |PRATT|= 7.483E-02 ANGLE=  11.7 DEGREES
:DIRQ :  |MSR1|= 2.200E-01 |PRATT|= 4.238E-01 ANGLE=   8.9 DEGREES
:DIRT :  |MSR1|= 2.243E-01 |PRATT|= 4.303E-01 ANGLE=   9.1 DEGREES
:MIX  :   MSD1   REGULARIZATION:  3.00E-04 GREED: 0.23431  LMStep 0.92  0.5211 Step           
     
       CHARGES OF MIXED CHARGE DENSITY
:CTO   : INTERSTITIAL CHARGE =     6.922250
:CPC   : PW Pseudocharge     =    17.007400
:CTO001: CHARGE SPHERE  1    =    55.538875

:NEC03: NUCLEAR AND ELECTRONIC CHARGE    118.00000   118.00000

PW CHANGE     H    K    L      Current       Change    Residue
:PTO001:      0    0    0  5.47223649E-02 -3.999E-05  4.493E-05
:PTO003:      0    2    0  1.48355246E-02  1.532E-05  2.004E-04
:PTO004:     -1    1    0  7.22582387E-02 -7.925E-05  1.545E-04
:PTO005:      0    2   -1 -8.37697336E-02  3.357E-04  4.172E-04
:PTO006:      0    0   -2 -4.34425846E-02  1.692E-04  2.433E-04
:PTO007:     -1    1   -1 -9.03703759E-02  5.833E-04  9.613E-04
:PTO008:      0    2   -2 -1.46285178E-02  1.881E-04  2.635E-04
:PTO009:     -1    1   -2 -7.42467666E-02  1.969E-04  1.417E-04
:PTO011:     -1    3    0 -1.18520213E-02  3.905E-05  7.347E-05
:PTO012:     -1    3   -1 -5.32729743E-02  2.849E-04  1.887E-04
:PTO013:      0    4    0 -9.71267283E-03  1.611E-04  2.509E-04
:PTO014:      0    2   -3  2.22573687E-02 -1.287E-04 -1.238E-04

:ENE  : ********** TOTAL ENERGY IN Ry =       -36944.19400176

       TOTAL FORCE IN mRy/a.u. = |F|     Fx             Fy             Fz     with/without FOR in case.in2
:FOR001:   1.ATOM         16.197          0.000          0.000        -16.197 partial forces
       TOTAL FORCE WITH RESPECT TO GLOBAL CARTESIAN COORDINATES:
:FCA001:   1.ATOM                         0.000        -16.197          0.000 partial forces
       TOTAL FORCE WITH RESPECT TO THE GLOBAL COORDINATE SYSTEM:
:FGL001:   1.ATOM                 0.000000000   -16.197088852     0.000000000 partial forces
 Flat Integration
 New Mode for Coulomb Integral
 Consistent 3/8+Simpson combinations
 Extension of core to zero
 LDM version in phi
 Fifth-order quadrature in outwin


            ---------
:ITE006:  6. ITERATION
            ---------

:NATO :    1 INDEPENDENT AND    2 TOTAL ATOMS IN UNITCELL
       SUBSTANCE: aU                                                          

       LATTICE                      = CXY 
:POT  : POTENTIAL OPTION EX_LDA EC_LDA VX_LDA VC_LDA
:LAT  : LATTICE CONSTANTS=  6.26593 12.71516 10.97726    1.571    1.571    1.571
:VOL  : UNIT CELL VOLUME =     437.29197
       MODE OF CALCULATION IS       = RELA
       NON-SPINPOLARIZED CALCULATION
:IFFT  : FFT-parameters:   48  100   90 Factor: 2.00


   CONVERGENCE PARAMETER FOR PSEUDOCHARGE: NCON=  9
   MAXIMAL VALUE OF RMT(JATOM)*ABSK(NKK) : RK  =27.59083


:VKCOUL :  VK-COUL convergence: 0.151E-06
       ATOMNUMBER=  1 Pr1        VCOUL-ZERO =  0.15083E+00
:EFG001:                        EFG         =    -5.81825   *10**21  V / m**2
                               V20  TOT/SRF=    -5.03875    -0.03418
                               V22  TOT/SRF=     0.13079    -0.00020
                               V22M TOT/SRF=     0.00000     0.00000
                               V21  TOT/SRF=     0.00000     0.00000
                               V21M TOT/SRF=     0.00000     0.00000

              3.03991    0.00000    0.00000        3.03991    0.00000    0.00000
              0.00000    2.77834    0.00000        0.00000    2.77834    0.00000
              0.00000    0.00000   -5.81825        0.00000    0.00000   -5.81825

         MAIN DIRECTIONS OF THE EFG   1.0000  0.0000  0.0000
                                      0.0000  1.0000  0.0000
                                      0.0000  0.0000  1.0000
:ANG001:  ANGLE WITH OLD X-AXIS =         0.0

:ETA001:                         ASYMM. ETA =     0.04496


     HELLMANN-FEYNMAN-FORCE IN mRy/a.u. = |F|  Fx       Fy             Fz
:FHF001:   1.ATOM   1003.268490317724      0.000000000000      0.000000000000  -1003.268490317724

:FIT001: LUSE= 13 SIGMA OF V-XC FIT FOR ATOM  1  0.2942636E-04
:FIT001: LUSE= 13 SIGMA OF V-XC FIT FOR ATOM  1  0.2942636E-04
:DEN  : DENSITY INTEGRAL  =        -14156.45175137   (Ry)
       ELS_POTENTIAL_AT Z=0 and Z=0.5:   0.76189   0.76189
       ELS_POTENTIAL_AT Y=0 and Y=0.5:   0.06321   0.06321
:VZERO:v0,v0c,v0x   0.16125   0.76189  -0.60065 v5,v5c,v5x   0.16125   0.76189  -0.60065
:VZERY:v0,v0c,v0x  -0.73908   0.06321  -0.80229 v5,v5c,v5x  -0.73908   0.06321  -0.80229
:VZERX:v0,v0c,v0x  -1.14613  -0.38143  -0.76470 v5,v5c,v5x  -1.14613  -0.38143  -0.76470
:LMAX-WF:   10   Non-Spherical LMAX:   4

          ATOMIC SPHERE DEPENDENT PARAMETERS FOR ATOM  Pr1       
:e__0001: OVERALL ENERGY PARAMETER IS    0.5027
          OVERALL BASIS SET ON ATOM IS LAPW
:E0_0001: E( 0)=    0.5027
             APW+lo
:E0_0001: E( 0)=   -1.9619   E(BOTTOM)=   -2.597   E(TOP)=   -1.327  4  5   184
             LOCAL ORBITAL
:E1_0001: E( 1)=    0.9027
             APW+lo
:E1_0001: E( 1)=   -0.4914   E(BOTTOM)=   -1.448   E(TOP)=    0.466  3  4   193
             LOCAL ORBITAL
:E3_0001: E( 3)=    0.6848   E(BOTTOM)=    0.479   E(TOP)=    0.891  0  1   123
             APW+lo
:E2_0001: E( 2)=    0.5027   E(BOTTOM)=    0.293   E(TOP)= -200.000  2 -1    91
             APW+lo

       K=   0.06250   0.00000   0.06250            1
:RKM  : MATRIX SIZE   421LOs:  40  RKM= 8.50  WEIGHT= 4.00  PGR:    
       EIGENVALUES ARE:
:EIG00001:      -1.9389805   -1.9194748   -0.6769281   -0.5805956   -0.5588729
:EIG00006:      -0.5511331   -0.5428885   -0.5421698    0.4696784    0.5952993
:EIG00011:       0.6890441    0.6899383    0.6902749    0.6935396    0.6986975
:EIG00016:       0.7107478    0.7151999    0.7154868    0.7183829    0.7223953
:EIG00021:       0.7265338    0.7313320    0.7315208    0.7374612    0.7700810
:EIG00026:       0.7870754    0.8726130    0.8840693    0.9247616    0.9502587
:EIG00031:       0.9658604    1.0675133    1.1104937    1.1622050    1.4656547
:EIG00036:       1.4872461    1.5516681    1.5661758    1.7279454    1.7838297
:EIG00041:       1.8721950    1.9706321    2.0619111    2.0779687    2.1965598
       ********************************************************

:KPT   :      NUMBER OF K-POINTS:   288
:GAP (global)   :    0.0    Ry =     0.0   eV (metal)
         Bandranges (emin - emax) and occupancy:
:BAN00004:   4   -0.658140   -0.580596  2.00000000
:BAN00005:   5   -0.644496   -0.558873  2.00000000
:BAN00006:   6   -0.626100   -0.546290  2.00000000
:BAN00007:   7   -0.602994   -0.542889  2.00000000
:BAN00008:   8   -0.565653   -0.537739  2.00000000
:BAN00009:   9    0.464055    0.661684  2.00000000
:BAN00010:  10    0.572519    0.676039  2.00000000
:BAN00011:  11    0.621819    0.694042  2.00000000
:BAN00012:  12    0.666961    0.697094  1.99810624
:BAN00013:  13    0.679189    0.706649  1.47106801
:BAN00014:  14    0.688680    0.712502  0.53082574
:BAN00015:  15    0.698206    0.714878  0.00000000
:BAN00016:  16    0.703157    0.716893  0.00000000
:BAN00017:  17    0.707346    0.719121  0.00000000
:BAN00018:  18    0.710689    0.719539  0.00000000
:BAN00019:  19    0.715097    0.722778  0.00000000
        Energy to separate low and high energystates:    0.41406


:NOE  : NUMBER OF ELECTRONS          =   26.000

:FER  : F E R M I - ENERGY(TETRAH.M.)=   0.6966889007
:GMA  : POTENTIAL AND CHARGE CUT-OFF  12.00 Ry**.5

:POS001: ATOM   -1 X,Y,Z = 0.00000 0.89750 0.25000  MULT= 2  ZZ= 59.000  Pr1       

       LMMAX 16
       LM=   0 0  1 0  2 0  2 2  3 0  3 2  4 0  4 2  4 4  5 0  5 2  5 4  6 0  6 2  6 4  6 6

:CHA001: TOTAL VALENCE CHARGE INSIDE SPHERE   1 =   9.5569    (RMT=  2.3000 )
:PCS001: PARTIAL CHARGES SPHERE =  1 S,P,D,F,PX,PY,PZ,D-Z2,D-X2Y2,D-XY,D-XZ,D-YZ 
:QTL001: 1.9417 5.0111 0.5593 2.0445 1.6677 1.6670 1.6764 0.1047 0.1012 0.1205 0.1106 0.1224
        Q-s-low E-s-low   Q-p-low E-p-low   Q-d-low E-d-low   Q-f-low E-f-low
:EPL001:  1.8693 -1.9193    4.9430 -0.5977    0.0026 -0.6268    0.0008 -0.6364
        Q-s-hi  E-s-hi    Q-p-hi  E-p-hi    Q-d-hi  E-d-hi    Q-f-hi  E-f-hi 
:EPH001:  0.0724  0.6003    0.0681  0.6371    0.5566  0.6431    2.0437  0.6808

                      VXX         VYY         VZZ       UP TO R
:VZZ001:             1.06531     4.75699    -5.82230       2.300

:CHA  : TOTAL VALENCE CHARGE INSIDE UNIT CELL =      26.000000

:SUM  : SUM OF EIGENVALUES =          -8.331306335


        1.ATOM      Pr1                  14 CORE STATES
       CORE-FORCE in mRy/a.u. = |F|      Fx             Fy             Fz
:FCO001:   1.ATOM   1001.497753928715      0.000000000000      0.000000000000   1001.497753928715

:1S 001: 1S               -3066.904672591 Ry
:2S 001: 2S                -492.662181602 Ry
:2PP001: 2P*               -465.760688498 Ry
:2P 001: 2P                -430.363473354 Ry
:3S 001: 3S                -105.755411594 Ry
:3PP001: 3P*                -94.293122261 Ry
:3P 001: 3P                 -87.285347137 Ry
:3DD001: 3D*                -67.212185029 Ry
:3D 001: 3D                 -65.700656837 Ry
:4S 001: 4S                 -20.427687665 Ry
:4PP001: 4P*                -16.133997161 Ry
:4P 001: 4P                 -14.605902452 Ry
:4DD001: 4D*                 -7.537593869 Ry
:4D 001: 4D                  -7.267954820 Ry
:CINT001 Core Integral Atom   1   45.998503

       DENSITY AT NUCLEUS
        JATOM        VALENCE       SEMI-CORE          CORE           TOTAL
:RTO001:   1      649.158378        0.000000   656824.890940   657474.049318
     
       CHARGES OF NEW CHARGE DENSITY
:NTO   : INTERSTITIAL CHARGE =     6.886217
:NPC   : PW Pseudocharge     =    17.009843
:NTO001: CHARGE SPHERE  1    =    55.555393

:NEC01: NUCLEAR AND ELECTRONIC CHARGE    118.00000   117.99700
     
       CHARGES OF OLD CHARGE DENSITY
:OTO   : INTERSTITIAL CHARGE =     6.922250
:OPC   : PW Pseudocharge     =    17.007400
:OTO001: CHARGE SPHERE  1    =    55.538875

:NEC02: NUCLEAR AND ELECTRONIC CHARGE    118.00000   118.00000
     
       CONVERGENCE TEST
:DTO001: DIFFERENCE IN SPHERE  1 =  0.0450152

:DIS  :  CHARGE DISTANCE       ( 0.0450152 for atom    1 spin 1)      0.0450152
 PW Mixed is          455
 
******************************************************
* MULTISECANT MIXING VER9 RELEASE 10.4.0              *
* Standard Mode with controls                        *
* Fixed density scale                                *
* Regularization       1.000E-04                     *
* Trust Upper Limit    5.000E+00                     *
* Max Number of Memory Steps    8                    *
******************************************************
 
:PWTMP   3.3536E+02  1.9467E+02  4.3729E+02
:PLANE:  PW TOTAL      4.8869 DISTAN   3.09E-02  6.32E-01 %
:CHARG:  CLM/ATOM   1381.9848 DISTAN   2.22E-01  1.61E-02 %
 
Step History
        DMIX         DMIXT        Red     Pred      Trust     Lambda    MagRel    MagAbs     Beta
  1   3.5000E-02   3.5000E-02 -1.00E+00  1.00E+00 -1.00E+01  1.00E+00  3.50E-02  3.50E-02  1.00E+00
  2   2.5000E-02   2.5000E-02  7.01E-01  1.00E+00 -1.00E+01  1.00E+00  2.50E-02  3.25E-02  1.00E+00
  3   3.7778E-02   3.7778E-02  8.20E-01  1.00E+00 -1.00E+01  1.41E-02  3.78E-02  3.45E-02  1.00E+00
  4   4.8018E-02   4.8018E-02  8.31E-01  9.49E-01  2.82E-01  1.28E+00  7.57E-02  5.66E-02  9.41E-01
  5   1.2004E-01   1.1374E-01  6.92E-01  8.22E-01  3.91E-01  8.43E-01  3.91E-01  2.43E-01  1.00E+00
  6   2.3431E-01   2.3167E-01 -1.00E+00  7.90E-01  5.21E-01  1.00E+00  5.21E-01  2.24E-01  1.00E+00
:JACOBIANS    9.449E-01   6.554E-01
  
:NORMS:  1/Froebius, Min, Max, Used   0.6692E+00  0.4169E+00  0.9996E+00  0.7014E+00
:INFO :  Number of Memory Steps    5 Skipping    0
:INFO :  SLambda=    0.7177765076  Max    0.7177765076
:PREDicted Charge, CTotal, PW Trust    1.330E-03   2.659E-03   2.602E-03
:PREDicted DMix, Beta, BLim   4.3882E-01  1.3830E+00  8.6675E-01

Eigenvalues, unscaled except for SY+YY
   #     SY Real        SY Imag          SS             YY         SY+YY Real      SY+YY Imag
   1   1.854631E+00   0.000000E+00   1.781618E+00   3.621543E+00   4.783779E+00   0.000000E+00
   2   4.781772E-01   0.000000E+00   4.475932E-01   1.003543E+00   1.411958E+00   0.000000E+00
   3   9.121140E-02   0.000000E+00   1.014531E-02   3.708499E-01   5.398316E-01   0.000000E+00
   4  -1.850225E-16   0.000000E+00   8.860323E-05   4.039677E-03   2.447386E-05   0.000000E+00
   5   7.256004E-04   0.000000E+00  -1.288949E-17   2.423640E-05   4.832602E-03   0.000000E+00
 
:INFO :  Singular value  4.787E+00 Weight  1.000E+00 Projection -6.122E-02
:INFO :  Singular value  1.411E+00 Weight  1.000E+00 Projection -7.604E-02
:INFO :  Singular value  5.398E-01 Weight  1.000E+00 Projection -8.096E-02
:INFO :  Singular value  4.833E-03 Weight  9.944E-01 Projection -2.523E+00
:INFO :  Singular value  2.447E-05 Weight  4.546E-03 Projection -1.526E-04
:RANK :  ACTIVE   4.00/5  =  79.98 % ; YY RANK   4.00/5  =  79.93 %
 
:BLIM :  VZERO Control Off
:TRUST:  Step 6.95E-01  Charge 7.50E-02 (e) CTO  2.50E-01 (e) PW  3.58E-01 (e)
:DIRM :  MEMORY  5/8  SCALE   1.000 RED  0.52 PRED  0.79 NEXT  0.47 
:TRAVE:  Charge 3.07E-03 (e) CTO  6.14E-03 (e) PW  3.13E-02 (e)
:DIRP :  |MSR1|= 2.485E-02 |PRATT|= 3.090E-02 ANGLE=  11.1 DEGREES
:DIRQ :  |MSR1|= 1.515E-01 |PRATT|= 2.223E-01 ANGLE=  27.4 DEGREES
:DIRT :  |MSR1|= 1.535E-01 |PRATT|= 2.244E-01 ANGLE=  27.2 DEGREES
:MIX  :   MSD1   REGULARIZATION:  3.62E-04 GREED: 0.29811  Newton 1.00  0.6843                
     
       CHARGES OF MIXED CHARGE DENSITY
:CTO   : INTERSTITIAL CHARGE =     6.918745
:CPC   : PW Pseudocharge     =    17.016030
:CTO001: CHARGE SPHERE  1    =    55.540627

:NEC03: NUCLEAR AND ELECTRONIC CHARGE    118.00000   118.00000

PW CHANGE     H    K    L      Current       Change    Residue
:PTO001:      0    0    0  5.47340846E-02  1.172E-05 -5.304E-05
:PTO003:      0    2    0  1.47989984E-02 -3.653E-05 -3.733E-05
:PTO004:     -1    1    0  7.22956793E-02  3.744E-05  8.343E-05
:PTO005:      0    2   -1 -8.37546655E-02  1.507E-05 -9.705E-05
:PTO006:      0    0   -2 -4.33927175E-02  4.987E-05  9.861E-05
:PTO007:     -1    1   -1 -9.02315459E-02  1.388E-04  1.049E-04
:PTO008:      0    2   -2 -1.45136562E-02  1.149E-04  1.353E-04
:PTO009:     -1    1   -2 -7.43126917E-02 -6.593E-05 -6.176E-05
:PTO011:     -1    3    0 -1.19270116E-02 -7.499E-05 -1.369E-04
:PTO012:     -1    3   -1 -5.32885643E-02 -1.559E-05 -1.275E-04
:PTO013:      0    4    0 -9.66073471E-03  5.194E-05  2.401E-05
:PTO014:      0    2   -3  2.22412129E-02 -1.616E-05 -4.118E-05

:ENE  : ********** TOTAL ENERGY IN Ry =       -36944.19345780

       TOTAL FORCE IN mRy/a.u. = |F|     Fx             Fy             Fz     with/without FOR in case.in2
:FOR001:   1.ATOM          1.771          0.000          0.000         -1.771 partial forces
       TOTAL FORCE WITH RESPECT TO GLOBAL CARTESIAN COORDINATES:
:FCA001:   1.ATOM                         0.000         -1.771          0.000 partial forces
       TOTAL FORCE WITH RESPECT TO THE GLOBAL COORDINATE SYSTEM:
:FGL001:   1.ATOM                 0.000000000    -1.770736389     0.000000000 partial forces
 Flat Integration
 New Mode for Coulomb Integral
 Consistent 3/8+Simpson combinations
 Extension of core to zero
 LDM version in phi
 Fifth-order quadrature in outwin


            ---------
:ITE007:  7. ITERATION
            ---------

:NATO :    1 INDEPENDENT AND    2 TOTAL ATOMS IN UNITCELL
       SUBSTANCE: aU                                                          

       LATTICE                      = CXY 
:POT  : POTENTIAL OPTION EX_LDA EC_LDA VX_LDA VC_LDA
:LAT  : LATTICE CONSTANTS=  6.26593 12.71516 10.97726    1.571    1.571    1.571
:VOL  : UNIT CELL VOLUME =     437.29197
       MODE OF CALCULATION IS       = RELA
       NON-SPINPOLARIZED CALCULATION
:IFFT  : FFT-parameters:   48  100   90 Factor: 2.00


   CONVERGENCE PARAMETER FOR PSEUDOCHARGE: NCON=  9
   MAXIMAL VALUE OF RMT(JATOM)*ABSK(NKK) : RK  =27.59083


:VKCOUL :  VK-COUL convergence: 0.187E-06
       ATOMNUMBER=  1 Pr1        VCOUL-ZERO =  0.15092E+00
:EFG001:                        EFG         =    -7.92027   *10**21  V / m**2
                               V20  TOT/SRF=    -6.85916    -0.03255
                               V22  TOT/SRF=    -0.28712    -0.00230
                               V22M TOT/SRF=     0.00000     0.00000
                               V21  TOT/SRF=     0.00000     0.00000
                               V21M TOT/SRF=     0.00000     0.00000

              3.67301    0.00000    0.00000        3.67301    0.00000    0.00000
              0.00000    4.24726    0.00000        0.00000    4.24726    0.00000
              0.00000    0.00000   -7.92027        0.00000    0.00000   -7.92027

         MAIN DIRECTIONS OF THE EFG   1.0000  0.0000  0.0000
                                      0.0000  1.0000  0.0000
                                      0.0000  0.0000  1.0000
:ANG001:  ANGLE WITH OLD X-AXIS =         0.0

:ETA001:                         ASYMM. ETA =     0.07250


     HELLMANN-FEYNMAN-FORCE IN mRy/a.u. = |F|  Fx       Fy             Fz
:FHF001:   1.ATOM   1459.913112576304      0.000000000000      0.000000000000  -1459.913112576304

:FIT001: LUSE= 13 SIGMA OF V-XC FIT FOR ATOM  1  0.5230022E-04
:FIT001: LUSE= 13 SIGMA OF V-XC FIT FOR ATOM  1  0.5230022E-04
:DEN  : DENSITY INTEGRAL  =        -14156.73960724   (Ry)
       ELS_POTENTIAL_AT Z=0 and Z=0.5:   0.76283   0.76283
       ELS_POTENTIAL_AT Y=0 and Y=0.5:   0.06324   0.06324
:VZERO:v0,v0c,v0x   0.16236   0.76283  -0.60047 v5,v5c,v5x   0.16236   0.76283  -0.60047
:VZERY:v0,v0c,v0x  -0.73905   0.06324  -0.80229 v5,v5c,v5x  -0.73905   0.06324  -0.80229
:VZERX:v0,v0c,v0x  -1.14636  -0.38158  -0.76478 v5,v5c,v5x  -1.14636  -0.38158  -0.76478
:LMAX-WF:   10   Non-Spherical LMAX:   4

          ATOMIC SPHERE DEPENDENT PARAMETERS FOR ATOM  Pr1       
:e__0001: OVERALL ENERGY PARAMETER IS    0.4987
          OVERALL BASIS SET ON ATOM IS LAPW
:E0_0001: E( 0)=    0.4987
             APW+lo
:E0_0001: E( 0)=   -1.9622   E(BOTTOM)=   -2.597   E(TOP)=   -1.327  4  5   181
             LOCAL ORBITAL
:E1_0001: E( 1)=    0.8987
             APW+lo
:E1_0001: E( 1)=   -0.4918   E(BOTTOM)=   -1.449   E(TOP)=    0.465  3  4   194
             LOCAL ORBITAL
:E3_0001: E( 3)=    0.6859   E(BOTTOM)=    0.479   E(TOP)=    0.892  0  1   117
             APW+lo
:E2_0001: E( 2)=    0.4987   E(BOTTOM)=    0.292   E(TOP)= -200.000  2 -1    91
             APW+lo

       K=   0.06250   0.00000   0.06250            1
:RKM  : MATRIX SIZE   421LOs:  40  RKM= 8.50  WEIGHT= 4.00  PGR:    
       EIGENVALUES ARE:
:EIG00001:      -1.9392596   -1.9197902   -0.6762653   -0.5816181   -0.5600121
:EIG00006:      -0.5515011   -0.5425584   -0.5423805    0.4700091    0.5955583
:EIG00011:       0.6895099    0.6912878    0.6916286    0.6945024    0.6997857
:EIG00016:       0.7123200    0.7163570    0.7167224    0.7199001    0.7232181
:EIG00021:       0.7275897    0.7315148    0.7322302    0.7388524    0.7706681
:EIG00026:       0.7871728    0.8732665    0.8839647    0.9250521    0.9501312
:EIG00031:       0.9655618    1.0678345    1.1107344    1.1623667    1.4657657
:EIG00036:       1.4873387    1.5520266    1.5665072    1.7285128    1.7843603
:EIG00041:       1.8729198    1.9711670    2.0623042    2.0785085    2.1965312
       ********************************************************

:KPT   :      NUMBER OF K-POINTS:   288
:GAP (global)   :    0.0    Ry =     0.0   eV (metal)
         Bandranges (emin - emax) and occupancy:
:BAN00004:   4   -0.658459   -0.581618  2.00000000
:BAN00005:   5   -0.644178   -0.560012  2.00000000
:BAN00006:   6   -0.626455   -0.546667  2.00000000
:BAN00007:   7   -0.603879   -0.542558  2.00000000
:BAN00008:   8   -0.565731   -0.538128  2.00000000
:BAN00009:   9    0.464378    0.662371  2.00000000
:BAN00010:  10    0.572800    0.676692  2.00000000
:BAN00011:  11    0.621892    0.695563  2.00000000
:BAN00012:  12    0.667628    0.698788  1.99451979
:BAN00013:  13    0.679385    0.708185  1.43106523
:BAN00014:  14    0.689724    0.712963  0.57441498
:BAN00015:  15    0.699467    0.715838  0.00000000
:BAN00016:  16    0.703808    0.718432  0.00000000
:BAN00017:  17    0.708800    0.719968  0.00000000
:BAN00018:  18    0.711581    0.721617  0.00000000
:BAN00019:  19    0.715719    0.724281  0.00000000
        Energy to separate low and high energystates:    0.41438


:NOE  : NUMBER OF ELECTRONS          =   26.000

:FER  : F E R M I - ENERGY(TETRAH.M.)=   0.6975835240
:GMA  : POTENTIAL AND CHARGE CUT-OFF  12.00 Ry**.5

:POS001: ATOM   -1 X,Y,Z = 0.00000 0.89750 0.25000  MULT= 2  ZZ= 59.000  Pr1       

       LMMAX 16
       LM=   0 0  1 0  2 0  2 2  3 0  3 2  4 0  4 2  4 4  5 0  5 2  5 4  6 0  6 2  6 4  6 6

:CHA001: TOTAL VALENCE CHARGE INSIDE SPHERE   1 =   9.5455    (RMT=  2.3000 )
:PCS001: PARTIAL CHARGES SPHERE =  1 S,P,D,F,PX,PY,PZ,D-Z2,D-X2Y2,D-XY,D-XZ,D-YZ 
:QTL001: 1.9418 5.0123 0.5632 2.0278 1.6679 1.6673 1.6771 0.1059 0.1009 0.1213 0.1112 0.1239
        Q-s-low E-s-low   Q-p-low E-p-low   Q-d-low E-d-low   Q-f-low E-f-low
:EPL001:  1.8693 -1.9196    4.9434 -0.5980    0.0026 -0.6260    0.0008 -0.6356
        Q-s-hi  E-s-hi    Q-p-hi  E-p-hi    Q-d-hi  E-d-hi    Q-f-hi  E-f-hi 
:EPH001:  0.0725  0.6007    0.0689  0.6380    0.5606  0.6437    2.0270  0.6817

                      VXX         VYY         VZZ       UP TO R
:VZZ001:             3.77647     5.08690    -8.86337       2.300

[...]
:OTO001: CHARGE SPHERE  1    =    55.543233

:NEC02: NUCLEAR AND ELECTRONIC CHARGE    118.00000   118.00000
     
       CONVERGENCE TEST
:DTO001: DIFFERENCE IN SPHERE  1 =  0.0007425

:DIS  :  CHARGE DISTANCE       ( 0.0007425 for atom    1 spin 1)      0.0007425
 PW Mixed is          455
 
******************************************************
* MULTISECANT MIXING VER9 RELEASE 10.4.0              *
* Standard Mode with controls                        *
* Fixed density scale                                *
* Regularization       1.000E-04                     *
* Trust Upper Limit    5.000E+00                     *
* Max Number of Memory Steps    8                    *
******************************************************
 
:PWTMP   3.3536E+02  1.9467E+02  4.3729E+02
:PLANE:  PW TOTAL      4.8869 DISTAN   2.45E-04  5.01E-03 %
:CHARG:  CLM/ATOM   1381.9518 DISTAN   1.27E-03  9.17E-05 %
 
Step History
        DMIX         DMIXT        Red     Pred      Trust     Lambda    MagRel    MagAbs     Beta
  3   3.7778E-02   3.7778E-02  8.20E-01  1.00E+00 -1.00E+01  1.41E-02  3.78E-02  3.45E-02  1.00E+00
  4   4.8018E-02   4.8018E-02  8.31E-01  9.49E-01  2.82E-01  1.28E+00  7.57E-02  5.66E-02  9.41E-01
  5   1.2004E-01   1.1374E-01  6.92E-01  8.22E-01  3.91E-01  8.43E-01  3.91E-01  2.43E-01  1.00E+00
  6   2.3431E-01   2.3167E-01  5.21E-01  7.90E-01  5.21E-01  7.18E-01  5.21E-01  2.24E-01  1.00E+00
  7   2.9811E-01   2.9811E-01  2.47E-01  4.73E-01  6.95E-01  5.62E-01  6.84E-01  1.54E-01  1.00E+00
  8   2.4610E-01   2.4610E-01  4.59E-01  7.13E-01  9.26E-01  1.00E+00  5.68E-01  3.14E-02  1.00E+00
  9   3.2527E-01   3.2527E-01  6.88E-01  7.54E-01  1.24E+00  1.50E+00  4.62E-01  1.18E-02  1.00E+00
 10   2.6533E-01   2.6533E-01  2.87E-01  2.48E-01  1.65E+00  1.78E+00  2.18E-01  3.81E-03  9.17E-01
 11   2.9825E-01   2.9825E-01 -1.00E+00  3.27E-01  2.20E+00  1.00E+00  2.74E-01  1.38E-03  1.00E+00
:JACOBIANS    1.075E+00   2.469E+00
  
:NORMS:  1/Froebius, Min, Max, Used   0.7280E+00  0.5146E+00  0.9969E+00  0.9653E+00
:INFO :  Number of Memory Steps    8 Skipping    2
:INFO :  SLambda=    1.7657325105  Max    1.7657325105
:PREDicted Charge, CTotal, PW Trust    3.119E-04   6.239E-04   5.848E-05
:PREDicted DMix, Beta, BLim   6.4414E-01  1.3824E+00  2.7314E+00

Eigenvalues, unscaled except for SY+YY
   #     SY Real        SY Imag          SS             YY         SY+YY Real      SY+YY Imag
   1   3.316661E+00   0.000000E+00   3.357054E+00   3.602928E+00   9.436181E+00   0.000000E+00
   2   1.135013E+00   0.000000E+00   6.731059E-01   2.398603E+00   4.282127E+00   0.000000E+00
   3   2.486585E-01   0.000000E+00   1.611044E-01   9.742152E-01   1.523781E+00   0.000000E+00
   4   1.356018E-01   0.000000E+00   2.442776E-02   7.795347E-01   1.028714E+00   0.000000E+00
   5   5.283867E-02   0.000000E+00   1.857095E-02   1.772077E-01   2.657979E-01   0.000000E+00
   6   6.940828E-04   0.000000E+00   4.807171E-03   5.665345E-02   1.253424E-01   0.000000E+00
   7   3.165268E-03   0.000000E+00   1.198654E-03   9.146519E-03   3.759915E-03   0.000000E+00
   8   2.340396E-02   0.000000E+00   1.287222E-04   1.710965E-03   1.470160E-02   0.000000E+00
 
:INFO :  Singular value  9.441E+00 Weight  1.000E+00 Projection -3.979E-05
:INFO :  Singular value  4.291E+00 Weight  1.000E+00 Projection -3.234E-04
:INFO :  Singular value  1.521E+00 Weight  1.000E+00 Projection -6.528E-04
:INFO :  Singular value  1.029E+00 Weight  1.000E+00 Projection  1.255E-05
:INFO :  Singular value  2.658E-01 Weight  1.000E+00 Projection -5.544E-04
:INFO :  Singular value  1.253E-01 Weight  1.000E+00 Projection -1.843E-03
:INFO :  Singular value  1.472E-02 Weight  9.994E-01 Projection -5.542E-03
:INFO :  Singular value  3.754E-03 Weight  9.909E-01 Projection -1.657E-02
:RANK :  ACTIVE   7.99/8  =  99.88 % ; YY RANK   7.96/8  =  99.45 %
 
:BLIM :  VZERO Control Off
:TRUST:  Step 2.93E+00  Charge 2.46E-02 (e) CTO  8.19E-02 (e) PW  1.17E-01 (e)
:DIRM :  MEMORY  8/8  SCALE   1.000 RED  0.26 PRED  0.33 NEXT  0.25 
:TRAVE:  Charge 3.14E-04 (e) CTO  6.27E-04 (e) PW  1.18E-03 (e)
:DIRP :  |MSR1|= 1.823E-04 |PRATT|= 2.448E-04 ANGLE=  22.9 DEGREES
:DIRQ :  |MSR1|= 8.348E-04 |PRATT|= 1.267E-03 ANGLE=  26.3 DEGREES
:DIRT :  |MSR1|= 8.545E-04 |PRATT|= 1.291E-03 ANGLE=  26.3 DEGREES
:MIX  :   MSE1   REGULARIZATION:  3.60E-04 GREED: 0.35000  Newton 1.00  0.6620                
     
       CHARGES OF MIXED CHARGE DENSITY
:CTO   : INTERSTITIAL CHARGE =     6.913277
:CPC   : PW Pseudocharge     =    17.026321
:CTO001: CHARGE SPHERE  1    =    55.543362

:NEC03: NUCLEAR AND ELECTRONIC CHARGE    118.00000   118.00000

PW CHANGE     H    K    L      Current       Change    Residue
:PTO001:      0    0    0  5.47451117E-02 -2.023E-07  1.358E-06
:PTO003:      0    2    0  1.47854550E-02 -2.771E-07 -5.864E-07
:PTO004:     -1    1    0  7.22835088E-02 -7.178E-07 -1.492E-07
:PTO005:      0    2   -1 -8.38126425E-02 -1.913E-07 -8.378E-07
:PTO006:      0    0   -2 -4.34143045E-02  2.669E-07 -3.461E-08
:PTO007:     -1    1   -1 -9.03234550E-02 -2.979E-06 -4.560E-06
:PTO008:      0    2   -2 -1.45211938E-02 -1.361E-06 -1.679E-06
:PTO009:     -1    1   -2 -7.44253183E-02 -7.911E-07 -2.066E-06
:PTO011:     -1    3    0 -1.19934290E-02 -2.446E-06 -3.506E-06
:PTO012:     -1    3   -1 -5.33426949E-02 -2.187E-07 -1.130E-06
:PTO013:      0    4    0 -9.65925960E-03  3.480E-08 -1.240E-08
:PTO014:      0    2   -3  2.22374404E-02 -1.397E-06 -1.316E-06

:ENE  : ********** TOTAL ENERGY IN Ry =       -36944.19326637

       TOTAL FORCE IN mRy/a.u. = |F|     Fx             Fy             Fz     with/without FOR in case.in2
:FOR001:   1.ATOM         25.835          0.000          0.000        -25.835 partial forces
       TOTAL FORCE WITH RESPECT TO GLOBAL CARTESIAN COORDINATES:
:FCA001:   1.ATOM                         0.000        -25.835          0.000 partial forces
       TOTAL FORCE WITH RESPECT TO THE GLOBAL COORDINATE SYSTEM:
:FGL001:   1.ATOM                 0.000000000   -25.835190566     0.000000000 partial forces
 Flat Integration
 New Mode for Coulomb Integral
 Consistent 3/8+Simpson combinations
 Extension of core to zero
 LDM version in phi
 Fifth-order quadrature in outwin


            ---------
:ITE012: 12. ITERATION
            ---------

:NATO :    1 INDEPENDENT AND    2 TOTAL ATOMS IN UNITCELL
       SUBSTANCE: aU                                                          

       LATTICE                      = CXY 
:POT  : POTENTIAL OPTION EX_LDA EC_LDA VX_LDA VC_LDA
:LAT  : LATTICE CONSTANTS=  6.26593 12.71516 10.97726    1.571    1.571    1.571
:VOL  : UNIT CELL VOLUME =     437.29197
       MODE OF CALCULATION IS       = RELA
       NON-SPINPOLARIZED CALCULATION
:IFFT  : FFT-parameters:   48  100   90 Factor: 2.00


   CONVERGENCE PARAMETER FOR PSEUDOCHARGE: NCON=  9
   MAXIMAL VALUE OF RMT(JATOM)*ABSK(NKK) : RK  =27.59083


:VKCOUL :  VK-COUL convergence: 0.196E-06
       ATOMNUMBER=  1 Pr1        VCOUL-ZERO =  0.15097E+00
:EFG001:                        EFG         =    -8.65037   *10**21  V / m**2
                               V20  TOT/SRF=    -7.49144    -0.03269
                               V22  TOT/SRF=    -0.48801    -0.00143
                               V22M TOT/SRF=     0.00000     0.00000
                               V21  TOT/SRF=     0.00000     0.00000
                               V21M TOT/SRF=     0.00000     0.00000

              3.83717    0.00000    0.00000        3.83717    0.00000    0.00000
              0.00000    4.81320    0.00000        0.00000    4.81320    0.00000
              0.00000    0.00000   -8.65037        0.00000    0.00000   -8.65037

         MAIN DIRECTIONS OF THE EFG   1.0000  0.0000  0.0000
                                      0.0000  1.0000  0.0000
                                      0.0000  0.0000  1.0000
:ANG001:  ANGLE WITH OLD X-AXIS =         0.0

:ETA001:                         ASYMM. ETA =     0.11283


     HELLMANN-FEYNMAN-FORCE IN mRy/a.u. = |F|  Fx       Fy             Fz
:FHF001:   1.ATOM   1477.742599789631      0.000000000000      0.000000000000  -1477.742599789631

:FIT001: LUSE= 13 SIGMA OF V-XC FIT FOR ATOM  1  0.5755897E-04
:FIT001: LUSE= 13 SIGMA OF V-XC FIT FOR ATOM  1  0.5755897E-04
:DEN  : DENSITY INTEGRAL  =        -14156.64217754   (Ry)
       ELS_POTENTIAL_AT Z=0 and Z=0.5:   0.76259   0.76259
       ELS_POTENTIAL_AT Y=0 and Y=0.5:   0.06308   0.06308
:VZERO:v0,v0c,v0x   0.16241   0.76259  -0.60017 v5,v5c,v5x   0.16241   0.76259  -0.60017
:VZERY:v0,v0c,v0x  -0.73918   0.06308  -0.80226 v5,v5c,v5x  -0.73918   0.06308  -0.80226
:VZERX:v0,v0c,v0x  -1.14644  -0.38172  -0.76472 v5,v5c,v5x  -1.14644  -0.38172  -0.76472
:LMAX-WF:   10   Non-Spherical LMAX:   4

          ATOMIC SPHERE DEPENDENT PARAMETERS FOR ATOM  Pr1       
:e__0001: OVERALL ENERGY PARAMETER IS    0.4978
          OVERALL BASIS SET ON ATOM IS LAPW
:E0_0001: E( 0)=    0.4978
             APW+lo
:E0_0001: E( 0)=   -1.9619   E(BOTTOM)=   -2.597   E(TOP)=   -1.327  4  5   186
             LOCAL ORBITAL
:E1_0001: E( 1)=    0.8978
             APW+lo
:E1_0001: E( 1)=   -0.4916   E(BOTTOM)=   -1.449   E(TOP)=    0.466  3  4   191
             LOCAL ORBITAL
:E3_0001: E( 3)=    0.6860   E(BOTTOM)=    0.480   E(TOP)=    0.892  0  1   122
             APW+lo
:E2_0001: E( 2)=    0.4978   E(BOTTOM)=    0.292   E(TOP)= -200.000  2 -1    88
             APW+lo

       K=   0.06250   0.00000   0.06250            1
:RKM  : MATRIX SIZE   421LOs:  40  RKM= 8.50  WEIGHT= 4.00  PGR:    
       EIGENVALUES ARE:
:EIG00001:      -1.9390102   -1.9195257   -0.6761689   -0.5813362   -0.5597359
:EIG00006:      -0.5513205   -0.5423698   -0.5422059    0.4700741    0.5956266
:EIG00011:       0.6894921    0.6914368    0.6916994    0.6945917    0.6998951
:EIG00016:       0.7124690    0.7166424    0.7169421    0.7201235    0.7234815
:EIG00021:       0.7279431    0.7316127    0.7321324    0.7390023    0.7707638
:EIG00026:       0.7872958    0.8733301    0.8841057    0.9251521    0.9502742
:EIG00031:       0.9657314    1.0679497    1.1108674    1.1624184    1.4658103
:EIG00036:       1.4873939    1.5520832    1.5664672    1.7285766    1.7842740
:EIG00041:       1.8729141    1.9712223    2.0624748    2.0785418    2.1965653
       ********************************************************

:KPT   :      NUMBER OF K-POINTS:   288
:GAP (global)   :    0.0    Ry =     0.0   eV (metal)
         Bandranges (emin - emax) and occupancy:
:BAN00004:   4   -0.658269   -0.581336  2.00000000
:BAN00005:   5   -0.644071   -0.559736  2.00000000
:BAN00006:   6   -0.626242   -0.546487  2.00000000
:BAN00007:   7   -0.603634   -0.542370  2.00000000
:BAN00008:   8   -0.565546   -0.537939  2.00000000
:BAN00009:   9    0.464447    0.662514  2.00000000
:BAN00010:  10    0.572875    0.676828  2.00000000
:BAN00011:  11    0.622009    0.695612  2.00000000
:BAN00012:  12    0.667671    0.698802  1.99509228
:BAN00013:  13    0.679485    0.708251  1.44217158
:BAN00014:  14    0.689913    0.713087  0.56273614
:BAN00015:  15    0.699763    0.716172  0.00000000
:BAN00016:  16    0.704085    0.718496  0.00000000
:BAN00017:  17    0.708833    0.720041  0.00000000
:BAN00018:  18    0.711624    0.721646  0.00000000
:BAN00019:  19    0.715872    0.724376  0.00000000
        Energy to separate low and high energystates:    0.41445


:NOE  : NUMBER OF ELECTRONS          =   26.000

:FER  : F E R M I - ENERGY(TETRAH.M.)=   0.6977448103
:GMA  : POTENTIAL AND CHARGE CUT-OFF  12.00 Ry**.5

:POS001: ATOM   -1 X,Y,Z = 0.00000 0.89750 0.25000  MULT= 2  ZZ= 59.000  Pr1       

       LMMAX 16
       LM=   0 0  1 0  2 0  2 2  3 0  3 2  4 0  4 2  4 4  5 0  5 2  5 4  6 0  6 2  6 4  6 6

:CHA001: TOTAL VALENCE CHARGE INSIDE SPHERE   1 =   9.5448    (RMT=  2.3000 )
:PCS001: PARTIAL CHARGES SPHERE =  1 S,P,D,F,PX,PY,PZ,D-Z2,D-X2Y2,D-XY,D-XZ,D-YZ 
:QTL001: 1.9418 5.0121 0.5635 2.0270 1.6678 1.6673 1.6770 0.1059 0.1012 0.1212 0.1113 0.1239
        Q-s-low E-s-low   Q-p-low E-p-low   Q-d-low E-d-low   Q-f-low E-f-low
:EPL001:  1.8693 -1.9194    4.9433 -0.5978    0.0026 -0.6261    0.0008 -0.6356
        Q-s-hi  E-s-hi    Q-p-hi  E-p-hi    Q-d-hi  E-d-hi    Q-f-hi  E-f-hi 
:EPH001:  0.0725  0.6008    0.0689  0.6380    0.5609  0.6438    2.0262  0.6818

                      VXX         VYY         VZZ       UP TO R
:VZZ001:             3.81757     4.79778    -8.61535       2.300

:CHA  : TOTAL VALENCE CHARGE INSIDE UNIT CELL =      26.000000

:SUM  : SUM OF EIGENVALUES =          -8.325104525


        1.ATOM      Pr1                  14 CORE STATES
       CORE-FORCE in mRy/a.u. = |F|      Fx             Fy             Fz
:FCO001:   1.ATOM   1452.326816509433      0.000000000000      0.000000000000   1452.326816509433

:1S 001: 1S               -3066.908018682 Ry
:2S 001: 2S                -492.661215511 Ry
:2PP001: 2P*               -465.760211706 Ry
:2P 001: 2P                -430.362769986 Ry
:3S 001: 3S                -105.752417358 Ry
:3PP001: 3P*                -94.290236498 Ry
:3P 001: 3P                 -87.282368597 Ry
:3DD001: 3D*                -67.209310421 Ry
:3D 001: 3D                 -65.697751828 Ry
:4S 001: 4S                 -20.425018411 Ry
:4PP001: 4P*                -16.131456103 Ry
:4P 001: 4P                 -14.603535392 Ry
:4DD001: 4D*                 -7.535490291 Ry
:4D 001: 4D                  -7.265905637 Ry
:CINT001 Core Integral Atom   1   45.998500

       DENSITY AT NUCLEUS
        JATOM        VALENCE       SEMI-CORE          CORE           TOTAL
:RTO001:   1      649.171428        0.000000   656825.488720   657474.660148
     
       CHARGES OF NEW CHARGE DENSITY
:NTO   : INTERSTITIAL CHARGE =     6.910314
:NPC   : PW Pseudocharge     =    17.019035
:NTO001: CHARGE SPHERE  1    =    55.543343

:NEC01: NUCLEAR AND ELECTRONIC CHARGE    118.00000   117.99700
     
       CHARGES OF OLD CHARGE DENSITY
:OTO   : INTERSTITIAL CHARGE =     6.913277
:OPC   : PW Pseudocharge     =    17.026321
:OTO001: CHARGE SPHERE  1    =    55.543362

:NEC02: NUCLEAR AND ELECTRONIC CHARGE    118.00000   118.00000
     
       CONVERGENCE TEST
:DTO001: DIFFERENCE IN SPHERE  1 =  0.0000654

:DIS  :  CHARGE DISTANCE       ( 0.0000654 for atom    1 spin 1)      0.0000654
 PW Mixed is          455
 
******************************************************
* MULTISECANT MIXING VER9 RELEASE 10.4.0              *
* Standard Mode with controls                        *
* Fixed density scale                                *
* Regularization       1.000E-04                     *
* Trust Upper Limit    5.000E+00                     *
* Max Number of Memory Steps    8                    *
******************************************************
 
:PWTMP   3.3536E+02  1.9467E+02  4.3729E+02
:PLANE:  PW TOTAL      4.8869 DISTAN   6.54E-05  1.34E-03 %
:CHARG:  CLM/ATOM   1381.9521 DISTAN   1.98E-04  1.43E-05 %
 
Step History
        DMIX         DMIXT        Red     Pred      Trust     Lambda    MagRel    MagAbs     Beta
  4   4.8018E-02   4.8018E-02  8.31E-01  9.49E-01  2.82E-01  1.28E+00  7.57E-02  5.66E-02  9.41E-01
  5   1.2004E-01   1.1374E-01  6.92E-01  8.22E-01  3.91E-01  8.43E-01  3.91E-01  2.43E-01  1.00E+00
  6   2.3431E-01   2.3167E-01  5.21E-01  7.90E-01  5.21E-01  7.18E-01  5.21E-01  2.24E-01  1.00E+00
  7   2.9811E-01   2.9811E-01  2.47E-01  4.73E-01  6.95E-01  5.62E-01  6.84E-01  1.54E-01  1.00E+00
  8   2.4610E-01   2.4610E-01  4.59E-01  7.13E-01  9.26E-01  1.00E+00  5.68E-01  3.14E-02  1.00E+00
  9   3.2527E-01   3.2527E-01  6.88E-01  7.54E-01  1.24E+00  1.50E+00  4.62E-01  1.18E-02  1.00E+00
 10   2.6533E-01   2.6533E-01  2.87E-01  2.48E-01  1.65E+00  1.78E+00  2.18E-01  3.81E-03  9.17E-01
 11   2.9825E-01   2.9825E-01  2.57E-01  3.27E-01  2.20E+00  1.77E+00  2.74E-01  1.38E-03  1.00E+00
 12   3.5000E-01   3.5000E-01 -1.00E+00  2.48E-01  2.93E+00  1.00E+00  6.62E-01  8.55E-04  1.00E+00
:JACOBIANS    1.092E+00   2.763E+00
  
:NORMS:  1/Froebius, Min, Max, Used   0.7151E+00  0.5213E+00  0.1004E+01  0.9601E+00
:INFO :  Number of Memory Steps    8 Skipping    3
:INFO :  SLambda=    1.1806033791  Max    1.1806033791
:PREDicted Charge, CTotal, PW Trust    1.444E-04   2.889E-04   3.951E-05
:PREDicted DMix, Beta, BLim   6.9801E-02  9.9906E-01  2.1529E+00

Eigenvalues, unscaled except for SY+YY
   #     SY Real        SY Imag          SS             YY         SY+YY Real      SY+YY Imag
   1   2.828998E+00   0.000000E+00   2.829212E+00   3.069490E+00   6.322216E+00   0.000000E+00
   2   1.265125E+00   0.000000E+00   7.666174E-01   2.758247E+00   4.279800E+00   0.000000E+00
   3   5.400563E-01   0.000000E+00   3.713270E-01   9.982906E-01   1.630035E+00   0.000000E+00
   4   1.304298E-01   0.000000E+00   9.240061E-02   7.235866E-01   8.859817E-01   0.000000E+00
   5   1.073011E-01   0.000000E+00   2.021334E-02   2.458623E-01   4.105127E-01   0.000000E+00
   6   3.445186E-02   0.000000E+00   6.956022E-03   1.623881E-01   2.073418E-01   0.000000E+00
   7   8.377930E-04   0.000000E+00   3.532049E-03   3.855468E-02   4.961589E-03   0.000000E+00
   8   1.609572E-02   0.000000E+00   1.650851E-04   3.581472E-03   7.161060E-02   0.000000E+00
 
:INFO :  Singular value  6.325E+00 Weight  1.000E+00 Projection  7.867E-05
:INFO :  Singular value  4.282E+00 Weight  1.000E+00 Projection -1.392E-05
:INFO :  Singular value  1.630E+00 Weight  1.000E+00 Projection -6.463E-05
:INFO :  Singular value  8.860E-01 Weight  1.000E+00 Projection  3.582E-05
:INFO :  Singular value  4.103E-01 Weight  1.000E+00 Projection  1.196E-04
:INFO :  Singular value  2.073E-01 Weight  1.000E+00 Projection -1.433E-04
:INFO :  Singular value  7.161E-02 Weight  1.000E+00 Projection -1.162E-04
:INFO :  Singular value  4.961E-03 Weight  9.962E-01 Projection  5.219E-04
:RANK :  ACTIVE   8.00/8  =  99.95 % ; YY RANK   7.99/8  =  99.91 %
 
:BLIM :  VZERO Control Off
:TRUST:  Step 7.01E+00  Charge 1.97E-02 (e) CTO  6.55E-02 (e) PW  9.38E-02 (e)
:DIRM :  MEMORY  8/8  SCALE   1.000 RED  0.16 PRED  0.25 NEXT  0.48 BETA  1.00
:TRAVE:  Charge 1.60E-04 (e) CTO  3.20E-04 (e) PW  5.99E-04 (e)
:DIRP :  |MSR1|= 3.618E-05 |PRATT|= 6.538E-05 ANGLE=  18.3 DEGREES
:DIRQ :  |MSR1|= 1.455E-04 |PRATT|= 1.978E-04 ANGLE=  36.5 DEGREES
:DIRT :  |MSR1|= 1.500E-04 |PRATT|= 2.083E-04 ANGLE=  35.6 DEGREES
:MIX  :   MSE1   REGULARIZATION:  3.07E-04 GREED: 0.19383  Newton 1.00  0.7200                
     
       CHARGES OF MIXED CHARGE DENSITY
:CTO   : INTERSTITIAL CHARGE =     6.913263
:CPC   : PW Pseudocharge     =    17.026369
:CTO001: CHARGE SPHERE  1    =    55.543369

:NEC03: NUCLEAR AND ELECTRONIC CHARGE    118.00000   118.00000

PW CHANGE     H    K    L      Current       Change    Residue
:PTO001:      0    0    0  5.47451896E-02  7.795E-08  3.238E-07
:PTO003:      0    2    0  1.47853543E-02 -1.007E-07 -2.195E-07
:PTO004:     -1    1    0  7.22836133E-02  1.044E-07  3.796E-07
:PTO005:      0    2   -1 -8.38127924E-02 -1.498E-07 -3.050E-07
:PTO006:      0    0   -2 -4.34143159E-02 -1.138E-08 -2.053E-08
:PTO007:     -1    1   -1 -9.03236896E-02 -2.347E-07 -2.457E-07
:PTO008:      0    2   -2 -1.45211177E-02  7.604E-08  3.637E-07
:PTO009:     -1    1   -2 -7.44256822E-02 -3.639E-07 -6.378E-07
:PTO011:     -1    3    0 -1.19937925E-02 -3.634E-07 -7.113E-07
:PTO012:     -1    3   -1 -5.33429573E-02 -2.624E-07 -7.446E-07
:PTO013:      0    4    0 -9.65924542E-03  1.418E-08 -3.968E-08
:PTO014:      0    2   -3  2.22374276E-02 -1.276E-08  1.095E-07

:ENE  : ********** TOTAL ENERGY IN Ry =       -36944.19326622

       TOTAL FORCE IN mRy/a.u. = |F|     Fx             Fy             Fz     with/without FOR in case.in2
:FOR001:   1.ATOM         25.416          0.000          0.000        -25.416 partial forces
       TOTAL FORCE WITH RESPECT TO GLOBAL CARTESIAN COORDINATES:
:FCA001:   1.ATOM                         0.000        -25.416          0.000 partial forces
       TOTAL FORCE WITH RESPECT TO THE GLOBAL COORDINATE SYSTEM:
:FGL001:   1.ATOM                 0.000000000   -25.415783280     0.000000000 partial forces
