
:LABEL1: Calculations in /home/ykent/GWIEN/example/Pr/aU/V18/case
:LABEL2: on didymium-2.cmpgroup.ameslab.gov at Fri Jul 10 14:29:26 CDT 2020
:LABEL3: using WIEN2k_19.1 (Release 25/6/2019) in /home/ykent/opt/src/WIEN2k_19.1
:LABEL4: using the command: run_lapw -so -i 70 -cc 0.0001
 Flat Integration
 New Mode for Coulomb Integral
 Consistent 3/8+Simpson combinations
 Extension of core to zero
 LDM version in phi
 Fifth-order quadrature in outwin


            ---------
:ITE016: 16. ITERATION
            ---------

:NATO :    1 INDEPENDENT AND    2 TOTAL ATOMS IN UNITCELL
       SUBSTANCE: aU                                                          

       LATTICE                      = CXY 
:POT  : POTENTIAL OPTION EX_LDA EC_LDA VX_LDA VC_LDA
:LAT  : LATTICE CONSTANTS=  6.48990 13.16965 11.36963    1.571    1.571    1.571
:VOL  : UNIT CELL VOLUME =     485.88001
       MODE OF CALCULATION IS       = RELA
       NON-SPINPOLARIZED CALCULATION
:IFFT  : FFT-parameters:   54  108   90 Factor: 2.00


   CONVERGENCE PARAMETER FOR PSEUDOCHARGE: NCON=  9
   MAXIMAL VALUE OF RMT(JATOM)*ABSK(NKK) : RK  =27.59923


:VKCOUL :  VK-COUL convergence: 0.155E-06
       ATOMNUMBER=  1 Pr1        VCOUL-ZERO =  0.52734E-01
:EFG001:                        EFG         =    -7.76390   *10**21  V / m**2
                               V20  TOT/SRF=    -6.72373    -0.02529
                               V22  TOT/SRF=    -0.05838     0.00026
                               V22M TOT/SRF=     0.00000     0.00000
                               V21  TOT/SRF=     0.00000     0.00000
                               V21M TOT/SRF=     0.00000     0.00000

              3.82356    0.00000    0.00000        3.82356    0.00000    0.00000
              0.00000    3.94033    0.00000        0.00000    3.94033    0.00000
              0.00000    0.00000   -7.76390        0.00000    0.00000   -7.76390

         MAIN DIRECTIONS OF THE EFG   1.0000  0.0000  0.0000
                                      0.0000  1.0000  0.0000
                                      0.0000  0.0000  1.0000
:ANG001:  ANGLE WITH OLD X-AXIS =         0.0

:ETA001:                         ASYMM. ETA =     0.01504


     HELLMANN-FEYNMAN-FORCE IN mRy/a.u. = |F|  Fx       Fy             Fz
:FHF001:   1.ATOM   1336.696135966647      0.000000000000      0.000000000000  -1336.696135966647

:FIT001: LUSE= 13 SIGMA OF V-XC FIT FOR ATOM  1  0.5751903E-04
:FIT001: LUSE= 13 SIGMA OF V-XC FIT FOR ATOM  1  0.5751903E-04
:DEN  : DENSITY INTEGRAL  =        -14146.71629266   (Ry)
       ELS_POTENTIAL_AT Z=0 and Z=0.5:   0.71094   0.71094
       ELS_POTENTIAL_AT Y=0 and Y=0.5:   0.07394   0.07394
:VZERO:v0,v0c,v0x   0.13929   0.71094  -0.57166 v5,v5c,v5x   0.13929   0.71094  -0.57166
:VZERY:v0,v0c,v0x  -0.69189   0.07394  -0.76584 v5,v5c,v5x  -0.69189   0.07394  -0.76584
:VZERX:v0,v0c,v0x  -1.10929  -0.37498  -0.73431 v5,v5c,v5x  -1.10929  -0.37498  -0.73431
:LMAX-WF:   10   Non-Spherical LMAX:   4

          ATOMIC SPHERE DEPENDENT PARAMETERS FOR ATOM  Pr1       
:e__0001: OVERALL ENERGY PARAMETER IS    0.4141
          OVERALL BASIS SET ON ATOM IS LAPW
:E0_0001: E( 0)=    0.4141
             APW+lo
:E0_0001: E( 0)=   -2.0557   E(BOTTOM)=   -2.691   E(TOP)=   -1.420  4  5   178
             LOCAL ORBITAL
:E1_0001: E( 1)=    0.8141
             APW+lo
:E1_0001: E( 1)=   -0.5858   E(BOTTOM)=   -1.543   E(TOP)=    0.372  3  4   198
             LOCAL ORBITAL
:E3_0001: E( 3)=    0.5979   E(BOTTOM)=    0.390   E(TOP)=    0.806  0  1   123
             APW+lo
:E2_0001: E( 2)=    0.4141   E(BOTTOM)=    0.198   E(TOP)= -200.000  2 -1    87
             APW+lo

       K=   0.06250   0.00000   0.06250            1
:RKM  : MATRIX SIZE   453LOs:  40  RKM= 8.49  WEIGHT= 4.00  PGR:    
       EIGENVALUES ARE:
:EIG00001:      -2.0260634   -2.0127665   -0.7495556   -0.6775536   -0.6611060
:EIG00006:      -0.6546469   -0.6479095   -0.6477482    0.3813904    0.5187569
:EIG00011:       0.6084894    0.6096201    0.6097825    0.6120713    0.6160037
:EIG00016:       0.6261523    0.6294122    0.6299215    0.6326515    0.6350566
:EIG00021:       0.6387459    0.6423477    0.6430377    0.6481676    0.6822266
:EIG00026:       0.6966659    0.7725198    0.7879603    0.8112377    0.8448335
:EIG00031:       0.8613136    0.9451469    0.9896345    1.0330422    1.3226406
:EIG00036:       1.3333868    1.4217372    1.4230991    1.5814421    1.6347848
:EIG00041:       1.6967960    1.7985532    1.8734108    1.8905150    1.9873465
:EIG00046:       2.0416714    2.0545603    2.1164564    2.1714703    2.2642656
 
:EIG00051:       2.3129647    2.3675678    2.3842322    2.4561351    2.4845276
:EIG00056:       2.5615577    2.5966191    2.6221818    2.7131169    2.7686294
:EIG00061:       2.8414598    2.8418650    2.9840727    3.0576768    3.0701506
:EIG00066:       3.1683103    3.2280940    3.2473194    3.2597788    3.3262162
:EIG00071:       3.3322662    3.3815823    3.4100692    3.4670154    3.4836647
:EIG00076:       3.5234091    3.5550359    3.5952498    3.6212545    3.6487551
:EIG00081:       3.6765673    3.7168161    3.7309827    3.8025676    3.8237149
:EIG00086:       3.8528485    3.9439916    3.9484973    3.9827018    3.9960851
:EIG00091:       4.0294407    4.0616533    4.0943735    4.1084164    4.1200193
:EIG00096:       4.1676408    4.2046225    4.2138039    4.2249474    4.3052456
 
:EIG00101:       4.3781737    4.5012913    4.5129601    4.5766712    4.6101818
:EIG00106:       4.6129268    4.6642576    4.6768746    4.7167656    4.7485506
:EIG00111:       4.8318852    4.8612449    4.8723432    4.9154768    4.9740122
:EIG00116:       5.0094479    5.0823548    5.0838204    5.1249082    5.1571827
:EIG00121:       5.1687407    5.2505650    5.2960976    5.3150607    5.3638309
:EIG00126:       5.4508417    5.4764702    5.5049971    5.5444692    5.5836432
:EIG00131:       5.5876381    5.6573841    5.6810386    5.6858782    5.7111368
:EIG00136:       5.7868735    5.8191863    5.8718740    5.8817665    5.9128212
:EIG00141:       5.9303743    5.9465443    5.9920528    6.0250556    6.0857575
:EIG00146:       6.0877182    6.0916672    6.1058447    6.1274322    6.2097202
 
:EIG00151:       6.2559520    6.2609052    6.3497761    6.3519348    6.4253176
:EIG00156:       6.5138868    6.6053729    6.6237147    6.6539278    6.6943777
:EIG00161:       6.7670828    6.7766089    6.8318714    6.8547810    6.8619899
:EIG00166:       6.9316986    6.9357365    6.9469635    6.9917747    7.0461816
:EIG00171:       7.0608009    7.1171535    7.1515092    7.1580770    7.2202426
:EIG00176:       7.2377135    7.2546349    7.2940646    7.3231522    7.3588046
:EIG00181:       7.4079240    7.4186594    7.4334385    7.4554651    7.5016830
:EIG00186:       7.5113796    7.5530228    7.6413582    7.6567159    7.6639284
:EIG00191:       7.6910063    7.7164678    7.7733197    7.7778704    7.7944894
:EIG00196:       7.8086260    7.8237486    7.8725017    7.8730354    7.9173934
 
:EIG00201:       7.9249762    7.9722569    7.9883776    8.0169715    8.0776767
:EIG00206:       8.0904175    8.1017797
       ********************************************************

:KPT   :      NUMBER OF K-POINTS:   288
   0.0   0.0 angle (M,z), angle (M,x) deg
 
        SPIN-ORBIT EIGENVALUES:
     K=   0.06250   0.00000   0.06250            1
      MATRIX SIZE=  414   WEIGHT= 4.00
     EIGENVALUES ARE:
          -2.0260634   -2.0260634   -2.0127666   -2.0127666   -0.8402176
          -0.8402176   -0.8024145   -0.8024145   -0.6532747   -0.6532747
          -0.5924389   -0.5924389   -0.5895710   -0.5895710   -0.5812492
          -0.5812492    0.3814263    0.3814263    0.5186274    0.5186274
           0.6019971    0.6019971    0.6038472    0.6038472    0.6045784
           0.6045784    0.6063258    0.6063258    0.6096633    0.6096633
           0.6134237    0.6134237    0.6292579    0.6292579    0.6357105
           0.6357105    0.6394365    0.6394365    0.6403059    0.6403059

           0.6446033    0.6446033    0.6478320    0.6478320    0.6486239
           0.6486239    0.6534597    0.6534597    0.6829838    0.6829838
           0.6966163    0.6966163    0.7714792    0.7714792    0.7882489
           0.7882489    0.8117288    0.8117289    0.8453267    0.8453267
           0.8613582    0.8613582    0.9449778    0.9449779    0.9899224
           0.9899224    1.0331672    1.0331672    1.3224205    1.3224205
           1.3338211    1.3338211    1.4215315    1.4215315    1.4233230
           1.4233230    1.5810349    1.5810349    1.6342229    1.6342229

           1.6967314    1.6967314    1.7969629    1.7969629    1.8718985
           1.8718985    1.8916769    1.8916769    1.9878048    1.9878048
           2.0413677    2.0413677    2.0527031    2.0527031    2.1169876
           2.1169876    2.1721876    2.1721876    2.2638778    2.2638778
           2.3125227    2.3125227    2.3648317    2.3648317    2.3861234
           2.3861234    2.4565833    2.4565833    2.4859059    2.4859059
           2.5615610    2.5615610    2.5960329    2.5960329    2.6231198
           2.6231198    2.7133147    2.7133147    2.7683823    2.7683823

           2.8405331    2.8405331    2.8466739    2.8466739    2.9839695
           2.9839695    3.0576831    3.0576831    3.0703693    3.0703693
           3.1682487    3.1682487    3.2279998    3.2279998    3.2476506
           3.2476506    3.2595085    3.2595085    3.3262797    3.3262797
           3.3325066    3.3325066    3.3815871    3.3815871    3.4101289
           3.4101289    3.4662865    3.4662865    3.4845609    3.4845609
           3.5236222    3.5236222    3.5565363    3.5565363    3.5953299
           3.5953299    3.6213810    3.6213810    3.6491293    3.6491293

           3.6767206    3.6767206    3.7168361    3.7168361    3.7312491
           3.7312491    3.8026850    3.8026850    3.8238047    3.8238047
           3.8529560    3.8529560    3.9439695    3.9439695    3.9486375
           3.9486375    3.9827115    3.9827115    3.9961476    3.9961476
           4.0294654    4.0294654    4.0617042    4.0617042    4.0943624
           4.0943624    4.1082739    4.1082739    4.1199825    4.1199825
           4.1676782    4.1676782    4.2042745    4.2042745    4.2142039
           4.2142039    4.2250916    4.2250916    4.3053069    4.3053069

           4.3780372    4.3780372    4.4999537    4.4999537
       ********************************************************
:GAP (global)   :    0.0    Ry =     0.0   eV (metal)
:GAP (this spin):    0.0    Ry =     0.0   eV (metal)
         Bandranges (emin - emax) and occupancy:
:BAN00018:  18    0.376464    0.583325  1.00000000
:BAN00019:  19    0.484746    0.591775  1.00000000
:BAN00020:  20    0.484746    0.591775  1.00000000
:BAN00021:  21    0.552163    0.604395  1.00000000
:BAN00022:  22    0.552163    0.604395  1.00000000
:BAN00023:  23    0.589331    0.606974  1.00000000
:BAN00024:  24    0.589331    0.606974  1.00000000
:BAN00025:  25    0.597164    0.613211  0.79977400
:BAN00026:  26    0.597164    0.613211  0.79977385
:BAN00027:  27    0.605257    0.613904  0.20022620
:BAN00028:  28    0.605257    0.613904  0.20022595
:BAN00029:  29    0.608810    0.618173  0.00000000
:BAN00030:  30    0.608810    0.618173  0.00000000
:BAN00031:  31    0.611760    0.622690  0.00000000
:BAN00032:  32    0.611760    0.622690  0.00000000
:BAN00033:  33    0.615775    0.629606  0.00000000
        Energy to separate low and high energystates:    0.32646


:NOE  : NUMBER OF ELECTRONS          =   26.000

:FER  : F E R M I - ENERGY(TETRAH.M.)=   0.6080122070
:GMA  : POTENTIAL AND CHARGE CUT-OFF  12.00 Ry**.5

:POS001: ATOM   -1 X,Y,Z = 0.00000 0.89750 0.25000  MULT= 2  ZZ= 59.000  Pr1       

       LMMAX 16
       LM=   0 0  1 0  2 0  2 2  3 0  3 2  4 0  4 2  4 4  5 0  5 2  5 4  6 0  6 2  6 4  6 6

:CHA001: TOTAL VALENCE CHARGE INSIDE SPHERE   1 =   9.6313    (RMT=  2.3000 )
:PCS001: PARTIAL CHARGES SPHERE =  1 S,P,D,F,PX,PY,PZ,D-Z2,D-X2Y2,D-XY,D-XZ,D-YZ 
:QTL001: 1.9397 5.0115 0.4688 2.2110 1.6680 1.6677 1.6758 0.0854 0.0836 0.1066 0.0902 0.1029
        Q-s-low E-s-low   Q-p-low E-p-low   Q-d-low E-d-low   Q-f-low E-f-low
:EPL001:  1.8696 -2.0129    4.9508 -0.6958    0.0016 -0.6890    0.0004 -0.6992
        Q-s-hi  E-s-hi    Q-p-hi  E-p-hi    Q-d-hi  E-d-hi    Q-f-hi  E-f-hi 
:EPH001:  0.0701  0.5139    0.0607  0.5495    0.4673  0.5626    2.2106  0.5967

                      VXX         VYY         VZZ       UP TO R
:VZZ001:             3.68434     2.33434    -6.01868       2.300

:CHA  : TOTAL VALENCE CHARGE INSIDE UNIT CELL =      26.000000

:SUM  : SUM OF EIGENVALUES =         -10.670057325


        1.ATOM      Pr1                  14 CORE STATES
       CORE-FORCE in mRy/a.u. = |F|      Fx             Fy             Fz
:FCO001:   1.ATOM   1308.451495384083      0.000000000000      0.000000000000   1308.451495384083

:1S 001: 1S               -3066.992780752 Ry
:2S 001: 2S                -492.744834799 Ry
:2PP001: 2P*               -465.844170740 Ry
:2P 001: 2P                -430.446605810 Ry
:3S 001: 3S                -105.832821527 Ry
:3PP001: 3P*                -94.370783758 Ry
:3P 001: 3P                 -87.362818441 Ry
:3DD001: 3D*                -67.290175338 Ry
:3D 001: 3D                 -65.778568679 Ry
:4S 001: 4S                 -20.507833761 Ry
:4PP001: 4P*                -16.214593189 Ry
:4P 001: 4P                 -14.687109202 Ry
:4DD001: 4D*                 -7.619965891 Ry
:4D 001: 4D                  -7.350537349 Ry
:CINT001 Core Integral Atom   1   45.998492

       DENSITY AT NUCLEUS
        JATOM        VALENCE       SEMI-CORE          CORE           TOTAL
:RTO001:   1      647.575501        0.000000   656825.199266   657472.774768
     
       CHARGES OF NEW CHARGE DENSITY
:NTO   : INTERSTITIAL CHARGE =     6.737455
:NPC   : PW Pseudocharge     =    16.838225
:NTO001: CHARGE SPHERE  1    =    55.629764

:NEC01: NUCLEAR AND ELECTRONIC CHARGE    118.00000   117.99698
     
       CHARGES OF OLD CHARGE DENSITY
:OTO   : INTERSTITIAL CHARGE =     6.974357
:OPC   : PW Pseudocharge     =    16.916177
:OTO001: CHARGE SPHERE  1    =    55.512822

:NEC02: NUCLEAR AND ELECTRONIC CHARGE    118.00000   118.00000
     
       CONVERGENCE TEST
:DTO001: DIFFERENCE IN SPHERE  1 =  0.1985525

:DIS  :  CHARGE DISTANCE       ( 0.1985525 for atom    1 spin 1)      0.1985525
 PW Mixed is          506
 
******************************************************
* MULTISECANT MIXING VER9 RELEASE 10.4.0              *
* Standard Mode with controls                        *
* Fixed density scale                                *
* Regularization       1.000E-04                     *
* Trust Upper Limit    5.000E+00                     *
* Max Number of Memory Steps    8                    *
******************************************************
 
:PWTMP   3.8395E+02  1.9467E+02  4.8588E+02
:PLANE:  PW TOTAL      4.6112 DISTAN   3.25E-02  7.05E-01 %
:CHARG:  CLM/ATOM   1381.9468 DISTAN   3.14E-01  2.27E-02 %
 
Step History
        DMIX         DMIXT        Red     Pred      Trust     Lambda    MagRel    MagAbs     Beta
  1   3.5000E-02   3.5000E-02 -1.00E+00  1.00E+00 -1.00E+01  1.00E+00  3.50E-02  3.50E-02  1.00E+00
:INFO :  Note, Pratt in use
:TRUST:  Step 3.75E-02  Charge 7.50E-02 (e) CTO  2.50E-01 (e) PW  3.50E-01 (e)
:DIRM :  MEMORY  0/ 8 SCALE   1.000
Performing Pseudo Compensation
Final Pseudo Compensation Rescaling     1.00000E+00
:MIX  :   PRATT  REGULARIZATION:  1.00E-04 GREED: 0.02500                  
     
       CHARGES OF MIXED CHARGE DENSITY
:CTO   : INTERSTITIAL CHARGE =     6.968510
:CPC   : PW Pseudocharge     =    16.901257
:CTO001: CHARGE SPHERE  1    =    55.515745

:NEC03: NUCLEAR AND ELECTRONIC CHARGE    118.00000   118.00000

PW CHANGE     H    K    L      Current       Change    Residue
:PTO001:      0    0    0  4.91268763E-02 -4.274E-05 -6.263E-04
:PTO003:      0    2    0  1.37713910E-02 -8.313E-06  4.395E-05
:PTO004:     -1    1    0  6.79019665E-02 -5.044E-05 -1.610E-04
:PTO005:      0    2   -1 -7.90410244E-02  5.171E-05 -9.208E-05
:PTO006:      0    0   -2 -4.09097387E-02  2.884E-05  3.263E-05
:PTO007:     -1    1   -1 -8.59372925E-02  5.652E-05 -3.188E-05
:PTO008:      0    2   -2 -1.41602790E-02  8.787E-06  3.021E-05
:PTO009:     -1    1   -2 -7.33239190E-02  3.555E-05 -2.480E-05
:PTO011:     -1    3    0 -1.20963514E-02  5.761E-06  8.592E-05
:PTO012:     -1    3   -1 -5.45067467E-02  8.196E-06 -4.230E-05
:PTO013:      0    4    0 -1.00536057E-02 -8.587E-07 -2.861E-05
:PTO014:      0    2   -3  2.30491508E-02  4.910E-07 -2.568E-06

:ENE  : ********** TOTAL ENERGY IN Ry =       -36944.22029388

       TOTAL FORCE IN mRy/a.u. = |F|     Fx             Fy             Fz     with/without FOR in case.in2
:FOR001:   1.ATOM         28.245          0.000          0.000        -28.245 partial forces
       TOTAL FORCE WITH RESPECT TO GLOBAL CARTESIAN COORDINATES:
:FCA001:   1.ATOM                         0.000        -28.245          0.000 partial forces
       TOTAL FORCE WITH RESPECT TO THE GLOBAL COORDINATE SYSTEM:
:FGL001:   1.ATOM                 0.000000000   -28.244640583     0.000000000 partial forces
 Flat Integration
 New Mode for Coulomb Integral
 Consistent 3/8+Simpson combinations
 Extension of core to zero
 LDM version in phi
 Fifth-order quadrature in outwin


            ---------
:ITE017: 17. ITERATION
            ---------

:NATO :    1 INDEPENDENT AND    2 TOTAL ATOMS IN UNITCELL
       SUBSTANCE: aU                                                          

       LATTICE                      = CXY 
:POT  : POTENTIAL OPTION EX_LDA EC_LDA VX_LDA VC_LDA
:LAT  : LATTICE CONSTANTS=  6.48990 13.16965 11.36963    1.571    1.571    1.571
:VOL  : UNIT CELL VOLUME =     485.88001
       MODE OF CALCULATION IS       = RELA
       NON-SPINPOLARIZED CALCULATION
:IFFT  : FFT-parameters:   54  108   90 Factor: 2.00


   CONVERGENCE PARAMETER FOR PSEUDOCHARGE: NCON=  9
   MAXIMAL VALUE OF RMT(JATOM)*ABSK(NKK) : RK  =27.59923


:VKCOUL :  VK-COUL convergence: 0.154E-06
       ATOMNUMBER=  1 Pr1        VCOUL-ZERO =  0.52667E-01
:EFG001:                        EFG         =    -7.72085   *10**21  V / m**2
                               V20  TOT/SRF=    -6.68645    -0.02507
                               V22  TOT/SRF=    -0.03995     0.00041
                               V22M TOT/SRF=     0.00000     0.00000
                               V21  TOT/SRF=     0.00000     0.00000
                               V21M TOT/SRF=     0.00000     0.00000

              3.82047    0.00000    0.00000        3.82047    0.00000    0.00000
              0.00000    3.90038    0.00000        0.00000    3.90038    0.00000
              0.00000    0.00000   -7.72085        0.00000    0.00000   -7.72085

         MAIN DIRECTIONS OF THE EFG   1.0000  0.0000  0.0000
                                      0.0000  1.0000  0.0000
                                      0.0000  0.0000  1.0000
:ANG001:  ANGLE WITH OLD X-AXIS =         0.0

:ETA001:                         ASYMM. ETA =     0.01035


     HELLMANN-FEYNMAN-FORCE IN mRy/a.u. = |F|  Fx       Fy             Fz
:FHF001:   1.ATOM   1336.270595845698      0.000000000000      0.000000000000  -1336.270595845698

:FIT001: LUSE= 13 SIGMA OF V-XC FIT FOR ATOM  1  0.5711408E-04
:FIT001: LUSE= 13 SIGMA OF V-XC FIT FOR ATOM  1  0.5711408E-04
:DEN  : DENSITY INTEGRAL  =        -14147.30239027   (Ry)
       ELS_POTENTIAL_AT Z=0 and Z=0.5:   0.71023   0.71023
       ELS_POTENTIAL_AT Y=0 and Y=0.5:   0.07389   0.07389
:VZERO:v0,v0c,v0x   0.13875   0.71023  -0.57148 v5,v5c,v5x   0.13875   0.71023  -0.57148
:VZERY:v0,v0c,v0x  -0.69173   0.07389  -0.76562 v5,v5c,v5x  -0.69173   0.07389  -0.76562
:VZERX:v0,v0c,v0x  -1.10869  -0.37459  -0.73411 v5,v5c,v5x  -1.10869  -0.37459  -0.73411
:LMAX-WF:   10   Non-Spherical LMAX:   4

          ATOMIC SPHERE DEPENDENT PARAMETERS FOR ATOM  Pr1       
:e__0001: OVERALL ENERGY PARAMETER IS    0.4100
          OVERALL BASIS SET ON ATOM IS LAPW
:E0_0001: E( 0)=    0.4100
             APW+lo
:E0_0001: E( 0)=   -2.0537   E(BOTTOM)=   -2.690   E(TOP)=   -1.418  4  5   170
             LOCAL ORBITAL
:E1_0001: E( 1)=    0.8100
             APW+lo
:E1_0001: E( 1)=   -0.5841   E(BOTTOM)=   -1.542   E(TOP)=    0.374  3  4   200
             LOCAL ORBITAL
:E3_0001: E( 3)=    0.6015   E(BOTTOM)=    0.393   E(TOP)=    0.810  0  1   121
             APW+lo
:E2_0001: E( 2)=    0.4100   E(BOTTOM)=    0.199   E(TOP)= -200.000  2 -1    91
             APW+lo

       K=   0.06250   0.00000   0.06250            1
:RKM  : MATRIX SIZE   453LOs:  40  RKM= 8.49  WEIGHT= 4.00  PGR:    
       EIGENVALUES ARE:
:EIG00001:      -2.0242532   -2.0109227   -0.7483977   -0.6762631   -0.6597813
:EIG00006:      -0.6531954   -0.6464423   -0.6463640    0.3812054    0.5187469
:EIG00011:       0.6114842    0.6127744    0.6129281    0.6152052    0.6190370
:EIG00016:       0.6296182    0.6328824    0.6334170    0.6361549    0.6384189
:EIG00021:       0.6422996    0.6458246    0.6464476    0.6516606    0.6833675
:EIG00026:       0.6973300    0.7730597    0.7883001    0.8115534    0.8451938
:EIG00031:       0.8617385    0.9456033    0.9902100    1.0336529    1.3230926
:EIG00036:       1.3334843    1.4217366    1.4232206    1.5814000    1.6347211
:EIG00041:       1.6968560    1.7986138    1.8735260    1.8906466    1.9876283
:EIG00046:       2.0417765    2.0544932    2.1165708    2.1714970    2.2644699
 
:EIG00051:       2.3130800    2.3676372    2.3843009    2.4563278    2.4847980
:EIG00056:       2.5615771    2.5965365    2.6226693    2.7132131    2.7688297
:EIG00061:       2.8417597    2.8418250    2.9842813    3.0574684    3.0701663
:EIG00066:       3.1683543    3.2280043    3.2474912    3.2600079    3.3259567
:EIG00071:       3.3321550    3.3814847    3.4100186    3.4670109    3.4835904
:EIG00076:       3.5235287    3.5548930    3.5952229    3.6211282    3.6487718
:EIG00081:       3.6764282    3.7165750    3.7308349    3.8026400    3.8235383
:EIG00086:       3.8525684    3.9436459    3.9483143    3.9824847    3.9960602
:EIG00091:       4.0291932    4.0615433    4.0940991    4.1084859    4.1201140
:EIG00096:       4.1673949    4.2043709    4.2136783    4.2247372    4.3049760
 
:EIG00101:       4.3781330    4.5011216    4.5129471    4.5765702    4.6099352
:EIG00106:       4.6127171    4.6640540    4.6767166    4.7166442    4.7482989
:EIG00111:       4.8315756    4.8613809    4.8719895    4.9155354    4.9738455
:EIG00116:       5.0095254    5.0820776    5.0838566    5.1249958    5.1574066
:EIG00121:       5.1688280    5.2503942    5.2962254    5.3148430    5.3637987
:EIG00126:       5.4507425    5.4765847    5.5049222    5.5443713    5.5834517
:EIG00131:       5.5876969    5.6572236    5.6809155    5.6857599    5.7111241
:EIG00136:       5.7867403    5.8190247    5.8716515    5.8815921    5.9127670
:EIG00141:       5.9303248    5.9467407    5.9919206    6.0247627    6.0857183
:EIG00146:       6.0874980    6.0914476    6.1060691    6.1273485    6.2094635
 
:EIG00151:       6.2556683    6.2609868    6.3495001    6.3518980    6.4253643
:EIG00156:       6.5137003    6.6052322    6.6235383    6.6537251    6.6944372
:EIG00161:       6.7671652    6.7763933    6.8317437    6.8548263    6.8620404
:EIG00166:       6.9316545    6.9356036    6.9468812    6.9916568    7.0462352
:EIG00171:       7.0608962    7.1171686    7.1516085    7.1581185    7.2202941
:EIG00176:       7.2377779    7.2549117    7.2940235    7.3233390    7.3588327
:EIG00181:       7.4079260    7.4185485    7.4332509    7.4555898    7.5015261
:EIG00186:       7.5111906    7.5532368    7.6413328    7.6567226    7.6640392
:EIG00191:       7.6908671    7.7163499    7.7731311    7.7778121    7.7942610
:EIG00196:       7.8086126    7.8235410    7.8724078    7.8729270    7.9173131
 
:EIG00201:       7.9250923    7.9721069    7.9881144    8.0170050    8.0775724
:EIG00206:       8.0905083    8.1017371
       ********************************************************

:KPT   :      NUMBER OF K-POINTS:   288
   0.0   0.0 angle (M,z), angle (M,x) deg
 
        SPIN-ORBIT EIGENVALUES:
     K=   0.06250   0.00000   0.06250            1
      MATRIX SIZE=  414   WEIGHT= 4.00
     EIGENVALUES ARE:
          -2.0242533   -2.0242533   -2.0109228   -2.0109228   -0.8388541
          -0.8388541   -0.8009305   -0.8009305   -0.6520763   -0.6520763
          -0.5910886   -0.5910886   -0.5882409   -0.5882409   -0.5798932
          -0.5798932    0.3812414    0.3812414    0.5186213    0.5186213
           0.6051271    0.6051271    0.6070894    0.6070894    0.6078330
           0.6078330    0.6095635    0.6095635    0.6129255    0.6129255
           0.6169435    0.6169435    0.6322808    0.6322808    0.6390941
           0.6390941    0.6428584    0.6428584    0.6437122    0.6437123

           0.6479487    0.6479487    0.6511805    0.6511805    0.6520585
           0.6520585    0.6569353    0.6569353    0.6842472    0.6842472
           0.6973339    0.6973339    0.7720552    0.7720552    0.7885819
           0.7885819    0.8120462    0.8120462    0.8456859    0.8456859
           0.8617835    0.8617835    0.9454353    0.9454354    0.9904966
           0.9904966    1.0337771    1.0337771    1.3228652    1.3228652
           1.3339259    1.3339259    1.4215445    1.4215445    1.4234316
           1.4234316    1.5809940    1.5809940    1.6341597    1.6341597

           1.6967918    1.6967918    1.7970270    1.7970270    1.8720149
           1.8720149    1.8918042    1.8918042    1.9880845    1.9880845
           2.0414689    2.0414689    2.0526482    2.0526482    2.1170952
           2.1170952    2.1722201    2.1722201    2.2640819    2.2640819
           2.3126355    2.3126355    2.3649022    2.3649022    2.3861931
           2.3861931    2.4567653    2.4567653    2.4861763    2.4861763
           2.5615857    2.5615857    2.5959617    2.5959617    2.6235917
           2.6235917    2.7134137    2.7134137    2.7685860    2.7685860

           2.8405660    2.8405660    2.8468970    2.8468970    2.9841777
           2.9841777    3.0574756    3.0574756    3.0703840    3.0703840
           3.1682939    3.1682939    3.2279135    3.2279135    3.2478188
           3.2478188    3.2597343    3.2597343    3.3260222    3.3260222
           3.3323943    3.3323943    3.3814892    3.3814892    3.4100784
           3.4100784    3.4662779    3.4662779    3.4844918    3.4844918
           3.5237413    3.5237413    3.5563936    3.5563936    3.5953030
           3.5953030    3.6212568    3.6212568    3.6491438    3.6491438

           3.6765811    3.6765811    3.7165952    3.7165952    3.7311022
           3.7311022    3.8027563    3.8027563    3.8236290    3.8236290
           3.8526759    3.8526759    3.9436243    3.9436243    3.9484543
           3.9484543    3.9824945    3.9824945    3.9961227    3.9961227
           4.0292180    4.0292180    4.0615945    4.0615945    4.0940892
           4.0940892    4.1083413    4.1083413    4.1200763    4.1200763
           4.1674325    4.1674325    4.2040295    4.2040295    4.2140704
           4.2140704    4.2248844    4.2248844    4.3050375    4.3050375

           4.3779964    4.3779964    4.4997997    4.4997997
       ********************************************************
:GAP (global)   :    0.0    Ry =     0.0   eV (metal)
:GAP (this spin):    0.0    Ry =     0.0   eV (metal)
         Bandranges (emin - emax) and occupancy:
:BAN00018:  18    0.376275    0.584850  1.00000000
:BAN00019:  19    0.484644    0.593550  1.00000000
:BAN00020:  20    0.484644    0.593550  1.00000000
:BAN00021:  21    0.552447    0.607079  1.00000000
:BAN00022:  22    0.552447    0.607079  1.00000000
:BAN00023:  23    0.590872    0.610109  1.00000000
:BAN00024:  24    0.590872    0.610109  1.00000000
:BAN00025:  25    0.599707    0.616669  0.80109481
:BAN00026:  26    0.599707    0.616669  0.80109458
:BAN00027:  27    0.608290    0.617405  0.19890540
:BAN00028:  28    0.608290    0.617405  0.19890521
:BAN00029:  29    0.612098    0.620930  0.00000000
:BAN00030:  30    0.612098    0.620930  0.00000000
:BAN00031:  31    0.615137    0.625323  0.00000000
:BAN00032:  32    0.615137    0.625323  0.00000000
:BAN00033:  33    0.619199    0.632631  0.00000000
        Energy to separate low and high energystates:    0.32628


:NOE  : NUMBER OF ELECTRONS          =   26.000

:FER  : F E R M I - ENERGY(TETRAH.M.)=   0.6112098017
:GMA  : POTENTIAL AND CHARGE CUT-OFF  12.00 Ry**.5

:POS001: ATOM   -1 X,Y,Z = 0.00000 0.89750 0.25000  MULT= 2  ZZ= 59.000  Pr1       

       LMMAX 16
       LM=   0 0  1 0  2 0  2 2  3 0  3 2  4 0  4 2  4 4  5 0  5 2  5 4  6 0  6 2  6 4  6 6

:CHA001: TOTAL VALENCE CHARGE INSIDE SPHERE   1 =   9.5815    (RMT=  2.3000 )
:PCS001: PARTIAL CHARGES SPHERE =  1 S,P,D,F,PX,PY,PZ,D-Z2,D-X2Y2,D-XY,D-XZ,D-YZ 
:QTL001: 1.9400 5.0120 0.4845 2.1447 1.6680 1.6678 1.6762 0.0889 0.0871 0.1087 0.0934 0.1065
        Q-s-low E-s-low   Q-p-low E-p-low   Q-d-low E-d-low   Q-f-low E-f-low
:EPL001:  1.8694 -2.0110    4.9492 -0.6945    0.0016 -0.6877    0.0004 -0.6979
        Q-s-hi  E-s-hi    Q-p-hi  E-p-hi    Q-d-hi  E-d-hi    Q-f-hi  E-f-hi 
:EPH001:  0.0706  0.5145    0.0628  0.5514    0.4829  0.5644    2.1443  0.5995

                      VXX         VYY         VZZ       UP TO R
:VZZ001:             3.97951     2.75549    -6.73500       2.300

:CHA  : TOTAL VALENCE CHARGE INSIDE UNIT CELL =      26.000000

:SUM  : SUM OF EIGENVALUES =         -10.631484942


        1.ATOM      Pr1                  14 CORE STATES
       CORE-FORCE in mRy/a.u. = |F|      Fx             Fy             Fz
:FCO001:   1.ATOM   1308.098846852083      0.000000000000      0.000000000000   1308.098846852083

:1S 001: 1S               -3066.986041880 Ry
:2S 001: 2S                -492.738081280 Ry
:2PP001: 2P*               -465.837420421 Ry
:2P 001: 2P                -430.439854478 Ry
:3S 001: 3S                -105.826216916 Ry
:3PP001: 3P*                -94.364164961 Ry
:3P 001: 3P                 -87.356226075 Ry
:3DD001: 3D*                -67.283534963 Ry
:3D 001: 3D                 -65.771934802 Ry
:4S 001: 4S                 -20.502630531 Ry
:4PP001: 4P*                -16.209478294 Ry
:4P 001: 4P                 -14.682130937 Ry
:4DD001: 4D*                 -7.615230721 Ry
:4D 001: 4D                  -7.345848919 Ry
:CINT001 Core Integral Atom   1   45.998489

       DENSITY AT NUCLEUS
        JATOM        VALENCE       SEMI-CORE          CORE           TOTAL
:RTO001:   1      647.544061        0.000000   656824.909979   657472.454040
     
       CHARGES OF NEW CHARGE DENSITY
:NTO   : INTERSTITIAL CHARGE =     6.837026
:NPC   : PW Pseudocharge     =    16.864072
:NTO001: CHARGE SPHERE  1    =    55.579975

:NEC01: NUCLEAR AND ELECTRONIC CHARGE    118.00000   117.99698
     
       CHARGES OF OLD CHARGE DENSITY
:OTO   : INTERSTITIAL CHARGE =     6.968510
:OPC   : PW Pseudocharge     =    16.901257
:OTO001: CHARGE SPHERE  1    =    55.515745

:NEC02: NUCLEAR AND ELECTRONIC CHARGE    118.00000   118.00000
     
       CONVERGENCE TEST
:DTO001: DIFFERENCE IN SPHERE  1 =  0.1124040

:DIS  :  CHARGE DISTANCE       ( 0.1124040 for atom    1 spin 1)      0.1124040
 PW Mixed is          506
 
******************************************************
* MULTISECANT MIXING VER9 RELEASE 10.4.0              *
* Slow Mode, cautious                                *
* Fixed density scale                                *
* Regularization       1.000E-04                     *
* Step Trust Radius    0.75000                       *
* Trust Upper Limit    2.000E+00                     *
* Max Number of Memory Steps   12                    *
******************************************************
 
:PWTMP   3.8395E+02  1.9467E+02  4.8588E+02
:PLANE:  PW TOTAL      4.6083 DISTAN   1.77E-02  3.85E-01 %
:CHARG:  CLM/ATOM   1381.9473 DISTAN   2.04E-01  1.47E-02 %
 
Step History
        DMIX         DMIXT        Red     Pred      Trust     Lambda    MagRel    MagAbs     Beta
  1   3.5000E-02   3.5000E-02 -1.00E+00  1.00E+00 -1.00E+01  1.00E+00  3.50E-02  3.50E-02  1.00E+00
  2   2.5000E-02   2.5000E-02 -1.00E+00  1.00E+00 -1.00E+01  1.00E+00  2.50E-02  7.90E-03  1.00E+00
:JACOBIANS    1.545E-03   2.919E-02
  
:TRUST:  Step 2.93E-02  Charge 7.50E-02 (e) CTO  2.50E-01 (e) PW  3.50E-01 (e)
:DIRM :  MEMORY  1/12 SCALE   1.000
:MIX  :   PRATT  REGULARIZATION:  1.00E-04 GREED: 0.02925  Expand 1.17  0.0293                
     
       CHARGES OF MIXED CHARGE DENSITY
:CTO   : INTERSTITIAL CHARGE =     6.960533
:CPC   : PW Pseudocharge     =    16.880902
:CTO001: CHARGE SPHERE  1    =    55.519734

:NEC03: NUCLEAR AND ELECTRONIC CHARGE    118.00000   118.00000

PW CHANGE     H    K    L      Current       Change    Residue
:PTO001:      0    0    0  4.90685657E-02 -5.831E-05 -3.256E-04
:PTO003:      0    2    0  1.37600494E-02 -1.134E-05  3.387E-05
:PTO004:     -1    1    0  6.78331513E-02 -6.882E-05 -7.718E-05
:PTO005:      0    2   -1 -7.89704725E-02  7.055E-05 -1.179E-04
:PTO006:      0    0   -2 -4.08703920E-02  3.935E-05 -3.977E-06
:PTO007:     -1    1   -1 -8.58601796E-02  7.711E-05 -5.187E-05
:PTO008:      0    2   -2 -1.41482913E-02  1.199E-05  1.886E-05
:PTO009:     -1    1   -2 -7.32754136E-02  4.851E-05 -3.571E-05
:PTO011:     -1    3    0 -1.20884919E-02  7.860E-06  6.182E-05
:PTO012:     -1    3   -1 -5.44955656E-02  1.118E-05 -2.920E-05
:PTO013:      0    4    0 -1.00547771E-02 -1.171E-06 -1.403E-05
:PTO014:      0    2   -3  2.30498207E-02  6.699E-07 -4.717E-06

:ENE  : ********** TOTAL ENERGY IN Ry =       -36944.21923439

       TOTAL FORCE IN mRy/a.u. = |F|     Fx             Fy             Fz     with/without FOR in case.in2
:FOR001:   1.ATOM         28.172          0.000          0.000        -28.172 partial forces
       TOTAL FORCE WITH RESPECT TO GLOBAL CARTESIAN COORDINATES:
:FCA001:   1.ATOM                         0.000        -28.172          0.000 partial forces
       TOTAL FORCE WITH RESPECT TO THE GLOBAL COORDINATE SYSTEM:
:FGL001:   1.ATOM                 0.000000000   -28.171748994     0.000000000 partial forces
 Flat Integration
 New Mode for Coulomb Integral
 Consistent 3/8+Simpson combinations
 Extension of core to zero
 LDM version in phi
 Fifth-order quadrature in outwin


            ---------
:ITE018: 18. ITERATION
            ---------

:NATO :    1 INDEPENDENT AND    2 TOTAL ATOMS IN UNITCELL
       SUBSTANCE: aU                                                          

       LATTICE                      = CXY 
:POT  : POTENTIAL OPTION EX_LDA EC_LDA VX_LDA VC_LDA
:LAT  : LATTICE CONSTANTS=  6.48990 13.16965 11.36963    1.571    1.571    1.571
:VOL  : UNIT CELL VOLUME =     485.88001
       MODE OF CALCULATION IS       = RELA
       NON-SPINPOLARIZED CALCULATION
:IFFT  : FFT-parameters:   54  108   90 Factor: 2.00


   CONVERGENCE PARAMETER FOR PSEUDOCHARGE: NCON=  9
   MAXIMAL VALUE OF RMT(JATOM)*ABSK(NKK) : RK  =27.59923


:VKCOUL :  VK-COUL convergence: 0.153E-06
       ATOMNUMBER=  1 Pr1        VCOUL-ZERO =  0.52576E-01
:EFG001:                        EFG         =    -7.66212   *10**21  V / m**2
                               V20  TOT/SRF=    -6.63559    -0.02477
                               V22  TOT/SRF=    -0.01481     0.00060
                               V22M TOT/SRF=     0.00000     0.00000
                               V21  TOT/SRF=     0.00000     0.00000
                               V21M TOT/SRF=     0.00000     0.00000

              3.81625    0.00000    0.00000        3.81625    0.00000    0.00000
              0.00000    3.84587    0.00000        0.00000    3.84587    0.00000
              0.00000    0.00000   -7.66212        0.00000    0.00000   -7.66212

         MAIN DIRECTIONS OF THE EFG   1.0000  0.0000  0.0000
                                      0.0000  1.0000  0.0000
                                      0.0000  0.0000  1.0000
:ANG001:  ANGLE WITH OLD X-AXIS =         0.0

:ETA001:                         ASYMM. ETA =     0.00387


     HELLMANN-FEYNMAN-FORCE IN mRy/a.u. = |F|  Fx       Fy             Fz
:FHF001:   1.ATOM   1335.690048906537      0.000000000000      0.000000000000  -1335.690048906537

:FIT001: LUSE= 13 SIGMA OF V-XC FIT FOR ATOM  1  0.5656400E-04
:FIT001: LUSE= 13 SIGMA OF V-XC FIT FOR ATOM  1  0.5656400E-04
:DEN  : DENSITY INTEGRAL  =        -14148.10203319   (Ry)
       ELS_POTENTIAL_AT Z=0 and Z=0.5:   0.70925   0.70925
       ELS_POTENTIAL_AT Y=0 and Y=0.5:   0.07381   0.07381
:VZERO:v0,v0c,v0x   0.13802   0.70925  -0.57123 v5,v5c,v5x   0.13802   0.70925  -0.57123
:VZERY:v0,v0c,v0x  -0.69151   0.07381  -0.76532 v5,v5c,v5x  -0.69151   0.07381  -0.76532
:VZERX:v0,v0c,v0x  -1.10789  -0.37406  -0.73382 v5,v5c,v5x  -1.10789  -0.37406  -0.73382
:LMAX-WF:   10   Non-Spherical LMAX:   4

          ATOMIC SPHERE DEPENDENT PARAMETERS FOR ATOM  Pr1       
:e__0001: OVERALL ENERGY PARAMETER IS    0.4108
          OVERALL BASIS SET ON ATOM IS LAPW
:E0_0001: E( 0)=    0.4108
             APW+lo
:E0_0001: E( 0)=   -2.0511   E(BOTTOM)=   -2.688   E(TOP)=   -1.415  4  5   174
             LOCAL ORBITAL
:E1_0001: E( 1)=    0.8108
             APW+lo
:E1_0001: E( 1)=   -0.5817   E(BOTTOM)=   -1.541   E(TOP)=    0.377  3  4   198
             LOCAL ORBITAL
:E3_0001: E( 3)=    0.6064   E(BOTTOM)=    0.397   E(TOP)=    0.815  0  1   121
             APW+lo
:E2_0001: E( 2)=    0.4108   E(BOTTOM)=    0.200   E(TOP)= -200.000  2 -1    93
             APW+lo

       K=   0.06250   0.00000   0.06250            1
:RKM  : MATRIX SIZE   453LOs:  40  RKM= 8.49  WEIGHT= 4.00  PGR:    
       EIGENVALUES ARE:
:EIG00001:      -2.0217849   -2.0084085   -0.7468201   -0.6745039   -0.6579755
:EIG00006:      -0.6512166   -0.6444768   -0.6444420    0.3809534    0.5187253
:EIG00011:       0.6154843    0.6170684    0.6171866    0.6194486    0.6231556
:EIG00016:       0.6343375    0.6376085    0.6381783    0.6409248    0.6429953
:EIG00021:       0.6471385    0.6505316    0.6510439    0.6564264    0.6850377
:EIG00026:       0.6983089    0.7738299    0.7887691    0.8119854    0.8456890
:EIG00031:       0.8623216    0.9462263    0.9909949    1.0344837    1.3237036
:EIG00036:       1.3336236    1.4217401    1.4233898    1.5813446    1.6346347
:EIG00041:       1.6969375    1.7986944    1.8736713    1.8908176    1.9879767
:EIG00046:       2.0419035    2.0543887    2.1167137    2.1715068    2.2647142
 
:EIG00051:       2.3132092    2.3677152    2.3843650    2.4565466    2.4851201
:EIG00056:       2.5615903    2.5963978    2.6232493    2.7133130    2.7690852
:EIG00061:       2.8417122    2.8421202    2.9844907    3.0571487    3.0701232
:EIG00066:       3.1683623    3.2278230    3.2477005    3.2602682    3.3255890
:EIG00071:       3.3319626    3.3813131    3.4099080    3.4669840    3.4834649
:EIG00076:       3.5236042    3.5546758    3.5951108    3.6209406    3.6487445
:EIG00081:       3.6762096    3.7162094    3.7306119    3.8026969    3.8232622
:EIG00086:       3.8521509    3.9431539    3.9480378    3.9821676    3.9959181
:EIG00091:       4.0288213    4.0613351    4.0936978    4.1084672    4.1201428
:EIG00096:       4.1670282    4.2040011    4.2134417    4.2244002    4.3045647
 
:EIG00101:       4.3780018    4.5007995    4.5128534    4.5763495    4.6095328
:EIG00106:       4.6123646    4.6637054    4.6764580    4.7163906    4.7479009
:EIG00111:       4.8311110    4.8614207    4.8714813    4.9154919    4.9735805
:EIG00116:       5.0094748    5.0816425    5.0837452    5.1249357    5.1574533
:EIG00121:       5.1687735    5.2500623    5.2961352    5.3144705    5.3636304
:EIG00126:       5.4504756    5.4765476    5.5047304    5.5441301    5.5831372
:EIG00131:       5.5875826    5.6569447    5.6806147    5.6855021    5.7109287
:EIG00136:       5.7864275    5.8187005    5.8712807    5.8812385    5.9125154
:EIG00141:       5.9301190    5.9466897    5.9916470    6.0242888    6.0854548
:EIG00146:       6.0870856    6.0910494    6.1060189    6.1270612    6.2090388
 
:EIG00151:       6.2552063    6.2608357    6.3490344    6.3516795    6.4252351
:EIG00156:       6.5133621    6.6049333    6.6231741    6.6533270    6.6943015
:EIG00161:       6.7671289    6.7759834    6.8314423    6.8546897    6.8618847
:EIG00166:       6.9313823    6.9352925    6.9466036    6.9913394    7.0459909
:EIG00171:       7.0607336    7.1169314    7.1514423    7.1579208    7.2200935
:EIG00176:       7.2375798    7.2549871    7.2937842    7.3232477    7.3586461
:EIG00181:       7.4076824    7.4182471    7.4328386    7.4554472    7.5011750
:EIG00186:       7.5108038    7.5531975    7.6410715    7.6564709    7.6639466
:EIG00191:       7.6904831    7.7159745    7.7727450    7.7775113    7.7938301
:EIG00196:       7.8083474    7.8231292    7.8720555    7.8726195    7.9169682
 
:EIG00201:       7.9248866    7.9717281    7.9876512    8.0167574    8.0772615
:EIG00206:       8.0902959    8.1014451
       ********************************************************

:KPT   :      NUMBER OF K-POINTS:   288
   0.0   0.0 angle (M,z), angle (M,x) deg
 
        SPIN-ORBIT EIGENVALUES:
     K=   0.06250   0.00000   0.06250            1
      MATRIX SIZE=  414   WEIGHT= 4.00
     EIGENVALUES ARE:
          -2.0217850   -2.0217850   -2.0084086   -2.0084086   -0.8369972
          -0.8369972   -0.7989085   -0.7989085   -0.6504429   -0.6504429
          -0.5892478   -0.5892478   -0.5864279   -0.5864279   -0.5780444
          -0.5780444    0.3809895    0.3809895    0.5186043    0.5186043
           0.6093396    0.6093396    0.6114966    0.6114966    0.6122520
           0.6122520    0.6139533    0.6139533    0.6173435    0.6173435
           0.6217390    0.6217390    0.6363585    0.6363585    0.6436909
           0.6436909    0.6475101    0.6475101    0.6483551    0.6483551

           0.6524733    0.6524733    0.6556928    0.6556928    0.6567250
           0.6567250    0.6616751    0.6616751    0.6861047    0.6861047
           0.6984005    0.6984005    0.7728757    0.7728758    0.7890424
           0.7890424    0.8124806    0.8124806    0.8461798    0.8461798
           0.8623672    0.8623672    0.9460596    0.9460597    0.9912796
           0.9912796    1.0346065    1.0346065    1.3234659    1.3234659
           1.3340754    1.3340754    1.4215639    1.4215639    1.4235857
           1.4235857    1.5809402    1.5809402    1.6340738    1.6340738

           1.6968735    1.6968735    1.7971120    1.7971120    1.8721622
           1.8721622    1.8919687    1.8919687    1.9884305    1.9884305
           2.0415903    2.0415903    2.0525595    2.0525595    2.1172286
           2.1172286    2.1722369    2.1722369    2.2643255    2.2643255
           2.3127621    2.3127621    2.3649785    2.3649785    2.3862604
           2.3862604    2.4569701    2.4569701    2.4864990    2.4864990
           2.5616053    2.5616053    2.5958363    2.5958363    2.6241523
           2.6241523    2.7135174    2.7135174    2.7688446    2.7688446

           2.8405444    2.8405444    2.8471623    2.8471623    2.9843864
           2.9843864    3.0571568    3.0571568    3.0703401    3.0703401
           3.1683031    3.1683031    3.2277371    3.2277371    3.2480229
           3.2480229    3.2599904    3.2599904    3.3256570    3.3256570
           3.3322008    3.3322008    3.3813171    3.3813171    3.4099679
           3.4099679    3.4662450    3.4662450    3.4843733    3.4843733
           3.5238165    3.5238165    3.5561767    3.5561767    3.5951910
           3.5951910    3.6210717    3.6210717    3.6491142    3.6491142

           3.6763620    3.6763620    3.7162297    3.7162297    3.7308803
           3.7308803    3.8028116    3.8028116    3.8233542    3.8233542
           3.8522585    3.8522585    3.9431327    3.9431327    3.9481775
           3.9481775    3.9821776    3.9821776    3.9959807    3.9959807
           4.0288463    4.0288463    4.0613866    4.0613866    4.0936892
           4.0936892    4.1083207    4.1083207    4.1201036    4.1201036
           4.1670660    4.1670660    4.2036668    4.2036668    4.2138252
           4.2138252    4.2245512    4.2245512    4.3046265    4.3046265

           4.3778646    4.3778646    4.4995000    4.4995000
       ********************************************************
:GAP (global)   :    0.0    Ry =     0.0   eV (metal)
:GAP (this spin):    0.0    Ry =     0.0   eV (metal)
         Bandranges (emin - emax) and occupancy:
:BAN00018:  18    0.376019    0.586527  1.00000000
:BAN00019:  19    0.484504    0.595552  1.00000000
:BAN00020:  20    0.484504    0.595552  1.00000000
:BAN00021:  21    0.552791    0.610304  1.00000000
:BAN00022:  22    0.552791    0.610304  1.00000000
:BAN00023:  23    0.592811    0.614265  1.00000000
:BAN00024:  24    0.592811    0.614265  1.00000000
:BAN00025:  25    0.603078    0.621371  0.79957524
:BAN00026:  26    0.603078    0.621371  0.79957503
:BAN00027:  27    0.612421    0.622168  0.20042499
:BAN00028:  28    0.612421    0.622168  0.20042472
:BAN00029:  29    0.616560    0.624785  0.00000000
:BAN00030:  30    0.616560    0.624785  0.00000000
:BAN00031:  31    0.619751    0.629227  0.00000000
:BAN00032:  32    0.619751    0.629227  0.00000000
:BAN00033:  33    0.623862    0.636705  0.00000000
        Energy to separate low and high energystates:    0.32602


:NOE  : NUMBER OF ELECTRONS          =   26.000

:FER  : F E R M I - ENERGY(TETRAH.M.)=   0.6155343666
:GMA  : POTENTIAL AND CHARGE CUT-OFF  12.00 Ry**.5

:POS001: ATOM   -1 X,Y,Z = 0.00000 0.89750 0.25000  MULT= 2  ZZ= 59.000  Pr1       

       LMMAX 16
       LM=   0 0  1 0  2 0  2 2  3 0  3 2  4 0  4 2  4 4  5 0  5 2  5 4  6 0  6 2  6 4  6 6

:CHA001: TOTAL VALENCE CHARGE INSIDE SPHERE   1 =   9.5147    (RMT=  2.3000 )
:PCS001: PARTIAL CHARGES SPHERE =  1 S,P,D,F,PX,PY,PZ,D-Z2,D-X2Y2,D-XY,D-XZ,D-YZ 
:QTL001: 1.9404 5.0127 0.5056 2.0557 1.6680 1.6680 1.6768 0.0935 0.0918 0.1114 0.0976 0.1112
        Q-s-low E-s-low   Q-p-low E-p-low   Q-d-low E-d-low   Q-f-low E-f-low
:EPL001:  1.8691 -2.0085    4.9469 -0.6928    0.0016 -0.6859    0.0004 -0.6962
        Q-s-hi  E-s-hi    Q-p-hi  E-p-hi    Q-d-hi  E-d-hi    Q-f-hi  E-f-hi 
:EPH001:  0.0713  0.5153    0.0658  0.5540    0.5040  0.5669    2.0553  0.6033

                      VXX         VYY         VZZ       UP TO R
:VZZ001:             4.37729     3.31731    -7.69460       2.300

:CHA  : TOTAL VALENCE CHARGE INSIDE UNIT CELL =      26.000000

:SUM  : SUM OF EIGENVALUES =         -10.579713298


        1.ATOM      Pr1                  14 CORE STATES
       CORE-FORCE in mRy/a.u. = |F|      Fx             Fy             Fz
:FCO001:   1.ATOM   1307.617733462806      0.000000000000      0.000000000000   1307.617733462806

:1S 001: 1S               -3066.976848314 Ry
:2S 001: 2S                -492.728867732 Ry
:2PP001: 2P*               -465.828211237 Ry
:2P 001: 2P                -430.430643912 Ry
:3S 001: 3S                -105.817206516 Ry
:3PP001: 3P*                -94.355135207 Ry
:3P 001: 3P                 -87.347232378 Ry
:3DD001: 3D*                -67.274475772 Ry
:3D 001: 3D                 -65.762884475 Ry
:4S 001: 4S                 -20.495532088 Ry
:4PP001: 4P*                -16.202500407 Ry
:4P 001: 4P                 -14.675339477 Ry
:4DD001: 4D*                 -7.608771114 Ry
:4D 001: 4D                  -7.339453097 Ry
:CINT001 Core Integral Atom   1   45.998484

       DENSITY AT NUCLEUS
        JATOM        VALENCE       SEMI-CORE          CORE           TOTAL
:RTO001:   1      647.482830        0.000000   656824.515276   657471.998106
     
       CHARGES OF NEW CHARGE DENSITY
:NTO   : INTERSTITIAL CHARGE =     6.970518
:NPC   : PW Pseudocharge     =    16.898728
:NTO001: CHARGE SPHERE  1    =    55.513225

:NEC01: NUCLEAR AND ELECTRONIC CHARGE    118.00000   117.99697
     
       CHARGES OF OLD CHARGE DENSITY
:OTO   : INTERSTITIAL CHARGE =     6.960533
:OPC   : PW Pseudocharge     =    16.880902
:OTO001: CHARGE SPHERE  1    =    55.519734

:NEC02: NUCLEAR AND ELECTRONIC CHARGE    118.00000   118.00000
     
       CONVERGENCE TEST
:DTO001: DIFFERENCE IN SPHERE  1 =  0.0114706

:DIS  :  CHARGE DISTANCE       ( 0.0114706 for atom    1 spin 1)      0.0114706
 PW Mixed is          506
 
******************************************************
* MULTISECANT MIXING VER9 RELEASE 10.4.0              *
* Slow Mode, cautious                                *
* Fixed density scale                                *
* Regularization       1.000E-04                     *
* Step Trust Radius    0.75000                       *
* Trust Upper Limit    2.000E+00                     *
* Max Number of Memory Steps   12                    *
******************************************************
 
:PWTMP   3.8395E+02  1.9467E+02  4.8588E+02
:PLANE:  PW TOTAL      4.6043 DISTAN   9.25E-03  2.01E-01 %
:CHARG:  CLM/ATOM   1381.9478 DISTAN   1.13E-01  8.19E-03 %
 
Step History
        DMIX         DMIXT        Red     Pred      Trust     Lambda    MagRel    MagAbs     Beta
  1   3.5000E-02   3.5000E-02 -1.00E+00  1.00E+00 -1.00E+01  1.00E+00  3.50E-02  3.50E-02  1.00E+00
  2   2.5000E-02   2.5000E-02  6.47E-01  1.00E+00 -1.00E+01  1.00E+00  2.50E-02  7.90E-03  1.00E+00
  3   2.9254E-02   2.9254E-02 -1.00E+00  1.00E+00 -1.00E+01  1.00E+00  2.93E-02  5.98E-03  1.00E+00
:JACOBIANS    2.364E-03   4.410E-02
  
:NORMS:  1/Froebius, Min, Max, Used   0.7322E-01  0.3060E-01  0.7322E-01  0.7322E-01
:INFO :  Number of Memory Steps    2 Skipping    0
:INFO :  SLambda=    1.0043343703  Max    1.0043343703
:PREDicted Charge, CTotal, PW Trust    4.200E-03   8.400E-03   1.195E-02
:PREDicted DMix, Beta, BLim   3.7622E-02  7.2022E-01  2.6555E-01

Eigenvalues, unscaled except for SY+YY
   #     SY Real        SY Imag          SS             YY         SY+YY Real      SY+YY Imag
   1   7.077672E-16   0.000000E+00   1.072278E-02   1.999948E+00   5.241864E-05   0.000000E+00
   2   1.242838E-01   0.000000E+00  -8.673617E-19   5.246546E-05   2.124770E+00   0.000000E+00
 
:INFO :  Singular value  2.125E+00 Weight  1.000E+00 Projection -3.376E-03
:INFO :  Singular value  5.242E-05 Weight  6.428E-02 Projection  7.981E-02
:RANK :  ACTIVE   1.06/2  =  53.21 % ; YY RANK   1.06/2  =  53.22 %
 
:DLIM :  Beta Active  8.000E-01
:BLIM :  VZERO Control Off
:TRUST:  Step 3.33E-01  Charge 7.50E-02 (e) CTO  2.50E-01 (e) PW  3.50E-01 (e)
:DIRM :  MEMORY  2/12 SCALE   1.000 RED  0.56 PRED  1.00 NEXT  1.00 BETA  0.80
:TRAVE:  Charge 2.03E-04 (e) CTO  4.07E-04 (e) PW  3.52E-04 (e)
:DIRP :  |MSR1|= 2.325E-04 |PRATT|= 9.253E-03 ANGLE=  17.7 DEGREES
:DIRQ :  |MSR1|= 3.885E-03 |PRATT|= 1.131E-01 ANGLE=   0.8 DEGREES
:DIRT :  |MSR1|= 3.892E-03 |PRATT|= 1.135E-01 ANGLE=   1.9 DEGREES
:MIX  :   MSE1   REGULARIZATION:  2.00E-04 GREED: 0.03362  Newton 1.00  0.0343                
     
       CHARGES OF MIXED CHARGE DENSITY
:CTO   : INTERSTITIAL CHARGE =     6.960940
:CPC   : PW Pseudocharge     =    16.881374
:CTO001: CHARGE SPHERE  1    =    55.519530

:NEC03: NUCLEAR AND ELECTRONIC CHARGE    118.00000   118.00000

PW CHANGE     H    K    L      Current       Change    Residue
:PTO001:      0    0    0  4.90703742E-02  1.808E-06  7.861E-05
:PTO003:      0    2    0  1.37605412E-02  4.918E-07  2.231E-05
:PTO004:     -1    1    0  6.78330013E-02 -1.500E-07  3.514E-05
:PTO005:      0    2   -1 -7.89741901E-02 -3.718E-06 -1.536E-04
:PTO006:      0    0   -2 -4.08713856E-02 -9.936E-07 -5.257E-05
:PTO007:     -1    1   -1 -8.58613727E-02 -1.193E-06 -8.328E-05
:PTO008:      0    2   -2 -1.41479269E-02  3.644E-07  3.836E-06
:PTO009:     -1    1   -2 -7.32760621E-02 -6.484E-07 -4.888E-05
:PTO011:     -1    3    0 -1.20873268E-02  1.165E-06  3.085E-05
:PTO012:     -1    3   -1 -5.44956585E-02 -9.289E-08 -1.003E-05
:PTO013:      0    4    0 -1.00546277E-02  1.494E-07  4.487E-06
:PTO014:      0    2   -3  2.30495281E-02 -2.926E-07 -9.234E-06

:ENE  : ********** TOTAL ENERGY IN Ry =       -36944.21870458

       TOTAL FORCE IN mRy/a.u. = |F|     Fx             Fy             Fz     with/without FOR in case.in2
:FOR001:   1.ATOM         28.072          0.000          0.000        -28.072 partial forces
       TOTAL FORCE WITH RESPECT TO GLOBAL CARTESIAN COORDINATES:
:FCA001:   1.ATOM                         0.000        -28.072          0.000 partial forces
       TOTAL FORCE WITH RESPECT TO THE GLOBAL COORDINATE SYSTEM:
:FGL001:   1.ATOM                 0.000000000   -28.072315444     0.000000000 partial forces
 Flat Integration
 New Mode for Coulomb Integral
 Consistent 3/8+Simpson combinations
 Extension of core to zero
 LDM version in phi
 Fifth-order quadrature in outwin


            ---------
:ITE019: 19. ITERATION
            ---------

:NATO :    1 INDEPENDENT AND    2 TOTAL ATOMS IN UNITCELL
       SUBSTANCE: aU                                                          

       LATTICE                      = CXY 
:POT  : POTENTIAL OPTION EX_LDA EC_LDA VX_LDA VC_LDA
:LAT  : LATTICE CONSTANTS=  6.48990 13.16965 11.36963    1.571    1.571    1.571
:VOL  : UNIT CELL VOLUME =     485.88001
       MODE OF CALCULATION IS       = RELA
       NON-SPINPOLARIZED CALCULATION
:IFFT  : FFT-parameters:   54  108   90 Factor: 2.00


   CONVERGENCE PARAMETER FOR PSEUDOCHARGE: NCON=  9
   MAXIMAL VALUE OF RMT(JATOM)*ABSK(NKK) : RK  =27.59923


:VKCOUL :  VK-COUL convergence: 0.152E-06
       ATOMNUMBER=  1 Pr1        VCOUL-ZERO =  0.52573E-01
:EFG001:                        EFG         =    -7.66388   *10**21  V / m**2
                               V20  TOT/SRF=    -6.63712    -0.02472
                               V22  TOT/SRF=     0.00402     0.00071
                               V22M TOT/SRF=     0.00000     0.00000
                               V21  TOT/SRF=     0.00000     0.00000
                               V21M TOT/SRF=     0.00000     0.00000

              3.83596    0.00000    0.00000        3.83596    0.00000    0.00000
              0.00000    3.82792    0.00000        0.00000    3.82792    0.00000
              0.00000    0.00000   -7.66388        0.00000    0.00000   -7.66388

         MAIN DIRECTIONS OF THE EFG   1.0000  0.0000  0.0000
                                      0.0000  1.0000  0.0000
                                      0.0000  0.0000  1.0000
:ANG001:  ANGLE WITH OLD X-AXIS =         0.0

:ETA001:                         ASYMM. ETA =     0.00105


     HELLMANN-FEYNMAN-FORCE IN mRy/a.u. = |F|  Fx       Fy             Fz
:FHF001:   1.ATOM   1335.020875719717      0.000000000000      0.000000000000  -1335.020875719717

:FIT001: LUSE= 13 SIGMA OF V-XC FIT FOR ATOM  1  0.5614330E-04
:FIT001: LUSE= 13 SIGMA OF V-XC FIT FOR ATOM  1  0.5614330E-04
:DEN  : DENSITY INTEGRAL  =        -14148.07794843   (Ry)
       ELS_POTENTIAL_AT Z=0 and Z=0.5:   0.70928   0.70928
       ELS_POTENTIAL_AT Y=0 and Y=0.5:   0.07381   0.07381
:VZERO:v0,v0c,v0x   0.13803   0.70928  -0.57125 v5,v5c,v5x   0.13803   0.70928  -0.57125
:VZERY:v0,v0c,v0x  -0.69152   0.07381  -0.76534 v5,v5c,v5x  -0.69152   0.07381  -0.76534
:VZERX:v0,v0c,v0x  -1.10792  -0.37409  -0.73384 v5,v5c,v5x  -1.10792  -0.37409  -0.73384
:LMAX-WF:   10   Non-Spherical LMAX:   4

          ATOMIC SPHERE DEPENDENT PARAMETERS FOR ATOM  Pr1       
:e__0001: OVERALL ENERGY PARAMETER IS    0.4140
          OVERALL BASIS SET ON ATOM IS LAPW
:E0_0001: E( 0)=    0.4140
             APW+lo
:E0_0001: E( 0)=   -2.0512   E(BOTTOM)=   -2.688   E(TOP)=   -1.415  4  5   172
             LOCAL ORBITAL
:E1_0001: E( 1)=    0.8140
             APW+lo
:E1_0001: E( 1)=   -0.5818   E(BOTTOM)=   -1.541   E(TOP)=    0.377  3  4   197
             LOCAL ORBITAL
:E3_0001: E( 3)=    0.6063   E(BOTTOM)=    0.397   E(TOP)=    0.815  0  1   118
             APW+lo
:E2_0001: E( 2)=    0.4140   E(BOTTOM)=    0.200   E(TOP)= -200.000  2 -1    92
             APW+lo

       K=   0.06250   0.00000   0.06250            1
:RKM  : MATRIX SIZE   453LOs:  40  RKM= 8.49  WEIGHT= 4.00  PGR:    
       EIGENVALUES ARE:
:EIG00001:      -2.0218502   -2.0084743   -0.7468956   -0.6745513   -0.6580234
:EIG00006:      -0.6512401   -0.6445612   -0.6444652    0.3809642    0.5187205
:EIG00011:       0.6154254    0.6169279    0.6171022    0.6193750    0.6230329
:EIG00016:       0.6342383    0.6374971    0.6380658    0.6408079    0.6428695
:EIG00021:       0.6470331    0.6504709    0.6509711    0.6562733    0.6850078
:EIG00026:       0.6983085    0.7738004    0.7887498    0.8119604    0.8456823
:EIG00031:       0.8623139    0.9462081    0.9909691    1.0344430    1.3236799
:EIG00036:       1.3336350    1.4217353    1.4233990    1.5813581    1.6346420
:EIG00041:       1.6969300    1.7986925    1.8736691    1.8908110    1.9879446
:EIG00046:       2.0418947    2.0543905    2.1167085    2.1714991    2.2646900
 
:EIG00051:       2.3131933    2.3676951    2.3843505    2.4565176    2.4850951
:EIG00056:       2.5615860    2.5963861    2.6231945    2.7133012    2.7690682
:EIG00061:       2.8416825    2.8420815    2.9844545    3.0571331    3.0700918
:EIG00066:       3.1683328    3.2277915    3.2476919    3.2602474    3.3255880
:EIG00071:       3.3319531    3.3813015    3.4098952    3.4669755    3.4834653
:EIG00076:       3.5235646    3.5546807    3.5950760    3.6209431    3.6487265
:EIG00081:       3.6762037    3.7162045    3.7306119    3.8026792    3.8232533
:EIG00086:       3.8521459    3.9431602    3.9480378    3.9821664    3.9958716
:EIG00091:       4.0288146    4.0613092    4.0936966    4.1084166    4.1200994
:EIG00096:       4.1670234    4.2039935    4.2134156    4.2243836    4.3045562
 
:EIG00101:       4.3779617    4.5007649    4.5128122    4.5763162    4.6095151
:EIG00106:       4.6123424    4.6636826    4.6764469    4.7163544    4.7478861
:EIG00111:       4.8311026    4.8613462    4.8714851    4.9154359    4.9735715
:EIG00116:       5.0093960    5.0816254    5.0836689    5.1248486    5.1573254
:EIG00121:       5.1686867    5.2500247    5.2960094    5.3144422    5.3635725
:EIG00126:       5.4504180    5.4764566    5.5046832    5.5440781    5.5831192
:EIG00131:       5.5874921    5.6569241    5.6805546    5.6854625    5.7108479
:EIG00136:       5.7863714    5.8186626    5.8712586    5.8811925    5.9124365
:EIG00141:       5.9300558    5.9465331    5.9916092    6.0242665    6.0853692
:EIG00146:       6.0870439    6.0910086    6.1058376    6.1269805    6.2090126
 
:EIG00151:       6.2551838    6.2607103    6.3490045    6.3516055    6.4251443
:EIG00156:       6.5133300    6.6048920    6.6231209    6.6532692    6.6942029
:EIG00161:       6.7670582    6.7759346    6.8313890    6.8545995    6.8617802
:EIG00166:       6.9312870    6.9352348    6.9465283    6.9912698    7.0458451
:EIG00171:       7.0605949    7.1168142    7.1512902    7.1578023    7.2199566
:EIG00176:       7.2374405    7.2548409    7.2936965    7.3230773    7.3585410
:EIG00181:       7.4075678    7.4181795    7.4327738    7.4552956    7.5011160
:EIG00186:       7.5107494    7.5530328    7.6409683    7.6563471    7.6638310
:EIG00191:       7.6903988    7.7158804    7.7726913    7.7774154    7.7937834
:EIG00196:       7.8082343    7.8230746    7.8719553    7.8725485    7.9168589
 
:EIG00201:       7.9247151    7.9716538    7.9876152    8.0166205    8.0771889
:EIG00206:       8.0901363    8.1013390
       ********************************************************

:KPT   :      NUMBER OF K-POINTS:   288
   0.0   0.0 angle (M,z), angle (M,x) deg
 
        SPIN-ORBIT EIGENVALUES:
     K=   0.06250   0.00000   0.06250            1
      MATRIX SIZE=  414   WEIGHT= 4.00
     EIGENVALUES ARE:
          -2.0218503   -2.0218503   -2.0084744   -2.0084744   -0.8370590
          -0.8370590   -0.7989637   -0.7989637   -0.6504972   -0.6504972
          -0.5892808   -0.5892808   -0.5864659   -0.5864659   -0.5781057
          -0.5781057    0.3810004    0.3810004    0.5185992    0.5185992
           0.6092589    0.6092589    0.6113771    0.6113771    0.6121739
           0.6121739    0.6138517    0.6138517    0.6172281    0.6172281
           0.6216277    0.6216277    0.6362531    0.6362532    0.6435962
           0.6435962    0.6474078    0.6474078    0.6482360    0.6482360

           0.6523756    0.6523756    0.6556178    0.6556178    0.6566385
           0.6566385    0.6615315    0.6615315    0.6860707    0.6860707
           0.6983982    0.6983982    0.7728441    0.7728442    0.7890237
           0.7890237    0.8124555    0.8124555    0.8461731    0.8461731
           0.8623594    0.8623594    0.9460412    0.9460413    0.9912539
           0.9912539    1.0345659    1.0345660    1.3234430    1.3234430
           1.3340860    1.3340860    1.4215607    1.4215607    1.4235933
           1.4235933    1.5809535    1.5809535    1.6340811    1.6340811

           1.6968660    1.6968660    1.7971098    1.7971098    1.8721593
           1.8721593    1.8919625    1.8919625    1.9883988    1.9883988
           2.0415817    2.0415817    2.0525602    2.0525602    2.1172236
           2.1172236    2.1722284    2.1722284    2.2643012    2.2643012
           2.3127468    2.3127468    2.3649593    2.3649593    2.3862447
           2.3862447    2.4569414    2.4569414    2.4864743    2.4864743
           2.5616004    2.5616004    2.5958236    2.5958236    2.6240985
           2.6240985    2.7135058    2.7135058    2.7688267    2.7688267

           2.8405128    2.8405128    2.8471263    2.8471263    2.9843500
           2.9843500    3.0571411    3.0571411    3.0703090    3.0703090
           3.1682735    3.1682735    3.2277058    3.2277058    3.2480139
           3.2480139    3.2599697    3.2599697    3.3256559    3.3256559
           3.3321914    3.3321914    3.3813056    3.3813056    3.4099552
           3.4099552    3.4662368    3.4662368    3.4843730    3.4843730
           3.5237771    3.5237771    3.5561816    3.5561816    3.5951562
           3.5951562    3.6210740    3.6210740    3.6490966    3.6490966

           3.6763561    3.6763561    3.7162248    3.7162248    3.7308804
           3.7308804    3.8027940    3.8027940    3.8233453    3.8233453
           3.8522535    3.8522535    3.9431390    3.9431390    3.9481774
           3.9481774    3.9821764    3.9821764    3.9959342    3.9959342
           4.0288395    4.0288395    4.0613606    4.0613606    4.0936879
           4.0936879    4.1082705    4.1082705    4.1200600    4.1200600
           4.1670613    4.1670613    4.2036584    4.2036584    4.2138001
           4.2138001    4.2245343    4.2245343    4.3046180    4.3046180

           4.3778243    4.3778243    4.4994648    4.4994648
       ********************************************************
:GAP (global)   :    0.0    Ry =     0.0   eV (metal)
:GAP (this spin):    0.0    Ry =     0.0   eV (metal)
         Bandranges (emin - emax) and occupancy:
:BAN00018:  18    0.376030    0.586487  1.00000000
:BAN00019:  19    0.484509    0.595508  1.00000000
:BAN00020:  20    0.484509    0.595508  1.00000000
:BAN00021:  21    0.552787    0.610229  1.00000000
:BAN00022:  22    0.552787    0.610229  1.00000000
:BAN00023:  23    0.592761    0.614176  1.00000000
:BAN00024:  24    0.592761    0.614176  1.00000000
:BAN00025:  25    0.603027    0.621249  0.79930810
:BAN00026:  26    0.603027    0.621249  0.79930788
:BAN00027:  27    0.612318    0.622063  0.20069213
:BAN00028:  28    0.612318    0.622063  0.20069189
:BAN00029:  29    0.616445    0.624702  0.00000000
:BAN00030:  30    0.616445    0.624702  0.00000000
:BAN00031:  31    0.619639    0.629131  0.00000000
:BAN00032:  32    0.619639    0.629131  0.00000000
:BAN00033:  33    0.623766    0.636598  0.00000000
        Energy to separate low and high energystates:    0.32603


:NOE  : NUMBER OF ELECTRONS          =   26.000

:FER  : F E R M I - ENERGY(TETRAH.M.)=   0.6154281439
:GMA  : POTENTIAL AND CHARGE CUT-OFF  12.00 Ry**.5

:POS001: ATOM   -1 X,Y,Z = 0.00000 0.89750 0.25000  MULT= 2  ZZ= 59.000  Pr1       

       LMMAX 16
       LM=   0 0  1 0  2 0  2 2  3 0  3 2  4 0  4 2  4 4  5 0  5 2  5 4  6 0  6 2  6 4  6 6

:CHA001: TOTAL VALENCE CHARGE INSIDE SPHERE   1 =   9.5163    (RMT=  2.3000 )
:PCS001: PARTIAL CHARGES SPHERE =  1 S,P,D,F,PX,PY,PZ,D-Z2,D-X2Y2,D-XY,D-XZ,D-YZ 
:QTL001: 1.9404 5.0127 0.5051 2.0578 1.6680 1.6680 1.6768 0.0934 0.0917 0.1113 0.0976 0.1111
        Q-s-low E-s-low   Q-p-low E-p-low   Q-d-low E-d-low   Q-f-low E-f-low
:EPL001:  1.8691 -2.0086    4.9470 -0.6928    0.0016 -0.6859    0.0004 -0.6963
        Q-s-hi  E-s-hi    Q-p-hi  E-p-hi    Q-d-hi  E-d-hi    Q-f-hi  E-f-hi 
:EPH001:  0.0713  0.5153    0.0657  0.5540    0.5036  0.5668    2.0574  0.6032

                      VXX         VYY         VZZ       UP TO R
:VZZ001:             4.19499     3.46444    -7.65943       2.300

:CHA  : TOTAL VALENCE CHARGE INSIDE UNIT CELL =      26.000000

:SUM  : SUM OF EIGENVALUES =         -10.581018876


        1.ATOM      Pr1                  14 CORE STATES
       CORE-FORCE in mRy/a.u. = |F|      Fx             Fy             Fz
:FCO001:   1.ATOM   1306.815862894515      0.000000000000      0.000000000000   1306.815862894515

:1S 001: 1S               -3066.977254686 Ry
:2S 001: 2S                -492.729227202 Ry
:2PP001: 2P*               -465.828581103 Ry
:2P 001: 2P                -430.431009880 Ry
:3S 001: 3S                -105.817472835 Ry
:3PP001: 3P*                -94.355406699 Ry
:3P 001: 3P                 -87.347498499 Ry
:3DD001: 3D*                -67.274755830 Ry
:3D 001: 3D                 -65.763162679 Ry
:4S 001: 4S                 -20.495694612 Ry
:4PP001: 4P*                -16.202660342 Ry
:4P 001: 4P                 -14.675494005 Ry
:4DD001: 4D*                 -7.608918619 Ry
:4D 001: 4D                  -7.339598922 Ry
:CINT001 Core Integral Atom   1   45.998484

       DENSITY AT NUCLEUS
        JATOM        VALENCE       SEMI-CORE          CORE           TOTAL
:RTO001:   1      647.482891        0.000000   656824.544326   657472.027217
     
       CHARGES OF NEW CHARGE DENSITY
:NTO   : INTERSTITIAL CHARGE =     6.967398
:NPC   : PW Pseudocharge     =    16.898012
:NTO001: CHARGE SPHERE  1    =    55.514784

:NEC01: NUCLEAR AND ELECTRONIC CHARGE    118.00000   117.99697
     
       CHARGES OF OLD CHARGE DENSITY
:OTO   : INTERSTITIAL CHARGE =     6.960940
:OPC   : PW Pseudocharge     =    16.881374
:OTO001: CHARGE SPHERE  1    =    55.519530

:NEC02: NUCLEAR AND ELECTRONIC CHARGE    118.00000   118.00000
     
       CONVERGENCE TEST
:DTO001: DIFFERENCE IN SPHERE  1 =  0.0103560

:DIS  :  CHARGE DISTANCE       ( 0.0103560 for atom    1 spin 1)      0.0103560
 PW Mixed is          506
 
******************************************************
* MULTISECANT MIXING VER9 RELEASE 10.4.0              *
* Slow Mode, cautious                                *
* Fixed density scale                                *
* Regularization       1.000E-04                     *
* Step Trust Radius    0.75000                       *
* Trust Upper Limit    2.000E+00                     *
* Max Number of Memory Steps   12                    *
******************************************************
 
:PWTMP   3.8395E+02  1.9467E+02  4.8588E+02
:PLANE:  PW TOTAL      4.6044 DISTAN   8.88E-03  1.93E-01 %
:CHARG:  CLM/ATOM   1381.9476 DISTAN   1.08E-01  7.80E-03 %
 
Step History
        DMIX         DMIXT        Red     Pred      Trust     Lambda    MagRel    MagAbs     Beta
  1   3.5000E-02   3.5000E-02 -1.00E+00  1.00E+00 -1.00E+01  1.00E+00  3.50E-02  3.50E-02  1.00E+00
  2   2.5000E-02   2.5000E-02  6.47E-01  1.00E+00 -1.00E+01  1.00E+00  2.50E-02  7.90E-03  1.00E+00
  3   2.9254E-02   2.9254E-02  5.55E-01  1.00E+00 -1.00E+01  1.00E+00  2.93E-02  5.98E-03  1.00E+00
  4   3.3624E-02   3.3624E-02 -1.00E+00  9.99E-01  3.33E-01  1.00E+00  3.43E-02  3.89E-03  8.00E-01
:JACOBIANS    3.081E-03   1.954E-01
  
:NORMS:  1/Froebius, Min, Max, Used   0.2488E+00  0.1161E+00  0.2881E+00  0.2865E+00
:INFO :  Number of Memory Steps    3 Skipping    0
:INFO :  SLambda=    1.3214590282  Max    1.3214590282
:PREDicted Charge, CTotal, PW Trust    1.457E-03   2.915E-03   1.465E-03
:PREDicted DMix, Beta, BLim   2.8548E-01  6.0840E+00  3.3583E-01

Eigenvalues, unscaled except for SY+YY
   #     SY Real        SY Imag          SS             YY         SY+YY Real      SY+YY Imag
   1  -2.498002E-16   0.000000E+00   1.761585E-01   2.146444E+00   2.317186E+00   0.000000E+00
   2   1.276105E-01   0.000000E+00   9.608945E-03   8.535024E-01   5.378407E-05   0.000000E+00
   3   2.487958E-01   0.000000E+00  -1.831360E-17   5.385594E-05   1.180165E+00   0.000000E+00
 
:INFO :  Singular value  2.318E+00 Weight  1.000E+00 Projection  9.721E-03
:INFO :  Singular value  1.180E+00 Weight  1.000E+00 Projection -9.948E-02
:INFO :  Singular value  5.378E-05 Weight  5.908E-02 Projection -5.371E-02
:RANK :  ACTIVE   2.06/3  =  68.64 % ; YY RANK   2.06/3  =  68.64 %
 
:BLIM :  VZERO Control Off
:TRUST:  Step 3.35E-01  Charge 7.50E-02 (e) CTO  2.50E-01 (e) PW  3.50E-01 (e)
:DTRUS:  Lambda    9.266E-02 Increment    7.276E-12 Iterations    99 DMIX    6.595E-02
:INFOA:  Angle SubSpace to MSR1      0.00
:DIRM :  MEMORY  3/12 SCALE   1.000 RED  0.95 PRED  1.00 NEXT  0.81 
:INFO :  Limited by Atoms F by Step T

:TRAVE:  Charge 6.65E-04 (e) CTO  1.33E-03 (e) PW  9.81E-04 (e)
:DIRP :  |MSR1|= 1.836E-03 |PRATT|= 8.880E-03 ANGLE=  38.1 DEGREES
:DIRQ :  |MSR1|= 3.614E-02 |PRATT|= 1.078E-01 ANGLE=   4.8 DEGREES
:DIRT :  |MSR1|= 3.618E-02 |PRATT|= 1.081E-01 ANGLE=   5.7 DEGREES
:MIX  :   MSE1   REGULARIZATION:  2.15E-04 GREED: 0.08406  LMStep 0.78  0.3346 Step           
     
       CHARGES OF MIXED CHARGE DENSITY
:CTO   : INTERSTITIAL CHARGE =     6.963193
:CPC   : PW Pseudocharge     =    16.883140
:CTO001: CHARGE SPHERE  1    =    55.518404

:NEC03: NUCLEAR AND ELECTRONIC CHARGE    118.00000   118.00000

PW CHANGE     H    K    L      Current       Change    Residue
:PTO001:      0    0    0  4.90786461E-02  8.272E-06  6.892E-05
:PTO003:      0    2    0  1.37650655E-02  4.524E-06  2.402E-05
:PTO004:     -1    1    0  6.78270443E-02 -5.957E-06  4.012E-05
:PTO005:      0    2   -1 -7.89989116E-02 -2.472E-05 -1.489E-04
:PTO006:      0    0   -2 -4.08735471E-02 -2.161E-06 -4.856E-05
:PTO007:     -1    1   -1 -8.58644750E-02 -3.102E-06 -8.519E-05
:PTO008:      0    2   -2 -1.41426196E-02  5.307E-06  3.997E-06
:PTO009:     -1    1   -2 -7.32750089E-02  1.053E-06 -4.759E-05
:PTO011:     -1    3    0 -1.20746062E-02  1.272E-05  3.112E-05
:PTO012:     -1    3   -1 -5.44969922E-02 -1.334E-06 -1.298E-05
:PTO013:      0    4    0 -1.00532479E-02  1.380E-06  4.194E-06
:PTO014:      0    2   -3  2.30448566E-02 -4.672E-06 -1.153E-05

:ENE  : ********** TOTAL ENERGY IN Ry =       -36944.21871110

       TOTAL FORCE IN mRy/a.u. = |F|     Fx             Fy             Fz     with/without FOR in case.in2
:FOR001:   1.ATOM         28.205          0.000          0.000        -28.205 partial forces
       TOTAL FORCE WITH RESPECT TO GLOBAL CARTESIAN COORDINATES:
:FCA001:   1.ATOM                         0.000        -28.205          0.000 partial forces
       TOTAL FORCE WITH RESPECT TO THE GLOBAL COORDINATE SYSTEM:
:FGL001:   1.ATOM                 0.000000000   -28.205012825     0.000000000 partial forces
 Flat Integration
 New Mode for Coulomb Integral
 Consistent 3/8+Simpson combinations
 Extension of core to zero
 LDM version in phi
 Fifth-order quadrature in outwin


            ---------
:ITE020: 20. ITERATION
            ---------

:NATO :    1 INDEPENDENT AND    2 TOTAL ATOMS IN UNITCELL
       SUBSTANCE: aU                                                          

       LATTICE                      = CXY 
:POT  : POTENTIAL OPTION EX_LDA EC_LDA VX_LDA VC_LDA
:LAT  : LATTICE CONSTANTS=  6.48990 13.16965 11.36963    1.571    1.571    1.571
:VOL  : UNIT CELL VOLUME =     485.88001
       MODE OF CALCULATION IS       = RELA
       NON-SPINPOLARIZED CALCULATION
:IFFT  : FFT-parameters:   54  108   90 Factor: 2.00


   CONVERGENCE PARAMETER FOR PSEUDOCHARGE: NCON=  9
   MAXIMAL VALUE OF RMT(JATOM)*ABSK(NKK) : RK  =27.59923


:VKCOUL :  VK-COUL convergence: 0.145E-06
       ATOMNUMBER=  1 Pr1        VCOUL-ZERO =  0.52553E-01
:EFG001:                        EFG         =    -7.65933   *10**21  V / m**2
                               V20  TOT/SRF=    -6.63318    -0.02426
                               V22  TOT/SRF=     0.05864     0.00117
                               V22M TOT/SRF=     0.00000     0.00000
                               V21  TOT/SRF=     0.00000     0.00000
                               V21M TOT/SRF=     0.00000     0.00000

              3.88831    0.00000    0.00000        3.88831    0.00000    0.00000
              0.00000    3.77102    0.00000        0.00000    3.77102    0.00000
              0.00000    0.00000   -7.65933        0.00000    0.00000   -7.65933

         MAIN DIRECTIONS OF THE EFG   1.0000  0.0000  0.0000
                                      0.0000  1.0000  0.0000
                                      0.0000  0.0000  1.0000
:ANG001:  ANGLE WITH OLD X-AXIS =         0.0

:ETA001:                         ASYMM. ETA =     0.01531


     HELLMANN-FEYNMAN-FORCE IN mRy/a.u. = |F|  Fx       Fy             Fz
:FHF001:   1.ATOM   1328.033033893280      0.000000000000      0.000000000000  -1328.033033893280

:FIT001: LUSE= 13 SIGMA OF V-XC FIT FOR ATOM  1  0.5228189E-04
:FIT001: LUSE= 13 SIGMA OF V-XC FIT FOR ATOM  1  0.5228189E-04
:DEN  : DENSITY INTEGRAL  =        -14148.00975615   (Ry)
       ELS_POTENTIAL_AT Z=0 and Z=0.5:   0.70949   0.70949
       ELS_POTENTIAL_AT Y=0 and Y=0.5:   0.07391   0.07391
:VZERO:v0,v0c,v0x   0.13813   0.70949  -0.57136 v5,v5c,v5x   0.13813   0.70949  -0.57136
:VZERY:v0,v0c,v0x  -0.69156   0.07391  -0.76547 v5,v5c,v5x  -0.69156   0.07391  -0.76547
:VZERX:v0,v0c,v0x  -1.10808  -0.37415  -0.73393 v5,v5c,v5x  -1.10808  -0.37415  -0.73393
:LMAX-WF:   10   Non-Spherical LMAX:   4

          ATOMIC SPHERE DEPENDENT PARAMETERS FOR ATOM  Pr1       
:e__0001: OVERALL ENERGY PARAMETER IS    0.4149
          OVERALL BASIS SET ON ATOM IS LAPW
:E0_0001: E( 0)=    0.4149
             APW+lo
:E0_0001: E( 0)=   -2.0513   E(BOTTOM)=   -2.688   E(TOP)=   -1.415  4  5   174
             LOCAL ORBITAL
:E1_0001: E( 1)=    0.8149
             APW+lo
:E1_0001: E( 1)=   -0.5819   E(BOTTOM)=   -1.541   E(TOP)=    0.377  3  4   201
             LOCAL ORBITAL
:E3_0001: E( 3)=    0.6062   E(BOTTOM)=    0.397   E(TOP)=    0.815  0  1   120
             APW+lo
:E2_0001: E( 2)=    0.4149   E(BOTTOM)=    0.200   E(TOP)= -200.000  2 -1    93
             APW+lo

       K=   0.06250   0.00000   0.06250            1
:RKM  : MATRIX SIZE   453LOs:  40  RKM= 8.49  WEIGHT= 4.00  PGR:    
       EIGENVALUES ARE:
:EIG00001:      -2.0219608   -2.0085850   -0.7470727   -0.6746326   -0.6581041
:EIG00006:      -0.6512549   -0.6447561   -0.6444791    0.3810384    0.5187161
:EIG00011:       0.6154350    0.6167279    0.6170569    0.6193804    0.6229138
:EIG00016:       0.6341830    0.6373878    0.6379624    0.6406922    0.6427459
:EIG00021:       0.6469824    0.6505505    0.6509884    0.6560736    0.6850125
:EIG00026:       0.6983942    0.7737714    0.7887206    0.8119210    0.8456817
:EIG00031:       0.8623106    0.9462194    0.9909461    1.0343520    1.3236626
:EIG00036:       1.3337455    1.4217689    1.4234876    1.5814817    1.6347517
:EIG00041:       1.6969414    1.7987485    1.8737328    1.8908624    1.9879463
:EIG00046:       2.0419402    2.0544856    2.1167591    2.1715854    2.2647084
 
:EIG00051:       2.3131929    2.3676854    2.3843592    2.4565276    2.4851093
:EIG00056:       2.5616098    2.5963909    2.6231818    2.7133378    2.7690695
:EIG00061:       2.8416905    2.8420645    2.9844961    3.0571610    3.0701154
:EIG00066:       3.1683523    3.2277975    3.2477504    3.2603115    3.3256327
:EIG00071:       3.3320050    3.3813493    3.4099517    3.4670139    3.4835505
:EIG00076:       3.5236104    3.5547935    3.5951098    3.6210145    3.6487757
:EIG00081:       3.6762664    3.7162696    3.7306784    3.8027312    3.8233043
:EIG00086:       3.8522080    3.9432566    3.9481151    3.9822323    3.9959029
:EIG00091:       4.0288690    4.0613295    4.0937528    4.1084466    4.1201664
:EIG00096:       4.1670977    4.2040195    4.2134407    4.2244304    4.3046029
 
:EIG00101:       4.3779630    4.5008173    4.5128153    4.5763559    4.6095853
:EIG00106:       4.6124019    4.6637413    4.6764943    4.7163942    4.7479304
:EIG00111:       4.8311657    4.8613596    4.8715672    4.9154709    4.9736315
:EIG00116:       5.0094040    5.0816670    5.0836837    5.1248543    5.1573233
:EIG00121:       5.1687006    5.2500806    5.2960375    5.3144886    5.3636016
:EIG00126:       5.4504527    5.4764945    5.5046727    5.5440844    5.5831654
:EIG00131:       5.5875232    5.6569804    5.6805794    5.6855058    5.7108739
:EIG00136:       5.7864109    5.8187312    5.8713021    5.8812255    5.9124643
:EIG00141:       5.9300708    5.9465108    5.9916423    6.0243212    6.0854122
:EIG00146:       6.0870859    6.0910446    6.1058098    6.1270036    6.2090538
 
:EIG00151:       6.2552402    6.2607139    6.3490629    6.3516564    6.4251617
:EIG00156:       6.5133673    6.6049375    6.6231522    6.6532736    6.6942280
:EIG00161:       6.7670635    6.7759585    6.8314354    6.8546123    6.8618062
:EIG00166:       6.9313015    6.9352658    6.9465503    6.9913010    7.0458641
:EIG00171:       7.0606150    7.1168283    7.1512548    7.1577957    7.2199229
:EIG00176:       7.2374172    7.2548467    7.2936987    7.3230609    7.3585582
:EIG00181:       7.4075792    7.4182155    7.4328243    7.4552941    7.5011542
:EIG00186:       7.5107808    7.5530115    7.6409944    7.6563513    7.6638433
:EIG00191:       7.6904347    7.7159202    7.7727289    7.7774557    7.7938367
:EIG00196:       7.8082612    7.8230980    7.8719811    7.8725783    7.9168834
 
:EIG00201:       7.9247294    7.9716991    7.9876789    8.0166333    8.0772212
:EIG00206:       8.0901275    8.1013689
       ********************************************************

:KPT   :      NUMBER OF K-POINTS:   288
   0.0   0.0 angle (M,z), angle (M,x) deg
 
        SPIN-ORBIT EIGENVALUES:
     K=   0.06250   0.00000   0.06250            1
      MATRIX SIZE=  414   WEIGHT= 4.00
     EIGENVALUES ARE:
          -2.0219609   -2.0219609   -2.0085851   -2.0085851   -0.8371836
          -0.8371836   -0.7990635   -0.7990635   -0.6506071   -0.6506071
          -0.5893246   -0.5893246   -0.5865230   -0.5865230   -0.5782334
          -0.5782334    0.3810745    0.3810745    0.5185947    0.5185947
           0.6092089    0.6092089    0.6112484    0.6112484    0.6121751
           0.6121751    0.6137828    0.6137828    0.6171234    0.6171234
           0.6215352    0.6215352    0.6361366    0.6361366    0.6435483
           0.6435483    0.6473526    0.6473526    0.6481249    0.6481249

           0.6523095    0.6523095    0.6556422    0.6556422    0.6566200
           0.6566200    0.6613617    0.6613617    0.6860723    0.6860723
           0.6984824    0.6984824    0.7728087    0.7728087    0.7890001
           0.7890001    0.8124150    0.8124150    0.8461725    0.8461725
           0.8623561    0.8623561    0.9460520    0.9460520    0.9912313
           0.9912313    1.0344753    1.0344753    1.3234285    1.3234285
           1.3341937    1.3341937    1.4216006    1.4216006    1.4236757
           1.4236757    1.5810771    1.5810771    1.6341904    1.6341904

           1.6968780    1.6968780    1.7971654    1.7971654    1.8722206
           1.8722206    1.8920153    1.8920153    1.9884010    1.9884010
           2.0416282    2.0416282    2.0526516    2.0526516    2.1172773
           2.1172773    2.1723124    2.1723124    2.2643190    2.2643190
           2.3127482    2.3127482    2.3649555    2.3649555    2.3862490
           2.3862490    2.4569523    2.4569523    2.4864875    2.4864875
           2.5616235    2.5616235    2.5958293    2.5958293    2.6240854
           2.6240854    2.7135428    2.7135428    2.7688273    2.7688273

           2.8405166    2.8405166    2.8471138    2.8471138    2.9843916
[...]
       TOTAL FORCE WITH RESPECT TO THE GLOBAL COORDINATE SYSTEM:
:FGL001:   1.ATOM                 0.000000000   -29.327911475     0.000000000 partial forces
 Flat Integration
 New Mode for Coulomb Integral
 Consistent 3/8+Simpson combinations
 Extension of core to zero
 LDM version in phi
 Fifth-order quadrature in outwin


            ---------
:ITE026: 26. ITERATION
            ---------

:NATO :    1 INDEPENDENT AND    2 TOTAL ATOMS IN UNITCELL
       SUBSTANCE: aU                                                          

       LATTICE                      = CXY 
:POT  : POTENTIAL OPTION EX_LDA EC_LDA VX_LDA VC_LDA
:LAT  : LATTICE CONSTANTS=  6.48990 13.16965 11.36963    1.571    1.571    1.571
:VOL  : UNIT CELL VOLUME =     485.88001
       MODE OF CALCULATION IS       = RELA
       NON-SPINPOLARIZED CALCULATION
:IFFT  : FFT-parameters:   54  108   90 Factor: 2.00


   CONVERGENCE PARAMETER FOR PSEUDOCHARGE: NCON=  9
   MAXIMAL VALUE OF RMT(JATOM)*ABSK(NKK) : RK  =27.59923


:VKCOUL :  VK-COUL convergence: 0.133E-06
       ATOMNUMBER=  1 Pr1        VCOUL-ZERO =  0.52935E-01
:EFG001:                        EFG         =    -7.52562   *10**21  V / m**2
                               V20  TOT/SRF=    -6.51738    -0.02356
                               V22  TOT/SRF=     0.05832     0.00120
                               V22M TOT/SRF=     0.00000     0.00000
                               V21  TOT/SRF=     0.00000     0.00000
                               V21M TOT/SRF=     0.00000     0.00000

              3.82113    0.00000    0.00000        3.82113    0.00000    0.00000
              0.00000    3.70449    0.00000        0.00000    3.70449    0.00000
              0.00000    0.00000   -7.52562        0.00000    0.00000   -7.52562

         MAIN DIRECTIONS OF THE EFG   1.0000  0.0000  0.0000
                                      0.0000  1.0000  0.0000
                                      0.0000  0.0000  1.0000
:ANG001:  ANGLE WITH OLD X-AXIS =         0.0

:ETA001:                         ASYMM. ETA =     0.01550


     HELLMANN-FEYNMAN-FORCE IN mRy/a.u. = |F|  Fx       Fy             Fz
:FHF001:   1.ATOM   1315.604860195710      0.000000000000      0.000000000000  -1315.604860195710

:FIT001: LUSE= 13 SIGMA OF V-XC FIT FOR ATOM  1  0.4535225E-04
:FIT001: LUSE= 13 SIGMA OF V-XC FIT FOR ATOM  1  0.4535225E-04
:DEN  : DENSITY INTEGRAL  =        -14147.99864053   (Ry)
       ELS_POTENTIAL_AT Z=0 and Z=0.5:   0.71021   0.71021
       ELS_POTENTIAL_AT Y=0 and Y=0.5:   0.07433   0.07433
:VZERO:v0,v0c,v0x   0.13870   0.71021  -0.57152 v5,v5c,v5x   0.13870   0.71021  -0.57152
:VZERY:v0,v0c,v0x  -0.69151   0.07433  -0.76583 v5,v5c,v5x  -0.69151   0.07433  -0.76583
:VZERX:v0,v0c,v0x  -1.10876  -0.37459  -0.73417 v5,v5c,v5x  -1.10876  -0.37459  -0.73417
:LMAX-WF:   10   Non-Spherical LMAX:   4

          ATOMIC SPHERE DEPENDENT PARAMETERS FOR ATOM  Pr1       
:e__0001: OVERALL ENERGY PARAMETER IS    0.4157
          OVERALL BASIS SET ON ATOM IS LAPW
:E0_0001: E( 0)=    0.4157
             APW+lo
:E0_0001: E( 0)=   -2.0510   E(BOTTOM)=   -2.687   E(TOP)=   -1.414  4  5   177
             LOCAL ORBITAL
:E1_0001: E( 1)=    0.8157
             APW+lo
:E1_0001: E( 1)=   -0.5816   E(BOTTOM)=   -1.540   E(TOP)=    0.377  3  4   198
             LOCAL ORBITAL
:E3_0001: E( 3)=    0.6066   E(BOTTOM)=    0.398   E(TOP)=    0.816  0  1   122
             APW+lo
:E2_0001: E( 2)=    0.4157   E(BOTTOM)=    0.200   E(TOP)= -200.000  2 -1    95
             APW+lo

       K=   0.06250   0.00000   0.06250            1
:RKM  : MATRIX SIZE   453LOs:  40  RKM= 8.49  WEIGHT= 4.00  PGR:    
       EIGENVALUES ARE:
:EIG00001:      -2.0216471   -2.0082736   -0.7466809   -0.6743484   -0.6578224
:EIG00006:      -0.6509768   -0.6443765   -0.6442046    0.3815296    0.5191307
:EIG00011:       0.6158144    0.6171712    0.6175048    0.6197994    0.6234110
:EIG00016:       0.6346537    0.6378258    0.6384241    0.6411642    0.6431768
:EIG00021:       0.6474446    0.6509533    0.6514203    0.6565829    0.6854189
:EIG00026:       0.6988078    0.7742197    0.7890902    0.8123445    0.8460412
:EIG00031:       0.8626569    0.9466808    0.9913675    1.0347252    1.3240904
:EIG00036:       1.3342484    1.4222408    1.4239679    1.5820400    1.6353325
:EIG00041:       1.6973835    1.7992469    1.8742057    1.8913555    1.9883922
:EIG00046:       2.0424055    2.0550227    2.1172105    2.1721068    2.2651572
 
:EIG00051:       2.3135691    2.3681098    2.3847500    2.4569773    2.4854802
:EIG00056:       2.5620095    2.5967898    2.6235627    2.7137619    2.7694812
:EIG00061:       2.8421243    2.8424839    2.9849346    3.0576453    3.0705642
:EIG00066:       3.1688022    3.2282586    3.2481925    3.2607630    3.3261171
:EIG00071:       3.3324464    3.3817849    3.4104099    3.4674687    3.4840303
:EIG00076:       3.5240653    3.5553301    3.5955678    3.6214886    3.6492104
:EIG00081:       3.6767515    3.7167157    3.7311457    3.8031942    3.8237692
:EIG00086:       3.8526790    3.9437868    3.9485877    3.9827300    3.9963401
:EIG00091:       4.0293491    4.0617808    4.0942174    4.1088693    4.1206606
:EIG00096:       4.1676111    4.2044665    4.2138822    4.2248935    4.3050472
 
:EIG00101:       4.3784096    4.5012874    4.5132661    4.5768059    4.6100684
:EIG00106:       4.6128886    4.6642070    4.6769336    4.7168529    4.7483784
:EIG00111:       4.8316592    4.8618155    4.8720662    4.9159130    4.9741086
:EIG00116:       5.0098429    5.0821204    5.0841350    5.1252852    5.1577525
:EIG00121:       5.1691552    5.2505724    5.2965141    5.3149662    5.3640525
:EIG00126:       5.4509143    5.4769695    5.5051035    5.5445217    5.5836320
:EIG00131:       5.5879876    5.6574628    5.6810397    5.6859798    5.7113058
:EIG00136:       5.7868734    5.8192218    5.8717461    5.8816804    5.9129130
:EIG00141:       5.9305002    5.9468991    5.9920894    6.0247694    6.0858692
:EIG00146:       6.0875395    6.0915070    6.1061993    6.1274760    6.2095100
 
:EIG00151:       6.2557017    6.2611499    6.3495381    6.3521371    6.4256067
:EIG00156:       6.5138113    6.6053876    6.6236181    6.6537231    6.6946568
:EIG00161:       6.7674576    6.7763982    6.8319079    6.8550149    6.8622713
:EIG00166:       6.9317227    6.9357321    6.9469996    6.9917635    7.0462954
:EIG00171:       7.0610791    7.1172408    7.1516694    7.1581784    7.2203349
:EIG00176:       7.2378141    7.2552701    7.2941273    7.3234941    7.3590113
:EIG00181:       7.4080258    7.4186851    7.4333196    7.4557281    7.5016279
:EIG00186:       7.5112371    7.5534404    7.6414499    7.6567903    7.6642854
:EIG00191:       7.6908921    7.7163985    7.7731914    7.7779036    7.7943189
:EIG00196:       7.8087216    7.8235383    7.8724426    7.8730416    7.9173482
 
:EIG00201:       7.9251785    7.9721795    7.9881593    8.0170749    8.0776617
:EIG00206:       8.0905375    8.1018436
       ********************************************************

:KPT   :      NUMBER OF K-POINTS:   288
   0.0   0.0 angle (M,z), angle (M,x) deg
 
        SPIN-ORBIT EIGENVALUES:
     K=   0.06250   0.00000   0.06250            1
      MATRIX SIZE=  414   WEIGHT= 4.00
     EIGENVALUES ARE:
          -2.0216472   -2.0216472   -2.0082737   -2.0082737   -0.8368467
          -0.8368467   -0.7987539   -0.7987539   -0.6502743   -0.6502743
          -0.5890410   -0.5890410   -0.5862389   -0.5862389   -0.5778897
          -0.5778897    0.3815657    0.3815657    0.5190093    0.5190093
           0.6096272    0.6096272    0.6116899    0.6116899    0.6125801
           0.6125801    0.6142335    0.6142335    0.6175959    0.6175959
           0.6220071    0.6220071    0.6365815    0.6365815    0.6439840
           0.6439840    0.6478011    0.6478011    0.6485953    0.6485953

           0.6527669    0.6527669    0.6560594    0.6560594    0.6570541
           0.6570541    0.6618590    0.6618590    0.6864793    0.6864793
           0.6988957    0.6988957    0.7732464    0.7732465    0.7893829
           0.7893829    0.8128356    0.8128356    0.8465322    0.8465322
           0.8627029    0.8627029    0.9465127    0.9465128    0.9916529
           0.9916529    1.0348488    1.0348488    1.3238577    1.3238577
           1.3346952    1.3346952    1.4220739    1.4220739    1.4241546
           1.4241546    1.5816354    1.5816354    1.6347704    1.6347704

           1.6973210    1.6973210    1.7976633    1.7976633    1.8726950
           1.8726950    1.8925062    1.8925062    1.9888475    1.9888475
           2.0420948    2.0420948    2.0531832    2.0531832    2.1177338
           2.1177338    2.1728316    2.1728316    2.2647666    2.2647666
           2.3131268    2.3131268    2.3653761    2.3653761    2.3866443
           2.3866443    2.4574031    2.4574031    2.4868574    2.4868574
           2.5620232    2.5620232    2.5962292    2.5962292    2.6244660
           2.6244660    2.7139674    2.7139674    2.7692386    2.7692386

           2.8409483    2.8409483    2.8475343    2.8475343    2.9848301
           2.9848301    3.0576531    3.0576531    3.0707817    3.0707817
           3.1687430    3.1687430    3.2281732    3.2281732    3.2485146
           3.2485146    3.2604849    3.2604849    3.3261845    3.3261845
           3.3326849    3.3326849    3.3817891    3.3817891    3.4104698
           3.4104698    3.4667332    3.4667332    3.4849340    3.4849340
           3.5242779    3.5242779    3.5568305    3.5568305    3.5956481
           3.5956481    3.6216191    3.6216191    3.6495811    3.6495811

           3.6769043    3.6769043    3.7167361    3.7167361    3.7314138
           3.7314138    3.8033088    3.8033088    3.8238615    3.8238615
           3.8527867    3.8527867    3.9437654    3.9437654    3.9487274
           3.9487274    3.9827400    3.9827400    3.9964029    3.9964029
           4.0293740    4.0293740    4.0618321    4.0618321    4.0942087
           4.0942087    4.1087250    4.1087250    4.1206192    4.1206192
           4.1676489    4.1676489    4.2041318    4.2041318    4.2142674
           4.2142674    4.2250436    4.2250436    4.3051090    4.3051090

           4.3782719    4.3782719    4.4999808    4.4999808
       ********************************************************
:GAP (global)   :    0.0    Ry =     0.0   eV (metal)
:GAP (this spin):    0.0    Ry =     0.0   eV (metal)
         Bandranges (emin - emax) and occupancy:
:BAN00018:  18    0.376601    0.586948  1.00000000
:BAN00019:  19    0.485017    0.595916  1.00000000
:BAN00020:  20    0.485017    0.595916  1.00000000
:BAN00021:  21    0.553224    0.610649  1.00000000
:BAN00022:  22    0.553224    0.610649  1.00000000
:BAN00023:  23    0.593147    0.614578  1.00000000
:BAN00024:  24    0.593147    0.614578  1.00000000
:BAN00025:  25    0.603456    0.621524  0.79940918
:BAN00026:  26    0.603456    0.621524  0.79940897
:BAN00027:  27    0.612646    0.622379  0.20059104
:BAN00028:  28    0.612646    0.622379  0.20059080
:BAN00029:  29    0.616777    0.625099  0.00000000
:BAN00030:  30    0.616777    0.625099  0.00000000
:BAN00031:  31    0.620001    0.629504  0.00000000
:BAN00032:  32    0.620002    0.629504  0.00000000
:BAN00033:  33    0.624155    0.636923  0.00000000
        Energy to separate low and high energystates:    0.32660


:NOE  : NUMBER OF ELECTRONS          =   26.000

:FER  : F E R M I - ENERGY(TETRAH.M.)=   0.6157828074
:GMA  : POTENTIAL AND CHARGE CUT-OFF  12.00 Ry**.5

:POS001: ATOM   -1 X,Y,Z = 0.00000 0.89750 0.25000  MULT= 2  ZZ= 59.000  Pr1       

       LMMAX 16
       LM=   0 0  1 0  2 0  2 2  3 0  3 2  4 0  4 2  4 4  5 0  5 2  5 4  6 0  6 2  6 4  6 6

:CHA001: TOTAL VALENCE CHARGE INSIDE SPHERE   1 =   9.5181    (RMT=  2.3000 )
:PCS001: PARTIAL CHARGES SPHERE =  1 S,P,D,F,PX,PY,PZ,D-Z2,D-X2Y2,D-XY,D-XZ,D-YZ 
:QTL001: 1.9404 5.0128 0.5050 2.0596 1.6680 1.6680 1.6768 0.0934 0.0917 0.1112 0.0976 0.1110
        Q-s-low E-s-low   Q-p-low E-p-low   Q-d-low E-d-low   Q-f-low E-f-low
:EPL001:  1.8691 -2.0084    4.9472 -0.6926    0.0016 -0.6857    0.0004 -0.6961
        Q-s-hi  E-s-hi    Q-p-hi  E-p-hi    Q-d-hi  E-d-hi    Q-f-hi  E-f-hi 
:EPH001:  0.0713  0.5158    0.0656  0.5544    0.5035  0.5672    2.0592  0.6036

                      VXX         VYY         VZZ       UP TO R
:VZZ001:             3.80659     3.69294    -7.49953       2.300

:CHA  : TOTAL VALENCE CHARGE INSIDE UNIT CELL =      26.000000

:SUM  : SUM OF EIGENVALUES =         -10.573085772


        1.ATOM      Pr1                  14 CORE STATES
       CORE-FORCE in mRy/a.u. = |F|      Fx             Fy             Fz
:FCO001:   1.ATOM   1286.277963248448      0.000000000000      0.000000000000   1286.277963248448

:1S 001: 1S               -3066.980826574 Ry
:2S 001: 2S                -492.731922514 Ry
:2PP001: 2P*               -465.831472290 Ry
:2P 001: 2P                -430.433827705 Ry
:3S 001: 3S                -105.818451395 Ry
:3PP001: 3P*                -94.356478235 Ry
:3P 001: 3P                 -87.348478996 Ry
:3DD001: 3D*                -67.275984690 Ry
:3D 001: 3D                 -65.764358928 Ry
:4S 001: 4S                 -20.495376549 Ry
:4PP001: 4P*                -16.202342662 Ry
:4P 001: 4P                 -14.675147534 Ry
:4DD001: 4D*                 -7.608579278 Ry
:4D 001: 4D                  -7.339253693 Ry
:CINT001 Core Integral Atom   1   45.998484

       DENSITY AT NUCLEUS
        JATOM        VALENCE       SEMI-CORE          CORE           TOTAL
:RTO001:   1      647.467338        0.000000   656824.945133   657472.412472
     
       CHARGES OF NEW CHARGE DENSITY
:NTO   : INTERSTITIAL CHARGE =     6.963746
:NPC   : PW Pseudocharge     =    16.898602
:NTO001: CHARGE SPHERE  1    =    55.516611

:NEC01: NUCLEAR AND ELECTRONIC CHARGE    118.00000   117.99697
     
       CHARGES OF OLD CHARGE DENSITY
:OTO   : INTERSTITIAL CHARGE =     6.966745
:OPC   : PW Pseudocharge     =    16.905855
:OTO001: CHARGE SPHERE  1    =    55.516628

:NEC02: NUCLEAR AND ELECTRONIC CHARGE    118.00000   118.00000
     
       CONVERGENCE TEST
:DTO001: DIFFERENCE IN SPHERE  1 =  0.0000436

:DIS  :  CHARGE DISTANCE       ( 0.0000436 for atom    1 spin 1)      0.0000436
 PW Mixed is          506
 
******************************************************
* MULTISECANT MIXING VER9 RELEASE 10.4.0              *
* Standard Mode with controls                        *
* Fixed density scale                                *
* Regularization       1.000E-04                     *
* Trust Upper Limit    5.000E+00                     *
* Max Number of Memory Steps    8                    *
******************************************************
 
:PWTMP   3.8395E+02  1.9467E+02  4.8588E+02
:PLANE:  PW TOTAL      4.6095 DISTAN   3.19E-05  6.92E-04 %
:CHARG:  CLM/ATOM   1381.9430 DISTAN   9.69E-05  7.01E-06 %
 
Step History
        DMIX         DMIXT        Red     Pred      Trust     Lambda    MagRel    MagAbs     Beta
  3   2.9254E-02   2.9254E-02  5.55E-01  1.00E+00 -1.00E+01  1.00E+00  2.93E-02  5.98E-03  1.00E+00
  4   3.3624E-02   3.3624E-02  9.53E-01  9.99E-01  3.33E-01  1.32E+00  3.43E-02  3.89E-03  8.00E-01
  5   8.4061E-02   6.5948E-02  6.43E-01  8.07E-01  3.35E-01  9.88E-01  3.35E-01  3.62E-02  1.00E+00
  6   2.1015E-01   1.8893E-01  3.80E-01  4.19E-01  6.25E-01  9.47E-01  6.25E-01  4.35E-02  1.00E+00
  7   1.2794E-01   1.2794E-01  3.16E-01  4.47E-01  8.33E-01  1.12E+00  7.83E-01  2.07E-02  1.00E+00
  8   9.4644E-02   9.4644E-02  7.87E-01  9.37E-01  1.11E+00  1.69E+00  1.54E-01  1.29E-03  1.00E+00
  9   2.3661E-01   2.3661E-01  2.31E-01  2.85E-01  1.51E+00  1.79E+00  6.22E-01  4.09E-03  1.00E+00
 10   1.7036E-01   1.7036E-01  5.29E-01  6.17E-01  3.26E+00  1.38E+00  3.83E-01  5.82E-04  1.00E+00
 11   3.5000E-01   3.5000E-01 -1.00E+00  2.04E-01  4.35E+00  1.00E+00  7.84E-01  6.30E-04  1.00E+00
:JACOBIANS    6.762E-01   1.974E+00
  
:NORMS:  1/Froebius, Min, Max, Used   0.8490E+00  0.4145E+00  0.9761E+00  0.9664E+00
:INFO :  Number of Memory Steps    8 Skipping    2
:INFO :  SLambda=    1.4107676573  Max    1.4107676573
:PREDicted Charge, CTotal, PW Trust    7.676E-06   1.535E-05   7.907E-04
:PREDicted DMix, Beta, BLim   3.7416E-01  1.0255E+00  1.1602E+01

Eigenvalues, unscaled except for SY+YY
   #     SY Real        SY Imag          SS             YY         SY+YY Real      SY+YY Imag
   1   3.655374E+00   0.000000E+00   3.563603E+00   3.815870E+00   8.972286E+00   0.000000E+00
   2   1.991935E+00   0.000000E+00   1.833938E+00   2.431349E+00   5.237912E+00   0.000000E+00
   3   7.191602E-01   0.000000E+00   3.653095E-01   1.456686E+00   2.473212E+00   0.000000E+00
   4   2.424708E-02   0.000000E+00   2.715706E-03   2.208481E-01   2.558994E-01   0.000000E+00
   5   7.154183E-03   0.000000E+00   7.881447E-04   6.549821E-02   7.618180E-02   0.000000E+00
   6   3.654326E-08   0.000000E+00   5.491802E-04   7.454244E-03   9.246555E-03   0.000000E+00
   7   4.174714E-04   0.000000E+00   2.826965E-05   2.294499E-03   2.464890E-07   0.000000E+00
   8   1.238063E-03   0.000000E+00   9.995100E-09   1.953460E-07   3.505987E-03   0.000000E+00
 
:INFO :  Singular value  8.973E+00 Weight  1.000E+00 Projection -9.277E-07
:INFO :  Singular value  5.238E+00 Weight  1.000E+00 Projection -1.199E-05
:INFO :  Singular value  2.473E+00 Weight  1.000E+00 Projection -2.304E-05
:INFO :  Singular value  2.559E-01 Weight  1.000E+00 Projection  7.817E-05
:INFO :  Singular value  7.619E-02 Weight  1.000E+00 Projection  2.088E-04
:INFO :  Singular value  9.246E-03 Weight  9.983E-01 Projection -2.078E-05
:INFO :  Singular value  3.506E-03 Weight  9.883E-01 Projection -8.196E-04
:INFO :  Singular value  2.465E-07 Weight  4.173E-07 Projection -4.053E-09
:RANK :  ACTIVE   6.99/8  =  87.33 % ; YY RANK   6.97/8  =  87.13 %
 
:BLIM :  VZERO Control Off
:TRUST:  Step 7.45E+00  Charge 2.46E-02 (e) CTO  8.19E-02 (e) PW  1.15E-01 (e)
:DIRM :  MEMORY  8/8  SCALE   1.000 RED  0.13 PRED  0.20 NEXT  0.63 
:TRAVE:  Charge 2.87E-05 (e) CTO  5.74E-05 (e) PW  5.86E-04 (e)
:DIRP :  |MSR1|= 2.031E-05 |PRATT|= 3.189E-05 ANGLE=   9.0 DEGREES
:DIRQ :  |MSR1|= 2.954E-05 |PRATT|= 9.690E-05 ANGLE=  30.3 DEGREES
:DIRT :  |MSR1|= 3.585E-05 |PRATT|= 1.020E-04 ANGLE=  31.7 DEGREES
:MIX  :   MSE1   REGULARIZATION:  3.82E-04 GREED: 0.31771  Newton 1.00  0.3514                
     
       CHARGES OF MIXED CHARGE DENSITY
:CTO   : INTERSTITIAL CHARGE =     6.966748
:CPC   : PW Pseudocharge     =    16.905923
:CTO001: CHARGE SPHERE  1    =    55.516626

:NEC03: NUCLEAR AND ELECTRONIC CHARGE    118.00000   118.00000

PW CHANGE     H    K    L      Current       Change    Residue
:PTO001:      0    0    0  4.91328538E-02  1.470E-07  2.910E-07
:PTO003:      0    2    0  1.37873496E-02  6.500E-08  8.040E-08
:PTO004:     -1    1    0  6.79009596E-02  1.682E-07  1.688E-07
:PTO005:      0    2   -1 -7.91171645E-02 -3.593E-07 -5.847E-07
:PTO006:      0    0   -2 -4.09204652E-02 -1.320E-07 -1.968E-07
:PTO007:     -1    1   -1 -8.59582332E-02 -3.698E-07 -6.080E-07
:PTO008:      0    2   -2 -1.41469271E-02 -4.207E-08 -4.861E-08
:PTO009:     -1    1   -2 -7.33224779E-02 -1.785E-07 -2.789E-07
:PTO011:     -1    3    0 -1.20536150E-02 -6.204E-09 -8.644E-09
:PTO012:     -1    3   -1 -5.45179519E-02 -6.322E-08 -7.162E-08
:PTO013:      0    4    0 -1.00490692E-02 -2.006E-08 -3.128E-08
:PTO014:      0    2   -3  2.30373127E-02  2.876E-08  7.103E-08

:ENE  : ********** TOTAL ENERGY IN Ry =       -36944.21870425

       TOTAL FORCE IN mRy/a.u. = |F|     Fx             Fy             Fz     with/without FOR in case.in2
:FOR001:   1.ATOM         29.327          0.000          0.000        -29.327 partial forces
       TOTAL FORCE WITH RESPECT TO GLOBAL CARTESIAN COORDINATES:
:FCA001:   1.ATOM                         0.000        -29.327          0.000 partial forces
       TOTAL FORCE WITH RESPECT TO THE GLOBAL COORDINATE SYSTEM:
:FGL001:   1.ATOM                 0.000000000   -29.326896947     0.000000000 partial forces
