
------- case.scf0 --------
 Flat Integration
 New Mode for Coulomb Integral
 Consistent 3/8+Simpson combinations
 Extension of core to zero
 LDM version in phi
 Fifth-order quadrature in outwin


            ---------
:ITE026: 26. ITERATION
            ---------

:NATO :    1 INDEPENDENT AND    1 TOTAL ATOMS IN UNITCELL
       SUBSTANCE: blebleble                                                   

       LATTICE                      = F   
:POT  : POTENTIAL OPTION EX_LDA EC_LDA VX_LDA VC_LDA
:LAT  : LATTICE CONSTANTS= 10.43083 10.43083 10.43083    1.571    1.571    1.571
:VOL  : UNIT CELL VOLUME =     283.72435
       MODE OF CALCULATION IS       = RELA
       NON-SPINPOLARIZED CALCULATION
:IFFT  : FFT-parameters:   80   80   80 Factor: 2.00


   CONVERGENCE PARAMETER FOR PSEUDOCHARGE: NCON=  9
   MAXIMAL VALUE OF RMT(JATOM)*ABSK(NKK) : RK  =29.96737


:VKCOUL :  VK-COUL convergence: 0.257E-06
       ATOMNUMBER=  1 Pr         VCOUL-ZERO =  0.10976E+00
:FIT001: LUSE= 13 SIGMA OF V-XC FIT FOR ATOM  1  0.3679536E-04
:FIT001: LUSE= 13 SIGMA OF V-XC FIT FOR ATOM  1  0.3679536E-04
:DEN  : DENSITY INTEGRAL  =         -7065.45409013   (Ry)
       ELS_POTENTIAL_AT Z=0 and Z=0.5:  -2.34072  -2.34072
       ELS_POTENTIAL_AT Y=0 and Y=0.5:   0.00000   0.00000
:VZERO:v0,v0c,v0x  -3.27150  -2.34072  -0.93079 v5,v5c,v5x  -3.27150  -2.34072  -0.93079
:VZERY:v0,v0c,v0x  -0.66423   0.00000  -0.66423 v5,v5c,v5x  -0.66423   0.00000  -0.66423
:VZERX:v0,v0c,v0x  -0.66423   0.00000  -0.66423 v5,v5c,v5x  -0.66423   0.00000  -0.66423

------- case.scf1 --------
:LMAX-WF:   10   Non-Spherical LMAX:   4

          ATOMIC SPHERE DEPENDENT PARAMETERS FOR ATOM  Pr        
:e__0001: OVERALL ENERGY PARAMETER IS    0.2687
          OVERALL BASIS SET ON ATOM IS LAPW
:E0_0001: E( 0)=    0.2687
             APW+lo
:E0_0001: E( 0)=   -2.2181   E(BOTTOM)=   -2.600   E(TOP)=   -1.836  4  5   158
             LOCAL ORBITAL
:E1_0001: E( 1)=    0.6687
             APW+lo
:E1_0001: E( 1)=   -0.8315   E(BOTTOM)=   -1.479   E(TOP)=   -0.184  3  4   165
             LOCAL ORBITAL
:E3_0001: E( 3)=    0.4636   E(BOTTOM)=    0.320   E(TOP)=    0.608  0  1   118
             APW+lo
:E2_0001: E( 2)=    0.2687   E(BOTTOM)=    0.096   E(TOP)= -200.000  2 -1    99
             APW+lo

       K=   0.00000   0.00000   0.00000            1
:RKM  : MATRIX SIZE   189LOs:  20  RKM= 7.82  WEIGHT= 1.00  PGR:    
       EIGENVALUES ARE:
:EIG00001:      -2.1736033   -0.8227649   -0.8227649   -0.8227649    0.2193692
:EIG00006:       0.4692010    0.4818971    0.4818971    0.4818971    0.5009840
:EIG00011:       0.5009840    0.5009840    0.5904000    0.5904000    0.5904000
:EIG00016:       0.7327236    0.7327236    1.1223723    1.3211676    1.3211676
:EIG00021:       1.3211676    1.4266445    1.9780765    1.9780765    1.9780765
:EIG00026:       2.0222228    2.0222228    2.0222228    2.2585777    2.2585777
:EIG00031:       2.5417032    2.7262860    2.7262860    2.7262860    3.1292019
:EIG00036:       3.1292019    3.3537690    3.3537690    3.3537690    3.3844032
:EIG00041:       3.3844032    3.3844032    3.5569906    3.5569906    3.5569906
:EIG00046:       3.7319742    3.8035378    3.8035378    3.8035378    3.8970384
 
:EIG00051:       3.8970384    3.9001189    3.9001189    3.9001189    3.9098141
:EIG00056:       3.9098141    3.9098141    4.0094850    4.0775878    4.2062710
:EIG00061:       4.2062710    4.2062710    4.2580564    4.2580564    4.2580564
:EIG00066:       4.4206974    5.4194688    5.4194688    5.4393759    5.6800962
:EIG00071:       5.6800962    5.6800962    6.0719769    6.0719769    6.2199688
:EIG00076:       6.2199688    6.2199688    6.2967607    6.2967607    6.2967607
:EIG00081:       6.5979972    6.5979972    6.5979972    6.6278038    6.6278038
:EIG00086:       6.6278038    6.6734911    6.6734911    6.7234219    6.7234219
:EIG00091:       6.7234219    6.8199688    6.8199688    6.8199688    6.8282439
:EIG00096:       6.8282439    6.8282439    6.8770118    6.9913610    7.0045606
 
:EIG00101:       7.0045606    7.0817216    7.0817216    7.0817216    7.1116008
:EIG00106:       7.1116008    7.1116008    7.1153440    7.1153440    7.1153440
:EIG00111:       7.1787736    7.1787736    7.3794188    7.4272455    7.7119611
:EIG00116:       7.7119611    7.7119611
       ********************************************************

:KPT   :      NUMBER OF K-POINTS:   165

------- case.scfso --------
   0.0   0.0 angle (M,z), angle (M,x) deg
 
        SPIN-ORBIT EIGENVALUES:
     K=   0.00000   0.00000   0.00000            1
      MATRIX SIZE=  234   WEIGHT= 1.00
     EIGENVALUES ARE:
          -2.1736033   -2.1736033   -0.9680044   -0.9680044   -0.7548007
          -0.7548007   -0.7548007   -0.7548007    0.2193692    0.2193692
           0.4636479    0.4636479    0.4704469    0.4704469    0.4704469
           0.4704469    0.4935555    0.4935555    0.5023313    0.5023313
           0.5086146    0.5086146    0.5086146    0.5086146    0.5867329
           0.5867329    0.5867329    0.5867329    0.5965003    0.5965003
           0.7331354    0.7331354    0.7331354    0.7331354    1.1224219
           1.1224219    1.3157001    1.3157001    1.3236278    1.3236278

           1.3236278    1.3236278    1.4266445    1.4266445    1.9569541
           1.9569541    1.9733473    1.9733473    1.9733473    1.9733473
           1.9870495    1.9870495    2.0558198    2.0558198    2.0558198
           2.0558198    2.2588584    2.2588584    2.2588584    2.2588584
           2.5417032    2.5417032    2.7258522    2.7258522    2.7265168
           2.7265168    2.7265168    2.7265168    3.1291807    3.1291807
           3.1291807    3.1291807    3.3525017    3.3525017    3.3525017
           3.3525017    3.3565320    3.3565320    3.3571176    3.3571176

           3.3992419    3.3992419    3.3992419    3.3992419    3.5569841
           3.5569841    3.5569939    3.5569939    3.5569939    3.5569939
           3.7319742    3.7319742    3.8035005    3.8035005    3.8035005
           3.8035005    3.8036168    3.8036168    3.8970384    3.8970384
           3.8970384    3.8970384    3.8999710    3.8999710    3.9001531
           3.9001531    3.9001531    3.9001531    3.9095161    3.9095161
           3.9095161    3.9095161    3.9105025    3.9105025    4.0094926
           4.0094926    4.0775878    4.0775878    4.2062143    4.2062143

           4.2062143    4.2062143    4.2063879    4.2063879    4.2572774
           4.2572774    4.2584915    4.2584915    4.2584915    4.2584915
           4.4207009    4.4207009
       ********************************************************

------- case.scf2 --------
:GMA  : POTENTIAL AND CHARGE CUT-OFF  12.00 Ry**.5




:POS001: at.nr.   1 position = 0.00000 0.00000 0.50000  multiplicity =  1

       lmmax  5
       lm=   0 0  4 0  4 4  6 0  6 4
:FER gutzwiller fermi energy   0.48229
:EORB         -0.077366835
:SUM sum of gutz band energies         -7.220229656

:CHA001: total charge inside sphere   1 =    10.035998
:PCS001: partial charges sphere =  1 s,p,d,f,      d-eg,d-t2g 
:QTL001: 2.0232 5.3636 0.5671 2.0820 0.0000 0.0000 0.0000 0.2030 0.3642 0.0000 0.0000 0.0000

:CHA  : total charge inside unit cell =       6.500000

------- case.scfc --------

        1.ATOM      Pr                   14 CORE STATES
:1S 001: 1S               -3067.126481003 Ry
:2S 001: 2S                -492.875613172 Ry
:2PP001: 2P*               -465.975728920 Ry
:2P 001: 2P                -430.577879319 Ry
:3S 001: 3S                -105.956947682 Ry
:3PP001: 3P*                -94.495209696 Ry
:3P 001: 3P                 -87.487046733 Ry
:3DD001: 3D*                -67.415221452 Ry
:3D 001: 3D                 -65.903517045 Ry
:4S 001: 4S                 -20.637419035 Ry
:4PP001: 4P*                -16.344889784 Ry
:4P 001: 4P                 -14.818373866 Ry
:4DD001: 4D*                 -7.753233558 Ry
:4D 001: 4D                  -7.484153643 Ry

------- case.scfm --------
:CINT001 Core Integral Atom   1   45.999511

       DENSITY AT NUCLEUS
        JATOM        VALENCE       SEMI-CORE          CORE           TOTAL
:RTO001:   1      647.113350        0.000000   656824.545042   657471.658392
 :WARNING: K-list has changed
     
       CHARGES OF NEW CHARGE DENSITY
:NTO   : INTERSTITIAL CHARGE =     2.964046
:NPC   : PW Pseudocharge     =     7.526104
:NTO001: CHARGE SPHERE  1    =    56.035509

:NEC01: NUCLEAR AND ELECTRONIC CHARGE     59.00000    58.99955
     
       CHARGES OF OLD CHARGE DENSITY
:OTO   : INTERSTITIAL CHARGE =     2.960727
:OPC   : PW Pseudocharge     =     7.525844
:OTO001: CHARGE SPHERE  1    =    56.039273

:NEC02: NUCLEAR AND ELECTRONIC CHARGE     59.00000    59.00000
     
       CONVERGENCE TEST
:DTO001: DIFFERENCE IN SPHERE  1 =  0.0120159

:DIS  :  CHARGE DISTANCE       ( 0.0120159 for atom    1 spin 1)      0.0120159
 PW Mixed is           59
 
******************************************************
* MULTISECANT MIXING VER9 RELEASE 10.4.0              *
* Standard Mode with controls                        *
* Fixed density scale                                *
* Regularization       1.000E-04                     *
* Trust Upper Limit    5.000E+00                     *
* Max Number of Memory Steps    8                    *
******************************************************
 
:PWTMP   2.1827E+02  1.2500E+02  2.8372E+02
:PLANE:  PW TOTAL      2.7530 DISTAN   1.51E-02  5.49E-01 %
:CHARG:  CLM/ATOM    977.1757 DISTAN   4.51E-01  4.61E-02 %
 
Step History
        DMIX         DMIXT        Red     Pred      Trust     Lambda    MagRel    MagAbs     Beta
  1   3.5000E-02   3.5000E-02 -1.00E+00  1.00E+00 -1.00E+01  1.00E+00  3.50E-02  3.50E-02  1.00E+00
:INFO :  Note, Pratt in use
:TRUST:  Step 3.75E-02  Charge 7.50E-02 (e) CTO  2.50E-01 (e) PW  3.50E-01 (e)
:DIRM :  MEMORY  0/ 8 SCALE   1.000
Performing Pseudo Compensation
Final Pseudo Compensation Rescaling     1.00000E+00
:MIX  :   PRATT  REGULARIZATION:  1.00E-04 GREED: 0.02500                  
     
       CHARGES OF MIXED CHARGE DENSITY
:CTO   : INTERSTITIAL CHARGE =     2.960821
:CPC   : PW Pseudocharge     =     7.523360
:CTO001: CHARGE SPHERE  1    =    56.039179

:NEC03: NUCLEAR AND ELECTRONIC CHARGE     59.00000    59.00000

PW CHANGE     H    K    L      Current       Change    Residue
:PTO001:      0    0    0  3.69519950E-02 -8.425E-06  1.817E-05
:PTO002:     -1   -1   -1 -1.22617811E-01  1.172E-04  1.543E-04
:PTO003:      0    0   -2  7.40934583E-02 -9.150E-05  4.028E-05
:PTO004:      0   -2   -2  6.84154221E-02 -2.332E-04 -4.597E-04
:PTO005:     -1   -1   -3 -7.01418670E-02  4.720E-04  4.518E-04
:PTO006:     -2   -2   -2  1.84485333E-02 -1.514E-04  9.292E-05
:PTO007:      0    0   -4  4.20968336E-03 -1.118E-04 -3.951E-05
:PTO008:     -1   -3   -3 -5.32189229E-03  4.347E-04  7.569E-04
:PTO009:      0   -2   -4  2.08335911E-03 -4.268E-04 -8.779E-04
:PTO010:     -2   -2   -4 -5.06641644E-03 -3.605E-04 -1.953E-04
:PTO011:     -3   -3   -3  2.41808975E-03  1.015E-04 -1.552E-04
:PTO012:     -1   -1   -5  6.93588127E-03  3.231E-04  2.812E-04

:ENE  : ********** TOTAL ENERGY IN Ry =       -18472.10930905


------- case.scf0 --------
 Flat Integration
 New Mode for Coulomb Integral
 Consistent 3/8+Simpson combinations
 Extension of core to zero
 LDM version in phi
 Fifth-order quadrature in outwin


            ---------
:ITE027: 27. ITERATION
            ---------

:NATO :    1 INDEPENDENT AND    1 TOTAL ATOMS IN UNITCELL
       SUBSTANCE: blebleble                                                   

       LATTICE                      = F   
:POT  : POTENTIAL OPTION EX_LDA EC_LDA VX_LDA VC_LDA
:LAT  : LATTICE CONSTANTS= 10.43083 10.43083 10.43083    1.571    1.571    1.571
:VOL  : UNIT CELL VOLUME =     283.72435
       MODE OF CALCULATION IS       = RELA
       NON-SPINPOLARIZED CALCULATION
:IFFT  : FFT-parameters:   80   80   80 Factor: 2.00


   CONVERGENCE PARAMETER FOR PSEUDOCHARGE: NCON=  9
   MAXIMAL VALUE OF RMT(JATOM)*ABSK(NKK) : RK  =29.96737


:VKCOUL :  VK-COUL convergence: 0.252E-06
       ATOMNUMBER=  1 Pr         VCOUL-ZERO =  0.10993E+00
:FIT001: LUSE= 13 SIGMA OF V-XC FIT FOR ATOM  1  0.3583405E-04
:FIT001: LUSE= 13 SIGMA OF V-XC FIT FOR ATOM  1  0.3583405E-04
:DEN  : DENSITY INTEGRAL  =         -7065.46501901   (Ry)
       ELS_POTENTIAL_AT Z=0 and Z=0.5:  -2.34204  -2.34204
       ELS_POTENTIAL_AT Y=0 and Y=0.5:   0.00000   0.00000
:VZERO:v0,v0c,v0x  -3.27257  -2.34204  -0.93053 v5,v5c,v5x  -3.27257  -2.34204  -0.93053
:VZERY:v0,v0c,v0x  -0.66425   0.00000  -0.66425 v5,v5c,v5x  -0.66425   0.00000  -0.66425
:VZERX:v0,v0c,v0x  -0.66425   0.00000  -0.66425 v5,v5c,v5x  -0.66425   0.00000  -0.66425

------- case.scf1 --------
:LMAX-WF:   10   Non-Spherical LMAX:   4

          ATOMIC SPHERE DEPENDENT PARAMETERS FOR ATOM  Pr        
:e__0001: OVERALL ENERGY PARAMETER IS    0.2687
          OVERALL BASIS SET ON ATOM IS LAPW
:E0_0001: E( 0)=    0.2687
             APW+lo
:E0_0001: E( 0)=   -2.2180   E(BOTTOM)=   -2.600   E(TOP)=   -1.836  4  5   162
             LOCAL ORBITAL
:E1_0001: E( 1)=    0.6687
             APW+lo
:E1_0001: E( 1)=   -0.8313   E(BOTTOM)=   -1.479   E(TOP)=   -0.184  3  4   162
             LOCAL ORBITAL
:E3_0001: E( 3)=    0.4638   E(BOTTOM)=    0.320   E(TOP)=    0.608  0  1   119
             APW+lo
:E2_0001: E( 2)=    0.2687   E(BOTTOM)=    0.096   E(TOP)= -200.000  2 -1   101
             APW+lo

       K=   0.00000   0.00000   0.00000            1
:RKM  : MATRIX SIZE   189LOs:  20  RKM= 7.82  WEIGHT= 1.00  PGR:    
       EIGENVALUES ARE:
:EIG00001:      -2.1734622   -0.8226146   -0.8226146   -0.8226146    0.2195585
:EIG00006:       0.4693209    0.4820314    0.4820314    0.4820314    0.5011175
:EIG00011:       0.5011175    0.5011175    0.5905716    0.5905716    0.5905716
:EIG00016:       0.7328982    0.7328982    1.1225576    1.3213628    1.3213628
:EIG00021:       1.3213628    1.4268520    1.9782524    1.9782524    1.9782524
:EIG00026:       2.0224042    2.0224042    2.0224042    2.2587507    2.2587507
:EIG00031:       2.5418913    2.7264687    2.7264687    2.7264687    3.1293980
:EIG00036:       3.1293980    3.3539622    3.3539622    3.3539622    3.3845965
:EIG00041:       3.3845965    3.3845965    3.5571805    3.5571805    3.5571805
:EIG00046:       3.7321663    3.8037227    3.8037227    3.8037227    3.8972260
 
:EIG00051:       3.8972260    3.9002993    3.9002993    3.9002993    3.9100184
:EIG00056:       3.9100184    3.9100184    4.0096826    4.0777803    4.2064711
:EIG00061:       4.2064711    4.2064711    4.2582508    4.2582508    4.2582508
:EIG00066:       4.4208992    5.4196670    5.4196670    5.4395696    5.6802905
:EIG00071:       5.6802905    5.6802905    6.0721677    6.0721677    6.2201722
:EIG00076:       6.2201722    6.2201722    6.2969457    6.2969457    6.2969457
:EIG00081:       6.5982001    6.5982001    6.5982001    6.6279969    6.6279969
:EIG00086:       6.6279969    6.6736801    6.6736801    6.7236139    6.7236139
:EIG00091:       6.7236139    6.8201650    6.8201650    6.8201650    6.8284339
:EIG00096:       6.8284339    6.8284339    6.8772185    6.9915443    7.0047642
 
:EIG00101:       7.0047642    7.0819197    7.0819197    7.0819197    7.1117969
:EIG00106:       7.1117969    7.1117969    7.1155484    7.1155484    7.1155484
:EIG00111:       7.1789721    7.1789721    7.3796153    7.4274471    7.7121567
:EIG00116:       7.7121567    7.7121567
       ********************************************************

:KPT   :      NUMBER OF K-POINTS:   165

------- case.scfso --------
   0.0   0.0 angle (M,z), angle (M,x) deg
 
        SPIN-ORBIT EIGENVALUES:
     K=   0.00000   0.00000   0.00000            1
      MATRIX SIZE=  234   WEIGHT= 1.00
     EIGENVALUES ARE:
          -2.1734622   -2.1734622   -0.9678562   -0.9678562   -0.7546494
          -0.7546494   -0.7546494   -0.7546494    0.2195585    0.2195585
           0.4637696    0.4637696    0.4705810    0.4705810    0.4705810
           0.4705810    0.4936901    0.4936901    0.5024630    0.5024630
           0.5087482    0.5087482    0.5087482    0.5087482    0.5869044
           0.5869044    0.5869044    0.5869044    0.5966721    0.5966721
           0.7333101    0.7333101    0.7333101    0.7333101    1.1226071
           1.1226071    1.3158951    1.3158951    1.3238229    1.3238229

           1.3238229    1.3238229    1.4268520    1.4268520    1.9571355
           1.9571355    1.9735233    1.9735233    1.9735233    1.9735233
           1.9872252    1.9872252    2.0560013    2.0560013    2.0560013
           2.0560013    2.2590314    2.2590314    2.2590314    2.2590314
           2.5418913    2.5418913    2.7260350    2.7260350    2.7266996
           2.7266996    2.7266996    2.7266996    3.1293767    3.1293767
           3.1293767    3.1293767    3.3526950    3.3526950    3.3526950
           3.3526950    3.3567249    3.3567249    3.3573115    3.3573115

           3.3994349    3.3994349    3.3994349    3.3994349    3.5571740
           3.5571740    3.5571837    3.5571837    3.5571837    3.5571837
           3.7321663    3.7321663    3.8036854    3.8036854    3.8036854
           3.8036854    3.8038017    3.8038017    3.8972260    3.8972260
           3.8972260    3.8972260    3.9001515    3.9001515    3.9003337
           3.9003337    3.9003337    3.9003337    3.9097203    3.9097203
           3.9097203    3.9097203    3.9107067    3.9107067    4.0096901
           4.0096901    4.0777803    4.0777803    4.2064144    4.2064144

           4.2064144    4.2064144    4.2065880    4.2065880    4.2574719
           4.2574719    4.2586858    4.2586858    4.2586858    4.2586858
           4.4209028    4.4209028
       ********************************************************

------- case.scf2 --------
:GMA  : POTENTIAL AND CHARGE CUT-OFF  12.00 Ry**.5




:POS001: at.nr.   1 position = 0.00000 0.00000 0.50000  multiplicity =  1

       lmmax  5
       lm=   0 0  4 0  4 4  6 0  6 4
:FER gutzwiller fermi energy   0.48340
:EORB         -0.080026683
:SUM sum of gutz band energies         -7.215740888

:CHA001: total charge inside sphere   1 =    10.024554
:PCS001: partial charges sphere =  1 s,p,d,f,      d-eg,d-t2g 
:QTL001: 2.0232 5.3642 0.5727 2.0643 0.0000 0.0000 0.0000 0.2048 0.3679 0.0000 0.0000 0.0000

:CHA  : total charge inside unit cell =       6.500000

------- case.scfc --------

        1.ATOM      Pr                   14 CORE STATES
:1S 001: 1S               -3067.126181081 Ry
:2S 001: 2S                -492.875342018 Ry
:2PP001: 2P*               -465.975450942 Ry
:2P 001: 2P                -430.577603869 Ry
:3S 001: 3S                -105.956742154 Ry
:3PP001: 3P*                -94.495000499 Ry
:3P 001: 3P                 -87.486841421 Ry
:3DD001: 3D*                -67.415005934 Ry
:3D 001: 3D                 -65.903302857 Ry
:4S 001: 4S                 -20.637285391 Ry
:4PP001: 4P*                -16.344757025 Ry
:4P 001: 4P                 -14.818243733 Ry
:4DD001: 4D*                 -7.753104809 Ry
:4D 001: 4D                  -7.484025518 Ry

------- case.scfm --------
:CINT001 Core Integral Atom   1   45.999511

       DENSITY AT NUCLEUS
        JATOM        VALENCE       SEMI-CORE          CORE           TOTAL
:RTO001:   1      647.137455        0.000000   656824.526756   657471.664212
     
       CHARGES OF NEW CHARGE DENSITY
:NTO   : INTERSTITIAL CHARGE =     2.975487
:NPC   : PW Pseudocharge     =     7.529937
:NTO001: CHARGE SPHERE  1    =    56.024065

:NEC01: NUCLEAR AND ELECTRONIC CHARGE     59.00000    58.99955
     
       CHARGES OF OLD CHARGE DENSITY
:OTO   : INTERSTITIAL CHARGE =     2.960821
:OPC   : PW Pseudocharge     =     7.523360
:OTO001: CHARGE SPHERE  1    =    56.039179

:NEC02: NUCLEAR AND ELECTRONIC CHARGE     59.00000    59.00000
     
       CONVERGENCE TEST
:DTO001: DIFFERENCE IN SPHERE  1 =  0.0230676

:DIS  :  CHARGE DISTANCE       ( 0.0230676 for atom    1 spin 1)      0.0230676
 PW Mixed is           59
 
******************************************************
* MULTISECANT MIXING VER9 RELEASE 10.4.0              *
* Slow Mode, cautious                                *
* Fixed density scale                                *
* Regularization       1.000E-04                     *
* Step Trust Radius    0.75000                       *
* Trust Upper Limit    2.000E+00                     *
* Max Number of Memory Steps   12                    *
******************************************************
 
:PWTMP   2.1827E+02  1.2500E+02  2.8372E+02
:PLANE:  PW TOTAL      2.7496 DISTAN   1.10E-02  4.01E-01 %
:CHARG:  CLM/ATOM    977.1758 DISTAN   4.43E-01  4.53E-02 %
 
Step History
        DMIX         DMIXT        Red     Pred      Trust     Lambda    MagRel    MagAbs     Beta
  1   3.5000E-02   3.5000E-02 -1.00E+00  1.00E+00 -1.00E+01  1.00E+00  3.50E-02  3.50E-02  1.00E+00
  2   2.5000E-02   2.5000E-02 -1.00E+00  1.00E+00 -1.00E+01  1.00E+00  2.50E-02  1.13E-02  1.00E+00
:JACOBIANS    8.674E-02   9.124E-02
  
:TRUST:  Step 2.86E-02  Charge 7.50E-02 (e) CTO  2.50E-01 (e) PW  3.50E-01 (e)
:DIRM :  MEMORY  1/12 SCALE   1.000
:MIX  :   PRATT  REGULARIZATION:  1.00E-04 GREED: 0.02858  Expand 1.14  0.0286                
     
       CHARGES OF MIXED CHARGE DENSITY
:CTO   : INTERSTITIAL CHARGE =     2.961403
:CPC   : PW Pseudocharge     =     7.507994
:CTO001: CHARGE SPHERE  1    =    56.038597

:NEC03: NUCLEAR AND ELECTRONIC CHARGE     59.00000    59.00000

PW CHANGE     H    K    L      Current       Change    Residue
:PTO001:      0    0    0  3.68998894E-02 -5.211E-05  8.044E-05
:PTO002:     -1   -1   -1 -1.21893104E-01  7.247E-04  2.920E-05
:PTO003:      0    0   -2  7.35275636E-02 -5.659E-04  1.282E-04
:PTO004:      0   -2   -2  6.69732120E-02 -1.442E-03 -2.273E-04
:PTO005:     -1   -1   -3 -6.72226857E-02  2.919E-03 -2.580E-06
:PTO006:     -2   -2   -2  1.75122386E-02 -9.363E-04  2.438E-04
:PTO007:      0    0   -4  3.51795912E-03 -6.917E-04  6.640E-05
:PTO008:     -1   -3   -3 -2.63316768E-03  2.689E-03  3.328E-04
:PTO009:      0   -2   -4 -5.56147504E-04 -2.640E-03 -4.678E-04
:PTO010:     -2   -2   -4 -7.29595088E-03 -2.230E-03  1.581E-04
:PTO011:     -3   -3   -3  3.04562484E-03  6.275E-04 -2.569E-04
:PTO012:     -1   -1   -5  8.93393374E-03  1.998E-03 -3.017E-05

:ENE  : ********** TOTAL ENERGY IN Ry =       -18472.10947411


------- case.scf0 --------
 Flat Integration
 New Mode for Coulomb Integral
 Consistent 3/8+Simpson combinations
 Extension of core to zero
 LDM version in phi
 Fifth-order quadrature in outwin


            ---------
:ITE028: 28. ITERATION
            ---------

:NATO :    1 INDEPENDENT AND    1 TOTAL ATOMS IN UNITCELL
       SUBSTANCE: blebleble                                                   

       LATTICE                      = F   
:POT  : POTENTIAL OPTION EX_LDA EC_LDA VX_LDA VC_LDA
:LAT  : LATTICE CONSTANTS= 10.43083 10.43083 10.43083    1.571    1.571    1.571
:VOL  : UNIT CELL VOLUME =     283.72435
       MODE OF CALCULATION IS       = RELA
       NON-SPINPOLARIZED CALCULATION
:IFFT  : FFT-parameters:   80   80   80 Factor: 2.00


   CONVERGENCE PARAMETER FOR PSEUDOCHARGE: NCON=  9
   MAXIMAL VALUE OF RMT(JATOM)*ABSK(NKK) : RK  =29.96737


:VKCOUL :  VK-COUL convergence: 0.218E-06
       ATOMNUMBER=  1 Pr         VCOUL-ZERO =  0.11104E+00
:FIT001: LUSE= 13 SIGMA OF V-XC FIT FOR ATOM  1  0.3021104E-04
:FIT001: LUSE= 13 SIGMA OF V-XC FIT FOR ATOM  1  0.3021104E-04
:DEN  : DENSITY INTEGRAL  =         -7065.53265275   (Ry)
       ELS_POTENTIAL_AT Z=0 and Z=0.5:  -2.35021  -2.35021
       ELS_POTENTIAL_AT Y=0 and Y=0.5:   0.00000   0.00000
:VZERO:v0,v0c,v0x  -3.27910  -2.35021  -0.92889 v5,v5c,v5x  -3.27910  -2.35021  -0.92889
:VZERY:v0,v0c,v0x  -0.66434   0.00000  -0.66434 v5,v5c,v5x  -0.66434   0.00000  -0.66434
:VZERX:v0,v0c,v0x  -0.66434   0.00000  -0.66434 v5,v5c,v5x  -0.66434   0.00000  -0.66434

------- case.scf1 --------
:LMAX-WF:   10   Non-Spherical LMAX:   4

          ATOMIC SPHERE DEPENDENT PARAMETERS FOR ATOM  Pr        
:e__0001: OVERALL ENERGY PARAMETER IS    0.2687
          OVERALL BASIS SET ON ATOM IS LAPW
:E0_0001: E( 0)=    0.2687
             APW+lo
:E0_0001: E( 0)=   -2.2171   E(BOTTOM)=   -2.599   E(TOP)=   -1.835  4  5   165
             LOCAL ORBITAL
:E1_0001: E( 1)=    0.6687
             APW+lo
:E1_0001: E( 1)=   -0.8304   E(BOTTOM)=   -1.478   E(TOP)=   -0.183  3  4   163
             LOCAL ORBITAL
:E3_0001: E( 3)=    0.4646   E(BOTTOM)=    0.321   E(TOP)=    0.609  0  1   119
             APW+lo
:E2_0001: E( 2)=    0.2687   E(BOTTOM)=    0.097   E(TOP)= -200.000  2 -1    97
             APW+lo

       K=   0.00000   0.00000   0.00000            1
:RKM  : MATRIX SIZE   189LOs:  20  RKM= 7.82  WEIGHT= 1.00  PGR:    
       EIGENVALUES ARE:
:EIG00001:      -2.1725881   -0.8216842   -0.8216842   -0.8216842    0.2207297
:EIG00006:       0.4700644    0.4828633    0.4828633    0.4828633    0.5019444
:EIG00011:       0.5019444    0.5019444    0.5916333    0.5916333    0.5916333
:EIG00016:       0.7339789    0.7339789    1.1237037    1.3225697    1.3225697
:EIG00021:       1.3225697    1.4281362    1.9793406    1.9793406    1.9793406
:EIG00026:       2.0235266    2.0235266    2.0235266    2.2598211    2.2598211
:EIG00031:       2.5430555    2.7275991    2.7275991    2.7275991    3.1306111
:EIG00036:       3.1306111    3.3551575    3.3551575    3.3551575    3.3857923
:EIG00041:       3.3857923    3.3857923    3.5583549    3.5583549    3.5583549
:EIG00046:       3.7333550    3.8048665    3.8048665    3.8048665    3.8983863
 
:EIG00051:       3.8983863    3.9014156    3.9014156    3.9014156    3.9112819
:EIG00056:       3.9112819    3.9112819    4.0109049    4.0789708    4.2077087
:EIG00061:       4.2077087    4.2077087    4.2594534    4.2594534    4.2594534
:EIG00066:       4.4221478    5.4208934    5.4208934    5.4407678    5.6814925
:EIG00071:       5.6814925    5.6814925    6.0733484    6.0733484    6.2214304
:EIG00076:       6.2214304    6.2214304    6.2980903    6.2980903    6.2980903
:EIG00081:       6.5994559    6.5994559    6.5994559    6.6291914    6.6291914
:EIG00086:       6.6291914    6.6748494    6.6748494    6.7248019    6.7248019
:EIG00091:       6.7248019    6.8213789    6.8213789    6.8213789    6.8296093
:EIG00096:       6.8296093    6.8296093    6.8784971    6.9926777    7.0060242
 
:EIG00101:       7.0060242    7.0831455    7.0831455    7.0831455    7.1130098
:EIG00106:       7.1130098    7.1130098    7.1168126    7.1168126    7.1168126
:EIG00111:       7.1802000    7.1802000    7.3808305    7.4286943    7.7133665
:EIG00116:       7.7133665    7.7133665
       ********************************************************

:KPT   :      NUMBER OF K-POINTS:   165

------- case.scfso --------
   0.0   0.0 angle (M,z), angle (M,x) deg
 
        SPIN-ORBIT EIGENVALUES:
     K=   0.00000   0.00000   0.00000            1
      MATRIX SIZE=  234   WEIGHT= 1.00
     EIGENVALUES ARE:
          -2.1725881   -2.1725881   -0.9669384   -0.9669384   -0.7537127
          -0.7537127   -0.7537127   -0.7537127    0.2207297    0.2207297
           0.4645239    0.4645239    0.4714113    0.4714113    0.4714113
           0.4714113    0.4945231    0.4945231    0.5032791    0.5032791
           0.5095761    0.5095761    0.5095761    0.5095761    0.5879654
           0.5879654    0.5879654    0.5879654    0.5977349    0.5977349
           0.7343908    0.7343908    0.7343908    0.7343908    1.1237532
           1.1237532    1.3171011    1.3171011    1.3250302    1.3250302

           1.3250302    1.3250302    1.4281362    1.4281362    1.9582582
           1.9582582    1.9746122    1.9746122    1.9746122    1.9746122
           1.9883123    1.9883123    2.0571240    2.0571240    2.0571240
           2.0571240    2.2601017    2.2601017    2.2601017    2.2601017
           2.5430555    2.5430555    2.7271655    2.7271655    2.7278300
           2.7278300    2.7278300    2.7278300    3.1305898    3.1305898
           3.1305898    3.1305898    3.3538909    3.3538909    3.3538909
           3.3538909    3.3579189    3.3579189    3.3585106    3.3585106

           3.4006288    3.4006288    3.4006288    3.4006288    3.5583485
           3.5583485    3.5583582    3.5583582    3.5583582    3.5583582
           3.7333550    3.7333550    3.8048292    3.8048292    3.8048292
           3.8048292    3.8049455    3.8049455    3.8983863    3.8983863
           3.8983863    3.8983863    3.9012678    3.9012678    3.9014506
           3.9014506    3.9014506    3.9014506    3.9109832    3.9109832
           3.9109832    3.9109832    3.9119701    3.9119701    4.0109125
           4.0109125    4.0789708    4.0789708    4.2076520    4.2076520

           4.2076520    4.2076520    4.2078255    4.2078255    4.2586753
           4.2586753    4.2598880    4.2598880    4.2598880    4.2598880
           4.4221513    4.4221513
       ********************************************************

------- case.scf2 --------
:GMA  : POTENTIAL AND CHARGE CUT-OFF  12.00 Ry**.5




:POS001: at.nr.   1 position = 0.00000 0.00000 0.50000  multiplicity =  1

       lmmax  5
       lm=   0 0  4 0  4 4  6 0  6 4
:FER gutzwiller fermi energy   0.48558
:EORB         -0.083594419
:SUM sum of gutz band energies         -7.200013262

:CHA001: total charge inside sphere   1 =    10.012805
:PCS001: partial charges sphere =  1 s,p,d,f,      d-eg,d-t2g 
:QTL001: 2.0233 5.3650 0.5788 2.0455 0.0000 0.0000 0.0000 0.2068 0.3720 0.0000 0.0000 0.0000

:CHA  : total charge inside unit cell =       6.499995

------- case.scfc --------

        1.ATOM      Pr                   14 CORE STATES
:1S 001: 1S               -3067.124326147 Ry
:2S 001: 2S                -492.873665006 Ry
:2PP001: 2P*               -465.973731728 Ry
:2P 001: 2P                -430.575900292 Ry
:3S 001: 3S                -105.955470854 Ry
:3PP001: 3P*                -94.493706522 Ry
:3P 001: 3P                 -87.485571437 Ry
:3DD001: 3D*                -67.413672885 Ry
:3D 001: 3D                 -65.901978025 Ry
:4S 001: 4S                 -20.636457628 Ry
:4PP001: 4P*                -16.343934687 Ry
:4P 001: 4P                 -14.817437570 Ry
:4DD001: 4D*                 -7.752307118 Ry
:4D 001: 4D                  -7.483231669 Ry

------- case.scfm --------
:CINT001 Core Integral Atom   1   45.999511

       DENSITY AT NUCLEUS
        JATOM        VALENCE       SEMI-CORE          CORE           TOTAL
:RTO001:   1      647.190181        0.000000   656824.413842   657471.604023
     
       CHARGES OF NEW CHARGE DENSITY
:NTO   : INTERSTITIAL CHARGE =     2.987307
:NPC   : PW Pseudocharge     =     7.534120
:NTO001: CHARGE SPHERE  1    =    56.012316

:NEC01: NUCLEAR AND ELECTRONIC CHARGE     59.00000    58.99962
     
       CHARGES OF OLD CHARGE DENSITY
:OTO   : INTERSTITIAL CHARGE =     2.961403
:OPC   : PW Pseudocharge     =     7.507994
:OTO001: CHARGE SPHERE  1    =    56.038597

:NEC02: NUCLEAR AND ELECTRONIC CHARGE     59.00000    59.00000
     
       CONVERGENCE TEST
:DTO001: DIFFERENCE IN SPHERE  1 =  0.0410362

:DIS  :  CHARGE DISTANCE       ( 0.0410362 for atom    1 spin 1)      0.0410362
 PW Mixed is           59
 
******************************************************
* MULTISECANT MIXING VER9 RELEASE 10.4.0              *
* Slow Mode, cautious                                *
* Fixed density scale                                *
* Regularization       1.000E-04                     *
* Step Trust Radius    0.75000                       *
* Trust Upper Limit    2.000E+00                     *
* Max Number of Memory Steps   12                    *
******************************************************
 
:PWTMP   2.1827E+02  1.2500E+02  2.8372E+02
:PLANE:  PW TOTAL      2.7289 DISTAN   5.98E-02  2.19E+00 %
:CHARG:  CLM/ATOM    977.1764 DISTAN   3.78E-01  3.87E-02 %
 
Step History
        DMIX         DMIXT        Red     Pred      Trust     Lambda    MagRel    MagAbs     Beta
  1   3.5000E-02   3.5000E-02 -1.00E+00  1.00E+00 -1.00E+01  1.00E+00  3.50E-02  3.50E-02  1.00E+00
  2   2.5000E-02   2.5000E-02  9.82E-01  1.00E+00 -1.00E+01  1.00E+00  2.50E-02  1.13E-02  1.00E+00
  3   2.8576E-02   2.8576E-02 -1.00E+00  1.00E+00 -1.00E+01  1.00E+00  2.86E-02  1.27E-02  1.00E+00
:JACOBIANS    2.605E-01   3.307E-01
  
:NORMS:  1/Froebius, Min, Max, Used   0.9911E+00  0.5015E+00  0.1003E+01  0.9938E+00
:INFO :  Number of Memory Steps    2 Skipping    0
:INFO :  SLambda=    0.8797940878  Max    0.8797940878
:PREDicted Charge, CTotal, PW Trust    2.155E-03   2.155E-03   2.412E-02
:PREDicted DMix, Beta, BLim   5.6569E-01  3.3314E+00  7.4794E-01

Eigenvalues, unscaled except for SY+YY
   #     SY Real        SY Imag          SS             YY         SY+YY Real      SY+YY Imag
   1   8.448797E-14   0.000000E+00   1.964380E+00   1.989014E+00   1.126710E-02   0.000000E+00
   2   1.889437E+00   0.000000E+00   0.000000E+00   1.098640E-02   3.651048E+00   0.000000E+00
 
:INFO :  Singular value  3.651E+00 Weight  1.000E+00 Projection -1.667E-01
:INFO :  Singular value  1.127E-02 Weight  9.997E-01 Projection  1.294E+00
:RANK :  ACTIVE   2.00/2  =  99.98 % ; YY RANK   2.00/2  =  99.98 %
 
:BLIM :  VZERO Control Off
:TRUST:  Step 2.24E-01  Charge 7.50E-02 (e) CTO  2.50E-01 (e) PW  3.50E-01 (e)
:DTRUS:  Lambda    2.302E+00 Increment    7.276E-12 Iterations   120 DMIX    2.558E-02
:INFOA:  Angle SubSpace to MSR1      0.00
:DIRM :  MEMORY  2/12 SCALE   1.000 RED  0.86 PRED  1.00 NEXT  0.85 
:INFO :  Limited by Atoms F by Step T

:TRAVE:  Charge 1.54E-04 (e) CTO  1.54E-04 (e) PW  5.63E-03 (e)
:DIRP :  |MSR1|= 5.042E-02 |PRATT|= 5.975E-02 ANGLE= 168.3 DEGREES
:DIRQ :  |MSR1|= 6.967E-02 |PRATT|= 3.784E-01 ANGLE=   6.5 DEGREES
:DIRT :  |MSR1|= 8.600E-02 |PRATT|= 3.831E-01 ANGLE=  45.1 DEGREES
:MIX  :   MSD1   REGULARIZATION:  1.99E-04 GREED: 0.07144  LMStep 0.36  0.2245 Step           
     
       CHARGES OF MIXED CHARGE DENSITY
:CTO   : INTERSTITIAL CHARGE =     2.961557
:CPC   : PW Pseudocharge     =     7.495067
:CTO001: CHARGE SPHERE  1    =    56.038443

:NEC03: NUCLEAR AND ELECTRONIC CHARGE     59.00000    59.00000

PW CHANGE     H    K    L      Current       Change    Residue
:PTO001:      0    0    0  3.68548705E-02 -4.502E-05  1.881E-04
:PTO002:     -1   -1   -1 -1.21284346E-01  6.088E-04 -7.074E-04
:PTO003:      0    0   -2  7.30561003E-02 -4.715E-04  6.885E-04
:PTO004:      0   -2   -2  6.57575792E-02 -1.216E-03  1.214E-03
:PTO005:     -1   -1   -3 -6.47750324E-02  2.448E-03 -2.905E-03
:PTO006:     -2   -2   -2  1.67334623E-02 -7.788E-04  1.183E-03
:PTO007:      0    0   -4  2.93969922E-03 -5.783E-04  7.517E-04
:PTO008:     -1   -3   -3 -3.69794415E-04  2.263E-03 -2.346E-03
:PTO009:      0   -2   -4 -2.78162456E-03 -2.225E-03  2.153E-03
:PTO010:     -2   -2   -4 -9.16172054E-03 -1.866E-03  2.381E-03
:PTO011:     -3   -3   -3  3.56538913E-03  5.198E-04 -8.859E-04
:PTO012:     -1   -1   -5  1.06088087E-02  1.675E-03 -2.015E-03

:ENE  : ********** TOTAL ENERGY IN Ry =       -18472.10966095


------- case.scf0 --------
 Flat Integration
 New Mode for Coulomb Integral
 Consistent 3/8+Simpson combinations
 Extension of core to zero
 LDM version in phi
 Fifth-order quadrature in outwin


            ---------
:ITE029: 29. ITERATION
            ---------

:NATO :    1 INDEPENDENT AND    1 TOTAL ATOMS IN UNITCELL
       SUBSTANCE: blebleble                                                   

       LATTICE                      = F   
:POT  : POTENTIAL OPTION EX_LDA EC_LDA VX_LDA VC_LDA
:LAT  : LATTICE CONSTANTS= 10.43083 10.43083 10.43083    1.571    1.571    1.571
:VOL  : UNIT CELL VOLUME =     283.72435
       MODE OF CALCULATION IS       = RELA
       NON-SPINPOLARIZED CALCULATION
:IFFT  : FFT-parameters:   80   80   80 Factor: 2.00


   CONVERGENCE PARAMETER FOR PSEUDOCHARGE: NCON=  9
   MAXIMAL VALUE OF RMT(JATOM)*ABSK(NKK) : RK  =29.96737


:VKCOUL :  VK-COUL convergence: 0.184E-06
       ATOMNUMBER=  1 Pr         VCOUL-ZERO =  0.11198E+00
:FIT001: LUSE= 13 SIGMA OF V-XC FIT FOR ATOM  1  0.2514995E-04
:FIT001: LUSE= 13 SIGMA OF V-XC FIT FOR ATOM  1  0.2514995E-04
:DEN  : DENSITY INTEGRAL  =         -7065.63215905   (Ry)
       ELS_POTENTIAL_AT Z=0 and Z=0.5:  -2.35685  -2.35685
       ELS_POTENTIAL_AT Y=0 and Y=0.5:   0.00000   0.00000
:VZERO:v0,v0c,v0x  -3.28433  -2.35685  -0.92748 v5,v5c,v5x  -3.28433  -2.35685  -0.92748
:VZERY:v0,v0c,v0x  -0.66440   0.00000  -0.66440 v5,v5c,v5x  -0.66440   0.00000  -0.66440
:VZERX:v0,v0c,v0x  -0.66440   0.00000  -0.66440 v5,v5c,v5x  -0.66440   0.00000  -0.66440

------- case.scf1 --------
:LMAX-WF:   10   Non-Spherical LMAX:   4

          ATOMIC SPHERE DEPENDENT PARAMETERS FOR ATOM  Pr        
:e__0001: OVERALL ENERGY PARAMETER IS    0.2687
          OVERALL BASIS SET ON ATOM IS LAPW
:E0_0001: E( 0)=    0.2687
             APW+lo
:E0_0001: E( 0)=   -2.2161   E(BOTTOM)=   -2.598   E(TOP)=   -1.834  4  5   160
             LOCAL ORBITAL
:E1_0001: E( 1)=    0.6687
             APW+lo
:E1_0001: E( 1)=   -0.8294   E(BOTTOM)=   -1.477   E(TOP)=   -0.182  3  4   166
             LOCAL ORBITAL
:E3_0001: E( 3)=    0.4657   E(BOTTOM)=    0.322   E(TOP)=    0.610  0  1   119
             APW+lo
:E2_0001: E( 2)=    0.2687   E(BOTTOM)=    0.098   E(TOP)= -200.000  2 -1    98
             APW+lo

       K=   0.00000   0.00000   0.00000            1
:RKM  : MATRIX SIZE   189LOs:  20  RKM= 7.82  WEIGHT= 1.00  PGR:    
       EIGENVALUES ARE:
:EIG00001:      -2.1715836   -0.8206888   -0.8206888   -0.8206888    0.2217225
:EIG00006:       0.4711291    0.4840405    0.4840405    0.4840405    0.5031455
:EIG00011:       0.5031455    0.5031455    0.5925863    0.5925863    0.5925863
:EIG00016:       0.7349801    0.7349801    1.1247148    1.3236148    1.3236148
:EIG00021:       1.3236148    1.4291930    1.9803357    1.9803357    1.9803357
:EIG00026:       2.0245382    2.0245382    2.0245382    2.2607653    2.2607653
:EIG00031:       2.5440825    2.7285725    2.7285725    2.7285725    3.1316758
:EIG00036:       3.1316758    3.3561949    3.3561949    3.3561949    3.3868086
:EIG00041:       3.3868086    3.3868086    3.5593619    3.5593619    3.5593619
:EIG00046:       3.7343835    3.8058128    3.8058128    3.8058128    3.8993411
 
:EIG00051:       3.8993411    3.9023358    3.9023358    3.9023358    3.9123535
:EIG00056:       3.9123535    3.9123535    4.0119255    4.0799845    4.2087279
:EIG00061:       4.2087279    4.2087279    4.2604488    4.2604488    4.2604488
:EIG00066:       4.4231852    5.4219404    5.4219404    5.4417857    5.6825153
:EIG00071:       5.6825153    5.6825153    6.0744094    6.0744094    6.2225691
:EIG00076:       6.2225691    6.2225691    6.2991111    6.2991111    6.2991111
:EIG00081:       6.6005391    6.6005391    6.6005391    6.6302038    6.6302038
:EIG00086:       6.6302038    6.6758248    6.6758248    6.7258012    6.7258012
:EIG00091:       6.7258012    6.8224094    6.8224094    6.8224094    6.8306005
:EIG00096:       6.8306005    6.8306005    6.8795819    6.9936201    7.0071037
 
:EIG00101:       7.0071037    7.0841645    7.0841645    7.0841645    7.1140052
:EIG00106:       7.1140052    7.1140052    7.1178664    7.1178664    7.1178664
:EIG00111:       7.1812145    7.1812145    7.3818137    7.4297828    7.7143492
:EIG00116:       7.7143492    7.7143492
       ********************************************************

:KPT   :      NUMBER OF K-POINTS:   165

------- case.scfso --------
   0.0   0.0 angle (M,z), angle (M,x) deg
 
        SPIN-ORBIT EIGENVALUES:
     K=   0.00000   0.00000   0.00000            1
      MATRIX SIZE=  234   WEIGHT= 1.00
     EIGENVALUES ARE:
          -2.1715836   -2.1715836   -0.9659413   -0.9659413   -0.7527178
          -0.7527178   -0.7527178   -0.7527178    0.2217225    0.2217225
           0.4656096    0.4656096    0.4725943    0.4725943    0.4725943
           0.4725943    0.4956983    0.4956983    0.5044599    0.5044599
           0.5107721    0.5107721    0.5107721    0.5107721    0.5889189
           0.5889189    0.5889189    0.5889189    0.5986875    0.5986875
           0.7353918    0.7353918    0.7353918    0.7353918    1.1247643
           1.1247643    1.3181472    1.3181472    1.3260748    1.3260748

           1.3260748    1.3260748    1.4291930    1.4291930    1.9592701
           1.9592701    1.9756080    1.9756080    1.9756080    1.9756080
           1.9893062    1.9893062    2.0581355    2.0581355    2.0581355
           2.0581355    2.2610459    2.2610459    2.2610459    2.2610459
           2.5440825    2.5440825    2.7281388    2.7281388    2.7288034
           2.7288034    2.7288034    2.7288034    3.1316545    3.1316545
           3.1316545    3.1316545    3.3549287    3.3549287    3.3549287
           3.3549287    3.3589553    3.3589553    3.3595281    3.3595281

           3.4016445    3.4016445    3.4016445    3.4016445    3.5593554
           3.5593554    3.5593652    3.5593652    3.5593652    3.5593652
           3.7343835    3.7343835    3.8057755    3.8057755    3.8057755
           3.8057755    3.8058917    3.8058917    3.8993411    3.8993411
           3.8993411    3.8993411    3.9021880    3.9021880    3.9023715
           3.9023715    3.9023715    3.9023715    3.9120542    3.9120542
           3.9120542    3.9120542    3.9130418    3.9130418    4.0119330
           4.0119330    4.0799845    4.0799845    4.2086713    4.2086713

           4.2086713    4.2086713    4.2088447    4.2088447    4.2596714
           4.2596714    4.2608831    4.2608831    4.2608831    4.2608831
           4.4231888    4.4231888
       ********************************************************

------- case.scf2 --------
:GMA  : POTENTIAL AND CHARGE CUT-OFF  12.00 Ry**.5




:POS001: at.nr.   1 position = 0.00000 0.00000 0.50000  multiplicity =  1

       lmmax  5
       lm=   0 0  4 0  4 4  6 0  6 4
:FER gutzwiller fermi energy   0.48787
:EORB         -0.086857263
:SUM sum of gutz band energies         -7.183770429

:CHA001: total charge inside sphere   1 =     9.998463
:PCS001: partial charges sphere =  1 s,p,d,f,      d-eg,d-t2g 
:QTL001: 2.0233 5.3658 0.5859 2.0232 0.0000 0.0000 0.0000 0.2092 0.3767 0.0000 0.0000 0.0000

:CHA  : total charge inside unit cell =       6.500000

------- case.scfc --------

        1.ATOM      Pr                   14 CORE STATES
:1S 001: 1S               -3067.121726146 Ry
:2S 001: 2S                -492.871231651 Ry
:2PP001: 2P*               -465.971258749 Ry
:2P 001: 2P                -430.573442015 Ry
:3S 001: 3S                -105.953443738 Ry
:3PP001: 3P*                -94.491655892 Ry
:3P 001: 3P                 -87.483547239 Ry
:3DD001: 3D*                -67.411582088 Ry
:3D 001: 3D                 -65.899895932 Ry
:4S 001: 4S                 -20.635042706 Ry
:4PP001: 4P*                -16.342536756 Ry
:4P 001: 4P                 -14.816073382 Ry
:4DD001: 4D*                 -7.750983549 Ry
:4D 001: 4D                  -7.481918030 Ry

------- case.scfm --------
:CINT001 Core Integral Atom   1   45.999511

       DENSITY AT NUCLEUS
        JATOM        VALENCE       SEMI-CORE          CORE           TOTAL
:RTO001:   1      647.200004        0.000000   656824.267515   657471.467519
     
       CHARGES OF NEW CHARGE DENSITY
:NTO   : INTERSTITIAL CHARGE =     3.001491
:NPC   : PW Pseudocharge     =     7.539198
:NTO001: CHARGE SPHERE  1    =    55.997974

:NEC01: NUCLEAR AND ELECTRONIC CHARGE     59.00000    58.99947
     
       CHARGES OF OLD CHARGE DENSITY
:OTO   : INTERSTITIAL CHARGE =     2.961557
:OPC   : PW Pseudocharge     =     7.495067
:OTO001: CHARGE SPHERE  1    =    56.038443

:NEC02: NUCLEAR AND ELECTRONIC CHARGE     59.00000    59.00000
     
       CONVERGENCE TEST
:DTO001: DIFFERENCE IN SPHERE  1 =  0.0653987

:DIS  :  CHARGE DISTANCE       ( 0.0653987 for atom    1 spin 1)      0.0653987
 PW Mixed is           59
 
******************************************************
* MULTISECANT MIXING VER9 RELEASE 10.4.0              *
* Standard Mode with controls                        *
* Fixed density scale                                *
* Regularization       1.000E-04                     *
* Trust Upper Limit    5.000E+00                     *
* Max Number of Memory Steps    8                    *
******************************************************
 
:PWTMP   2.1827E+02  1.2500E+02  2.8372E+02
:PLANE:  PW TOTAL      2.7125 DISTAN   1.10E-01  4.04E+00 %
:CHARG:  CLM/ATOM    977.1771 DISTAN   3.18E-01  3.25E-02 %
 
Step History
        DMIX         DMIXT        Red     Pred      Trust     Lambda    MagRel    MagAbs     Beta
  1   3.5000E-02   3.5000E-02 -1.00E+00  1.00E+00 -1.00E+01  1.00E+00  3.50E-02  3.50E-02  1.00E+00
  2   2.5000E-02   2.5000E-02  9.82E-01  1.00E+00 -1.00E+01  1.00E+00  2.50E-02  1.13E-02  1.00E+00
  3   2.8576E-02   2.8576E-02  8.64E-01  1.00E+00 -1.00E+01  8.80E-01  2.86E-02  1.27E-02  1.00E+00
  4   7.1441E-02   2.5576E-02 -1.00E+00  8.45E-01  2.24E-01  1.00E+00  2.24E-01  8.60E-02  1.00E+00
:JACOBIANS    6.130E-01   6.733E-01
  
:NORMS:  1/Froebius, Min, Max, Used   0.9960E+00  0.6784E+00  0.1035E+01  0.9965E+00
:INFO :  Number of Memory Steps    3 Skipping    0
:INFO :  SLambda=    0.8069107500  Max    0.8069107500
:PREDicted Charge, CTotal, PW Trust    1.432E-02   1.432E-02   8.922E-05
:PREDicted DMix, Beta, BLim   8.3595E-01  1.8478E+00  1.0084E+00

Eigenvalues, unscaled except for SY+YY
   #     SY Real        SY Imag          SS             YY         SY+YY Real      SY+YY Imag
   1   2.854739E+00   0.000000E+00   2.974816E+00   2.995498E+00   5.298939E+00   0.000000E+00
   2   2.410656E-14   0.000000E+00   1.382965E-03   3.245931E-03   3.401180E-03   0.000000E+00
   3   1.323520E-03   0.000000E+00   1.996806E-16   1.256272E-03   2.247658E-03   0.000000E+00
 
:INFO :  Singular value  5.299E+00 Weight  1.000E+00 Projection -9.438E-02
:INFO :  Singular value  3.401E-03 Weight  9.923E-01 Projection  4.169E+00
:INFO :  Singular value  2.248E-03 Weight  9.825E-01 Projection -6.328E+00
:RANK :  ACTIVE   2.97/3  =  99.16 % ; YY RANK   2.94/3  =  97.93 %
 
:BLIM :  VZERO Control Off
:TRUST:  Step 6.16E-01  Charge 7.50E-02 (e) CTO  2.50E-01 (e) PW  3.50E-01 (e)
:DTRUS:  Lambda    1.080E+00 Increment    7.276E-12 Iterations   110 DMIX    1.535E-01
:INFOA:  Angle SubSpace to MSR1      0.48
:DIRM :  MEMORY  3/8  SCALE   1.000 RED  0.88 PRED  0.85 NEXT  0.37 
:INFO :  Limited by Atoms F by Step T

:TRAVE:  Charge 4.72E-03 (e) CTO  4.72E-03 (e) PW  5.22E-03 (e)
:DIRP :  |MSR1|= 6.859E-02 |PRATT|= 1.096E-01 ANGLE=   5.1 DEGREES
:DIRQ :  |MSR1|= 1.956E-01 |PRATT|= 3.178E-01 ANGLE=  16.6 DEGREES
:DIRT :  |MSR1|= 2.073E-01 |PRATT|= 3.362E-01 ANGLE=  15.8 DEGREES
:MIX  :   MSD1   REGULARIZATION:  3.00E-04 GREED: 0.17860  LMStep 0.63  0.6164 Step           
     
       CHARGES OF MIXED CHARGE DENSITY
:CTO   : INTERSTITIAL CHARGE =     2.952281
:CPC   : PW Pseudocharge     =     7.515277
:CTO001: CHARGE SPHERE  1    =    56.047719

:NEC03: NUCLEAR AND ELECTRONIC CHARGE     59.00000    59.00000

PW CHANGE     H    K    L      Current       Change    Residue
:PTO001:      0    0    0  3.68934081E-02  3.854E-05  3.029E-04
:PTO002:     -1   -1   -1 -1.22150906E-01 -8.666E-04 -1.339E-03
:PTO003:      0    0   -2  7.38275065E-02  7.714E-04  1.161E-03
:PTO004:      0   -2   -2  6.72763776E-02  1.519E-03  2.431E-03
:PTO005:     -1   -1   -3 -6.81543152E-02 -3.379E-03 -5.334E-03
:PTO006:     -2   -2   -2  1.79673693E-02  1.234E-03  1.965E-03
:PTO007:      0    0   -4  3.78240593E-03  8.427E-04  1.323E-03
:PTO008:     -1   -3   -3 -3.23279034E-03 -2.863E-03 -4.593E-03
:PTO009:      0   -2   -4 -5.07904381E-05  2.731E-03  4.354E-03
:PTO010:     -2   -2   -4 -6.51088641E-03  2.651E-03  4.238E-03
:PTO011:     -3   -3   -3  2.68731732E-03 -8.781E-04 -1.407E-03
:PTO012:     -1   -1   -5  8.29417936E-03 -2.315E-03 -3.674E-03

:ENE  : ********** TOTAL ENERGY IN Ry =       -18472.10997488


------- case.scf0 --------
 Flat Integration
 New Mode for Coulomb Integral
 Consistent 3/8+Simpson combinations
 Extension of core to zero
 LDM version in phi
 Fifth-order quadrature in outwin


            ---------
:ITE030: 30. ITERATION
            ---------

:NATO :    1 INDEPENDENT AND    1 TOTAL ATOMS IN UNITCELL
       SUBSTANCE: blebleble                                                   

       LATTICE                      = F   
:POT  : POTENTIAL OPTION EX_LDA EC_LDA VX_LDA VC_LDA
:LAT  : LATTICE CONSTANTS= 10.43083 10.43083 10.43083    1.571    1.571    1.571
:VOL  : UNIT CELL VOLUME =     283.72435
       MODE OF CALCULATION IS       = RELA
       NON-SPINPOLARIZED CALCULATION
:IFFT  : FFT-parameters:   80   80   80 Factor: 2.00


   CONVERGENCE PARAMETER FOR PSEUDOCHARGE: NCON=  9
   MAXIMAL VALUE OF RMT(JATOM)*ABSK(NKK) : RK  =29.96737


:VKCOUL :  VK-COUL convergence: 0.975E-07
       ATOMNUMBER=  1 Pr         VCOUL-ZERO =  0.11106E+00
:FIT001: LUSE= 13 SIGMA OF V-XC FIT FOR ATOM  1  0.1396844E-04
:FIT001: LUSE= 13 SIGMA OF V-XC FIT FOR ATOM  1  0.1396844E-04
:DEN  : DENSITY INTEGRAL  =         -7066.56172331   (Ry)
       ELS_POTENTIAL_AT Z=0 and Z=0.5:  -2.34246  -2.34246
       ELS_POTENTIAL_AT Y=0 and Y=0.5:   0.00000   0.00000
:VZERO:v0,v0c,v0x  -3.27372  -2.34246  -0.93126 v5,v5c,v5x  -3.27372  -2.34246  -0.93126
:VZERY:v0,v0c,v0x  -0.66396   0.00000  -0.66396 v5,v5c,v5x  -0.66396   0.00000  -0.66396
:VZERX:v0,v0c,v0x  -0.66396   0.00000  -0.66396 v5,v5c,v5x  -0.66396   0.00000  -0.66396

------- case.scf1 --------
:LMAX-WF:   10   Non-Spherical LMAX:   4

          ATOMIC SPHERE DEPENDENT PARAMETERS FOR ATOM  Pr        
:e__0001: OVERALL ENERGY PARAMETER IS    0.2687
          OVERALL BASIS SET ON ATOM IS LAPW
:E0_0001: E( 0)=    0.2687
             APW+lo
:E0_0001: E( 0)=   -2.2101   E(BOTTOM)=   -2.593   E(TOP)=   -1.827  4  5   156
             LOCAL ORBITAL
:E1_0001: E( 1)=    0.6687
             APW+lo
:E1_0001: E( 1)=   -0.8245   E(BOTTOM)=   -1.474   E(TOP)=   -0.175  3  4   167
             LOCAL ORBITAL
:E3_0001: E( 3)=    0.4770   E(BOTTOM)=    0.331   E(TOP)=    0.623  0  1   121
             APW+lo
:E2_0001: E( 2)=    0.2687   E(BOTTOM)=    0.100   E(TOP)= -200.000  2 -1    97
             APW+lo

       K=   0.00000   0.00000   0.00000            1
:RKM  : MATRIX SIZE   189LOs:  20  RKM= 7.82  WEIGHT= 1.00  PGR:    
       EIGENVALUES ARE:
:EIG00001:      -2.1657083   -0.8162823   -0.8162823   -0.8162823    0.2207274
:EIG00006:       0.4811822    0.4950182    0.4950182    0.4950182    0.5147995
:EIG00011:       0.5147995    0.5147995    0.5930111    0.5930111    0.5930111
:EIG00016:       0.7362102    0.7362102    1.1247243    1.3231451    1.3231451
:EIG00021:       1.3231451    1.4273084    1.9812291    1.9812291    1.9812291
:EIG00026:       2.0250737    2.0250737    2.0250737    2.2607934    2.2607934
:EIG00031:       2.5440861    2.7279846    2.7279846    2.7279846    3.1315656
:EIG00036:       3.1315656    3.3557827    3.3557827    3.3557827    3.3858589
:EIG00041:       3.3858589    3.3858589    3.5586638    3.5586638    3.5586638
:EIG00046:       3.7338941    3.8042620    3.8042620    3.8042620    3.8976376
 
:EIG00051:       3.8976376    3.9007418    3.9007418    3.9007418    3.9112925
:EIG00056:       3.9112925    3.9112925    4.0104785    4.0790898    4.2069354
:EIG00061:       4.2069354    4.2069354    4.2588286    4.2588286    4.2588286
:EIG00066:       4.4215974    5.4210926    5.4210926    5.4408349    5.6815930
:EIG00071:       5.6815930    5.6815930    6.0749442    6.0749442    6.2233064
:EIG00076:       6.2233064    6.2233064    6.2993992    6.2993992    6.2993992
:EIG00081:       6.5999390    6.5999390    6.5999390    6.6292093    6.6292093
:EIG00086:       6.6292093    6.6744449    6.6744449    6.7245983    6.7245983
:EIG00091:       6.7245983    6.8214321    6.8214321    6.8214321    6.8294827
:EIG00096:       6.8294827    6.8294827    6.8785263    6.9922016    7.0063204
 
:EIG00101:       7.0063204    7.0826247    7.0826247    7.0826247    7.1121603
:EIG00106:       7.1121603    7.1121603    7.1163490    7.1163490    7.1163490
:EIG00111:       7.1795183    7.1795183    7.3796105    7.4294903    7.7122611
:EIG00116:       7.7122611    7.7122611
       ********************************************************

:KPT   :      NUMBER OF K-POINTS:   165

------- case.scfso --------
   0.0   0.0 angle (M,z), angle (M,x) deg
 
        SPIN-ORBIT EIGENVALUES:
     K=   0.00000   0.00000   0.00000            1
      MATRIX SIZE=  234   WEIGHT= 1.00
     EIGENVALUES ARE:
          -2.1657083   -2.1657083   -0.9612166   -0.9612166   -0.7484659
          -0.7484659   -0.7484659   -0.7484659    0.2207274    0.2207274
           0.4759410    0.4759410    0.4837449    0.4837449    0.4837449
           0.4837449    0.5066024    0.5066024    0.5158485    0.5158485
           0.5222808    0.5222808    0.5222808    0.5222808    0.5893692
           0.5893692    0.5893692    0.5893692    0.5990782    0.5990782
           0.7366144    0.7366144    0.7366144    0.7366144    1.1247761
           1.1247761    1.3177242    1.3177242    1.3255842    1.3255842

           1.3255842    1.3255842    1.4273084    1.4273084    1.9598099
           1.9598099    1.9765015    1.9765015    1.9765015    1.9765015
           1.9901969    1.9901969    2.0586625    2.0586625    2.0586625
           2.0586625    2.2610742    2.2610742    2.2610742    2.2610742
           2.5440861    2.5440861    2.7275468    2.7275468    2.7282177
           2.7282177    2.7282177    2.7282177    3.1315441    3.1315441
           3.1315441    3.1315441    3.3545145    3.3545145    3.3545145
           3.3545145    3.3585330    3.3585330    3.3585481    3.3585481

           3.4007201    3.4007201    3.4007201    3.4007201    3.5586574
           3.5586574    3.5586671    3.5586671    3.5586671    3.5586671
           3.7338941    3.7338941    3.8042250    3.8042250    3.8042250
           3.8042250    3.8043404    3.8043404    3.8976376    3.8976376
           3.8976376    3.8976376    3.9005926    3.9005926    3.9007795
           3.9007795    3.9007795    3.9007795    3.9109895    3.9109895
           3.9109895    3.9109895    3.9119854    3.9119854    4.0104861
           4.0104861    4.0790898    4.0790898    4.2068786    4.2068786

           4.2068786    4.2068786    4.2070525    4.2070525    4.2580512
           4.2580512    4.2592630    4.2592630    4.2592630    4.2592630
           4.4216010    4.4216010
       ********************************************************

------- case.scf2 --------
:GMA  : POTENTIAL AND CHARGE CUT-OFF  12.00 Ry**.5




:POS001: at.nr.   1 position = 0.00000 0.00000 0.50000  multiplicity =  1

       lmmax  5
       lm=   0 0  4 0  4 4  6 0  6 4
:FER gutzwiller fermi energy   0.49093
:EORB         -0.071345741
:SUM sum of gutz band energies         -7.140186755

:CHA001: total charge inside sphere   1 =     9.960449
:PCS001: partial charges sphere =  1 s,p,d,f,      d-eg,d-t2g 
:QTL001: 2.0230 5.3637 0.5972 1.9763 0.0000 0.0000 0.0000 0.2132 0.3839 0.0000 0.0000 0.0000

:CHA  : total charge inside unit cell =       6.500000

------- case.scfc --------

        1.ATOM      Pr                   14 CORE STATES
:1S 001: 1S               -3067.101093828 Ry
:2S 001: 2S                -492.850205297 Ry
:2PP001: 2P*               -465.950313021 Ry
:2P 001: 2P                -430.552466323 Ry
:3S 001: 3S                -105.932399536 Ry
:3PP001: 3P*                -94.470591322 Ry
:3P 001: 3P                 -87.462546125 Ry
:3DD001: 3D*                -67.390486301 Ry
:3D 001: 3D                 -65.878812637 Ry
:4S 001: 4S                 -20.618345925 Ry
:4PP001: 4P*                -16.326126492 Ry
:4P 001: 4P                 -14.800101435 Ry
:4DD001: 4D*                 -7.735794226 Ry
:4D 001: 4D                  -7.466878490 Ry

------- case.scfm --------
:CINT001 Core Integral Atom   1   45.999507

       DENSITY AT NUCLEUS
        JATOM        VALENCE       SEMI-CORE          CORE           TOTAL
:RTO001:   1      646.272808        0.000000   656823.441474   657469.714283
     
       CHARGES OF NEW CHARGE DENSITY
:NTO   : INTERSTITIAL CHARGE =     3.039665
:NPC   : PW Pseudocharge     =     7.553363
:NTO001: CHARGE SPHERE  1    =    55.959956

:NEC01: NUCLEAR AND ELECTRONIC CHARGE     59.00000    58.99962
     
       CHARGES OF OLD CHARGE DENSITY
:OTO   : INTERSTITIAL CHARGE =     2.952281
:OPC   : PW Pseudocharge     =     7.515277
:OTO001: CHARGE SPHERE  1    =    56.047719

:NEC02: NUCLEAR AND ELECTRONIC CHARGE     59.00000    59.00000
     
       CONVERGENCE TEST
:DTO001: DIFFERENCE IN SPHERE  1 =  0.1479723

:DIS  :  CHARGE DISTANCE       ( 0.1479723 for atom    1 spin 1)      0.1479723
 PW Mixed is           59
 
******************************************************
* MULTISECANT MIXING VER9 RELEASE 10.4.0              *
* Standard Mode with controls                        *
* Fixed density scale                                *
* Regularization       1.000E-04                     *
* Trust Upper Limit    5.000E+00                     *
* Max Number of Memory Steps    8                    *
******************************************************
 
:PWTMP   2.1827E+02  1.2500E+02  2.8372E+02
:PLANE:  PW TOTAL      2.7357 DISTAN   4.31E-02  1.57E+00 %
:CHARG:  CLM/ATOM    977.1766 DISTAN   1.95E-01  2.00E-02 %
 
Step History
        DMIX         DMIXT        Red     Pred      Trust     Lambda    MagRel    MagAbs     Beta
  1   3.5000E-02   3.5000E-02 -1.00E+00  1.00E+00 -1.00E+01  1.00E+00  3.50E-02  3.50E-02  1.00E+00
  2   2.5000E-02   2.5000E-02  9.82E-01  1.00E+00 -1.00E+01  1.00E+00  2.50E-02  1.13E-02  1.00E+00
  3   2.8576E-02   2.8576E-02  8.64E-01  1.00E+00 -1.00E+01  8.80E-01  2.86E-02  1.27E-02  1.00E+00
  4   7.1441E-02   2.5576E-02  8.78E-01  8.45E-01  2.24E-01  8.07E-01  2.24E-01  8.60E-02  1.00E+00
  5   1.7860E-01   1.5346E-01 -1.00E+00  3.70E-01  6.16E-01  1.00E+00  6.16E-01  2.07E-01  1.00E+00
:JACOBIANS    8.051E-01   8.311E-01
  
:NORMS:  1/Froebius, Min, Max, Used   0.9741E+00  0.5866E+00  0.1001E+01  0.9741E+00
:INFO :  Number of Memory Steps    4 Skipping    0
:INFO :  SLambda=    0.4991150292  Max    0.4991150292
:PREDicted Charge, CTotal, PW Trust    1.423E-02   1.423E-02   7.616E-03
:PREDicted DMix, Beta, BLim   2.7793E-02  1.4220E+00  9.4042E-01

Eigenvalues, unscaled except for SY+YY
   #     SY Real        SY Imag          SS             YY         SY+YY Real      SY+YY Imag
   1   3.519023E+00   0.000000E+00   3.655388E+00   3.859035E+00   5.615410E+00   0.000000E+00
   2   1.396972E-01   0.000000E+00   1.401679E-01   1.400776E-01   2.097980E-01   0.000000E+00
   3   6.997171E-15   0.000000E+00   1.252853E-07   8.862993E-04   9.137208E-04   0.000000E+00
   4   2.364922E-07   0.000000E+00  -8.427610E-17   6.063484E-07   7.161523E-07   0.000000E+00
 
:INFO :  Singular value  5.615E+00 Weight  1.000E+00 Projection -4.035E-02
:INFO :  Singular value  2.098E-01 Weight  1.000E+00 Projection -7.665E-02
:INFO :  Singular value  9.137E-04 Weight  8.486E-01 Projection  5.355E+00
:INFO :  Singular value  7.161E-07 Weight  3.444E-06 Projection  6.001E-05
:RANK :  ACTIVE   2.85/4  =  71.22 % ; YY RANK   2.84/4  =  71.02 %
 
:BLIM :  VZERO Control Off
:TRUST:  Step 8.22E-01  Charge 7.50E-02 (e) CTO  2.50E-01 (e) PW  3.50E-01 (e)
:DIRM :  MEMORY  4/8  SCALE   1.000 RED  0.59 PRED  0.37 NEXT  0.17 
:TRAVE:  Charge 4.29E-03 (e) CTO  4.29E-03 (e) PW  4.27E-03 (e)
:DIRP :  |MSR1|= 3.928E-02 |PRATT|= 4.308E-02 ANGLE=  22.8 DEGREES
:DIRQ :  |MSR1|= 1.009E-01 |PRATT|= 1.952E-01 ANGLE=  53.0 DEGREES
:DIRT :  |MSR1|= 1.083E-01 |PRATT|= 1.999E-01 ANGLE=  51.7 DEGREES
:MIX  :   MSD1   REGULARIZATION:  3.86E-04 GREED: 0.07144  Newton 1.00  0.5418                
     
       CHARGES OF MIXED CHARGE DENSITY
:CTO   : INTERSTITIAL CHARGE =     2.948423
:CPC   : PW Pseudocharge     =     7.526680
:CTO001: CHARGE SPHERE  1    =    56.051577

:NEC03: NUCLEAR AND ELECTRONIC CHARGE     59.00000    59.00000

PW CHANGE     H    K    L      Current       Change    Residue
:PTO001:      0    0    0  3.69199966E-02  2.659E-05  4.469E-04
:PTO002:     -1   -1   -1 -1.22637797E-01 -4.869E-04 -4.925E-04
:PTO003:      0    0   -2  7.42601873E-02  4.327E-04  3.963E-04
:PTO004:      0   -2   -2  6.81481121E-02  8.717E-04  8.712E-04
:PTO005:     -1   -1   -3 -7.00835826E-02 -1.929E-03 -1.839E-03
:PTO006:     -2   -2   -2  1.86666251E-02  6.993E-04  7.091E-04
:PTO007:      0    0   -4  4.26302343E-03  4.806E-04  4.583E-04
:PTO008:     -1   -3   -3 -4.88346110E-03 -1.651E-03 -1.656E-03
:PTO009:      0   -2   -4  1.52724330E-03  1.578E-03  1.543E-03
:PTO010:     -2   -2   -4 -4.99285731E-03  1.518E-03  1.558E-03
:PTO011:     -3   -3   -3  2.18938229E-03 -4.979E-04 -5.309E-04
:PTO012:     -1   -1   -5  6.96604718E-03 -1.328E-03 -1.331E-03

:ENE  : ********** TOTAL ENERGY IN Ry =       -18472.11113105


------- case.scf0 --------
 Flat Integration
 New Mode for Coulomb Integral
 Consistent 3/8+Simpson combinations
 Extension of core to zero
 LDM version in phi
 Fifth-order quadrature in outwin


            ---------
:ITE031: 31. ITERATION
            ---------

:NATO :    1 INDEPENDENT AND    1 TOTAL ATOMS IN UNITCELL
       SUBSTANCE: blebleble                                                   

       LATTICE                      = F   
:POT  : POTENTIAL OPTION EX_LDA EC_LDA VX_LDA VC_LDA
:LAT  : LATTICE CONSTANTS= 10.43083 10.43083 10.43083    1.571    1.571    1.571
:VOL  : UNIT CELL VOLUME =     283.72435
       MODE OF CALCULATION IS       = RELA
       NON-SPINPOLARIZED CALCULATION
:IFFT  : FFT-parameters:   80   80   80 Factor: 2.00


   CONVERGENCE PARAMETER FOR PSEUDOCHARGE: NCON=  9
   MAXIMAL VALUE OF RMT(JATOM)*ABSK(NKK) : RK  =29.96737


:VKCOUL :  VK-COUL convergence: 0.609E-07
       ATOMNUMBER=  1 Pr         VCOUL-ZERO =  0.11047E+00
:FIT001: LUSE= 13 SIGMA OF V-XC FIT FOR ATOM  1  0.1094435E-04
:FIT001: LUSE= 13 SIGMA OF V-XC FIT FOR ATOM  1  0.1094435E-04
:DEN  : DENSITY INTEGRAL  =         -7066.91419055   (Ry)
       ELS_POTENTIAL_AT Z=0 and Z=0.5:  -2.33485  -2.33485
       ELS_POTENTIAL_AT Y=0 and Y=0.5:   0.00000   0.00000
:VZERO:v0,v0c,v0x  -3.26817  -2.33485  -0.93332 v5,v5c,v5x  -3.26817  -2.33485  -0.93332
:VZERY:v0,v0c,v0x  -0.66377   0.00000  -0.66377 v5,v5c,v5x  -0.66377   0.00000  -0.66377
:VZERX:v0,v0c,v0x  -0.66377   0.00000  -0.66377 v5,v5c,v5x  -0.66377   0.00000  -0.66377

------- case.scf1 --------
:LMAX-WF:   10   Non-Spherical LMAX:   4

          ATOMIC SPHERE DEPENDENT PARAMETERS FOR ATOM  Pr        
:e__0001: OVERALL ENERGY PARAMETER IS    0.2687
          OVERALL BASIS SET ON ATOM IS LAPW
:E0_0001: E( 0)=    0.2687
             APW+lo
:E0_0001: E( 0)=   -2.2079   E(BOTTOM)=   -2.591   E(TOP)=   -1.824  4  5   162
             LOCAL ORBITAL
:E1_0001: E( 1)=    0.6687
             APW+lo
:E1_0001: E( 1)=   -0.8226   E(BOTTOM)=   -1.472   E(TOP)=   -0.173  3  4   163
             LOCAL ORBITAL
:E3_0001: E( 3)=    0.4814   E(BOTTOM)=    0.335   E(TOP)=    0.628  0  1   124
             APW+lo
:E2_0001: E( 2)=    0.2687   E(BOTTOM)=    0.101   E(TOP)= -200.000  2 -1    97
             APW+lo

       K=   0.00000   0.00000   0.00000            1
:RKM  : MATRIX SIZE   189LOs:  20  RKM= 7.82  WEIGHT= 1.00  PGR:    
       EIGENVALUES ARE:
:EIG00001:      -2.1635143   -0.8146902   -0.8146902   -0.8146902    0.2201079
:EIG00006:       0.4850186    0.4992663    0.4992663    0.4992663    0.5193355
:EIG00011:       0.5193355    0.5193355    0.5929599    0.5929599    0.5929599
:EIG00016:       0.7365023    0.7365023    1.1245275    1.3227567    1.3227567
:EIG00021:       1.3227567    1.4263428    1.9813701    1.9813701    1.9813701
:EIG00026:       2.0250848    2.0250848    2.0250848    2.2605647    2.2605647
:EIG00031:       2.5438810    2.7275245    2.7275245    2.7275245    3.1313136
:EIG00036:       3.1313136    3.3554016    3.3554016    3.3554016    3.3852628
:EIG00041:       3.3852628    3.3852628    3.5581716    3.5581716    3.5581716
:EIG00046:       3.7334839    3.8034003    3.8034003    3.8034003    3.8967190
 
:EIG00051:       3.8967190    3.8998565    3.8998565    3.8998565    3.9106738
:EIG00056:       3.9106738    3.9106738    4.0096851    4.0785161    4.2059974
:EIG00061:       4.2059974    4.2059974    4.2579547    4.2579547    4.2579547
:EIG00066:       4.4207513    5.4205236    5.4205236    5.4402280    5.6810065
:EIG00071:       5.6810065    5.6810065    6.0749001    6.0749001    6.2233554
:EIG00076:       6.2233554    6.2233554    6.2992961    6.2992961    6.2992961
:EIG00081:       6.5994566    6.5994566    6.5994566    6.6285768    6.6285768
:EIG00086:       6.6285768    6.6736617    6.6736617    6.7238939    6.7238939
:EIG00091:       6.7238939    6.8208195    6.8208195    6.8208195    6.8288080
:EIG00096:       6.8288080    6.8288080    6.8778905    6.9913956    7.0057740
 
:EIG00101:       7.0057740    7.0817855    7.0817855    7.0817855    7.1111952
:EIG00106:       7.1111952    7.1111952    7.1155265    7.1155265    7.1155265
:EIG00111:       7.1786064    7.1786064    7.3784957    7.4291655    7.7111916
:EIG00116:       7.7111916    7.7111916
       ********************************************************

:KPT   :      NUMBER OF K-POINTS:   165

------- case.scfso --------
   0.0   0.0 angle (M,z), angle (M,x) deg
 
        SPIN-ORBIT EIGENVALUES:
     K=   0.00000   0.00000   0.00000            1
      MATRIX SIZE=  234   WEIGHT= 1.00
     EIGENVALUES ARE:
          -2.1635143   -2.1635143   -0.9594941   -0.9594941   -0.7469372
          -0.7469372   -0.7469372   -0.7469372    0.2201079    0.2201079
           0.4798914    0.4798914    0.4880640    0.4880640    0.4880640
           0.4880640    0.5108206    0.5108206    0.5202757    0.5202757
           0.5267571    0.5267571    0.5267571    0.5267571    0.5893285
           0.5893285    0.5893285    0.5893285    0.5990131    0.5990131
           0.7369035    0.7369035    0.7369035    0.7369035    1.1245803
           1.1245803    1.3173552    1.3173552    1.3251870    1.3251870

           1.3251870    1.3251870    1.4263428    1.4263428    1.9598223
           1.9598223    1.9766423    1.9766423    1.9766423    1.9766423
           1.9903372    1.9903372    2.0586704    2.0586704    2.0586704
           2.0586704    2.2608456    2.2608456    2.2608456    2.2608456
           2.5438810    2.5438810    2.7270850    2.7270850    2.7277585
           2.7277585    2.7277585    2.7277585    3.1312919    3.1312919
           3.1312919    3.1312919    3.3541325    3.3541325    3.3541325
           3.3541325    3.3579182    3.3579182    3.3581691    3.3581691

           3.4001345    3.4001345    3.4001346    3.4001346    3.5581651
           3.5581651    3.5581748    3.5581748    3.5581748    3.5581748
           3.7334839    3.7334839    3.8033634    3.8033634    3.8033634
           3.8033634    3.8034784    3.8034784    3.8967190    3.8967190
           3.8967190    3.8967190    3.8997067    3.8997067    3.8998952
           3.8998952    3.8998952    3.8998952    3.9103692    3.9103692
           3.9103692    3.9103692    3.9113686    3.9113686    4.0096927
           4.0096927    4.0785161    4.0785161    4.2059406    4.2059406

           4.2059406    4.2059406    4.2061147    4.2061147    4.2571775
           4.2571775    4.2583891    4.2583891    4.2583891    4.2583891
           4.4207549    4.4207549
       ********************************************************

------- case.scf2 --------
:GMA  : POTENTIAL AND CHARGE CUT-OFF  12.00 Ry**.5




:POS001: at.nr.   1 position = 0.00000 0.00000 0.50000  multiplicity =  1

       lmmax  5
       lm=   0 0  4 0  4 4  6 0  6 4
:FER gutzwiller fermi energy   0.49207
:EORB         -0.066004413
:SUM sum of gutz band energies         -7.124881238

:CHA001: total charge inside sphere   1 =     9.948234
:PCS001: partial charges sphere =  1 s,p,d,f,      d-eg,d-t2g 
:QTL001: 2.0229 5.3627 0.6004 1.9620 0.0000 0.0000 0.0000 0.2143 0.3861 0.0000 0.0000 0.0000

:CHA  : total charge inside unit cell =       6.500000

------- case.scfc --------

        1.ATOM      Pr                   14 CORE STATES
:1S 001: 1S               -3067.093709118 Ry
:2S 001: 2S                -492.842488631 Ry
:2PP001: 2P*               -465.942666480 Ry
:2P 001: 2P                -430.544793568 Ry
:3S 001: 3S                -105.924360212 Ry
:3PP001: 3P*                -94.462560840 Ry
:3P 001: 3P                 -87.454524536 Ry
:3DD001: 3D*                -67.382471164 Ry
:3D 001: 3D                 -65.870796567 Ry
:4S 001: 4S                 -20.611812932 Ry
:4PP001: 4P*                -16.319707060 Ry
:4P 001: 4P                 -14.793850934 Ry
:4DD001: 4D*                 -7.729854534 Ry
:4D 001: 4D                  -7.460997160 Ry

------- case.scfm --------
:CINT001 Core Integral Atom   1   45.999505

       DENSITY AT NUCLEUS
        JATOM        VALENCE       SEMI-CORE          CORE           TOTAL
:RTO001:   1      645.888615        0.000000   656823.187644   657469.076259
     
       CHARGES OF NEW CHARGE DENSITY
:NTO   : INTERSTITIAL CHARGE =     3.051853
:NPC   : PW Pseudocharge     =     7.558149
:NTO001: CHARGE SPHERE  1    =    55.947739

:NEC01: NUCLEAR AND ELECTRONIC CHARGE     59.00000    58.99959
     
       CHARGES OF OLD CHARGE DENSITY
:OTO   : INTERSTITIAL CHARGE =     2.948423
:OPC   : PW Pseudocharge     =     7.526680
:OTO001: CHARGE SPHERE  1    =    56.051577

:NEC02: NUCLEAR AND ELECTRONIC CHARGE     59.00000    59.00000
     
       CONVERGENCE TEST
:DTO001: DIFFERENCE IN SPHERE  1 =  0.1762901

:DIS  :  CHARGE DISTANCE       ( 0.1762901 for atom    1 spin 1)      0.1762901
 PW Mixed is           59
 
******************************************************
* MULTISECANT MIXING VER9 RELEASE 10.4.0              *
* Standard Mode with controls                        *
* Fixed density scale                                *
* Regularization       1.000E-04                     *
* Trust Upper Limit    5.000E+00                     *
* Max Number of Memory Steps    8                    *
******************************************************
 
:PWTMP   2.1827E+02  1.2500E+02  2.8372E+02
:PLANE:  PW TOTAL      2.7496 DISTAN   1.91E-02  6.96E-01 %
:CHARG:  CLM/ATOM    977.1759 DISTAN   1.79E-01  1.83E-02 %
 
Step History
        DMIX         DMIXT        Red     Pred      Trust     Lambda    MagRel    MagAbs     Beta
  1   3.5000E-02   3.5000E-02 -1.00E+00  1.00E+00 -1.00E+01  1.00E+00  3.50E-02  3.50E-02  1.00E+00
  2   2.5000E-02   2.5000E-02  9.82E-01  1.00E+00 -1.00E+01  1.00E+00  2.50E-02  1.13E-02  1.00E+00
  3   2.8576E-02   2.8576E-02  8.64E-01  1.00E+00 -1.00E+01  8.80E-01  2.86E-02  1.27E-02  1.00E+00
  4   7.1441E-02   2.5576E-02  8.78E-01  8.45E-01  2.24E-01  8.07E-01  2.24E-01  8.60E-02  1.00E+00
  5   1.7860E-01   1.5346E-01  5.94E-01  3.70E-01  6.16E-01  4.99E-01  6.16E-01  2.07E-01  1.00E+00
  6   7.1441E-02   7.1441E-02 -1.00E+00  1.74E-01  8.22E-01  1.00E+00  5.42E-01  1.08E-01  1.00E+00
:JACOBIANS    9.021E-01   9.776E-01
  
:NORMS:  1/Froebius, Min, Max, Used   0.9844E+00  0.5061E+00  0.1000E+01  0.9847E+00
:INFO :  Number of Memory Steps    5 Skipping    0
:INFO :  SLambda=    1.0000000000  Max    1.0000000000
:PREDicted Charge, CTotal, PW Trust    7.514E-03   7.514E-03   8.325E-03
:PREDicted DMix, Beta, BLim   1.4910E-01  1.0371E+00  6.7848E-01

Eigenvalues, unscaled except for SY+YY
   #     SY Real        SY Imag          SS             YY         SY+YY Real      SY+YY Imag
   1   4.568091E+00   0.000000E+00   4.707665E+00   4.855231E+00   9.423057E+00   0.000000E+00
   2   1.347078E-01   0.000000E+00   1.371497E-01   1.403848E-01   2.751718E-01   0.000000E+00
   3   6.209411E-04   0.000000E+00   9.209926E-05   4.351065E-03   5.154316E-03   0.000000E+00
   4   3.864030E-07   0.000000E+00   5.517929E-08   3.254481E-05   3.701129E-05   0.000000E+00
   5   1.543363E-15   0.000000E+00  -1.783753E-16   1.960446E-07   2.473353E-07   0.000000E+00
 
:INFO :  Singular value  9.423E+00 Weight  1.000E+00 Projection  3.695E-03
:INFO :  Singular value  2.752E-01 Weight  1.000E+00 Projection -2.908E-02
:INFO :  Singular value  5.158E-03 Weight  9.912E-01 Projection -2.578E+00
:INFO :  Singular value  3.700E-05 Weight  5.774E-03 Projection  2.479E-02
:INFO :  Singular value  2.472E-07 Weight  2.593E-07 Projection  2.934E-07
:RANK :  ACTIVE   3.00/5  =  59.94 % ; YY RANK   2.99/5  =  59.84 %
 
:BLIM :  VZERO Control Off
:TRUST:  Step 9.13E-01  Charge 6.00E-02 (e) CTO  2.00E-01 (e) PW  2.80E-01 (e)
:DIRM :  MEMORY  5/8  SCALE   1.000 RED  0.90 PRED  0.17 NEXT  0.14 
:TRAVE:  Charge 8.20E-03 (e) CTO  8.20E-03 (e) PW  4.95E-03 (e)
:DIRP :  |MSR1|= 3.092E-03 |PRATT|= 1.912E-02 ANGLE=  54.8 DEGREES
:DIRQ :  |MSR1|= 2.298E-02 |PRATT|= 1.789E-01 ANGLE=  15.2 DEGREES
:DIRT :  |MSR1|= 2.318E-02 |PRATT|= 1.799E-01 ANGLE=  16.4 DEGREES
:MIX  :   MSR1   REGULARIZATION:  4.86E-04 GREED: 0.12103  Newton 1.00  0.1288                
     
       CHARGES OF MIXED CHARGE DENSITY
:CTO   : INTERSTITIAL CHARGE =     2.960542
:CPC   : PW Pseudocharge     =     7.527336
:CTO001: CHARGE SPHERE  1    =    56.039458

:NEC03: NUCLEAR AND ELECTRONIC CHARGE     59.00000    59.00000

PW CHANGE     H    K    L      Current       Change    Residue
:PTO001:      0    0    0  3.69650257E-02  4.503E-05  4.805E-04
:PTO002:     -1   -1   -1 -1.22595736E-01  4.206E-05 -2.028E-05
:PTO003:      0    0   -2  7.42390827E-02 -2.110E-05 -3.209E-05
:PTO004:      0   -2   -2  6.81655836E-02  1.747E-05 -1.436E-05
:PTO005:     -1   -1   -3 -7.01408676E-02 -5.729E-05  1.296E-04
:PTO006:     -2   -2   -2  1.86987384E-02  3.211E-05  5.467E-06
:PTO007:      0    0   -4  4.28623113E-03  2.321E-05 -2.997E-05
:PTO008:     -1   -3   -3 -4.99276610E-03 -1.093E-04  2.183E-05
:PTO009:      0   -2   -4  1.62883887E-03  1.016E-04 -6.522E-05
:PTO010:     -2   -2   -4 -4.87941229E-03  1.134E-04  2.989E-05
:PTO011:     -3   -3   -3  2.15009885E-03 -3.928E-05 -3.427E-05
:PTO012:     -1   -1   -5  6.86738135E-03 -9.867E-05  6.732E-06

:ENE  : ********** TOTAL ENERGY IN Ry =       -18472.11242805


------- case.scf0 --------
 Flat Integration
 New Mode for Coulomb Integral
 Consistent 3/8+Simpson combinations
 Extension of core to zero
 LDM version in phi
 Fifth-order quadrature in outwin


            ---------
:ITE032: 32. ITERATION
            ---------

:NATO :    1 INDEPENDENT AND    1 TOTAL ATOMS IN UNITCELL
       SUBSTANCE: blebleble                                                   

       LATTICE                      = F   
:POT  : POTENTIAL OPTION EX_LDA EC_LDA VX_LDA VC_LDA
:LAT  : LATTICE CONSTANTS= 10.43083 10.43083 10.43083    1.571    1.571    1.571
:VOL  : UNIT CELL VOLUME =     283.72435
       MODE OF CALCULATION IS       = RELA
       NON-SPINPOLARIZED CALCULATION
:IFFT  : FFT-parameters:   80   80   80 Factor: 2.00


   CONVERGENCE PARAMETER FOR PSEUDOCHARGE: NCON=  9
   MAXIMAL VALUE OF RMT(JATOM)*ABSK(NKK) : RK  =29.96737


:VKCOUL :  VK-COUL convergence: 0.616E-07
       ATOMNUMBER=  1 Pr         VCOUL-ZERO =  0.10994E+00
:FIT001: LUSE= 13 SIGMA OF V-XC FIT FOR ATOM  1  0.1102880E-04
:FIT001: LUSE= 13 SIGMA OF V-XC FIT FOR ATOM  1  0.1102880E-04
:DEN  : DENSITY INTEGRAL  =         -7065.45992537   (Ry)
       ELS_POTENTIAL_AT Z=0 and Z=0.5:  -2.33951  -2.33951
       ELS_POTENTIAL_AT Y=0 and Y=0.5:   0.00000   0.00000
:VZERO:v0,v0c,v0x  -3.27324  -2.33951  -0.93373 v5,v5c,v5x  -3.27324  -2.33951  -0.93373
:VZERY:v0,v0c,v0x  -0.66436   0.00000  -0.66436 v5,v5c,v5x  -0.66436   0.00000  -0.66436
:VZERX:v0,v0c,v0x  -0.66436   0.00000  -0.66436 v5,v5c,v5x  -0.66436   0.00000  -0.66436

------- case.scf1 --------
:LMAX-WF:   10   Non-Spherical LMAX:   4

          ATOMIC SPHERE DEPENDENT PARAMETERS FOR ATOM  Pr        
:e__0001: OVERALL ENERGY PARAMETER IS    0.2687
          OVERALL BASIS SET ON ATOM IS LAPW
:E0_0001: E( 0)=    0.2687
             APW+lo
:E0_0001: E( 0)=   -2.2177   E(BOTTOM)=   -2.600   E(TOP)=   -1.836  4  5   156
             LOCAL ORBITAL
:E1_0001: E( 1)=    0.6687
             APW+lo
:E1_0001: E( 1)=   -0.8311   E(BOTTOM)=   -1.479   E(TOP)=   -0.183  3  4   165
             LOCAL ORBITAL
:E3_0001: E( 3)=    0.4644   E(BOTTOM)=    0.320   E(TOP)=    0.609  0  1   116
             APW+lo
:E2_0001: E( 2)=    0.2687   E(BOTTOM)=    0.096   E(TOP)= -200.000  2 -1    99
             APW+lo

       K=   0.00000   0.00000   0.00000            1
:RKM  : MATRIX SIZE   189LOs:  20  RKM= 7.82  WEIGHT= 1.00  PGR:    
       EIGENVALUES ARE:
:EIG00001:      -2.1731712   -0.8223690   -0.8223690   -0.8223690    0.2196934
:EIG00006:       0.4693327    0.4827269    0.4827269    0.4827269    0.5019154
:EIG00011:       0.5019154    0.5019154    0.5905033    0.5905033    0.5905033
:EIG00016:       0.7331474    0.7331474    1.1226998    1.3217527    1.3217527
:EIG00021:       1.3217527    1.4273598    1.9782667    1.9782667    1.9782667
:EIG00026:       2.0226566    2.0226566    2.0226566    2.2584478    2.2584478
:EIG00031:       2.5422097    2.7264286    2.7264286    2.7264286    3.1297992
:EIG00036:       3.1297992    3.3542203    3.3542203    3.3542203    3.3848512
:EIG00041:       3.3848512    3.3848512    3.5574342    3.5574342    3.5574342
:EIG00046:       3.7324258    3.8035464    3.8035464    3.8035464    3.8971465
 
:EIG00051:       3.8971465    3.8999678    3.8999678    3.8999678    3.9106671
:EIG00056:       3.9106671    3.9106671    4.0099773    4.0780239    4.2067614
:EIG00061:       4.2067614    4.2067614    4.2583900    4.2583900    4.2583900
:EIG00066:       4.4213038    5.4198401    5.4198401    5.4396976    5.6805566
:EIG00071:       5.6805566    5.6805566    6.0719097    6.0719097    6.2202529
:EIG00076:       6.2202529    6.2202529    6.2970677    6.2970677    6.2970677
:EIG00081:       6.5982849    6.5982849    6.5982849    6.6280370    6.6280370
:EIG00086:       6.6280370    6.6736972    6.6736972    6.7237567    6.7237567
:EIG00091:       6.7237567    6.8203949    6.8203949    6.8203949    6.8285051
:EIG00096:       6.8285051    6.8285051    6.8777127    6.9913867    7.0049823
 
:EIG00101:       7.0049823    7.0821533    7.0821533    7.0821533    7.1119584
:EIG00106:       7.1119584    7.1119584    7.1159678    7.1159678    7.1159678
:EIG00111:       7.1790906    7.1790906    7.3796782    7.4279166    7.7122050
:EIG00116:       7.7122050    7.7122050
       ********************************************************

:KPT   :      NUMBER OF K-POINTS:   165

------- case.scfso --------
   0.0   0.0 angle (M,z), angle (M,x) deg
 
        SPIN-ORBIT EIGENVALUES:
     K=   0.00000   0.00000   0.00000            1
      MATRIX SIZE=  234   WEIGHT= 1.00
     EIGENVALUES ARE:
          -2.1731712   -2.1731712   -0.9676023   -0.9676023   -0.7544077
          -0.7544077   -0.7544077   -0.7544077    0.2196934    0.2196934
           0.4638927    0.4638927    0.4712941    0.4712941    0.4712941
           0.4712941    0.4943837    0.4943837    0.5031506    0.5031506
           0.5095288    0.5095288    0.5095288    0.5095288    0.5868385
           0.5868385    0.5868385    0.5868385    0.5966020    0.5966020
           0.7335578    0.7335578    0.7335578    0.7335578    1.1227493
           1.1227493    1.3162911    1.3162911    1.3242099    1.3242099

           1.3242099    1.3242099    1.4273598    1.4273598    1.9573813
           1.9573813    1.9735357    1.9735357    1.9735357    1.9735357
           1.9872424    1.9872424    2.0562567    2.0562567    2.0562567
           2.0562567    2.2587289    2.2587289    2.2587289    2.2587289
           2.5422097    2.5422097    2.7259944    2.7259944    2.7266597
           2.7266597    2.7266597    2.7266597    3.1297779    3.1297779
           3.1297779    3.1297779    3.3529541    3.3529541    3.3529541
           3.3529541    3.3569808    3.3569808    3.3575667    3.3575667

           3.3996893    3.3996893    3.3996894    3.3996894    3.5574277
           3.5574277    3.5574375    3.5574375    3.5574375    3.5574375
[...]
     
       CHARGES OF NEW CHARGE DENSITY
:NTO   : INTERSTITIAL CHARGE =     2.991808
:NPC   : PW Pseudocharge     =     7.535024
:NTO001: CHARGE SPHERE  1    =    56.007666

:NEC01: NUCLEAR AND ELECTRONIC CHARGE     59.00000    58.99947
     
       CHARGES OF OLD CHARGE DENSITY
:OTO   : INTERSTITIAL CHARGE =     2.993141
:OPC   : PW Pseudocharge     =     7.536693
:OTO001: CHARGE SPHERE  1    =    56.006859

:NEC02: NUCLEAR AND ELECTRONIC CHARGE     59.00000    59.00000
     
       CONVERGENCE TEST
:DTO001: DIFFERENCE IN SPHERE  1 =  0.0015194

:DIS  :  CHARGE DISTANCE       ( 0.0015194 for atom    1 spin 1)      0.0015194
 PW Mixed is           59
 
******************************************************
* MULTISECANT MIXING VER9 RELEASE 10.4.0              *
* Standard Mode with controls                        *
* Fixed density scale                                *
* Regularization       1.000E-04                     *
* Trust Upper Limit    5.000E+00                     *
* Max Number of Memory Steps    8                    *
******************************************************
 
:PWTMP   2.1827E+02  1.2500E+02  2.8372E+02
:PLANE:  PW TOTAL      2.7543 DISTAN   2.34E-04  8.50E-03 %
:CHARG:  CLM/ATOM    977.1917 DISTAN   1.58E-03  1.62E-04 %
 
Step History
        DMIX         DMIXT        Red     Pred      Trust     Lambda    MagRel    MagAbs     Beta
  8   6.5998E-02   6.5998E-02  8.74E-01  3.14E-01  1.22E+00  1.27E+00  8.21E-02  1.07E-02  1.00E+00
  9   5.5749E-02   5.5749E-02  1.24E+00  3.70E-01  1.39E+00  1.39E+00  1.03E-01  1.17E-02  8.00E-01
 10   1.3937E-01   1.3937E-01  6.99E-01  3.62E-01  1.12E+00  1.20E+00  2.20E-01  3.11E-02  6.40E-01
 11   8.3054E-02   8.3054E-02  2.06E-01  2.15E-01  1.49E+00  1.37E+00  4.00E-01  3.95E-02  8.00E-01
 12   5.9575E-02   5.9575E-02  3.58E-01  3.76E-01  1.99E+00  1.69E+00  4.04E-01  8.19E-03  1.00E+00
 13   1.4894E-01   1.4894E-01  4.69E+00  6.43E-01  2.65E+00  1.64E+00  1.70E+00  1.24E-02  8.00E-01
 14   2.8000E-01   2.8000E-01  4.23E-01  3.63E-01  1.99E+00  1.05E+00  5.28E-01  1.80E-02  6.40E-01
 15   1.2981E-01   1.2981E-01  3.07E-01  2.05E-01  2.65E+00  1.57E+00  2.76E-01  3.97E-03  8.00E-01
 16   2.8000E-01   2.8000E-01 -1.00E+00  1.05E-01  3.53E+00  1.00E+00  2.74E-01  1.21E-03  1.00E+00
:JACOBIANS    8.189E-01   2.734E+00
  
:NORMS:  1/Froebius, Min, Max, Used   0.5759E+00  0.4929E+00  0.1040E+01  0.6272E+00
:INFO :  Number of Memory Steps    8 Skipping    7
:INFO :  SLambda=    2.0287044488  Max    2.0287044488
:PREDicted Charge, CTotal, PW Trust    5.718E-04   5.718E-04   4.680E-04
:PREDicted DMix, Beta, BLim   2.1968E-01  1.3340E+00  2.1660E+00

Eigenvalues, unscaled except for SY+YY
   #     SY Real        SY Imag          SS             YY         SY+YY Real      SY+YY Imag
   1   2.528546E+00   0.000000E+00   1.650647E+00   6.793472E+00   1.187918E+01   0.000000E+00
   2   1.063234E+00   0.000000E+00   9.479371E-01   1.103771E+00   3.283284E+00   0.000000E+00
   3   6.454018E-02   0.000000E+00   4.736705E-02   8.739697E-02   2.358127E-01   0.000000E+00
   4   1.083241E-02   0.000000E+00   6.716063E-03   1.379711E-02   3.960180E-02   0.000000E+00
   5   8.282178E-04   0.000000E+00   5.978073E-04   1.261964E-03   2.938206E-03   0.000000E+00
   6   1.057693E-04   0.000000E+00   4.459809E-05   2.291076E-04   5.764897E-04   0.000000E+00
   7   1.482719E-05   0.000000E+00   3.162892E-06   6.524639E-05   9.435329E-05   0.000000E+00
   8   1.188005E-06   0.000000E+00   2.352783E-07   6.530173E-06   7.755218E-06   0.000000E+00
 
:INFO :  Singular value  1.189E+01 Weight  1.000E+00 Projection -5.797E-04
:INFO :  Singular value  3.283E+00 Weight  1.000E+00 Projection -1.290E-04
:INFO :  Singular value  2.360E-01 Weight  1.000E+00 Projection -5.628E-04
:INFO :  Singular value  3.963E-02 Weight  9.997E-01 Projection  4.282E-04
:INFO :  Singular value  3.001E-03 Weight  9.513E-01 Projection  2.581E-03
:INFO :  Singular value  6.020E-04 Weight  4.398E-01 Projection -3.904E-03
:INFO :  Singular value  8.943E-05 Weight  1.703E-02 Projection  2.897E-04
:INFO :  Singular value  7.655E-06 Weight  1.270E-04 Projection -6.863E-06
:RANK :  ACTIVE   5.41/8  =  67.60 % ; YY RANK   4.88/8  =  61.05 %
 
:BLIM :  VZERO Control Off
:TRUST:  Step 4.71E+00  Charge 1.73E-02 (e) CTO  1.82E-02 (e) PW  1.99E-02 (e)
:DIRM :  MEMORY  8/8  SCALE   1.000 RED  0.36 PRED  0.10 NEXT  0.14 
:TRAVE:  Charge 1.36E-03 (e) CTO  1.36E-03 (e) PW  8.06E-04 (e)
:DIRP :  |MSR1|= 1.641E-04 |PRATT|= 2.341E-04 ANGLE=  33.3 DEGREES
:DIRQ :  |MSR1|= 4.948E-04 |PRATT|= 1.584E-03 ANGLE=  37.0 DEGREES
:DIRT :  |MSR1|= 5.213E-04 |PRATT|= 1.602E-03 ANGLE=  37.9 DEGREES
:MIX  :   MSE1   REGULARIZATION:  6.79E-04 GREED: 0.22062  Newton 1.00  0.3255                
     
       CHARGES OF MIXED CHARGE DENSITY
:CTO   : INTERSTITIAL CHARGE =     2.992948
:CPC   : PW Pseudocharge     =     7.536619
:CTO001: CHARGE SPHERE  1    =    56.007052

:NEC03: NUCLEAR AND ELECTRONIC CHARGE     59.00000    59.00000

PW CHANGE     H    K    L      Current       Change    Residue
:PTO001:      0    0    0  3.71119612E-02 -9.385E-07 -4.060E-06
:PTO002:     -1   -1   -1 -1.22672697E-01  2.867E-09  1.750E-06
:PTO003:      0    0   -2  7.41903347E-02  2.140E-06  2.691E-06
:PTO004:      0   -2   -2  6.82522589E-02  3.404E-06  4.351E-06
:PTO005:     -1   -1   -3 -7.02843846E-02 -7.936E-06 -1.090E-05
:PTO006:     -2   -2   -2  1.87872828E-02  2.315E-06  3.306E-06
:PTO007:      0    0   -4  4.28089257E-03  2.137E-06  2.592E-06
:PTO008:     -1   -3   -3 -5.02980541E-03 -6.684E-06 -6.530E-06
:PTO009:      0   -2   -4  1.59571913E-03  7.074E-06  6.856E-06
:PTO010:     -2   -2   -4 -4.91159871E-03  5.985E-06  5.371E-06
:PTO011:     -3   -3   -3  2.15306171E-03 -1.693E-06 -1.483E-06
:PTO012:     -1   -1   -5  6.97284066E-03 -5.864E-06 -4.976E-06

:ENE  : ********** TOTAL ENERGY IN Ry =       -18472.11286458


------- case.scf0 --------
 Flat Integration
 New Mode for Coulomb Integral
 Consistent 3/8+Simpson combinations
 Extension of core to zero
 LDM version in phi
 Fifth-order quadrature in outwin


            ---------
:ITE042: 42. ITERATION
            ---------

:NATO :    1 INDEPENDENT AND    1 TOTAL ATOMS IN UNITCELL
       SUBSTANCE: blebleble                                                   

       LATTICE                      = F   
:POT  : POTENTIAL OPTION EX_LDA EC_LDA VX_LDA VC_LDA
:LAT  : LATTICE CONSTANTS= 10.43083 10.43083 10.43083    1.571    1.571    1.571
:VOL  : UNIT CELL VOLUME =     283.72435
       MODE OF CALCULATION IS       = RELA
       NON-SPINPOLARIZED CALCULATION
:IFFT  : FFT-parameters:   80   80   80 Factor: 2.00


   CONVERGENCE PARAMETER FOR PSEUDOCHARGE: NCON=  9
   MAXIMAL VALUE OF RMT(JATOM)*ABSK(NKK) : RK  =29.96737


:VKCOUL :  VK-COUL convergence: 0.643E-07
       ATOMNUMBER=  1 Pr         VCOUL-ZERO =  0.10872E+00
:FIT001: LUSE= 13 SIGMA OF V-XC FIT FOR ATOM  1  0.1255163E-04
:FIT001: LUSE= 13 SIGMA OF V-XC FIT FOR ATOM  1  0.1255163E-04
:DEN  : DENSITY INTEGRAL  =         -7062.91149401   (Ry)
       ELS_POTENTIAL_AT Z=0 and Z=0.5:  -2.35486  -2.35486
       ELS_POTENTIAL_AT Y=0 and Y=0.5:   0.00000   0.00000
:VZERO:v0,v0c,v0x  -3.28859  -2.35486  -0.93372 v5,v5c,v5x  -3.28859  -2.35486  -0.93372
:VZERY:v0,v0c,v0x  -0.66595   0.00000  -0.66595 v5,v5c,v5x  -0.66595   0.00000  -0.66595
:VZERX:v0,v0c,v0x  -0.66595   0.00000  -0.66595 v5,v5c,v5x  -0.66595   0.00000  -0.66595

------- case.scf1 --------
:LMAX-WF:   10   Non-Spherical LMAX:   4

          ATOMIC SPHERE DEPENDENT PARAMETERS FOR ATOM  Pr        
:e__0001: OVERALL ENERGY PARAMETER IS    0.2687
          OVERALL BASIS SET ON ATOM IS LAPW
:E0_0001: E( 0)=    0.2687
             APW+lo
:E0_0001: E( 0)=   -2.2408   E(BOTTOM)=   -2.619   E(TOP)=   -1.862  4  5   156
             LOCAL ORBITAL
:E1_0001: E( 1)=    0.6687
             APW+lo
:E1_0001: E( 1)=   -0.8508   E(BOTTOM)=   -1.494   E(TOP)=   -0.208  3  4   164
             LOCAL ORBITAL
:E3_0001: E( 3)=    0.4254   E(BOTTOM)=    0.286   E(TOP)=    0.565  0  1   114
             APW+lo
:E2_0001: E( 2)=    0.2687   E(BOTTOM)=    0.085   E(TOP)= -200.000  2 -1   100
             APW+lo

       K=   0.00000   0.00000   0.00000            1
:RKM  : MATRIX SIZE   189LOs:  20  RKM= 7.82  WEIGHT= 1.00  PGR:    
       EIGENVALUES ARE:
:EIG00001:      -2.1959185   -0.8403182   -0.8403182   -0.8403182    0.2191163
:EIG00006:       0.4330194    0.4447059    0.4447059    0.4447059    0.4620387
:EIG00011:       0.4620387    0.4620387    0.5850833    0.5850833    0.5850833
:EIG00016:       0.7255526    0.7255526    1.1196245    1.3200690    1.3200690
:EIG00021:       1.3200690    1.4302444    1.9714054    1.9714054    1.9714054
:EIG00026:       2.0174288    2.0174288    2.0174288    2.2538132    2.2538132
:EIG00031:       2.5388947    2.7245760    2.7245760    2.7245760    3.1265431
:EIG00036:       3.1265431    3.3519083    3.3519083    3.3519083    3.3843881
:EIG00041:       3.3843881    3.3843881    3.5559752    3.5559752    3.5559752
:EIG00046:       3.7304700    3.8042701    3.8042701    3.8042701    3.8985659
 
:EIG00051:       3.8985659    3.9007050    3.9007050    3.9007050    3.9112496
:EIG00056:       3.9112496    3.9112496    4.0115934    4.0772505    4.2089771
:EIG00061:       4.2089771    4.2089771    4.2599369    4.2599369    4.2599369
:EIG00066:       4.4232627    5.4185967    5.4185967    5.4387982    5.6799569
:EIG00071:       5.6799569    5.6799569    6.0651650    6.0651650    6.2133229
:EIG00076:       6.2133229    6.2133229    6.2923817    6.2923817    6.2923817
:EIG00081:       6.5960865    6.5960865    6.5960865    6.6270540    6.6270540
:EIG00086:       6.6270540    6.6741603    6.6741603    6.7238700    6.7238700
:EIG00091:       6.7238700    6.8196855    6.8196855    6.8196855    6.8281436
:EIG00096:       6.8281436    6.8281436    6.8776774    6.9916451    7.0035133
 
:EIG00101:       7.0035133    7.0835014    7.0835014    7.0835014    7.1140288
:EIG00106:       7.1140288    7.1140288    7.1174352    7.1174352    7.1174352
:EIG00111:       7.1806155    7.1806155    7.3830653    7.4256285    7.7151027
:EIG00116:       7.7151027    7.7151027
       ********************************************************

:KPT   :      NUMBER OF K-POINTS:   165

------- case.scfso --------
   0.0   0.0 angle (M,z), angle (M,x) deg
 
        SPIN-ORBIT EIGENVALUES:
     K=   0.00000   0.00000   0.00000            1
      MATRIX SIZE=  234   WEIGHT= 1.00
     EIGENVALUES ARE:
          -2.1959185   -2.1959185   -0.9865943   -0.9865943   -0.7718506
          -0.7718506   -0.7718506   -0.7718506    0.2191163    0.2191163
           0.4268624    0.4268624    0.4327778    0.4327778    0.4327778
           0.4327778    0.4565689    0.4565689    0.4639567    0.4639567
           0.4700698    0.4700698    0.4700698    0.4700698    0.5813367
           0.5813367    0.5813367    0.5813367    0.5912921    0.5912921
           0.7259862    0.7259862    0.7259862    0.7259862    1.1196674
           1.1196674    1.3144675    1.3144675    1.3225885    1.3225885

           1.3225885    1.3225885    1.4302444    1.4302444    1.9521381
           1.9521381    1.9666664    1.9666664    1.9666664    1.9666664
           1.9804024    1.9804024    2.0510568    2.0510568    2.0510569
           2.0510569    2.2540950    2.2540950    2.2540950    2.2540950
           2.5388947    2.5388947    2.7241541    2.7241541    2.7248005
           2.7248005    2.7248005    2.7248005    3.1265229    3.1265229
           3.1265229    3.1265229    3.3506489    3.3506489    3.3506489
           3.3506489    3.3546530    3.3546530    3.3572472    3.3572472

           3.3991458    3.3991458    3.3991458    3.3991458    3.5559686
           3.5559686    3.5559785    3.5559785    3.5559785    3.5559785
           3.7304700    3.7304700    3.8042322    3.8042322    3.8042322
           3.8042322    3.8043503    3.8043503    3.8985659    3.8985659
           3.8985659    3.8985659    3.9005614    3.9005614    3.9007425
           3.9007425    3.9007425    3.9007425    3.9109539    3.9109539
           3.9109539    3.9109539    3.9119227    3.9119227    4.0116006
           4.0116006    4.0772505    4.0772505    4.2089212    4.2089212

           4.2089212    4.2089212    4.2090923    4.2090923    4.2591660
           4.2591660    4.2603669    4.2603669    4.2603669    4.2603669
           4.4232661    4.4232661
       ********************************************************

------- case.scf2 --------
:GMA  : POTENTIAL AND CHARGE CUT-OFF  12.00 Ry**.5




:POS001: at.nr.   1 position = 0.00000 0.00000 0.50000  multiplicity =  1

       lmmax  5
       lm=   0 0  4 0  4 4  6 0  6 4
:FER gutzwiller fermi energy   0.48479
:EORB         -0.169506775
:SUM sum of gutz band energies         -7.364675108

:CHA001: total charge inside sphere   1 =    10.007799
:PCS001: partial charges sphere =  1 s,p,d,f,      d-eg,d-t2g 
:QTL001: 2.0247 5.3786 0.6078 1.9965 0.0000 0.0000 0.0000 0.2162 0.3916 0.0000 0.0000 0.0000

:CHA  : total charge inside unit cell =       6.500000

------- case.scfc --------

        1.ATOM      Pr                   14 CORE STATES
:1S 001: 1S               -3067.166925751 Ry
:2S 001: 2S                -492.921327237 Ry
:2PP001: 2P*               -466.020262979 Ry
:2P 001: 2P                -430.622852996 Ry
:3S 001: 3S                -106.011695780 Ry
:3PP001: 3P*                -94.549509661 Ry
:3P 001: 3P                 -87.541698436 Ry
:3DD001: 3D*                -67.468751557 Ry
:3D 001: 3D                 -65.957193398 Ry
:4S 001: 4S                 -20.689670137 Ry
:4PP001: 4P*                -16.396452957 Ry
:4P 001: 4P                 -14.869060359 Ry
:4DD001: 4D*                 -7.801935654 Ry
:4D 001: 4D                  -7.532523150 Ry

------- case.scfm --------
:CINT001 Core Integral Atom   1   45.999523

       DENSITY AT NUCLEUS
        JATOM        VALENCE       SEMI-CORE          CORE           TOTAL
:RTO001:   1      650.275177        0.000000   656824.355702   657474.630879
     
       CHARGES OF NEW CHARGE DENSITY
:NTO   : INTERSTITIAL CHARGE =     2.992277
:NPC   : PW Pseudocharge     =     7.535218
:NTO001: CHARGE SPHERE  1    =    56.007322

:NEC01: NUCLEAR AND ELECTRONIC CHARGE     59.00000    58.99960
     
       CHARGES OF OLD CHARGE DENSITY
:OTO   : INTERSTITIAL CHARGE =     2.992948
:OPC   : PW Pseudocharge     =     7.536619
:OTO001: CHARGE SPHERE  1    =    56.007052

:NEC02: NUCLEAR AND ELECTRONIC CHARGE     59.00000    59.00000
     
       CONVERGENCE TEST
:DTO001: DIFFERENCE IN SPHERE  1 =  0.0004926

:DIS  :  CHARGE DISTANCE       ( 0.0004926 for atom    1 spin 1)      0.0004926
 PW Mixed is           59
 
******************************************************
* MULTISECANT MIXING VER9 RELEASE 10.4.0              *
* Standard Mode with controls                        *
* Fixed density scale                                *
* Regularization       1.000E-04                     *
* Trust Upper Limit    5.000E+00                     *
* Max Number of Memory Steps    8                    *
******************************************************
 
:PWTMP   2.1827E+02  1.2500E+02  2.8372E+02
:PLANE:  PW TOTAL      2.7543 DISTAN   1.39E-04  5.06E-03 %
:CHARG:  CLM/ATOM    977.1916 DISTAN   5.26E-04  5.39E-05 %
 
Step History
        DMIX         DMIXT        Red     Pred      Trust     Lambda    MagRel    MagAbs     Beta
  9   5.5749E-02   5.5749E-02  1.24E+00  3.70E-01  1.39E+00  1.39E+00  1.03E-01  1.17E-02  8.00E-01
 10   1.3937E-01   1.3937E-01  6.99E-01  3.62E-01  1.12E+00  1.20E+00  2.20E-01  3.11E-02  6.40E-01
 11   8.3054E-02   8.3054E-02  2.06E-01  2.15E-01  1.49E+00  1.37E+00  4.00E-01  3.95E-02  8.00E-01
 12   5.9575E-02   5.9575E-02  3.58E-01  3.76E-01  1.99E+00  1.69E+00  4.04E-01  8.19E-03  1.00E+00
 13   1.4894E-01   1.4894E-01  4.69E+00  6.43E-01  2.65E+00  1.64E+00  1.70E+00  1.24E-02  8.00E-01
 14   2.8000E-01   2.8000E-01  4.23E-01  3.63E-01  1.99E+00  1.05E+00  5.28E-01  1.80E-02  6.40E-01
 15   1.2981E-01   1.2981E-01  3.07E-01  2.05E-01  2.65E+00  1.57E+00  2.76E-01  3.97E-03  8.00E-01
 16   2.8000E-01   2.8000E-01  3.62E-01  1.05E-01  3.53E+00  2.03E+00  2.74E-01  1.21E-03  1.00E+00
 17   2.2062E-01   2.2062E-01 -1.00E+00  1.36E-01  4.71E+00  1.00E+00  3.25E-01  5.21E-04  1.00E+00
:JACOBIANS    8.544E-01   2.862E+00
  
:NORMS:  1/Froebius, Min, Max, Used   0.5615E+00  0.4679E+00  0.2379E+01  0.6164E+00
:INFO :  Number of Memory Steps    8 Skipping    8
:INFO :  SLambda=    0.6653481067  Max    2.1373291535
:PREDicted Charge, CTotal, PW Trust    2.293E-04   2.293E-04   1.495E-04
:PREDicted DMix, Beta, BLim   2.4266E-01  1.1170E+00  1.4513E+00

Eigenvalues, unscaled except for SY+YY
   #     SY Real        SY Imag          SS             YY         SY+YY Real      SY+YY Imag
   1   2.409620E+00   0.000000E+00   1.484727E+00   6.782495E+00   8.377828E+00   0.000000E+00
   2   1.102988E+00   0.000000E+00   9.826954E-01   1.130777E+00   1.869031E+00   0.000000E+00
   3   5.110842E-02   0.000000E+00   4.522076E-02   5.954195E-02   9.342944E-02   0.000000E+00
   4   1.241077E-02   0.000000E+00   7.891315E-03   2.108164E-02   3.229070E-02   0.000000E+00
   5   2.715172E-03   0.000000E+00   1.528043E-03   5.705871E-03   8.090643E-03   0.000000E+00
   6   3.349578E-06   0.000000E+00   1.586854E-04   2.413052E-04   2.002407E-05   0.000000E+00
   7   5.359943E-05   0.000000E+00   8.911247E-06   1.397355E-04   3.112732E-04   5.052383E-11
   8   1.490456E-04   0.000000E+00   6.925416E-07   1.730022E-05   3.112732E-04  -5.052383E-11
 
:INFO :  Singular value  8.379E+00 Weight  1.000E+00 Projection -1.882E-04
:INFO :  Singular value  1.869E+00 Weight  1.000E+00 Projection -2.863E-05
:INFO :  Singular value  9.352E-02 Weight  9.999E-01 Projection -6.511E-05
:INFO :  Singular value  3.230E-02 Weight  9.996E-01 Projection -4.114E-04
:INFO :  Singular value  8.113E-03 Weight  9.931E-01 Projection -1.315E-04
:INFO :  Singular value  3.577E-04 Weight  2.176E-01 Projection -2.330E-03
:INFO :  Singular value  2.701E-04 Weight  1.369E-01 Projection  9.749E-04
:INFO :  Singular value  2.000E-05 Weight  8.685E-04 Projection  1.079E-05
:RANK :  ACTIVE   5.35/8  =  66.85 % ; YY RANK   5.14/8  =  64.23 %
 
:BLIM :  VZERO Control Off
:TRUST:  Step 6.28E+00  Charge 1.38E-02 (e) CTO  1.46E-02 (e) PW  1.59E-02 (e)
:DIRM :  MEMORY  8/8  SCALE   1.000 RED  0.34 PRED  0.14 NEXT  0.32 
:TRAVE:  Charge 6.98E-04 (e) CTO  6.98E-04 (e) PW  4.32E-04 (e)
:DIRP :  |MSR1|= 4.412E-05 |PRATT|= 1.395E-04 ANGLE=  26.5 DEGREES
:DIRQ :  |MSR1|= 9.976E-05 |PRATT|= 5.264E-04 ANGLE=  33.1 DEGREES
:DIRT :  |MSR1|= 1.091E-04 |PRATT|= 5.446E-04 ANGLE=  33.5 DEGREES
:MIX  :   MSD1   REGULARIZATION:  6.78E-04 GREED: 0.23188  Newton 1.00  0.2003                
     
       CHARGES OF MIXED CHARGE DENSITY
:CTO   : INTERSTITIAL CHARGE =     2.992909
:CPC   : PW Pseudocharge     =     7.536526
:CTO001: CHARGE SPHERE  1    =    56.007091

:NEC03: NUCLEAR AND ELECTRONIC CHARGE     59.00000    59.00000

PW CHANGE     H    K    L      Current       Change    Residue
:PTO001:      0    0    0  3.71114958E-02 -4.653E-07 -2.341E-06
:PTO002:     -1   -1   -1 -1.22670839E-01  1.858E-06  6.338E-06
:PTO003:      0    0   -2  7.41896119E-02 -7.228E-07 -2.291E-06
:PTO004:      0   -2   -2  6.82511506E-02 -1.108E-06 -2.422E-06
:PTO005:     -1   -1   -3 -7.02828517E-02  1.533E-06  1.788E-06
:PTO006:     -2   -2   -2  1.87868659E-02 -4.169E-07 -3.454E-07
:PTO007:      0    0   -4  4.28064258E-03 -2.500E-07 -4.881E-08
:PTO008:     -1   -3   -3 -5.02856051E-03  1.245E-06  1.349E-06
:PTO009:      0   -2   -4  1.59454866E-03 -1.170E-06 -1.187E-06
:PTO010:     -2   -2   -4 -4.91248208E-03 -8.834E-07 -7.828E-07
:PTO011:     -3   -3   -3  2.15328137E-03  2.197E-07  1.359E-07
:PTO012:     -1   -1   -5  6.97361624E-03  7.756E-07  7.694E-07

:ENE  : ********** TOTAL ENERGY IN Ry =       -18472.11286019

