
------- epsilon_Pu_1.scf0 --------


            ---------
:ITE092: 92. ITERATION
            ---------

:NATO :    1 INDEPENDENT AND    1 TOTAL ATOMS IN UNITCELL
       SUBSTANCE: cubic body-centered  (epsilon Pu)                           

       LATTICE                      = B   
:POT  : POTENTIAL OPTION    5
:LAT  : LATTICE CONSTANTS=  5.93635  5.93635  5.93635    1.571    1.571    1.571
:VOL  : UNIT CELL VOLUME =     104.59923
       MODE OF CALCULATION IS       = RELA
       NON-SPINPOLARIZED CALCULATION
:IFFT  : FFT-parameters:   48   48   48 Factor: 2.00
       ATOMNUMBER=  1 Pu  0+     VCOUL-ZERO =  0.10279E+01
:FIT001: LUSE= 13 SIGMA OF V-XC FIT FOR ATOM  1  0.8063234E-04
:FIT001: LUSE= 13 SIGMA OF V-XC FIT FOR ATOM  1  0.8063234E-04
:DEN  : DENSITY INTEGRAL  =        -21952.02353799   (Ry)
       ELS_POTENTIAL_AT Z=0 and Z=0.5:  -2.77118  -2.77118
       ELS_POTENTIAL_AT Y=0 and Y=0.5:   0.00000   0.00000
:VZERO:v0,v0c,v0x  -3.90623  -2.77118  -1.13505 v5,v5c,v5x  -3.90623  -2.77118  -1.13505
:VZERY:v0,v0c,v0x  -1.07715   0.00000  -1.07715 v5,v5c,v5x  -1.07715   0.00000  -1.07715
:VZERX:v0,v0c,v0x  -1.07715   0.00000  -1.07715 v5,v5c,v5x  -1.07715   0.00000  -1.07715

------- epsilon_Pu_1.scf1 --------

          ATOMIC SPHERE DEPENDENT PARAMETERS FOR ATOM  Pu  0+    
:e__0001: OVERALL ENERGY PARAMETER IS    1.6560
          OVERALL BASIS SET ON ATOM IS LAPW
:E0_0001: E( 0)=    1.6560
             APW+lo
:E0_0001: E( 0)=   -1.5540   E(BOTTOM)=   -2.329   E(TOP)=   -0.779
             LOCAL ORBITAL
:E1_0001: E( 1)=   -0.6340   E(BOTTOM)=   -0.634   E(TOP)= -200.000
             APW+lo
:E1_0001: E( 1)=    1.6560
             LOCAL ORBITAL
:E3_0001: E( 3)=    1.6560   E(BOTTOM)=    1.406   E(TOP)= -200.000
             APW+lo
:E2_0001: E( 2)=    1.6560   E(BOTTOM)=    1.566   E(TOP)= -200.000
             APW+lo

       K=   0.00000   0.00000   0.00000            1
:RKM  : MATRIX SIZE  107LOs:  20  RKM= 7.88  WEIGHT= 1.00  PGR:    
       EIGENVALUES ARE:
:EIG00001:      -1.6234254    0.7338752    0.7338752    0.7338752    1.5976190
:EIG00006:       1.7393588    1.7393588    1.7393588    2.0070495    2.0070495
:EIG00011:       2.0070495    2.0863590    2.0863590    2.0863590    2.0892596
:EIG00016:       2.4271982    2.4271982    3.3359243    3.3359243    3.3359243
:EIG00021:       4.2959894    4.2959894    4.6162140    4.9410143    4.9410143
:EIG00026:       4.9410143    6.1045322    6.1045322    6.1045322    6.3980931
:EIG00031:       6.3980931    6.3980931    6.8199654    6.8199654    6.8199654
:EIG00036:       6.8798837    6.8798837    6.8798837    6.9440086    6.9440086
:EIG00041:       7.0249536    7.0249536    7.4653148
       ********************************************************

:KPT   :      NUMBER OF K-POINTS:   286

------- epsilon_Pu_1.scfso --------
   0.0   0.0 angle (M,z), angle (M,x) deg
 
        SPIN-ORBIT EIGENVALUES:
     K=   0.00000   0.00000   0.00000            1
      MATRIX SIZE=   86   WEIGHT= 1.00
     EIGENVALUES ARE:
          -1.6234254   -1.6234254    0.2129897    0.2129897    0.9650575
           0.9650575    0.9650575    0.9650575    1.5976190    1.5976190
           1.7266612    1.7266612    1.7386462    1.7386462    1.7386462
           1.7386462    1.9949126    1.9949126    1.9949126    1.9949126
           2.0414648    2.0414648    2.0655936    2.0655936    2.0655936
           2.0655936    2.0923980    2.0923980    2.1182329    2.1182329
           2.4304803    2.4304803    2.4304803    2.4304803    3.3301887
           3.3301887    3.3399039    3.3399039    3.3399039    3.3399039

           4.2956721    4.2956721    4.2956721    4.2956721
       ********************************************************

------- epsilon_Pu_1.scf2 --------
:GMA  : POTENTIAL AND CHARGE CUT-OFF  12.00 Ry**.5
         Bandranges (emin - emax) and occupancy:
:BAN00008:   8    0.477466    0.965057  1.00000000
:BAN00009:   9    1.449124    1.852203  1.00000000
:BAN00010:  10    1.449124    1.852203  1.00000000
:BAN00011:  11    1.455788    1.861212  1.00000000
:BAN00012:  12    1.455788    1.861212  1.00000000
:BAN00013:  13    1.713125    1.863768  1.00000000
:BAN00014:  14    1.713125    1.863768  1.00000000
:BAN00015:  15    1.736569    1.925032  0.90500512
:BAN00016:  16    1.736569    1.925032  0.90500512
:BAN00017:  17    1.841613    1.994913  0.09499488
:BAN00018:  18    1.841613    1.994913  0.09499488
:BAN00019:  19    1.911386    1.994913  0.00000000
:BAN00020:  20    1.911386    1.994913  0.00000000
:BAN00021:  21    1.954917    2.041465  0.00000000
:BAN00022:  22    1.954917    2.041465  0.00000000
:BAN00023:  23    1.987501    2.090324  0.00000000
        Energy to separate low and high energystates:    1.39912


:NLDA  : NUMBER OF ELECTRONS          =  16.000

:FLDA  : F E R M I - ENERGY           =   2.37280




:POS001: AT.NR.   1 POSITION = 0.00000 0.00000 0.00000  MULTIPLICITY =  1

       LMMAX  5
       LM=   0 0  4 0  4 4  6 0  6 4
:FER DMFT Fermi Energy   1.86763
:EORB    0.11283196
:SUM SUM OF DMFT BAND ENERGIES   13.53560658

:CHA001: TOTAL CHARGE INSIDE SPHERE   1 =    11.860427
:PCS001: PARTIAL CHARGES SPHERE =  1 S,P,D,F,      D-EG,D-T2G 
:QTL001: 1.9651 4.5564 0.8082 4.5215 0.0000 0.0000 0.0000 0.3183 0.5272 0.0000 0.0000 0.0000
        Q-s-low E-s-low   Q-p-low E-p-low   Q-d-low E-d-low   Q-f-low E-f-low
:EPL001:  1.8807 -1.4942    4.4172  0.4052    0.0449  0.5223    0.0227  0.5840
        Q-s-hi  E-s-hi    Q-p-hi  E-p-hi    Q-d-hi  E-d-hi    Q-f-hi  E-f-hi 
:EPH001:  0.0843  1.6973    0.1392  1.7423    0.7633  1.6996    4.4988  1.7988

:CHA  : TOTAL CHARGE INSIDE UNIT CELL =      16.000000

:ESUM  : SUM OF EIGENVALUES =          13.598040846


------- epsilon_Pu_1.scfc --------

        1.ATOM      Pu  0+               21 CORE STATES
:1S 001: 1S               -8965.880261290 Ry
:2S 001: 2S               -1686.555146038 Ry
:2PP001: 2P*              -1627.248074997 Ry
:2P 001: 2P               -1314.097342193 Ry
:3S 001: 3S                -427.101374699 Ry
:3PP001: 3P*               -400.176709054 Ry
:3P 001: 3P                -327.615744524 Ry
:3DD001: 3D*               -285.375132637 Ry
:3D 001: 3D                -270.833087103 Ry
:4S 001: 4S                -108.582107046 Ry
:4PP001: 4P*                -96.394254015 Ry
:4P 001: 4P                 -77.248771780 Ry
:4DD001: 4D*                -57.961369585 Ry
:4D 001: 4D                 -54.466772471 Ry
:5S 001: 5S                 -22.736580968 Ry
:5PP001: 5P*                -17.918411132 Ry
:5P 001: 5P                 -13.228535171 Ry
:4FF001: 4F*                -29.067229964 Ry
:4F 001: 4F                 -28.139139001 Ry
:5DD001: 5D*                 -6.191920739 Ry
:5D 001: 5D                  -5.492508427 Ry

------- epsilon_Pu_1.scfm --------

       DENSITY AT NUCLEUS
        JATOM    VALENCE       SEMI-CORE            CORE           TOTAL
:RTO001:   1    23778.860385        0.000000 45141814.434106 45165593.294491
     
       CHARGES OF NEW CHARGE DENSITY
:NTO  : TOTAL   INTERSTITIAL CHARGE=    4.1395665
:NTO001: TOTAL   CHARGE IN SPHERE  1 =       89.8510434

:NEC01: NUCLEAR AND ELECTRONIC CHARGE     94.00000    93.99061     1.00010
     
       CHARGES OF OLD CHARGE DENSITY
:OTO  : TOTAL   INTERSTITIAL CHARGE=    4.1410019
:OTO001: TOTAL   CHARGE IN SPHERE  1 =       89.8589981

:NEC02: NUCLEAR AND ELECTRONIC CHARGE     94.00000    94.00000     1.00000
     
       CONVERGENCE TEST
:DTO001: TOTAL   DIFFERENCE CHARGE**2 IN SPHERE  1 =  0.0093697

:DIS  :  CHARGE DISTANCE       ( 0.0093697 for atom    1 spin 1)      0.0093697
:BIG check (qbig,qrms,qtot)    0.312D-02   0.663D-02   0.937D-02
 
******************************************************
* MULTISECANT MIXING VER4 OPTIONS                    *
* Unpredicted Step Limit   0.100000                  *
* Plane Wave Dynamic Rescaling                       *
* Dynamic Regularization active                      *
* Upper Cutoff Lambda  1.0E-01 Lower 3.5E-04         *
* SQRT Multiplicity/Degeneracy                       *
* Max Number of Memory Steps    8                    *
******************************************************
 
:PLANE:  INTERSTITIAL TOTAL      1.94232 DISTAN  6.384E-02 % 
:CHARG:  CLM CHARGE   /ATOM    713.23128 DISTAN  3.984E-03 % 
:MIX  :  PRATT  REGULARIZATION: 3.50E-04  GREED: 0.035
     
       CHARGES OF MIXED CHARGE DENSITY
:CTO  : TOTAL   INTERSTITIAL CHARGE=    4.1412803
:CTO001: TOTAL   CHARGE IN SPHERE  1 =       89.8587197

:NEC03: NUCLEAR AND ELECTRONIC CHARGE     94.00000    94.00000     1.00000


:ENE  : ********** TOTAL ENERGY IN Ry =       -59354.70690424


------- epsilon_Pu_1.scf0 --------


            ---------
:ITE093: 93. ITERATION
            ---------

:NATO :    1 INDEPENDENT AND    1 TOTAL ATOMS IN UNITCELL
       SUBSTANCE: cubic body-centered  (epsilon Pu)                           

       LATTICE                      = B   
:POT  : POTENTIAL OPTION    5
:LAT  : LATTICE CONSTANTS=  5.93635  5.93635  5.93635    1.571    1.571    1.571
:VOL  : UNIT CELL VOLUME =     104.59923
       MODE OF CALCULATION IS       = RELA
       NON-SPINPOLARIZED CALCULATION
:IFFT  : FFT-parameters:   48   48   48 Factor: 2.00
       ATOMNUMBER=  1 Pu  0+     VCOUL-ZERO =  0.10279E+01
:FIT001: LUSE= 13 SIGMA OF V-XC FIT FOR ATOM  1  0.8068146E-04
:FIT001: LUSE= 13 SIGMA OF V-XC FIT FOR ATOM  1  0.8068146E-04
:DEN  : DENSITY INTEGRAL  =        -21951.98557954   (Ry)
       ELS_POTENTIAL_AT Z=0 and Z=0.5:  -2.77126  -2.77126
       ELS_POTENTIAL_AT Y=0 and Y=0.5:   0.00000   0.00000
:VZERO:v0,v0c,v0x  -3.90632  -2.77126  -1.13506 v5,v5c,v5x  -3.90632  -2.77126  -1.13506
:VZERY:v0,v0c,v0x  -1.07717   0.00000  -1.07717 v5,v5c,v5x  -1.07717   0.00000  -1.07717
:VZERX:v0,v0c,v0x  -1.07717   0.00000  -1.07717 v5,v5c,v5x  -1.07717   0.00000  -1.07717

------- epsilon_Pu_1.scf1 --------

          ATOMIC SPHERE DEPENDENT PARAMETERS FOR ATOM  Pu  0+    
:e__0001: OVERALL ENERGY PARAMETER IS    1.6560
          OVERALL BASIS SET ON ATOM IS LAPW
:E0_0001: E( 0)=    1.6560
             APW+lo
:E0_0001: E( 0)=   -1.5545   E(BOTTOM)=   -2.329   E(TOP)=   -0.780
             LOCAL ORBITAL
:E1_0001: E( 1)=   -0.6340   E(BOTTOM)=   -0.634   E(TOP)= -200.000
             APW+lo
:E1_0001: E( 1)=    1.6560
             LOCAL ORBITAL
:E3_0001: E( 3)=    1.6560   E(BOTTOM)=    1.406   E(TOP)= -200.000
             APW+lo
:E2_0001: E( 2)=    1.6560   E(BOTTOM)=    1.566   E(TOP)= -200.000
             APW+lo

       K=   0.00000   0.00000   0.00000            1
:RKM  : MATRIX SIZE  107LOs:  20  RKM= 7.88  WEIGHT= 1.00  PGR:    
       EIGENVALUES ARE:
:EIG00001:      -1.6235524    0.7337753    0.7337753    0.7337753    1.5976078
:EIG00006:       1.7392281    1.7392281    1.7392281    2.0068477    2.0068477
:EIG00011:       2.0068477    2.0863402    2.0863402    2.0863402    2.0890499
:EIG00016:       2.4271897    2.4271897    3.3358500    3.3358500    3.3358500
:EIG00021:       4.2959721    4.2959721    4.6162227    4.9409792    4.9409792
:EIG00026:       4.9409792    6.1044876    6.1044876    6.1044876    6.3980836
:EIG00031:       6.3980836    6.3980836    6.8199533    6.8199533    6.8199533
:EIG00036:       6.8798642    6.8798642    6.8798642    6.9440367    6.9440367
:EIG00041:       7.0249545    7.0249545    7.4652793
       ********************************************************

:KPT   :      NUMBER OF K-POINTS:   286

------- epsilon_Pu_1.scfso --------
   0.0   0.0 angle (M,z), angle (M,x) deg
 
        SPIN-ORBIT EIGENVALUES:
     K=   0.00000   0.00000   0.00000            1
      MATRIX SIZE=   86   WEIGHT= 1.00
     EIGENVALUES ARE:
          -1.6235524   -1.6235524    0.2128729    0.2128729    0.9649652
           0.9649652    0.9649652    0.9649652    1.5976078    1.5976078
           1.7265271    1.7265271    1.7385136    1.7385136    1.7385136
           1.7385136    1.9947118    1.9947118    1.9947118    1.9947118
           2.0412666    2.0412666    2.0655740    2.0655740    2.0655740
           2.0655740    2.0921902    2.0921902    2.1182150    2.1182150
           2.4304720    2.4304720    2.4304720    2.4304720    3.3301150
           3.3301150    3.3398292    3.3398292    3.3398292    3.3398292

           4.2956548    4.2956548    4.2956548    4.2956548
       ********************************************************

------- epsilon_Pu_1.scf2 --------
:GMA  : POTENTIAL AND CHARGE CUT-OFF  12.00 Ry**.5
         Bandranges (emin - emax) and occupancy:
:BAN00008:   8    0.477409    0.964965  1.00000000
:BAN00009:   9    1.449136    1.852032  1.00000000
:BAN00010:  10    1.449136    1.852032  1.00000000
:BAN00011:  11    1.455799    1.861033  1.00000000
:BAN00012:  12    1.455799    1.861033  1.00000000
:BAN00013:  13    1.713065    1.863590  1.00000000
:BAN00014:  14    1.713065    1.863590  1.00000000
:BAN00015:  15    1.736437    1.924901  0.90497411
:BAN00016:  16    1.736437    1.924901  0.90497411
:BAN00017:  17    1.841476    1.994712  0.09502589
:BAN00018:  18    1.841476    1.994712  0.09502589
:BAN00019:  19    1.911224    1.994712  0.00000000
:BAN00020:  20    1.911224    1.994712  0.00000000
:BAN00021:  21    1.954748    2.041267  0.00000000
:BAN00022:  22    1.954748    2.041267  0.00000000
:BAN00023:  23    1.987343    2.090216  0.00000000
        Energy to separate low and high energystates:    1.39914


:NLDA  : NUMBER OF ELECTRONS          =  16.000

:FLDA  : F E R M I - ENERGY           =   2.37265




:POS001: AT.NR.   1 POSITION = 0.00000 0.00000 0.00000  MULTIPLICITY =  1

       LMMAX  5
       LM=   0 0  4 0  4 4  6 0  6 4
:FER DMFT Fermi Energy   1.86749
:EORB    0.11276104
:SUM SUM OF DMFT BAND ENERGIES   13.53408938

:CHA001: TOTAL CHARGE INSIDE SPHERE   1 =    11.861376
:PCS001: PARTIAL CHARGES SPHERE =  1 S,P,D,F,      D-EG,D-T2G 
:QTL001: 1.9650 4.5564 0.8079 4.5227 0.0000 0.0000 0.0000 0.3182 0.5270 0.0000 0.0000 0.0000
        Q-s-low E-s-low   Q-p-low E-p-low   Q-d-low E-d-low   Q-f-low E-f-low
:EPL001:  1.8807 -1.4943    4.4173  0.4051    0.0449  0.5222    0.0227  0.5840
        Q-s-hi  E-s-hi    Q-p-hi  E-p-hi    Q-d-hi  E-d-hi    Q-f-hi  E-f-hi 
:EPH001:  0.0843  1.6972    0.1391  1.7422    0.7630  1.6996    4.5000  1.7987

:CHA  : TOTAL CHARGE INSIDE UNIT CELL =      16.000000

:ESUM  : SUM OF EIGENVALUES =          13.596512915


------- epsilon_Pu_1.scfc --------

        1.ATOM      Pu  0+               21 CORE STATES
:1S 001: 1S               -8965.880842124 Ry
:2S 001: 2S               -1686.555719685 Ry
:2PP001: 2P*              -1627.248650572 Ry
:2P 001: 2P               -1314.097915784 Ry
:3S 001: 3S                -427.101922313 Ry
:3PP001: 3P*               -400.177259779 Ry
:3P 001: 3P                -327.616287804 Ry
:3DD001: 3D*               -285.375684285 Ry
:3D 001: 3D                -270.833636766 Ry
:4S 001: 4S                -108.582581877 Ry
:4PP001: 4P*                -96.394729816 Ry
:4P 001: 4P                 -77.249233474 Ry
:4DD001: 4D*                -57.961833455 Ry
:4D 001: 4D                 -54.467232359 Ry
:5S 001: 5S                 -22.736951486 Ry
:5PP001: 5P*                -17.918774144 Ry
:5P 001: 5P                 -13.228872974 Ry
:4FF001: 4F*                -29.067696749 Ry
:4F 001: 4F                 -28.139603752 Ry
:5DD001: 5D*                 -6.192231877 Ry
:5D 001: 5D                  -5.492810578 Ry

------- epsilon_Pu_1.scfm --------

       DENSITY AT NUCLEUS
        JATOM    VALENCE       SEMI-CORE            CORE           TOTAL
:RTO001:   1    23779.036531        0.000000 45141815.343262 45165594.379793
     
       CHARGES OF NEW CHARGE DENSITY
:NTO  : TOTAL   INTERSTITIAL CHARGE=    4.1386177
:NTO001: TOTAL   CHARGE IN SPHERE  1 =       89.8519936

:NEC01: NUCLEAR AND ELECTRONIC CHARGE     94.00000    93.99061     1.00010
     
       CHARGES OF OLD CHARGE DENSITY
:OTO  : TOTAL   INTERSTITIAL CHARGE=    4.1412803
:OTO001: TOTAL   CHARGE IN SPHERE  1 =       89.8587197

:NEC02: NUCLEAR AND ELECTRONIC CHARGE     94.00000    94.00000     1.00000
     
       CONVERGENCE TEST
:DTO001: TOTAL   DIFFERENCE CHARGE**2 IN SPHERE  1 =  0.0078832

:DIS  :  CHARGE DISTANCE       ( 0.0078832 for atom    1 spin 1)      0.0078832
:BIG check (qbig,qrms,qtot)    0.263D-02   0.557D-02   0.788D-02
 
******************************************************
* MULTISECANT MIXING VER4 OPTIONS                    *
* Unpredicted Step Limit   0.100000                  *
* Plane Wave Dynamic Rescaling                       *
* Dynamic Regularization active                      *
* Upper Cutoff Lambda  1.0E-01 Lower 3.5E-04         *
* SQRT Multiplicity/Degeneracy                       *
* Max Number of Memory Steps    8                    *
******************************************************
 
:PLANE:  INTERSTITIAL TOTAL      1.94232 DISTAN  5.570E-02 % 
:CHARG:  CLM CHARGE   /ATOM    713.23109 DISTAN  3.559E-03 % 
:INFO :  Dynamic rescale   2.319E+01  1.000E-01
:INFO :  Number of Memory Steps    1 Skipping    0
:INFO :  Bounds         0.396D-01  0.200D+00  0.202D+00  0.396D-01
:DIRM :  MEMORY 1/8 RESCALE  23.19 RED 0.883 PRED 1.000 NEXT 0.496 COND 1.00E+00
:DIRP :  |BROYD|= 5.982E-03 |PRATT|= 9.945E-04 ANGLE=   0.5 DEGREES
:DIRB :  |BROYD|= 8.523E-03 |PRATT|= 1.415E-03 ANGLE=   0.5 DEGREES
:MIX  :  MSR1   REGULARIZATION: 3.50E-04  GREED: 0.040
     
       CHARGES OF MIXED CHARGE DENSITY
:CTO  : TOTAL   INTERSTITIAL CHARGE=    4.1428771
:CTO001: TOTAL   CHARGE IN SPHERE  1 =       89.8571229

:NEC03: NUCLEAR AND ELECTRONIC CHARGE     94.00000    94.00000     1.00000


:ENE  : ********** TOTAL ENERGY IN Ry =       -59354.70692005


------- epsilon_Pu_1.scf0 --------


            ---------
:ITE094: 94. ITERATION
            ---------

:NATO :    1 INDEPENDENT AND    1 TOTAL ATOMS IN UNITCELL
       SUBSTANCE: cubic body-centered  (epsilon Pu)                           

       LATTICE                      = B   
:POT  : POTENTIAL OPTION    5
:LAT  : LATTICE CONSTANTS=  5.93635  5.93635  5.93635    1.571    1.571    1.571
:VOL  : UNIT CELL VOLUME =     104.59923
       MODE OF CALCULATION IS       = RELA
       NON-SPINPOLARIZED CALCULATION
:IFFT  : FFT-parameters:   48   48   48 Factor: 2.00
       ATOMNUMBER=  1 Pu  0+     VCOUL-ZERO =  0.10281E+01
:FIT001: LUSE= 13 SIGMA OF V-XC FIT FOR ATOM  1  0.8099362E-04
:FIT001: LUSE= 13 SIGMA OF V-XC FIT FOR ATOM  1  0.8099362E-04
:DEN  : DENSITY INTEGRAL  =        -21951.76932294   (Ry)
       ELS_POTENTIAL_AT Z=0 and Z=0.5:  -2.77174  -2.77174
       ELS_POTENTIAL_AT Y=0 and Y=0.5:   0.00000   0.00000
:VZERO:v0,v0c,v0x  -3.90682  -2.77174  -1.13509 v5,v5c,v5x  -3.90682  -2.77174  -1.13509
:VZERY:v0,v0c,v0x  -1.07723   0.00000  -1.07723 v5,v5c,v5x  -1.07723   0.00000  -1.07723
:VZERX:v0,v0c,v0x  -1.07723   0.00000  -1.07723 v5,v5c,v5x  -1.07723   0.00000  -1.07723

------- epsilon_Pu_1.scf1 --------

          ATOMIC SPHERE DEPENDENT PARAMETERS FOR ATOM  Pu  0+    
:e__0001: OVERALL ENERGY PARAMETER IS    1.6560
          OVERALL BASIS SET ON ATOM IS LAPW
:E0_0001: E( 0)=    1.6560
             APW+lo
:E0_0001: E( 0)=   -1.5555   E(BOTTOM)=   -2.330   E(TOP)=   -0.781
             LOCAL ORBITAL
:E1_0001: E( 1)=   -0.6340   E(BOTTOM)=   -0.634   E(TOP)= -200.000
             APW+lo
:E1_0001: E( 1)=    1.6560
             LOCAL ORBITAL
:E3_0001: E( 3)=    1.6560   E(BOTTOM)=    1.406   E(TOP)= -200.000
             APW+lo
:E2_0001: E( 2)=    1.6560   E(BOTTOM)=    1.566   E(TOP)= -200.000
             APW+lo

       K=   0.00000   0.00000   0.00000            1
:RKM  : MATRIX SIZE  107LOs:  20  RKM= 7.88  WEIGHT= 1.00  PGR:    
       EIGENVALUES ARE:
:EIG00001:      -1.6242808    0.7332014    0.7332014    0.7332014    1.5975398
:EIG00006:       1.7384787    1.7384787    1.7384787    2.0056918    2.0056918
:EIG00011:       2.0056918    2.0862305    2.0862305    2.0862305    2.0878547
:EIG00016:       2.4271346    2.4271346    3.3354225    3.3354225    3.3354225
:EIG00021:       4.2958689    4.2958689    4.6162679    4.9407743    4.9407743
:EIG00026:       4.9407743    6.1042307    6.1042307    6.1042307    6.3980239
:EIG00031:       6.3980239    6.3980239    6.8198811    6.8198811    6.8198811
:EIG00036:       6.8797476    6.8797476    6.8797476    6.9441941    6.9441941
:EIG00041:       7.0249529    7.0249529    7.4650630
       ********************************************************

:KPT   :      NUMBER OF K-POINTS:   286

------- epsilon_Pu_1.scfso --------
   0.0   0.0 angle (M,z), angle (M,x) deg
 
        SPIN-ORBIT EIGENVALUES:
     K=   0.00000   0.00000   0.00000            1
      MATRIX SIZE=   86   WEIGHT= 1.00
     EIGENVALUES ARE:
          -1.6242808   -1.6242808    0.2122027    0.2122027    0.9644347
           0.9644347    0.9644347    0.9644347    1.5975398    1.5975398
           1.7257581    1.7257581    1.7377533    1.7377533    1.7377533
           1.7377533    1.9935620    1.9935620    1.9935620    1.9935620
           2.0401313    2.0401313    2.0654598    2.0654598    2.0654598
           2.0654598    2.0910062    2.0910062    2.1181107    2.1181107
           2.4304182    2.4304182    2.4304182    2.4304182    3.3296909
           3.3296909    3.3393992    3.3393992    3.3393992    3.3393992

           4.2955514    4.2955514    4.2955514    4.2955514
       ********************************************************

------- epsilon_Pu_1.scf2 --------
:GMA  : POTENTIAL AND CHARGE CUT-OFF  12.00 Ry**.5
         Bandranges (emin - emax) and occupancy:
:BAN00008:   8    0.477084    0.964435  1.00000000
:BAN00009:   9    1.449198    1.851056  1.00000000
:BAN00010:  10    1.449198    1.851056  1.00000000
:BAN00011:  11    1.455856    1.860006  1.00000000
:BAN00012:  12    1.455856    1.860006  1.00000000
:BAN00013:  13    1.712718    1.862570  1.00000000
:BAN00014:  14    1.712718    1.862570  1.00000000
:BAN00015:  15    1.735680    1.924152  0.90479871
:BAN00016:  16    1.735680    1.924152  0.90479871
:BAN00017:  17    1.840691    1.993562  0.09520129
:BAN00018:  18    1.840691    1.993562  0.09520129
:BAN00019:  19    1.910273    1.993562  0.00000000
:BAN00020:  20    1.910273    1.993562  0.00000000
:BAN00021:  21    1.953780    2.040131  0.00000000
:BAN00022:  22    1.953780    2.040131  0.00000000
:BAN00023:  23    1.986440    2.089597  0.00000000
        Energy to separate low and high energystates:    1.39920


:NLDA  : NUMBER OF ELECTRONS          =  16.000

:FLDA  : F E R M I - ENERGY           =   2.37179




:POS001: AT.NR.   1 POSITION = 0.00000 0.00000 0.00000  MULTIPLICITY =  1

       LMMAX  5
       LM=   0 0  4 0  4 4  6 0  6 4
:FER DMFT Fermi Energy   1.86704
:EORB    0.11010206
:SUM SUM OF DMFT BAND ENERGIES   13.52763246

:CHA001: TOTAL CHARGE INSIDE SPHERE   1 =    11.865434
:PCS001: PARTIAL CHARGES SPHERE =  1 S,P,D,F,      D-EG,D-T2G 
:QTL001: 1.9650 4.5569 0.8070 4.5273 0.0000 0.0000 0.0000 0.3179 0.5263 0.0000 0.0000 0.0000
        Q-s-low E-s-low   Q-p-low E-p-low   Q-d-low E-d-low   Q-f-low E-f-low
:EPL001:  1.8808 -1.4951    4.4181  0.4047    0.0449  0.5218    0.0227  0.5836
        Q-s-hi  E-s-hi    Q-p-hi  E-p-hi    Q-d-hi  E-d-hi    Q-f-hi  E-f-hi 
:EPH001:  0.0842  1.6968    0.1388  1.7417    0.7621  1.6991    4.5046  1.7979

:CHA  : TOTAL CHARGE INSIDE UNIT CELL =      16.000000

:ESUM  : SUM OF EIGENVALUES =          13.587682788


------- epsilon_Pu_1.scfc --------

        1.ATOM      Pu  0+               21 CORE STATES
:1S 001: 1S               -8965.884146774 Ry
:2S 001: 2S               -1686.558984294 Ry
:2PP001: 2P*              -1627.251925983 Ry
:2P 001: 2P               -1314.101180070 Ry
:3S 001: 3S                -427.105039163 Ry
:3PP001: 3P*               -400.180394297 Ry
:3P 001: 3P                -327.619380005 Ry
:3DD001: 3D*               -285.378824106 Ry
:3D 001: 3D                -270.836765307 Ry
:4S 001: 4S                -108.585285471 Ry
:4PP001: 4P*                -96.397438921 Ry
:4P 001: 4P                 -77.251862688 Ry
:4DD001: 4D*                -57.964475090 Ry
:4D 001: 4D                 -54.469851390 Ry
:5S 001: 5S                 -22.739064915 Ry
:5PP001: 5P*                -17.920845010 Ry
:5P 001: 5P                 -13.230800848 Ry
:4FF001: 4F*                -29.070354892 Ry
:4F 001: 4F                 -28.142250365 Ry
:5DD001: 5D*                 -6.194008293 Ry
:5D 001: 5D                  -5.494535939 Ry

------- epsilon_Pu_1.scfm --------

       DENSITY AT NUCLEUS
        JATOM    VALENCE       SEMI-CORE            CORE           TOTAL
:RTO001:   1    23781.553897        0.000000 45141820.494790 45165602.048686
     
       CHARGES OF NEW CHARGE DENSITY
:NTO  : TOTAL   INTERSTITIAL CHARGE=    4.1345600
:NTO001: TOTAL   CHARGE IN SPHERE  1 =       89.8560590

:NEC01: NUCLEAR AND ELECTRONIC CHARGE     94.00000    93.99062     1.00010
     
       CHARGES OF OLD CHARGE DENSITY
:OTO  : TOTAL   INTERSTITIAL CHARGE=    4.1428771
:OTO001: TOTAL   CHARGE IN SPHERE  1 =       89.8571229

:NEC02: NUCLEAR AND ELECTRONIC CHARGE     94.00000    94.00000     1.00000
     
       CONVERGENCE TEST
:DTO001: TOTAL   DIFFERENCE CHARGE**2 IN SPHERE  1 =  0.0011440

:DIS  :  CHARGE DISTANCE       ( 0.0011440 for atom    1 spin 1)      0.0011440
:BIG check (qbig,qrms,qtot)    0.381D-03   0.809D-03   0.114D-02
 
******************************************************
* MULTISECANT MIXING VER4 OPTIONS                    *
* Unpredicted Step Limit   0.100000                  *
* Plane Wave Dynamic Rescaling                       *
* Dynamic Regularization active                      *
* Upper Cutoff Lambda  1.0E-01 Lower 3.5E-04         *
* SQRT Multiplicity/Degeneracy                       *
* Max Number of Memory Steps    8                    *
******************************************************
 
:PLANE:  INTERSTITIAL TOTAL      1.94230 DISTAN  2.104E-02 % 
:CHARG:  CLM CHARGE   /ATOM    713.23006 DISTAN  1.827E-03 % 
:INFO :  Dynamic rescale   2.577E+01  1.000E-01
:INFO :  Number of Memory Steps    2 Skipping    0
:INFO :  Singular value   2.595E+00 Weight   9.901E-01 Projections  -4.391E-03  6.216E-03
:INFO :  Singular value   3.389E-04 Weight   1.706E-06 Projections  -4.400E-03 -1.255E-06
:INFO :  Bounds         0.793D-01  0.200D+00  0.111D+00  0.793D-01
:DIRM :  MEMORY 2/8 RESCALE  25.77 RED 0.444 PRED 0.496 NEXT 0.903 COND 1.30E+00
:DIRP :  |BROYD|= 2.348E-03 |PRATT|= 8.351E-04 ANGLE=  23.4 DEGREES
:DIRB :  |BROYD|= 3.441E-03 |PRATT|= 1.328E-03 ANGLE=  20.6 DEGREES
:MIX  :  MSR1   REGULARIZATION: 2.59E-01  GREED: 0.079
     
       CHARGES OF MIXED CHARGE DENSITY
:CTO  : TOTAL   INTERSTITIAL CHARGE=    4.1433255
:CTO001: TOTAL   CHARGE IN SPHERE  1 =       89.8566745

:NEC03: NUCLEAR AND ELECTRONIC CHARGE     94.00000    94.00000     1.00000


:ENE  : ********** TOTAL ENERGY IN Ry =       -59354.70701056


------- epsilon_Pu_1.scf0 --------


            ---------
:ITE095: 95. ITERATION
            ---------

:NATO :    1 INDEPENDENT AND    1 TOTAL ATOMS IN UNITCELL
       SUBSTANCE: cubic body-centered  (epsilon Pu)                           

       LATTICE                      = B   
:POT  : POTENTIAL OPTION    5
:LAT  : LATTICE CONSTANTS=  5.93635  5.93635  5.93635    1.571    1.571    1.571
:VOL  : UNIT CELL VOLUME =     104.59923
       MODE OF CALCULATION IS       = RELA
       NON-SPINPOLARIZED CALCULATION
:IFFT  : FFT-parameters:   48   48   48 Factor: 2.00
       ATOMNUMBER=  1 Pu  0+     VCOUL-ZERO =  0.10281E+01
:FIT001: LUSE= 13 SIGMA OF V-XC FIT FOR ATOM  1  0.8113772E-04
:FIT001: LUSE= 13 SIGMA OF V-XC FIT FOR ATOM  1  0.8113772E-04
:DEN  : DENSITY INTEGRAL  =        -21951.71550619   (Ry)
       ELS_POTENTIAL_AT Z=0 and Z=0.5:  -2.77186  -2.77186
       ELS_POTENTIAL_AT Y=0 and Y=0.5:   0.00000   0.00000
:VZERO:v0,v0c,v0x  -3.90695  -2.77186  -1.13509 v5,v5c,v5x  -3.90695  -2.77186  -1.13509
:VZERY:v0,v0c,v0x  -1.07725   0.00000  -1.07725 v5,v5c,v5x  -1.07725   0.00000  -1.07725
:VZERX:v0,v0c,v0x  -1.07725   0.00000  -1.07725 v5,v5c,v5x  -1.07725   0.00000  -1.07725

------- epsilon_Pu_1.scf1 --------

          ATOMIC SPHERE DEPENDENT PARAMETERS FOR ATOM  Pu  0+    
:e__0001: OVERALL ENERGY PARAMETER IS    1.6560
          OVERALL BASIS SET ON ATOM IS LAPW
:E0_0001: E( 0)=    1.6560
             APW+lo
:E0_0001: E( 0)=   -1.5555   E(BOTTOM)=   -2.330   E(TOP)=   -0.781
             LOCAL ORBITAL
:E1_0001: E( 1)=   -0.6340   E(BOTTOM)=   -0.634   E(TOP)= -200.000
             APW+lo
:E1_0001: E( 1)=    1.6560
             LOCAL ORBITAL
:E3_0001: E( 3)=    1.6560   E(BOTTOM)=    1.406   E(TOP)= -200.000
             APW+lo
:E2_0001: E( 2)=    1.6560   E(BOTTOM)=    1.566   E(TOP)= -200.000
             APW+lo

       K=   0.00000   0.00000   0.00000            1
:RKM  : MATRIX SIZE  107LOs:  20  RKM= 7.88  WEIGHT= 1.00  PGR:    
       EIGENVALUES ARE:
:EIG00001:      -1.6244781    0.7330439    0.7330439    0.7330439    1.5975164
:EIG00006:       1.7382772    1.7382772    1.7382772    2.0053821    2.0053821
:EIG00011:       2.0053821    2.0861993    2.0861993    2.0861993    2.0875461
:EIG00016:       2.4271101    2.4271101    3.3353062    3.3353062    3.3353062
:EIG00021:       4.2958356    4.2958356    4.6162740    4.9407143    4.9407143
:EIG00026:       4.9407143    6.1041593    6.1041593    6.1041593    6.3979993
:EIG00031:       6.3979993    6.3979993    6.8198582    6.8198582    6.8198582
:EIG00036:       6.8797103    6.8797103    6.8797103    6.9442314    6.9442314
:EIG00041:       7.0249433    7.0249433    7.4649970
       ********************************************************

:KPT   :      NUMBER OF K-POINTS:   286

------- epsilon_Pu_1.scfso --------
   0.0   0.0 angle (M,z), angle (M,x) deg
 
        SPIN-ORBIT EIGENVALUES:
     K=   0.00000   0.00000   0.00000            1
      MATRIX SIZE=   86   WEIGHT= 1.00
     EIGENVALUES ARE:
          -1.6244781   -1.6244781    0.2120200    0.2120200    0.9642883
           0.9642883    0.9642884    0.9642884    1.5975164    1.5975164
           1.7255517    1.7255517    1.7375490    1.7375490    1.7375490
           1.7375490    1.9932540    1.9932540    1.9932540    1.9932540
           2.0398266    2.0398266    2.0654273    2.0654273    2.0654273
           2.0654273    2.0907004    2.0907004    2.1180810    2.1180810
           2.4303941    2.4303941    2.4303941    2.4303941    3.3295755
           3.3295755    3.3392822    3.3392822    3.3392822    3.3392822

           4.2955180    4.2955180    4.2955180    4.2955180
       ********************************************************

------- epsilon_Pu_1.scf2 --------
:GMA  : POTENTIAL AND CHARGE CUT-OFF  12.00 Ry**.5
         Bandranges (emin - emax) and occupancy:
:BAN00008:   8    0.476994    0.964288  1.00000000
:BAN00009:   9    1.449206    1.850798  1.00000000
:BAN00010:  10    1.449206    1.850798  1.00000000
:BAN00011:  11    1.455863    1.859731  1.00000000
:BAN00012:  12    1.455863    1.859731  1.00000000
:BAN00013:  13    1.712622    1.862299  1.00000000
:BAN00014:  14    1.712622    1.862299  1.00000000
:BAN00015:  15    1.735477    1.923952  0.90475596
:BAN00016:  16    1.735477    1.923952  0.90475596
:BAN00017:  17    1.840486    1.993254  0.09524404
:BAN00018:  18    1.840486    1.993254  0.09524404
:BAN00019:  19    1.910012    1.993254  0.00000000
:BAN00020:  20    1.910012    1.993254  0.00000000
:BAN00021:  21    1.953520    2.039827  0.00000000
:BAN00022:  22    1.953520    2.039827  0.00000000
:BAN00023:  23    1.986197    2.089428  0.00000000
        Energy to separate low and high energystates:    1.39921


:NLDA  : NUMBER OF ELECTRONS          =  16.000

:FLDA  : F E R M I - ENERGY           =   2.37155




:POS001: AT.NR.   1 POSITION = 0.00000 0.00000 0.00000  MULTIPLICITY =  1

       LMMAX  5
       LM=   0 0  4 0  4 4  6 0  6 4
:FER DMFT Fermi Energy   1.86683
:EORB    0.10999241
:SUM SUM OF DMFT BAND ENERGIES   13.52526603

:CHA001: TOTAL CHARGE INSIDE SPHERE   1 =    11.866828
:PCS001: PARTIAL CHARGES SPHERE =  1 S,P,D,F,      D-EG,D-T2G 
:QTL001: 1.9650 4.5569 0.8065 4.5291 0.0000 0.0000 0.0000 0.3178 0.5260 0.0000 0.0000 0.0000
        Q-s-low E-s-low   Q-p-low E-p-low   Q-d-low E-d-low   Q-f-low E-f-low
:EPL001:  1.8808 -1.4954    4.4183  0.4046    0.0449  0.5217    0.0227  0.5835
        Q-s-hi  E-s-hi    Q-p-hi  E-p-hi    Q-d-hi  E-d-hi    Q-f-hi  E-f-hi 
:EPH001:  0.0842  1.6967    0.1386  1.7415    0.7617  1.6990    4.5064  1.7977

:CHA  : TOTAL CHARGE INSIDE UNIT CELL =      16.000000

:ESUM  : SUM OF EIGENVALUES =          13.585289082


------- epsilon_Pu_1.scfc --------

        1.ATOM      Pu  0+               21 CORE STATES
:1S 001: 1S               -8965.884936091 Ry
:2S 001: 2S               -1686.559770889 Ry
:2PP001: 2P*              -1627.252713515 Ry
:2P 001: 2P               -1314.101966557 Ry
:3S 001: 3S                -427.105799593 Ry
:3PP001: 3P*               -400.181158209 Ry
:3P 001: 3P                -327.620135127 Ry
:3DD001: 3D*               -285.379589192 Ry
:3D 001: 3D                -270.837528152 Ry
:4S 001: 4S                -108.585955749 Ry
:4PP001: 4P*                -96.398110372 Ry
:4P 001: 4P                 -77.252516964 Ry
:4DD001: 4D*                -57.965132096 Ry
:4D 001: 4D                 -54.470503562 Ry
:5S 001: 5S                 -22.739607766 Ry
:5PP001: 5P*                -17.921377974 Ry
:5P 001: 5P                 -13.231300462 Ry
:4FF001: 4F*                -29.071016027 Ry
:4F 001: 4F                 -28.142909000 Ry
:5DD001: 5D*                 -6.194471228 Ry
:5D 001: 5D                  -5.494986475 Ry

------- epsilon_Pu_1.scfm --------

       DENSITY AT NUCLEUS
        JATOM    VALENCE       SEMI-CORE            CORE           TOTAL
:RTO001:   1    23781.935825        0.000000 45141821.597510 45165603.533335
     
       CHARGES OF NEW CHARGE DENSITY
:NTO  : TOTAL   INTERSTITIAL CHARGE=    4.1331660
:NTO001: TOTAL   CHARGE IN SPHERE  1 =       89.8574549

:NEC01: NUCLEAR AND ELECTRONIC CHARGE     94.00000    93.99062     1.00010
     
       CHARGES OF OLD CHARGE DENSITY
:OTO  : TOTAL   INTERSTITIAL CHARGE=    4.1433255
:OTO001: TOTAL   CHARGE IN SPHERE  1 =       89.8566745

:NEC02: NUCLEAR AND ELECTRONIC CHARGE     94.00000    94.00000     1.00000
     
       CONVERGENCE TEST
:DTO001: TOTAL   DIFFERENCE CHARGE**2 IN SPHERE  1 =  0.0012690

:DIS  :  CHARGE DISTANCE       ( 0.0012690 for atom    1 spin 1)      0.0012690
:BIG check (qbig,qrms,qtot)    0.423D-03   0.897D-03   0.127D-02
 
******************************************************
* MULTISECANT MIXING VER4 OPTIONS                    *
* Unpredicted Step Limit   0.100000                  *
* Plane Wave Dynamic Rescaling                       *
* Dynamic Regularization active                      *
* Upper Cutoff Lambda  1.0E-01 Lower 3.5E-04         *
* SQRT Multiplicity/Degeneracy                       *
* Max Number of Memory Steps    8                    *
******************************************************
 
:PLANE:  INTERSTITIAL TOTAL      1.94227 DISTAN  1.821E-02 % 
:CHARG:  CLM CHARGE   /ATOM    713.22983 DISTAN  1.532E-03 % 
:INFO :  Dynamic rescale   2.698E+01  1.000E-01
:INFO :  Number of Memory Steps    3 Skipping    0
:INFO :  Singular value   3.890E+00 Weight   1.000E+00 Projections   1.096E-01  6.987E-04
:INFO :  Singular value   1.223E-02 Weight   9.963E-01 Projections   2.914E-02 -1.751E-01
:INFO :  Singular value   1.755E-04 Weight   5.294E-02 Projections  -1.386E-01 -3.737E-02
:INFO :  Bounds         0.933D-01  0.200D+00  0.160D+00  0.933D-01
:DIRM :  MEMORY 3/8 RESCALE  26.98 RED 0.850 PRED 0.903 NEXT 0.625 COND 1.26E+00
:DIRP :  |BROYD|= 9.875E-03 |PRATT|= 8.901E-04 ANGLE=   0.9 DEGREES
:DIRB :  |BROYD|= 1.500E-02 |PRATT|= 1.353E-03 ANGLE=   0.7 DEGREES
:MIX  :  MSR1   REGULARIZATION: 7.42E-04  GREED: 0.093
     
       CHARGES OF MIXED CHARGE DENSITY
:CTO  : TOTAL   INTERSTITIAL CHARGE=    4.1425442
:CTO001: TOTAL   CHARGE IN SPHERE  1 =       89.8574558

:NEC03: NUCLEAR AND ELECTRONIC CHARGE     94.00000    94.00000     1.00000


:ENE  : ********** TOTAL ENERGY IN Ry =       -59354.70703187


------- epsilon_Pu_1.scf0 --------


            ---------
:ITE096: 96. ITERATION
            ---------

:NATO :    1 INDEPENDENT AND    1 TOTAL ATOMS IN UNITCELL
       SUBSTANCE: cubic body-centered  (epsilon Pu)                           

       LATTICE                      = B   
:POT  : POTENTIAL OPTION    5
:LAT  : LATTICE CONSTANTS=  5.93635  5.93635  5.93635    1.571    1.571    1.571
:VOL  : UNIT CELL VOLUME =     104.59923
       MODE OF CALCULATION IS       = RELA
       NON-SPINPOLARIZED CALCULATION
:IFFT  : FFT-parameters:   48   48   48 Factor: 2.00
       ATOMNUMBER=  1 Pu  0+     VCOUL-ZERO =  0.10279E+01
:FIT001: LUSE= 13 SIGMA OF V-XC FIT FOR ATOM  1  0.8167117E-04
:FIT001: LUSE= 13 SIGMA OF V-XC FIT FOR ATOM  1  0.8167117E-04
:DEN  : DENSITY INTEGRAL  =        -21951.88721572   (Ry)
       ELS_POTENTIAL_AT Z=0 and Z=0.5:  -2.77155  -2.77155
       ELS_POTENTIAL_AT Y=0 and Y=0.5:   0.00000   0.00000
:VZERO:v0,v0c,v0x  -3.90653  -2.77155  -1.13498 v5,v5c,v5x  -3.90653  -2.77155  -1.13498
:VZERY:v0,v0c,v0x  -1.07719   0.00000  -1.07719 v5,v5c,v5x  -1.07719   0.00000  -1.07719
:VZERX:v0,v0c,v0x  -1.07719   0.00000  -1.07719 v5,v5c,v5x  -1.07719   0.00000  -1.07719

------- epsilon_Pu_1.scf1 --------

          ATOMIC SPHERE DEPENDENT PARAMETERS FOR ATOM  Pu  0+    
:e__0001: OVERALL ENERGY PARAMETER IS    1.6560
          OVERALL BASIS SET ON ATOM IS LAPW
:E0_0001: E( 0)=    1.6560
             APW+lo
:E0_0001: E( 0)=   -1.5545   E(BOTTOM)=   -2.329   E(TOP)=   -0.780
             LOCAL ORBITAL
:E1_0001: E( 1)=   -0.6340   E(BOTTOM)=   -0.634   E(TOP)= -200.000
             APW+lo
:E1_0001: E( 1)=    1.6560
             LOCAL ORBITAL
:E3_0001: E( 3)=    1.6560   E(BOTTOM)=    1.406   E(TOP)= -200.000
             APW+lo
:E2_0001: E( 2)=    1.6560   E(BOTTOM)=    1.566   E(TOP)= -200.000
             APW+lo

       K=   0.00000   0.00000   0.00000            1
:RKM  : MATRIX SIZE  107LOs:  20  RKM= 7.88  WEIGHT= 1.00  PGR:    
       EIGENVALUES ARE:
:EIG00001:      -1.6240627    0.7333451    0.7333451    0.7333451    1.5974839
:EIG00006:       1.7387226    1.7387226    1.7387226    2.0060809    2.0060809
:EIG00011:       2.0060809    2.0862371    2.0862371    2.0862371    2.0884113
:EIG00016:       2.4270163    2.4270163    3.3355307    3.3355307    3.3355307
:EIG00021:       4.2958207    4.2958207    4.6161644    4.9407661    4.9407661
:EIG00026:       4.9407661    6.1042793    6.1042793    6.1042793    6.3979258
:EIG00031:       6.3979258    6.3979258    6.8198499    6.8198499    6.8198499
:EIG00036:       6.8796968    6.8796968    6.8796968    6.9440679    6.9440679
:EIG00041:       7.0248209    7.0248209    7.4650346
       ********************************************************

:KPT   :      NUMBER OF K-POINTS:   286

------- epsilon_Pu_1.scfso --------
   0.0   0.0 angle (M,z), angle (M,x) deg
 
        SPIN-ORBIT EIGENVALUES:
     K=   0.00000   0.00000   0.00000            1
      MATRIX SIZE=   86   WEIGHT= 1.00
     EIGENVALUES ARE:
          -1.6240627   -1.6240627    0.2123889    0.2123889    0.9645585
           0.9645585    0.9645585    0.9645585    1.5974839    1.5974839
           1.7260122    1.7260122    1.7380015    1.7380015    1.7380015
           1.7380015    1.9939511    1.9939511    1.9939511    1.9939511
           2.0405081    2.0405081    2.0654668    2.0654668    2.0654668
           2.0654668    2.0915564    2.0915564    2.1181156    2.1181156
           2.4303005    2.4303005    2.4303005    2.4303005    3.3297977
           3.3297977    3.3395085    3.3395085    3.3395085    3.3395085

           4.2955033    4.2955033    4.2955033    4.2955033
       ********************************************************

------- epsilon_Pu_1.scf2 --------
:GMA  : POTENTIAL AND CHARGE CUT-OFF  12.00 Ry**.5
         Bandranges (emin - emax) and occupancy:
:BAN00008:   8    0.477148    0.964559  1.00000000
:BAN00009:   9    1.449059    1.851430  1.00000000
:BAN00010:  10    1.449059    1.851430  1.00000000
:BAN00011:  11    1.455720    1.860347  1.00000000
:BAN00012:  12    1.455720    1.860347  1.00000000
:BAN00013:  13    1.712788    1.862947  1.00000000
:BAN00014:  14    1.712788    1.862947  1.00000000
:BAN00015:  15    1.735927    1.924426  0.90491747
:BAN00016:  16    1.735927    1.924426  0.90491747
:BAN00017:  17    1.841017    1.993951  0.09508253
:BAN00018:  18    1.841017    1.993951  0.09508253
:BAN00019:  19    1.910554    1.993951  0.00000000
:BAN00020:  20    1.910554    1.993951  0.00000000
:BAN00021:  21    1.954106    2.040508  0.00000000
:BAN00022:  22    1.954106    2.040508  0.00000000
:BAN00023:  23    1.986729    2.089763  0.00000000
        Energy to separate low and high energystates:    1.39906


:NLDA  : NUMBER OF ELECTRONS          =  16.000

:FLDA  : F E R M I - ENERGY           =   2.37209




:POS001: AT.NR.   1 POSITION = 0.00000 0.00000 0.00000  MULTIPLICITY =  1

       LMMAX  5
       LM=   0 0  4 0  4 4  6 0  6 4
:FER DMFT Fermi Energy   1.86691
:EORB    0.11285706
:SUM SUM OF DMFT BAND ENERGIES   13.52743304

:CHA001: TOTAL CHARGE INSIDE SPHERE   1 =    11.864607
:PCS001: PARTIAL CHARGES SPHERE =  1 S,P,D,F,      D-EG,D-T2G 
:QTL001: 1.9650 4.5566 0.8068 4.5270 0.0000 0.0000 0.0000 0.3179 0.5262 0.0000 0.0000 0.0000
        Q-s-low E-s-low   Q-p-low E-p-low   Q-d-low E-d-low   Q-f-low E-f-low
:EPL001:  1.8808 -1.4949    4.4178  0.4048    0.0449  0.5219    0.0227  0.5837
        Q-s-hi  E-s-hi    Q-p-hi  E-p-hi    Q-d-hi  E-d-hi    Q-f-hi  E-f-hi 
:EPH001:  0.0842  1.6969    0.1388  1.7419    0.7619  1.6992    4.5043  1.7981

:CHA  : TOTAL CHARGE INSIDE UNIT CELL =      16.000000

:ESUM  : SUM OF EIGENVALUES =          13.590153439


------- epsilon_Pu_1.scfc --------

        1.ATOM      Pu  0+               21 CORE STATES
:1S 001: 1S               -8965.882024843 Ry
:2S 001: 2S               -1686.556955294 Ry
:2PP001: 2P*              -1627.249874250 Ry
:2P 001: 2P               -1314.099150925 Ry
:3S 001: 3S                -427.103186009 Ry
:3PP001: 3P*               -400.178523369 Ry
:3P 001: 3P                -327.617547485 Ry
:3DD001: 3D*               -285.376949497 Ry
:3D 001: 3D                -270.834901851 Ry
:4S 001: 4S                -108.583773758 Ry
:4PP001: 4P*                -96.395922421 Ry
:4P 001: 4P                 -77.250416432 Ry
:4DD001: 4D*                -57.963018855 Ry
:4D 001: 4D                 -54.468415346 Ry
:5S 001: 5S                 -22.738077213 Ry
:5PP001: 5P*                -17.919888525 Ry
:5P 001: 5P                 -13.229947617 Ry
:4FF001: 4F*                -29.068889936 Ry
:4F 001: 4F                 -28.140795316 Ry
:5DD001: 5D*                 -6.193250713 Ry
:5D 001: 5D                  -5.493809991 Ry

------- epsilon_Pu_1.scfm --------

       DENSITY AT NUCLEUS
        JATOM    VALENCE       SEMI-CORE            CORE           TOTAL
:RTO001:   1    23779.657327        0.000000 45141815.910427 45165595.567754
     
       CHARGES OF NEW CHARGE DENSITY
:NTO  : TOTAL   INTERSTITIAL CHARGE=    4.1353872
:NTO001: TOTAL   CHARGE IN SPHERE  1 =       89.8552279

:NEC01: NUCLEAR AND ELECTRONIC CHARGE     94.00000    93.99062     1.00010
     
       CHARGES OF OLD CHARGE DENSITY
:OTO  : TOTAL   INTERSTITIAL CHARGE=    4.1425442
:OTO001: TOTAL   CHARGE IN SPHERE  1 =       89.8574558

:NEC02: NUCLEAR AND ELECTRONIC CHARGE     94.00000    94.00000     1.00000
     
       CONVERGENCE TEST
:DTO001: TOTAL   DIFFERENCE CHARGE**2 IN SPHERE  1 =  0.0027872

:DIS  :  CHARGE DISTANCE       ( 0.0027872 for atom    1 spin 1)      0.0027872
:BIG check (qbig,qrms,qtot)    0.929D-03   0.197D-02   0.279D-02
 
******************************************************
* MULTISECANT MIXING VER4 OPTIONS                    *
* Unpredicted Step Limit   0.100000                  *
* Plane Wave Dynamic Rescaling                       *
* Dynamic Regularization active                      *
* Upper Cutoff Lambda  1.0E-01 Lower 3.5E-04         *
* SQRT Multiplicity/Degeneracy                       *
* Max Number of Memory Steps    8                    *
******************************************************
 
:PLANE:  INTERSTITIAL TOTAL      1.94201 DISTAN  1.694E-02 % 
:CHARG:  CLM CHARGE   /ATOM    713.23092 DISTAN  9.844E-04 % 
:INFO :  Dynamic rescale   2.574E+01  1.000E-01
:INFO :  Number of Memory Steps    4 Skipping    0
:INFO :  Singular value   4.692E+00 Weight   1.000E+00 Projections   3.355E-03 -7.414E-05
:INFO :  Singular value   2.051E+00 Weight   1.000E+00 Projections  -2.246E-02  8.537E-03
:INFO :  Singular value   5.017E-04 Weight   6.726E-01 Projections   2.893E-02 -3.946E-02
:INFO :  Singular value   9.890E-07 Weight   7.985E-06 Projections  -1.663E-02 -4.790E-06
:INFO :  Bounds         0.121D+00  0.200D+00  0.842D+00  0.121D+00
:DIRM :  MEMORY 4/8 RESCALE  25.74 RED 0.773 PRED 0.625 NEXT 0.119 COND 1.17E+00
:DIRP :  |BROYD|= 2.682E-03 |PRATT|= 1.021E-03 ANGLE=  17.1 DEGREES
:DIRB :  |BROYD|= 3.506E-03 |PRATT|= 1.327E-03 ANGLE=  17.7 DEGREES
:MIX  :  MSR1   REGULARIZATION: 3.50E-04  GREED: 0.121
     
       CHARGES OF MIXED CHARGE DENSITY
:CTO  : TOTAL   INTERSTITIAL CHARGE=    4.1432371
:CTO001: TOTAL   CHARGE IN SPHERE  1 =       89.8567629

:NEC03: NUCLEAR AND ELECTRONIC CHARGE     94.00000    94.00000     1.00000


:ENE  : ********** TOTAL ENERGY IN Ry =       -59354.70696835


------- epsilon_Pu_1.scf0 --------


            ---------
:ITE097: 97. ITERATION
            ---------

:NATO :    1 INDEPENDENT AND    1 TOTAL ATOMS IN UNITCELL
       SUBSTANCE: cubic body-centered  (epsilon Pu)                           

       LATTICE                      = B   
:POT  : POTENTIAL OPTION    5
:LAT  : LATTICE CONSTANTS=  5.93635  5.93635  5.93635    1.571    1.571    1.571
:VOL  : UNIT CELL VOLUME =     104.59923
       MODE OF CALCULATION IS       = RELA
       NON-SPINPOLARIZED CALCULATION
:IFFT  : FFT-parameters:   48   48   48 Factor: 2.00
       ATOMNUMBER=  1 Pu  0+     VCOUL-ZERO =  0.10280E+01
:FIT001: LUSE= 13 SIGMA OF V-XC FIT FOR ATOM  1  0.8164839E-04
:FIT001: LUSE= 13 SIGMA OF V-XC FIT FOR ATOM  1  0.8164839E-04
:DEN  : DENSITY INTEGRAL  =        -21951.77505884   (Ry)
       ELS_POTENTIAL_AT Z=0 and Z=0.5:  -2.77177  -2.77177
       ELS_POTENTIAL_AT Y=0 and Y=0.5:   0.00000   0.00000
:VZERO:v0,v0c,v0x  -3.90678  -2.77177  -1.13501 v5,v5c,v5x  -3.90678  -2.77177  -1.13501
:VZERY:v0,v0c,v0x  -1.07722   0.00000  -1.07722 v5,v5c,v5x  -1.07722   0.00000  -1.07722
:VZERX:v0,v0c,v0x  -1.07722   0.00000  -1.07722 v5,v5c,v5x  -1.07722   0.00000  -1.07722

------- epsilon_Pu_1.scf1 --------

          ATOMIC SPHERE DEPENDENT PARAMETERS FOR ATOM  Pu  0+    
:e__0001: OVERALL ENERGY PARAMETER IS    1.6560
          OVERALL BASIS SET ON ATOM IS LAPW
:E0_0001: E( 0)=    1.6560
             APW+lo
:E0_0001: E( 0)=   -1.5555   E(BOTTOM)=   -2.330   E(TOP)=   -0.781
             LOCAL ORBITAL
:E1_0001: E( 1)=   -0.6340   E(BOTTOM)=   -0.634   E(TOP)= -200.000
             APW+lo
:E1_0001: E( 1)=    1.6560
             LOCAL ORBITAL
:E3_0001: E( 3)=    1.6560   E(BOTTOM)=    1.406   E(TOP)= -200.000
             APW+lo
:E2_0001: E( 2)=    1.6560   E(BOTTOM)=    1.566   E(TOP)= -200.000
             APW+lo

       K=   0.00000   0.00000   0.00000            1
:RKM  : MATRIX SIZE  107LOs:  20  RKM= 7.88  WEIGHT= 1.00  PGR:    
       EIGENVALUES ARE:
:EIG00001:      -1.6243975    0.7330865    0.7330865    0.7330865    1.5974652
:EIG00006:       1.7383732    1.7383732    1.7383732    2.0055414    2.0055414
:EIG00011:       2.0055414    2.0861895    2.0861895    2.0861895    2.0878217
:EIG00016:       2.4270159    2.4270159    3.3353356    3.3353356    3.3353356
:EIG00021:       4.2957868    4.2957868    4.6162008    4.9406831    4.9406831
:EIG00026:       4.9406831    6.1041651    6.1041651    6.1041651    6.3979198
:EIG00031:       6.3979198    6.3979198    6.8198245    6.8198245    6.8198245
:EIG00036:       6.8796579    6.8796579    6.8796579    6.9441530    6.9441530
:EIG00041:       7.0248443    7.0248443    7.4649537
       ********************************************************

:KPT   :      NUMBER OF K-POINTS:   286

------- epsilon_Pu_1.scfso --------
   0.0   0.0 angle (M,z), angle (M,x) deg
 
        SPIN-ORBIT EIGENVALUES:
     K=   0.00000   0.00000   0.00000            1
      MATRIX SIZE=   86   WEIGHT= 1.00
     EIGENVALUES ARE:
          -1.6243975   -1.6243975    0.2120837    0.2120837    0.9643211
           0.9643211    0.9643211    0.9643211    1.5974652    1.5974652
           1.7256530    1.7256530    1.7376470    1.7376470    1.7376470
           1.7376470    1.9934140    1.9934140    1.9934140    1.9934140
           2.0399793    2.0399793    2.0654173    2.0654173    2.0654173
           2.0654173    2.0909725    2.0909725    2.1180704    2.1180704
           2.4303005    2.4303005    2.4303005    2.4303005    3.3296042
           3.3296042    3.3393121    3.3393121    3.3393121    3.3393121

           4.2954693    4.2954693    4.2954693    4.2954693
       ********************************************************

------- epsilon_Pu_1.scf2 --------
:GMA  : POTENTIAL AND CHARGE CUT-OFF  12.00 Ry**.5
         Bandranges (emin - emax) and occupancy:
:BAN00008:   8    0.477004    0.964321  1.00000000
:BAN00009:   9    1.449109    1.850965  1.00000000
:BAN00010:  10    1.449109    1.850965  1.00000000
:BAN00011:  11    1.455767    1.859868  1.00000000
:BAN00012:  12    1.455767    1.859868  1.00000000
:BAN00013:  13    1.712633    1.862463  1.00000000
:BAN00014:  14    1.712633    1.862463  1.00000000
:BAN00015:  15    1.735574    1.924070  0.90482410
:BAN00016:  16    1.735574    1.924070  0.90482410
:BAN00017:  17    1.840637    1.993414  0.09517590
:BAN00018:  18    1.840637    1.993414  0.09517590
:BAN00019:  19    1.910113    1.993414  0.00000000
:BAN00020:  20    1.910113    1.993414  0.00000000
:BAN00021:  21    1.953654    2.039979  0.00000000
:BAN00022:  22    1.953654    2.039979  0.00000000
:BAN00023:  23    1.986310    2.089481  0.00000000
        Energy to separate low and high energystates:    1.39911


:NLDA  : NUMBER OF ELECTRONS          =  16.000

:FLDA  : F E R M I - ENERGY           =   2.37168




:POS001: AT.NR.   1 POSITION = 0.00000 0.00000 0.00000  MULTIPLICITY =  1

       LMMAX  5
       LM=   0 0  4 0  4 4  6 0  6 4
:FER DMFT Fermi Energy   1.86667
:EORB    0.11181762
:SUM SUM OF DMFT BAND ENERGIES   13.52430413

:CHA001: TOTAL CHARGE INSIDE SPHERE   1 =    11.866709
:PCS001: PARTIAL CHARGES SPHERE =  1 S,P,D,F,      D-EG,D-T2G 
:QTL001: 1.9650 4.5567 0.8063 4.5294 0.0000 0.0000 0.0000 0.3177 0.5258 0.0000 0.0000 0.0000
        Q-s-low E-s-low   Q-p-low E-p-low   Q-d-low E-d-low   Q-f-low E-f-low
:EPL001:  1.8808 -1.4953    4.4181  0.4046    0.0449  0.5217    0.0227  0.5836
        Q-s-hi  E-s-hi    Q-p-hi  E-p-hi    Q-d-hi  E-d-hi    Q-f-hi  E-f-hi 
:EPH001:  0.0842  1.6967    0.1386  1.7416    0.7614  1.6990    4.5068  1.7978

:CHA  : TOTAL CHARGE INSIDE UNIT CELL =      16.000000

:ESUM  : SUM OF EIGENVALUES =          13.586124391


------- epsilon_Pu_1.scfc --------

        1.ATOM      Pu  0+               21 CORE STATES
:1S 001: 1S               -8965.883831300 Ry
:2S 001: 2S               -1686.558721432 Ry
:2PP001: 2P*              -1627.251650744 Ry
:2P 001: 2P               -1314.100916961 Ry
:3S 001: 3S                -427.104845574 Ry
:3PP001: 3P*               -400.180194724 Ry
:3P 001: 3P                -327.619191809 Ry
:3DD001: 3D*               -285.378624072 Ry
:3D 001: 3D                -270.836568946 Ry
:4S 001: 4S                -108.585181345 Ry
:4PP001: 4P*                -96.397333460 Ry
:4P 001: 4P                 -77.251778264 Ry
:4DD001: 4D*                -57.964388234 Ry
:4D 001: 4D                 -54.469770749 Ry
:5S 001: 5S                 -22.739125551 Ry
:5PP001: 5P*                -17.920912992 Ry
:5P 001: 5P                 -13.230892245 Ry
:4FF001: 4F*                -29.070268033 Ry
:4F 001: 4F                 -28.142166374 Ry
:5DD001: 5D*                 -6.194114425 Ry
:5D 001: 5D                  -5.494646715 Ry

------- epsilon_Pu_1.scfm --------

       DENSITY AT NUCLEUS
        JATOM    VALENCE       SEMI-CORE            CORE           TOTAL
:RTO001:   1    23780.670633        0.000000 45141819.078820 45165599.749453
     
       CHARGES OF NEW CHARGE DENSITY
:NTO  : TOTAL   INTERSTITIAL CHARGE=    4.1332846
:NTO001: TOTAL   CHARGE IN SPHERE  1 =       89.8573343

:NEC01: NUCLEAR AND ELECTRONIC CHARGE     94.00000    93.99062     1.00010
     
       CHARGES OF OLD CHARGE DENSITY
:OTO  : TOTAL   INTERSTITIAL CHARGE=    4.1432371
:OTO001: TOTAL   CHARGE IN SPHERE  1 =       89.8567629

:NEC02: NUCLEAR AND ELECTRONIC CHARGE     94.00000    94.00000     1.00000
     
       CONVERGENCE TEST
:DTO001: TOTAL   DIFFERENCE CHARGE**2 IN SPHERE  1 =  0.0007382

:DIS  :  CHARGE DISTANCE       ( 0.0007382 for atom    1 spin 1)      0.0007382
:BIG check (qbig,qrms,qtot)    0.246D-03   0.522D-03   0.738D-03
 
******************************************************
* MULTISECANT MIXING VER4 OPTIONS                    *
* Unpredicted Step Limit   0.100000                  *
* Plane Wave Dynamic Rescaling                       *
* Dynamic Regularization active                      *
* Upper Cutoff Lambda  1.0E-01 Lower 3.5E-04         *
* SQRT Multiplicity/Degeneracy                       *
* Max Number of Memory Steps    8                    *
******************************************************
 
:PLANE:  INTERSTITIAL TOTAL      1.94205 DISTAN  5.138E-03 % 
:CHARG:  CLM CHARGE   /ATOM    713.23030 DISTAN  2.415E-04 % 
:INFO :  Dynamic rescale   2.409E+01  1.000E-01
:INFO :  Number of Memory Steps    5 Skipping    0
:INFO :  Singular value   5.719E+00 Weight   1.000E+00 Projections   8.035E-03 -3.109E-04
:INFO :  Singular value   2.278E+00 Weight   1.000E+00 Projections  -1.719E-02 -1.701E-03
:INFO :  Singular value   9.077E-04 Weight   8.706E-01 Projections   3.855E-02 -1.933E-02
:INFO :  Singular value   3.014E-04 Weight   4.258E-01 Projections  -3.197E-02  5.078E-02
:INFO :  Singular value   6.422E-07 Weight   3.367E-06 Projections  -9.331E-03  1.717E-06
:INFO :  Bounds         0.241D+00  0.200D+00  0.300D+00  0.200D+00
:DIRM :  MEMORY 5/8 RESCALE  24.09 RED 0.279 PRED 0.119 NEXT 0.334 COND 1.14E+00
:DIRP :  |BROYD|= 5.305E-04 |PRATT|= 4.806E-04 ANGLE=  20.3 DEGREES
:DIRB :  |BROYD|= 6.499E-04 |PRATT|= 5.914E-04 ANGLE=  23.0 DEGREES
:MIX  :  MSR1   REGULARIZATION: 3.50E-04  GREED: 0.200
     
       CHARGES OF MIXED CHARGE DENSITY
:CTO  : TOTAL   INTERSTITIAL CHARGE=    4.1431538
:CTO001: TOTAL   CHARGE IN SPHERE  1 =       89.8568462

:NEC03: NUCLEAR AND ELECTRONIC CHARGE     94.00000    94.00000     1.00000


:ENE  : ********** TOTAL ENERGY IN Ry =       -59354.70701302


------- epsilon_Pu_1.scf0 --------


            ---------
:ITE098: 98. ITERATION
            ---------

:NATO :    1 INDEPENDENT AND    1 TOTAL ATOMS IN UNITCELL
       SUBSTANCE: cubic body-centered  (epsilon Pu)                           

       LATTICE                      = B   
:POT  : POTENTIAL OPTION    5
:LAT  : LATTICE CONSTANTS=  5.93635  5.93635  5.93635    1.571    1.571    1.571
:VOL  : UNIT CELL VOLUME =     104.59923
       MODE OF CALCULATION IS       = RELA
       NON-SPINPOLARIZED CALCULATION
:IFFT  : FFT-parameters:   48   48   48 Factor: 2.00
       ATOMNUMBER=  1 Pu  0+     VCOUL-ZERO =  0.10280E+01
:FIT001: LUSE= 13 SIGMA OF V-XC FIT FOR ATOM  1  0.8160974E-04
:FIT001: LUSE= 13 SIGMA OF V-XC FIT FOR ATOM  1  0.8160974E-04
:DEN  : DENSITY INTEGRAL  =        -21951.77573465   (Ry)
       ELS_POTENTIAL_AT Z=0 and Z=0.5:  -2.77172  -2.77172
       ELS_POTENTIAL_AT Y=0 and Y=0.5:   0.00000   0.00000
:VZERO:v0,v0c,v0x  -3.90673  -2.77172  -1.13501 v5,v5c,v5x  -3.90673  -2.77172  -1.13501
:VZERY:v0,v0c,v0x  -1.07722   0.00000  -1.07722 v5,v5c,v5x  -1.07722   0.00000  -1.07722
:VZERX:v0,v0c,v0x  -1.07722   0.00000  -1.07722 v5,v5c,v5x  -1.07722   0.00000  -1.07722

------- epsilon_Pu_1.scf1 --------

          ATOMIC SPHERE DEPENDENT PARAMETERS FOR ATOM  Pu  0+    
:e__0001: OVERALL ENERGY PARAMETER IS    1.6560
          OVERALL BASIS SET ON ATOM IS LAPW
:E0_0001: E( 0)=    1.6560
             APW+lo
:E0_0001: E( 0)=   -1.5555   E(BOTTOM)=   -2.330   E(TOP)=   -0.781
             LOCAL ORBITAL
:E1_0001: E( 1)=   -0.6340   E(BOTTOM)=   -0.634   E(TOP)= -200.000
             APW+lo
:E1_0001: E( 1)=    1.6560
             LOCAL ORBITAL
:E3_0001: E( 3)=    1.6560   E(BOTTOM)=    1.406   E(TOP)= -200.000
             APW+lo
:E2_0001: E( 2)=    1.6560   E(BOTTOM)=    1.566   E(TOP)= -200.000
             APW+lo

       K=   0.00000   0.00000   0.00000            1
:RKM  : MATRIX SIZE  107LOs:  20  RKM= 7.88  WEIGHT= 1.00  PGR:    
       EIGENVALUES ARE:
:EIG00001:      -1.6243762    0.7331021    0.7331021    0.7331021    1.5974591
:EIG00006:       1.7383928    1.7383928    1.7383928    2.0055763    2.0055763
:EIG00011:       2.0055763    2.0861856    2.0861856    2.0861856    2.0878559
:EIG00016:       2.4270110    2.4270110    3.3353401    3.3353401    3.3353401
:EIG00021:       4.2957829    4.2957829    4.6161922    4.9406808    4.9406808
:EIG00026:       4.9406808    6.1041675    6.1041675    6.1041675    6.3979161
:EIG00031:       6.3979161    6.3979161    6.8198186    6.8198186    6.8198186
:EIG00036:       6.8796535    6.8796535    6.8796535    6.9441394    6.9441394
:EIG00041:       7.0248365    7.0248365    7.4649543
       ********************************************************

:KPT   :      NUMBER OF K-POINTS:   286

------- epsilon_Pu_1.scfso --------
   0.0   0.0 angle (M,z), angle (M,x) deg
 
        SPIN-ORBIT EIGENVALUES:
     K=   0.00000   0.00000   0.00000            1
      MATRIX SIZE=   86   WEIGHT= 1.00
     EIGENVALUES ARE:
          -1.6243762   -1.6243762    0.2121030    0.2121030    0.9643349
           0.9643349    0.9643349    0.9643349    1.5974591    1.5974591
           1.7256732    1.7256732    1.7376669    1.7376669    1.7376669
           1.7376669    1.9934486    1.9934486    1.9934486    1.9934486
           2.0400136    2.0400136    2.0654137    2.0654137    2.0654137
           2.0654137    2.0910064    2.0910064    2.1180663    2.1180663
           2.4302955    2.4302955    2.4302955    2.4302955    3.3296086
           3.3296086    3.3393168    3.3393168    3.3393168    3.3393168

           4.2954654    4.2954654    4.2954654    4.2954654
       ********************************************************

------- epsilon_Pu_1.scf2 --------
:GMA  : POTENTIAL AND CHARGE CUT-OFF  12.00 Ry**.5
         Bandranges (emin - emax) and occupancy:
:BAN00008:   8    0.477010    0.964335  1.00000000
:BAN00009:   9    1.449099    1.850992  1.00000000
:BAN00010:  10    1.449099    1.850992  1.00000000
:BAN00011:  11    1.455758    1.859898  1.00000000
:BAN00012:  12    1.455758    1.859898  1.00000000
:BAN00013:  13    1.712638    1.862492  1.00000000
:BAN00014:  14    1.712638    1.862492  1.00000000
:BAN00015:  15    1.735594    1.924089  0.90483049
:BAN00016:  16    1.735594    1.924089  0.90483049
:BAN00017:  17    1.840658    1.993449  0.09516951
:BAN00018:  18    1.840658    1.993449  0.09516951
:BAN00019:  19    1.910142    1.993449  0.00000000
:BAN00020:  20    1.910142    1.993449  0.00000000
:BAN00021:  21    1.953681    2.040014  0.00000000
:BAN00022:  22    1.953681    2.040014  0.00000000
:BAN00023:  23    1.986336    2.089496  0.00000000
        Energy to separate low and high energystates:    1.39910


:NLDA  : NUMBER OF ELECTRONS          =  16.000

:FLDA  : F E R M I - ENERGY           =   2.37170




:POS001: AT.NR.   1 POSITION = 0.00000 0.00000 0.00000  MULTIPLICITY =  1

       LMMAX  5
       LM=   0 0  4 0  4 4  6 0  6 4
:FER DMFT Fermi Energy   1.86658
:EORB    0.11253521
:SUM SUM OF DMFT BAND ENERGIES   13.52382058

:CHA001: TOTAL CHARGE INSIDE SPHERE   1 =    11.866911
:PCS001: PARTIAL CHARGES SPHERE =  1 S,P,D,F,      D-EG,D-T2G 
:QTL001: 1.9650 4.5567 0.8061 4.5299 0.0000 0.0000 0.0000 0.3177 0.5256 0.0000 0.0000 0.0000
        Q-s-low E-s-low   Q-p-low E-p-low   Q-d-low E-d-low   Q-f-low E-f-low
:EPL001:  1.8808 -1.4952    4.4181  0.4046    0.0449  0.5217    0.0227  0.5836
        Q-s-hi  E-s-hi    Q-p-hi  E-p-hi    Q-d-hi  E-d-hi    Q-f-hi  E-f-hi 
:EPH001:  0.0841  1.6967    0.1386  1.7416    0.7612  1.6990    4.5072  1.7978

:CHA  : TOTAL CHARGE INSIDE UNIT CELL =      16.000002

:ESUM  : SUM OF EIGENVALUES =          13.586355316


------- epsilon_Pu_1.scfc --------

        1.ATOM      Pu  0+               21 CORE STATES
:1S 001: 1S               -8965.883895160 Ry
:2S 001: 2S               -1686.558770808 Ry
:2PP001: 2P*              -1627.251703857 Ry
:2P 001: 2P               -1314.100966347 Ry
:3S 001: 3S                -427.104866825 Ry
:3PP001: 3P*               -400.180218494 Ry
:3P 001: 3P                -327.619210596 Ry
:3DD001: 3D*               -285.378648616 Ry
:3D 001: 3D                -270.836591906 Ry
:4S 001: 4S                -108.585168226 Ry
:4PP001: 4P*                -96.397320913 Ry
:4P 001: 4P                 -77.251759846 Ry
:4DD001: 4D*                -57.964370902 Ry
:4D 001: 4D                 -54.469751767 Ry
:5S 001: 5S                 -22.739080427 Ry
:5PP001: 5P*                -17.920867371 Ry
:5P 001: 5P                 -13.230845055 Ry
:4FF001: 4F*                -29.070250965 Ry
:4F 001: 4F                 -28.142148501 Ry
:5DD001: 5D*                 -6.194068106 Ry
:5D 001: 5D                  -5.494600717 Ry

------- epsilon_Pu_1.scfm --------

       DENSITY AT NUCLEUS
        JATOM    VALENCE       SEMI-CORE            CORE           TOTAL
:RTO001:   1    23780.259361        0.000000 45141819.435550 45165599.694911
     
       CHARGES OF NEW CHARGE DENSITY
:NTO  : TOTAL   INTERSTITIAL CHARGE=    4.1330847
:NTO001: TOTAL   CHARGE IN SPHERE  1 =       89.8575361

:NEC01: NUCLEAR AND ELECTRONIC CHARGE     94.00000    93.99062     1.00010
     
       CHARGES OF OLD CHARGE DENSITY
:OTO  : TOTAL   INTERSTITIAL CHARGE=    4.1431538
:OTO001: TOTAL   CHARGE IN SPHERE  1 =       89.8568462

:NEC02: NUCLEAR AND ELECTRONIC CHARGE     94.00000    94.00000     1.00000
     
       CONVERGENCE TEST
:DTO001: TOTAL   DIFFERENCE CHARGE**2 IN SPHERE  1 =  0.0008623

:DIS  :  CHARGE DISTANCE       ( 0.0008623 for atom    1 spin 1)      0.0008623
:BIG check (qbig,qrms,qtot)    0.287D-03   0.610D-03   0.862D-03
 
******************************************************
* MULTISECANT MIXING VER4 OPTIONS                    *
* Unpredicted Step Limit   0.100000                  *
* Plane Wave Dynamic Rescaling                       *
* Dynamic Regularization active                      *
* Upper Cutoff Lambda  1.0E-01 Lower 3.5E-04         *
* SQRT Multiplicity/Degeneracy                       *
* Max Number of Memory Steps    8                    *
******************************************************
 
:PLANE:  INTERSTITIAL TOTAL      1.94203 DISTAN  6.070E-03 % 
:CHARG:  CLM CHARGE   /ATOM    713.23023 DISTAN  2.712E-04 % 
:INFO :  Dynamic rescale   2.279E+01  1.000E-01
:INFO :  Number of Memory Steps    6 Skipping    0
:INFO :  Singular value   5.790E+00 Weight   1.000E+00 Projections  -3.003E-03 -3.591E-04
:INFO :  Singular value   2.486E+00 Weight   1.000E+00 Projections  -3.657E-02 -1.691E-03
:INFO :  Singular value   5.177E-01 Weight   1.000E+00 Projections   5.541E-02 -2.285E-03
:INFO :  Singular value   6.397E-04 Weight   7.696E-01 Projections  -2.889E-02  7.346E-02
:INFO :  Singular value   1.040E-05 Weight   8.813E-04 Projections   1.219E-02 -3.596E-05
:INFO :  Singular value   6.870E-07 Weight   3.853E-06 Projections  -1.951E-03 -2.183E-06
:INFO :  Bounds         0.172D+00  0.200D+00  0.440D+00  0.172D+00
:DIRM :  MEMORY 6/8 RESCALE  22.79 RED 1.160 PRED 0.334 NEXT 0.227 COND 9.65E-01
:DIRP :  |BROYD|= 9.376E-04 |PRATT|= 4.631E-04 ANGLE=  24.7 DEGREES
:DIRB :  |BROYD|= 1.107E-03 |PRATT|= 5.706E-04 ANGLE=  28.6 DEGREES
:MIX  :  MSR1   REGULARIZATION: 3.50E-04  GREED: 0.172
     
       CHARGES OF MIXED CHARGE DENSITY
:CTO  : TOTAL   INTERSTITIAL CHARGE=    4.1430095
:CTO001: TOTAL   CHARGE IN SPHERE  1 =       89.8569905

:NEC03: NUCLEAR AND ELECTRONIC CHARGE     94.00000    94.00000     1.00000


:ENE  : ********** TOTAL ENERGY IN Ry =       -59354.70700103


------- epsilon_Pu_1.scf0 --------


            ---------
:ITE099: 99. ITERATION
            ---------

:NATO :    1 INDEPENDENT AND    1 TOTAL ATOMS IN UNITCELL
       SUBSTANCE: cubic body-centered  (epsilon Pu)                           

       LATTICE                      = B   
:POT  : POTENTIAL OPTION    5
:LAT  : LATTICE CONSTANTS=  5.93635  5.93635  5.93635    1.571    1.571    1.571
:VOL  : UNIT CELL VOLUME =     104.59923
       MODE OF CALCULATION IS       = RELA
       NON-SPINPOLARIZED CALCULATION
:IFFT  : FFT-parameters:   48   48   48 Factor: 2.00
       ATOMNUMBER=  1 Pu  0+     VCOUL-ZERO =  0.10280E+01
:FIT001: LUSE= 13 SIGMA OF V-XC FIT FOR ATOM  1  0.8154465E-04
:FIT001: LUSE= 13 SIGMA OF V-XC FIT FOR ATOM  1  0.8154465E-04
:DEN  : DENSITY INTEGRAL  =        -21951.77800092   (Ry)
       ELS_POTENTIAL_AT Z=0 and Z=0.5:  -2.77164  -2.77164
       ELS_POTENTIAL_AT Y=0 and Y=0.5:   0.00000   0.00000
:VZERO:v0,v0c,v0x  -3.90665  -2.77164  -1.13501 v5,v5c,v5x  -3.90665  -2.77164  -1.13501
:VZERY:v0,v0c,v0x  -1.07721   0.00000  -1.07721 v5,v5c,v5x  -1.07721   0.00000  -1.07721
:VZERX:v0,v0c,v0x  -1.07721   0.00000  -1.07721 v5,v5c,v5x  -1.07721   0.00000  -1.07721

------- epsilon_Pu_1.scf1 --------

          ATOMIC SPHERE DEPENDENT PARAMETERS FOR ATOM  Pu  0+    
:e__0001: OVERALL ENERGY PARAMETER IS    1.6560
          OVERALL BASIS SET ON ATOM IS LAPW
:E0_0001: E( 0)=    1.6560
             APW+lo
:E0_0001: E( 0)=   -1.5555   E(BOTTOM)=   -2.330   E(TOP)=   -0.781
             LOCAL ORBITAL
:E1_0001: E( 1)=   -0.6340   E(BOTTOM)=   -0.634   E(TOP)= -200.000
             APW+lo
:E1_0001: E( 1)=    1.6560
             LOCAL ORBITAL
:E3_0001: E( 3)=    1.6560   E(BOTTOM)=    1.406   E(TOP)= -200.000
             APW+lo
:E2_0001: E( 2)=    1.6560   E(BOTTOM)=    1.566   E(TOP)= -200.000
             APW+lo

       K=   0.00000   0.00000   0.00000            1
:RKM  : MATRIX SIZE  107LOs:  20  RKM= 7.88  WEIGHT= 1.00  PGR:    
       EIGENVALUES ARE:
:EIG00001:      -1.6243398    0.7331286    0.7331286    0.7331286    1.5974486
:EIG00006:       1.7384264    1.7384264    1.7384264    2.0056361    2.0056361
:EIG00011:       2.0056361    2.0861789    2.0861789    2.0861789    2.0879150
:EIG00016:       2.4270023    2.4270023    3.3353480    3.3353480    3.3353480
:EIG00021:       4.2957761    4.2957761    4.6161770    4.9406769    4.9406769
:EIG00026:       4.9406769    6.1041716    6.1041716    6.1041716    6.3979095
:EIG00031:       6.3979095    6.3979095    6.8198083    6.8198083    6.8198083
:EIG00036:       6.8796458    6.8796458    6.8796458    6.9441159    6.9441159
:EIG00041:       7.0248230    7.0248230    7.4649549
       ********************************************************

:KPT   :      NUMBER OF K-POINTS:   286

------- epsilon_Pu_1.scfso --------
   0.0   0.0 angle (M,z), angle (M,x) deg
 
        SPIN-ORBIT EIGENVALUES:
     K=   0.00000   0.00000   0.00000            1
      MATRIX SIZE=   86   WEIGHT= 1.00
     EIGENVALUES ARE:
          -1.6243398   -1.6243398    0.2121361    0.2121361    0.9643584
           0.9643584    0.9643585    0.9643585    1.5974486    1.5974486
           1.7257079    1.7257079    1.7377012    1.7377012    1.7377012
           1.7377012    1.9935078    1.9935078    1.9935079    1.9935079
           2.0400724    2.0400724    2.0654073    2.0654073    2.0654073
           2.0654073    2.0910648    2.0910648    2.1180591    2.1180591
           2.4302867    2.4302867    2.4302867    2.4302867    3.3296163
           3.3296163    3.3393249    3.3393249    3.3393249    3.3393249

           4.2954586    4.2954586    4.2954586    4.2954586
       ********************************************************

------- epsilon_Pu_1.scf2 --------
:GMA  : POTENTIAL AND CHARGE CUT-OFF  12.00 Ry**.5
         Bandranges (emin - emax) and occupancy:
:BAN00008:   8    0.477019    0.964358  1.00000000
:BAN00009:   9    1.449082    1.851040  1.00000000
:BAN00010:  10    1.449082    1.851040  1.00000000
:BAN00011:  11    1.455741    1.859950  1.00000000
:BAN00012:  12    1.455741    1.859950  1.00000000
:BAN00013:  13    1.712647    1.862543  1.00000000
:BAN00014:  14    1.712647    1.862543  1.00000000
:BAN00015:  15    1.735628    1.924122  0.90484151
:BAN00016:  16    1.735628    1.924122  0.90484151
:BAN00017:  17    1.840693    1.993508  0.09515849
:BAN00018:  18    1.840693    1.993508  0.09515849
:BAN00019:  19    1.910191    1.993508  0.00000000
:BAN00020:  20    1.910191    1.993508  0.00000000
:BAN00021:  21    1.953729    2.040072  0.00000000
:BAN00022:  22    1.953729    2.040072  0.00000000
:BAN00023:  23    1.986380    2.089521  0.00000000
        Energy to separate low and high energystates:    1.39908


:NLDA  : NUMBER OF ELECTRONS          =  16.000

:FLDA  : F E R M I - ENERGY           =   2.37175




:POS001: AT.NR.   1 POSITION = 0.00000 0.00000 0.00000  MULTIPLICITY =  1

       LMMAX  5
       LM=   0 0  4 0  4 4  6 0  6 4
:FER DMFT Fermi Energy   1.86650
:EORB    0.11325372
:SUM SUM OF DMFT BAND ENERGIES   13.52346412

:CHA001: TOTAL CHARGE INSIDE SPHERE   1 =    11.866989
:PCS001: PARTIAL CHARGES SPHERE =  1 S,P,D,F,      D-EG,D-T2G 
:QTL001: 1.9649 4.5566 0.8060 4.5302 0.0000 0.0000 0.0000 0.3176 0.5255 0.0000 0.0000 0.0000
        Q-s-low E-s-low   Q-p-low E-p-low   Q-d-low E-d-low   Q-f-low E-f-low
:EPL001:  1.8808 -1.4952    4.4181  0.4046    0.0449  0.5218    0.0227  0.5836
        Q-s-hi  E-s-hi    Q-p-hi  E-p-hi    Q-d-hi  E-d-hi    Q-f-hi  E-f-hi 
:EPH001:  0.0841  1.6967    0.1386  1.7416    0.7611  1.6990    4.5075  1.7978

:CHA  : TOTAL CHARGE INSIDE UNIT CELL =      15.999997

:ESUM  : SUM OF EIGENVALUES =          13.586722884


------- epsilon_Pu_1.scfc --------

        1.ATOM      Pu  0+               21 CORE STATES
:1S 001: 1S               -8965.883970153 Ry
:2S 001: 2S               -1686.558823486 Ry
:2PP001: 2P*              -1627.251762267 Ry
:2P 001: 2P               -1314.101019054 Ry
:3S 001: 3S                -427.104878366 Ry
:3PP001: 3P*               -400.180233606 Ry
:3P 001: 3P                -327.619218832 Ry
:3DD001: 3D*               -285.378664808 Ry
:3D 001: 3D                -270.836605859 Ry
:4S 001: 4S                -108.585134671 Ry
:4PP001: 4P*                -96.397288123 Ry
:4P 001: 4P                 -77.251719205 Ry
:4DD001: 4D*                -57.964331652 Ry
:4D 001: 4D                 -54.469710277 Ry
:5S 001: 5S                 -22.739001434 Ry
:5PP001: 5P*                -17.920787657 Ry
:5P 001: 5P                 -13.230763126 Ry
:4FF001: 4F*                -29.070211590 Ry
:4F 001: 4F                 -28.142108050 Ry
:5DD001: 5D*                 -6.193987914 Ry
:5D 001: 5D                  -5.494521166 Ry

------- epsilon_Pu_1.scfm --------

       DENSITY AT NUCLEUS
        JATOM    VALENCE       SEMI-CORE            CORE           TOTAL
:RTO001:   1    23779.823844        0.000000 45141819.940930 45165599.764774
     
       CHARGES OF NEW CHARGE DENSITY
:NTO  : TOTAL   INTERSTITIAL CHARGE=    4.1330010
:NTO001: TOTAL   CHARGE IN SPHERE  1 =       89.8576141

:NEC01: NUCLEAR AND ELECTRONIC CHARGE     94.00000    93.99062     1.00010
     
       CHARGES OF OLD CHARGE DENSITY
:OTO  : TOTAL   INTERSTITIAL CHARGE=    4.1430095
:OTO001: TOTAL   CHARGE IN SPHERE  1 =       89.8569905

:NEC02: NUCLEAR AND ELECTRONIC CHARGE     94.00000    94.00000     1.00000
     
       CONVERGENCE TEST
:DTO001: TOTAL   DIFFERENCE CHARGE**2 IN SPHERE  1 =  0.0007623

:DIS  :  CHARGE DISTANCE       ( 0.0007623 for atom    1 spin 1)      0.0007623
:BIG check (qbig,qrms,qtot)    0.254D-03   0.539D-03   0.762D-03
 
******************************************************
* MULTISECANT MIXING VER4 OPTIONS                    *
* Unpredicted Step Limit   0.100000                  *
* Plane Wave Dynamic Rescaling                       *
* Dynamic Regularization active                      *
* Upper Cutoff Lambda  1.0E-01 Lower 3.5E-04         *
* SQRT Multiplicity/Degeneracy                       *
* Max Number of Memory Steps    8                    *
******************************************************
 
:PLANE:  INTERSTITIAL TOTAL      1.94200 DISTAN  5.460E-03 % 
:CHARG:  CLM CHARGE   /ATOM    713.23015 DISTAN  2.453E-04 % 
:INFO :  Dynamic rescale   2.188E+01  1.000E-01
:INFO :  Number of Memory Steps    7 Skipping    0
:INFO :  Singular value   6.004E+00 Weight   1.000E+00 Projections  -2.248E-04 -5.309E-04
:INFO :  Singular value   3.633E+00 Weight   1.000E+00 Projections  -8.410E-04 -1.753E-03
:INFO :  Singular value   2.023E+00 Weight   1.000E+00 Projections   1.033E-03 -8.330E-04
:INFO :  Singular value   1.289E-01 Weight   1.000E+00 Projections  -8.497E-04 -4.488E-03
:INFO :  Singular value   6.450E-05 Weight   3.285E-02 Projections   7.718E-04 -1.263E-03
:INFO :  Singular value   1.011E-05 Weight   8.342E-04 Projections   3.148E-03 -5.049E-05
:INFO :  Singular value   2.567E-07 Weight   5.380E-07 Projections  -3.569E-03  1.874E-07
:INFO :  Bounds         0.200D+00  0.200D+00  0.582D+00  0.200D+00
:DIRM :  MEMORY 7/8 RESCALE  21.88 RED 0.901 PRED 0.227 NEXT 0.172 COND 8.58E-01
:DIRP :  |BROYD|= 9.616E-04 |PRATT|= 4.640E-04 ANGLE=  33.3 DEGREES
:DIRB :  |BROYD|= 1.095E-03 |PRATT|= 5.811E-04 ANGLE=  37.5 DEGREES
:MIX  :  MSR1   REGULARIZATION: 3.50E-04  GREED: 0.200
     
       CHARGES OF MIXED CHARGE DENSITY
:CTO  : TOTAL   INTERSTITIAL CHARGE=    4.1428989
:CTO001: TOTAL   CHARGE IN SPHERE  1 =       89.8571011

:NEC03: NUCLEAR AND ELECTRONIC CHARGE     94.00000    94.00000     1.00000


:ENE  : ********** TOTAL ENERGY IN Ry =       -59354.70701872


------- epsilon_Pu_1.scf0 --------


            ---------
:ITE100:100. ITERATION
            ---------

:NATO :    1 INDEPENDENT AND    1 TOTAL ATOMS IN UNITCELL
       SUBSTANCE: cubic body-centered  (epsilon Pu)                           

       LATTICE                      = B   
:POT  : POTENTIAL OPTION    5
:LAT  : LATTICE CONSTANTS=  5.93635  5.93635  5.93635    1.571    1.571    1.571
:VOL  : UNIT CELL VOLUME =     104.59923
       MODE OF CALCULATION IS       = RELA
       NON-SPINPOLARIZED CALCULATION
:IFFT  : FFT-parameters:   48   48   48 Factor: 2.00
       ATOMNUMBER=  1 Pu  0+     VCOUL-ZERO =  0.10280E+01
:FIT001: LUSE= 13 SIGMA OF V-XC FIT FOR ATOM  1  0.8153084E-04
:FIT001: LUSE= 13 SIGMA OF V-XC FIT FOR ATOM  1  0.8153084E-04
:DEN  : DENSITY INTEGRAL  =        -21951.78675575   (Ry)
       ELS_POTENTIAL_AT Z=0 and Z=0.5:  -2.77159  -2.77159
       ELS_POTENTIAL_AT Y=0 and Y=0.5:   0.00000   0.00000
:VZERO:v0,v0c,v0x  -3.90659  -2.77159  -1.13500 v5,v5c,v5x  -3.90659  -2.77159  -1.13500
:VZERY:v0,v0c,v0x  -1.07720   0.00000  -1.07720 v5,v5c,v5x  -1.07720   0.00000  -1.07720
:VZERX:v0,v0c,v0x  -1.07720   0.00000  -1.07720 v5,v5c,v5x  -1.07720   0.00000  -1.07720

------- epsilon_Pu_1.scf1 --------

          ATOMIC SPHERE DEPENDENT PARAMETERS FOR ATOM  Pu  0+    
:e__0001: OVERALL ENERGY PARAMETER IS    1.6560
          OVERALL BASIS SET ON ATOM IS LAPW
:E0_0001: E( 0)=    1.6560
             APW+lo
:E0_0001: E( 0)=   -1.5555   E(BOTTOM)=   -2.330   E(TOP)=   -0.781
             LOCAL ORBITAL
:E1_0001: E( 1)=   -0.6340   E(BOTTOM)=   -0.634   E(TOP)= -200.000
             APW+lo
:E1_0001: E( 1)=    1.6560
             LOCAL ORBITAL
:E3_0001: E( 3)=    1.6560   E(BOTTOM)=    1.406   E(TOP)= -200.000
             APW+lo
:E2_0001: E( 2)=    1.6560   E(BOTTOM)=    1.566   E(TOP)= -200.000
             APW+lo

       K=   0.00000   0.00000   0.00000            1
:RKM  : MATRIX SIZE  107LOs:  20  RKM= 7.88  WEIGHT= 1.00  PGR:    
       EIGENVALUES ARE:
:EIG00001:      -1.6243057    0.7331533    0.7331533    0.7331533    1.5974411
:EIG00006:       1.7384598    1.7384598    1.7384598    2.0056925    2.0056925
:EIG00011:       2.0056925    2.0861762    2.0861762    2.0861762    2.0879772
:EIG00016:       2.4269935    2.4269935    3.3353597    3.3353597    3.3353597
:EIG00021:       4.2957713    4.2957713    4.6161642    4.9406760    4.9406760
:EIG00026:       4.9406760    6.1041777    6.1041777    6.1041777    6.3979027
:EIG00031:       6.3979027    6.3979027    6.8198019    6.8198019    6.8198019
:EIG00036:       6.8796405    6.8796405    6.8796405    6.9440969    6.9440969
:EIG00041:       7.0248105    7.0248105    7.4649561
       ********************************************************

:KPT   :      NUMBER OF K-POINTS:   286

------- epsilon_Pu_1.scfso --------
   0.0   0.0 angle (M,z), angle (M,x) deg
 
        SPIN-ORBIT EIGENVALUES:
     K=   0.00000   0.00000   0.00000            1
      MATRIX SIZE=   86   WEIGHT= 1.00
     EIGENVALUES ARE:
          -1.6243057   -1.6243057    0.2121667    0.2121667    0.9643805
           0.9643805    0.9643805    0.9643805    1.5974411    1.5974411
           1.7257425    1.7257425    1.7377352    1.7377352    1.7377352
           1.7377352    1.9935639    1.9935639    1.9935639    1.9935639
           2.0401277    2.0401277    2.0654049    2.0654049    2.0654049
           2.0654049    2.0911264    2.0911264    2.1180560    2.1180560
           2.4302778    2.4302778    2.4302778    2.4302778    3.3296277
           3.3296277    3.3393367    3.3393367    3.3393367    3.3393367

           4.2954539    4.2954539    4.2954539    4.2954539
       ********************************************************

------- epsilon_Pu_1.scf2 --------
:GMA  : POTENTIAL AND CHARGE CUT-OFF  12.00 Ry**.5
         Bandranges (emin - emax) and occupancy:
:BAN00008:   8    0.477029    0.964380  1.00000000
:BAN00009:   9    1.449067    1.851087  1.00000000
:BAN00010:  10    1.449067    1.851087  1.00000000
:BAN00011:  11    1.455726    1.859999  1.00000000
:BAN00012:  12    1.455726    1.859999  1.00000000
:BAN00013:  13    1.712657    1.862592  1.00000000
:BAN00014:  14    1.712657    1.862592  1.00000000
:BAN00015:  15    1.735662    1.924156  0.90485328
:BAN00016:  16    1.735662    1.924156  0.90485328
:BAN00017:  17    1.840731    1.993564  0.09514672
:BAN00018:  18    1.840731    1.993564  0.09514672
:BAN00019:  19    1.910236    1.993564  0.00000000
:BAN00020:  20    1.910236    1.993564  0.00000000
:BAN00021:  21    1.953775    2.040128  0.00000000
:BAN00022:  22    1.953775    2.040128  0.00000000
:BAN00023:  23    1.986422    2.089546  0.00000000
        Energy to separate low and high energystates:    1.39907


:NLDA  : NUMBER OF ELECTRONS          =  16.000

:FLDA  : F E R M I - ENERGY           =   2.37179




:POS001: AT.NR.   1 POSITION = 0.00000 0.00000 0.00000  MULTIPLICITY =  1

       LMMAX  5
       LM=   0 0  4 0  4 4  6 0  6 4
:FER DMFT Fermi Energy   1.86644
:EORB    0.11390037
:SUM SUM OF DMFT BAND ENERGIES   13.52320346

:CHA001: TOTAL CHARGE INSIDE SPHERE   1 =    11.867038
:PCS001: PARTIAL CHARGES SPHERE =  1 S,P,D,F,      D-EG,D-T2G 
:QTL001: 1.9649 4.5565 0.8058 4.5305 0.0000 0.0000 0.0000 0.3176 0.5254 0.0000 0.0000 0.0000
        Q-s-low E-s-low   Q-p-low E-p-low   Q-d-low E-d-low   Q-f-low E-f-low
:EPL001:  1.8808 -1.4951    4.4180  0.4046    0.0449  0.5218    0.0227  0.5836
        Q-s-hi  E-s-hi    Q-p-hi  E-p-hi    Q-d-hi  E-d-hi    Q-f-hi  E-f-hi 
:EPH001:  0.0841  1.6967    0.1385  1.7417    0.7610  1.6991    4.5078  1.7978

:CHA  : TOTAL CHARGE INSIDE UNIT CELL =      16.000000

:ESUM  : SUM OF EIGENVALUES =          13.587102695


------- epsilon_Pu_1.scfc --------

        1.ATOM      Pu  0+               21 CORE STATES
:1S 001: 1S               -8965.883856891 Ry
:2S 001: 2S               -1686.558704820 Ry
[...]
:DIRP :  |BROYD|= 1.112E-03 |PRATT|= 3.889E-04 ANGLE=  36.1 DEGREES
:DIRB :  |BROYD|= 1.201E-03 |PRATT|= 4.958E-04 ANGLE=  37.1 DEGREES
:MIX  :  MSR1   REGULARIZATION: 9.29E-04  GREED: 0.200
     
       CHARGES OF MIXED CHARGE DENSITY
:CTO  : TOTAL   INTERSTITIAL CHARGE=    4.1427571
:CTO001: TOTAL   CHARGE IN SPHERE  1 =       89.8572429

:NEC03: NUCLEAR AND ELECTRONIC CHARGE     94.00000    94.00000     1.00000


:ENE  : ********** TOTAL ENERGY IN Ry =       -59354.70700708


------- epsilon_Pu_1.scf0 --------


            ---------
:ITE101:101. ITERATION
            ---------

:NATO :    1 INDEPENDENT AND    1 TOTAL ATOMS IN UNITCELL
       SUBSTANCE: cubic body-centered  (epsilon Pu)                           

       LATTICE                      = B   
:POT  : POTENTIAL OPTION    5
:LAT  : LATTICE CONSTANTS=  5.93635  5.93635  5.93635    1.571    1.571    1.571
:VOL  : UNIT CELL VOLUME =     104.59923
       MODE OF CALCULATION IS       = RELA
       NON-SPINPOLARIZED CALCULATION
:IFFT  : FFT-parameters:   48   48   48 Factor: 2.00
       ATOMNUMBER=  1 Pu  0+     VCOUL-ZERO =  0.10280E+01
:FIT001: LUSE= 13 SIGMA OF V-XC FIT FOR ATOM  1  0.8150833E-04
:FIT001: LUSE= 13 SIGMA OF V-XC FIT FOR ATOM  1  0.8150833E-04
:DEN  : DENSITY INTEGRAL  =        -21951.79871200   (Ry)
       ELS_POTENTIAL_AT Z=0 and Z=0.5:  -2.77152  -2.77152
       ELS_POTENTIAL_AT Y=0 and Y=0.5:   0.00000   0.00000
:VZERO:v0,v0c,v0x  -3.90651  -2.77152  -1.13499 v5,v5c,v5x  -3.90651  -2.77152  -1.13499
:VZERY:v0,v0c,v0x  -1.07719   0.00000  -1.07719 v5,v5c,v5x  -1.07719   0.00000  -1.07719
:VZERX:v0,v0c,v0x  -1.07719   0.00000  -1.07719 v5,v5c,v5x  -1.07719   0.00000  -1.07719

------- epsilon_Pu_1.scf1 --------

          ATOMIC SPHERE DEPENDENT PARAMETERS FOR ATOM  Pu  0+    
:e__0001: OVERALL ENERGY PARAMETER IS    1.6560
          OVERALL BASIS SET ON ATOM IS LAPW
:E0_0001: E( 0)=    1.6560
             APW+lo
:E0_0001: E( 0)=   -1.5545   E(BOTTOM)=   -2.329   E(TOP)=   -0.780
             LOCAL ORBITAL
:E1_0001: E( 1)=   -0.6340   E(BOTTOM)=   -0.634   E(TOP)= -200.000
             APW+lo
:E1_0001: E( 1)=    1.6560
             LOCAL ORBITAL
:E3_0001: E( 3)=    1.6560   E(BOTTOM)=    1.406   E(TOP)= -200.000
             APW+lo
:E2_0001: E( 2)=    1.6560   E(BOTTOM)=    1.566   E(TOP)= -200.000
             APW+lo

       K=   0.00000   0.00000   0.00000            1
:RKM  : MATRIX SIZE  107LOs:  20  RKM= 7.88  WEIGHT= 1.00  PGR:    
       EIGENVALUES ARE:
:EIG00001:      -1.6242610    0.7331868    0.7331868    0.7331868    1.5974349
:EIG00006:       1.7385040    1.7385040    1.7385040    2.0057647    2.0057647
:EIG00011:       2.0057647    2.0861754    2.0861754    2.0861754    2.0880547
:EIG00016:       2.4269863    2.4269863    3.3353774    3.3353774    3.3353774
:EIG00021:       4.2957686    4.2957686    4.6161512    4.9406784    4.9406784
:EIG00026:       4.9406784    6.1041878    6.1041878    6.1041878    6.3978977
:EIG00031:       6.3978977    6.3978977    6.8197971    6.8197971    6.8197971
:EIG00036:       6.8796373    6.8796373    6.8796373    6.9440762    6.9440762
:EIG00041:       7.0247988    7.0247988    7.4649565
       ********************************************************

:KPT   :      NUMBER OF K-POINTS:   286

------- epsilon_Pu_1.scfso --------
   0.0   0.0 angle (M,z), angle (M,x) deg
 
        SPIN-ORBIT EIGENVALUES:
     K=   0.00000   0.00000   0.00000            1
      MATRIX SIZE=   86   WEIGHT= 1.00
     EIGENVALUES ARE:
          -1.6242610   -1.6242610    0.2122074    0.2122074    0.9644106
           0.9644106    0.9644106    0.9644106    1.5974349    1.5974349
           1.7257879    1.7257879    1.7377801    1.7377801    1.7377801
           1.7377801    1.9936357    1.9936357    1.9936357    1.9936357
           2.0401986    2.0401986    2.0654044    2.0654044    2.0654044
           2.0654044    2.0912031    2.0912031    2.1180548    2.1180548
           2.4302706    2.4302706    2.4302706    2.4302706    3.3296451
           3.3296451    3.3393545    3.3393545    3.3393545    3.3393545

           4.2954512    4.2954512    4.2954512    4.2954512
       ********************************************************

------- epsilon_Pu_1.scf2 --------
:GMA  : POTENTIAL AND CHARGE CUT-OFF  12.00 Ry**.5
         Bandranges (emin - emax) and occupancy:
:BAN00008:   8    0.477045    0.964411  1.00000000
:BAN00009:   9    1.449051    1.851148  1.00000000
:BAN00010:  10    1.449051    1.851148  1.00000000
:BAN00011:  11    1.455711    1.860062  1.00000000
:BAN00012:  12    1.455711    1.860062  1.00000000
:BAN00013:  13    1.712672    1.862656  1.00000000
:BAN00014:  14    1.712672    1.862656  1.00000000
:BAN00015:  15    1.735706    1.924201  0.90486704
:BAN00016:  16    1.735706    1.924201  0.90486704
:BAN00017:  17    1.840779    1.993636  0.09513296
:BAN00018:  18    1.840779    1.993636  0.09513296
:BAN00019:  19    1.910294    1.993636  0.00000000
:BAN00020:  20    1.910294    1.993636  0.00000000
:BAN00021:  21    1.953834    2.040199  0.00000000
:BAN00022:  22    1.953834    2.040199  0.00000000
:BAN00023:  23    1.986476    2.089580  0.00000000
        Energy to separate low and high energystates:    1.39905


:NLDA  : NUMBER OF ELECTRONS          =  16.000

:FLDA  : F E R M I - ENERGY           =   2.37184




:POS001: AT.NR.   1 POSITION = 0.00000 0.00000 0.00000  MULTIPLICITY =  1

       LMMAX  5
       LM=   0 0  4 0  4 4  6 0  6 4
:FER DMFT Fermi Energy   1.86639
:EORB    0.11451650
:SUM SUM OF DMFT BAND ENERGIES   13.52310483

:CHA001: TOTAL CHARGE INSIDE SPHERE   1 =    11.866994
:PCS001: PARTIAL CHARGES SPHERE =  1 S,P,D,F,      D-EG,D-T2G 
:QTL001: 1.9649 4.5565 0.8058 4.5306 0.0000 0.0000 0.0000 0.3176 0.5254 0.0000 0.0000 0.0000
        Q-s-low E-s-low   Q-p-low E-p-low   Q-d-low E-d-low   Q-f-low E-f-low
:EPL001:  1.8808 -1.4951    4.4180  0.4046    0.0449  0.5218    0.0227  0.5836
        Q-s-hi  E-s-hi    Q-p-hi  E-p-hi    Q-d-hi  E-d-hi    Q-f-hi  E-f-hi 
:EPH001:  0.0841  1.6967    0.1385  1.7417    0.7609  1.6991    4.5079  1.7979

:CHA  : TOTAL CHARGE INSIDE UNIT CELL =      16.000000

:ESUM  : SUM OF EIGENVALUES =          13.587604654


------- epsilon_Pu_1.scfc --------

        1.ATOM      Pu  0+               21 CORE STATES
:1S 001: 1S               -8965.883684540 Ry
:2S 001: 2S               -1686.558527631 Ry
:2PP001: 2P*              -1627.251468920 Ry
:2P 001: 2P               -1314.100723320 Ry
:3S 001: 3S                -427.104580208 Ry
:3PP001: 3P*               -400.179934644 Ry
:3P 001: 3P                -327.618923166 Ry
:3DD001: 3D*               -285.378365549 Ry
:3D 001: 3D                -270.836307149 Ry
:4S 001: 4S                -108.584883031 Ry
:4PP001: 4P*                -96.397035887 Ry
:4P 001: 4P                 -77.251474761 Ry
:4DD001: 4D*                -57.964085532 Ry
:4D 001: 4D                 -54.469466159 Ry
:5S 001: 5S                 -22.738784527 Ry
:5PP001: 5P*                -17.920573162 Ry
:5P 001: 5P                 -13.230557112 Ry
:4FF001: 4F*                -29.069961105 Ry
:4F 001: 4F                 -28.141858666 Ry
:5DD001: 5D*                 -6.193794101 Ry
:5D 001: 5D                  -5.494331317 Ry

------- epsilon_Pu_1.scfm --------

       DENSITY AT NUCLEUS
        JATOM    VALENCE       SEMI-CORE            CORE           TOTAL
:RTO001:   1    23779.151798        0.000000 45141819.650791 45165598.802588
     
       CHARGES OF NEW CHARGE DENSITY
:NTO  : TOTAL   INTERSTITIAL CHARGE=    4.1329995
:NTO001: TOTAL   CHARGE IN SPHERE  1 =       89.8576181

:NEC01: NUCLEAR AND ELECTRONIC CHARGE     94.00000    93.99062     1.00010
     
       CHARGES OF OLD CHARGE DENSITY
:OTO  : TOTAL   INTERSTITIAL CHARGE=    4.1427571
:OTO001: TOTAL   CHARGE IN SPHERE  1 =       89.8572429

:NEC02: NUCLEAR AND ELECTRONIC CHARGE     94.00000    94.00000     1.00000
     
       CONVERGENCE TEST
:DTO001: TOTAL   DIFFERENCE CHARGE**2 IN SPHERE  1 =  0.0004547

:DIS  :  CHARGE DISTANCE       ( 0.0004547 for atom    1 spin 1)      0.0004547
:BIG check (qbig,qrms,qtot)    0.152D-03   0.322D-03   0.455D-03
 
******************************************************
* MULTISECANT MIXING VER4 OPTIONS                    *
* Unpredicted Step Limit   0.100000                  *
* Plane Wave Dynamic Rescaling                       *
* Dynamic Regularization active                      *
* Upper Cutoff Lambda  1.0E-01 Lower 3.5E-04         *
* SQRT Multiplicity/Degeneracy                       *
* Max Number of Memory Steps    8                    *
******************************************************
 
:PLANE:  INTERSTITIAL TOTAL      1.94191 DISTAN  3.013E-03 % 
:CHARG:  CLM CHARGE   /ATOM    713.23023 DISTAN  1.424E-04 % 
:INFO :  Dynamic rescale   2.056E+01  1.000E-01
:INFO :  Number of Memory Steps    8 Skipping    1
:INFO :  Singular value   1.089E+01 Weight   1.000E+00 Projections  -7.693E-04 -6.676E-04
:INFO :  Singular value   4.667E+00 Weight   1.000E+00 Projections   6.037E-04 -2.648E-04
:INFO :  Singular value   1.117E+00 Weight   1.000E+00 Projections  -9.620E-04  1.441E-04
:INFO :  Singular value   5.871E-01 Weight   1.000E+00 Projections   6.713E-04 -3.625E-04
:INFO :  Singular value   6.497E-03 Weight   9.971E-01 Projections   1.322E-04 -4.784E-03
:INFO :  Singular value   8.164E-04 Weight   8.447E-01 Projections  -1.542E-03 -2.344E-03
:INFO :  Singular value   4.880E-05 Weight   1.907E-02 Projections   3.685E-03 -6.042E-04
:INFO :  Singular value   5.541E-06 Weight   2.506E-04 Projections  -3.332E-03 -2.574E-06
:INFO :  Bounds         0.309D+00  0.200D+00  0.633D+00  0.200D+00
:DIRM :  MEMORY 8/8 RESCALE  20.56 RED 0.647 PRED 0.120 NEXT 0.158 COND 1.36E+00
:DIRP :  |BROYD|= 1.030E-03 |PRATT|= 2.406E-04 ANGLE=  34.4 DEGREES
:DIRB :  |BROYD|= 1.147E-03 |PRATT|= 3.148E-04 ANGLE=  34.7 DEGREES
:MIX  :  MSR1   REGULARIZATION: 3.50E-04  GREED: 0.200
     
       CHARGES OF MIXED CHARGE DENSITY
:CTO  : TOTAL   INTERSTITIAL CHARGE=    4.1425894
:CTO001: TOTAL   CHARGE IN SPHERE  1 =       89.8574106

:NEC03: NUCLEAR AND ELECTRONIC CHARGE     94.00000    94.00000     1.00000


:ENE  : ********** TOTAL ENERGY IN Ry =       -59354.70699364


------- epsilon_Pu_1.scf0 --------


            ---------
:ITE102:102. ITERATION
            ---------

:NATO :    1 INDEPENDENT AND    1 TOTAL ATOMS IN UNITCELL
       SUBSTANCE: cubic body-centered  (epsilon Pu)                           

       LATTICE                      = B   
:POT  : POTENTIAL OPTION    5
:LAT  : LATTICE CONSTANTS=  5.93635  5.93635  5.93635    1.571    1.571    1.571
:VOL  : UNIT CELL VOLUME =     104.59923
       MODE OF CALCULATION IS       = RELA
       NON-SPINPOLARIZED CALCULATION
:IFFT  : FFT-parameters:   48   48   48 Factor: 2.00
       ATOMNUMBER=  1 Pu  0+     VCOUL-ZERO =  0.10279E+01
:FIT001: LUSE= 13 SIGMA OF V-XC FIT FOR ATOM  1  0.8148570E-04
:FIT001: LUSE= 13 SIGMA OF V-XC FIT FOR ATOM  1  0.8148570E-04
:DEN  : DENSITY INTEGRAL  =        -21951.81005327   (Ry)
       ELS_POTENTIAL_AT Z=0 and Z=0.5:  -2.77145  -2.77145
       ELS_POTENTIAL_AT Y=0 and Y=0.5:   0.00000   0.00000
:VZERO:v0,v0c,v0x  -3.90643  -2.77145  -1.13498 v5,v5c,v5x  -3.90643  -2.77145  -1.13498
:VZERY:v0,v0c,v0x  -1.07718   0.00000  -1.07718 v5,v5c,v5x  -1.07718   0.00000  -1.07718
:VZERX:v0,v0c,v0x  -1.07718   0.00000  -1.07718 v5,v5c,v5x  -1.07718   0.00000  -1.07718

------- epsilon_Pu_1.scf1 --------

          ATOMIC SPHERE DEPENDENT PARAMETERS FOR ATOM  Pu  0+    
:e__0001: OVERALL ENERGY PARAMETER IS    1.6560
          OVERALL BASIS SET ON ATOM IS LAPW
:E0_0001: E( 0)=    1.6560
             APW+lo
:E0_0001: E( 0)=   -1.5545   E(BOTTOM)=   -2.329   E(TOP)=   -0.780
             LOCAL ORBITAL
:E1_0001: E( 1)=   -0.6340   E(BOTTOM)=   -0.634   E(TOP)= -200.000
             APW+lo
:E1_0001: E( 1)=    1.6560
             LOCAL ORBITAL
:E3_0001: E( 3)=    1.6560   E(BOTTOM)=    1.406   E(TOP)= -200.000
             APW+lo
:E2_0001: E( 2)=    1.6560   E(BOTTOM)=    1.566   E(TOP)= -200.000
             APW+lo

       K=   0.00000   0.00000   0.00000            1
:RKM  : MATRIX SIZE  107LOs:  20  RKM= 7.88  WEIGHT= 1.00  PGR:    
       EIGENVALUES ARE:
:EIG00001:      -1.6242078    0.7332265    0.7332265    0.7332265    1.5974275
:EIG00006:       1.7385563    1.7385563    1.7385563    2.0058503    2.0058503
:EIG00011:       2.0058503    2.0861746    2.0861746    2.0861746    2.0881470
:EIG00016:       2.4269776    2.4269776    3.3353979    3.3353979    3.3353979
:EIG00021:       4.2957653    4.2957653    4.6161361    4.9406810    4.9406810
:EIG00026:       4.9406810    6.1042001    6.1042001    6.1042001    6.3978922
:EIG00031:       6.3978922    6.3978922    6.8197913    6.8197913    6.8197913
:EIG00036:       6.8796333    6.8796333    6.8796333    6.9440519    6.9440519
:EIG00041:       7.0247846    7.0247846    7.4649622
       ********************************************************

:KPT   :      NUMBER OF K-POINTS:   286

------- epsilon_Pu_1.scfso --------
   0.0   0.0 angle (M,z), angle (M,x) deg
 
        SPIN-ORBIT EIGENVALUES:
     K=   0.00000   0.00000   0.00000            1
      MATRIX SIZE=   86   WEIGHT= 1.00
     EIGENVALUES ARE:
          -1.6242078   -1.6242078    0.2122557    0.2122557    0.9644464
           0.9644464    0.9644464    0.9644464    1.5974275    1.5974275
           1.7258419    1.7258419    1.7378333    1.7378333    1.7378333
           1.7378333    1.9937208    1.9937208    1.9937208    1.9937208
           2.0402826    2.0402826    2.0654041    2.0654041    2.0654041
           2.0654041    2.0912944    2.0912944    2.1180535    2.1180535
           2.4302618    2.4302618    2.4302618    2.4302618    3.3296654
           3.3296654    3.3393754    3.3393754    3.3393754    3.3393754

           4.2954479    4.2954479    4.2954479    4.2954479
       ********************************************************

------- epsilon_Pu_1.scf2 --------
:GMA  : POTENTIAL AND CHARGE CUT-OFF  12.00 Ry**.5
         Bandranges (emin - emax) and occupancy:
:BAN00008:   8    0.477063    0.964446  1.00000000
:BAN00009:   9    1.449033    1.851220  1.00000000
:BAN00010:  10    1.449033    1.851220  1.00000000
:BAN00011:  11    1.455693    1.860137  1.00000000
:BAN00012:  12    1.455693    1.860137  1.00000000
:BAN00013:  13    1.712691    1.862731  1.00000000
:BAN00014:  14    1.712691    1.862731  1.00000000
:BAN00015:  15    1.735759    1.924253  0.90488356
:BAN00016:  16    1.735759    1.924253  0.90488356
:BAN00017:  17    1.840836    1.993721  0.09511644
:BAN00018:  18    1.840836    1.993721  0.09511644
:BAN00019:  19    1.910363    1.993721  0.00000000
:BAN00020:  20    1.910363    1.993721  0.00000000
:BAN00021:  21    1.953905    2.040283  0.00000000
:BAN00022:  22    1.953905    2.040283  0.00000000
:BAN00023:  23    1.986541    2.089620  0.00000000
        Energy to separate low and high energystates:    1.39903


:NLDA  : NUMBER OF ELECTRONS          =  16.000

:FLDA  : F E R M I - ENERGY           =   2.37190




:POS001: AT.NR.   1 POSITION = 0.00000 0.00000 0.00000  MULTIPLICITY =  1

       LMMAX  5
       LM=   0 0  4 0  4 4  6 0  6 4
:FER DMFT Fermi Energy   1.86635
:EORB    0.11519011
:SUM SUM OF DMFT BAND ENERGIES   13.52303243

:CHA001: TOTAL CHARGE INSIDE SPHERE   1 =    11.866909
:PCS001: PARTIAL CHARGES SPHERE =  1 S,P,D,F,      D-EG,D-T2G 
:QTL001: 1.9649 4.5564 0.8057 4.5307 0.0000 0.0000 0.0000 0.3175 0.5253 0.0000 0.0000 0.0000
        Q-s-low E-s-low   Q-p-low E-p-low   Q-d-low E-d-low   Q-f-low E-f-low
:EPL001:  1.8808 -1.4950    4.4179  0.4047    0.0449  0.5218    0.0227  0.5836
        Q-s-hi  E-s-hi    Q-p-hi  E-p-hi    Q-d-hi  E-d-hi    Q-f-hi  E-f-hi 
:EPH001:  0.0841  1.6967    0.1385  1.7417    0.7608  1.6991    4.5080  1.7979

:CHA  : TOTAL CHARGE INSIDE UNIT CELL =      16.000000

:ESUM  : SUM OF EIGENVALUES =          13.588196851


------- epsilon_Pu_1.scfc --------

        1.ATOM      Pu  0+               21 CORE STATES
:1S 001: 1S               -8965.883571860 Ry
:2S 001: 2S               -1686.558401959 Ry
:2PP001: 2P*              -1627.251346550 Ry
:2P 001: 2P               -1314.100597713 Ry
:3S 001: 3S                -427.104436837 Ry
:3PP001: 3P*               -400.179792436 Ry
:3P 001: 3P                -327.618779394 Ry
:3DD001: 3D*               -285.378223675 Ry
:3D 001: 3D                -270.836164569 Ry
:4S 001: 4S                -108.584739901 Ry
:4PP001: 4P*                -96.396892846 Ry
:4P 001: 4P                 -77.251332039 Ry
:4DD001: 4D*                -57.963942734 Ry
:4D 001: 4D                 -54.469323392 Ry
:5S 001: 5S                 -22.738643938 Ry
:5PP001: 5P*                -17.920433899 Ry
:5P 001: 5P                 -13.230422464 Ry
:4FF001: 4F*                -29.069816640 Ry
:4F 001: 4F                 -28.141714263 Ry
:5DD001: 5D*                 -6.193666997 Ry
:5D 001: 5D                  -5.494206804 Ry

------- epsilon_Pu_1.scfm --------

       DENSITY AT NUCLEUS
        JATOM    VALENCE       SEMI-CORE            CORE           TOTAL
:RTO001:   1    23778.709793        0.000000 45141819.695163 45165598.404956
     
       CHARGES OF NEW CHARGE DENSITY
:NTO  : TOTAL   INTERSTITIAL CHARGE=    4.1330849
:NTO001: TOTAL   CHARGE IN SPHERE  1 =       89.8575320

:NEC01: NUCLEAR AND ELECTRONIC CHARGE     94.00000    93.99062     1.00010
     
       CHARGES OF OLD CHARGE DENSITY
:OTO  : TOTAL   INTERSTITIAL CHARGE=    4.1425894
:OTO001: TOTAL   CHARGE IN SPHERE  1 =       89.8574106

:NEC02: NUCLEAR AND ELECTRONIC CHARGE     94.00000    94.00000     1.00000
     
       CONVERGENCE TEST
:DTO001: TOTAL   DIFFERENCE CHARGE**2 IN SPHERE  1 =  0.0001474

:DIS  :  CHARGE DISTANCE       ( 0.0001474 for atom    1 spin 1)      0.0001474
:BIG check (qbig,qrms,qtot)    0.491D-04   0.104D-03   0.147D-03
 
******************************************************
* MULTISECANT MIXING VER4 OPTIONS                    *
* Unpredicted Step Limit   0.100000                  *
* Plane Wave Dynamic Rescaling                       *
* Dynamic Regularization active                      *
* Upper Cutoff Lambda  1.0E-01 Lower 3.5E-04         *
* SQRT Multiplicity/Degeneracy                       *
* Max Number of Memory Steps    8                    *
******************************************************
 
:PLANE:  INTERSTITIAL TOTAL      1.94186 DISTAN  1.042E-03 % 
:CHARG:  CLM CHARGE   /ATOM    713.23023 DISTAN  4.914E-05 % 
:INFO :  Dynamic rescale   1.986E+01  1.000E-01
:INFO :  Number of Memory Steps    8 Skipping    2
:INFO :  Singular value   1.196E+01 Weight   1.000E+00 Projections  -3.205E-06  2.034E-04
:INFO :  Singular value   3.485E+00 Weight   1.000E+00 Projections  -3.795E-05  8.643E-05
:INFO :  Singular value   8.320E-01 Weight   1.000E+00 Projections  -4.010E-04  6.197E-05
:INFO :  Singular value   2.129E-01 Weight   1.000E+00 Projections   2.747E-04 -4.411E-04
:INFO :  Singular value   1.868E-02 Weight   9.996E-01 Projections   3.024E-04 -1.680E-03
:INFO :  Singular value   6.134E-04 Weight   7.544E-01 Projections   5.963E-05  7.007E-04
:INFO :  Singular value   2.319E-04 Weight   3.050E-01 Projections   4.639E-04 -7.015E-04
:INFO :  Singular value   6.382E-06 Weight   3.324E-04 Projections  -1.873E-03  5.978E-06
:INFO :  Bounds         0.400D+00  0.200D+00  0.785D+00  0.200D+00
:DIRM :  MEMORY 8/8 RESCALE  19.86 RED 0.345 PRED 0.158 NEXT 0.127 COND 1.49E+00
:DIRP :  |BROYD|= 4.486E-04 |PRATT|= 8.033E-05 ANGLE=  30.7 DEGREES
:DIRB :  |BROYD|= 4.992E-04 |PRATT|= 1.066E-04 ANGLE=  31.3 DEGREES
:MIX  :  MSR1   REGULARIZATION: 3.50E-04  GREED: 0.200
     
       CHARGES OF MIXED CHARGE DENSITY
:CTO  : TOTAL   INTERSTITIAL CHARGE=    4.1425203
:CTO001: TOTAL   CHARGE IN SPHERE  1 =       89.8574797

:NEC03: NUCLEAR AND ELECTRONIC CHARGE     94.00000    94.00000     1.00000


:ENE  : ********** TOTAL ENERGY IN Ry =       -59354.70699378

