
:LABEL1: Calculations in /home/ykent/GWIEN/example/Pr/aU/V14/case
:LABEL2: on didymium-2.cmpgroup.ameslab.gov at Fri Jul 10 14:12:04 CDT 2020
:LABEL3: using WIEN2k_19.1 (Release 25/6/2019) in /home/ykent/opt/src/WIEN2k_19.1
:LABEL4: using the command: run_lapw -so -i 70 -cc 0.0001

:LABEL1: Calculations in /home/ykent/GWIEN/example/Pr/aU/V14/case
:LABEL2: on didymium-2.cmpgroup.ameslab.gov at Fri Jul 10 14:18:54 CDT 2020
:LABEL3: using WIEN2k_19.1 (Release 25/6/2019) in /home/ykent/opt/src/WIEN2k_19.1
:LABEL4: using the command: run_lapw -so -i 70 -cc 0.0001
 Flat Integration
 New Mode for Coulomb Integral
 Consistent 3/8+Simpson combinations
 Extension of core to zero
 LDM version in phi
 Fifth-order quadrature in outwin


            ---------
:ITE013: 13. ITERATION
            ---------

:NATO :    1 INDEPENDENT AND    2 TOTAL ATOMS IN UNITCELL
       SUBSTANCE: aU                                                          

       LATTICE                      = CXY 
:POT  : POTENTIAL OPTION EX_LDA EC_LDA VX_LDA VC_LDA
:LAT  : LATTICE CONSTANTS=  6.18760 12.55620 10.84003    1.571    1.571    1.571
:VOL  : UNIT CELL VOLUME =     421.09601
       MODE OF CALCULATION IS       = RELA
       NON-SPINPOLARIZED CALCULATION
:IFFT  : FFT-parameters:   48   96   90 Factor: 2.00


   CONVERGENCE PARAMETER FOR PSEUDOCHARGE: NCON=  9
   MAXIMAL VALUE OF RMT(JATOM)*ABSK(NKK) : RK  =27.59478


:VKCOUL :  VK-COUL convergence: 0.122E-06
       ATOMNUMBER=  1 Pr1        VCOUL-ZERO =  0.18775E+00
:EFG001:                        EFG         =    -8.95421   *10**21  V / m**2
                               V20  TOT/SRF=    -7.75457    -0.03543
                               V22  TOT/SRF=    -0.69720    -0.00216
                               V22M TOT/SRF=     0.00000     0.00000
                               V21  TOT/SRF=     0.00000     0.00000
                               V21M TOT/SRF=     0.00000     0.00000

              3.77990    0.00000    0.00000        3.77990    0.00000    0.00000
              0.00000    5.17431    0.00000        0.00000    5.17431    0.00000
              0.00000    0.00000   -8.95421        0.00000    0.00000   -8.95421

         MAIN DIRECTIONS OF THE EFG   1.0000  0.0000  0.0000
                                      0.0000  1.0000  0.0000
                                      0.0000  0.0000  1.0000
:ANG001:  ANGLE WITH OLD X-AXIS =         0.0

:ETA001:                         ASYMM. ETA =     0.15573


     HELLMANN-FEYNMAN-FORCE IN mRy/a.u. = |F|  Fx       Fy             Fz
:FHF001:   1.ATOM   1524.160741387211      0.000000000000      0.000000000000  -1524.160741387211

:FIT001: LUSE= 13 SIGMA OF V-XC FIT FOR ATOM  1  0.5758319E-04
:FIT001: LUSE= 13 SIGMA OF V-XC FIT FOR ATOM  1  0.5758319E-04
:DEN  : DENSITY INTEGRAL  =        -14160.48520825   (Ry)
       ELS_POTENTIAL_AT Z=0 and Z=0.5:   0.78189   0.78189
       ELS_POTENTIAL_AT Y=0 and Y=0.5:   0.05866   0.05866
:VZERO:v0,v0c,v0x   0.17102   0.78189  -0.61087 v5,v5c,v5x   0.17102   0.78189  -0.61087
:VZERY:v0,v0c,v0x  -0.75693   0.05866  -0.81559 v5,v5c,v5x  -0.75693   0.05866  -0.81559
:VZERX:v0,v0c,v0x  -1.15990  -0.38395  -0.77595 v5,v5c,v5x  -1.15990  -0.38395  -0.77595
:LMAX-WF:   10   Non-Spherical LMAX:   4

          ATOMIC SPHERE DEPENDENT PARAMETERS FOR ATOM  Pr1       
:e__0001: OVERALL ENERGY PARAMETER IS    0.5299
          OVERALL BASIS SET ON ATOM IS LAPW
:E0_0001: E( 0)=    0.5299
             APW+lo
:E0_0001: E( 0)=   -1.9262   E(BOTTOM)=   -2.561   E(TOP)=   -1.291  4  5   192
             LOCAL ORBITAL
:E1_0001: E( 1)=    0.9299
             APW+lo
:E1_0001: E( 1)=   -0.4558   E(BOTTOM)=   -1.413   E(TOP)=    0.501  3  4   196
             LOCAL ORBITAL
:E3_0001: E( 3)=    0.7199   E(BOTTOM)=    0.514   E(TOP)=    0.926  0  1   119
             APW+lo
:E2_0001: E( 2)=    0.5299   E(BOTTOM)=    0.328   E(TOP)= -200.000  2 -1    91
             APW+lo

       K=   0.06250   0.00000   0.06250            1
:RKM  : MATRIX SIZE   407LOs:  40  RKM= 8.48  WEIGHT= 4.00  PGR:    
       EIGENVALUES ARE:
:EIG00001:      -1.9063329   -1.8840682   -0.6490074   -0.5446967   -0.5209241
:EIG00006:      -0.5116873   -0.5017931   -0.5016438    0.5051201    0.6250163
:EIG00011:       0.7204655    0.7230542    0.7231107    0.7263165    0.7321691
:EIG00016:       0.7454888    0.7503379    0.7506504    0.7539988    0.7572729
:EIG00021:       0.7623920    0.7660317    0.7663794    0.7744694    0.8049083
:EIG00026:       0.8222568    0.9111469    0.9207679    0.9680019    0.9920350
:EIG00031:       1.0055531    1.1157127    1.1571024    1.2118601    1.5159136
:EIG00036:       1.5465294    1.6016517    1.6250463    1.7842585    1.8413288
:EIG00041:       1.9401517    2.0364835    2.1337568    2.1502860    2.2755174
:EIG00046:       2.3031972    2.3213564    2.4192428    2.4568002    2.5700759
 
:EIG00051:       2.6220953    2.6812937    2.7017644    2.7963568    2.8387119
:EIG00056:       2.8995895    2.9176226    2.9943982    3.0663032    3.1520646
:EIG00061:       3.1926265    3.2431740    3.3720153    3.4018027    3.4390484
:EIG00066:       3.5597597    3.6038068    3.6801234    3.6878968    3.7073854
:EIG00071:       3.7124461    3.7699305    3.8107127    3.9001148    3.9130106
:EIG00076:       3.9636371    3.9701076    4.0270178    4.0556405    4.0812633
:EIG00081:       4.0914326    4.1385270    4.1532368    4.2397893    4.2687961
:EIG00086:       4.2916771    4.3755251    4.4126363    4.4505145    4.4517578
:EIG00091:       4.4900025    4.5433798    4.5495812    4.5861227    4.5982229
:EIG00096:       4.6277338    4.6831722    4.6951744    4.7241002    4.7882179
 
:EIG00101:       4.8777163    4.9958727    5.0228225    5.1058293    5.1132514
:EIG00106:       5.1268839    5.1843264    5.2348030    5.2505860    5.2745415
:EIG00111:       5.3722079    5.4195966    5.4759882    5.5472493    5.5715372
:EIG00116:       5.6213324    5.6558600    5.6656691    5.7294484    5.7720015
:EIG00121:       5.8005720    5.8324956    5.9136742    5.9203763    5.9840052
:EIG00126:       6.0705552    6.1365664    6.1461220    6.1523476    6.2308599
:EIG00131:       6.2587218    6.3151564    6.3185820    6.3296928    6.3875348
:EIG00136:       6.4702476    6.4823226    6.5259335    6.5491332    6.5779233
:EIG00141:       6.6108482    6.6494261    6.6837356    6.6866039    6.7561323
:EIG00146:       6.7706073    6.7890119    6.8521630    6.8815990    6.9043666
 
:EIG00151:       6.9594415    6.9863208    7.0382827    7.1164734    7.1862414
:EIG00156:       7.2723875    7.3615894    7.3620607    7.3805164    7.4820971
:EIG00161:       7.5393176    7.6110769    7.6227444    7.6590142    7.6834002
:EIG00166:       7.7098616    7.7141018    7.7252324    7.8033673    7.8871292
:EIG00171:       7.8902557    7.9299533    7.9599710    7.9873527    8.0549360
:EIG00176:       8.0625141    8.1120583    8.1266532    8.1722083    8.1984141
:EIG00181:       8.2250728
       ********************************************************

:KPT   :      NUMBER OF K-POINTS:   288
   0.0   0.0 angle (M,z), angle (M,x) deg
 
        SPIN-ORBIT EIGENVALUES:
     K=   0.06250   0.00000   0.06250            1
      MATRIX SIZE=  362   WEIGHT= 4.00
     EIGENVALUES ARE:
          -1.9063331   -1.9063331   -1.8840684   -1.8840684   -0.7228698
          -0.7228698   -0.6614278   -0.6614278   -0.5331602   -0.5331602
          -0.4503671   -0.4503671   -0.4469154   -0.4469154   -0.4351155
          -0.4351155    0.5051755    0.5051755    0.6248880    0.6248880
           0.7156374    0.7156374    0.7184741    0.7184741    0.7192186
           0.7192186    0.7221426    0.7221426    0.7271605    0.7271605
           0.7340369    0.7340369    0.7475241    0.7475241    0.7556445
           0.7556445    0.7605797    0.7605797    0.7615854    0.7615854

           0.7666721    0.7666721    0.7704204    0.7704204    0.7713329
           0.7713329    0.7789256    0.7789256    0.8059239    0.8059239
           0.8223262    0.8223262    0.9087233    0.9087233    0.9228834
           0.9228834    0.9682969    0.9682969    0.9922760    0.9922761
           1.0057889    1.0057889    1.1155917    1.1155917    1.1573753
           1.1573753    1.2119849    1.2119849    1.5161259    1.5161259
           1.5465833    1.5465833    1.6016165    1.6016165    1.6251086
           1.6251086    1.7839396    1.7839396    1.8408172    1.8408172

           1.9401581    1.9401581    2.0354747    2.0354747    2.1321353
           2.1321353    2.1512973    2.1512973    2.2758393    2.2758394
           2.3030911    2.3030911    2.3200959    2.3200959    2.4185143
           2.4185143    2.4579774    2.4579774    2.5699773    2.5699773
           2.6214688    2.6214688    2.6785883    2.6785883    2.7034795
           2.7034795    2.7963017    2.7963017    2.8398127    2.8398127
           2.8998076    2.8998076    2.9170534    2.9170534    2.9950002
           2.9950002    3.0669546    3.0669546    3.1519363    3.1519363

           3.1926768    3.1926768    3.2475278    3.2475278    3.3718807
           3.3718807    3.4018559    3.4018559    3.4392780    3.4392780
           3.5598066    3.5598066    3.6039140    3.6039140    3.6802125
           3.6802125    3.6874859    3.6874859    3.7074103    3.7074103
           3.7128479    3.7128479    3.7697766    3.7697766    3.8107866
           3.8107866    3.8989056    3.8989056    3.9143888    3.9143888
           3.9635298    3.9635298    3.9723330    3.9723330    4.0271258
           4.0271258    4.0560940    4.0560940    4.0813005    4.0813005

           4.0916902    4.0916902    4.1385910    4.1385910    4.1537363
           4.1537363    4.2398344    4.2398344    4.2688746    4.2688746
           4.2919234    4.2919234    4.3755271    4.3755271    4.4128005
           4.4128005    4.4503378    4.4503378    4.4520396    4.4520396
           4.4900422    4.4900422
       ********************************************************
:GAP (global)   :    0.0    Ry =     0.0   eV (metal)
:GAP (this spin):    0.0    Ry =     0.0   eV (metal)
         Bandranges (emin - emax) and occupancy:
:BAN00018:  18    0.499246    0.689641  1.00000000
:BAN00019:  19    0.606635    0.703810  1.00000000
:BAN00020:  20    0.606635    0.703810  1.00000000
:BAN00021:  21    0.648153    0.722364  1.00000000
:BAN00022:  22    0.648153    0.722364  1.00000000
:BAN00023:  23    0.696316    0.725474  0.99938758
:BAN00024:  24    0.696316    0.725474  0.99938758
:BAN00025:  25    0.707510    0.733360  0.75433695
:BAN00026:  26    0.707510    0.733360  0.75433680
:BAN00027:  27    0.720882    0.734797  0.24627126
:BAN00028:  28    0.720882    0.734797  0.24627105
:BAN00029:  29    0.726304    0.738338  0.00000000
:BAN00030:  30    0.726304    0.738338  0.00000000
:BAN00031:  31    0.730616    0.746053  0.00000000
:BAN00032:  32    0.730616    0.746053  0.00000000
:BAN00033:  33    0.736972    0.753773  0.00000000
        Energy to separate low and high energystates:    0.44925


:NOE  : NUMBER OF ELECTRONS          =   26.000

:FER  : F E R M I - ENERGY(TETRAH.M.)=   0.7250768295
:GMA  : POTENTIAL AND CHARGE CUT-OFF  12.00 Ry**.5

:POS001: ATOM   -1 X,Y,Z = 0.00000 0.89750 0.25000  MULT= 2  ZZ= 59.000  Pr1       

       LMMAX 16
       LM=   0 0  1 0  2 0  2 2  3 0  3 2  4 0  4 2  4 4  5 0  5 2  5 4  6 0  6 2  6 4  6 6

:CHA001: TOTAL VALENCE CHARGE INSIDE SPHERE   1 =   9.6295    (RMT=  2.3000 )
:PCS001: PARTIAL CHARGES SPHERE =  1 S,P,D,F,PX,PY,PZ,D-Z2,D-X2Y2,D-XY,D-XZ,D-YZ 
:QTL001: 1.9411 5.0015 0.5615 2.1249 1.6647 1.6637 1.6731 0.1052 0.0998 0.1218 0.1114 0.1232
        Q-s-low E-s-low   Q-p-low E-p-low   Q-d-low E-d-low   Q-f-low E-f-low
:EPL001:  1.8692 -1.8837    4.9339 -0.5690    0.0033 -0.5698    0.0010 -0.5828
        Q-s-hi  E-s-hi    Q-p-hi  E-p-hi    Q-d-hi  E-d-hi    Q-f-hi  E-f-hi 
:EPH001:  0.0719  0.6330    0.0676  0.6678    0.5581  0.6709    2.1240  0.7094

                      VXX         VYY         VZZ       UP TO R
:VZZ001:             3.40685     4.26677    -7.67362       2.300

:CHA  : TOTAL VALENCE CHARGE INSIDE UNIT CELL =      25.999991

:SUM  : SUM OF EIGENVALUES =          -7.522052755


        1.ATOM      Pr1                  14 CORE STATES
       CORE-FORCE in mRy/a.u. = |F|      Fx             Fy             Fz
:FCO001:   1.ATOM   1500.529601957428      0.000000000000      0.000000000000   1500.529601957428

:1S 001: 1S               -3066.875183792 Ry
:2S 001: 2S                -492.628695823 Ry
:2PP001: 2P*               -465.727586249 Ry
:2P 001: 2P                -430.330182407 Ry
:3S 001: 3S                -105.720966409 Ry
:3PP001: 3P*                -94.258738602 Ry
:3P 001: 3P                 -87.250902578 Ry
:3DD001: 3D*                -67.177703042 Ry
:3D 001: 3D                 -65.666160442 Ry
:4S 001: 4S                 -20.392758212 Ry
:4PP001: 4P*                -16.099090058 Ry
:4P 001: 4P                 -14.571025410 Ry
:4DD001: 4D*                 -7.502684752 Ry
:4D 001: 4D                  -7.233048992 Ry
:CINT001 Core Integral Atom   1   45.998502

       DENSITY AT NUCLEUS
        JATOM        VALENCE       SEMI-CORE          CORE           TOTAL
:RTO001:   1      648.932344        0.000000   656825.592528   657474.524872
     
       CHARGES OF NEW CHARGE DENSITY
:NTO   : INTERSTITIAL CHARGE =     6.741069
:NPC   : PW Pseudocharge     =    17.014699
:NTO001: CHARGE SPHERE  1    =    55.627963

:NEC01: NUCLEAR AND ELECTRONIC CHARGE    118.00000   117.99699
     
       CHARGES OF OLD CHARGE DENSITY
:OTO   : INTERSTITIAL CHARGE =     6.885827
:OPC   : PW Pseudocharge     =    17.080077
:OTO001: CHARGE SPHERE  1    =    55.557087

:NEC02: NUCLEAR AND ELECTRONIC CHARGE    118.00000   118.00000
     
       CONVERGENCE TEST
:DTO001: DIFFERENCE IN SPHERE  1 =  0.1278984

:DIS  :  CHARGE DISTANCE       ( 0.1278984 for atom    1 spin 1)      0.1278984
 PW Mixed is          446
 
******************************************************
* MULTISECANT MIXING VER9 RELEASE 10.4.0              *
* Standard Mode with controls                        *
* Fixed density scale                                *
* Regularization       1.000E-04                     *
* Trust Upper Limit    5.000E+00                     *
* Max Number of Memory Steps    8                    *
******************************************************
 
:PWTMP   3.1917E+02  1.9467E+02  4.2110E+02
:PLANE:  PW TOTAL      4.9944 DISTAN   2.42E-02  4.85E-01 %
:CHARG:  CLM/ATOM   1381.9536 DISTAN   1.92E-01  1.39E-02 %
 
Step History
        DMIX         DMIXT        Red     Pred      Trust     Lambda    MagRel    MagAbs     Beta
  1   3.5000E-02   3.5000E-02 -1.00E+00  1.00E+00 -1.00E+01  1.00E+00  3.50E-02  3.50E-02  1.00E+00
:INFO :  Note, Pratt in use
:TRUST:  Step 3.75E-02  Charge 7.50E-02 (e) CTO  2.50E-01 (e) PW  3.50E-01 (e)
:DIRM :  MEMORY  0/ 8 SCALE   1.000
Performing Pseudo Compensation
Final Pseudo Compensation Rescaling     1.00000E+00
:MIX  :   PRATT  REGULARIZATION:  1.00E-04 GREED: 0.02500                  
     
       CHARGES OF MIXED CHARGE DENSITY
:CTO   : INTERSTITIAL CHARGE =     6.882283
:CPC   : PW Pseudocharge     =    17.064940
:CTO001: CHARGE SPHERE  1    =    55.558859

:NEC03: NUCLEAR AND ELECTRONIC CHARGE    118.00000   118.00000

PW CHANGE     H    K    L      Current       Change    Residue
:PTO001:      0    0    0  5.68687956E-02 -4.436E-05 -4.739E-04
:PTO003:      0    2    0  1.51514943E-02 -1.138E-05  2.251E-05
:PTO004:     -1    1    0  7.38443745E-02 -6.298E-05 -1.063E-04
:PTO005:      0    2   -1 -8.55038403E-02  7.055E-05 -1.290E-06
:PTO006:      0    0   -2 -4.42971488E-02  3.753E-05  3.553E-05
:PTO007:     -1    1   -1 -9.18510222E-02  7.856E-05  5.336E-05
:PTO008:      0    2   -2 -1.46155012E-02  1.323E-05  3.899E-05
:PTO009:     -1    1   -2 -7.46855511E-02  5.987E-05  7.302E-06
:PTO011:     -1    3    0 -1.19443974E-02  9.858E-06  5.441E-05
:PTO012:     -1    3   -1 -5.28238681E-02  3.456E-05  5.980E-06
:PTO013:      0    4    0 -9.50815748E-03  5.260E-06 -4.558E-06
:PTO014:      0    2   -3  2.19093933E-02 -1.244E-05 -1.863E-05

:ENE  : ********** TOTAL ENERGY IN Ry =       -36944.26983631

       TOTAL FORCE IN mRy/a.u. = |F|     Fx             Fy             Fz     with/without FOR in case.in2
:FOR001:   1.ATOM         23.631          0.000          0.000        -23.631 partial forces
       TOTAL FORCE WITH RESPECT TO GLOBAL CARTESIAN COORDINATES:
:FCA001:   1.ATOM                         0.000        -23.631          0.000 partial forces
       TOTAL FORCE WITH RESPECT TO THE GLOBAL COORDINATE SYSTEM:
:FGL001:   1.ATOM                 0.000000000   -23.631139430     0.000000000 partial forces
 Flat Integration
 New Mode for Coulomb Integral
 Consistent 3/8+Simpson combinations
 Extension of core to zero
 LDM version in phi
 Fifth-order quadrature in outwin


            ---------
:ITE014: 14. ITERATION
            ---------

:NATO :    1 INDEPENDENT AND    2 TOTAL ATOMS IN UNITCELL
       SUBSTANCE: aU                                                          

       LATTICE                      = CXY 
:POT  : POTENTIAL OPTION EX_LDA EC_LDA VX_LDA VC_LDA
:LAT  : LATTICE CONSTANTS=  6.18760 12.55620 10.84003    1.571    1.571    1.571
:VOL  : UNIT CELL VOLUME =     421.09601
       MODE OF CALCULATION IS       = RELA
       NON-SPINPOLARIZED CALCULATION
:IFFT  : FFT-parameters:   48   96   90 Factor: 2.00


   CONVERGENCE PARAMETER FOR PSEUDOCHARGE: NCON=  9
   MAXIMAL VALUE OF RMT(JATOM)*ABSK(NKK) : RK  =27.59478


:VKCOUL :  VK-COUL convergence: 0.121E-06
       ATOMNUMBER=  1 Pr1        VCOUL-ZERO =  0.18757E+00
:EFG001:                        EFG         =    -8.92315   *10**21  V / m**2
                               V20  TOT/SRF=    -7.72767    -0.03530
                               V22  TOT/SRF=    -0.69049    -0.00210
                               V22M TOT/SRF=     0.00000     0.00000
                               V21  TOT/SRF=     0.00000     0.00000
                               V21M TOT/SRF=     0.00000     0.00000

              3.77109    0.00000    0.00000        3.77109    0.00000    0.00000
              0.00000    5.15206    0.00000        0.00000    5.15206    0.00000
              0.00000    0.00000   -8.92315        0.00000    0.00000   -8.92315

         MAIN DIRECTIONS OF THE EFG   1.0000  0.0000  0.0000
                                      0.0000  1.0000  0.0000
                                      0.0000  0.0000  1.0000
:ANG001:  ANGLE WITH OLD X-AXIS =         0.0

:ETA001:                         ASYMM. ETA =     0.15476


     HELLMANN-FEYNMAN-FORCE IN mRy/a.u. = |F|  Fx       Fy             Fz
:FHF001:   1.ATOM   1523.419563249155      0.000000000000      0.000000000000  -1523.419563249155

:FIT001: LUSE= 13 SIGMA OF V-XC FIT FOR ATOM  1  0.5737211E-04
:FIT001: LUSE= 13 SIGMA OF V-XC FIT FOR ATOM  1  0.5737211E-04
:DEN  : DENSITY INTEGRAL  =        -14160.84275032   (Ry)
       ELS_POTENTIAL_AT Z=0 and Z=0.5:   0.78135   0.78135
       ELS_POTENTIAL_AT Y=0 and Y=0.5:   0.05860   0.05860
:VZERO:v0,v0c,v0x   0.17060   0.78135  -0.61076 v5,v5c,v5x   0.17060   0.78135  -0.61076
:VZERY:v0,v0c,v0x  -0.75682   0.05860  -0.81542 v5,v5c,v5x  -0.75682   0.05860  -0.81542
:VZERX:v0,v0c,v0x  -1.15942  -0.38364  -0.77578 v5,v5c,v5x  -1.15942  -0.38364  -0.77578
:LMAX-WF:   10   Non-Spherical LMAX:   4

          ATOMIC SPHERE DEPENDENT PARAMETERS FOR ATOM  Pr1       
:e__0001: OVERALL ENERGY PARAMETER IS    0.5267
          OVERALL BASIS SET ON ATOM IS LAPW
:E0_0001: E( 0)=    0.5267
             APW+lo
:E0_0001: E( 0)=   -1.9251   E(BOTTOM)=   -2.560   E(TOP)=   -1.290  4  5   193
             LOCAL ORBITAL
:E1_0001: E( 1)=    0.9267
             APW+lo
:E1_0001: E( 1)=   -0.4548   E(BOTTOM)=   -1.412   E(TOP)=    0.503  3  4   195
             LOCAL ORBITAL
:E3_0001: E( 3)=    0.7221   E(BOTTOM)=    0.516   E(TOP)=    0.928  0  1   115
             APW+lo
:E2_0001: E( 2)=    0.5267   E(BOTTOM)=    0.328   E(TOP)= -200.000  2 -1    85
             APW+lo

       K=   0.06250   0.00000   0.06250            1
:RKM  : MATRIX SIZE   407LOs:  40  RKM= 8.48  WEIGHT= 4.00  PGR:    
       EIGENVALUES ARE:
:EIG00001:      -1.9053392   -1.8830429   -0.6484279   -0.5440127   -0.5202123
:EIG00006:      -0.5109035   -0.5009967   -0.5008843    0.5049408    0.6249377
:EIG00011:       0.7221400    0.7249028    0.7249383    0.7281183    0.7339498
:EIG00016:       0.7475430    0.7524092    0.7527394    0.7560872    0.7592777
:EIG00021:       0.7645225    0.7680458    0.7683385    0.7765739    0.8056841
:EIG00026:       0.8226848    0.9114636    0.9208996    0.9681475    0.9921743
:EIG00031:       1.0057382    1.1159037    1.1573822    1.2121700    1.5159236
:EIG00036:       1.5466431    1.6016018    1.6251607    1.7841654    1.8412348
:EIG00041:       1.9401322    2.0364505    2.1337427    2.1503136    2.2756020
:EIG00046:       2.3031908    2.3212266    2.4192270    2.4567234    2.5700475
 
:EIG00051:       2.6220844    2.6813334    2.7017300    2.7964165    2.8388201
:EIG00056:       2.8995232    2.9175386    2.9946807    3.0662977    3.1521223
:EIG00061:       3.1925366    3.2433156    3.3721043    3.4015945    3.4389177
:EIG00066:       3.5597903    3.6036538    3.6801348    3.6877971    3.7072793
:EIG00071:       3.7122790    3.7698333    3.8106023    3.8999936    3.9128708
:EIG00076:       3.9636253    3.9699210    4.0269093    4.0554836    4.0810801
:EIG00081:       4.0913550    4.1383434    4.1530502    4.2396173    4.2685385
:EIG00086:       4.2916431    4.3752105    4.4124371    4.4503690    4.4517055
:EIG00091:       4.4897876    4.5431230    4.5494903    4.5860665    4.5982401
:EIG00096:       4.6274961    4.6829382    4.6949561    4.7239967    4.7880027
 
:EIG00101:       4.8776061    4.9956992    5.0227188    5.1056571    5.1130247
:EIG00106:       5.1267219    5.1841100    5.2345964    5.2504829    5.2743014
:EIG00111:       5.3719841    5.4193410    5.4760823    5.5472442    5.5713924
:EIG00116:       5.6211208    5.6557732    5.6655291    5.7294800    5.7720237
:EIG00121:       5.8006355    5.8323108    5.9136841    5.9201923    5.9839322
:EIG00126:       6.0703970    6.1364944    6.1460609    6.1521935    6.2307076
:EIG00131:       6.2587009    6.3149704    6.3184427    6.3296711    6.3875283
:EIG00136:       6.4700565    6.4822282    6.5256852    6.5489304    6.5778044
:EIG00141:       6.6107507    6.6493377    6.6835557    6.6865364    6.7559652
:EIG00146:       6.7704074    6.7888810    6.8520276    6.8819295    6.9041301
 
:EIG00151:       6.9591835    6.9862159    7.0380436    7.1164749    7.1860981
:EIG00156:       7.2723298    7.3614163    7.3619327    7.3803218    7.4819609
:EIG00161:       7.5391496    7.6109211    7.6227322    7.6588969    7.6834268
:EIG00166:       7.7097448    7.7140150    7.7251692    7.8032753    7.8871695
:EIG00171:       7.8902555    7.9299409    7.9599360    7.9873596    8.0548876
:EIG00176:       8.0624942    8.1120332    8.1267687    8.1721515    8.1983245
:EIG00181:       8.2249217
       ********************************************************

:KPT   :      NUMBER OF K-POINTS:   288
   0.0   0.0 angle (M,z), angle (M,x) deg
 
        SPIN-ORBIT EIGENVALUES:
     K=   0.06250   0.00000   0.06250            1
      MATRIX SIZE=  362   WEIGHT= 4.00
     EIGENVALUES ARE:
          -1.9053394   -1.9053394   -1.8830430   -1.8830430   -0.7221711
          -0.7221711   -0.6606170   -0.6606170   -0.5325282   -0.5325282
          -0.4496403   -0.4496403   -0.4462005   -0.4462005   -0.4343797
          -0.4343797    0.5049963    0.5049963    0.6248116    0.6248116
           0.7174034    0.7174034    0.7203554    0.7203554    0.7210882
           0.7210882    0.7240108    0.7240108    0.7290417    0.7290417
           0.7361366    0.7361366    0.7493610    0.7493610    0.7576618
           0.7576618    0.7626370    0.7626370    0.7635959    0.7635959

           0.7686544    0.7686544    0.7723595    0.7723595    0.7733508
           0.7733508    0.7810201    0.7810201    0.8067732    0.8067732
           0.8227898    0.8227898    0.9090412    0.9090413    0.9230296
           0.9230296    0.9684433    0.9684433    0.9924174    0.9924174
           1.0059727    1.0059727    1.1157837    1.1157837    1.1576544
           1.1576544    1.2122943    1.2122943    1.5161367    1.5161367
           1.5466967    1.5466967    1.6015671    1.6015671    1.6252226
           1.6252227    1.7838471    1.7838471    1.8407233    1.8407233

           1.9401388    1.9401388    2.0354428    2.0354428    2.1321267
           2.1321267    2.1513189    2.1513189    2.2759228    2.2759228
           2.3030841    2.3030841    2.3199696    2.3199696    2.4184950
           2.4184950    2.4579051    2.4579051    2.5699501    2.5699501
           2.6214566    2.6214566    2.6786205    2.6786205    2.7034524
           2.7034524    2.7963602    2.7963602    2.8399155    2.8399155
           2.8997418    2.8997418    2.9169733    2.9169733    2.9952790
           2.9952790    3.0669507    3.0669507    3.1519971    3.1519971

           3.1925886    3.1925886    3.2476642    3.2476642    3.3719693
           3.3719693    3.4016479    3.4016479    3.4391475    3.4391475
           3.5598371    3.5598371    3.6037613    3.6037613    3.6802203
           3.6802203    3.6873918    3.6873918    3.7072968    3.7072968
           3.7126854    3.7126854    3.7696783    3.7696783    3.8106763
           3.8106763    3.8987825    3.8987825    3.9142524    3.9142524
           3.9635107    3.9635107    3.9721532    3.9721532    4.0270171
           4.0270171    4.0559384    4.0559384    4.0811173    4.0811173

           4.0916111    4.0916111    4.1384076    4.1384076    4.1535500
           4.1535500    4.2396625    4.2396625    4.2686173    4.2686173
           4.2918889    4.2918889    4.3752126    4.3752126    4.4126014
           4.4126014    4.4502039    4.4502039    4.4519757    4.4519757
           4.4898274    4.4898274
       ********************************************************
:GAP (global)   :    0.0    Ry =     0.0   eV (metal)
:GAP (this spin):    0.0    Ry =     0.0   eV (metal)
         Bandranges (emin - emax) and occupancy:
:BAN00018:  18    0.499064    0.690507  1.00000000
:BAN00019:  19    0.606520    0.704963  1.00000000
:BAN00020:  20    0.606520    0.704963  1.00000000
:BAN00021:  21    0.648197    0.724230  1.00000000
:BAN00022:  22    0.648197    0.724230  1.00000000
:BAN00023:  23    0.697000    0.727335  0.99935063
:BAN00024:  24    0.697000    0.727335  0.99935063
:BAN00025:  25    0.708794    0.735410  0.75503418
:BAN00026:  26    0.708794    0.735410  0.75503403
:BAN00027:  27    0.722754    0.736885  0.24561535
:BAN00028:  28    0.722754    0.736885  0.24561518
:BAN00029:  29    0.728214    0.740024  0.00000000
:BAN00030:  30    0.728214    0.740024  0.00000000
:BAN00031:  31    0.732560    0.747722  0.00000000
:BAN00032:  32    0.732560    0.747722  0.00000000
:BAN00033:  33    0.738989    0.755450  0.00000000
        Energy to separate low and high energystates:    0.44906


:NOE  : NUMBER OF ELECTRONS          =   26.000

:FER  : F E R M I - ENERGY(TETRAH.M.)=   0.7269196736
:GMA  : POTENTIAL AND CHARGE CUT-OFF  12.00 Ry**.5

:POS001: ATOM   -1 X,Y,Z = 0.00000 0.89750 0.25000  MULT= 2  ZZ= 59.000  Pr1       

       LMMAX 16
       LM=   0 0  1 0  2 0  2 2  3 0  3 2  4 0  4 2  4 4  5 0  5 2  5 4  6 0  6 2  6 4  6 6

:CHA001: TOTAL VALENCE CHARGE INSIDE SPHERE   1 =   9.6048    (RMT=  2.3000 )
:PCS001: PARTIAL CHARGES SPHERE =  1 S,P,D,F,PX,PY,PZ,D-Z2,D-X2Y2,D-XY,D-XZ,D-YZ 
:QTL001: 1.9414 5.0018 0.5699 2.0913 1.6647 1.6637 1.6734 0.1070 0.1017 0.1230 0.1131 0.1250
        Q-s-low E-s-low   Q-p-low E-p-low   Q-d-low E-d-low   Q-f-low E-f-low
:EPL001:  1.8691 -1.8827    4.9328 -0.5683    0.0033 -0.5691    0.0010 -0.5822
        Q-s-hi  E-s-hi    Q-p-hi  E-p-hi    Q-d-hi  E-d-hi    Q-f-hi  E-f-hi 
:EPH001:  0.0723  0.6334    0.0689  0.6688    0.5665  0.6718    2.0903  0.7109

                      VXX         VYY         VZZ       UP TO R
:VZZ001:             3.57731     4.43974    -8.01705       2.300

:CHA  : TOTAL VALENCE CHARGE INSIDE UNIT CELL =      26.000000

:SUM  : SUM OF EIGENVALUES =          -7.501311190


        1.ATOM      Pr1                  14 CORE STATES
       CORE-FORCE in mRy/a.u. = |F|      Fx             Fy             Fz
:FCO001:   1.ATOM   1499.932852048786      0.000000000000      0.000000000000   1499.932852048786

:1S 001: 1S               -3066.871021141 Ry
:2S 001: 2S                -492.624521994 Ry
:2PP001: 2P*               -465.723414790 Ry
:2P 001: 2P                -430.326010175 Ry
:3S 001: 3S                -105.716886816 Ry
:3PP001: 3P*                -94.254649951 Ry
:3P 001: 3P                 -87.246830900 Ry
:3DD001: 3D*                -67.173600583 Ry
:3D 001: 3D                 -65.662062144 Ry
:4S 001: 4S                 -20.389581424 Ry
:4PP001: 4P*                -16.095970073 Ry
:4P 001: 4P                 -14.567993360 Ry
:4DD001: 4D*                 -7.499808615 Ry
:4D 001: 4D                  -7.230202887 Ry
:CINT001 Core Integral Atom   1   45.998500

       DENSITY AT NUCLEUS
        JATOM        VALENCE       SEMI-CORE          CORE           TOTAL
:RTO001:   1      648.944897        0.000000   656825.406630   657474.351527
     
       CHARGES OF NEW CHARGE DENSITY
:NTO   : INTERSTITIAL CHARGE =     6.790430
:NPC   : PW Pseudocharge     =    17.029788
:NTO001: CHARGE SPHERE  1    =    55.603285

:NEC01: NUCLEAR AND ELECTRONIC CHARGE    118.00000   117.99700
     
       CHARGES OF OLD CHARGE DENSITY
:OTO   : INTERSTITIAL CHARGE =     6.882283
:OPC   : PW Pseudocharge     =    17.064940
:OTO001: CHARGE SPHERE  1    =    55.558859

:NEC02: NUCLEAR AND ELECTRONIC CHARGE    118.00000   118.00000
     
       CONVERGENCE TEST
:DTO001: DIFFERENCE IN SPHERE  1 =  0.0830492

:DIS  :  CHARGE DISTANCE       ( 0.0830492 for atom    1 spin 1)      0.0830492
 PW Mixed is          446
 
******************************************************
* MULTISECANT MIXING VER9 RELEASE 10.4.0              *
* Slow Mode, cautious                                *
* Fixed density scale                                *
* Regularization       1.000E-04                     *
* Step Trust Radius    0.75000                       *
* Trust Upper Limit    2.000E+00                     *
* Max Number of Memory Steps   12                    *
******************************************************
 
:PWTMP   3.1917E+02  1.9467E+02  4.2110E+02
:PLANE:  PW TOTAL      4.9905 DISTAN   1.44E-02  2.89E-01 %
:CHARG:  CLM/ATOM   1381.9538 DISTAN   1.32E-01  9.58E-03 %
 
Step History
        DMIX         DMIXT        Red     Pred      Trust     Lambda    MagRel    MagAbs     Beta
  1   3.5000E-02   3.5000E-02 -1.00E+00  1.00E+00 -1.00E+01  1.00E+00  3.50E-02  3.50E-02  1.00E+00
  2   2.5000E-02   2.5000E-02 -1.00E+00  1.00E+00 -1.00E+01  1.00E+00  2.50E-02  4.85E-03  1.00E+00
:JACOBIANS    4.059E-03   3.496E-02
  
:TRUST:  Step 2.80E-02  Charge 7.50E-02 (e) CTO  2.50E-01 (e) PW  3.50E-01 (e)
:DIRM :  MEMORY  1/12 SCALE   1.000
:MIX  :   PRATT  REGULARIZATION:  1.00E-04 GREED: 0.02801  Expand 1.12  0.0280                
     
       CHARGES OF MIXED CHARGE DENSITY
:CTO   : INTERSTITIAL CHARGE =     6.875728
:CPC   : PW Pseudocharge     =    17.036942
:CTO001: CHARGE SPHERE  1    =    55.562136

:NEC03: NUCLEAR AND ELECTRONIC CHARGE    118.00000   118.00000

PW CHANGE     H    K    L      Current       Change    Residue
:PTO001:      0    0    0  5.67867407E-02 -8.206E-05 -2.766E-04
:PTO003:      0    2    0  1.51304417E-02 -2.105E-05  2.083E-05
:PTO004:     -1    1    0  7.37278792E-02 -1.165E-04 -3.259E-05
:PTO005:      0    2   -1 -8.53733536E-02  1.305E-04 -6.032E-05
:PTO006:      0    0   -2 -4.42277324E-02  6.942E-05 -3.167E-06
:PTO007:     -1    1   -1 -9.17057095E-02  1.453E-04 -8.836E-06
:PTO008:      0    2   -2 -1.45910243E-02  2.448E-05  2.295E-05
:PTO009:     -1    1   -2 -7.45748133E-02  1.107E-04 -3.832E-05
:PTO011:     -1    3    0 -1.19261637E-02  1.823E-05  3.547E-05
:PTO012:     -1    3   -1 -5.27599472E-02  6.392E-05 -1.786E-05
:PTO013:      0    4    0 -9.49842836E-03  9.729E-06 -4.429E-06
:PTO014:      0    2   -3  2.18863756E-02 -2.302E-05 -4.334E-06

:ENE  : ********** TOTAL ENERGY IN Ry =       -36944.26937570

       TOTAL FORCE IN mRy/a.u. = |F|     Fx             Fy             Fz     with/without FOR in case.in2
:FOR001:   1.ATOM         23.487          0.000          0.000        -23.487 partial forces
       TOTAL FORCE WITH RESPECT TO GLOBAL CARTESIAN COORDINATES:
:FCA001:   1.ATOM                         0.000        -23.487          0.000 partial forces
       TOTAL FORCE WITH RESPECT TO THE GLOBAL COORDINATE SYSTEM:
:FGL001:   1.ATOM                 0.000000000   -23.486711200     0.000000000 partial forces
 Flat Integration
 New Mode for Coulomb Integral
 Consistent 3/8+Simpson combinations
 Extension of core to zero
 LDM version in phi
 Fifth-order quadrature in outwin


            ---------
:ITE015: 15. ITERATION
            ---------

:NATO :    1 INDEPENDENT AND    2 TOTAL ATOMS IN UNITCELL
       SUBSTANCE: aU                                                          

       LATTICE                      = CXY 
:POT  : POTENTIAL OPTION EX_LDA EC_LDA VX_LDA VC_LDA
:LAT  : LATTICE CONSTANTS=  6.18760 12.55620 10.84003    1.571    1.571    1.571
:VOL  : UNIT CELL VOLUME =     421.09601
       MODE OF CALCULATION IS       = RELA
       NON-SPINPOLARIZED CALCULATION
:IFFT  : FFT-parameters:   48   96   90 Factor: 2.00


   CONVERGENCE PARAMETER FOR PSEUDOCHARGE: NCON=  9
   MAXIMAL VALUE OF RMT(JATOM)*ABSK(NKK) : RK  =27.59478


:VKCOUL :  VK-COUL convergence: 0.121E-06
       ATOMNUMBER=  1 Pr1        VCOUL-ZERO =  0.18723E+00
:EFG001:                        EFG         =    -8.86570   *10**21  V / m**2
                               V20  TOT/SRF=    -7.67792    -0.03507
                               V22  TOT/SRF=    -0.67806    -0.00199
                               V22M TOT/SRF=     0.00000     0.00000
                               V21  TOT/SRF=     0.00000     0.00000
                               V21M TOT/SRF=     0.00000     0.00000

              3.75479    0.00000    0.00000        3.75479    0.00000    0.00000
              0.00000    5.11091    0.00000        0.00000    5.11091    0.00000
              0.00000    0.00000   -8.86570        0.00000    0.00000   -8.86570

         MAIN DIRECTIONS OF THE EFG   1.0000  0.0000  0.0000
                                      0.0000  1.0000  0.0000
                                      0.0000  0.0000  1.0000
:ANG001:  ANGLE WITH OLD X-AXIS =         0.0

:ETA001:                         ASYMM. ETA =     0.15296


     HELLMANN-FEYNMAN-FORCE IN mRy/a.u. = |F|  Fx       Fy             Fz
:FHF001:   1.ATOM   1522.045115279577      0.000000000000      0.000000000000  -1522.045115279577

:FIT001: LUSE= 13 SIGMA OF V-XC FIT FOR ATOM  1  0.5698250E-04
:FIT001: LUSE= 13 SIGMA OF V-XC FIT FOR ATOM  1  0.5698250E-04
:DEN  : DENSITY INTEGRAL  =        -14161.50414765   (Ry)
       ELS_POTENTIAL_AT Z=0 and Z=0.5:   0.78035   0.78035
       ELS_POTENTIAL_AT Y=0 and Y=0.5:   0.05849   0.05849
:VZERO:v0,v0c,v0x   0.16981   0.78035  -0.61054 v5,v5c,v5x   0.16981   0.78035  -0.61054
:VZERY:v0,v0c,v0x  -0.75660   0.05849  -0.81510 v5,v5c,v5x  -0.75660   0.05849  -0.81510
:VZERX:v0,v0c,v0x  -1.15854  -0.38308  -0.77547 v5,v5c,v5x  -1.15854  -0.38308  -0.77547
:LMAX-WF:   10   Non-Spherical LMAX:   4

          ATOMIC SPHERE DEPENDENT PARAMETERS FOR ATOM  Pr1       
:e__0001: OVERALL ENERGY PARAMETER IS    0.5268
          OVERALL BASIS SET ON ATOM IS LAPW
:E0_0001: E( 0)=    0.5268
             APW+lo
:E0_0001: E( 0)=   -1.9231   E(BOTTOM)=   -2.559   E(TOP)=   -1.288  4  5   188
             LOCAL ORBITAL
:E1_0001: E( 1)=    0.9268
             APW+lo
:E1_0001: E( 1)=   -0.4531   E(BOTTOM)=   -1.411   E(TOP)=    0.505  3  4   199
             LOCAL ORBITAL
:E3_0001: E( 3)=    0.7260   E(BOTTOM)=    0.519   E(TOP)=    0.933  0  1   120
             APW+lo
:E2_0001: E( 2)=    0.5268   E(BOTTOM)=    0.329   E(TOP)= -200.000  2 -1    85
             APW+lo

       K=   0.06250   0.00000   0.06250            1
:RKM  : MATRIX SIZE   407LOs:  40  RKM= 8.48  WEIGHT= 4.00  PGR:    
       EIGENVALUES ARE:
:EIG00001:      -1.9035020   -1.8811469   -0.6473573   -0.5427482   -0.5188966
:EIG00006:      -0.5094545   -0.4995243   -0.4994802    0.5046094    0.6247868
:EIG00011:       0.7251863    0.7283024    0.7283146    0.7314274    0.7372288
:EIG00016:       0.7513368    0.7562349    0.7565978    0.7599428    0.7629783
:EIG00021:       0.7684579    0.7717423    0.7719179    0.7804677    0.8071992
:EIG00026:       0.8235320    0.9120682    0.9211467    0.9684193    0.9924340
:EIG00031:       1.0060827    1.1162567    1.1578983    1.2127395    1.5159462
:EIG00036:       1.5468502    1.6015113    1.6253674    1.7839933    1.8410595
:EIG00041:       1.9400943    2.0363841    2.1337007    2.1503518    2.2757107
:EIG00046:       2.3031560    2.3209709    2.4191800    2.4565493    2.5699625
 
:EIG00051:       2.6220251    2.6813756    2.7016258    2.7964654    2.8389623
:EIG00056:       2.8993608    2.9173639    2.9950774    3.0662494    3.1522040
:EIG00061:       3.1922902    3.2435050    3.3721562    3.4011655    3.4386219
:EIG00066:       3.5597412    3.6033030    3.6801084    3.6875687    3.7070416
:EIG00071:       3.7119241    3.7695935    3.8103473    3.8997442    3.9125694
:EIG00076:       3.9635050    3.9695446    4.0266135    4.0551678    4.0807031
:EIG00081:       4.0911448    4.1379496    4.1526725    4.2392408    4.2680137
:EIG00086:       4.2915293    4.3746008    4.4120320    4.4500623    4.4514612
:EIG00091:       4.4893302    4.5426103    4.5492167    4.5858472    4.5981280
:EIG00096:       4.6270154    4.6824686    4.6944937    4.7237058    4.7875449
 
:EIG00101:       4.8773080    4.9952754    5.0224470    5.1052511    5.1125282
:EIG00106:       5.1263243    5.1836293    5.2341492    5.2501750    5.2738007
:EIG00111:       5.3714879    5.4188200    5.4760185    5.5470414    5.5710024
:EIG00116:       5.6206428    5.6554812    5.6651684    5.7292915    5.7717983
:EIG00121:       5.8004935    5.8318308    5.9134240    5.9197543    5.9836305
:EIG00126:       6.0699614    6.1361831    6.1457988    6.1517876    6.2303226
:EIG00131:       6.2584197    6.3145365    6.3180475    6.3294195    6.3872791
:EIG00136:       6.4695875    6.4818441    6.5251491    6.5484556    6.5774085
:EIG00141:       6.6103960    6.6489317    6.6831341    6.6861568    6.7554825
:EIG00146:       6.7699085    6.7884484    6.8515909    6.8819228    6.9035854
 
:EIG00151:       6.9586157    6.9857915    7.0374909    7.1162254    7.1856680
:EIG00156:       7.2720214    7.3609401    7.3615264    7.3798101    7.4815265
:EIG00161:       7.5386760    7.6104914    7.6224996    7.6584700    7.6832011
:EIG00166:       7.7093121    7.7136299    7.7248406    7.8028808    7.8868818
:EIG00171:       7.8898956    7.9295855    7.9595770    7.9870420    8.0545262
:EIG00176:       8.0621240    8.1116762    8.1266386    8.1717747    8.1979438
:EIG00181:       8.2244327
       ********************************************************

:KPT   :      NUMBER OF K-POINTS:   288
   0.0   0.0 angle (M,z), angle (M,x) deg
 
        SPIN-ORBIT EIGENVALUES:
     K=   0.06250   0.00000   0.06250            1
      MATRIX SIZE=  362   WEIGHT= 4.00
     EIGENVALUES ARE:
          -1.9035022   -1.9035022   -1.8811471   -1.8811471   -0.7208810
          -0.7208810   -0.6591192   -0.6591192   -0.5313599   -0.5313599
          -0.4482969   -0.4482968   -0.4448789   -0.4448789   -0.4330195
          -0.4330195    0.5046651    0.5046651    0.6246646    0.6246646
           0.7206287    0.7206287    0.7238241    0.7238241    0.7245328
           0.7245328    0.7274455    0.7274455    0.7324991    0.7324991
           0.7400157    0.7400157    0.7527411    0.7527412    0.7613814
           0.7613814    0.7664337    0.7664337    0.7673061    0.7673061

           0.7722928    0.7722928    0.7759049    0.7759049    0.7770737
           0.7770737    0.7848938    0.7848938    0.8084321    0.8084321
           0.8237106    0.8237106    0.9096453    0.9096454    0.9233071
           0.9233071    0.9687166    0.9687166    0.9926808    0.9926808
           1.0063148    1.0063148    1.1161379    1.1161379    1.1581691
           1.1581691    1.2128630    1.2128630    1.5161605    1.5161605
           1.5469031    1.5469031    1.6014773    1.6014773    1.6254287
           1.6254287    1.7836760    1.7836760    1.8405479    1.8405479

           1.9401011    1.9401011    2.0353782    2.0353782    2.1320948
           2.1320948    2.1513454    2.1513454    2.2760298    2.2760298
           2.3030480    2.3030480    2.3197197    2.3197197    2.4184409
           2.4184409    2.4577389    2.4577389    2.5698667    2.5698667
           2.6213961    2.6213961    2.6786458    2.6786458    2.7033633
           2.7033633    2.7964067    2.7964067    2.8400491    2.8400491
           2.8995806    2.8995806    2.9168037    2.9168037    2.9956694
           2.9956694    3.0669057    3.0669057    3.1520818    3.1520818

           3.1923453    3.1923453    3.2478465    3.2478465    3.3720202
           3.3720202    3.4012192    3.4012192    3.4388525    3.4388525
           3.5597878    3.5597878    3.6034111    3.6034111    3.6801866
           3.6801866    3.6871735    3.6871735    3.7070461    3.7070461
           3.7123387    3.7123387    3.7694364    3.7694364    3.8104212
           3.8104212    3.8985277    3.8985277    3.9139584    3.9139584
           3.9633776    3.9633776    3.9717890    3.9717890    4.0267214
           4.0267214    4.0556247    4.0556247    4.0807402    4.0807402

           4.0913988    4.0913988    4.1380145    4.1380145    4.1531728
           4.1531728    4.2392863    4.2392863    4.2680931    4.2680931
           4.2917741    4.2917741    4.3746030    4.3746030    4.4121963
           4.4121963    4.4499033    4.4499033    4.4517255    4.4517255
           4.4893701    4.4893701
       ********************************************************
:GAP (global)   :    0.0    Ry =     0.0   eV (metal)
:GAP (this spin):    0.0    Ry =     0.0   eV (metal)
         Bandranges (emin - emax) and occupancy:
:BAN00018:  18    0.498728    0.692183  1.00000000
:BAN00019:  19    0.606305    0.707011  1.00000000
:BAN00020:  20    0.606305    0.707011  1.00000000
:BAN00021:  21    0.648259    0.727651  1.00000000
:BAN00022:  22    0.648259    0.727651  1.00000000
:BAN00023:  23    0.698205    0.730718  0.99937940
:BAN00024:  24    0.698205    0.730718  0.99937940
:BAN00025:  25    0.711112    0.739198  0.75571073
:BAN00026:  26    0.711112    0.739198  0.75571042
:BAN00027:  27    0.725995    0.740742  0.24491012
:BAN00028:  28    0.725995    0.740742  0.24490994
:BAN00029:  29    0.731732    0.743148  0.00000000
:BAN00030:  30    0.731732    0.743148  0.00000000
:BAN00031:  31    0.736157    0.750774  0.00000000
:BAN00032:  32    0.736157    0.750774  0.00000000
:BAN00033:  33    0.742709    0.758388  0.00000000
        Energy to separate low and high energystates:    0.44873


:NOE  : NUMBER OF ELECTRONS          =   26.000

:FER  : F E R M I - ENERGY(TETRAH.M.)=   0.7303208147
:GMA  : POTENTIAL AND CHARGE CUT-OFF  12.00 Ry**.5

:POS001: ATOM   -1 X,Y,Z = 0.00000 0.89750 0.25000  MULT= 2  ZZ= 59.000  Pr1       

       LMMAX 16
       LM=   0 0  1 0  2 0  2 2  3 0  3 2  4 0  4 2  4 4  5 0  5 2  5 4  6 0  6 2  6 4  6 6

:CHA001: TOTAL VALENCE CHARGE INSIDE SPHERE   1 =   9.5600    (RMT=  2.3000 )
:PCS001: PARTIAL CHARGES SPHERE =  1 S,P,D,F,PX,PY,PZ,D-Z2,D-X2Y2,D-XY,D-XZ,D-YZ 
:QTL001: 1.9419 5.0023 0.5851 2.0302 1.6647 1.6638 1.6738 0.1104 0.1052 0.1251 0.1162 0.1282
        Q-s-low E-s-low   Q-p-low E-p-low   Q-d-low E-d-low   Q-f-low E-f-low
:EPL001:  1.8689 -1.8808    4.9309 -0.5671    0.0034 -0.5678    0.0010 -0.5809
        Q-s-hi  E-s-hi    Q-p-hi  E-p-hi    Q-d-hi  E-d-hi    Q-f-hi  E-f-hi 
:EPH001:  0.0730  0.6340    0.0714  0.6706    0.5818  0.6735    2.0293  0.7138

                      VXX         VYY         VZZ       UP TO R
:VZZ001:             3.89188     4.74784    -8.63971       2.300

:CHA  : TOTAL VALENCE CHARGE INSIDE UNIT CELL =      26.000000

:SUM  : SUM OF EIGENVALUES =          -7.463403594


        1.ATOM      Pr1                  14 CORE STATES
       CORE-FORCE in mRy/a.u. = |F|      Fx             Fy             Fz
:FCO001:   1.ATOM   1498.826280720187      0.000000000000      0.000000000000   1498.826280720187

:1S 001: 1S               -3066.863321284 Ry
:2S 001: 2S                -492.616801460 Ry
:2PP001: 2P*               -465.715698642 Ry
:2P 001: 2P                -430.318292596 Ry
:3S 001: 3S                -105.709340597 Ry
:3PP001: 3P*                -94.247086975 Ry
:3P 001: 3P                 -87.239299320 Ry
:3DD001: 3D*                -67.166012066 Ry
:3D 001: 3D                 -65.654481325 Ry
:4S 001: 4S                 -20.383705250 Ry
:4PP001: 4P*                -16.090199000 Ry
:4P 001: 4P                 -14.562384964 Ry
:4DD001: 4D*                 -7.494488762 Ry
:4D 001: 4D                  -7.224938598 Ry
:CINT001 Core Integral Atom   1   45.998496

       DENSITY AT NUCLEUS
        JATOM        VALENCE       SEMI-CORE          CORE           TOTAL
:RTO001:   1      648.954952        0.000000   656825.062739   657474.017691
     
       CHARGES OF NEW CHARGE DENSITY
:NTO   : INTERSTITIAL CHARGE =     6.880008
:NPC   : PW Pseudocharge     =    17.057197
:NTO001: CHARGE SPHERE  1    =    55.558491

:NEC01: NUCLEAR AND ELECTRONIC CHARGE    118.00000   117.99699
     
       CHARGES OF OLD CHARGE DENSITY
:OTO   : INTERSTITIAL CHARGE =     6.875728
:OPC   : PW Pseudocharge     =    17.036942
:OTO001: CHARGE SPHERE  1    =    55.562136

:NEC02: NUCLEAR AND ELECTRONIC CHARGE    118.00000   118.00000
     
       CONVERGENCE TEST
:DTO001: DIFFERENCE IN SPHERE  1 =  0.0087461

:DIS  :  CHARGE DISTANCE       ( 0.0087461 for atom    1 spin 1)      0.0087461
 PW Mixed is          446
 
******************************************************
* MULTISECANT MIXING VER9 RELEASE 10.4.0              *
* Slow Mode, cautious                                *
* Fixed density scale                                *
* Regularization       1.000E-04                     *
* Step Trust Radius    0.75000                       *
* Trust Upper Limit    2.000E+00                     *
* Max Number of Memory Steps   12                    *
******************************************************
 
:PWTMP   3.1917E+02  1.9467E+02  4.2110E+02
:PLANE:  PW TOTAL      4.9832 DISTAN   8.84E-03  1.77E-01 %
:CHARG:  CLM/ATOM   1381.9543 DISTAN   5.62E-02  4.07E-03 %
 
Step History
        DMIX         DMIXT        Red     Pred      Trust     Lambda    MagRel    MagAbs     Beta
  1   3.5000E-02   3.5000E-02 -1.00E+00  1.00E+00 -1.00E+01  1.00E+00  3.50E-02  3.50E-02  1.00E+00
  2   2.5000E-02   2.5000E-02  6.87E-01  1.00E+00 -1.00E+01  1.00E+00  2.50E-02  4.85E-03  1.00E+00
  3   2.8009E-02   2.8009E-02 -1.00E+00  1.00E+00 -1.00E+01  1.00E+00  2.80E-02  3.73E-03  1.00E+00
:JACOBIANS    6.179E-03   5.295E-02
  
:NORMS:  1/Froebius, Min, Max, Used   0.1004E+00  0.5845E-01  0.1169E+00  0.1004E+00
:INFO :  Number of Memory Steps    2 Skipping    0
:INFO :  SLambda=    2.3298192812  Max    2.3298192812
:PREDicted Charge, CTotal, PW Trust    3.461E-03   6.923E-03   1.687E-02
:PREDicted DMix, Beta, BLim   5.8017E-02  8.2958E-01  3.3448E-01

Eigenvalues, unscaled except for SY+YY
   #     SY Real        SY Imag          SS             YY         SY+YY Real      SY+YY Imag
   1   2.206568E-15   0.000000E+00   2.015449E-02   1.999997E+00   2.997436E-06   0.000000E+00
   2   1.582163E-01   0.000000E+00   1.734723E-18   2.790012E-06   2.368612E+00   0.000000E+00
 
:INFO :  Singular value  2.369E+00 Weight  1.000E+00 Projection -2.536E-03
:INFO :  Singular value  2.997E-06 Weight  2.246E-04 Projection  1.721E-03
:RANK :  ACTIVE   1.00/2  =  50.01 % ; YY RANK   1.00/2  =  50.01 %
 
:DLIM :  Beta Active  8.722E-01
:BLIM :  VZERO Control Off
:TRUST:  Step 3.34E-01  Charge 7.50E-02 (e) CTO  2.50E-01 (e) PW  3.50E-01 (e)
:DIRM :  MEMORY  2/12 SCALE   1.000 RED  0.43 PRED  1.00 NEXT  1.00 BETA  0.87
:TRAVE:  Charge 1.35E-04 (e) CTO  2.71E-04 (e) PW  3.75E-04 (e)
:DIRP :  |MSR1|= 2.238E-04 |PRATT|= 8.844E-03 ANGLE=  19.9 DEGREES
:DIRQ :  |MSR1|= 2.519E-03 |PRATT|= 5.621E-02 ANGLE=   1.5 DEGREES
:DIRT :  |MSR1|= 2.529E-03 |PRATT|= 5.690E-02 ANGLE=   4.8 DEGREES
:MIX  :   MSE1   REGULARIZATION:  2.00E-04 GREED: 0.04351  Newton 1.00  0.0444                
     
       CHARGES OF MIXED CHARGE DENSITY
:CTO   : INTERSTITIAL CHARGE =     6.875998
:CPC   : PW Pseudocharge     =    17.037481
:CTO001: CHARGE SPHERE  1    =    55.562001

:NEC03: NUCLEAR AND ELECTRONIC CHARGE    118.00000   118.00000

PW CHANGE     H    K    L      Current       Change    Residue
:PTO001:      0    0    0  5.67886645E-02  1.924E-06  8.313E-05
:PTO003:      0    2    0  1.51307165E-02  2.748E-07  1.915E-05
:PTO004:     -1    1    0  7.37293988E-02  1.520E-06  1.016E-04
:PTO005:      0    2   -1 -8.53775218E-02 -4.168E-06 -1.717E-04
:PTO006:      0    0   -2 -4.42292374E-02 -1.505E-06 -7.457E-05
:PTO007:     -1    1   -1 -9.17074974E-02 -1.788E-06 -1.258E-04
:PTO008:      0    2   -2 -1.45906884E-02  3.359E-07 -6.254E-06
:PTO009:     -1    1   -2 -7.45773036E-02 -2.490E-06 -1.219E-04
:PTO011:     -1    3    0 -1.19256594E-02  5.043E-07  1.550E-06
:PTO012:     -1    3   -1 -5.27610102E-02 -1.063E-06 -6.190E-05
:PTO013:      0    4    0 -9.49838785E-03  4.051E-08 -4.961E-06
:PTO014:      0    2   -3  2.18867454E-02  3.698E-07  2.169E-05

:ENE  : ********** TOTAL ENERGY IN Ry =       -36944.26902482

       TOTAL FORCE IN mRy/a.u. = |F|     Fx             Fy             Fz     with/without FOR in case.in2
:FOR001:   1.ATOM         23.219          0.000          0.000        -23.219 partial forces
       TOTAL FORCE WITH RESPECT TO GLOBAL CARTESIAN COORDINATES:
:FCA001:   1.ATOM                         0.000        -23.219          0.000 partial forces
       TOTAL FORCE WITH RESPECT TO THE GLOBAL COORDINATE SYSTEM:
:FGL001:   1.ATOM                 0.000000000   -23.218834559     0.000000000 partial forces
 Flat Integration
 New Mode for Coulomb Integral
 Consistent 3/8+Simpson combinations
 Extension of core to zero
 LDM version in phi
 Fifth-order quadrature in outwin


            ---------
:ITE016: 16. ITERATION
            ---------

:NATO :    1 INDEPENDENT AND    2 TOTAL ATOMS IN UNITCELL
       SUBSTANCE: aU                                                          

       LATTICE                      = CXY 
:POT  : POTENTIAL OPTION EX_LDA EC_LDA VX_LDA VC_LDA
:LAT  : LATTICE CONSTANTS=  6.18760 12.55620 10.84003    1.571    1.571    1.571
:VOL  : UNIT CELL VOLUME =     421.09601
       MODE OF CALCULATION IS       = RELA
       NON-SPINPOLARIZED CALCULATION
:IFFT  : FFT-parameters:   48   96   90 Factor: 2.00


   CONVERGENCE PARAMETER FOR PSEUDOCHARGE: NCON=  9
   MAXIMAL VALUE OF RMT(JATOM)*ABSK(NKK) : RK  =27.59478


:VKCOUL :  VK-COUL convergence: 0.120E-06
       ATOMNUMBER=  1 Pr1        VCOUL-ZERO =  0.18724E+00
:EFG001:                        EFG         =    -8.85701   *10**21  V / m**2
                               V20  TOT/SRF=    -7.67039    -0.03503
                               V22  TOT/SRF=    -0.66681    -0.00192
                               V22M TOT/SRF=     0.00000     0.00000
                               V21  TOT/SRF=     0.00000     0.00000
                               V21M TOT/SRF=     0.00000     0.00000

              3.76169    0.00000    0.00000        3.76169    0.00000    0.00000
              0.00000    5.09532    0.00000        0.00000    5.09532    0.00000
              0.00000    0.00000   -8.85701        0.00000    0.00000   -8.85701

         MAIN DIRECTIONS OF THE EFG   1.0000  0.0000  0.0000
                                      0.0000  1.0000  0.0000
                                      0.0000  0.0000  1.0000
:ANG001:  ANGLE WITH OLD X-AXIS =         0.0

:ETA001:                         ASYMM. ETA =     0.15057


     HELLMANN-FEYNMAN-FORCE IN mRy/a.u. = |F|  Fx       Fy             Fz
:FHF001:   1.ATOM   1521.373463709421      0.000000000000      0.000000000000  -1521.373463709421

:FIT001: LUSE= 13 SIGMA OF V-XC FIT FOR ATOM  1  0.5669027E-04
:FIT001: LUSE= 13 SIGMA OF V-XC FIT FOR ATOM  1  0.5669027E-04
:DEN  : DENSITY INTEGRAL  =        -14161.50240666   (Ry)
       ELS_POTENTIAL_AT Z=0 and Z=0.5:   0.78037   0.78037
       ELS_POTENTIAL_AT Y=0 and Y=0.5:   0.05849   0.05849
:VZERO:v0,v0c,v0x   0.16982   0.78037  -0.61055 v5,v5c,v5x   0.16982   0.78037  -0.61055
:VZERY:v0,v0c,v0x  -0.75662   0.05849  -0.81511 v5,v5c,v5x  -0.75662   0.05849  -0.81511
:VZERX:v0,v0c,v0x  -1.15857  -0.38310  -0.77548 v5,v5c,v5x  -1.15857  -0.38310  -0.77548
:LMAX-WF:   10   Non-Spherical LMAX:   4

          ATOMIC SPHERE DEPENDENT PARAMETERS FOR ATOM  Pr1       
:e__0001: OVERALL ENERGY PARAMETER IS    0.5292
          OVERALL BASIS SET ON ATOM IS LAPW
:E0_0001: E( 0)=    0.5292
             APW+lo
:E0_0001: E( 0)=   -1.9231   E(BOTTOM)=   -2.559   E(TOP)=   -1.288  4  5   192
             LOCAL ORBITAL
:E1_0001: E( 1)=    0.9292
             APW+lo
:E1_0001: E( 1)=   -0.4531   E(BOTTOM)=   -1.411   E(TOP)=    0.505  3  4   201
             LOCAL ORBITAL
:E3_0001: E( 3)=    0.7261   E(BOTTOM)=    0.519   E(TOP)=    0.933  0  1   123
             APW+lo
:E2_0001: E( 2)=    0.5292   E(BOTTOM)=    0.329   E(TOP)= -200.000  2 -1    83
             APW+lo

       K=   0.06250   0.00000   0.06250            1
:RKM  : MATRIX SIZE   407LOs:  40  RKM= 8.48  WEIGHT= 4.00  PGR:    
       EIGENVALUES ARE:
:EIG00001:      -1.9034961   -1.8811406   -0.6473671   -0.5427486   -0.5188969
:EIG00006:      -0.5094290   -0.4994981   -0.4994909    0.5046271    0.6247959
:EIG00011:       0.7252206    0.7283064    0.7283397    0.7314588    0.7372268
:EIG00016:       0.7513742    0.7562640    0.7566294    0.7599720    0.7629829
:EIG00021:       0.7684853    0.7717838    0.7719612    0.7804610    0.8072224
:EIG00026:       0.8235572    0.9120734    0.9211496    0.9684290    0.9924464
:EIG00031:       1.0060971    1.1162679    1.1579075    1.2127370    1.5159698
:EIG00036:       1.5468618    1.6015230    1.6253837    1.7840198    1.8410766
:EIG00041:       1.9401045    2.0363980    2.1337150    2.1503624    2.2757014
:EIG00046:       2.3031644    2.3209814    2.4191890    2.4565524    2.5699679
 
:EIG00051:       2.6220237    2.6813657    2.7016241    2.7964524    2.8389543
:EIG00056:       2.8993587    2.9173681    2.9950418    3.0662525    3.1522063
:EIG00061:       3.1922733    3.2434858    3.3721288    3.4011592    3.4386126
:EIG00066:       3.5597142    3.6032858    3.6801092    3.6875698    3.7070402
:EIG00071:       3.7119230    3.7695842    3.8103445    3.8997486    3.9125706
:EIG00076:       3.9634849    3.9695516    4.0265904    4.0551724    4.0807025
:EIG00081:       4.0911355    4.1379444    4.1526729    4.2392312    4.2680102
:EIG00086:       4.2915236    4.3746086    4.4120355    4.4500624    4.4514213
:EIG00091:       4.4893218    4.5426106    4.5491897    4.5858149    4.5980905
:EIG00096:       4.6270144    4.6824648    4.6944842    4.7236829    4.7875375
 
:EIG00101:       4.8772832    4.9952496    5.0224271    5.1052311    5.1125139
:EIG00106:       5.1263037    5.1836142    5.2341391    5.2501435    5.2737944
:EIG00111:       5.3714705    5.4188181    5.4759404    5.5469839    5.5709708
:EIG00116:       5.6206210    5.6554442    5.6651418    5.7292111    5.7717125
:EIG00121:       5.8004084    5.8317924    5.9133339    5.9197310    5.9835786
:EIG00126:       6.0699228    6.1361315    6.1457503    6.1517515    6.2302971
:EIG00131:       6.2583434    6.3145148    6.3180085    6.3293475    6.3872040
:EIG00136:       6.4695598    6.4817783    6.5251338    6.5484317    6.5773575
:EIG00141:       6.6103424    6.6488580    6.6831121    6.6860717    6.7554310
:EIG00146:       6.7698754    6.7883871    6.8515306    6.8816996    6.9035577
 
:EIG00151:       6.9585972    6.9857185    7.0374627    7.1161450    7.1856203
:EIG00156:       7.2719585    7.3608936    7.3614767    7.3797615    7.4814747
:EIG00161:       7.5386275    7.6104507    7.6224340    7.6584037    7.6831110
:EIG00166:       7.7092441    7.7135581    7.7247731    7.8028074    7.8867586
:EIG00171:       7.8897743    7.9294740    7.9594754    7.9869293    8.0544324
:EIG00176:       8.0620081    8.1115682    8.1265237    8.1716842    8.1978771
:EIG00181:       8.2243667
       ********************************************************

:KPT   :      NUMBER OF K-POINTS:   288
   0.0   0.0 angle (M,z), angle (M,x) deg
 
        SPIN-ORBIT EIGENVALUES:
     K=   0.06250   0.00000   0.06250            1
      MATRIX SIZE=  362   WEIGHT= 4.00
     EIGENVALUES ARE:
          -1.9034963   -1.9034963   -1.8811408   -1.8811408   -0.7208837
          -0.7208837   -0.6591145   -0.6591145   -0.5313592   -0.5313592
          -0.4482813   -0.4482813   -0.4448686   -0.4448686   -0.4330185
          -0.4330185    0.5046828    0.5046828    0.6246737    0.6246737
           0.7206621    0.7206621    0.7238346    0.7238346    0.7245584
           0.7245584    0.7274694    0.7274694    0.7325063    0.7325063
           0.7400477    0.7400477    0.7527619    0.7527620    0.7614144
           0.7614144    0.7664621    0.7664621    0.7673218    0.7673218

           0.7723236    0.7723236    0.7759395    0.7759395    0.7771084
           0.7771084    0.7848919    0.7848919    0.8084561    0.8084562
           0.8237362    0.8237362    0.9096493    0.9096493    0.9233111
           0.9233111    0.9687262    0.9687262    0.9926932    0.9926933
           1.0063292    1.0063292    1.1161490    1.1161490    1.1581783
           1.1581783    1.2128604    1.2128604    1.5161841    1.5161841
           1.5469146    1.5469146    1.6014890    1.6014890    1.6254450
           1.6254450    1.7837025    1.7837025    1.8405650    1.8405650

           1.9401114    1.9401114    2.0353920    2.0353920    2.1321086
           2.1321086    2.1513563    2.1513563    2.2760208    2.2760208
           2.3030563    2.3030563    2.3197299    2.3197299    2.4184497
           2.4184497    2.4577419    2.4577419    2.5698718    2.5698718
           2.6213951    2.6213951    2.6786366    2.6786366    2.7033608
           2.7033608    2.7963935    2.7963935    2.8400415    2.8400415
           2.8995787    2.8995787    2.9168071    2.9168071    2.9956340
           2.9956340    3.0669089    3.0669089    3.1520831    3.1520831

           3.1923285    3.1923285    3.2478282    3.2478282    3.3719927
           3.3719927    3.4012130    3.4012130    3.4388433    3.4388433
           3.5597609    3.5597609    3.6033940    3.6033940    3.6801871
           3.6801871    3.6871745    3.6871745    3.7070451    3.7070451
           3.7123376    3.7123376    3.7694271    3.7694271    3.8104184
           3.8104184    3.8985317    3.8985317    3.9139598    3.9139598
           3.9633580    3.9633580    3.9717955    3.9717955    4.0266985
           4.0266985    4.0556293    4.0556293    4.0807396    4.0807396

           4.0913896    4.0913896    4.1380092    4.1380092    4.1531733
           4.1531733    4.2392767    4.2392767    4.2680897    4.2680897
           4.2917685    4.2917685    4.3746107    4.3746107    4.4121998
           4.4121998    4.4498984    4.4498984    4.4516906    4.4516906
           4.4893617    4.4893617
       ********************************************************
:GAP (global)   :    0.0    Ry =     0.0   eV (metal)
:GAP (this spin):    0.0    Ry =     0.0   eV (metal)
         Bandranges (emin - emax) and occupancy:
:BAN00018:  18    0.498746    0.692207  1.00000000
:BAN00019:  19    0.606318    0.707025  1.00000000
:BAN00020:  20    0.606318    0.707025  1.00000000
:BAN00021:  21    0.648275    0.727656  1.00000000
:BAN00022:  22    0.648275    0.727656  1.00000000
:BAN00023:  23    0.698217    0.730750  0.99936014
:BAN00024:  24    0.698217    0.730750  0.99936013
:BAN00025:  25    0.711144    0.739210  0.75559979
:BAN00026:  26    0.711144    0.739210  0.75559950
:BAN00027:  27    0.726014    0.740769  0.24504032
:BAN00028:  28    0.726014    0.740769  0.24504012
:BAN00029:  29    0.731748    0.743164  0.00000000
:BAN00030:  30    0.731748    0.743164  0.00000000
:BAN00031:  31    0.736175    0.750809  0.00000000
:BAN00032:  32    0.736175    0.750809  0.00000000
:BAN00033:  33    0.742740    0.758404  0.00000000
        Energy to separate low and high energystates:    0.44875


:NOE  : NUMBER OF ELECTRONS          =   26.000

:FER  : F E R M I - ENERGY(TETRAH.M.)=   0.7303404931
:GMA  : POTENTIAL AND CHARGE CUT-OFF  12.00 Ry**.5

:POS001: ATOM   -1 X,Y,Z = 0.00000 0.89750 0.25000  MULT= 2  ZZ= 59.000  Pr1       

       LMMAX 16
       LM=   0 0  1 0  2 0  2 2  3 0  3 2  4 0  4 2  4 4  5 0  5 2  5 4  6 0  6 2  6 4  6 6

:CHA001: TOTAL VALENCE CHARGE INSIDE SPHERE   1 =   9.5599    (RMT=  2.3000 )
:PCS001: PARTIAL CHARGES SPHERE =  1 S,P,D,F,PX,PY,PZ,D-Z2,D-X2Y2,D-XY,D-XZ,D-YZ 
:QTL001: 1.9419 5.0023 0.5852 2.0301 1.6647 1.6638 1.6738 0.1104 0.1052 0.1251 0.1162 0.1282
        Q-s-low E-s-low   Q-p-low E-p-low   Q-d-low E-d-low   Q-f-low E-f-low
:EPL001:  1.8689 -1.8808    4.9309 -0.5671    0.0034 -0.5678    0.0010 -0.5809
        Q-s-hi  E-s-hi    Q-p-hi  E-p-hi    Q-d-hi  E-d-hi    Q-f-hi  E-f-hi 
:EPH001:  0.0730  0.6341    0.0714  0.6706    0.5818  0.6735    2.0291  0.7138

                      VXX         VYY         VZZ       UP TO R
:VZZ001:             3.83710     4.82764    -8.66474       2.300

:CHA  : TOTAL VALENCE CHARGE INSIDE UNIT CELL =      26.000000

:SUM  : SUM OF EIGENVALUES =          -7.463145518


        1.ATOM      Pr1                  14 CORE STATES
       CORE-FORCE in mRy/a.u. = |F|      Fx             Fy             Fz
:FCO001:   1.ATOM   1498.040460051181      0.000000000000      0.000000000000   1498.040460051181

:1S 001: 1S               -3066.863472139 Ry
:2S 001: 2S                -492.616904469 Ry
:2PP001: 2P*               -465.715812214 Ry
:2P 001: 2P                -430.318402213 Ry
:3S 001: 3S                -105.709356254 Ry
:3PP001: 3P*                -94.247107255 Ry
:3P 001: 3P                 -87.239315255 Ry
:3DD001: 3D*                -67.166040045 Ry
:3D 001: 3D                 -65.654507703 Ry
:4S 001: 4S                 -20.383671356 Ry
:4PP001: 4P*                -16.090165907 Ry
:4P 001: 4P                 -14.562351718 Ry
:4DD001: 4D*                 -7.494457743 Ry
:4D 001: 4D                  -7.224907683 Ry
:CINT001 Core Integral Atom   1   45.998496

       DENSITY AT NUCLEUS
        JATOM        VALENCE       SEMI-CORE          CORE           TOTAL
:RTO001:   1      648.954056        0.000000   656825.080674   657474.034729
     
       CHARGES OF NEW CHARGE DENSITY
:NTO   : INTERSTITIAL CHARGE =     6.880208
:NPC   : PW Pseudocharge     =    17.057334
:NTO001: CHARGE SPHERE  1    =    55.558392

:NEC01: NUCLEAR AND ELECTRONIC CHARGE    118.00000   117.99699
     
       CHARGES OF OLD CHARGE DENSITY
:OTO   : INTERSTITIAL CHARGE =     6.875998
:OPC   : PW Pseudocharge     =    17.037481
:OTO001: CHARGE SPHERE  1    =    55.562001

:NEC02: NUCLEAR AND ELECTRONIC CHARGE    118.00000   118.00000
     
       CONVERGENCE TEST
:DTO001: DIFFERENCE IN SPHERE  1 =  0.0082345

:DIS  :  CHARGE DISTANCE       ( 0.0082345 for atom    1 spin 1)      0.0082345
 PW Mixed is          446
 
******************************************************
* MULTISECANT MIXING VER9 RELEASE 10.4.0              *
* Standard Mode with controls                        *
* Fixed density scale                                *
* Regularization       1.000E-04                     *
* Trust Upper Limit    5.000E+00                     *
* Max Number of Memory Steps    8                    *
******************************************************
 
:PWTMP   3.1917E+02  1.9467E+02  4.2110E+02
:PLANE:  PW TOTAL      4.9833 DISTAN   8.66E-03  1.74E-01 %
:CHARG:  CLM/ATOM   1381.9541 DISTAN   5.29E-02  3.83E-03 %
 
Step History
        DMIX         DMIXT        Red     Pred      Trust     Lambda    MagRel    MagAbs     Beta
  1   3.5000E-02   3.5000E-02 -1.00E+00  1.00E+00 -1.00E+01  1.00E+00  3.50E-02  3.50E-02  1.00E+00
  2   2.5000E-02   2.5000E-02  6.87E-01  1.00E+00 -1.00E+01  1.00E+00  2.50E-02  4.85E-03  1.00E+00
  3   2.8009E-02   2.8009E-02  4.27E-01  1.00E+00 -1.00E+01  2.33E+00  2.80E-02  3.73E-03  1.00E+00
  4   4.3510E-02   4.3510E-02 -1.00E+00  9.99E-01  3.34E-01  1.00E+00  4.44E-02  2.53E-03  8.72E-01
:JACOBIANS    9.084E-03   2.763E-01
  
:NORMS:  1/Froebius, Min, Max, Used   0.3388E+00  0.1794E+00  0.4321E+00  0.3975E+00
:INFO :  Number of Memory Steps    3 Skipping    0
:INFO :  SLambda=    1.2646782721  Max    1.2646782721
:PREDicted Charge, CTotal, PW Trust    1.917E-03   3.835E-03   5.679E-03
:PREDicted DMix, Beta, BLim   4.2729E-01  6.4666E+00  4.8764E-01

Eigenvalues, unscaled except for SY+YY
   #     SY Real        SY Imag          SS             YY         SY+YY Real      SY+YY Imag
   1   2.414735E-15   0.000000E+00   3.256134E-01   2.060419E+00   2.823594E-06   0.000000E+00
   2   1.467026E-01   0.000000E+00   1.867266E-02   9.395787E-01   2.345041E+00   0.000000E+00
   3   4.442449E-01   0.000000E+00  -6.550761E-18   2.734819E-06   1.402314E+00   0.000000E+00
 
:INFO :  Singular value  2.345E+00 Weight  1.000E+00 Projection -1.540E-02
:INFO :  Singular value  1.402E+00 Weight  1.000E+00 Projection -4.834E-02
:INFO :  Singular value  2.824E-06 Weight  1.878E-04 Projection  5.121E-04
:RANK :  ACTIVE   2.00/3  =  66.67 % ; YY RANK   2.00/3  =  66.67 %
 
:BLIM :  VZERO Control Off
:TRUST:  Step 4.17E-01  Charge 7.50E-02 (e) CTO  2.50E-01 (e) PW  3.50E-01 (e)
:DTRUS:  Lambda    1.310E-01 Increment    7.276E-12 Iterations    99 DMIX    1.003E-01
:INFOA:  Angle SubSpace to MSR1      1.88
:DIRM :  MEMORY  3/8  SCALE   1.000 RED  0.94 PRED  1.00 NEXT  0.70 
:INFO :  Limited by Atoms F by Step T

:TRAVE:  Charge 7.18E-04 (e) CTO  1.44E-03 (e) PW  2.51E-03 (e)
:DIRP :  |MSR1|= 2.611E-03 |PRATT|= 8.657E-03 ANGLE=   9.9 DEGREES
:DIRQ :  |MSR1|= 2.223E-02 |PRATT|= 5.294E-02 ANGLE=   6.2 DEGREES
:DIRT :  |MSR1|= 2.238E-02 |PRATT|= 5.364E-02 ANGLE=   6.8 DEGREES
:MIX  :   MSE1   REGULARIZATION:  2.06E-04 GREED: 0.10878  LMStep 0.74  0.4172 Step           
     
       CHARGES OF MIXED CHARGE DENSITY
:CTO   : INTERSTITIAL CHARGE =     6.878602
:CPC   : PW Pseudocharge     =    17.044928
:CTO001: CHARGE SPHERE  1    =    55.560699

:NEC03: NUCLEAR AND ELECTRONIC CHARGE    118.00000   118.00000

PW CHANGE     H    K    L      Current       Change    Residue
:PTO001:      0    0    0  5.68125291E-02  2.386E-05  8.200E-05
:PTO003:      0    2    0  1.51366703E-02  5.954E-06  1.996E-05
:PTO004:     -1    1    0  7.37574820E-02  2.808E-05  1.031E-04
:PTO005:      0    2   -1 -8.54260954E-02 -4.857E-05 -1.660E-04
:PTO006:      0    0   -2 -4.42482238E-02 -1.899E-05 -7.214E-05
:PTO007:     -1    1   -1 -9.17394990E-02 -3.200E-05 -1.257E-04
:PTO008:      0    2   -2 -1.45892855E-02  1.403E-06 -6.205E-06
:PTO009:     -1    1   -2 -7.46098319E-02 -3.253E-05 -1.189E-04
:PTO011:     -1    3    0 -1.19218075E-02  3.852E-06  1.627E-06
:PTO012:     -1    3   -1 -5.27770788E-02 -1.607E-05 -6.111E-05
:PTO013:      0    4    0 -9.49846665E-03 -7.880E-08 -4.595E-06
:PTO014:      0    2   -3  2.18907354E-02  3.990E-06  2.012E-05

:ENE  : ********** TOTAL ENERGY IN Ry =       -36944.26903098

       TOTAL FORCE IN mRy/a.u. = |F|     Fx             Fy             Fz     with/without FOR in case.in2
:FOR001:   1.ATOM         23.333          0.000          0.000        -23.333 partial forces
       TOTAL FORCE WITH RESPECT TO GLOBAL CARTESIAN COORDINATES:
:FCA001:   1.ATOM                         0.000        -23.333          0.000 partial forces
       TOTAL FORCE WITH RESPECT TO THE GLOBAL COORDINATE SYSTEM:
:FGL001:   1.ATOM                 0.000000000   -23.333003658     0.000000000 partial forces
 Flat Integration
 New Mode for Coulomb Integral
 Consistent 3/8+Simpson combinations
 Extension of core to zero
 LDM version in phi
 Fifth-order quadrature in outwin


            ---------
:ITE017: 17. ITERATION
            ---------

:NATO :    1 INDEPENDENT AND    2 TOTAL ATOMS IN UNITCELL
       SUBSTANCE: aU                                                          

       LATTICE                      = CXY 
:POT  : POTENTIAL OPTION EX_LDA EC_LDA VX_LDA VC_LDA
:LAT  : LATTICE CONSTANTS=  6.18760 12.55620 10.84003    1.571    1.571    1.571
:VOL  : UNIT CELL VOLUME =     421.09601
       MODE OF CALCULATION IS       = RELA
       NON-SPINPOLARIZED CALCULATION
:IFFT  : FFT-parameters:   48   96   90 Factor: 2.00


   CONVERGENCE PARAMETER FOR PSEUDOCHARGE: NCON=  9
   MAXIMAL VALUE OF RMT(JATOM)*ABSK(NKK) : RK  =27.59478


:VKCOUL :  VK-COUL convergence: 0.114E-06
       ATOMNUMBER=  1 Pr1        VCOUL-ZERO =  0.18733E+00
:EFG001:                        EFG         =    -8.80785   *10**21  V / m**2
                               V20  TOT/SRF=    -7.62782    -0.03482
                               V22  TOT/SRF=    -0.64739    -0.00172
                               V22M TOT/SRF=     0.00000     0.00000
                               V21  TOT/SRF=     0.00000     0.00000
                               V21M TOT/SRF=     0.00000     0.00000

              3.75654    0.00000    0.00000        3.75654    0.00000    0.00000
              0.00000    5.05131    0.00000        0.00000    5.05131    0.00000
              0.00000    0.00000   -8.80785        0.00000    0.00000   -8.80785

         MAIN DIRECTIONS OF THE EFG   1.0000  0.0000  0.0000
                                      0.0000  1.0000  0.0000
                                      0.0000  0.0000  1.0000
:ANG001:  ANGLE WITH OLD X-AXIS =         0.0

:ETA001:                         ASYMM. ETA =     0.14700


     HELLMANN-FEYNMAN-FORCE IN mRy/a.u. = |F|  Fx       Fy             Fz
:FHF001:   1.ATOM   1514.476085008480      0.000000000000      0.000000000000  -1514.476085008480

:FIT001: LUSE= 13 SIGMA OF V-XC FIT FOR ATOM  1  0.5412866E-04
:FIT001: LUSE= 13 SIGMA OF V-XC FIT FOR ATOM  1  0.5412866E-04
:DEN  : DENSITY INTEGRAL  =        -14161.47491885   (Ry)
       ELS_POTENTIAL_AT Z=0 and Z=0.5:   0.78069   0.78069
       ELS_POTENTIAL_AT Y=0 and Y=0.5:   0.05856   0.05856
:VZERO:v0,v0c,v0x   0.17004   0.78069  -0.61065 v5,v5c,v5x   0.17004   0.78069  -0.61065
:VZERY:v0,v0c,v0x  -0.75669   0.05856  -0.81525 v5,v5c,v5x  -0.75669   0.05856  -0.81525
:VZERX:v0,v0c,v0x  -1.15886  -0.38328  -0.77558 v5,v5c,v5x  -1.15886  -0.38328  -0.77558
:LMAX-WF:   10   Non-Spherical LMAX:   4

          ATOMIC SPHERE DEPENDENT PARAMETERS FOR ATOM  Pr1       
:e__0001: OVERALL ENERGY PARAMETER IS    0.5299
          OVERALL BASIS SET ON ATOM IS LAPW
:E0_0001: E( 0)=    0.5299
             APW+lo
:E0_0001: E( 0)=   -1.9231   E(BOTTOM)=   -2.559   E(TOP)=   -1.287  4  5   183
             LOCAL ORBITAL
:E1_0001: E( 1)=    0.9299
             APW+lo
:E1_0001: E( 1)=   -0.4530   E(BOTTOM)=   -1.411   E(TOP)=    0.505  3  4   200
             LOCAL ORBITAL
:E3_0001: E( 3)=    0.7262   E(BOTTOM)=    0.519   E(TOP)=    0.933  0  1   118
             APW+lo
:E2_0001: E( 2)=    0.5299   E(BOTTOM)=    0.329   E(TOP)= -200.000  2 -1    87
             APW+lo

       K=   0.06250   0.00000   0.06250            1
:RKM  : MATRIX SIZE   407LOs:  40  RKM= 8.48  WEIGHT= 4.00  PGR:    
       EIGENVALUES ARE:
:EIG00001:      -1.9034544   -1.8810997   -0.6473424   -0.5426975   -0.5188463
:EIG00006:      -0.5093604   -0.4994822   -0.4994292    0.5048250    0.6249378
:EIG00011:       0.7253658    0.7283842    0.7285118    0.7316224    0.7373338
:EIG00016:       0.7515705    0.7564574    0.7568167    0.7601488    0.7631031
:EIG00021:       0.7686698    0.7719726    0.7721318    0.7805572    0.8073480
:EIG00026:       0.8236995    0.9121961    0.9212503    0.9685571    0.9925776
:EIG00031:       1.0062183    1.1164054    1.1580255    1.2128123    1.5161888
:EIG00036:       1.5470061    1.6017102    1.6255561    1.7842716    1.8412892
:EIG00041:       1.9402704    2.0365845    2.1339088    2.1505354    2.2758508
:EIG00046:       2.3033438    2.3211711    2.4193634    2.4567318    2.5701496
 
:EIG00051:       2.6221663    2.6814803    2.7017699    2.7965921    2.8390817
:EIG00056:       2.8994984    2.9175191    2.9951357    3.0664174    3.1523418
:EIG00061:       3.1924440    3.2436066    3.3722639    3.4013239    3.4387620
:EIG00066:       3.5598581    3.6034385    3.6802710    3.6877335    3.7072139
:EIG00071:       3.7120927    3.7697277    3.8105098    3.8999082    3.9127538
:EIG00076:       3.9636445    3.9697452    4.0267436    4.0553400    4.0808653
:EIG00081:       4.0912843    4.1381178    4.1528311    4.2393859    4.2681914
:EIG00086:       4.2916564    4.3748237    4.4122195    4.4502343    4.4515729
:EIG00091:       4.4894978    4.5427865    4.5493351    4.5859503    4.5982443
:EIG00096:       4.6271953    4.6826227    4.6946484    4.7238402    4.7877067
 
:EIG00101:       4.8774290    4.9954094    5.0225705    5.1053929    5.1126926
:EIG00106:       5.1264782    5.1837903    5.2343074    5.2502889    5.2739681
:EIG00111:       5.3716489    5.4190047    5.4760722    5.5471277    5.5711307
:EIG00116:       5.6207688    5.6555970    5.6652952    5.7293424    5.7718463
:EIG00121:       5.8005302    5.8319608    5.9134801    5.9198968    5.9837148
:EIG00126:       6.0700969    6.1362928    6.1458801    6.1518897    6.2304579
:EIG00131:       6.2584965    6.3146671    6.3181637    6.3294665    6.3873453
:EIG00136:       6.4697327    6.4819307    6.5253044    6.5485888    6.5775191
:EIG00141:       6.6104803    6.6490115    6.6832570    6.6862069    6.7555922
:EIG00146:       6.7700481    6.7885228    6.8516704    6.8817619    6.9037188
 
:EIG00151:       6.9587764    6.9858704    7.0376295    7.1163002    7.1857855
:EIG00156:       7.2721070    7.3610513    7.3616292    7.3799053    7.4816332
:EIG00161:       7.5387755    7.6106012    7.6225693    7.6585563    7.6832367
:EIG00166:       7.7093947    7.7137025    7.7249047    7.8029445    7.8868822
:EIG00171:       7.8899071    7.9296027    7.9595942    7.9870364    8.0545482
:EIG00176:       8.0621227    8.1116850    8.1266417    8.1718176    8.1980281
:EIG00181:       8.2245283
       ********************************************************

:KPT   :      NUMBER OF K-POINTS:   288
   0.0   0.0 angle (M,z), angle (M,x) deg
 
        SPIN-ORBIT EIGENVALUES:
     K=   0.06250   0.00000   0.06250            1
      MATRIX SIZE=  362   WEIGHT= 4.00
     EIGENVALUES ARE:
          -1.9034546   -1.9034546   -1.8810999   -1.8810999   -0.7208496
          -0.7208496   -0.6590730   -0.6590730   -0.5313119   -0.5313119
          -0.4482200   -0.4482200   -0.4448106   -0.4448106   -0.4329878
          -0.4329878    0.5048806    0.5048806    0.6248155    0.6248155
           0.7208101    0.7208101    0.7239538    0.7239538    0.7247074
           0.7247074    0.7276202    0.7276202    0.7326345    0.7326345
           0.7402297    0.7402297    0.7529236    0.7529236    0.7616063
           0.7616063    0.7666339    0.7666339    0.7674658    0.7674658

           0.7724899    0.7724900    0.7761163    0.7761163    0.7772867
           0.7772867    0.7850007    0.7850007    0.8085844    0.8085844
           0.8238791    0.8238791    0.9097648    0.9097648    0.9234186
           0.9234186    0.9688541    0.9688541    0.9928242    0.9928243
           1.0064506    1.0064506    1.1162862    1.1162862    1.1582965
           1.1582965    1.2129359    1.2129359    1.5164028    1.5164028
           1.5470591    1.5470591    1.6016763    1.6016763    1.6256173
           1.6256173    1.7839541    1.7839541    1.8407776    1.8407776

           1.9402774    1.9402774    2.0355782    2.0355782    2.1322997
           2.1322997    2.1515317    2.1515317    2.2761703    2.2761703
           2.3032356    2.3032356    2.3199193    2.3199193    2.4186242
           2.4186242    2.4579209    2.4579209    2.5700528    2.5700528
           2.6215383    2.6215383    2.6787560    2.6787560    2.7035028
           2.7035028    2.7965331    2.7965331    2.8401693    2.8401693
           2.8997189    2.8997189    2.9169570    2.9169570    2.9957284
           2.9957284    3.0670735    3.0670735    3.1522182    3.1522182

           3.1924988    3.1924988    3.2479500    3.2479500    3.3721278
           3.3721278    3.4013776    3.4013776    3.4389927    3.4389927
           3.5599048    3.5599048    3.6035467    3.6035467    3.6803492
           3.6803492    3.6873383    3.6873383    3.7072187    3.7072187
           3.7125069    3.7125069    3.7695707    3.7695707    3.8105837
           3.8105837    3.8986935    3.8986935    3.9141403    3.9141403
           3.9635189    3.9635189    3.9719877    3.9719877    4.0268518
           4.0268518    4.0557969    4.0557969    4.0809023    4.0809023

           4.0915386    4.0915386    4.1381826    4.1381826    4.1533315
           4.1533315    4.2394314    4.2394314    4.2682707    4.2682707
           4.2919014    4.2919014    4.3748258    4.3748258    4.4123838
           4.4123838    4.4500680    4.4500680    4.4518445    4.4518445
           4.4895376    4.4895376
       ********************************************************
:GAP (global)   :    0.0    Ry =     0.0   eV (metal)
:GAP (this spin):    0.0    Ry =     0.0   eV (metal)
         Bandranges (emin - emax) and occupancy:
:BAN00018:  18    0.498945    0.692389  1.00000000
:BAN00019:  19    0.606484    0.707181  1.00000000
:BAN00020:  20    0.606484    0.707181  1.00000000
:BAN00021:  21    0.648431    0.727760  1.00000000
:BAN00022:  22    0.648431    0.727760  1.00000000
:BAN00023:  23    0.698355    0.730912  0.99933814
:BAN00024:  24    0.698355    0.730912  0.99933813
:BAN00025:  25    0.711315    0.739327  0.75590409
:BAN00026:  26    0.711315    0.739327  0.75590378
:BAN00027:  27    0.726171    0.740917  0.24475801
:BAN00028:  28    0.726171    0.740917  0.24475785
:BAN00029:  29    0.731884    0.743310  0.00000000
:BAN00030:  30    0.731884    0.743310  0.00000000
:BAN00031:  31    0.736332    0.750984  0.00000000
:BAN00032:  32    0.736332    0.750984  0.00000000
:BAN00033:  33    0.742900    0.758551  0.00000000
        Energy to separate low and high energystates:    0.44895


:NOE  : NUMBER OF ELECTRONS          =   26.000

:FER  : F E R M I - ENERGY(TETRAH.M.)=   0.7304864131
:GMA  : POTENTIAL AND CHARGE CUT-OFF  12.00 Ry**.5

:POS001: ATOM   -1 X,Y,Z = 0.00000 0.89750 0.25000  MULT= 2  ZZ= 59.000  Pr1       

       LMMAX 16
       LM=   0 0  1 0  2 0  2 2  3 0  3 2  4 0  4 2  4 4  5 0  5 2  5 4  6 0  6 2  6 4  6 6

:CHA001: TOTAL VALENCE CHARGE INSIDE SPHERE   1 =   9.5601    (RMT=  2.3000 )
:PCS001: PARTIAL CHARGES SPHERE =  1 S,P,D,F,PX,PY,PZ,D-Z2,D-X2Y2,D-XY,D-XZ,D-YZ 
:QTL001: 1.9419 5.0023 0.5854 2.0300 1.6647 1.6639 1.6738 0.1104 0.1053 0.1251 0.1163 0.1282
        Q-s-low E-s-low   Q-p-low E-p-low   Q-d-low E-d-low   Q-f-low E-f-low
:EPL001:  1.8689 -1.8807    4.9310 -0.5670    0.0034 -0.5677    0.0010 -0.5809
        Q-s-hi  E-s-hi    Q-p-hi  E-p-hi    Q-d-hi  E-d-hi    Q-f-hi  E-f-hi 
:EPH001:  0.0730  0.6342    0.0714  0.6707    0.5820  0.6737    2.0291  0.7140

                      VXX         VYY         VZZ       UP TO R
:VZZ001:             3.71452     4.94997    -8.66449       2.300

:CHA  : TOTAL VALENCE CHARGE INSIDE UNIT CELL =      26.000000

:SUM  : SUM OF EIGENVALUES =          -7.460826961


[...]
:PTO009:     -1    1   -2 -7.46905255E-02 -3.433E-06 -3.479E-06
:PTO011:     -1    3    0 -1.19233092E-02 -5.117E-07 -6.225E-07
:PTO012:     -1    3   -1 -5.28238177E-02 -1.980E-06 -1.943E-06
:PTO013:      0    4    0 -9.50244718E-03 -3.205E-07 -3.213E-07
:PTO014:      0    2   -3  2.19072169E-02  7.850E-07  8.457E-07

:ENE  : ********** TOTAL ENERGY IN Ry =       -36944.26902907

       TOTAL FORCE IN mRy/a.u. = |F|     Fx             Fy             Fz     with/without FOR in case.in2
:FOR001:   1.ATOM         24.527          0.000          0.000        -24.527 partial forces
       TOTAL FORCE WITH RESPECT TO GLOBAL CARTESIAN COORDINATES:
:FCA001:   1.ATOM                         0.000        -24.527          0.000 partial forces
       TOTAL FORCE WITH RESPECT TO THE GLOBAL COORDINATE SYSTEM:
:FGL001:   1.ATOM                 0.000000000   -24.526724521     0.000000000 partial forces
 Flat Integration
 New Mode for Coulomb Integral
 Consistent 3/8+Simpson combinations
 Extension of core to zero
 LDM version in phi
 Fifth-order quadrature in outwin


            ---------
:ITE022: 22. ITERATION
            ---------

:NATO :    1 INDEPENDENT AND    2 TOTAL ATOMS IN UNITCELL
       SUBSTANCE: aU                                                          

       LATTICE                      = CXY 
:POT  : POTENTIAL OPTION EX_LDA EC_LDA VX_LDA VC_LDA
:LAT  : LATTICE CONSTANTS=  6.18760 12.55620 10.84003    1.571    1.571    1.571
:VOL  : UNIT CELL VOLUME =     421.09601
       MODE OF CALCULATION IS       = RELA
       NON-SPINPOLARIZED CALCULATION
:IFFT  : FFT-parameters:   48   96   90 Factor: 2.00


   CONVERGENCE PARAMETER FOR PSEUDOCHARGE: NCON=  9
   MAXIMAL VALUE OF RMT(JATOM)*ABSK(NKK) : RK  =27.59478


:VKCOUL :  VK-COUL convergence: 0.106E-06
       ATOMNUMBER=  1 Pr1        VCOUL-ZERO =  0.18767E+00
:EFG001:                        EFG         =    -8.71303   *10**21  V / m**2
                               V20  TOT/SRF=    -7.54571    -0.03457
                               V22  TOT/SRF=    -0.63147    -0.00162
                               V22M TOT/SRF=     0.00000     0.00000
                               V21  TOT/SRF=     0.00000     0.00000
                               V21M TOT/SRF=     0.00000     0.00000

              3.72505    0.00000    0.00000        3.72505    0.00000    0.00000
              0.00000    4.98798    0.00000        0.00000    4.98798    0.00000
              0.00000    0.00000   -8.71303        0.00000    0.00000   -8.71303

         MAIN DIRECTIONS OF THE EFG   1.0000  0.0000  0.0000
                                      0.0000  1.0000  0.0000
                                      0.0000  0.0000  1.0000
:ANG001:  ANGLE WITH OLD X-AXIS =         0.0

:ETA001:                         ASYMM. ETA =     0.14495


     HELLMANN-FEYNMAN-FORCE IN mRy/a.u. = |F|  Fx       Fy             Fz
:FHF001:   1.ATOM   1507.757470082142      0.000000000000      0.000000000000  -1507.757470082142

:FIT001: LUSE= 13 SIGMA OF V-XC FIT FOR ATOM  1  0.5089561E-04
:FIT001: LUSE= 13 SIGMA OF V-XC FIT FOR ATOM  1  0.5089561E-04
:DEN  : DENSITY INTEGRAL  =        -14161.47450178   (Ry)
       ELS_POTENTIAL_AT Z=0 and Z=0.5:   0.78125   0.78125
       ELS_POTENTIAL_AT Y=0 and Y=0.5:   0.05882   0.05882
:VZERO:v0,v0c,v0x   0.17050   0.78125  -0.61075 v5,v5c,v5x   0.17050   0.78125  -0.61075
:VZERY:v0,v0c,v0x  -0.75671   0.05882  -0.81552 v5,v5c,v5x  -0.75671   0.05882  -0.81552
:VZERX:v0,v0c,v0x  -1.15942  -0.38366  -0.77576 v5,v5c,v5x  -1.15942  -0.38366  -0.77576
:LMAX-WF:   10   Non-Spherical LMAX:   4

          ATOMIC SPHERE DEPENDENT PARAMETERS FOR ATOM  Pr1       
:e__0001: OVERALL ENERGY PARAMETER IS    0.5308
          OVERALL BASIS SET ON ATOM IS LAPW
:E0_0001: E( 0)=    0.5308
             APW+lo
:E0_0001: E( 0)=   -1.9228   E(BOTTOM)=   -2.558   E(TOP)=   -1.287  4  5   186
             LOCAL ORBITAL
:E1_0001: E( 1)=    0.9308
             APW+lo
:E1_0001: E( 1)=   -0.4528   E(BOTTOM)=   -1.411   E(TOP)=    0.505  3  4   198
             LOCAL ORBITAL
:E3_0001: E( 3)=    0.7265   E(BOTTOM)=    0.520   E(TOP)=    0.934  0  1   117
             APW+lo
:E2_0001: E( 2)=    0.5308   E(BOTTOM)=    0.330   E(TOP)= -200.000  2 -1    88
             APW+lo

       K=   0.06250   0.00000   0.06250            1
:RKM  : MATRIX SIZE   407LOs:  40  RKM= 8.48  WEIGHT= 4.00  PGR:    
       EIGENVALUES ARE:
:EIG00001:      -1.9032007   -1.8808488   -0.6470645   -0.5424352   -0.5185851
:EIG00006:      -0.5091046   -0.4992249   -0.4991750    0.5052481    0.6253124
:EIG00011:       0.7256956    0.7287014    0.7288594    0.7319752    0.7376754
:EIG00016:       0.7519349    0.7568161    0.7571774    0.7605078    0.7634210
:EIG00021:       0.7690245    0.7723178    0.7724811    0.7808955    0.8076800
:EIG00026:       0.8240466    0.9125459    0.9215786    0.9689109    0.9929280
:EIG00031:       1.0065489    1.1167669    1.1583611    1.2131208    1.5166239
:EIG00036:       1.5473802    1.6021217    1.6259523    1.7847381    1.8417414
:EIG00041:       1.9406625    2.0369950    2.1343126    2.1509369    2.2762348
:EIG00046:       2.3037392    2.3215984    2.4197563    2.4571496    2.5705481
 
:EIG00051:       2.6225262    2.6818368    2.7021354    2.7969679    2.8394227
:EIG00056:       2.8998607    2.9178912    2.9954572    3.0667956    3.1527001
:EIG00061:       3.1928389    3.2439578    3.3726203    3.4017251    3.4391372
:EIG00066:       3.5602243    3.6038314    3.6806475    3.6881212    3.7076124
:EIG00071:       3.7124865    3.7700941    3.8108917    3.9002972    3.9131600
:EIG00076:       3.9640221    3.9701720    4.0271222    4.0557400    4.0812603
:EIG00081:       4.0916500    4.1385066    4.1532202    4.2397709    4.2685957
:EIG00086:       4.2920244    4.3752694    4.4126249    4.4506417    4.4519462
:EIG00091:       4.4899066    4.5431927    4.5497147    4.5863216    4.5986249
:EIG00096:       4.6276090    4.6830167    4.6950446    4.7242261    4.7881069
 
:EIG00101:       4.8778148    4.9958010    5.0229515    5.1057903    5.1130988
:EIG00106:       5.1268800    5.1841951    5.2347070    5.2506678    5.2743718
:EIG00111:       5.3720619    5.4194172    5.4764359    5.5474969    5.5715137
:EIG00116:       5.6211512    5.6559786    5.6656772    5.7296981    5.7722081
:EIG00121:       5.8008929    5.8323695    5.9138618    5.9202993    5.9840842
:EIG00126:       6.0705020    6.1366879    6.1462465    6.1522677    6.2308505
:EIG00131:       6.2588786    6.3150571    6.3185528    6.3298227    6.3877098
:EIG00136:       6.4701398    6.4823156    6.5257096    6.5489700    6.5779111
:EIG00141:       6.6108526    6.6493893    6.6836394    6.6865730    6.7559831
:EIG00146:       6.7704555    6.7888928    6.8520551    6.8820562    6.9041095
 
:EIG00151:       6.9591818    6.9862544    7.0380300    7.1166940    7.1861866
:EIG00156:       7.2724864    7.3614421    7.3620127    7.3802868    7.4820170
:EIG00161:       7.5391508    7.6109872    7.6229318    7.6589455    7.6835905
:EIG00166:       7.7097799    7.7140790    7.7252683    7.8033199    7.8872415
:EIG00171:       7.8902695    7.9299620    7.9599507    7.9873742    8.0549018
:EIG00176:       8.0624668    8.1120398    8.1269903    8.1721865    8.1984097
:EIG00181:       8.2249249
       ********************************************************

:KPT   :      NUMBER OF K-POINTS:   288
   0.0   0.0 angle (M,z), angle (M,x) deg
 
        SPIN-ORBIT EIGENVALUES:
     K=   0.06250   0.00000   0.06250            1
      MATRIX SIZE=  362   WEIGHT= 4.00
     EIGENVALUES ARE:
          -1.9032009   -1.9032009   -1.8808490   -1.8808490   -0.7205830
          -0.7205830   -0.6588179   -0.6588179   -0.5310425   -0.5310425
          -0.4479614   -0.4479614   -0.4445503   -0.4445503   -0.4327290
          -0.4327290    0.5053037    0.5053037    0.6251901    0.6251901
           0.7211462    0.7211462    0.7242795    0.7242795    0.7250458
           0.7250458    0.7279700    0.7279700    0.7329792    0.7329792
           0.7405901    0.7405901    0.7532715    0.7532716    0.7619632
           0.7619632    0.7669855    0.7669855    0.7678043    0.7678044

           0.7728412    0.7728412    0.7764614    0.7764614    0.7776371
           0.7776371    0.7853406    0.7853406    0.8089170    0.8089170
           0.8242258    0.8242259    0.9101074    0.9101074    0.9237536
           0.9237536    0.9692079    0.9692079    0.9931739    0.9931740
           1.0067818    1.0067818    1.1166475    1.1166475    1.1586323
           1.1586323    1.2132445    1.2132445    1.5168377    1.5168377
           1.5474334    1.5474334    1.6020880    1.6020880    1.6260135
           1.6260135    1.7844206    1.7844206    1.8412297    1.8412297

           1.9406696    1.9406696    2.0359885    2.0359885    2.1327029
           2.1327029    2.1519336    2.1519336    2.2765545    2.2765545
           2.3036312    2.3036312    2.3203455    2.3203455    2.4190186
           2.4190186    2.4583374    2.4583374    2.5704507    2.5704507
           2.6218990    2.6218990    2.6791140    2.6791140    2.7038673
           2.7038673    2.7969087    2.7969087    2.8405111    2.8405111
           2.9000815    2.9000815    2.9173285    2.9173285    2.9960504
           2.9960504    3.0674515    3.0674515    3.1525762    3.1525762

           3.1928933    3.1928933    3.2483016    3.2483016    3.3724843
           3.3724843    3.4017788    3.4017788    3.4393679    3.4393679
           3.5602710    3.5602710    3.6039397    3.6039397    3.6807262
           3.6807262    3.6877258    3.6877258    3.7076175    3.7076175
           3.7129002    3.7129002    3.7699371    3.7699371    3.8109656
           3.8109656    3.8990844    3.8990844    3.9145445    3.9145445
           3.9638985    3.9638985    3.9724121    3.9724121    4.0272305
           4.0272305    4.0561967    4.0561967    4.0812973    4.0812973

           4.0919047    4.0919047    4.1385713    4.1385713    4.1537205
           4.1537205    4.2398164    4.2398164    4.2686750    4.2686750
           4.2922695    4.2922695    4.3752715    4.3752715    4.4127892
           4.4127892    4.4504711    4.4504711    4.4522220    4.4522220
           4.4899465    4.4899465
       ********************************************************
:GAP (global)   :    0.0    Ry =     0.0   eV (metal)
:GAP (this spin):    0.0    Ry =     0.0   eV (metal)
         Bandranges (emin - emax) and occupancy:
:BAN00018:  18    0.499370    0.692772  1.00000000
:BAN00019:  19    0.606881    0.707546  1.00000000
:BAN00020:  20    0.606881    0.707546  1.00000000
:BAN00021:  21    0.648808    0.728097  1.00000000
:BAN00022:  22    0.648808    0.728097  1.00000000
:BAN00023:  23    0.698716    0.731268  0.99931662
:BAN00024:  24    0.698716    0.731268  0.99931661
:BAN00025:  25    0.711666    0.739659  0.75572761
:BAN00026:  26    0.711666    0.739659  0.75572730
:BAN00027:  27    0.726523    0.741253  0.24495601
:BAN00028:  28    0.726523    0.741253  0.24495585
:BAN00029:  29    0.732230    0.743657  0.00000000
:BAN00030:  30    0.732230    0.743657  0.00000000
:BAN00031:  31    0.736679    0.751334  0.00000000
:BAN00032:  32    0.736679    0.751334  0.00000000
:BAN00033:  33    0.743251    0.758903  0.00000000
        Energy to separate low and high energystates:    0.44937


:NOE  : NUMBER OF ELECTRONS          =   26.000

:FER  : F E R M I - ENERGY(TETRAH.M.)=   0.7308301775
:GMA  : POTENTIAL AND CHARGE CUT-OFF  12.00 Ry**.5

:POS001: ATOM   -1 X,Y,Z = 0.00000 0.89750 0.25000  MULT= 2  ZZ= 59.000  Pr1       

       LMMAX 16
       LM=   0 0  1 0  2 0  2 2  3 0  3 2  4 0  4 2  4 4  5 0  5 2  5 4  6 0  6 2  6 4  6 6

:CHA001: TOTAL VALENCE CHARGE INSIDE SPHERE   1 =   9.5607    (RMT=  2.3000 )
:PCS001: PARTIAL CHARGES SPHERE =  1 S,P,D,F,PX,PY,PZ,D-Z2,D-X2Y2,D-XY,D-XZ,D-YZ 
:QTL001: 1.9419 5.0024 0.5854 2.0305 1.6647 1.6639 1.6738 0.1104 0.1054 0.1251 0.1163 0.1282
        Q-s-low E-s-low   Q-p-low E-p-low   Q-d-low E-d-low   Q-f-low E-f-low
:EPL001:  1.8689 -1.8805    4.9311 -0.5668    0.0034 -0.5675    0.0010 -0.5807
        Q-s-hi  E-s-hi    Q-p-hi  E-p-hi    Q-d-hi  E-d-hi    Q-f-hi  E-f-hi 
:EPH001:  0.0730  0.6346    0.0713  0.6711    0.5820  0.6741    2.0296  0.7143

                      VXX         VYY         VZZ       UP TO R
:VZZ001:             3.70418     4.96780    -8.67198       2.300

:CHA  : TOTAL VALENCE CHARGE INSIDE UNIT CELL =      26.000000

:SUM  : SUM OF EIGENVALUES =          -7.452947859


        1.ATOM      Pr1                  14 CORE STATES
       CORE-FORCE in mRy/a.u. = |F|      Fx             Fy             Fz
:FCO001:   1.ATOM   1483.189528852705      0.000000000000      0.000000000000   1483.189528852705

:1S 001: 1S               -3066.865929744 Ry
:2S 001: 2S                -492.618659050 Ry
:2PP001: 2P*               -465.717723567 Ry
:2P 001: 2P                -430.320254847 Ry
:3S 001: 3S                -105.709752081 Ry
:3PP001: 3P*                -94.247576268 Ry
:3P 001: 3P                 -87.239713457 Ry
:3DD001: 3D*                -67.166632817 Ry
:3D 001: 3D                 -65.655074915 Ry
:4S 001: 4S                 -20.383126780 Ry
:4PP001: 4P*                -16.089627418 Ry
:4P 001: 4P                 -14.561799235 Ry
:4DD001: 4D*                 -7.493925996 Ry
:4D 001: 4D                  -7.224374176 Ry
:CINT001 Core Integral Atom   1   45.998496

       DENSITY AT NUCLEUS
        JATOM        VALENCE       SEMI-CORE          CORE           TOTAL
:RTO001:   1      648.941974        0.000000   656825.381457   657474.323431
     
       CHARGES OF NEW CHARGE DENSITY
:NTO   : INTERSTITIAL CHARGE =     6.878650
:NPC   : PW Pseudocharge     =    17.058250
:NTO001: CHARGE SPHERE  1    =    55.559170

:NEC01: NUCLEAR AND ELECTRONIC CHARGE    118.00000   117.99699
     
       CHARGES OF OLD CHARGE DENSITY
:OTO   : INTERSTITIAL CHARGE =     6.881631
:OPC   : PW Pseudocharge     =    17.065679
:OTO001: CHARGE SPHERE  1    =    55.559184

:NEC02: NUCLEAR AND ELECTRONIC CHARGE    118.00000   118.00000
     
       CONVERGENCE TEST
:DTO001: DIFFERENCE IN SPHERE  1 =  0.0000275

:DIS  :  CHARGE DISTANCE       ( 0.0000275 for atom    1 spin 1)      0.0000275
 PW Mixed is          446
 
******************************************************
* MULTISECANT MIXING VER9 RELEASE 10.4.0              *
* Standard Mode with controls                        *
* Fixed density scale                                *
* Regularization       1.000E-04                     *
* Trust Upper Limit    5.000E+00                     *
* Max Number of Memory Steps    8                    *
******************************************************
 
:PWTMP   3.1917E+02  1.9467E+02  4.2110E+02
:PLANE:  PW TOTAL      4.9911 DISTAN   1.13E-05  2.27E-04 %
:CHARG:  CLM/ATOM   1381.9504 DISTAN   4.96E-05  3.59E-06 %
 
Step History
        DMIX         DMIXT        Red     Pred      Trust     Lambda    MagRel    MagAbs     Beta
  2   2.5000E-02   2.5000E-02  6.87E-01  1.00E+00 -1.00E+01  1.00E+00  2.50E-02  4.85E-03  1.00E+00
  3   2.8009E-02   2.8009E-02  4.27E-01  1.00E+00 -1.00E+01  2.33E+00  2.80E-02  3.73E-03  1.00E+00
  4   4.3510E-02   4.3510E-02  9.43E-01  9.99E-01  3.34E-01  1.26E+00  4.44E-02  2.53E-03  8.72E-01
  5   1.0878E-01   1.0031E-01  5.54E-01  6.99E-01  4.17E-01  1.05E+00  4.17E-01  2.24E-02  1.00E+00
  6   2.3554E-01   2.2695E-01  2.47E-01  3.14E-01  7.56E-01  9.37E-01  7.56E-01  2.24E-02  1.00E+00
  7   1.9769E-01   1.9769E-01  3.86E-01  6.12E-01  1.57E+00  1.41E+00  7.82E-01  5.75E-03  1.00E+00
  8   2.5936E-01   2.5936E-01  4.03E-01  4.33E-01  2.65E+00  1.72E+00  5.23E-01  1.48E-03  1.00E+00
  9   2.4406E-01   2.4406E-01  4.73E-01  5.07E-01  4.83E+00  1.77E+00  3.47E-01  3.97E-04  1.00E+00
 10   3.5000E-01   3.5000E-01 -1.00E+00  1.65E-01  6.44E+00  1.00E+00  5.67E-01  3.07E-04  1.00E+00
:JACOBIANS    5.178E-01   2.021E+00
  
:NORMS:  1/Froebius, Min, Max, Used   0.7883E+00  0.4451E+00  0.9892E+00  0.9711E+00
:INFO :  Number of Memory Steps    8 Skipping    1
:INFO :  SLambda=    1.6137731824  Max    1.6137731824
:PREDicted Charge, CTotal, PW Trust    4.819E-06   9.637E-06   4.108E-04
:PREDicted DMix, Beta, BLim   1.2515E-01  1.0198E+00  1.0510E+01

Eigenvalues, unscaled except for SY+YY
   #     SY Real        SY Imag          SS             YY         SY+YY Real      SY+YY Imag
   1   3.811608E+00   0.000000E+00   3.721308E+00   3.946160E+00   1.008903E+01   0.000000E+00
   2   1.363264E+00   0.000000E+00   1.067130E+00   2.774769E+00   4.877068E+00   0.000000E+00
   3   3.128000E-01   0.000000E+00   1.711423E-01   6.575880E-01   1.162577E+00   0.000000E+00
   4   3.745019E-02   0.000000E+00   6.841766E-03   3.452417E-01   4.535689E-01   0.000000E+00
   5   4.688182E-02   0.000000E+00   3.560566E-03   2.465978E-01   3.796703E-01   0.000000E+00
   6   5.018934E-03   0.000000E+00   8.355549E-04   2.948993E-02   3.798260E-02   0.000000E+00
   7   8.807636E-09   0.000000E+00   2.077804E-05   1.544628E-04   3.609266E-08   0.000000E+00
   8   5.548227E-05   0.000000E+00   4.533637E-09   2.204879E-08   2.453542E-04   0.000000E+00
 
:INFO :  Singular value  1.009E+01 Weight  1.000E+00 Projection -1.069E-07
:INFO :  Singular value  4.880E+00 Weight  1.000E+00 Projection  1.571E-05
:INFO :  Singular value  1.163E+00 Weight  1.000E+00 Projection  3.106E-05
:INFO :  Singular value  4.534E-01 Weight  1.000E+00 Projection  1.539E-05
:INFO :  Singular value  3.794E-01 Weight  1.000E+00 Projection  2.353E-05
:INFO :  Singular value  3.798E-02 Weight  9.999E-01 Projection  6.613E-05
:INFO :  Singular value  2.454E-04 Weight  2.788E-01 Projection -1.229E-04
:INFO :  Singular value  3.609E-08 Weight  8.365E-09 Projection -7.137E-10
:RANK :  ACTIVE   6.28/8  =  78.48 % ; YY RANK   6.13/8  =  76.66 %
 
:BLIM :  VZERO Control Off
:TRUST:  Step 8.58E+00  Charge 3.07E-02 (e) CTO  1.02E-01 (e) PW  1.43E-01 (e)
:DIRM :  MEMORY  8/8  SCALE   1.000 RED  0.09 PRED  0.16 NEXT  0.42 
:TRAVE:  Charge 4.29E-05 (e) CTO  8.57E-05 (e) PW  4.73E-04 (e)
:DIRP :  |MSR1|= 7.395E-06 |PRATT|= 1.135E-05 ANGLE=  29.2 DEGREES
:DIRQ :  |MSR1|= 1.026E-05 |PRATT|= 4.959E-05 ANGLE=  38.2 DEGREES
:DIRT :  |MSR1|= 1.265E-05 |PRATT|= 5.087E-05 ANGLE=  42.7 DEGREES
:MIX  :   MSE1   REGULARIZATION:  3.95E-04 GREED: 0.20779  Newton 1.00  0.2486                
     
       CHARGES OF MIXED CHARGE DENSITY
:CTO   : INTERSTITIAL CHARGE =     6.881632
:CPC   : PW Pseudocharge     =    17.065705
:CTO001: CHARGE SPHERE  1    =    55.559184

:NEC03: NUCLEAR AND ELECTRONIC CHARGE    118.00000   118.00000

PW CHANGE     H    K    L      Current       Change    Residue
:PTO001:      0    0    0  5.68690666E-02  6.283E-08  1.454E-07
:PTO003:      0    2    0  1.51562467E-02  1.745E-08 -7.544E-09
:PTO004:     -1    1    0  7.38473346E-02  1.218E-07  1.435E-07
:PTO005:      0    2   -1 -8.55447140E-02 -1.242E-07 -1.121E-07
:PTO006:      0    0   -2 -4.43042779E-02 -7.612E-08 -1.086E-07
:PTO007:     -1    1   -1 -9.18475075E-02 -1.572E-07 -1.961E-07
:PTO008:      0    2   -2 -1.45979432E-02 -3.462E-08 -6.364E-08
:PTO009:     -1    1   -2 -7.46906218E-02 -9.632E-08 -5.606E-08
:PTO011:     -1    3    0 -1.19233134E-02 -4.181E-09  2.078E-08
:PTO012:     -1    3   -1 -5.28238571E-02 -3.939E-08  3.959E-08
:PTO013:      0    4    0 -9.50245379E-03 -6.603E-09  4.868E-09
:PTO014:      0    2   -3  2.19072417E-02  2.479E-08  4.034E-08

:ENE  : ********** TOTAL ENERGY IN Ry =       -36944.26902918

       TOTAL FORCE IN mRy/a.u. = |F|     Fx             Fy             Fz     with/without FOR in case.in2
:FOR001:   1.ATOM         24.568          0.000          0.000        -24.568 partial forces
       TOTAL FORCE WITH RESPECT TO GLOBAL CARTESIAN COORDINATES:
:FCA001:   1.ATOM                         0.000        -24.568          0.000 partial forces
       TOTAL FORCE WITH RESPECT TO THE GLOBAL COORDINATE SYSTEM:
:FGL001:   1.ATOM                 0.000000000   -24.567941229     0.000000000 partial forces
