
:LABEL1: Calculations in /home/ykent/GWIEN/example/Pr/V10/case
:LABEL2: on didymium-2.cmpgroup.ameslab.gov at Wed Jul  8 16:40:34 CDT 2020
:LABEL3: using WIEN2k_19.1 (Release 25/6/2019) in /home/ykent/opt/src/WIEN2k_19.1
:LABEL4: using the command: run_lapw -so -i 70 -cc 0.0001
 Flat Integration
 New Mode for Coulomb Integral
 Consistent 3/8+Simpson combinations
 Extension of core to zero
 LDM version in phi
 Fifth-order quadrature in outwin


            ---------
:ITE014: 14. ITERATION
            ---------

:NATO :    1 INDEPENDENT AND    1 TOTAL ATOMS IN UNITCELL
       SUBSTANCE: blebleble                                                   

       LATTICE                      = F   
:POT  : POTENTIAL OPTION EX_LDA EC_LDA VX_LDA VC_LDA
:LAT  : LATTICE CONSTANTS=  9.61244  9.61244  9.61244    1.571    1.571    1.571
:VOL  : UNIT CELL VOLUME =     222.04511
       MODE OF CALCULATION IS       = RELA
       NON-SPINPOLARIZED CALCULATION
:IFFT  : FFT-parameters:   80   80   80 Factor: 2.00


   CONVERGENCE PARAMETER FOR PSEUDOCHARGE: NCON=  9
   MAXIMAL VALUE OF RMT(JATOM)*ABSK(NKK) : RK  =29.95407


:VKCOUL :  VK-COUL convergence: 0.101E-06
       ATOMNUMBER=  1 Pr         VCOUL-ZERO =  0.31185E+00
:FIT001: LUSE= 13 SIGMA OF V-XC FIT FOR ATOM  1  0.4863015E-04
:FIT001: LUSE= 13 SIGMA OF V-XC FIT FOR ATOM  1  0.4863015E-04
:DEN  : DENSITY INTEGRAL  =         -7074.65109771   (Ry)
       ELS_POTENTIAL_AT Z=0 and Z=0.5:  -2.56747  -2.56747
       ELS_POTENTIAL_AT Y=0 and Y=0.5:   0.00000   0.00000
:VZERO:v0,v0c,v0x  -3.56104  -2.56747  -0.99357 v5,v5c,v5x  -3.56104  -2.56747  -0.99357
:VZERY:v0,v0c,v0x  -0.73677   0.00000  -0.73677 v5,v5c,v5x  -0.73677   0.00000  -0.73677
:VZERX:v0,v0c,v0x  -0.73677   0.00000  -0.73677 v5,v5c,v5x  -0.73677   0.00000  -0.73677
:LMAX-WF:   10   Non-Spherical LMAX:   4

          ATOMIC SPHERE DEPENDENT PARAMETERS FOR ATOM  Pr        
:e__0001: OVERALL ENERGY PARAMETER IS    0.4390
          OVERALL BASIS SET ON ATOM IS LAPW
:E0_0001: E( 0)=    0.4390
             APW+lo
:E0_0001: E( 0)=   -2.0310   E(BOTTOM)=   -2.411   E(TOP)=   -1.651  4  5   180
             LOCAL ORBITAL
:E1_0001: E( 1)=    0.8390
             APW+lo
:E1_0001: E( 1)=   -0.6421   E(BOTTOM)=   -1.288   E(TOP)=    0.004  3  4   177
             LOCAL ORBITAL
:E3_0001: E( 3)=    0.6314   E(BOTTOM)=    0.491   E(TOP)=    0.771  0  1   118
             APW+lo
:E2_0001: E( 2)=    0.4390   E(BOTTOM)=    0.288   E(TOP)= -200.000  2 -1    89
             APW+lo

       K=   0.00000   0.00000   0.00000            1
:RKM  : MATRIX SIZE   189LOs:  20  RKM= 8.49  WEIGHT= 1.00  PGR:    
       EIGENVALUES ARE:
:EIG00001:      -1.9967922   -0.6144136   -0.6144136   -0.6144136    0.3897315
:EIG00006:       0.6224100    0.6436198    0.6436198    0.6436198    0.6721141
:EIG00011:       0.6721141    0.6721141    0.7745196    0.7745196    0.7745196
:EIG00016:       0.9645872    0.9645872    1.3747613    1.6191593    1.6191593
:EIG00021:       1.6191593    1.7218823    2.4947583    2.4947583    2.4947583
:EIG00026:       2.6053414    2.6053414    2.6053414    2.7793140    2.7793140
:EIG00031:       3.2078724    3.3607165    3.3607165    3.3607165    3.8204709
:EIG00036:       3.8204709    4.0552342    4.0552342    4.0552342    4.1162845
:EIG00041:       4.1162845    4.1162845    4.1927059    4.1927059    4.1927059
:EIG00046:       4.5046164    4.5046164    4.5046164    4.5845852    4.6102207
 
:EIG00051:       4.6102207    4.7584210    4.7584210    4.7584210    4.7737474
:EIG00056:       4.7737474    4.7737474    4.8809575    4.8858775    4.9874059
:EIG00061:       4.9874059    4.9874059    5.2130679    5.2130679    5.2130679
:EIG00066:       5.5769947    6.4885906    6.5104836    6.5104836    6.9236327
:EIG00071:       6.9236327    6.9236327    7.4796955    7.4796955    7.6451358
:EIG00076:       7.6451358    7.6451358    7.6926177    7.6926177    7.6926177
:EIG00081:       7.8943153    7.8943153    7.8943153    7.9028697    7.9028697
:EIG00086:       8.0428821    8.0428821    8.0428821    8.1171595    8.1171595
:EIG00091:       8.1171595    8.1325624    8.1325624    8.1325624
       ********************************************************

:KPT   :      NUMBER OF K-POINTS:   165
   0.0   0.0 angle (M,z), angle (M,x) deg
 
        SPIN-ORBIT EIGENVALUES:
     K=   0.00000   0.00000   0.00000            1
      MATRIX SIZE=  188   WEIGHT= 1.00
     EIGENVALUES ARE:
          -1.9967922   -1.9967922   -0.7636278   -0.7636278   -0.5444085
          -0.5444085   -0.5444085   -0.5444085    0.3897315    0.3897315
           0.6186482    0.6186482    0.6332093    0.6332093    0.6332093
           0.6332093    0.6552777    0.6552777    0.6715770    0.6715770
           0.6787518    0.6787518    0.6787518    0.6787518    0.7706367
           0.7706367    0.7706367    0.7706367    0.7811709    0.7811709
           0.9649546    0.9649546    0.9649546    0.9649546    1.3748190
           1.3748190    1.6145787    1.6145787    1.6212942    1.6212942

           1.6212942    1.6212942    1.7218823    1.7218823    2.4896276
           2.4896276    2.4896276    2.4896276    2.5045111    2.5045111
           2.5285738    2.5285738    2.6445330    2.6445330    2.6445330
           2.6445330    2.7796069    2.7796069    2.7796069    2.7796069
           3.2078724    3.2078724    3.3603010    3.3603010    3.3609362
           3.3609362    3.3609362    3.3609362    3.8204363    3.8204363
           3.8204363    3.8204363    4.0538140    4.0538140    4.0538140
           4.0538140    4.0583681    4.0583681    4.0807985    4.0807985

           4.1358279    4.1358279    4.1358279    4.1358279    4.1926958
           4.1926958    4.1927110    4.1927110    4.1927110    4.1927110

       ********************************************************
:GAP (global)   :    0.0    Ry =     0.0   eV (metal)
:GAP (this spin):    0.0    Ry =     0.0   eV (metal)
         Bandranges (emin - emax) and occupancy:
:BAN00004:   4   -0.813964   -0.763628  1.00000000
:BAN00005:   5   -0.628107   -0.544409  1.00000000
:BAN00006:   6   -0.628107   -0.544409  1.00000000
:BAN00007:   7   -0.598995   -0.544408  1.00000000
:BAN00008:   8   -0.598995   -0.544408  1.00000000
:BAN00009:   9    0.389731    0.604491  1.00000000
:BAN00010:  10    0.389731    0.604491  1.00000000
:BAN00011:  11    0.549261    0.631626  1.00000000
:BAN00012:  12    0.549261    0.631626  1.00000000
:BAN00013:  13    0.618989    0.638590  0.50000006
:BAN00014:  14    0.618989    0.638590  0.49999994
:BAN00015:  15    0.633209    0.645734  0.00000000
:BAN00016:  16    0.633209    0.645734  0.00000000
:BAN00017:  17    0.639473    0.663521  0.00000000
:BAN00018:  18    0.639473    0.663521  0.00000000
:BAN00019:  19    0.658678    0.671577  0.00000000
        Energy to separate low and high energystates:    0.33973


:NOE  : NUMBER OF ELECTRONS          =   13.000

:FER  : F E R M I - ENERGY(TETRAH.M.)=   0.6329755249
:GMA  : POTENTIAL AND CHARGE CUT-OFF  12.00 Ry**.5

:POS001: ATOM    1 X,Y,Z = 0.00000 0.00000 0.50000  MULT= 1  ZZ= 59.000  Pr        

       LMMAX  5
       LM=   0 0  4 0  4 4  6 0  6 4

:CHA001: TOTAL VALENCE CHARGE INSIDE SPHERE   1 =  10.2142    (RMT=  2.5000 )
:PCS001: PARTIAL CHARGES SPHERE =  1 S,P,D,F,      D-EG,D-T2G 
:QTL001: 2.0324 5.3405 0.6403 2.2005 0.0000 0.0000 0.0000 0.2328 0.4075 0.0000 0.0000 0.0000
        Q-s-low E-s-low   Q-p-low E-p-low   Q-d-low E-d-low   Q-f-low E-f-low
:EPL001:  1.9257 -1.9813    5.2735 -0.6642    0.0022 -0.6530    0.0006 -0.6531
        Q-s-hi  E-s-hi    Q-p-hi  E-p-hi    Q-d-hi  E-d-hi    Q-f-hi  E-f-hi 
:EPH001:  0.1068  0.5369    0.0670  0.5710    0.6381  0.5780    2.1999  0.6177

:CHA  : TOTAL VALENCE CHARGE INSIDE UNIT CELL =      13.000000

:SUM  : SUM OF EIGENVALUES =          -4.990773607


        1.ATOM      Pr                   14 CORE STATES
:1S 001: 1S               -3066.969778102 Ry
:2S 001: 2S                -492.723666993 Ry
:2PP001: 2P*               -465.822589972 Ry
:2P 001: 2P                -430.425181714 Ry
:3S 001: 3S                -105.814982339 Ry
:3PP001: 3P*                -94.352791956 Ry
:3P 001: 3P                 -87.344932098 Ry
:3DD001: 3D*                -67.271891618 Ry
:3D 001: 3D                 -65.760334497 Ry
:4S 001: 4S                 -20.487624135 Ry
:4PP001: 4P*                -16.194057270 Ry
:4P 001: 4P                 -14.666129762 Ry
:4DD001: 4D*                 -7.598082550 Ry
:4D 001: 4D                  -7.328495673 Ry
:CINT001 Core Integral Atom   1   45.999522

       DENSITY AT NUCLEUS
        JATOM        VALENCE       SEMI-CORE          CORE           TOTAL
:RTO001:   1      652.797004        0.000000   656825.378207   657478.175212
     
       CHARGES OF NEW CHARGE DENSITY
:NTO   : INTERSTITIAL CHARGE =     2.785819
:NPC   : PW Pseudocharge     =     7.653256
:NTO001: CHARGE SPHERE  1    =    56.213702

:NEC01: NUCLEAR AND ELECTRONIC CHARGE     59.00000    58.99952
     
       CHARGES OF OLD CHARGE DENSITY
:OTO   : INTERSTITIAL CHARGE =     2.874086
:OPC   : PW Pseudocharge     =     7.700637
:OTO001: CHARGE SPHERE  1    =    56.125914

:NEC02: NUCLEAR AND ELECTRONIC CHARGE     59.00000    59.00000
     
       CONVERGENCE TEST
:DTO001: DIFFERENCE IN SPHERE  1 =  0.1674423

:DIS  :  CHARGE DISTANCE       ( 0.1674423 for atom    1 spin 1)      0.1674423
 PW Mixed is           53
 
******************************************************
* MULTISECANT MIXING VER9 RELEASE 10.4.0              *
* Standard Mode with controls                        *
* Fixed density scale                                *
* Restart from converged density                     *
* Regularization       1.000E-04                     *
* Trust Upper Limit    5.000E+00                     *
* Max Number of Memory Steps    8                    *
******************************************************
 
:INFO : Forcing a restart
:PWTMP   1.5660E+02  1.2500E+02  2.2205E+02
:PLANE:  PW TOTAL      3.1667 DISTAN   2.46E-02  7.76E-01 %
:CHARG:  CLM/ATOM    977.1922 DISTAN   1.75E-01  1.79E-02 %
 
Step History
        DMIX         DMIXT        Red     Pred      Trust     Lambda    MagRel    MagAbs     Beta
  1   3.5000E-02   3.5000E-02 -1.00E+00  1.00E+00 -1.00E+01  1.00E+00  3.50E-02  3.50E-02  1.00E+00
:INFO :  Note, Pratt in use
:TRUST:  Step 2.25E-01  Charge 7.50E-02 (e) CTO  2.50E-01 (e) PW  3.50E-01 (e)
:DIRM :  MEMORY  0/ 8 SCALE   1.000
Performing Pseudo Compensation
Final Pseudo Compensation Rescaling     1.00000E+00
:MIX  :   PRATT  REGULARIZATION:  1.00E-04 GREED: 0.15000                  
     
       CHARGES OF MIXED CHARGE DENSITY
:CTO   : INTERSTITIAL CHARGE =     2.860918
:CPC   : PW Pseudocharge     =     7.676424
:CTO001: CHARGE SPHERE  1    =    56.139082

:NEC03: NUCLEAR AND ELECTRONIC CHARGE     59.00000    59.00000

PW CHANGE     H    K    L      Current       Change    Residue
:PTO001:      0    0    0  4.74558646E-02 -1.683E-04 -6.028E-04
:PTO002:     -1   -1   -1 -1.40228128E-01  4.012E-04  3.087E-04
:PTO003:      0    0   -2  8.16152889E-02 -2.055E-04  7.481E-05
:PTO004:      0   -2   -2  6.54732447E-02 -2.034E-04 -2.545E-04
:PTO005:     -1   -1   -3 -5.62305110E-02  1.109E-04 -4.317E-05
:PTO006:     -2   -2   -2  1.36733564E-02 -2.752E-05 -2.611E-05
:PTO007:      0    0   -4  1.14241898E-03  2.168E-05  8.819E-05
:PTO008:     -1   -3   -3  2.26054699E-03 -4.953E-05  4.959E-05
:PTO009:      0   -2   -4 -4.61907288E-03  6.445E-05  3.980E-05
:PTO010:     -2   -2   -4 -8.23802813E-03  5.267E-05  3.386E-05
:PTO011:     -3   -3   -3  2.90813518E-03 -1.304E-05 -1.724E-05
:PTO012:     -1   -1   -5  8.53172353E-03 -4.542E-05 -9.372E-05

:ENE  : ********** TOTAL ENERGY IN Ry =       -18472.13070484

 Flat Integration
 New Mode for Coulomb Integral
 Consistent 3/8+Simpson combinations
 Extension of core to zero
 LDM version in phi
 Fifth-order quadrature in outwin


            ---------
:ITE015: 15. ITERATION
            ---------

:NATO :    1 INDEPENDENT AND    1 TOTAL ATOMS IN UNITCELL
       SUBSTANCE: blebleble                                                   

       LATTICE                      = F   
:POT  : POTENTIAL OPTION EX_LDA EC_LDA VX_LDA VC_LDA
:LAT  : LATTICE CONSTANTS=  9.61244  9.61244  9.61244    1.571    1.571    1.571
:VOL  : UNIT CELL VOLUME =     222.04511
       MODE OF CALCULATION IS       = RELA
       NON-SPINPOLARIZED CALCULATION
:IFFT  : FFT-parameters:   80   80   80 Factor: 2.00


   CONVERGENCE PARAMETER FOR PSEUDOCHARGE: NCON=  9
   MAXIMAL VALUE OF RMT(JATOM)*ABSK(NKK) : RK  =29.95407


:VKCOUL :  VK-COUL convergence: 0.100E-06
       ATOMNUMBER=  1 Pr         VCOUL-ZERO =  0.31084E+00
:FIT001: LUSE= 13 SIGMA OF V-XC FIT FOR ATOM  1  0.4743463E-04
:FIT001: LUSE= 13 SIGMA OF V-XC FIT FOR ATOM  1  0.4743463E-04
:DEN  : DENSITY INTEGRAL  =         -7076.14109617   (Ry)
       ELS_POTENTIAL_AT Z=0 and Z=0.5:  -2.55706  -2.55706
       ELS_POTENTIAL_AT Y=0 and Y=0.5:   0.00000   0.00000
:VZERO:v0,v0c,v0x  -3.54985  -2.55706  -0.99279 v5,v5c,v5x  -3.54985  -2.55706  -0.99279
:VZERY:v0,v0c,v0x  -0.73584   0.00000  -0.73584 v5,v5c,v5x  -0.73584   0.00000  -0.73584
:VZERX:v0,v0c,v0x  -0.73584   0.00000  -0.73584 v5,v5c,v5x  -0.73584   0.00000  -0.73584
:LMAX-WF:   10   Non-Spherical LMAX:   4

          ATOMIC SPHERE DEPENDENT PARAMETERS FOR ATOM  Pr        
:e__0001: OVERALL ENERGY PARAMETER IS    0.4350
          OVERALL BASIS SET ON ATOM IS LAPW
:E0_0001: E( 0)=    0.4350
             APW+lo
:E0_0001: E( 0)=   -2.0214   E(BOTTOM)=   -2.403   E(TOP)=   -1.639  4  5   178
             LOCAL ORBITAL
:E1_0001: E( 1)=    0.8350
             APW+lo
:E1_0001: E( 1)=   -0.6341   E(BOTTOM)=   -1.282   E(TOP)=    0.014  3  4   175
             LOCAL ORBITAL
:E3_0001: E( 3)=    0.6494   E(BOTTOM)=    0.507   E(TOP)=    0.792  0  1   121
             APW+lo
:E2_0001: E( 2)=    0.4350   E(BOTTOM)=    0.292   E(TOP)= -200.000  2 -1    89
             APW+lo

       K=   0.00000   0.00000   0.00000            1
:RKM  : MATRIX SIZE   189LOs:  20  RKM= 8.49  WEIGHT= 1.00  PGR:    
       EIGENVALUES ARE:
:EIG00001:      -1.9874854   -0.6070749   -0.6070749   -0.6070749    0.3895873
:EIG00006:       0.6384571    0.6609842    0.6609842    0.6609842    0.6907493
:EIG00011:       0.6907493    0.6907493    0.7762017    0.7762017    0.7762017
:EIG00016:       0.9673628    0.9673628    1.3765235    1.6197277    1.6197277
:EIG00021:       1.6197277    1.7198358    2.4976514    2.4976514    2.4976514
:EIG00026:       2.6072798    2.6072798    2.6072798    2.7808393    2.7808393
:EIG00031:       3.2085012    3.3603969    3.3603969    3.3603969    3.8221408
:EIG00036:       3.8221408    4.0562658    4.0562658    4.0562658    4.1161396
:EIG00041:       4.1161396    4.1161396    4.1929374    4.1929374    4.1929374
:EIG00046:       4.5036020    4.5036020    4.5036020    4.5851630    4.6088491
 
:EIG00051:       4.6088491    4.7571482    4.7571482    4.7571482    4.7723659
:EIG00056:       4.7723659    4.7723659    4.8813601    4.8837874    4.9856893
:EIG00061:       4.9856893    4.9856893    5.2113047    5.2113047    5.2113047
:EIG00066:       5.5748310    6.4886337    6.5106655    6.5106655    6.9228534
:EIG00071:       6.9228534    6.9228534    7.4826412    7.4826412    7.6468131
:EIG00076:       7.6468131    7.6468131    7.6939927    7.6939927    7.6939927
:EIG00081:       7.8937140    7.8937140    7.8937140    7.9020131    7.9020131
:EIG00086:       8.0426420    8.0426420    8.0426420    8.1180573    8.1180573
:EIG00091:       8.1180573    8.1321731    8.1321731    8.1321731
       ********************************************************

:KPT   :      NUMBER OF K-POINTS:   165
   0.0   0.0 angle (M,z), angle (M,x) deg
 
        SPIN-ORBIT EIGENVALUES:
     K=   0.00000   0.00000   0.00000            1
      MATRIX SIZE=  188   WEIGHT= 1.00
     EIGENVALUES ARE:
          -1.9874854   -1.9874854   -0.7558197   -0.7558197   -0.5372950
          -0.5372950   -0.5372950   -0.5372950    0.3895873    0.3895873
           0.6349381    0.6349381    0.6508065    0.6508065    0.6508065
           0.6508065    0.6725258    0.6725258    0.6899880    0.6899880
           0.6971991    0.6971991    0.6971991    0.6971991    0.7723510
           0.7723510    0.7723510    0.7723510    0.7828069    0.7828069
           0.9677225    0.9677225    0.9677225    0.9677225    1.3765847
           1.3765847    1.6152122    1.6152122    1.6218329    1.6218329

           1.6218329    1.6218329    1.7198358    1.7198358    2.4925314
           2.4925314    2.4925314    2.4925314    2.5073817    2.5073817
           2.5305762    2.5305762    2.6464296    2.6464296    2.6464296
           2.6464296    2.7811315    2.7811315    2.7811315    2.7811315
           3.2085012    3.2085012    3.3599761    3.3599761    3.3606194
           3.3606194    3.3606194    3.3606194    3.8221055    3.8221055
           3.8221055    3.8221055    4.0548428    4.0548428    4.0548428
           4.0548428    4.0594066    4.0594066    4.0805555    4.0805555

           4.1357375    4.1357375    4.1357375    4.1357375    4.1929273
           4.1929273    4.1929424    4.1929424    4.1929424    4.1929424

       ********************************************************
:GAP (global)   :    0.0    Ry =     0.0   eV (metal)
:GAP (this spin):    0.0    Ry =     0.0   eV (metal)
         Bandranges (emin - emax) and occupancy:
:BAN00004:   4   -0.806842   -0.755820  1.00000000
:BAN00005:   5   -0.621890   -0.537295  1.00000000
:BAN00006:   6   -0.621890   -0.537295  1.00000000
:BAN00007:   7   -0.592526   -0.537295  1.00000000
:BAN00008:   8   -0.592526   -0.537295  1.00000000
:BAN00009:   9    0.389587    0.611790  1.00000000
:BAN00010:  10    0.389587    0.611790  1.00000000
:BAN00011:  11    0.549901    0.648136  1.00000000
:BAN00012:  12    0.549901    0.648136  1.00000000
:BAN00013:  13    0.630293    0.656408  0.50000002
:BAN00014:  14    0.630293    0.656408  0.49999998
:BAN00015:  15    0.650806    0.661589  0.00000000
:BAN00016:  16    0.650806    0.661589  0.00000000
:BAN00017:  17    0.657324    0.680824  0.00000000
:BAN00018:  18    0.657324    0.680824  0.00000000
:BAN00019:  19    0.675003    0.689988  0.00000000
        Energy to separate low and high energystates:    0.33959


:NOE  : NUMBER OF ELECTRONS          =   13.000

:FER  : F E R M I - ENERGY(TETRAH.M.)=   0.6488752091
:GMA  : POTENTIAL AND CHARGE CUT-OFF  12.00 Ry**.5

:POS001: ATOM    1 X,Y,Z = 0.00000 0.00000 0.50000  MULT= 1  ZZ= 59.000  Pr        

       LMMAX  5
       LM=   0 0  4 0  4 4  6 0  6 4

:CHA001: TOTAL VALENCE CHARGE INSIDE SPHERE   1 =  10.0284    (RMT=  2.5000 )
:PCS001: PARTIAL CHARGES SPHERE =  1 S,P,D,F,      D-EG,D-T2G 
:QTL001: 2.0353 5.3460 0.7206 1.9260 0.0000 0.0000 0.0000 0.2575 0.4631 0.0000 0.0000 0.0000
        Q-s-low E-s-low   Q-p-low E-p-low   Q-d-low E-d-low   Q-f-low E-f-low
:EPL001:  1.9250 -1.9718    5.2666 -0.6574    0.0023 -0.6464    0.0007 -0.6466
        Q-s-hi  E-s-hi    Q-p-hi  E-p-hi    Q-d-hi  E-d-hi    Q-f-hi  E-f-hi 
:EPH001:  0.1103  0.5409    0.0793  0.5821    0.7184  0.5868    1.9253  0.6314

:CHA  : TOTAL VALENCE CHARGE INSIDE UNIT CELL =      13.000000

:SUM  : SUM OF EIGENVALUES =          -4.892512243


        1.ATOM      Pr                   14 CORE STATES
:1S 001: 1S               -3066.935673577 Ry
:2S 001: 2S                -492.689452708 Ry
:2PP001: 2P*               -465.788398184 Ry
:2P 001: 2P                -430.390982351 Ry
:3S 001: 3S                -105.781483571 Ry
:3PP001: 3P*                -94.319223494 Ry
:3P 001: 3P                 -87.311495486 Ry
:3DD001: 3D*                -67.238216377 Ry
:3D 001: 3D                 -65.726691461 Ry
:4S 001: 4S                 -20.461191457 Ry
:4PP001: 4P*                -16.168070787 Ry
:4P 001: 4P                 -14.640833246 Ry
:4DD001: 4D*                 -7.574011893 Ry
:4D 001: 4D                  -7.304660851 Ry
:CINT001 Core Integral Atom   1   45.999515

       DENSITY AT NUCLEUS
        JATOM        VALENCE       SEMI-CORE          CORE           TOTAL
:RTO001:   1      652.657091        0.000000   656823.925958   657476.583049
     
       CHARGES OF NEW CHARGE DENSITY
:NTO   : INTERSTITIAL CHARGE =     2.971613
:NPC   : PW Pseudocharge     =     7.732129
:NTO001: CHARGE SPHERE  1    =    56.027902

:NEC01: NUCLEAR AND ELECTRONIC CHARGE     59.00000    58.99951
     
       CHARGES OF OLD CHARGE DENSITY
:OTO   : INTERSTITIAL CHARGE =     2.860918
:OPC   : PW Pseudocharge     =     7.676424
:OTO001: CHARGE SPHERE  1    =    56.139082

:NEC02: NUCLEAR AND ELECTRONIC CHARGE     59.00000    59.00000
     
       CONVERGENCE TEST
:DTO001: DIFFERENCE IN SPHERE  1 =  0.1964522

:DIS  :  CHARGE DISTANCE       ( 0.1964522 for atom    1 spin 1)      0.1964522
 PW Mixed is           53
 
******************************************************
* MULTISECANT MIXING VER9 RELEASE 10.4.0              *
* Standard Mode with controls                        *
* Fixed density scale                                *
* Restart from converged density                     *
* Regularization       1.000E-04                     *
* Trust Upper Limit    5.000E+00                     *
* Max Number of Memory Steps    8                    *
******************************************************
 
:INFO : Forcing a restart
:PWTMP   1.5660E+02  1.2500E+02  2.2205E+02
:PLANE:  PW TOTAL      3.1571 DISTAN   3.03E-02  9.60E-01 %
:CHARG:  CLM/ATOM    977.1936 DISTAN   2.02E-01  2.07E-02 %
 
Step History
        DMIX         DMIXT        Red     Pred      Trust     Lambda    MagRel    MagAbs     Beta
  1   3.5000E-02   3.5000E-02 -1.00E+00  1.00E+00 -1.00E+01  1.00E+00  3.50E-02  3.50E-02  1.00E+00
  2   1.5000E-01   1.5000E-01 -1.00E+00  1.00E+00 -1.00E+01  1.00E+00  1.50E-01  2.65E-02  1.00E+00
:JACOBIANS    1.544E-03   3.398E-02
  
:NORMS:  1/Froebius, Min, Max, Used   0.5807E-02  0.5807E-02  0.7081E-01  0.5807E-02
:INFO :  Number of Memory Steps    1 Skipping    0
:PREDicted Charge, CTotal, PW Trust    6.079E-03   6.079E-03   9.715E-03
:PREDicted DMix, Beta, BLim   2.5000E-02  4.6168E-01  1.2855E+00

Eigenvalues, unscaled except for SY+YY
   #     SY Real        SY Imag          SS             YY         SY+YY Real      SY+YY Imag
   1   7.080565E-02   0.000000E+00   5.806510E-03   1.000000E+00   1.070806E+00   0.000000E+00
 
:DLIM :  Beta Active  8.000E-01
:BLIM :  VZERO Control Off
:TRUST:  Step 3.00E+00  Charge 6.82E-02 (e) CTO  2.27E-01 (e) PW  3.18E-01 (e)
:DIRM :  MEMORY  1/8  SCALE   1.000 RED  1.15 PRED  1.00 NEXT  0.31 BETA  0.80
:TRAVE:  Charge 5.92E-03 (e) CTO  5.92E-03 (e) PW  9.25E-03 (e)
:DIRP :  |MSR1|= 4.207E-03 |PRATT|= 3.029E-02 ANGLE=  39.7 DEGREES
:DIRQ :  |MSR1|= 1.085E-02 |PRATT|= 2.019E-01 ANGLE=  15.5 DEGREES
:DIRT :  |MSR1|= 1.164E-02 |PRATT|= 2.042E-01 ANGLE=  21.6 DEGREES
:MIX  :   MSR1   REGULARIZATION:  1.00E-04 GREED: 0.06000  Newton 1.00  0.0570                
     
       CHARGES OF MIXED CHARGE DENSITY
:CTO   : INTERSTITIAL CHARGE =     2.866833
:CPC   : PW Pseudocharge     =     7.686942
:CTO001: CHARGE SPHERE  1    =    56.133167

:NEC03: NUCLEAR AND ELECTRONIC CHARGE     59.00000    59.00000

PW CHANGE     H    K    L      Current       Change    Residue
:PTO001:      0    0    0  4.75298704E-02  7.401E-05  7.573E-04
:PTO002:     -1   -1   -1 -1.40397058E-01 -1.689E-04 -2.210E-04
:PTO003:      0    0   -2  8.17072331E-02  9.194E-05  3.693E-05
:PTO004:      0   -2   -2  6.55564001E-02  8.316E-05  1.360E-04
:PTO005:     -1   -1   -3 -5.62762352E-02 -4.572E-05  1.237E-04
:PTO006:     -2   -2   -2  1.36831306E-02  9.774E-06 -4.449E-05
:PTO007:      0    0   -4  1.13431959E-03 -8.099E-06 -5.817E-05
:PTO008:     -1   -3   -3  2.28579782E-03  2.525E-05  8.372E-05
:PTO009:      0   -2   -4 -4.64873662E-03 -2.966E-05 -1.153E-04
:PTO010:     -2   -2   -4 -8.26147706E-03 -2.345E-05 -6.716E-05
:PTO011:     -3   -3   -3  2.91335043E-03  5.215E-06  5.666E-06
:PTO012:     -1   -1   -5  8.55032626E-03  1.860E-05  7.477E-05

:ENE  : ********** TOTAL ENERGY IN Ry =       -18472.13086725

 Flat Integration
 New Mode for Coulomb Integral
 Consistent 3/8+Simpson combinations
 Extension of core to zero
 LDM version in phi
 Fifth-order quadrature in outwin


            ---------
:ITE016: 16. ITERATION
            ---------

:NATO :    1 INDEPENDENT AND    1 TOTAL ATOMS IN UNITCELL
       SUBSTANCE: blebleble                                                   

       LATTICE                      = F   
:POT  : POTENTIAL OPTION EX_LDA EC_LDA VX_LDA VC_LDA
:LAT  : LATTICE CONSTANTS=  9.61244  9.61244  9.61244    1.571    1.571    1.571
:VOL  : UNIT CELL VOLUME =     222.04511
       MODE OF CALCULATION IS       = RELA
       NON-SPINPOLARIZED CALCULATION
:IFFT  : FFT-parameters:   80   80   80 Factor: 2.00


   CONVERGENCE PARAMETER FOR PSEUDOCHARGE: NCON=  9
   MAXIMAL VALUE OF RMT(JATOM)*ABSK(NKK) : RK  =29.95407


:VKCOUL :  VK-COUL convergence: 0.100E-06
       ATOMNUMBER=  1 Pr         VCOUL-ZERO =  0.31128E+00
:FIT001: LUSE= 13 SIGMA OF V-XC FIT FOR ATOM  1  0.4773460E-04
:FIT001: LUSE= 13 SIGMA OF V-XC FIT FOR ATOM  1  0.4773460E-04
:DEN  : DENSITY INTEGRAL  =         -7075.48642849   (Ry)
       ELS_POTENTIAL_AT Z=0 and Z=0.5:  -2.56160  -2.56160
       ELS_POTENTIAL_AT Y=0 and Y=0.5:   0.00000   0.00000
:VZERO:v0,v0c,v0x  -3.55479  -2.56160  -0.99319 v5,v5c,v5x  -3.55479  -2.56160  -0.99319
:VZERY:v0,v0c,v0x  -0.73625   0.00000  -0.73625 v5,v5c,v5x  -0.73625   0.00000  -0.73625
:VZERX:v0,v0c,v0x  -0.73625   0.00000  -0.73625 v5,v5c,v5x  -0.73625   0.00000  -0.73625
:LMAX-WF:   10   Non-Spherical LMAX:   4

          ATOMIC SPHERE DEPENDENT PARAMETERS FOR ATOM  Pr        
:e__0001: OVERALL ENERGY PARAMETER IS    0.4442
          OVERALL BASIS SET ON ATOM IS LAPW
:E0_0001: E( 0)=    0.4442
             APW+lo
:E0_0001: E( 0)=   -2.0256   E(BOTTOM)=   -2.407   E(TOP)=   -1.644  4  5   178
             LOCAL ORBITAL
:E1_0001: E( 1)=    0.8442
             APW+lo
:E1_0001: E( 1)=   -0.6376   E(BOTTOM)=   -1.285   E(TOP)=    0.009  3  4   172
             LOCAL ORBITAL
:E3_0001: E( 3)=    0.6416   E(BOTTOM)=    0.500   E(TOP)=    0.783  0  1   122
             APW+lo
:E2_0001: E( 2)=    0.4442   E(BOTTOM)=    0.290   E(TOP)= -200.000  2 -1    85
             APW+lo

       K=   0.00000   0.00000   0.00000            1
:RKM  : MATRIX SIZE   189LOs:  20  RKM= 8.49  WEIGHT= 1.00  PGR:    
       EIGENVALUES ARE:
:EIG00001:      -1.9915565   -0.6102890   -0.6102890   -0.6102890    0.3896632
:EIG00006:       0.6314721    0.6534383    0.6534383    0.6534383    0.6826334
:EIG00011:       0.6826334    0.6826334    0.7754613    0.7754613    0.7754613
:EIG00016:       0.9661456    0.9661456    1.3757375    1.6194929    1.6194929
:EIG00021:       1.6194929    1.7207589    2.4961060    2.4961060    2.4961060
:EIG00026:       2.6064289    2.6064289    2.6064289    2.7799357    2.7799357
:EIG00031:       3.2081990    3.3605354    3.3605354    3.3605354    3.8209016
:EIG00036:       3.8209016    4.0553861    4.0553861    4.0553861    4.1161911
:EIG00041:       4.1161911    4.1161911    4.1926674    4.1926674    4.1926674
:EIG00046:       4.5039535    4.5039535    4.5039535    4.5847611    4.6094320
 
:EIG00051:       4.6094320    4.7576906    4.7576906    4.7576906    4.7729602
:EIG00056:       4.7729602    4.7729602    4.8810075    4.8847087    4.9864056
:EIG00061:       4.9864056    4.9864056    5.2120738    5.2120738    5.2120738
:EIG00066:       5.5757728    6.4881903    6.5100454    6.5100454    6.9230714
:EIG00071:       6.9230714    6.9230714    7.4798234    7.4798234    7.6449611
:EIG00076:       7.6449611    7.6449611    7.6929707    7.6929707    7.6929707
:EIG00081:       7.8936875    7.8936875    7.8936875    7.9022351    7.9022351
:EIG00086:       8.0425241    8.0425241    8.0425241    8.1166068    8.1166068
:EIG00091:       8.1166068    8.1320578    8.1320578    8.1320578
       ********************************************************

:KPT   :      NUMBER OF K-POINTS:   165
   0.0   0.0 angle (M,z), angle (M,x) deg
 
        SPIN-ORBIT EIGENVALUES:
     K=   0.00000   0.00000   0.00000            1
      MATRIX SIZE=  188   WEIGHT= 1.00
     EIGENVALUES ARE:
          -1.9915565   -1.9915565   -0.7592408   -0.7592408   -0.5404115
          -0.5404115   -0.5404115   -0.5404115    0.3896632    0.3896632
           0.6278495    0.6278495    0.6431583    0.6431583    0.6431583
           0.6431583    0.6650310    0.6650310    0.6819676    0.6819676
           0.6891657    0.6891657    0.6891657    0.6891657    0.7715950
           0.7715950    0.7715950    0.7715950    0.7820888    0.7820888
           0.9665088    0.9665088    0.9665088    0.9665088    1.3757972
           1.3757972    1.6149483    1.6149483    1.6216112    1.6216112

           1.6216112    1.6216112    1.7207589    1.7207589    2.4909724
           2.4909724    2.4909724    2.4909724    2.5058620    2.5058620
           2.5296823    2.5296823    2.6456032    2.6456032    2.6456032
           2.6456032    2.7802291    2.7802291    2.7802291    2.7802291
           3.2081990    3.2081990    3.3601169    3.3601169    3.3607567
           3.3607567    3.3607567    3.3607567    3.8208665    3.8208665
           3.8208665    3.8208665    4.0539622    4.0539622    4.0539622
           4.0539622    4.0585291    4.0585291    4.0806362    4.0806362

           4.1357724    4.1357724    4.1357725    4.1357725    4.1926573
           4.1926573    4.1926724    4.1926724    4.1926724    4.1926724

       ********************************************************
:GAP (global)   :    0.0    Ry =     0.0   eV (metal)
:GAP (this spin):    0.0    Ry =     0.0   eV (metal)
         Bandranges (emin - emax) and occupancy:
:BAN00004:   4   -0.809961   -0.759241  1.00000000
:BAN00005:   5   -0.624613   -0.540411  1.00000000
:BAN00006:   6   -0.624613   -0.540411  1.00000000
:BAN00007:   7   -0.595359   -0.540411  1.00000000
:BAN00008:   8   -0.595359   -0.540411  1.00000000
:BAN00009:   9    0.389663    0.608809  1.00000000
:BAN00010:  10    0.389663    0.608809  1.00000000
:BAN00011:  11    0.549621    0.641066  1.00000000
:BAN00012:  12    0.549621    0.641066  1.00000000
:BAN00013:  13    0.625490    0.648661  0.50000010
:BAN00014:  14    0.625490    0.648661  0.49999989
:BAN00015:  15    0.643158    0.654651  0.00000000
:BAN00016:  16    0.643158    0.654651  0.00000000
:BAN00017:  17    0.649561    0.673304  0.00000000
:BAN00018:  18    0.649561    0.673304  0.00000000
:BAN00019:  19    0.667932    0.681968  0.00000000
        Energy to separate low and high energystates:    0.33966


:NOE  : NUMBER OF ELECTRONS          =   13.000

:FER  : F E R M I - ENERGY(TETRAH.M.)=   0.6419911811
:GMA  : POTENTIAL AND CHARGE CUT-OFF  12.00 Ry**.5

:POS001: ATOM    1 X,Y,Z = 0.00000 0.00000 0.50000  MULT= 1  ZZ= 59.000  Pr        

       LMMAX  5
       LM=   0 0  4 0  4 4  6 0  6 4

:CHA001: TOTAL VALENCE CHARGE INSIDE SPHERE   1 =  10.1083    (RMT=  2.5000 )
:PCS001: PARTIAL CHARGES SPHERE =  1 S,P,D,F,      D-EG,D-T2G 
:QTL001: 2.0341 5.3435 0.6861 2.0441 0.0000 0.0000 0.0000 0.2468 0.4394 0.0000 0.0000 0.0000
        Q-s-low E-s-low   Q-p-low E-p-low   Q-d-low E-d-low   Q-f-low E-f-low
:EPL001:  1.9253 -1.9760    5.2696 -0.6604    0.0022 -0.6493    0.0006 -0.6494
        Q-s-hi  E-s-hi    Q-p-hi  E-p-hi    Q-d-hi  E-d-hi    Q-f-hi  E-f-hi 
:EPH001:  0.1089  0.5392    0.0738  0.5773    0.6839  0.5830    2.0434  0.6255

:CHA  : TOTAL VALENCE CHARGE INSIDE UNIT CELL =      13.000000

:SUM  : SUM OF EIGENVALUES =          -4.934815771


        1.ATOM      Pr                   14 CORE STATES
:1S 001: 1S               -3066.950896843 Ry
:2S 001: 2S                -492.704634040 Ry
:2PP001: 2P*               -465.803589314 Ry
:2P 001: 2P                -430.406169425 Ry
:3S 001: 3S                -105.796190438 Ry
:3PP001: 3P*                -94.333969421 Ry
:3P 001: 3P                 -87.326175639 Ry
:3DD001: 3D*                -67.253023165 Ry
:3D 001: 3D                 -65.741481191 Ry
:4S 001: 4S                 -20.472711255 Ry
:4PP001: 4P*                -16.179396485 Ry
:4P 001: 4P                 -14.651856326 Ry
:4DD001: 4D*                 -7.584501573 Ry
:4D 001: 4D                  -7.315047368 Ry
:CINT001 Core Integral Atom   1   45.999518

       DENSITY AT NUCLEUS
        JATOM        VALENCE       SEMI-CORE          CORE           TOTAL
:RTO001:   1      652.748413        0.000000   656824.595594   657477.344007
     
       CHARGES OF NEW CHARGE DENSITY
:NTO   : INTERSTITIAL CHARGE =     2.891687
:NPC   : PW Pseudocharge     =     7.698386
:NTO001: CHARGE SPHERE  1    =    56.107830

:NEC01: NUCLEAR AND ELECTRONIC CHARGE     59.00000    58.99952
     
       CHARGES OF OLD CHARGE DENSITY
:OTO   : INTERSTITIAL CHARGE =     2.866833
:OPC   : PW Pseudocharge     =     7.686942
:OTO001: CHARGE SPHERE  1    =    56.133167

:NEC02: NUCLEAR AND ELECTRONIC CHARGE     59.00000    59.00000
     
       CONVERGENCE TEST
:DTO001: DIFFERENCE IN SPHERE  1 =  0.0415115

:DIS  :  CHARGE DISTANCE       ( 0.0415115 for atom    1 spin 1)      0.0415115
 PW Mixed is           53
 
******************************************************
* MULTISECANT MIXING VER9 RELEASE 10.4.0              *
* Standard Mode with controls                        *
* Fixed density scale                                *
* Regularization       1.000E-04                     *
* Trust Upper Limit    5.000E+00                     *
* Max Number of Memory Steps    8                    *
******************************************************
 
:PWTMP   1.5660E+02  1.2500E+02  2.2205E+02
:PLANE:  PW TOTAL      3.1613 DISTAN   6.91E-03  2.19E-01 %
:CHARG:  CLM/ATOM    977.1926 DISTAN   5.99E-02  6.13E-03 %
 
Step History
        DMIX         DMIXT        Red     Pred      Trust     Lambda    MagRel    MagAbs     Beta
  1   3.5000E-02   3.5000E-02 -1.00E+00  1.00E+00 -1.00E+01  1.00E+00  3.50E-02  3.50E-02  1.00E+00
  2   1.5000E-01   1.5000E-01  1.15E+00  1.00E+00 -1.00E+01  1.00E+00  1.50E-01  2.65E-02  1.00E+00
  3   6.0000E-02   6.0000E-02 -1.00E+00  3.11E-01  3.00E+00  1.00E+00  5.70E-02  1.16E-02  8.00E-01
:JACOBIANS    2.993E-03   3.465E-01
  
:NORMS:  1/Froebius, Min, Max, Used   0.7739E-01  0.7574E-01  0.5990E+00  0.8939E-01
:INFO :  Number of Memory Steps    2 Skipping    0
:INFO :  SLambda=    3.0000000000  Max    3.0000000000
:PREDicted Charge, CTotal, PW Trust    9.972E-03   9.972E-03   1.373E-02
:PREDicted DMix, Beta, BLim   5.2642E-01  1.7685E+00  5.7719E-01

Eigenvalues, unscaled except for SY+YY
   #     SY Real        SY Imag          SS             YY         SY+YY Real      SY+YY Imag
   1   1.414301E-01   0.000000E+00   1.146408E-02   1.998556E+00   2.422855E+00   0.000000E+00
   2   8.690154E-04   0.000000E+00   5.154231E-04   1.443889E-03   4.041840E-03   0.000000E+00
 
:INFO :  Singular value  2.423E+00 Weight  1.000E+00 Projection  2.709E-02
:INFO :  Singular value  4.042E-03 Weight  9.976E-01 Projection -1.184E+00
:RANK :  ACTIVE   2.00/2  =  99.88 % ; YY RANK   1.98/2  =  99.06 %
 
:BLIM :  VZERO Control Off
:TRUST:  Step 1.51E+00  Charge 6.82E-02 (e) CTO  2.27E-01 (e) PW  3.18E-01 (e)
:DIRM :  MEMORY  2/8  SCALE   1.000 RED  0.30 PRED  0.31 NEXT  0.18 
:TRAVE:  Charge 4.86E-03 (e) CTO  4.86E-03 (e) PW  6.83E-03 (e)
:DIRP :  |MSR1|= 1.758E-03 |PRATT|= 6.909E-03 ANGLE=  28.7 DEGREES
:DIRQ :  |MSR1|= 2.723E-02 |PRATT|= 5.993E-02 ANGLE=  35.0 DEGREES
:DIRT :  |MSR1|= 2.728E-02 |PRATT|= 6.032E-02 ANGLE=  35.1 DEGREES
:MIX  :   MSE1   REGULARIZATION:  2.00E-04 GREED: 0.15000  Newton 1.00  0.4523                
     
       CHARGES OF MIXED CHARGE DENSITY
:CTO   : INTERSTITIAL CHARGE =     2.870642
:CPC   : PW Pseudocharge     =     7.690952
:CTO001: CHARGE SPHERE  1    =    56.129358

:NEC03: NUCLEAR AND ELECTRONIC CHARGE     59.00000    59.00000

PW CHANGE     H    K    L      Current       Change    Residue
:PTO001:      0    0    0  4.75650834E-02  3.521E-05  1.714E-04
:PTO002:     -1   -1   -1 -1.40419878E-01 -2.282E-05 -5.951E-06
:PTO003:      0    0   -2  8.17589989E-02  5.177E-05  4.405E-05
:PTO004:      0   -2   -2  6.55384559E-02 -1.794E-05 -2.535E-05
:PTO005:     -1   -1   -3 -5.62681577E-02  8.078E-06  5.061E-05
:PTO006:     -2   -2   -2  1.36673589E-02 -1.577E-05 -3.313E-05
:PTO007:      0    0   -4  1.14412208E-03  9.802E-06  3.254E-06
:PTO008:     -1   -3   -3  2.32398361E-03  3.819E-05  5.987E-05
:PTO009:      0   -2   -4 -4.66896416E-03 -2.023E-05 -4.212E-05
:PTO010:     -2   -2   -4 -8.27280529E-03 -1.133E-05 -2.109E-05
:PTO011:     -3   -3   -3  2.91132685E-03 -2.024E-06 -3.454E-06
:PTO012:     -1   -1   -5  8.54289993E-03 -7.426E-06  1.350E-06

:ENE  : ********** TOTAL ENERGY IN Ry =       -18472.13009572

 Flat Integration
 New Mode for Coulomb Integral
 Consistent 3/8+Simpson combinations
 Extension of core to zero
 LDM version in phi
 Fifth-order quadrature in outwin


            ---------
:ITE017: 17. ITERATION
            ---------

:NATO :    1 INDEPENDENT AND    1 TOTAL ATOMS IN UNITCELL
       SUBSTANCE: blebleble                                                   

       LATTICE                      = F   
:POT  : POTENTIAL OPTION EX_LDA EC_LDA VX_LDA VC_LDA
:LAT  : LATTICE CONSTANTS=  9.61244  9.61244  9.61244    1.571    1.571    1.571
:VOL  : UNIT CELL VOLUME =     222.04511
       MODE OF CALCULATION IS       = RELA
       NON-SPINPOLARIZED CALCULATION
:IFFT  : FFT-parameters:   80   80   80 Factor: 2.00


   CONVERGENCE PARAMETER FOR PSEUDOCHARGE: NCON=  9
   MAXIMAL VALUE OF RMT(JATOM)*ABSK(NKK) : RK  =29.95407


:VKCOUL :  VK-COUL convergence: 0.978E-07
       ATOMNUMBER=  1 Pr         VCOUL-ZERO =  0.31148E+00
:FIT001: LUSE= 13 SIGMA OF V-XC FIT FOR ATOM  1  0.4606717E-04
:FIT001: LUSE= 13 SIGMA OF V-XC FIT FOR ATOM  1  0.4606717E-04
:DEN  : DENSITY INTEGRAL  =         -7075.18661993   (Ry)
       ELS_POTENTIAL_AT Z=0 and Z=0.5:  -2.56347  -2.56347
       ELS_POTENTIAL_AT Y=0 and Y=0.5:   0.00000   0.00000
:VZERO:v0,v0c,v0x  -3.55727  -2.56347  -0.99381 v5,v5c,v5x  -3.55727  -2.56347  -0.99381
:VZERY:v0,v0c,v0x  -0.73650   0.00000  -0.73650 v5,v5c,v5x  -0.73650   0.00000  -0.73650
:VZERX:v0,v0c,v0x  -0.73650   0.00000  -0.73650 v5,v5c,v5x  -0.73650   0.00000  -0.73650
:LMAX-WF:   10   Non-Spherical LMAX:   4

          ATOMIC SPHERE DEPENDENT PARAMETERS FOR ATOM  Pr        
:e__0001: OVERALL ENERGY PARAMETER IS    0.4427
          OVERALL BASIS SET ON ATOM IS LAPW
:E0_0001: E( 0)=    0.4427
             APW+lo
:E0_0001: E( 0)=   -2.0273   E(BOTTOM)=   -2.408   E(TOP)=   -1.646  4  5   173
             LOCAL ORBITAL
:E1_0001: E( 1)=    0.8427
             APW+lo
:E1_0001: E( 1)=   -0.6391   E(BOTTOM)=   -1.286   E(TOP)=    0.008  3  4   175
             LOCAL ORBITAL
:E3_0001: E( 3)=    0.6386   E(BOTTOM)=    0.498   E(TOP)=    0.779  0  1   121
             APW+lo
:E2_0001: E( 2)=    0.4427   E(BOTTOM)=    0.289   E(TOP)= -200.000  2 -1    87
             APW+lo

       K=   0.00000   0.00000   0.00000            1
:RKM  : MATRIX SIZE   189LOs:  20  RKM= 8.49  WEIGHT= 1.00  PGR:    
       EIGENVALUES ARE:
:EIG00001:      -1.9932384   -0.6116485   -0.6116485   -0.6116485    0.3898312
:EIG00006:       0.6286442    0.6506469    0.6506469    0.6506469    0.6795311
:EIG00011:       0.6795311    0.6795311    0.7751263    0.7751263    0.7751263
:EIG00016:       0.9656790    0.9656790    1.3754874    1.6196242    1.6196242
:EIG00021:       1.6196242    1.7214012    2.4957070    2.4957070    2.4957070
:EIG00026:       2.6061247    2.6061247    2.6061247    2.7797930    2.7797930
:EIG00031:       3.2082134    3.3606560    3.3606560    3.3606560    3.8208989
:EIG00036:       3.8208989    4.0553415    4.0553415    4.0553415    4.1163842
:EIG00041:       4.1163842    4.1163842    4.1926979    4.1926979    4.1926979
:EIG00046:       4.5042529    4.5042529    4.5042529    4.5848871    4.6097220
 
:EIG00051:       4.6097220    4.7579741    4.7579741    4.7579741    4.7733205
:EIG00056:       4.7733205    4.7733205    4.8810606    4.8851990    4.9868956
:EIG00061:       4.9868956    4.9868956    5.2125373    5.2125373    5.2125373
:EIG00066:       5.5762000    6.4884265    6.5102819    6.5102819    6.9233419
:EIG00071:       6.9233419    6.9233419    7.4797834    7.4797834    7.6450011
:EIG00076:       7.6450011    7.6450011    7.6928777    7.6928777    7.6928777
:EIG00081:       7.8939240    7.8939240    7.8939240    7.9024680    7.9024680
:EIG00086:       8.0427127    8.0427127    8.0427127    8.1168988    8.1168988
:EIG00091:       8.1168988    8.1322861    8.1322861    8.1322861
       ********************************************************

:KPT   :      NUMBER OF K-POINTS:   165
   0.0   0.0 angle (M,z), angle (M,x) deg
 
        SPIN-ORBIT EIGENVALUES:
     K=   0.00000   0.00000   0.00000            1
      MATRIX SIZE=  188   WEIGHT= 1.00
     EIGENVALUES ARE:
          -1.9932384   -1.9932384   -0.7606795   -0.7606795   -0.5417323
          -0.5417323   -0.5417323   -0.5417323    0.3898312    0.3898312
           0.6249914    0.6249914    0.6403183    0.6403183    0.6403183
           0.6403183    0.6622591    0.6622591    0.6788924    0.6788924
           0.6861045    0.6861045    0.6861045    0.6861045    0.7712541
           0.7712541    0.7712541    0.7712541    0.7817625    0.7817625
           0.9660435    0.9660435    0.9660435    0.9660435    1.3755465
           1.3755465    1.6150698    1.6150698    1.6217468    1.6217468

           1.6217468    1.6217468    1.7214012    1.7214012    2.4905744
           2.4905744    2.4905744    2.4905744    2.5054620    2.5054620
           2.5293671    2.5293671    2.6453067    2.6453067    2.6453068
           2.6453068    2.7800863    2.7800863    2.7800863    2.7800863
           3.2082134    3.2082134    3.3602383    3.3602383    3.3608769
           3.3608769    3.3608769    3.3608769    3.8208639    3.8208639
           3.8208639    3.8208639    4.0539190    4.0539190    4.0539190
           4.0539190    4.0584811    4.0584811    4.0808525    4.0808525

           4.1359525    4.1359525    4.1359525    4.1359525    4.1926878
           4.1926878    4.1927030    4.1927030    4.1927030    4.1927030

       ********************************************************
:GAP (global)   :    0.0    Ry =     0.0   eV (metal)
:GAP (this spin):    0.0    Ry =     0.0   eV (metal)
         Bandranges (emin - emax) and occupancy:
:BAN00004:   4   -0.811273   -0.760680  1.00000000
:BAN00005:   5   -0.625766   -0.541732  1.00000000
:BAN00006:   6   -0.625766   -0.541732  1.00000000
:BAN00007:   7   -0.596558   -0.541732  1.00000000
:BAN00008:   8   -0.596558   -0.541732  1.00000000
:BAN00009:   9    0.389831    0.607712  1.00000000
:BAN00010:  10    0.389831    0.607712  1.00000000
:BAN00011:  11    0.549497    0.638305  1.00000000
:BAN00012:  12    0.549497    0.638305  1.00000000
:BAN00013:  13    0.623655    0.645733  0.50000002
:BAN00014:  14    0.623655    0.645733  0.49999998
:BAN00015:  15    0.640318    0.652029  0.00000000
:BAN00016:  16    0.640318    0.652029  0.00000000
:BAN00017:  17    0.646642    0.670350  0.00000000
:BAN00018:  18    0.646642    0.670350  0.00000000
:BAN00019:  19    0.665259    0.678892  0.00000000
        Energy to separate low and high energystates:    0.33983


:NOE  : NUMBER OF ELECTRONS          =   13.000

:FER  : F E R M I - ENERGY(TETRAH.M.)=   0.6393683888
:GMA  : POTENTIAL AND CHARGE CUT-OFF  12.00 Ry**.5

:POS001: ATOM    1 X,Y,Z = 0.00000 0.00000 0.50000  MULT= 1  ZZ= 59.000  Pr        

       LMMAX  5
       LM=   0 0  4 0  4 4  6 0  6 4

:CHA001: TOTAL VALENCE CHARGE INSIDE SPHERE   1 =  10.1401    (RMT=  2.5000 )
:PCS001: PARTIAL CHARGES SPHERE =  1 S,P,D,F,      D-EG,D-T2G 
:QTL001: 2.0336 5.3426 0.6728 2.0906 0.0000 0.0000 0.0000 0.2426 0.4302 0.0000 0.0000 0.0000
        Q-s-low E-s-low   Q-p-low E-p-low   Q-d-low E-d-low   Q-f-low E-f-low
:EPL001:  1.9254 -1.9777    5.2709 -0.6616    0.0022 -0.6505    0.0006 -0.6507
        Q-s-hi  E-s-hi    Q-p-hi  E-p-hi    Q-d-hi  E-d-hi    Q-f-hi  E-f-hi 
:EPH001:  0.1082  0.5386    0.0717  0.5755    0.6706  0.5816    2.0899  0.6233

:CHA  : TOTAL VALENCE CHARGE INSIDE UNIT CELL =      13.000000

:SUM  : SUM OF EIGENVALUES =          -4.951968034


        1.ATOM      Pr                   14 CORE STATES
:1S 001: 1S               -3066.960063746 Ry
:2S 001: 2S                -492.712972328 Ry
:2PP001: 2P*               -465.812108517 Ry
:2P 001: 2P                -430.414620572 Ry
:3S 001: 3S                -105.802867868 Ry
:3PP001: 3P*                -94.340741412 Ry
:3P 001: 3P                 -87.332845515 Ry
:3DD001: 3D*                -67.259949369 Ry
:3D 001: 3D                 -65.748373135 Ry
:4S 001: 4S                 -20.477126027 Ry
:4PP001: 4P*                -16.183738675 Ry
:4P 001: 4P                 -14.656061496 Ry
:4DD001: 4D*                 -7.588509214 Ry
:4D 001: 4D                  -7.319011199 Ry
:CINT001 Core Integral Atom   1   45.999519

       DENSITY AT NUCLEUS
        JATOM        VALENCE       SEMI-CORE          CORE           TOTAL
:RTO001:   1      652.756958        0.000000   656825.194768   657477.951725
     
       CHARGES OF NEW CHARGE DENSITY
:NTO   : INTERSTITIAL CHARGE =     2.859875
:NPC   : PW Pseudocharge     =     7.685408
:NTO001: CHARGE SPHERE  1    =    56.139643

:NEC01: NUCLEAR AND ELECTRONIC CHARGE     59.00000    58.99952
     
       CHARGES OF OLD CHARGE DENSITY
:OTO   : INTERSTITIAL CHARGE =     2.870642
:OPC   : PW Pseudocharge     =     7.690952
:OTO001: CHARGE SPHERE  1    =    56.129358

:NEC02: NUCLEAR AND ELECTRONIC CHARGE     59.00000    59.00000
     
       CONVERGENCE TEST
:DTO001: DIFFERENCE IN SPHERE  1 =  0.0205719

:DIS  :  CHARGE DISTANCE       ( 0.0205719 for atom    1 spin 1)      0.0205719
 PW Mixed is           53
 
******************************************************
* MULTISECANT MIXING VER9 RELEASE 10.4.0              *
* Standard Mode with controls                        *
* Fixed density scale                                *
* Regularization       1.000E-04                     *
* Trust Upper Limit    5.000E+00                     *
* Max Number of Memory Steps    8                    *
******************************************************
 
:PWTMP   1.5660E+02  1.2500E+02  2.2205E+02
:PLANE:  PW TOTAL      3.1626 DISTAN   2.71E-03  8.58E-02 %
:CHARG:  CLM/ATOM    977.1893 DISTAN   2.65E-02  2.71E-03 %
 
Step History
        DMIX         DMIXT        Red     Pred      Trust     Lambda    MagRel    MagAbs     Beta
  1   3.5000E-02   3.5000E-02 -1.00E+00  1.00E+00 -1.00E+01  1.00E+00  3.50E-02  3.50E-02  1.00E+00
  2   1.5000E-01   1.5000E-01  1.15E+00  1.00E+00 -1.00E+01  1.00E+00  1.50E-01  2.65E-02  1.00E+00
  3   6.0000E-02   6.0000E-02  2.95E-01  3.11E-01  3.00E+00  3.00E+00  5.70E-02  1.16E-02  8.00E-01
  4   1.5000E-01   1.5000E-01 -1.00E+00  1.80E-01  1.51E+00  1.00E+00  4.52E-01  2.73E-02  1.00E+00
:JACOBIANS    3.866E-03   6.640E-01
  
:NORMS:  1/Froebius, Min, Max, Used   0.2804E+00  0.2721E+00  0.8236E+00  0.2838E+00
:INFO :  Number of Memory Steps    3 Skipping    0
:INFO :  SLambda=    3.0000000000  Max    3.0000000000
:PREDicted Charge, CTotal, PW Trust    3.896E-03   3.896E-03   3.759E-03
:PREDicted DMix, Beta, BLim   7.1487E-02  1.4489E+00  1.3044E+00

Eigenvalues, unscaled except for SY+YY
   #     SY Real        SY Imag          SS             YY         SY+YY Real      SY+YY Imag
   1   1.262099E-05   0.000000E+00   2.232486E-01   2.771095E+00   3.435450E+00   0.000000E+00
   2   1.450561E-01   0.000000E+00   1.270146E-02   2.287609E-01   8.358155E-01   0.000000E+00
   3   2.787437E-01   0.000000E+00   1.125120E-06   1.438711E-04   1.720282E-04   0.000000E+00
 
:INFO :  Singular value  3.436E+00 Weight  1.000E+00 Projection -8.240E-03
:INFO :  Singular value  8.358E-01 Weight  1.000E+00 Projection -3.763E-02
:INFO :  Singular value  1.720E-04 Weight  2.781E-01 Projection -1.813E-01
:RANK :  ACTIVE   2.28/3  =  75.94 % ; YY RANK   2.21/3  =  73.74 %
 
:BLIM :  VZERO Control Off
:TRUST:  Step 2.01E+00  Charge 6.82E-02 (e) CTO  2.27E-01 (e) PW  3.18E-01 (e)
:DIRM :  MEMORY  3/8  SCALE   1.000 RED  0.44 PRED  0.18 NEXT  0.23 
:TRAVE:  Charge 2.45E-03 (e) CTO  2.45E-03 (e) PW  3.70E-03 (e)
:DIRP :  |MSR1|= 7.106E-04 |PRATT|= 2.714E-03 ANGLE=  63.4 DEGREES
:DIRQ :  |MSR1|= 1.285E-02 |PRATT|= 2.645E-02 ANGLE=  46.6 DEGREES
:DIRT :  |MSR1|= 1.287E-02 |PRATT|= 2.659E-02 ANGLE=  46.8 DEGREES
:MIX  :   MSE1   REGULARIZATION:  2.77E-04 GREED: 0.09231  Newton 1.00  0.4841                
     
       CHARGES OF MIXED CHARGE DENSITY
:CTO   : INTERSTITIAL CHARGE =     2.870688
:CPC   : PW Pseudocharge     =     7.689883
:CTO001: CHARGE SPHERE  1    =    56.129312

:NEC03: NUCLEAR AND ELECTRONIC CHARGE     59.00000    59.00000

PW CHANGE     H    K    L      Current       Change    Residue
:PTO001:      0    0    0  4.75604739E-02 -4.610E-06 -6.546E-05
:PTO002:     -1   -1   -1 -1.40383472E-01  3.641E-05  2.314E-05
:PTO003:      0    0   -2  8.17583461E-02 -6.529E-07  3.044E-05
:PTO004:      0   -2   -2  6.55069709E-02 -3.149E-05 -3.658E-05
:PTO005:     -1   -1   -3 -5.62511392E-02  1.702E-05  2.607E-06
:PTO006:     -2   -2   -2  1.36576285E-02 -9.730E-06 -5.124E-06
:PTO007:      0    0   -4  1.15031439E-03  6.192E-06  9.168E-06
:PTO008:     -1   -3   -3  2.33520720E-03  1.122E-05  1.975E-05
:PTO009:      0   -2   -4 -4.67169557E-03 -2.731E-06 -1.170E-05
:PTO010:     -2   -2   -4 -8.27175406E-03  1.051E-06 -2.183E-08
:PTO011:     -3   -3   -3  2.90866625E-03 -2.661E-06 -4.855E-06
:PTO012:     -1   -1   -5  8.53561852E-03 -7.281E-06 -4.749E-06

:ENE  : ********** TOTAL ENERGY IN Ry =       -18472.13007578

 Flat Integration
 New Mode for Coulomb Integral
 Consistent 3/8+Simpson combinations
 Extension of core to zero
 LDM version in phi
 Fifth-order quadrature in outwin


            ---------
:ITE018: 18. ITERATION
            ---------

:NATO :    1 INDEPENDENT AND    1 TOTAL ATOMS IN UNITCELL
       SUBSTANCE: blebleble                                                   

       LATTICE                      = F   
:POT  : POTENTIAL OPTION EX_LDA EC_LDA VX_LDA VC_LDA
:LAT  : LATTICE CONSTANTS=  9.61244  9.61244  9.61244    1.571    1.571    1.571
:VOL  : UNIT CELL VOLUME =     222.04511
       MODE OF CALCULATION IS       = RELA
       NON-SPINPOLARIZED CALCULATION
:IFFT  : FFT-parameters:   80   80   80 Factor: 2.00


   CONVERGENCE PARAMETER FOR PSEUDOCHARGE: NCON=  9
   MAXIMAL VALUE OF RMT(JATOM)*ABSK(NKK) : RK  =29.95407


:VKCOUL :  VK-COUL convergence: 0.966E-07
       ATOMNUMBER=  1 Pr         VCOUL-ZERO =  0.31145E+00
:FIT001: LUSE= 13 SIGMA OF V-XC FIT FOR ATOM  1  0.4520430E-04
:FIT001: LUSE= 13 SIGMA OF V-XC FIT FOR ATOM  1  0.4520430E-04
:DEN  : DENSITY INTEGRAL  =         -7075.23970167   (Ry)
       ELS_POTENTIAL_AT Z=0 and Z=0.5:  -2.56304  -2.56304
       ELS_POTENTIAL_AT Y=0 and Y=0.5:   0.00000   0.00000
:VZERO:v0,v0c,v0x  -3.55703  -2.56304  -0.99399 v5,v5c,v5x  -3.55703  -2.56304  -0.99399
:VZERY:v0,v0c,v0x  -0.73649   0.00000  -0.73649 v5,v5c,v5x  -0.73649   0.00000  -0.73649
:VZERX:v0,v0c,v0x  -0.73649   0.00000  -0.73649 v5,v5c,v5x  -0.73649   0.00000  -0.73649
:LMAX-WF:   10   Non-Spherical LMAX:   4

          ATOMIC SPHERE DEPENDENT PARAMETERS FOR ATOM  Pr        
:e__0001: OVERALL ENERGY PARAMETER IS    0.4405
          OVERALL BASIS SET ON ATOM IS LAPW
:E0_0001: E( 0)=    0.4405
             APW+lo
:E0_0001: E( 0)=   -2.0269   E(BOTTOM)=   -2.408   E(TOP)=   -1.646  4  5   179
             LOCAL ORBITAL
:E1_0001: E( 1)=    0.8405
             APW+lo
:E1_0001: E( 1)=   -0.6387   E(BOTTOM)=   -1.286   E(TOP)=    0.008  3  4   175
             LOCAL ORBITAL
:E3_0001: E( 3)=    0.6395   E(BOTTOM)=    0.498   E(TOP)=    0.781  0  1   116
             APW+lo
:E2_0001: E( 2)=    0.4405   E(BOTTOM)=    0.289   E(TOP)= -200.000  2 -1    88
             APW+lo

       K=   0.00000   0.00000   0.00000            1
:RKM  : MATRIX SIZE   189LOs:  20  RKM= 8.49  WEIGHT= 1.00  PGR:    
       EIGENVALUES ARE:
:EIG00001:      -1.9928358   -0.6113445   -0.6113445   -0.6113445    0.3898902
:EIG00006:       0.6293824    0.6515393    0.6515393    0.6515393    0.6804524
:EIG00011:       0.6804524    0.6804524    0.7751907    0.7751907    0.7751907
:EIG00016:       0.9658154    0.9658154    1.3755990    1.6197519    1.6197519
:EIG00021:       1.6197519    1.7214350    2.4959324    2.4959324    2.4959324
:EIG00026:       2.6062330    2.6062330    2.6062330    2.7799538    2.7799538
:EIG00031:       3.2083052    3.3606736    3.3606736    3.3606736    3.8211800
:EIG00036:       3.8211800    4.0555154    4.0555154    4.0555154    4.1164578
:EIG00041:       4.1164578    4.1164578    4.1927674    4.1927674    4.1927674
:EIG00046:       4.5042786    4.5042786    4.5042786    4.5850405    4.6096885
 
:EIG00051:       4.6096885    4.7579487    4.7579487    4.7579487    4.7733151
:EIG00056:       4.7733151    4.7733151    4.8811621    4.8851622    4.9869108
:EIG00061:       4.9869108    4.9869108    5.2125296    5.2125296    5.2125296
:EIG00066:       5.5761283    6.4886019    6.5104917    6.5104917    6.9233872
:EIG00071:       6.9233872    6.9233872    7.4803535    7.4803535    7.6453936
:EIG00076:       7.6453936    7.6453936    7.6930709    7.6930709    7.6930709
:EIG00081:       7.8940011    7.8940011    7.8940011    7.9024920    7.9024920
:EIG00086:       8.0428034    8.0428034    8.0428034    8.1172985    8.1172985
:EIG00091:       8.1172985    8.1323845    8.1323845    8.1323845
       ********************************************************

:KPT   :      NUMBER OF K-POINTS:   165
   0.0   0.0 angle (M,z), angle (M,x) deg
 
        SPIN-ORBIT EIGENVALUES:
     K=   0.00000   0.00000   0.00000            1
      MATRIX SIZE=  188   WEIGHT= 1.00
     EIGENVALUES ARE:
          -1.9928358   -1.9928358   -0.7603528   -0.7603528   -0.5414387
          -0.5414387   -0.5414387   -0.5414387    0.3898902    0.3898902
           0.6257452    0.6257452    0.6412189    0.6412189    0.6412189
           0.6412189    0.6631459    0.6631459    0.6797991    0.6797991
           0.6870198    0.6870198    0.6870198    0.6870198    0.7713201
           0.7713201    0.7713201    0.7713201    0.7818248    0.7818248
           0.9661795    0.9661795    0.9661795    0.9661795    1.3756582
           1.3756582    1.6152012    1.6152012    1.6218728    1.6218728

           1.6218728    1.6218728    1.7214350    1.7214350    2.4908028
           2.4908028    2.4908028    2.4908028    2.5056819    2.5056819
           2.5294805    2.5294805    2.6454124    2.6454124    2.6454125
           2.6454125    2.7802467    2.7802467    2.7802467    2.7802467
           3.2083052    3.2083052    3.3602556    3.3602556    3.3608946
           3.3608946    3.3608946    3.3608946    3.8211450    3.8211450
           3.8211450    3.8211450    4.0540935    4.0540935    4.0540935
           4.0540935    4.0586537    4.0586537    4.0809264    4.0809264

           4.1360261    4.1360261    4.1360261    4.1360261    4.1927573
           4.1927573    4.1927725    4.1927725    4.1927725    4.1927725

       ********************************************************
:GAP (global)   :    0.0    Ry =     0.0   eV (metal)
:GAP (this spin):    0.0    Ry =     0.0   eV (metal)
         Bandranges (emin - emax) and occupancy:
:BAN00004:   4   -0.810975   -0.760353  1.00000000
:BAN00005:   5   -0.625508   -0.541439  1.00000000
:BAN00006:   6   -0.625508   -0.541439  1.00000000
:BAN00007:   7   -0.596290   -0.541439  1.00000000
:BAN00008:   8   -0.596290   -0.541439  1.00000000
:BAN00009:   9    0.389890    0.608105  1.00000000
:BAN00010:  10    0.389890    0.608105  1.00000000
:BAN00011:  11    0.549527    0.639127  1.00000000
:BAN00012:  12    0.549527    0.639127  1.00000000
:BAN00013:  13    0.624240    0.646626  0.50000003
:BAN00014:  14    0.624240    0.646626  0.49999997
:BAN00015:  15    0.641219    0.652817  0.00000000
:BAN00016:  16    0.641219    0.652817  0.00000000
:BAN00017:  17    0.647543    0.671179  0.00000000
:BAN00018:  18    0.647543    0.671179  0.00000000
:BAN00019:  19    0.666074    0.679799  0.00000000
        Energy to separate low and high energystates:    0.33989


:NOE  : NUMBER OF ELECTRONS          =   13.000

:FER  : F E R M I - ENERGY(TETRAH.M.)=   0.6401619855
:GMA  : POTENTIAL AND CHARGE CUT-OFF  12.00 Ry**.5

:POS001: ATOM    1 X,Y,Z = 0.00000 0.00000 0.50000  MULT= 1  ZZ= 59.000  Pr        

       LMMAX  5
       LM=   0 0  4 0  4 4  6 0  6 4

:CHA001: TOTAL VALENCE CHARGE INSIDE SPHERE   1 =  10.1313    (RMT=  2.5000 )
:PCS001: PARTIAL CHARGES SPHERE =  1 S,P,D,F,      D-EG,D-T2G 
:QTL001: 2.0338 5.3429 0.6768 2.0773 0.0000 0.0000 0.0000 0.2438 0.4330 0.0000 0.0000 0.0000
        Q-s-low E-s-low   Q-p-low E-p-low   Q-d-low E-d-low   Q-f-low E-f-low
:EPL001:  1.9254 -1.9773    5.2707 -0.6613    0.0022 -0.6503    0.0006 -0.6504
        Q-s-hi  E-s-hi    Q-p-hi  E-p-hi    Q-d-hi  E-d-hi    Q-f-hi  E-f-hi 
:EPH001:  0.1084  0.5389    0.0723  0.5761    0.6746  0.5820    2.0766  0.6240

:CHA  : TOTAL VALENCE CHARGE INSIDE UNIT CELL =      13.000000

:SUM  : SUM OF EIGENVALUES =          -4.947416641


        1.ATOM      Pr                   14 CORE STATES
:1S 001: 1S               -3066.959758653 Ry
:2S 001: 2S                -492.712329553 Ry
:2PP001: 2P*               -465.811539392 Ry
:2P 001: 2P                -430.414023835 Ry
:3S 001: 3S                -105.801650267 Ry
:3PP001: 3P*                -94.339553262 Ry
:3P 001: 3P                 -87.331632032 Ry
:3DD001: 3D*                -67.258810254 Ry
:3D 001: 3D                 -65.747224147 Ry
:4S 001: 4S                 -20.475824265 Ry
:4PP001: 4P*                -16.182459810 Ry
:4P 001: 4P                 -14.654808077 Ry
:4DD001: 4D*                 -7.587319636 Ry
:4D 001: 4D                  -7.317831551 Ry
:CINT001 Core Integral Atom   1   45.999519

       DENSITY AT NUCLEUS
        JATOM        VALENCE       SEMI-CORE          CORE           TOTAL
:RTO001:   1      652.746047        0.000000   656825.264176   657478.010222
     
       CHARGES OF NEW CHARGE DENSITY
:NTO   : INTERSTITIAL CHARGE =     2.868718
:NPC   : PW Pseudocharge     =     7.689416
:NTO001: CHARGE SPHERE  1    =    56.130800

:NEC01: NUCLEAR AND ELECTRONIC CHARGE     59.00000    58.99952
     
       CHARGES OF OLD CHARGE DENSITY
:OTO   : INTERSTITIAL CHARGE =     2.870688
:OPC   : PW Pseudocharge     =     7.689883
:OTO001: CHARGE SPHERE  1    =    56.129312

:NEC02: NUCLEAR AND ELECTRONIC CHARGE     59.00000    59.00000
     
       CONVERGENCE TEST
:DTO001: DIFFERENCE IN SPHERE  1 =  0.0031309

:DIS  :  CHARGE DISTANCE       ( 0.0031309 for atom    1 spin 1)      0.0031309
 PW Mixed is           53
 
******************************************************
* MULTISECANT MIXING VER9 RELEASE 10.4.0              *
* Standard Mode with controls                        *
* Fixed density scale                                *
* Regularization       1.000E-04                     *
* Trust Upper Limit    5.000E+00                     *
* Max Number of Memory Steps    8                    *
******************************************************
 
:PWTMP   1.5660E+02  1.2500E+02  2.2205E+02
:PLANE:  PW TOTAL      3.1620 DISTAN   5.36E-04  1.69E-02 %
:CHARG:  CLM/ATOM    977.1882 DISTAN   7.89E-03  8.07E-04 %
 
Step History
        DMIX         DMIXT        Red     Pred      Trust     Lambda    MagRel    MagAbs     Beta
  1   3.5000E-02   3.5000E-02 -1.00E+00  1.00E+00 -1.00E+01  1.00E+00  3.50E-02  3.50E-02  1.00E+00
  2   1.5000E-01   1.5000E-01  1.15E+00  1.00E+00 -1.00E+01  1.00E+00  1.50E-01  2.65E-02  1.00E+00
  3   6.0000E-02   6.0000E-02  2.95E-01  3.11E-01  3.00E+00  3.00E+00  5.70E-02  1.16E-02  8.00E-01
  4   1.5000E-01   1.5000E-01  4.41E-01  1.80E-01  1.51E+00  3.00E+00  4.52E-01  2.73E-02  1.00E+00
  5   9.2306E-02   9.2306E-02 -1.00E+00  2.31E-01  2.01E+00  1.00E+00  4.84E-01  1.29E-02  1.00E+00
:JACOBIANS    5.077E-03   1.058E+00
  
:NORMS:  1/Froebius, Min, Max, Used   0.4691E+00  0.3898E+00  0.1056E+01  0.5335E+00
:INFO :  Number of Memory Steps    4 Skipping    0
:INFO :  SLambda=    1.9901682535  Max    1.9901682535
:PREDicted Charge, CTotal, PW Trust    1.032E-04   1.032E-04   1.584E-04
:PREDicted DMix, Beta, BLim   3.7182E-01  1.2166E+00  6.8619E-01

Eigenvalues, unscaled except for SY+YY
   #     SY Real        SY Imag          SS             YY         SY+YY Real      SY+YY Imag
   1   9.052327E-01   0.000000E+00   8.641905E-01   3.036841E+00   3.482741E+00   0.000000E+00
   2   2.113024E-01   0.000000E+00   1.596101E-02   9.626389E-01   2.738829E+00   0.000000E+00
   3   1.087076E-06   0.000000E+00   2.349778E-04   5.136026E-04   8.975736E-06   0.000000E+00
   4   3.086134E-04   0.000000E+00   1.782577E-07   6.662836E-06   1.130625E-03   0.000000E+00
 
:INFO :  Singular value  3.484E+00 Weight  1.000E+00 Projection -1.899E-03
:INFO :  Singular value  2.738E+00 Weight  1.000E+00 Projection -1.938E-03
:INFO :  Singular value  1.184E-03 Weight  9.383E-01 Projection  3.010E-01
:INFO :  Singular value  8.568E-06 Weight  7.954E-04 Projection  1.954E-04
:RANK :  ACTIVE   2.94/4  =  73.48 % ; YY RANK   2.74/4  =  68.54 %
 
:BLIM :  VZERO Control Off
:TRUST:  Step 2.69E+00  Charge 5.45E-02 (e) CTO  1.82E-01 (e) PW  2.55E-01 (e)
:DIRM :  MEMORY  4/8  SCALE   1.000 RED  0.30 PRED  0.23 NEXT  0.14 
:TRAVE:  Charge 1.24E-03 (e) CTO  1.24E-03 (e) PW  2.08E-03 (e)
:DIRP :  |MSR1|= 3.461E-04 |PRATT|= 5.359E-04 ANGLE=  38.1 DEGREES
:DIRQ :  |MSR1|= 4.960E-03 |PRATT|= 7.888E-03 ANGLE=  21.6 DEGREES
:DIRT :  |MSR1|= 4.972E-03 |PRATT|= 7.906E-03 ANGLE=  21.7 DEGREES
:MIX  :   MSE1   REGULARIZATION:  3.04E-04 GREED: 0.23076  Newton 1.00  0.6289                
     
       CHARGES OF MIXED CHARGE DENSITY
:CTO   : INTERSTITIAL CHARGE =     2.870656
:CPC   : PW Pseudocharge     =     7.690723
:CTO001: CHARGE SPHERE  1    =    56.129344

:NEC03: NUCLEAR AND ELECTRONIC CHARGE     59.00000    59.00000

PW CHANGE     H    K    L      Current       Change    Residue
:PTO001:      0    0    0  4.75641165E-02  3.643E-06 -2.987E-06
:PTO002:     -1   -1   -1 -1.40398319E-01 -1.485E-05 -2.715E-05
:PTO003:      0    0   -2  8.17699729E-02  1.163E-05  1.789E-05
:PTO004:      0   -2   -2  6.55098148E-02  2.844E-06  5.325E-06
:PTO005:     -1   -1   -3 -5.62492557E-02  1.883E-06  1.444E-06
:PTO006:     -2   -2   -2  1.36593337E-02  1.705E-06  4.311E-06
:PTO007:      0    0   -4  1.14732675E-03 -2.988E-06 -4.995E-06
:PTO008:     -1   -3   -3  2.34078755E-03  5.580E-06  5.907E-06
:PTO009:      0   -2   -4 -4.68237782E-03 -1.068E-05 -1.510E-05
:PTO010:     -2   -2   -4 -8.27415665E-03 -2.403E-06 -2.714E-06
:PTO011:     -3   -3   -3  2.90715002E-03 -1.516E-06 -2.389E-06
:PTO012:     -1   -1   -5  8.54261370E-03  6.995E-06  1.098E-05

:ENE  : ********** TOTAL ENERGY IN Ry =       -18472.13005824

 Flat Integration
 New Mode for Coulomb Integral
 Consistent 3/8+Simpson combinations
 Extension of core to zero
 LDM version in phi
 Fifth-order quadrature in outwin


            ---------
:ITE019: 19. ITERATION
            ---------

:NATO :    1 INDEPENDENT AND    1 TOTAL ATOMS IN UNITCELL
       SUBSTANCE: blebleble                                                   

       LATTICE                      = F   
:POT  : POTENTIAL OPTION EX_LDA EC_LDA VX_LDA VC_LDA
:LAT  : LATTICE CONSTANTS=  9.61244  9.61244  9.61244    1.571    1.571    1.571
:VOL  : UNIT CELL VOLUME =     222.04511
       MODE OF CALCULATION IS       = RELA
       NON-SPINPOLARIZED CALCULATION
:IFFT  : FFT-parameters:   80   80   80 Factor: 2.00


   CONVERGENCE PARAMETER FOR PSEUDOCHARGE: NCON=  9
   MAXIMAL VALUE OF RMT(JATOM)*ABSK(NKK) : RK  =29.95407


:VKCOUL :  VK-COUL convergence: 0.960E-07
       ATOMNUMBER=  1 Pr         VCOUL-ZERO =  0.31148E+00
:FIT001: LUSE= 13 SIGMA OF V-XC FIT FOR ATOM  1  0.4504811E-04
:FIT001: LUSE= 13 SIGMA OF V-XC FIT FOR ATOM  1  0.4504811E-04
:DEN  : DENSITY INTEGRAL  =         -7075.25679706   (Ry)
       ELS_POTENTIAL_AT Z=0 and Z=0.5:  -2.56322  -2.56322
       ELS_POTENTIAL_AT Y=0 and Y=0.5:   0.00000   0.00000
:VZERO:v0,v0c,v0x  -3.55726  -2.56322  -0.99404 v5,v5c,v5x  -3.55726  -2.56322  -0.99404
:VZERY:v0,v0c,v0x  -0.73650   0.00000  -0.73650 v5,v5c,v5x  -0.73650   0.00000  -0.73650
:VZERX:v0,v0c,v0x  -0.73650   0.00000  -0.73650 v5,v5c,v5x  -0.73650   0.00000  -0.73650
:LMAX-WF:   10   Non-Spherical LMAX:   4

          ATOMIC SPHERE DEPENDENT PARAMETERS FOR ATOM  Pr        
:e__0001: OVERALL ENERGY PARAMETER IS    0.4403
          OVERALL BASIS SET ON ATOM IS LAPW
:E0_0001: E( 0)=    0.4403
             APW+lo
:E0_0001: E( 0)=   -2.0269   E(BOTTOM)=   -2.408   E(TOP)=   -1.646  4  5   180
             LOCAL ORBITAL
:E1_0001: E( 1)=    0.8403
             APW+lo
:E1_0001: E( 1)=   -0.6387   E(BOTTOM)=   -1.285   E(TOP)=    0.008  3  4   180
             LOCAL ORBITAL
:E3_0001: E( 3)=    0.6396   E(BOTTOM)=    0.499   E(TOP)=    0.781  0  1   119
             APW+lo
:E2_0001: E( 2)=    0.4403   E(BOTTOM)=    0.289   E(TOP)= -200.000  2 -1    87
             APW+lo

       K=   0.00000   0.00000   0.00000            1
:RKM  : MATRIX SIZE   189LOs:  20  RKM= 8.49  WEIGHT= 1.00  PGR:    
       EIGENVALUES ARE:
:EIG00001:      -1.9927766   -0.6112920   -0.6112920   -0.6112920    0.3899240
:EIG00006:       0.6295374    0.6516034    0.6516034    0.6516034    0.6805689
:EIG00011:       0.6805689    0.6805689    0.7752338    0.7752338    0.7752338
:EIG00016:       0.9658418    0.9658418    1.3756568    1.6197837    1.6197837
:EIG00021:       1.6197837    1.7214648    2.4959935    2.4959935    2.4959935
:EIG00026:       2.6062746    2.6062746    2.6062746    2.7799896    2.7799896
:EIG00031:       3.2083422    3.3607059    3.3607059    3.3607059    3.8212286
:EIG00036:       3.8212286    4.0555693    4.0555693    4.0555693    4.1164930
:EIG00041:       4.1164930    4.1164930    4.1927994    4.1927994    4.1927994
:EIG00046:       4.5043140    4.5043140    4.5043140    4.5850834    4.6097197
 
:EIG00051:       4.6097197    4.7579766    4.7579766    4.7579766    4.7733417
:EIG00056:       4.7733417    4.7733417    4.8811969    4.8851928    4.9869412
:EIG00061:       4.9869412    4.9869412    5.2125563    5.2125563    5.2125563
:EIG00066:       5.5761632    6.4886472    6.5105410    6.5105410    6.9234200
:EIG00071:       6.9234200    6.9234200    7.4804352    7.4804352    7.6454698
:EIG00076:       7.6454698    7.6454698    7.6931207    7.6931207    7.6931207
:EIG00081:       7.8940406    7.8940406    7.8940406    7.9025263    7.9025263
:EIG00086:       8.0428444    8.0428444    8.0428444    8.1173724    8.1173724
:EIG00091:       8.1173724    8.1324222    8.1324222    8.1324222
       ********************************************************

:KPT   :      NUMBER OF K-POINTS:   165
   0.0   0.0 angle (M,z), angle (M,x) deg
 
        SPIN-ORBIT EIGENVALUES:
     K=   0.00000   0.00000   0.00000            1
      MATRIX SIZE=  188   WEIGHT= 1.00
     EIGENVALUES ARE:
          -1.9927766   -1.9927766   -0.7602986   -0.7602986   -0.5413869
          -0.5413869   -0.5413869   -0.5413869    0.3899240    0.3899240
           0.6258981    0.6258981    0.6412886    0.6412886    0.6412886
           0.6412886    0.6632094    0.6632094    0.6799178    0.6799178
           0.6871308    0.6871308    0.6871308    0.6871308    0.7713633
           0.7713633    0.7713633    0.7713633    0.7818676    0.7818676
           0.9662060    0.9662060    0.9662060    0.9662060    1.3757161
           1.3757161    1.6152330    1.6152330    1.6219047    1.6219047

           1.6219047    1.6219047    1.7214648    1.7214648    2.4908642
           2.4908642    2.4908642    2.4908642    2.5057425    2.5057425
           2.5295228    2.5295228    2.6454537    2.6454537    2.6454537
           2.6454537    2.7802825    2.7802825    2.7802825    2.7802825
           3.2083422    3.2083422    3.3602878    3.3602878    3.3609269
           3.3609269    3.3609269    3.3609269    3.8211936    3.8211936
           3.8211936    3.8211936    4.0541475    4.0541475    4.0541475
           4.0541475    4.0587075    4.0587075    4.0809617    4.0809617

           4.1360612    4.1360612    4.1360612    4.1360612    4.1927893
           4.1927893    4.1928045    4.1928045    4.1928045    4.1928045

       ********************************************************
:GAP (global)   :    0.0    Ry =     0.0   eV (metal)
:GAP (this spin):    0.0    Ry =     0.0   eV (metal)
         Bandranges (emin - emax) and occupancy:
:BAN00004:   4   -0.810922   -0.760299  1.00000000
:BAN00005:   5   -0.625459   -0.541387  1.00000000
:BAN00006:   6   -0.625459   -0.541387  1.00000000
:BAN00007:   7   -0.596240   -0.541387  1.00000000
:BAN00008:   8   -0.596240   -0.541387  1.00000000
:BAN00009:   9    0.389924    0.608160  1.00000000
:BAN00010:  10    0.389924    0.608160  1.00000000
:BAN00011:  11    0.549567    0.639234  1.00000000
:BAN00012:  12    0.549567    0.639234  1.00000000
:BAN00013:  13    0.624303    0.646721  0.50000015
:BAN00014:  14    0.624303    0.646721  0.49999985
:BAN00015:  15    0.641289    0.652913  0.00000000
:BAN00016:  16    0.641289    0.652913  0.00000000
:BAN00017:  17    0.647630    0.671311  0.00000000
:BAN00018:  18    0.647630    0.671311  0.00000000
:BAN00019:  19    0.666166    0.679918  0.00000000
        Energy to separate low and high energystates:    0.33992


:NOE  : NUMBER OF ELECTRONS          =   13.000

:FER  : F E R M I - ENERGY(TETRAH.M.)=   0.6402553884
:GMA  : POTENTIAL AND CHARGE CUT-OFF  12.00 Ry**.5

:POS001: ATOM    1 X,Y,Z = 0.00000 0.00000 0.50000  MULT= 1  ZZ= 59.000  Pr        

       LMMAX  5
       LM=   0 0  4 0  4 4  6 0  6 4

:CHA001: TOTAL VALENCE CHARGE INSIDE SPHERE   1 =  10.1306    (RMT=  2.5000 )
:PCS001: PARTIAL CHARGES SPHERE =  1 S,P,D,F,      D-EG,D-T2G 
:QTL001: 2.0338 5.3429 0.6771 2.0762 0.0000 0.0000 0.0000 0.2439 0.4332 0.0000 0.0000 0.0000
        Q-s-low E-s-low   Q-p-low E-p-low   Q-d-low E-d-low   Q-f-low E-f-low
:EPL001:  1.9254 -1.9772    5.2706 -0.6613    0.0022 -0.6502    0.0006 -0.6504
        Q-s-hi  E-s-hi    Q-p-hi  E-p-hi    Q-d-hi  E-d-hi    Q-f-hi  E-f-hi 
:EPH001:  0.1084  0.5389    0.0723  0.5762    0.6749  0.5821    2.0755  0.6241

:CHA  : TOTAL VALENCE CHARGE INSIDE UNIT CELL =      13.000000

:SUM  : SUM OF EIGENVALUES =          -4.946681866


        1.ATOM      Pr                   14 CORE STATES
:1S 001: 1S               -3066.958967459 Ry
:2S 001: 2S                -492.711701677 Ry
:2PP001: 2P*               -465.810876445 Ry
:2P 001: 2P                -430.413374007 Ry
:3S 001: 3S                -105.801290106 Ry
:3PP001: 3P*                -94.339178987 Ry
:3P 001: 3P                 -87.331271252 Ry
:3DD001: 3D*                -67.258414095 Ry
:3D 001: 3D                 -65.746832911 Ry
:4S 001: 4S                 -20.475656959 Ry
:4PP001: 4P*                -16.182295380 Ry
:4P 001: 4P                 -14.654651258 Ry
:4DD001: 4D*                 -7.587171918 Ry
:4D 001: 4D                  -7.317686188 Ry
:CINT001 Core Integral Atom   1   45.999519

       DENSITY AT NUCLEUS
        JATOM        VALENCE       SEMI-CORE          CORE           TOTAL
:RTO001:   1      652.746584        0.000000   656825.194850   657477.941434
     
       CHARGES OF NEW CHARGE DENSITY
:NTO   : INTERSTITIAL CHARGE =     2.869446
:NPC   : PW Pseudocharge     =     7.689768
:NTO001: CHARGE SPHERE  1    =    56.130072

:NEC01: NUCLEAR AND ELECTRONIC CHARGE     59.00000    58.99952
     
       CHARGES OF OLD CHARGE DENSITY
:OTO   : INTERSTITIAL CHARGE =     2.870656
:OPC   : PW Pseudocharge     =     7.690723
:OTO001: CHARGE SPHERE  1    =    56.129344

:NEC02: NUCLEAR AND ELECTRONIC CHARGE     59.00000    59.00000
     
       CONVERGENCE TEST
:DTO001: DIFFERENCE IN SPHERE  1 =  0.0011970

:DIS  :  CHARGE DISTANCE       ( 0.0011970 for atom    1 spin 1)      0.0011970
 PW Mixed is           53
 
******************************************************
* MULTISECANT MIXING VER9 RELEASE 10.4.0              *
* Standard Mode with controls                        *
* Fixed density scale                                *
* Regularization       1.000E-04                     *
* Trust Upper Limit    5.000E+00                     *
* Max Number of Memory Steps    8                    *
******************************************************
 
:PWTMP   1.5660E+02  1.2500E+02  2.2205E+02
:PLANE:  PW TOTAL      3.1623 DISTAN   2.35E-04  7.42E-03 %
:CHARG:  CLM/ATOM    977.1887 DISTAN   1.47E-03  1.51E-04 %
 
Step History
        DMIX         DMIXT        Red     Pred      Trust     Lambda    MagRel    MagAbs     Beta
  1   3.5000E-02   3.5000E-02 -1.00E+00  1.00E+00 -1.00E+01  1.00E+00  3.50E-02  3.50E-02  1.00E+00
  2   1.5000E-01   1.5000E-01  1.15E+00  1.00E+00 -1.00E+01  1.00E+00  1.50E-01  2.65E-02  1.00E+00
  3   6.0000E-02   6.0000E-02  2.95E-01  3.11E-01  3.00E+00  3.00E+00  5.70E-02  1.16E-02  8.00E-01
  4   1.5000E-01   1.5000E-01  4.41E-01  1.80E-01  1.51E+00  3.00E+00  4.52E-01  2.73E-02  1.00E+00
  5   9.2306E-02   9.2306E-02  2.97E-01  2.31E-01  2.01E+00  1.99E+00  4.84E-01  1.29E-02  1.00E+00
  6   2.3076E-01   2.3076E-01 -1.00E+00  1.42E-01  2.69E+00  1.00E+00  6.29E-01  4.97E-03  1.00E+00
:JACOBIANS    6.772E-03   1.370E+00
  
:NORMS:  1/Froebius, Min, Max, Used   0.5616E+00  0.4372E+00  0.1075E+01  0.6563E+00
:INFO :  Number of Memory Steps    5 Skipping    0
:INFO :  SLambda=    2.0803815688  Max    2.0803815688
:PREDicted Charge, CTotal, PW Trust    7.623E-05   7.623E-05   4.815E-04
:PREDicted DMix, Beta, BLim   1.4462E-01  1.1257E+00  7.1583E-01

Eigenvalues, unscaled except for SY+YY
   #     SY Real        SY Imag          SS             YY         SY+YY Real      SY+YY Imag
   1   1.378053E+00   0.000000E+00   1.318036E+00   3.059784E+00   4.559000E+00   0.000000E+00
   2   3.791522E-01   0.000000E+00   2.438623E-01   1.400127E+00   3.222702E+00   0.000000E+00
   3   1.938201E-01   0.000000E+00   1.492242E-02   5.400774E-01   1.277164E+00   0.000000E+00
   4   9.079557E-07   0.000000E+00   5.139559E-07   6.926828E-06   6.025360E-06   0.000000E+00
   5   1.253223E-06   0.000000E+00   1.000940E-07   3.993132E-06   9.653799E-06   0.000000E+00
 
:INFO :  Singular value  4.560E+00 Weight  1.000E+00 Projection -7.108E-04
:INFO :  Singular value  3.222E+00 Weight  1.000E+00 Projection -3.858E-04
:INFO :  Singular value  1.277E+00 Weight  1.000E+00 Projection -7.783E-04
:INFO :  Singular value  9.772E-06 Weight  1.019E-03 Projection  1.448E-04
:INFO :  Singular value  5.952E-06 Weight  3.783E-04 Projection -2.345E-05
:RANK :  ACTIVE   3.00/5  =  60.03 % ; YY RANK   3.00/5  =  60.01 %
 
:BLIM :  VZERO Control Off
:TRUST:  Step 3.58E+00  Charge 4.36E-02 (e) CTO  1.45E-01 (e) PW  2.04E-01 (e)
:DIRM :  MEMORY  5/8  SCALE   1.000 RED  0.19 PRED  0.14 NEXT  0.31 
:TRAVE:  Charge 6.56E-04 (e) CTO  6.56E-04 (e) PW  1.06E-03 (e)
:DIRP :  |MSR1|= 6.495E-05 |PRATT|= 2.346E-04 ANGLE=  32.3 DEGREES
:DIRQ :  |MSR1|= 6.941E-04 |PRATT|= 1.474E-03 ANGLE=  42.9 DEGREES
:DIRT :  |MSR1|= 6.971E-04 |PRATT|= 1.493E-03 ANGLE=  42.9 DEGREES
:MIX  :   MSE1   REGULARIZATION:  3.06E-04 GREED: 0.15568  Newton 1.00  0.4670                
     
       CHARGES OF MIXED CHARGE DENSITY
:CTO   : INTERSTITIAL CHARGE =     2.870588
:CPC   : PW Pseudocharge     =     7.690873
:CTO001: CHARGE SPHERE  1    =    56.129412

:NEC03: NUCLEAR AND ELECTRONIC CHARGE     59.00000    59.00000

PW CHANGE     H    K    L      Current       Change    Residue
:PTO001:      0    0    0  4.75644827E-02  3.662E-07 -1.769E-06
:PTO002:     -1   -1   -1 -1.40401880E-01 -3.562E-06 -1.376E-05
:PTO003:      0    0   -2  8.17718291E-02  1.856E-06  5.968E-06
:PTO004:      0   -2   -2  6.55106203E-02  8.056E-07  3.181E-06
:PTO005:     -1   -1   -3 -5.62490493E-02  2.064E-07 -1.191E-06
:PTO006:     -2   -2   -2  1.36597219E-02  3.881E-07  1.147E-06
:PTO007:      0    0   -4  1.14674344E-03 -5.833E-07 -1.045E-06
:PTO008:     -1   -3   -3  2.34159903E-03  8.115E-07  1.924E-06
:PTO009:      0   -2   -4 -4.68411141E-03 -1.734E-06 -3.427E-06
:PTO010:     -2   -2   -4 -8.27462487E-03 -4.682E-07 -1.460E-06
:PTO011:     -3   -3   -3  2.90697212E-03 -1.779E-07 -3.217E-08
:PTO012:     -1   -1   -5  8.54387970E-03  1.266E-06  2.480E-06

:ENE  : ********** TOTAL ENERGY IN Ry =       -18472.13005767

 Flat Integration
 New Mode for Coulomb Integral
 Consistent 3/8+Simpson combinations
 Extension of core to zero
 LDM version in phi
 Fifth-order quadrature in outwin


            ---------
:ITE020: 20. ITERATION
            ---------

:NATO :    1 INDEPENDENT AND    1 TOTAL ATOMS IN UNITCELL
       SUBSTANCE: blebleble                                                   

       LATTICE                      = F   
:POT  : POTENTIAL OPTION EX_LDA EC_LDA VX_LDA VC_LDA
:LAT  : LATTICE CONSTANTS=  9.61244  9.61244  9.61244    1.571    1.571    1.571
:VOL  : UNIT CELL VOLUME =     222.04511
       MODE OF CALCULATION IS       = RELA
       NON-SPINPOLARIZED CALCULATION
:IFFT  : FFT-parameters:   80   80   80 Factor: 2.00


   CONVERGENCE PARAMETER FOR PSEUDOCHARGE: NCON=  9
   MAXIMAL VALUE OF RMT(JATOM)*ABSK(NKK) : RK  =29.95407


:VKCOUL :  VK-COUL convergence: 0.960E-07
       ATOMNUMBER=  1 Pr         VCOUL-ZERO =  0.31148E+00
:FIT001: LUSE= 13 SIGMA OF V-XC FIT FOR ATOM  1  0.4503771E-04
:FIT001: LUSE= 13 SIGMA OF V-XC FIT FOR ATOM  1  0.4503771E-04
:DEN  : DENSITY INTEGRAL  =         -7075.26450282   (Ry)
       ELS_POTENTIAL_AT Z=0 and Z=0.5:  -2.56323  -2.56323
       ELS_POTENTIAL_AT Y=0 and Y=0.5:   0.00000   0.00000
:VZERO:v0,v0c,v0x  -3.55727  -2.56323  -0.99404 v5,v5c,v5x  -3.55727  -2.56323  -0.99404
:VZERY:v0,v0c,v0x  -0.73650   0.00000  -0.73650 v5,v5c,v5x  -0.73650   0.00000  -0.73650
:VZERX:v0,v0c,v0x  -0.73650   0.00000  -0.73650 v5,v5c,v5x  -0.73650   0.00000  -0.73650
:LMAX-WF:   10   Non-Spherical LMAX:   4

          ATOMIC SPHERE DEPENDENT PARAMETERS FOR ATOM  Pr        
:e__0001: OVERALL ENERGY PARAMETER IS    0.4403
          OVERALL BASIS SET ON ATOM IS LAPW
:E0_0001: E( 0)=    0.4403
             APW+lo
:E0_0001: E( 0)=   -2.0268   E(BOTTOM)=   -2.408   E(TOP)=   -1.646  4  5   180
             LOCAL ORBITAL
:E1_0001: E( 1)=    0.8403
             APW+lo
:E1_0001: E( 1)=   -0.6386   E(BOTTOM)=   -1.285   E(TOP)=    0.008  3  4   178
             LOCAL ORBITAL
:E3_0001: E( 3)=    0.6397   E(BOTTOM)=    0.499   E(TOP)=    0.781  0  1   120
             APW+lo
:E2_0001: E( 2)=    0.4403   E(BOTTOM)=    0.289   E(TOP)= -200.000  2 -1    87
             APW+lo

       K=   0.00000   0.00000   0.00000            1
:RKM  : MATRIX SIZE   189LOs:  20  RKM= 8.49  WEIGHT= 1.00  PGR:    
       EIGENVALUES ARE:
:EIG00001:      -1.9927347   -0.6112568   -0.6112568   -0.6112568    0.3899300
:EIG00006:       0.6296109    0.6516658    0.6516658    0.6516658    0.6806433
:EIG00011:       0.6806433    0.6806433    0.7752493    0.7752493    0.7752493
:EIG00016:       0.9658578    0.9658578    1.3756730    1.6197902    1.6197902
:EIG00021:       1.6197902    1.7214624    2.4960135    2.4960135    2.4960135
:EIG00026:       2.6062896    2.6062896    2.6062896    2.7800016    2.7800016
:EIG00031:       3.2083515    3.3607119    3.3607119    3.3607119    3.8212402
:EIG00036:       3.8212402    4.0555822    4.0555822    4.0555822    4.1164989
:EIG00041:       4.1164989    4.1164989    4.1928074    4.1928074    4.1928074
:EIG00046:       4.5043180    4.5043180    4.5043180    4.5850919    4.6097229
 
:EIG00051:       4.6097229    4.7579793    4.7579793    4.7579793    4.7733431
:EIG00056:       4.7733431    4.7733431    4.8812052    4.8851929    4.9869414
:EIG00061:       4.9869414    4.9869414    5.2125561    5.2125561    5.2125561
:EIG00066:       5.5761646    6.4886544    6.5105486    6.5105486    6.9234242
[...]
:3DD001: 3D*                -67.258239473 Ry
:3D 001: 3D                 -65.746659563 Ry
:4S 001: 4S                 -20.475553342 Ry
:4PP001: 4P*                -16.182193302 Ry
:4P 001: 4P                 -14.654552365 Ry
:4DD001: 4D*                 -7.587077552 Ry
:4D 001: 4D                  -7.317592850 Ry
:CINT001 Core Integral Atom   1   45.999519

       DENSITY AT NUCLEUS
        JATOM        VALENCE       SEMI-CORE          CORE           TOTAL
:RTO001:   1      652.746434        0.000000   656825.175160   657477.921594
     
       CHARGES OF NEW CHARGE DENSITY
:NTO   : INTERSTITIAL CHARGE =     2.870103
:NPC   : PW Pseudocharge     =     7.690043
:NTO001: CHARGE SPHERE  1    =    56.129415

:NEC01: NUCLEAR AND ELECTRONIC CHARGE     59.00000    58.99952
     
       CHARGES OF OLD CHARGE DENSITY
:OTO   : INTERSTITIAL CHARGE =     2.870588
:OPC   : PW Pseudocharge     =     7.690873
:OTO001: CHARGE SPHERE  1    =    56.129412

:NEC02: NUCLEAR AND ELECTRONIC CHARGE     59.00000    59.00000
     
       CONVERGENCE TEST
:DTO001: DIFFERENCE IN SPHERE  1 =  0.0003616

:DIS  :  CHARGE DISTANCE       ( 0.0003616 for atom    1 spin 1)      0.0003616
 PW Mixed is           53
 
******************************************************
* MULTISECANT MIXING VER9 RELEASE 10.4.0              *
* Standard Mode with controls                        *
* Fixed density scale                                *
* Regularization       1.000E-04                     *
* Trust Upper Limit    5.000E+00                     *
* Max Number of Memory Steps    8                    *
******************************************************
 
:PWTMP   1.5660E+02  1.2500E+02  2.2205E+02
:PLANE:  PW TOTAL      3.1624 DISTAN   1.82E-04  5.77E-03 %
:CHARG:  CLM/ATOM    977.1889 DISTAN   4.01E-04  4.11E-05 %
 
Step History
        DMIX         DMIXT        Red     Pred      Trust     Lambda    MagRel    MagAbs     Beta
  1   3.5000E-02   3.5000E-02 -1.00E+00  1.00E+00 -1.00E+01  1.00E+00  3.50E-02  3.50E-02  1.00E+00
  2   1.5000E-01   1.5000E-01  1.15E+00  1.00E+00 -1.00E+01  1.00E+00  1.50E-01  2.65E-02  1.00E+00
  3   6.0000E-02   6.0000E-02  2.95E-01  3.11E-01  3.00E+00  3.00E+00  5.70E-02  1.16E-02  8.00E-01
  4   1.5000E-01   1.5000E-01  4.41E-01  1.80E-01  1.51E+00  3.00E+00  4.52E-01  2.73E-02  1.00E+00
  5   9.2306E-02   9.2306E-02  2.97E-01  2.31E-01  2.01E+00  1.99E+00  4.84E-01  1.29E-02  1.00E+00
  6   2.3076E-01   2.3076E-01  1.89E-01  1.42E-01  2.69E+00  2.08E+00  6.29E-01  4.97E-03  1.00E+00
  7   1.5568E-01   1.5568E-01 -1.00E+00  3.14E-01  3.58E+00  1.00E+00  4.67E-01  6.97E-04  1.00E+00
:JACOBIANS    9.061E-02   1.829E+00
  
:NORMS:  1/Froebius, Min, Max, Used   0.5352E+00  0.4750E+00  0.9872E+00  0.5855E+00
:INFO :  Number of Memory Steps    6 Skipping    0
:INFO :  SLambda=    2.1050956922  Max    2.1050956922
:PREDicted Charge, CTotal, PW Trust    1.408E-04   1.408E-04   2.660E-04
:PREDicted DMix, Beta, BLim   6.5213E-01  1.0974E+00  5.9567E-01

Eigenvalues, unscaled except for SY+YY
   #     SY Real        SY Imag          SS             YY         SY+YY Real      SY+YY Imag
   1   1.503466E+00   0.000000E+00   1.388521E+00   4.050302E+00   5.938832E+00   0.000000E+00
   2   4.989727E-01   0.000000E+00   3.142477E-01   1.372281E+00   3.330051E+00   0.000000E+00
   3   1.849681E-01   0.000000E+00   1.486981E-02   5.758042E-01   1.334170E+00   0.000000E+00
   4   1.296424E-03   0.000000E+00   1.039516E-03   1.605784E-03   4.369877E-03   0.000000E+00
   5   7.728695E-07   0.000000E+00   1.640794E-07   4.844941E-06   6.203264E-06   0.000000E+00
   6   4.661270E-07   0.000000E+00   6.954099E-08   2.334583E-06   3.533154E-06   0.000000E+00
 
:INFO :  Singular value  5.940E+00 Weight  1.000E+00 Projection -6.067E-05
:INFO :  Singular value  3.330E+00 Weight  1.000E+00 Projection  8.946E-05
:INFO :  Singular value  1.334E+00 Weight  1.000E+00 Projection -9.586E-05
:INFO :  Singular value  4.371E-03 Weight  9.915E-01 Projection -9.368E-03
:INFO :  Singular value  6.206E-06 Weight  2.347E-04 Projection  1.609E-06
:INFO :  Singular value  3.530E-06 Weight  7.597E-05 Projection -1.243E-06
:RANK :  ACTIVE   3.99/6  =  66.53 % ; YY RANK   3.94/6  =  65.67 %
 
:BLIM :  VZERO Control Off
:TRUST:  Step 4.77E+00  Charge 3.49E-02 (e) CTO  1.16E-01 (e) PW  1.63E-01 (e)
:DIRM :  MEMORY  6/8  SCALE   1.000 RED  0.30 PRED  0.31 NEXT  0.08 
:TRAVE:  Charge 3.58E-04 (e) CTO  3.58E-04 (e) PW  6.26E-04 (e)
:DIRP :  |MSR1|= 1.608E-04 |PRATT|= 1.824E-04 ANGLE=   5.1 DEGREES
:DIRQ :  |MSR1|= 2.788E-04 |PRATT|= 4.013E-04 ANGLE=  18.7 DEGREES
:DIRT :  |MSR1|= 3.219E-04 |PRATT|= 4.408E-04 ANGLE=  17.6 DEGREES
:MIX  :   MSE1   REGULARIZATION:  4.05E-04 GREED: 0.35000  Newton 1.00  0.7302                
     
       CHARGES OF MIXED CHARGE DENSITY
:CTO   : INTERSTITIAL CHARGE =     2.870528
:CPC   : PW Pseudocharge     =     7.691271
:CTO001: CHARGE SPHERE  1    =    56.129472

:NEC03: NUCLEAR AND ELECTRONIC CHARGE     59.00000    59.00000

PW CHANGE     H    K    L      Current       Change    Residue
:PTO001:      0    0    0  4.75660054E-02  1.523E-06  2.064E-06
:PTO002:     -1   -1   -1 -1.40411337E-01 -9.457E-06 -1.051E-05
:PTO003:      0    0   -2  8.17752376E-02  3.409E-06  3.370E-06
:PTO004:      0   -2   -2  6.55133622E-02  2.742E-06  2.952E-06
:PTO005:     -1   -1   -3 -5.62499784E-02 -9.291E-07 -7.193E-07
:PTO006:     -2   -2   -2  1.36600709E-02  3.490E-07  3.558E-07
:PTO007:      0    0   -4  1.14623003E-03 -5.134E-07 -6.388E-07
:PTO008:     -1   -3   -3  2.34286536E-03  1.266E-06  1.337E-06
:PTO009:      0   -2   -4 -4.68570373E-03 -1.592E-06 -1.765E-06
:PTO010:     -2   -2   -4 -8.27581177E-03 -1.187E-06 -1.307E-06
:PTO011:     -3   -3   -3  2.90724836E-03  2.762E-07  3.093E-07
:PTO012:     -1   -1   -5  8.54498963E-03  1.110E-06  1.286E-06

:ENE  : ********** TOTAL ENERGY IN Ry =       -18472.13005736

 Flat Integration
 New Mode for Coulomb Integral
 Consistent 3/8+Simpson combinations
 Extension of core to zero
 LDM version in phi
 Fifth-order quadrature in outwin


            ---------
:ITE021: 21. ITERATION
            ---------

:NATO :    1 INDEPENDENT AND    1 TOTAL ATOMS IN UNITCELL
       SUBSTANCE: blebleble                                                   

       LATTICE                      = F   
:POT  : POTENTIAL OPTION EX_LDA EC_LDA VX_LDA VC_LDA
:LAT  : LATTICE CONSTANTS=  9.61244  9.61244  9.61244    1.571    1.571    1.571
:VOL  : UNIT CELL VOLUME =     222.04511
       MODE OF CALCULATION IS       = RELA
       NON-SPINPOLARIZED CALCULATION
:IFFT  : FFT-parameters:   80   80   80 Factor: 2.00


   CONVERGENCE PARAMETER FOR PSEUDOCHARGE: NCON=  9
   MAXIMAL VALUE OF RMT(JATOM)*ABSK(NKK) : RK  =29.95407


:VKCOUL :  VK-COUL convergence: 0.960E-07
       ATOMNUMBER=  1 Pr         VCOUL-ZERO =  0.31150E+00
:FIT001: LUSE= 13 SIGMA OF V-XC FIT FOR ATOM  1  0.4506198E-04
:FIT001: LUSE= 13 SIGMA OF V-XC FIT FOR ATOM  1  0.4506198E-04
:DEN  : DENSITY INTEGRAL  =         -7075.26601716   (Ry)
       ELS_POTENTIAL_AT Z=0 and Z=0.5:  -2.56331  -2.56331
       ELS_POTENTIAL_AT Y=0 and Y=0.5:   0.00000   0.00000
:VZERO:v0,v0c,v0x  -3.55734  -2.56331  -0.99403 v5,v5c,v5x  -3.55734  -2.56331  -0.99403
:VZERY:v0,v0c,v0x  -0.73650   0.00000  -0.73650 v5,v5c,v5x  -0.73650   0.00000  -0.73650
:VZERX:v0,v0c,v0x  -0.73650   0.00000  -0.73650 v5,v5c,v5x  -0.73650   0.00000  -0.73650
:LMAX-WF:   10   Non-Spherical LMAX:   4

          ATOMIC SPHERE DEPENDENT PARAMETERS FOR ATOM  Pr        
:e__0001: OVERALL ENERGY PARAMETER IS    0.4403
          OVERALL BASIS SET ON ATOM IS LAPW
:E0_0001: E( 0)=    0.4403
             APW+lo
:E0_0001: E( 0)=   -2.0268   E(BOTTOM)=   -2.408   E(TOP)=   -1.646  4  5   181
             LOCAL ORBITAL
:E1_0001: E( 1)=    0.8403
             APW+lo
:E1_0001: E( 1)=   -0.6386   E(BOTTOM)=   -1.285   E(TOP)=    0.008  3  4   174
             LOCAL ORBITAL
:E3_0001: E( 3)=    0.6397   E(BOTTOM)=    0.499   E(TOP)=    0.781  0  1   115
             APW+lo
:E2_0001: E( 2)=    0.4403   E(BOTTOM)=    0.289   E(TOP)= -200.000  2 -1    87
             APW+lo

       K=   0.00000   0.00000   0.00000            1
:RKM  : MATRIX SIZE   189LOs:  20  RKM= 8.49  WEIGHT= 1.00  PGR:    
       EIGENVALUES ARE:
:EIG00001:      -1.9927171   -0.6112384   -0.6112384   -0.6112384    0.3899393
:EIG00006:       0.6296154    0.6516714    0.6516714    0.6516714    0.6806472
:EIG00011:       0.6806472    0.6806472    0.7752649    0.7752649    0.7752649
:EIG00016:       0.9658729    0.9658729    1.3756836    1.6197960    1.6197960
:EIG00021:       1.6197960    1.7214669    2.4960261    2.4960261    2.4960261
:EIG00026:       2.6063024    2.6063024    2.6063024    2.7800145    2.7800145
:EIG00031:       3.2083624    3.3607227    3.3607227    3.3607227    3.8212475
:EIG00036:       3.8212475    4.0555950    4.0555950    4.0555950    4.1165076
:EIG00041:       4.1165076    4.1165076    4.1928204    4.1928204    4.1928204
:EIG00046:       4.5043293    4.5043293    4.5043293    4.5850997    4.6097357
 
:EIG00051:       4.6097357    4.7579909    4.7579909    4.7579909    4.7733528
:EIG00056:       4.7733528    4.7733528    4.8812172    4.8852041    4.9869497
:EIG00061:       4.9869497    4.9869497    5.2125649    5.2125649    5.2125649
:EIG00066:       5.5761772    6.4886645    6.5105575    6.5105575    6.9234351
:EIG00071:       6.9234351    6.9234351    7.4804637    7.4804637    7.6454967
:EIG00076:       7.6454967    7.6454967    7.6931464    7.6931464    7.6931464
:EIG00081:       7.8940585    7.8940585    7.8940585    7.9025436    7.9025436
:EIG00086:       8.0428620    8.0428620    8.0428620    8.1173899    8.1173899
:EIG00091:       8.1173899    8.1324389    8.1324389    8.1324389
       ********************************************************

:KPT   :      NUMBER OF K-POINTS:   165
   0.0   0.0 angle (M,z), angle (M,x) deg
 
        SPIN-ORBIT EIGENVALUES:
     K=   0.00000   0.00000   0.00000            1
      MATRIX SIZE=  188   WEIGHT= 1.00
     EIGENVALUES ARE:
          -1.9927171   -1.9927171   -0.7602434   -0.7602434   -0.5413342
          -0.5413342   -0.5413342   -0.5413342    0.3899393    0.3899393
           0.6259763    0.6259763    0.6413580    0.6413580    0.6413580
           0.6413580    0.6632771    0.6632771    0.6799960    0.6799960
           0.6872080    0.6872080    0.6872080    0.6872080    0.7713946
           0.7713946    0.7713946    0.7713946    0.7818986    0.7818986
           0.9662370    0.9662370    0.9662370    0.9662370    1.3757429
           1.3757429    1.6152454    1.6152454    1.6219169    1.6219169

           1.6219169    1.6219169    1.7214669    1.7214669    2.4908968
           2.4908968    2.4908968    2.4908968    2.5057750    2.5057750
           2.5295509    2.5295509    2.6454813    2.6454813    2.6454813
           2.6454813    2.7803074    2.7803074    2.7803074    2.7803074
           3.2083624    3.2083624    3.3603047    3.3603047    3.3609438
           3.3609438    3.3609438    3.3609438    3.8212125    3.8212125
           3.8212125    3.8212125    4.0541731    4.0541731    4.0541731
           4.0541731    4.0587332    4.0587332    4.0809759    4.0809759

           4.1360760    4.1360760    4.1360760    4.1360760    4.1928103
           4.1928103    4.1928255    4.1928255    4.1928255    4.1928255

       ********************************************************
:GAP (global)   :    0.0    Ry =     0.0   eV (metal)
:GAP (this spin):    0.0    Ry =     0.0   eV (metal)
         Bandranges (emin - emax) and occupancy:
:BAN00004:   4   -0.810870   -0.760243  1.00000000
:BAN00005:   5   -0.625410   -0.541334  1.00000000
:BAN00006:   6   -0.625410   -0.541334  1.00000000
:BAN00007:   7   -0.596190   -0.541334  1.00000000
:BAN00008:   8   -0.596190   -0.541334  1.00000000
:BAN00009:   9    0.389939    0.608200  1.00000000
:BAN00010:  10    0.389939    0.608200  1.00000000
:BAN00011:  11    0.549593    0.639306  1.00000000
:BAN00012:  12    0.549593    0.639306  1.00000000
:BAN00013:  13    0.624356    0.646794  0.50000012
:BAN00014:  14    0.624356    0.646794  0.49999988
:BAN00015:  15    0.641358    0.652982  0.00000000
:BAN00016:  16    0.641358    0.652982  0.00000000
:BAN00017:  17    0.647703    0.671388  0.00000000
:BAN00018:  18    0.647703    0.671388  0.00000000
:BAN00019:  19    0.666236    0.679996  0.00000000
        Energy to separate low and high energystates:    0.33994


:NOE  : NUMBER OF ELECTRONS          =   13.000

:FER  : F E R M I - ENERGY(TETRAH.M.)=   0.6403239316
:GMA  : POTENTIAL AND CHARGE CUT-OFF  12.00 Ry**.5

:POS001: ATOM    1 X,Y,Z = 0.00000 0.00000 0.50000  MULT= 1  ZZ= 59.000  Pr        

       LMMAX  5
       LM=   0 0  4 0  4 4  6 0  6 4

:CHA001: TOTAL VALENCE CHARGE INSIDE SPHERE   1 =  10.1300    (RMT=  2.5000 )
:PCS001: PARTIAL CHARGES SPHERE =  1 S,P,D,F,      D-EG,D-T2G 
:QTL001: 2.0338 5.3430 0.6774 2.0753 0.0000 0.0000 0.0000 0.2440 0.4334 0.0000 0.0000 0.0000
        Q-s-low E-s-low   Q-p-low E-p-low   Q-d-low E-d-low   Q-f-low E-f-low
:EPL001:  1.9254 -1.9772    5.2706 -0.6612    0.0022 -0.6502    0.0006 -0.6503
        Q-s-hi  E-s-hi    Q-p-hi  E-p-hi    Q-d-hi  E-d-hi    Q-f-hi  E-f-hi 
:EPH001:  0.1084  0.5389    0.0723  0.5762    0.6751  0.5822    2.0747  0.6241

:CHA  : TOTAL VALENCE CHARGE INSIDE UNIT CELL =      13.000000

:SUM  : SUM OF EIGENVALUES =          -4.946037889


        1.ATOM      Pr                   14 CORE STATES
:1S 001: 1S               -3066.958576929 Ry
:2S 001: 2S                -492.711388282 Ry
:2PP001: 2P*               -465.810546374 Ry
:2P 001: 2P                -430.413050176 Ry
:3S 001: 3S                -105.801106222 Ry
:3PP001: 3P*                -94.338988290 Ry
:3P 001: 3P                 -87.331086998 Ry
:3DD001: 3D*                -67.258212615 Ry
:3D 001: 3D                 -65.746633798 Ry
:4S 001: 4S                 -20.475556776 Ry
:4PP001: 4P*                -16.182195851 Ry
:4P 001: 4P                 -14.654554299 Ry
:4DD001: 4D*                 -7.587077544 Ry
:4D 001: 4D                  -7.317592604 Ry
:CINT001 Core Integral Atom   1   45.999519

       DENSITY AT NUCLEUS
        JATOM        VALENCE       SEMI-CORE          CORE           TOTAL
:RTO001:   1      652.746699        0.000000   656825.163678   657477.910377
     
       CHARGES OF NEW CHARGE DENSITY
:NTO   : INTERSTITIAL CHARGE =     2.870031
:NPC   : PW Pseudocharge     =     7.689983
:NTO001: CHARGE SPHERE  1    =    56.129487

:NEC01: NUCLEAR AND ELECTRONIC CHARGE     59.00000    58.99952
     
       CHARGES OF OLD CHARGE DENSITY
:OTO   : INTERSTITIAL CHARGE =     2.870528
:OPC   : PW Pseudocharge     =     7.691271
:OTO001: CHARGE SPHERE  1    =    56.129472

:NEC02: NUCLEAR AND ELECTRONIC CHARGE     59.00000    59.00000
     
       CONVERGENCE TEST
:DTO001: DIFFERENCE IN SPHERE  1 =  0.0000289

:DIS  :  CHARGE DISTANCE       ( 0.0000289 for atom    1 spin 1)      0.0000289
 PW Mixed is           53
 
******************************************************
* MULTISECANT MIXING VER9 RELEASE 10.4.0              *
* Standard Mode with controls                        *
* Fixed density scale                                *
* Regularization       1.000E-04                     *
* Trust Upper Limit    5.000E+00                     *
* Max Number of Memory Steps    8                    *
******************************************************
 
:PWTMP   1.5660E+02  1.2500E+02  2.2205E+02
:PLANE:  PW TOTAL      3.1626 DISTAN   4.42E-06  1.40E-04 %
:CHARG:  CLM/ATOM    977.1890 DISTAN   3.87E-05  3.96E-06 %
 
Step History
        DMIX         DMIXT        Red     Pred      Trust     Lambda    MagRel    MagAbs     Beta
  1   3.5000E-02   3.5000E-02 -1.00E+00  1.00E+00 -1.00E+01  1.00E+00  3.50E-02  3.50E-02  1.00E+00
  2   1.5000E-01   1.5000E-01  1.15E+00  1.00E+00 -1.00E+01  1.00E+00  1.50E-01  2.65E-02  1.00E+00
  3   6.0000E-02   6.0000E-02  2.95E-01  3.11E-01  3.00E+00  3.00E+00  5.70E-02  1.16E-02  8.00E-01
  4   1.5000E-01   1.5000E-01  4.41E-01  1.80E-01  1.51E+00  3.00E+00  4.52E-01  2.73E-02  1.00E+00
  5   9.2306E-02   9.2306E-02  2.97E-01  2.31E-01  2.01E+00  1.99E+00  4.84E-01  1.29E-02  1.00E+00
  6   2.3076E-01   2.3076E-01  1.89E-01  1.42E-01  2.69E+00  2.08E+00  6.29E-01  4.97E-03  1.00E+00
  7   1.5568E-01   1.5568E-01  2.95E-01  3.14E-01  3.58E+00  2.11E+00  4.67E-01  6.97E-04  1.00E+00
  8   3.5000E-01   3.5000E-01 -1.00E+00  7.99E-02  4.77E+00  1.00E+00  7.30E-01  3.22E-04  1.00E+00
:JACOBIANS    1.387E-01   2.075E+00
  
:NORMS:  1/Froebius, Min, Max, Used   0.5790E+00  0.5381E+00  0.1026E+01  0.5920E+00
:INFO :  Number of Memory Steps    7 Skipping    0
:INFO :  SLambda=    1.8585619094  Max    1.8585619094
:PREDicted Charge, CTotal, PW Trust    6.146E-05   6.146E-05   1.902E-04
:PREDicted DMix, Beta, BLim   1.2351E-02  9.9676E-01  4.2188E+00

Eigenvalues, unscaled except for SY+YY
   #     SY Real        SY Imag          SS             YY         SY+YY Real      SY+YY Imag
   1   1.557800E+00   0.000000E+00   1.459617E+00   4.165325E+00   5.745371E+00   0.000000E+00
   2   7.129411E-01   0.000000E+00   5.801224E-01   1.521120E+00   3.644328E+00   0.000000E+00
   3   5.326852E-01   0.000000E+00   2.938649E-01   8.175677E-01   2.054544E+00   0.000000E+00
   4   1.512638E-01   0.000000E+00   1.342934E-02   4.959791E-01   1.047222E+00   0.000000E+00
   5   1.719949E-06   0.000000E+00   1.884808E-06   4.921139E-06   6.875289E-06   0.000000E+00
   6   5.675519E-07   0.000000E+00   7.761241E-08   2.714898E-06   4.774379E-06   0.000000E+00
   7   2.463040E-07   0.000000E+00   4.645854E-08   6.359533E-07   1.240801E-06   0.000000E+00
 
:INFO :  Singular value  5.765E+00 Weight  1.000E+00 Projection  1.062E-05
:INFO :  Singular value  3.654E+00 Weight  1.000E+00 Projection -8.402E-06
:INFO :  Singular value  2.045E+00 Weight  1.000E+00 Projection -4.173E-06
:INFO :  Singular value  1.046E+00 Weight  1.000E+00 Projection -3.205E-06
:INFO :  Singular value  7.467E-06 Weight  3.213E-04 Projection  4.104E-06
:INFO :  Singular value  4.820E-06 Weight  1.339E-04 Projection -1.213E-06
:INFO :  Singular value  1.132E-06 Weight  7.381E-06 Projection  5.920E-08
:RANK :  ACTIVE   4.00/7  =  57.15 % ; YY RANK   4.00/7  =  57.15 %
 
:DLIM :  Beta Active  9.976E-01
:BLIM :  VZERO Control Off
:TRUST:  Step 1.48E+01  Charge 2.79E-02 (e) CTO  9.31E-02 (e) PW  1.30E-01 (e)
:DIRM :  MEMORY  7/8  SCALE   1.000 RED  0.09 PRED  0.08 NEXT  0.68 BETA  1.00
:TRAVE:  Charge 1.79E-04 (e) CTO  1.79E-04 (e) PW  3.13E-04 (e)
:DIRP :  |MSR1|= 6.272E-07 |PRATT|= 4.417E-06 ANGLE=  27.9 DEGREES
:DIRQ :  |MSR1|= 5.738E-06 |PRATT|= 3.865E-05 ANGLE=  40.0 DEGREES
:DIRT :  |MSR1|= 5.773E-06 |PRATT|= 3.890E-05 ANGLE=  39.9 DEGREES
:MIX  :   MSE1   REGULARIZATION:  4.17E-04 GREED: 0.14000  Newton 1.00  0.1484                
     
       CHARGES OF MIXED CHARGE DENSITY
:CTO   : INTERSTITIAL CHARGE =     2.870527
:CPC   : PW Pseudocharge     =     7.691272
:CTO001: CHARGE SPHERE  1    =    56.129473

:NEC03: NUCLEAR AND ELECTRONIC CHARGE     59.00000    59.00000

PW CHANGE     H    K    L      Current       Change    Residue
:PTO001:      0    0    0  4.75660043E-02 -1.134E-09 -5.474E-08
:PTO002:     -1   -1   -1 -1.40411361E-01 -2.431E-08 -1.337E-07
:PTO003:      0    0   -2  8.17752438E-02  6.139E-09  6.334E-08
:PTO004:      0   -2   -2  6.55133412E-02 -2.103E-08 -1.538E-07
:PTO005:     -1   -1   -3 -5.62499425E-02  3.593E-08  2.065E-07
:PTO006:     -2   -2   -2  1.36600598E-02 -1.105E-08 -8.906E-08
:PTO007:      0    0   -4  1.14622106E-03 -8.976E-09 -3.474E-08
:PTO008:     -1   -3   -3  2.34288157E-03  1.621E-08  1.130E-07
:PTO009:      0   -2   -4 -4.68572464E-03 -2.091E-08 -1.023E-07
:PTO010:     -2   -2   -4 -8.27582420E-03 -1.243E-08 -8.363E-08
:PTO011:     -3   -3   -3  2.90725083E-03  2.472E-09  2.484E-08
:PTO012:     -1   -1   -5  8.54500658E-03  1.694E-08  7.291E-08

:ENE  : ********** TOTAL ENERGY IN Ry =       -18472.13005744

