
------- case.scf0 --------
 Flat Integration
 New Mode for Coulomb Integral
 Consistent 3/8+Simpson combinations
 Extension of core to zero
 LDM version in phi
 Fifth-order quadrature in outwin


            ---------
:ITE020: 20. ITERATION
            ---------

:NATO :    1 INDEPENDENT AND    1 TOTAL ATOMS IN UNITCELL
       SUBSTANCE: blebleble                                                   

       LATTICE                      = F   
:POT  : POTENTIAL OPTION EX_LDA EC_LDA VX_LDA VC_LDA
:LAT  : LATTICE CONSTANTS=  8.39724  8.39724  8.39724    1.571    1.571    1.571
:VOL  : UNIT CELL VOLUME =     148.03009
       MODE OF CALCULATION IS       = RELA
       NON-SPINPOLARIZED CALCULATION
:IFFT  : FFT-parameters:   72   72   72 Factor: 2.00


   CONVERGENCE PARAMETER FOR PSEUDOCHARGE: NCON=  9
   MAXIMAL VALUE OF RMT(JATOM)*ABSK(NKK) : RK  =29.92976


:VKCOUL :  VK-COUL convergence: 0.184E-06
       ATOMNUMBER=  1 Pr         VCOUL-ZERO =  0.69748E+00
:FIT001: LUSE= 13 SIGMA OF V-XC FIT FOR ATOM  1  0.6813007E-04
:FIT001: LUSE= 13 SIGMA OF V-XC FIT FOR ATOM  1  0.6813007E-04
:DEN  : DENSITY INTEGRAL  =         -7098.40175148   (Ry)
       ELS_POTENTIAL_AT Z=0 and Z=0.5:  -2.90465  -2.90465
       ELS_POTENTIAL_AT Y=0 and Y=0.5:   0.00000   0.00000
:VZERO:v0,v0c,v0x  -3.99843  -2.90465  -1.09379 v5,v5c,v5x  -3.99843  -2.90465  -1.09379
:VZERY:v0,v0c,v0x  -0.86784   0.00000  -0.86784 v5,v5c,v5x  -0.86784   0.00000  -0.86784
:VZERX:v0,v0c,v0x  -0.86784   0.00000  -0.86784 v5,v5c,v5x  -0.86784   0.00000  -0.86784

------- case.scf1 --------
:LMAX-WF:   10   Non-Spherical LMAX:   4

          ATOMIC SPHERE DEPENDENT PARAMETERS FOR ATOM  Pr        
:e__0001: OVERALL ENERGY PARAMETER IS    0.8301
          OVERALL BASIS SET ON ATOM IS LAPW
:E0_0001: E( 0)=    0.8301
             APW+lo
:E0_0001: E( 0)=   -1.6173   E(BOTTOM)=   -2.003   E(TOP)=   -1.231  4  5   224
             LOCAL ORBITAL
:E1_0001: E( 1)=    1.2301
             APW+lo
:E1_0001: E( 1)=   -0.2323   E(BOTTOM)=   -0.887   E(TOP)=    0.422  3  4   216
             LOCAL ORBITAL
:E3_0001: E( 3)=    1.0416   E(BOTTOM)=    0.899   E(TOP)=    1.184  0  1   128
             APW+lo
:E2_0001: E( 2)=    0.8301   E(BOTTOM)=    0.679   E(TOP)= -200.000  2 -1   121
             APW+lo

       K=   0.00000   0.00000   0.00000            1
:RKM  : MATRIX SIZE   133LOs:  20  RKM= 8.37  WEIGHT= 1.00  PGR:    
       EIGENVALUES ARE:
:EIG00001:      -1.6346002   -0.1326570   -0.1326570   -0.1326570    0.8419857
:EIG00006:       0.9865071    1.0379801    1.0379801    1.0379801    1.1016877
:EIG00011:       1.1016877    1.1016877    1.1707978    1.1707978    1.1707978
:EIG00016:       1.4748843    1.4748843    1.9277064    2.2593369    2.2593369
:EIG00021:       2.2593369    2.3218980    3.6481039    3.6481039    3.6481039
:EIG00026:       3.8639984    3.8639984    3.8894156    3.8894156    3.8894156
:EIG00031:       4.5782571    4.8211827    4.8211827    4.8211827    5.4719925
:EIG00036:       5.4719925    5.5661224    5.5661224    5.5661224    5.6552513
:EIG00041:       5.6552513    5.6552513    5.7222802    5.7222802    5.7222802
:EIG00046:       5.9936394    5.9936394    5.9936394    6.0871210    6.0871210
 
:EIG00051:       6.2923245    6.4296416    6.4296416    6.4296416    6.5489016
:EIG00056:       6.6111886    6.6111886    6.6111886    6.9707457    7.0487129
:EIG00061:       7.0487129    7.0487129    7.6989458    7.6989458    7.6989458
       ********************************************************

:KPT   :      NUMBER OF K-POINTS:   165

------- case.scfso --------
   0.0   0.0 angle (M,z), angle (M,x) deg
 
        SPIN-ORBIT EIGENVALUES:
     K=   0.00000   0.00000   0.00000            1
      MATRIX SIZE=  130   WEIGHT= 1.00
     EIGENVALUES ARE:
          -1.6346002   -1.6346002   -0.2910018   -0.2910018   -0.0576308
          -0.0576308   -0.0576307   -0.0576307    0.8419857    0.8419857
           0.9849622    0.9849622    1.0298886    1.0298886    1.0298886
           1.0298886    1.0490851    1.0490851    1.0987943    1.0987943
           1.1063542    1.1063542    1.1063542    1.1063542    1.1663528
           1.1663528    1.1663528    1.1663528    1.1787021    1.1787021
           1.4752130    1.4752130    1.4752130    1.4752130    1.9277886
           1.9277886    2.2552898    2.2552898    2.2613629    2.2613629

           2.2613629    2.2613629    2.3218980    2.3218980    3.6427438
           3.6427438    3.6427438    3.6427438    3.6582289    3.6582289
           3.8004151    3.8004151    3.8643269    3.8643269    3.8643269
           3.8643269    3.9345389    3.9345389    3.9345389    3.9345389

       ********************************************************

------- case.scf2 --------
:GMA  : POTENTIAL AND CHARGE CUT-OFF  12.00 Ry**.5




:POS001: at.nr.   1 position = 0.00000 0.00000 0.50000  multiplicity =  1

       lmmax  5
       lm=   0 0  4 0  4 4  6 0  6 4
:FER gutzwiller fermi energy   1.03313
:EORB         -0.000794111
:SUM sum of gutz band energies          0.101543432

:CHA001: total charge inside sphere   1 =    10.577406
:PCS001: partial charges sphere =  1 s,p,d,f,      d-eg,d-t2g 
:QTL001: 2.0376 5.3037 1.0296 2.2027 0.0000 0.0000 0.0000 0.3856 0.6440 0.0000 0.0000 0.0000

:CHA  : total charge inside unit cell =       6.500000

------- case.scfc --------

        1.ATOM      Pr                   14 CORE STATES
:1S 001: 1S               -3066.562039251 Ry
:2S 001: 2S                -492.315231331 Ry
:2PP001: 2P*               -465.413855653 Ry
:2P 001: 2P                -430.016539560 Ry
:3S 001: 3S                -105.412691420 Ry
:3PP001: 3P*                -93.950254973 Ry
:3P 001: 3P                 -86.942568501 Ry
:3DD001: 3D*                -66.868566761 Ry
:3D 001: 3D                 -65.357104047 Ry
:4S 001: 4S                 -20.081002588 Ry
:4PP001: 4P*                -15.786912963 Ry
:4P 001: 4P                 -14.258269546 Ry
:4DD001: 4D*                 -7.188807647 Ry
:4D 001: 4D                  -6.918980680 Ry

------- case.scfm --------
:CINT001 Core Integral Atom   1   45.999514

       DENSITY AT NUCLEUS
        JATOM        VALENCE       SEMI-CORE          CORE           TOTAL
:RTO001:   1      652.338549        0.000000   656826.113433   657478.451981
 :WARNING: K-list has changed
     
       CHARGES OF NEW CHARGE DENSITY
:NTO   : INTERSTITIAL CHARGE =     2.422666
:NPC   : PW Pseudocharge     =     7.969229
:NTO001: CHARGE SPHERE  1    =    56.576921

:NEC01: NUCLEAR AND ELECTRONIC CHARGE     59.00000    58.99959
     
       CHARGES OF OLD CHARGE DENSITY
:OTO   : INTERSTITIAL CHARGE =     2.524612
:OPC   : PW Pseudocharge     =     7.998044
:OTO001: CHARGE SPHERE  1    =    56.475388

:NEC02: NUCLEAR AND ELECTRONIC CHARGE     59.00000    59.00000
     
       CONVERGENCE TEST
:DTO001: DIFFERENCE IN SPHERE  1 =  0.2214366

:DIS  :  CHARGE DISTANCE       ( 0.2214366 for atom    1 spin 1)      0.2214366
 PW Mixed is           36
 
******************************************************
* MULTISECANT MIXING VER9 RELEASE 10.4.0              *
* Standard Mode with controls                        *
* Fixed density scale                                *
* Regularization       1.000E-04                     *
* Trust Upper Limit    5.000E+00                     *
* Max Number of Memory Steps    8                    *
******************************************************
 
:PWTMP   8.2580E+01  1.2500E+02  1.4803E+02
:PLANE:  PW TOTAL      3.2049 DISTAN   3.51E-02  1.10E+00 %
:CHARG:  CLM/ATOM    977.1917 DISTAN   2.39E-01  2.44E-02 %
 
Step History
        DMIX         DMIXT        Red     Pred      Trust     Lambda    MagRel    MagAbs     Beta
  1   3.5000E-02   3.5000E-02 -1.00E+00  1.00E+00 -1.00E+01  1.00E+00  3.50E-02  3.50E-02  1.00E+00
:INFO :  Note, Pratt in use
:TRUST:  Step 3.75E-02  Charge 7.50E-02 (e) CTO  2.50E-01 (e) PW  3.50E-01 (e)
:DIRM :  MEMORY  0/ 8 SCALE   1.000
Performing Pseudo Compensation
Final Pseudo Compensation Rescaling     1.00000E+00
:MIX  :   PRATT  REGULARIZATION:  1.00E-04 GREED: 0.02500                  
     
       CHARGES OF MIXED CHARGE DENSITY
:CTO   : INTERSTITIAL CHARGE =     2.522073
:CPC   : PW Pseudocharge     =     7.996043
:CTO001: CHARGE SPHERE  1    =    56.477927

:NEC03: NUCLEAR AND ELECTRONIC CHARGE     59.00000    59.00000

PW CHANGE     H    K    L      Current       Change    Residue
:PTO001:      0    0    0  7.10539043E-02 -3.067E-05 -8.714E-04
:PTO002:     -1   -1   -1 -1.63647596E-01 -1.639E-04 -9.102E-04
:PTO003:      0    0   -2  8.72960960E-02  1.595E-04  1.318E-03
:PTO004:      0   -2   -2  4.90451840E-02  2.342E-04 -3.760E-04
:PTO005:     -1   -1   -3 -2.18986514E-02 -3.104E-04  3.221E-05
:PTO006:     -2   -2   -2  3.01653445E-03  8.221E-05  2.213E-06
:PTO007:      0    0   -4 -3.16400949E-03  5.720E-06  5.670E-05
:PTO008:     -1   -3   -3  1.10056500E-02  1.117E-04  5.466E-04
:PTO009:      0   -2   -4 -1.11207959E-02 -1.363E-04 -4.771E-04
:PTO010:     -2   -2   -4 -9.55752579E-03 -1.764E-04 -2.040E-05
:PTO011:     -3   -3   -3  2.66110497E-03  5.458E-05 -9.276E-05
:PTO012:     -1   -1   -5  7.36411580E-03  1.702E-04 -2.114E-05

:ENE  : ********** TOTAL ENERGY IN Ry =       -18472.10049494


------- case.scf0 --------
 Flat Integration
 New Mode for Coulomb Integral
 Consistent 3/8+Simpson combinations
 Extension of core to zero
 LDM version in phi
 Fifth-order quadrature in outwin


            ---------
:ITE021: 21. ITERATION
            ---------

:NATO :    1 INDEPENDENT AND    1 TOTAL ATOMS IN UNITCELL
       SUBSTANCE: blebleble                                                   

       LATTICE                      = F   
:POT  : POTENTIAL OPTION EX_LDA EC_LDA VX_LDA VC_LDA
:LAT  : LATTICE CONSTANTS=  8.39724  8.39724  8.39724    1.571    1.571    1.571
:VOL  : UNIT CELL VOLUME =     148.03009
       MODE OF CALCULATION IS       = RELA
       NON-SPINPOLARIZED CALCULATION
:IFFT  : FFT-parameters:   72   72   72 Factor: 2.00


   CONVERGENCE PARAMETER FOR PSEUDOCHARGE: NCON=  9
   MAXIMAL VALUE OF RMT(JATOM)*ABSK(NKK) : RK  =29.92976


:VKCOUL :  VK-COUL convergence: 0.185E-06
       ATOMNUMBER=  1 Pr         VCOUL-ZERO =  0.69649E+00
:FIT001: LUSE= 13 SIGMA OF V-XC FIT FOR ATOM  1  0.6732708E-04
:FIT001: LUSE= 13 SIGMA OF V-XC FIT FOR ATOM  1  0.6732708E-04
:DEN  : DENSITY INTEGRAL  =         -7098.68262314   (Ry)
       ELS_POTENTIAL_AT Z=0 and Z=0.5:  -2.90116  -2.90116
       ELS_POTENTIAL_AT Y=0 and Y=0.5:   0.00000   0.00000
:VZERO:v0,v0c,v0x  -3.99505  -2.90116  -1.09389 v5,v5c,v5x  -3.99505  -2.90116  -1.09389
:VZERY:v0,v0c,v0x  -0.86758   0.00000  -0.86758 v5,v5c,v5x  -0.86758   0.00000  -0.86758
:VZERX:v0,v0c,v0x  -0.86758   0.00000  -0.86758 v5,v5c,v5x  -0.86758   0.00000  -0.86758

------- case.scf1 --------
:LMAX-WF:   10   Non-Spherical LMAX:   4

          ATOMIC SPHERE DEPENDENT PARAMETERS FOR ATOM  Pr        
:e__0001: OVERALL ENERGY PARAMETER IS    0.8301
          OVERALL BASIS SET ON ATOM IS LAPW
:E0_0001: E( 0)=    0.8301
             APW+lo
:E0_0001: E( 0)=   -1.6160   E(BOTTOM)=   -2.002   E(TOP)=   -1.230  4  5   217
             LOCAL ORBITAL
:E1_0001: E( 1)=    1.2301
             APW+lo
:E1_0001: E( 1)=   -0.2314   E(BOTTOM)=   -0.886   E(TOP)=    0.424  3  4   221
             LOCAL ORBITAL
:E3_0001: E( 3)=    1.0446   E(BOTTOM)=    0.902   E(TOP)=    1.187  0  1   118
             APW+lo
:E2_0001: E( 2)=    0.8301   E(BOTTOM)=    0.679   E(TOP)= -200.000  2 -1   120
             APW+lo

       K=   0.00000   0.00000   0.00000            1
:RKM  : MATRIX SIZE   133LOs:  20  RKM= 8.37  WEIGHT= 1.00  PGR:    
       EIGENVALUES ARE:
:EIG00001:      -1.6335021   -0.1317711   -0.1317711   -0.1317711    0.8416187
:EIG00006:       0.9889170    1.0408652    1.0408652    1.0408652    1.1049996
:EIG00011:       1.1049996    1.1049996    1.1705828    1.1705828    1.1705828
:EIG00016:       1.4749250    1.4749250    1.9278910    2.2590977    2.2590977
:EIG00021:       2.2590977    2.3209466    3.6481342    3.6481342    3.6481342
:EIG00026:       3.8636974    3.8636974    3.8892633    3.8892633    3.8892633
:EIG00031:       4.5777104    4.8203228    4.8203228    4.8203228    5.4719265
:EIG00036:       5.4719265    5.5656404    5.5656404    5.5656404    5.6550014
:EIG00041:       5.6550014    5.6550014    5.7218899    5.7218899    5.7218899
:EIG00046:       5.9928634    5.9928634    5.9928634    6.0862858    6.0862858
 
:EIG00051:       6.2917050    6.4288143    6.4288143    6.4288143    6.5478729
:EIG00056:       6.6103134    6.6103134    6.6103134    6.9706710    7.0476012
:EIG00061:       7.0476012    7.0476012    7.6978376    7.6978376    7.6978376
       ********************************************************

:KPT   :      NUMBER OF K-POINTS:   165

------- case.scfso --------
   0.0   0.0 angle (M,z), angle (M,x) deg
 
        SPIN-ORBIT EIGENVALUES:
     K=   0.00000   0.00000   0.00000            1
      MATRIX SIZE=  130   WEIGHT= 1.00
     EIGENVALUES ARE:
          -1.6335021   -1.6335021   -0.2900292   -0.2900292   -0.0567870
          -0.0567870   -0.0567870   -0.0567870    0.8416187    0.8416187
           0.9873912    0.9873912    1.0328081    1.0328081    1.0328081
           1.0328081    1.0519434    1.0519434    1.1020909    1.1020909
           1.1096427    1.1096427    1.1096427    1.1096427    1.1661426
           1.1661426    1.1661426    1.1661426    1.1784799    1.1784799
           1.4752528    1.4752528    1.4752528    1.4752528    1.9279740
           1.9279740    2.2550656    2.2550656    2.2611166    2.2611166

           2.2611166    2.2611166    2.3209466    2.3209466    3.6427751
           3.6427751    3.6427751    3.6427751    3.6582560    3.6582560
           3.8002904    3.8002904    3.8640262    3.8640262    3.8640262
           3.8640262    3.9343702    3.9343702    3.9343702    3.9343702

       ********************************************************

------- case.scf2 --------
:GMA  : POTENTIAL AND CHARGE CUT-OFF  12.00 Ry**.5




:POS001: at.nr.   1 position = 0.00000 0.00000 0.50000  multiplicity =  1

       lmmax  5
       lm=   0 0  4 0  4 4  6 0  6 4
:FER gutzwiller fermi energy   1.03235
:EORB          0.007936407
:SUM sum of gutz band energies          0.104516170

:CHA001: total charge inside sphere   1 =    10.577208
:PCS001: partial charges sphere =  1 s,p,d,f,      d-eg,d-t2g 
:QTL001: 2.0373 5.3021 1.0262 2.2077 0.0000 0.0000 0.0000 0.3844 0.6418 0.0000 0.0000 0.0000

:CHA  : total charge inside unit cell =       6.500000

------- case.scfc --------

        1.ATOM      Pr                   14 CORE STATES
:1S 001: 1S               -3066.555200228 Ry
:2S 001: 2S                -492.308398364 Ry
:2PP001: 2P*               -465.407019661 Ry
:2P 001: 2P                -430.009704808 Ry
:3S 001: 3S                -105.406100640 Ry
:3PP001: 3P*                -93.943644082 Ry
:3P 001: 3P                 -86.935991803 Ry
:3DD001: 3D*                -66.861923754 Ry
:3D 001: 3D                 -65.350469886 Ry
:4S 001: 4S                 -20.076067963 Ry
:4PP001: 4P*                -15.782077538 Ry
:4P 001: 4P                 -14.253589537 Ry
:4DD001: 4D*                 -7.184397777 Ry
:4D 001: 4D                  -6.914623451 Ry

------- case.scfm --------
:CINT001 Core Integral Atom   1   45.999513

       DENSITY AT NUCLEUS
        JATOM        VALENCE       SEMI-CORE          CORE           TOTAL
:RTO001:   1      651.952441        0.000000   656825.770317   657477.722758
     
       CHARGES OF NEW CHARGE DENSITY
:NTO   : INTERSTITIAL CHARGE =     2.422797
:NPC   : PW Pseudocharge     =     7.968963
:NTO001: CHARGE SPHERE  1    =    56.576721

:NEC01: NUCLEAR AND ELECTRONIC CHARGE     59.00000    58.99952
     
       CHARGES OF OLD CHARGE DENSITY
:OTO   : INTERSTITIAL CHARGE =     2.522073
:OPC   : PW Pseudocharge     =     7.996043
:OTO001: CHARGE SPHERE  1    =    56.477927

:NEC02: NUCLEAR AND ELECTRONIC CHARGE     59.00000    59.00000
     
       CONVERGENCE TEST
:DTO001: DIFFERENCE IN SPHERE  1 =  0.2143882

:DIS  :  CHARGE DISTANCE       ( 0.2143882 for atom    1 spin 1)      0.2143882
 PW Mixed is           36
 
******************************************************
* MULTISECANT MIXING VER9 RELEASE 10.4.0              *
* Slow Mode, cautious                                *
* Fixed density scale                                *
* Regularization       1.000E-04                     *
* Step Trust Radius    0.75000                       *
* Trust Upper Limit    2.000E+00                     *
* Max Number of Memory Steps   12                    *
******************************************************
 
:PWTMP   8.2580E+01  1.2500E+02  1.4803E+02
:PLANE:  PW TOTAL      3.2065 DISTAN   3.30E-02  1.03E+00 %
:CHARG:  CLM/ATOM    977.1921 DISTAN   2.31E-01  2.37E-02 %
 
Step History
        DMIX         DMIXT        Red     Pred      Trust     Lambda    MagRel    MagAbs     Beta
  1   3.5000E-02   3.5000E-02 -1.00E+00  1.00E+00 -1.00E+01  1.00E+00  3.50E-02  3.50E-02  1.00E+00
  2   2.5000E-02   2.5000E-02 -1.00E+00  1.00E+00 -1.00E+01  1.00E+00  2.50E-02  6.04E-03  1.00E+00
:JACOBIANS    1.038E-01   1.794E-01
  
:TRUST:  Step 2.89E-02  Charge 7.50E-02 (e) CTO  2.50E-01 (e) PW  3.50E-01 (e)
:DIRM :  MEMORY  1/12 SCALE   1.000
:MIX  :   PRATT  REGULARIZATION:  1.00E-04 GREED: 0.02893  Expand 1.16  0.0289                
     
       CHARGES OF MIXED CHARGE DENSITY
:CTO   : INTERSTITIAL CHARGE =     2.486528
:CPC   : PW Pseudocharge     =     7.968011
:CTO001: CHARGE SPHERE  1    =    56.513472

:NEC03: NUCLEAR AND ELECTRONIC CHARGE     59.00000    59.00000

PW CHANGE     H    K    L      Current       Change    Residue
:PTO001:      0    0    0  7.06244176E-02 -4.295E-04 -8.396E-04
:PTO002:     -1   -1   -1 -1.65942556E-01 -2.295E-03 -7.290E-04
:PTO003:      0    0   -2  8.95290798E-02  2.233E-03  1.148E-03
:PTO004:      0   -2   -2  5.23241883E-02  3.279E-03 -6.256E-04
:PTO005:     -1   -1   -3 -2.62447484E-02 -4.346E-03  3.640E-04
:PTO006:     -2   -2   -2  4.16783850E-03  1.151E-03 -9.061E-05
:PTO007:      0    0   -4 -3.08390501E-03  8.010E-05  5.117E-05
:PTO008:     -1   -3   -3  1.25700059E-02  1.564E-03  4.241E-04
:PTO009:      0   -2   -4 -1.30292327E-02 -1.908E-03 -3.280E-04
:PTO010:     -2   -2   -4 -1.20279276E-02 -2.470E-03  1.621E-04
:PTO011:     -3   -3   -3  3.42537740E-03  7.643E-04 -1.476E-04
:PTO012:     -1   -1   -5  9.74695442E-03  2.383E-03 -1.966E-04

:ENE  : ********** TOTAL ENERGY IN Ry =       -18472.10017825


------- case.scf0 --------
 Flat Integration
 New Mode for Coulomb Integral
 Consistent 3/8+Simpson combinations
 Extension of core to zero
 LDM version in phi
 Fifth-order quadrature in outwin


            ---------
:ITE022: 22. ITERATION
            ---------

:NATO :    1 INDEPENDENT AND    1 TOTAL ATOMS IN UNITCELL
       SUBSTANCE: blebleble                                                   

       LATTICE                      = F   
:POT  : POTENTIAL OPTION EX_LDA EC_LDA VX_LDA VC_LDA
:LAT  : LATTICE CONSTANTS=  8.39724  8.39724  8.39724    1.571    1.571    1.571
:VOL  : UNIT CELL VOLUME =     148.03009
       MODE OF CALCULATION IS       = RELA
       NON-SPINPOLARIZED CALCULATION
:IFFT  : FFT-parameters:   72   72   72 Factor: 2.00


   CONVERGENCE PARAMETER FOR PSEUDOCHARGE: NCON=  9
   MAXIMAL VALUE OF RMT(JATOM)*ABSK(NKK) : RK  =29.92976


:VKCOUL :  VK-COUL convergence: 0.187E-06
       ATOMNUMBER=  1 Pr         VCOUL-ZERO =  0.68267E+00
:FIT001: LUSE= 13 SIGMA OF V-XC FIT FOR ATOM  1  0.5648809E-04
:FIT001: LUSE= 13 SIGMA OF V-XC FIT FOR ATOM  1  0.5648809E-04
:DEN  : DENSITY INTEGRAL  =         -7102.61778638   (Ry)
       ELS_POTENTIAL_AT Z=0 and Z=0.5:  -2.85229  -2.85229
       ELS_POTENTIAL_AT Y=0 and Y=0.5:   0.00000   0.00000
:VZERO:v0,v0c,v0x  -3.94760  -2.85229  -1.09530 v5,v5c,v5x  -3.94760  -2.85229  -1.09530
:VZERY:v0,v0c,v0x  -0.86387   0.00000  -0.86387 v5,v5c,v5x  -0.86387   0.00000  -0.86387
:VZERX:v0,v0c,v0x  -0.86387   0.00000  -0.86387 v5,v5c,v5x  -0.86387   0.00000  -0.86387

------- case.scf1 --------
:LMAX-WF:   10   Non-Spherical LMAX:   4

          ATOMIC SPHERE DEPENDENT PARAMETERS FOR ATOM  Pr        
:e__0001: OVERALL ENERGY PARAMETER IS    0.8301
          OVERALL BASIS SET ON ATOM IS LAPW
:E0_0001: E( 0)=    0.8301
             APW+lo
:E0_0001: E( 0)=   -1.5985   E(BOTTOM)=   -1.990   E(TOP)=   -1.207  4  5   219
             LOCAL ORBITAL
:E1_0001: E( 1)=    1.2301
             APW+lo
:E1_0001: E( 1)=   -0.2187   E(BOTTOM)=   -0.880   E(TOP)=    0.443  3  4   220
             LOCAL ORBITAL
:E3_0001: E( 3)=    1.0875   E(BOTTOM)=    0.938   E(TOP)=    1.237  0  1   127
             APW+lo
:E2_0001: E( 2)=    0.8301   E(BOTTOM)=    0.680   E(TOP)= -200.000  2 -1   115
             APW+lo

       K=   0.00000   0.00000   0.00000            1
:RKM  : MATRIX SIZE   133LOs:  20  RKM= 8.37  WEIGHT= 1.00  PGR:    
       EIGENVALUES ARE:
:EIG00001:      -1.6182340   -0.1194354   -0.1194354   -0.1194354    0.8365394
:EIG00006:       1.0217072    1.0806932    1.0806932    1.0806932    1.1511641
:EIG00011:       1.1511641    1.1511641    1.1675188    1.1675188    1.1675188
:EIG00016:       1.4754327    1.4754327    1.9313775    2.2562440    2.2562440
:EIG00021:       2.2562440    2.3076460    3.6485468    3.6485468    3.6485468
:EIG00026:       3.8594769    3.8594769    3.8871395    3.8871395    3.8871395
:EIG00031:       4.5700521    4.8084947    4.8084947    4.8084947    5.4710234
:EIG00036:       5.4710234    5.5588859    5.5588859    5.5588859    5.6515219
:EIG00041:       5.6515219    5.6515219    5.7164720    5.7164720    5.7164720
:EIG00046:       5.9820165    5.9820165    5.9820165    6.0746063    6.0746063
 
:EIG00051:       6.2830248    6.4172628    6.4172628    6.4172628    6.5335074
:EIG00056:       6.5980883    6.5980883    6.5980883    6.9696671    7.0323461
:EIG00061:       7.0323461    7.0323461    7.6825017    7.6825017    7.6825017
       ********************************************************

:KPT   :      NUMBER OF K-POINTS:   165

------- case.scfso --------
   0.0   0.0 angle (M,z), angle (M,x) deg
 
        SPIN-ORBIT EIGENVALUES:
     K=   0.00000   0.00000   0.00000            1
      MATRIX SIZE=  130   WEIGHT= 1.00
     EIGENVALUES ARE:
          -1.6182340   -1.6182340   -0.2764821   -0.2764821   -0.0450413
          -0.0450413   -0.0450413   -0.0450413    0.8365394    0.8365394
           1.0204277    1.0204277    1.0731123    1.0731123    1.0731123
           1.0731123    1.0913834    1.0913834    1.1480597    1.1480597
           1.1554892    1.1554892    1.1554892    1.1554892    1.1631437
           1.1631437    1.1631437    1.1631437    1.1753163    1.1753163
           1.4757473    1.4757473    1.4757473    1.4757473    1.9314712
           1.9314712    2.2524314    2.2524314    2.2581591    2.2581591

           2.2581591    2.2581591    2.3076460    2.3076460    3.6432046
           3.6432046    3.6432046    3.6432046    3.6586242    3.6586242
           3.7985558    3.7985558    3.8598090    3.8598090    3.8598090
           3.8598090    3.9320134    3.9320134    3.9320134    3.9320134

       ********************************************************

------- case.scf2 --------
:GMA  : POTENTIAL AND CHARGE CUT-OFF  12.00 Ry**.5




:POS001: at.nr.   1 position = 0.00000 0.00000 0.50000  multiplicity =  1

       lmmax  5
       lm=   0 0  4 0  4 4  6 0  6 4
:FER gutzwiller fermi energy   1.03503
:EORB          0.100483562
:SUM sum of gutz band energies          0.177853766

:CHA001: total charge inside sphere   1 =    10.493788
:PCS001: partial charges sphere =  1 s,p,d,f,      d-eg,d-t2g 
:QTL001: 2.0387 5.2892 1.0460 2.1159 0.0000 0.0000 0.0000 0.3896 0.6564 0.0000 0.0000 0.0000

:CHA  : total charge inside unit cell =       6.500000

------- case.scfc --------

        1.ATOM      Pr                   14 CORE STATES
:1S 001: 1S               -3066.459429000 Ry
:2S 001: 2S                -492.212711945 Ry
:2PP001: 2P*               -465.311290883 Ry
:2P 001: 2P                -429.913993380 Ry
:3S 001: 3S                -105.313805654 Ry
:3PP001: 3P*                -93.851067513 Ry
:3P 001: 3P                 -86.843894081 Ry
:3DD001: 3D*                -66.768897566 Ry
:3D 001: 3D                 -65.257567575 Ry
:4S 001: 4S                 -20.006974904 Ry
:4PP001: 4P*                -15.714377212 Ry
:4P 001: 4P                 -14.188068021 Ry
:4DD001: 4D*                 -7.122676034 Ry
:4D 001: 4D                  -6.853640375 Ry

------- case.scfm --------
:CINT001 Core Integral Atom   1   45.999492

       DENSITY AT NUCLEUS
        JATOM        VALENCE       SEMI-CORE          CORE           TOTAL
:RTO001:   1      648.787720        0.000000   656820.962126   657469.749846
     
       CHARGES OF NEW CHARGE DENSITY
:NTO   : INTERSTITIAL CHARGE =     2.506202
:NPC   : PW Pseudocharge     =     8.025805
:NTO001: CHARGE SPHERE  1    =    56.493280

:NEC01: NUCLEAR AND ELECTRONIC CHARGE     59.00000    58.99948
     
       CHARGES OF OLD CHARGE DENSITY
:OTO   : INTERSTITIAL CHARGE =     2.486528
:OPC   : PW Pseudocharge     =     7.968011
:OTO001: CHARGE SPHERE  1    =    56.513472

:NEC02: NUCLEAR AND ELECTRONIC CHARGE     59.00000    59.00000
     
       CONVERGENCE TEST
:DTO001: DIFFERENCE IN SPHERE  1 =  0.0996776

:DIS  :  CHARGE DISTANCE       ( 0.0996776 for atom    1 spin 1)      0.0996776
 PW Mixed is           36
 
******************************************************
* MULTISECANT MIXING VER9 RELEASE 10.4.0              *
* Slow Mode, cautious                                *
* Fixed density scale                                *
* Regularization       1.000E-04                     *
* Step Trust Radius    0.75000                       *
* Trust Upper Limit    2.000E+00                     *
* Max Number of Memory Steps   12                    *
******************************************************
 
:PWTMP   8.2580E+01  1.2500E+02  1.4803E+02
:PLANE:  PW TOTAL      3.2301 DISTAN   7.11E-02  2.20E+00 %
:CHARG:  CLM/ATOM    977.1976 DISTAN   1.12E-01  1.14E-02 %
 
Step History
        DMIX         DMIXT        Red     Pred      Trust     Lambda    MagRel    MagAbs     Beta
  1   3.5000E-02   3.5000E-02 -1.00E+00  1.00E+00 -1.00E+01  1.00E+00  3.50E-02  3.50E-02  1.00E+00
  2   2.5000E-02   2.5000E-02  9.68E-01  1.00E+00 -1.00E+01  1.00E+00  2.50E-02  6.04E-03  1.00E+00
  3   2.8929E-02   2.8929E-02 -1.00E+00  1.00E+00 -1.00E+01  1.00E+00  2.89E-02  6.76E-03  1.00E+00
:JACOBIANS    1.288E-01   1.971E-01
  
:NORMS:  1/Froebius, Min, Max, Used   0.3669E+00  0.2081E+00  0.4161E+00  0.3670E+00
:INFO :  Number of Memory Steps    2 Skipping    0
:INFO :  SLambda=    2.7493571531  Max    2.7493571531
:PREDicted Charge, CTotal, PW Trust    2.086E-02   2.086E-02   2.082E-02
:PREDicted DMix, Beta, BLim   1.1036E-01  5.5864E-01  2.7684E-01

Eigenvalues, unscaled except for SY+YY
   #     SY Real        SY Imag          SS             YY         SY+YY Real      SY+YY Imag
   1   6.344333E-01   0.000000E+00   2.692974E-01   1.999841E+00   3.744102E+00   0.000000E+00
   2   4.884981E-15   0.000000E+00   2.775558E-17   1.585160E-04   1.815390E-04   0.000000E+00
 
:INFO :  Singular value  3.744E+00 Weight  1.000E+00 Projection  6.271E-02
:INFO :  Singular value  1.815E-04 Weight  4.518E-01 Projection -1.642E+00
:RANK :  ACTIVE   1.45/2  =  72.59 % ; YY RANK   1.39/2  =  69.29 %
 
:DLIM :  Beta Active  8.000E-01
:BLIM :  VZERO Control Off
:TRUST:  Step 3.33E-01  Charge 7.50E-02 (e) CTO  2.50E-01 (e) PW  3.50E-01 (e)
:DIRM :  MEMORY  2/12 SCALE   1.000 RED  0.57 PRED  1.00 NEXT  0.69 BETA  0.80
:TRAVE:  Charge 1.18E-02 (e) CTO  1.18E-02 (e) PW  1.36E-02 (e)
:DIRP :  |MSR1|= 2.693E-02 |PRATT|= 7.114E-02 ANGLE=  10.1 DEGREES
:DIRQ :  |MSR1|= 2.754E-02 |PRATT|= 1.116E-01 ANGLE=  58.7 DEGREES
:DIRT :  |MSR1|= 3.851E-02 |PRATT|= 1.324E-01 ANGLE=  46.9 DEGREES
:MIX  :   MSE1   REGULARIZATION:  2.00E-04 GREED: 0.06991  Newton 1.00  0.2909                
     
       CHARGES OF MIXED CHARGE DENSITY
:CTO   : INTERSTITIAL CHARGE =     2.498339
:CPC   : PW Pseudocharge     =     7.980524
:CTO001: CHARGE SPHERE  1    =    56.501661

:NEC03: NUCLEAR AND ELECTRONIC CHARGE     59.00000    59.00000

PW CHANGE     H    K    L      Current       Change    Residue
:PTO001:      0    0    0  7.07887357E-02  1.643E-04  5.380E-04
:PTO002:     -1   -1   -1 -1.65086393E-01  8.562E-04  1.820E-03
:PTO003:      0    0   -2  8.87181133E-02 -8.110E-04 -1.447E-03
:PTO004:      0   -2   -2  5.10008893E-02 -1.323E-03 -3.942E-03
:PTO005:     -1   -1   -3 -2.45092144E-02  1.736E-03  5.006E-03
:PTO006:     -2   -2   -2  3.70938040E-03 -4.585E-04 -1.328E-03
:PTO007:      0    0   -4 -3.11402202E-03 -3.012E-05 -6.890E-05
:PTO008:     -1   -3   -3  1.19803920E-02 -5.896E-04 -1.325E-03
:PTO009:      0   -2   -4 -1.23012169E-02  7.280E-04  1.726E-03
:PTO010:     -2   -2   -4 -1.10471921E-02  9.807E-04  2.727E-03
:PTO011:     -3   -3   -3  3.11550219E-03 -3.099E-04 -9.277E-04
:PTO012:     -1   -1   -5  8.80066875E-03 -9.463E-04 -2.625E-03

:ENE  : ********** TOTAL ENERGY IN Ry =       -18472.09612730


------- case.scf0 --------
 Flat Integration
 New Mode for Coulomb Integral
 Consistent 3/8+Simpson combinations
 Extension of core to zero
 LDM version in phi
 Fifth-order quadrature in outwin


            ---------
:ITE023: 23. ITERATION
            ---------

:NATO :    1 INDEPENDENT AND    1 TOTAL ATOMS IN UNITCELL
       SUBSTANCE: blebleble                                                   

       LATTICE                      = F   
:POT  : POTENTIAL OPTION EX_LDA EC_LDA VX_LDA VC_LDA
:LAT  : LATTICE CONSTANTS=  8.39724  8.39724  8.39724    1.571    1.571    1.571
:VOL  : UNIT CELL VOLUME =     148.03009
       MODE OF CALCULATION IS       = RELA
       NON-SPINPOLARIZED CALCULATION
:IFFT  : FFT-parameters:   72   72   72 Factor: 2.00


   CONVERGENCE PARAMETER FOR PSEUDOCHARGE: NCON=  9
   MAXIMAL VALUE OF RMT(JATOM)*ABSK(NKK) : RK  =29.92976


:VKCOUL :  VK-COUL convergence: 0.182E-06
       ATOMNUMBER=  1 Pr         VCOUL-ZERO =  0.68793E+00
:FIT001: LUSE= 13 SIGMA OF V-XC FIT FOR ATOM  1  0.5889185E-04
:FIT001: LUSE= 13 SIGMA OF V-XC FIT FOR ATOM  1  0.5889185E-04
:DEN  : DENSITY INTEGRAL  =         -7101.27214753   (Ry)
       ELS_POTENTIAL_AT Z=0 and Z=0.5:  -2.87042  -2.87042
       ELS_POTENTIAL_AT Y=0 and Y=0.5:   0.00000   0.00000
:VZERO:v0,v0c,v0x  -3.96544  -2.87042  -1.09503 v5,v5c,v5x  -3.96544  -2.87042  -1.09503
:VZERY:v0,v0c,v0x  -0.86526   0.00000  -0.86526 v5,v5c,v5x  -0.86526   0.00000  -0.86526
:VZERX:v0,v0c,v0x  -0.86526   0.00000  -0.86526 v5,v5c,v5x  -0.86526   0.00000  -0.86526

------- case.scf1 --------
:LMAX-WF:   10   Non-Spherical LMAX:   4

          ATOMIC SPHERE DEPENDENT PARAMETERS FOR ATOM  Pr        
:e__0001: OVERALL ENERGY PARAMETER IS    0.8301
          OVERALL BASIS SET ON ATOM IS LAPW
:E0_0001: E( 0)=    0.8301
             APW+lo
:E0_0001: E( 0)=   -1.6039   E(BOTTOM)=   -1.994   E(TOP)=   -1.214  4  5   220
             LOCAL ORBITAL
:E1_0001: E( 1)=    1.2301
             APW+lo
:E1_0001: E( 1)=   -0.2225   E(BOTTOM)=   -0.882   E(TOP)=    0.437  3  4   223
             LOCAL ORBITAL
:E3_0001: E( 3)=    1.0735   E(BOTTOM)=    0.926   E(TOP)=    1.221  0  1   123
             APW+lo
:E2_0001: E( 2)=    0.8301   E(BOTTOM)=    0.680   E(TOP)= -200.000  2 -1   118
             APW+lo

       K=   0.00000   0.00000   0.00000            1
:RKM  : MATRIX SIZE   133LOs:  20  RKM= 8.37  WEIGHT= 1.00  PGR:    
       EIGENVALUES ARE:
:EIG00001:      -1.6228657   -0.1230771   -0.1230771   -0.1230771    0.8388094
:EIG00006:       1.0111962    1.0677551    1.0677551    1.0677551    1.1359549
:EIG00011:       1.1359549    1.1359549    1.1690973    1.1690973    1.1690973
:EIG00016:       1.4758312    1.4758312    1.9304673    2.2576688    2.2576688
:EIG00021:       2.2576688    2.3127490    3.6489874    3.6489874    3.6489874
:EIG00026:       3.8614884    3.8614884    3.8883892    3.8883892    3.8883892
:EIG00031:       4.5732102    4.8130260    4.8130260    4.8130260    5.4720210
:EIG00036:       5.4720210    5.5617872    5.5617872    5.5617872    5.6533027
:EIG00041:       5.6533027    5.6533027    5.7188654    5.7188654    5.7188654
:EIG00046:       5.9862677    5.9862677    5.9862677    6.0791159    6.0791159
 
:EIG00051:       6.2865803    6.4217599    6.4217599    6.4217599    6.5389234
:EIG00056:       6.6028174    6.6028174    6.6028174    6.9705903    7.0380020
:EIG00061:       7.0380020    7.0380020    7.6882579    7.6882579    7.6882579
       ********************************************************

:KPT   :      NUMBER OF K-POINTS:   165

------- case.scfso --------
   0.0   0.0 angle (M,z), angle (M,x) deg
 
        SPIN-ORBIT EIGENVALUES:
     K=   0.00000   0.00000   0.00000            1
      MATRIX SIZE=  130   WEIGHT= 1.00
     EIGENVALUES ARE:
          -1.6228657   -1.6228657   -0.2805357   -0.2805357   -0.0484824
          -0.0484824   -0.0484824   -0.0484824    0.8388094    0.8388094
           1.0098367    1.0098367    1.0600108    1.0600108    1.0600108
           1.0600108    1.0785814    1.0785814    1.1329130    1.1329130
           1.1403877    1.1403877    1.1403877    1.1403877    1.1647004
           1.1647004    1.1647004    1.1647004    1.1769282    1.1769282
           1.4761502    1.4761502    1.4761502    1.4761502    1.9305572
           1.9305572    2.2537800    2.2537800    2.2596199    2.2596199

           2.2596199    2.2596199    2.3127490    2.3127490    3.6436403
           3.6436403    3.6436403    3.6436403    3.6590785    3.6590785
           3.7996721    3.7996721    3.8618193    3.8618193    3.8618193
           3.8618193    3.9333429    3.9333429    3.9333429    3.9333429

       ********************************************************

------- case.scf2 --------
:GMA  : POTENTIAL AND CHARGE CUT-OFF  12.00 Ry**.5




:POS001: at.nr.   1 position = 0.00000 0.00000 0.50000  multiplicity =  1

       lmmax  5
       lm=   0 0  4 0  4 4  6 0  6 4
:FER gutzwiller fermi energy   1.03479
:EORB          0.068744045
:SUM sum of gutz band energies          0.160843691

:CHA001: total charge inside sphere   1 =    10.521849
:PCS001: partial charges sphere =  1 s,p,d,f,      d-eg,d-t2g 
:QTL001: 2.0383 5.2937 1.0403 2.1457 0.0000 0.0000 0.0000 0.3882 0.6521 0.0000 0.0000 0.0000

:CHA  : total charge inside unit cell =       6.500000

------- case.scfc --------

        1.ATOM      Pr                   14 CORE STATES
:1S 001: 1S               -3066.493505390 Ry
:2S 001: 2S                -492.246352716 Ry
:2PP001: 2P*               -465.345033812 Ry
:2P 001: 2P                -429.947697395 Ry
:3S 001: 3S                -105.345554988 Ry
:3PP001: 3P*                -93.882952830 Ry
:3P 001: 3P                 -86.875576549 Ry
:3DD001: 3D*                -66.801001053 Ry
:3D 001: 3D                 -65.289614786 Ry
:4S 001: 4S                 -20.030184450 Ry
:4PP001: 4P*                -15.737102928 Ry
:4P 001: 4P                 -14.210026645 Ry
:4DD001: 4D*                 -7.143313774 Ry
:4D 001: 4D                  -6.874019242 Ry

------- case.scfm --------
:CINT001 Core Integral Atom   1   45.999499

       DENSITY AT NUCLEUS
        JATOM        VALENCE       SEMI-CORE          CORE           TOTAL
:RTO001:   1      649.870693        0.000000   656822.798080   657472.668774
     
       CHARGES OF NEW CHARGE DENSITY
:NTO   : INTERSTITIAL CHARGE =     2.478127
:NPC   : PW Pseudocharge     =     8.007275
:NTO001: CHARGE SPHERE  1    =    56.521348

:NEC01: NUCLEAR AND ELECTRONIC CHARGE     59.00000    58.99948
     
       CHARGES OF OLD CHARGE DENSITY
:OTO   : INTERSTITIAL CHARGE =     2.498339
:OPC   : PW Pseudocharge     =     7.980524
:OTO001: CHARGE SPHERE  1    =    56.501661

:NEC02: NUCLEAR AND ELECTRONIC CHARGE     59.00000    59.00000
     
       CONVERGENCE TEST
:DTO001: DIFFERENCE IN SPHERE  1 =  0.0569292

:DIS  :  CHARGE DISTANCE       ( 0.0569292 for atom    1 spin 1)      0.0569292
 PW Mixed is           36
 
******************************************************
* MULTISECANT MIXING VER9 RELEASE 10.4.0              *
* Standard Mode with controls                        *
* Fixed density scale                                *
* Regularization       1.000E-04                     *
* Trust Upper Limit    5.000E+00                     *
* Max Number of Memory Steps    8                    *
******************************************************
 
:PWTMP   8.2580E+01  1.2500E+02  1.4803E+02
:PLANE:  PW TOTAL      3.2211 DISTAN   4.20E-02  1.30E+00 %
:CHARG:  CLM/ATOM    977.1942 DISTAN   8.17E-02  8.37E-03 %
 
Step History
        DMIX         DMIXT        Red     Pred      Trust     Lambda    MagRel    MagAbs     Beta
  1   3.5000E-02   3.5000E-02 -1.00E+00  1.00E+00 -1.00E+01  1.00E+00  3.50E-02  3.50E-02  1.00E+00
  2   2.5000E-02   2.5000E-02  9.68E-01  1.00E+00 -1.00E+01  1.00E+00  2.50E-02  6.04E-03  1.00E+00
  3   2.8929E-02   2.8929E-02  5.66E-01  1.00E+00 -1.00E+01  2.75E+00  2.89E-02  6.76E-03  1.00E+00
  4   6.9913E-02   6.9913E-02 -1.00E+00  6.89E-01  3.33E-01  1.00E+00  2.91E-01  3.85E-02  8.00E-01
:JACOBIANS    2.228E-01   6.112E-01
  
:NORMS:  1/Froebius, Min, Max, Used   0.3689E+00  0.3669E+00  0.1019E+01  0.3880E+00
:INFO :  Number of Memory Steps    3 Skipping    0
:INFO :  SLambda=    2.2793251074  Max    2.2793251074
:PREDicted Charge, CTotal, PW Trust    3.163E-03   3.163E-03   3.105E-02
:PREDicted DMix, Beta, BLim   9.1911E-01  1.6876E+00  7.9635E-01

Eigenvalues, unscaled except for SY+YY
   #     SY Real        SY Imag          SS             YY         SY+YY Real      SY+YY Imag
   1   9.495626E-01   0.000000E+00   4.030973E-01   2.993862E+00   5.158205E+00   0.000000E+00
   2   8.471646E-15   0.000000E+00   5.271558E-03   5.871059E-03   3.370413E-04   0.000000E+00
   3   5.468040E-03   0.000000E+00  -2.177025E-17   2.673488E-04   1.828335E-02   0.000000E+00
 
:INFO :  Singular value  5.158E+00 Weight  1.000E+00 Projection -8.392E-03
:INFO :  Singular value  1.833E-02 Weight  9.997E-01 Projection -1.179E+00
:INFO :  Singular value  3.362E-04 Weight  5.577E-01 Projection -2.233E-01
:RANK :  ACTIVE   2.56/3  =  85.25 % ; YY RANK   2.44/3  =  81.37 %
 
:BLIM :  VZERO Control Off
:TRUST:  Step 5.65E-01  Charge 7.50E-02 (e) CTO  2.50E-01 (e) PW  3.50E-01 (e)
:DTRUS:  Lambda    2.735E+00 Increment    7.276E-12 Iterations   116 DMIX    1.498E-01
:INFOA:  Angle SubSpace to MSR1      4.96
:DIRM :  MEMORY  3/8  SCALE   1.000 RED  0.69 PRED  0.69 NEXT  0.34 
:INFO :  Limited by Atoms F by Step T

:TRAVE:  Charge 7.91E-03 (e) CTO  7.91E-03 (e) PW  1.27E-02 (e)
:DIRP :  |MSR1|= 2.773E-02 |PRATT|= 4.203E-02 ANGLE=   7.0 DEGREES
:DIRQ :  |MSR1|= 4.389E-02 |PRATT|= 8.175E-02 ANGLE=  22.0 DEGREES
:DIRT :  |MSR1|= 5.192E-02 |PRATT|= 9.192E-02 ANGLE=  20.0 DEGREES
:MIX  :   MSE1   REGULARIZATION:  2.99E-04 GREED: 0.17478  LMStep 0.62  0.5648 Step           
     
       CHARGES OF MIXED CHARGE DENSITY
:CTO   : INTERSTITIAL CHARGE =     2.494322
:CPC   : PW Pseudocharge     =     8.005608
:CTO001: CHARGE SPHERE  1    =    56.505678

:NEC03: NUCLEAR AND ELECTRONIC CHARGE     59.00000    59.00000

PW CHANGE     H    K    L      Current       Change    Residue
:PTO001:      0    0    0  7.09310522E-02  1.423E-04  5.918E-05
:PTO002:     -1   -1   -1 -1.64534717E-01  5.517E-04  8.614E-04
:PTO003:      0    0   -2  8.83487907E-02 -3.693E-04 -5.087E-04
:PTO004:      0   -2   -2  4.93203646E-02 -1.681E-03 -2.608E-03
:PTO005:     -1   -1   -3 -2.24316103E-02  2.078E-03  3.176E-03
:PTO006:     -2   -2   -2  3.16984723E-03 -5.395E-04 -8.401E-04
:PTO007:      0    0   -4 -3.13922036E-03 -2.520E-05 -2.700E-05
:PTO008:     -1   -3   -3  1.15374623E-02 -4.429E-04 -6.694E-04
:PTO009:      0   -2   -4 -1.16881487E-02  6.131E-04  9.445E-04
:PTO010:     -2   -2   -4 -9.92603349E-03  1.121E-03  1.714E-03
:PTO011:     -3   -3   -3  2.71377964E-03 -4.017E-04 -6.130E-04
:PTO012:     -1   -1   -5  7.71826526E-03 -1.082E-03 -1.662E-03

:ENE  : ********** TOTAL ENERGY IN Ry =       -18472.09619985


------- case.scf0 --------
 Flat Integration
 New Mode for Coulomb Integral
 Consistent 3/8+Simpson combinations
 Extension of core to zero
 LDM version in phi
 Fifth-order quadrature in outwin


            ---------
:ITE024: 24. ITERATION
            ---------

:NATO :    1 INDEPENDENT AND    1 TOTAL ATOMS IN UNITCELL
       SUBSTANCE: blebleble                                                   

       LATTICE                      = F   
:POT  : POTENTIAL OPTION EX_LDA EC_LDA VX_LDA VC_LDA
:LAT  : LATTICE CONSTANTS=  8.39724  8.39724  8.39724    1.571    1.571    1.571
:VOL  : UNIT CELL VOLUME =     148.03009
       MODE OF CALCULATION IS       = RELA
       NON-SPINPOLARIZED CALCULATION
:IFFT  : FFT-parameters:   72   72   72 Factor: 2.00


   CONVERGENCE PARAMETER FOR PSEUDOCHARGE: NCON=  9
   MAXIMAL VALUE OF RMT(JATOM)*ABSK(NKK) : RK  =29.92976


:VKCOUL :  VK-COUL convergence: 0.147E-06
       ATOMNUMBER=  1 Pr         VCOUL-ZERO =  0.69220E+00
:FIT001: LUSE= 13 SIGMA OF V-XC FIT FOR ATOM  1  0.4903816E-04
:FIT001: LUSE= 13 SIGMA OF V-XC FIT FOR ATOM  1  0.4903816E-04
:DEN  : DENSITY INTEGRAL  =         -7101.37266844   (Ry)
       ELS_POTENTIAL_AT Z=0 and Z=0.5:  -2.88177  -2.88177
       ELS_POTENTIAL_AT Y=0 and Y=0.5:   0.00000   0.00000
:VZERO:v0,v0c,v0x  -3.97843  -2.88177  -1.09666 v5,v5c,v5x  -3.97843  -2.88177  -1.09666
:VZERY:v0,v0c,v0x  -0.86610   0.00000  -0.86610 v5,v5c,v5x  -0.86610   0.00000  -0.86610
:VZERX:v0,v0c,v0x  -0.86610   0.00000  -0.86610 v5,v5c,v5x  -0.86610   0.00000  -0.86610

------- case.scf1 --------
:LMAX-WF:   10   Non-Spherical LMAX:   4

          ATOMIC SPHERE DEPENDENT PARAMETERS FOR ATOM  Pr        
:e__0001: OVERALL ENERGY PARAMETER IS    0.8301
          OVERALL BASIS SET ON ATOM IS LAPW
:E0_0001: E( 0)=    0.8301
             APW+lo
:E0_0001: E( 0)=   -1.5986   E(BOTTOM)=   -1.988   E(TOP)=   -1.209  4  5   221
             LOCAL ORBITAL
:E1_0001: E( 1)=    1.2301
             APW+lo
:E1_0001: E( 1)=   -0.2173   E(BOTTOM)=   -0.877   E(TOP)=    0.442  3  4   220
             LOCAL ORBITAL
:E3_0001: E( 3)=    1.0791   E(BOTTOM)=    0.932   E(TOP)=    1.226  0  1   122
             APW+lo
:E2_0001: E( 2)=    0.8301   E(BOTTOM)=    0.685   E(TOP)= -200.000  2 -1   119
             APW+lo

       K=   0.00000   0.00000   0.00000            1
:RKM  : MATRIX SIZE   133LOs:  20  RKM= 8.37  WEIGHT= 1.00  PGR:    
       EIGENVALUES ARE:
:EIG00001:      -1.6175803   -0.1178993   -0.1178993   -0.1178993    0.8434312
:EIG00006:       1.0162765    1.0735032    1.0735032    1.0735032    1.1416256
:EIG00011:       1.1416256    1.1416256    1.1735587    1.1735587    1.1735587
:EIG00016:       1.4806986    1.4806986    1.9347027    2.2624081    2.2624081
:EIG00021:       2.2624081    2.3172795    3.6540465    3.6540465    3.6540465
:EIG00026:       3.8663298    3.8663298    3.8929147    3.8929147    3.8929147
:EIG00031:       4.5777140    4.8173714    4.8173714    4.8173714    5.4779984
:EIG00036:       5.4779984    5.5667626    5.5667626    5.5667626    5.6584210
:EIG00041:       5.6584210    5.6584210    5.7235188    5.7235188    5.7235188
:EIG00046:       5.9907719    5.9907719    5.9907719    6.0833777    6.0833777
 
:EIG00051:       6.2914648    6.4263000    6.4263000    6.4263000    6.5430528
:EIG00056:       6.6073559    6.6073559    6.6073559    6.9756830    7.0420526
:EIG00061:       7.0420526    7.0420526    7.6926724    7.6926724    7.6926724
       ********************************************************

:KPT   :      NUMBER OF K-POINTS:   165

------- case.scfso --------
   0.0   0.0 angle (M,z), angle (M,x) deg
 
        SPIN-ORBIT EIGENVALUES:
     K=   0.00000   0.00000   0.00000            1
      MATRIX SIZE=  130   WEIGHT= 1.00
     EIGENVALUES ARE:
          -1.6175803   -1.6175803   -0.2753123   -0.2753123   -0.0433257
          -0.0433257   -0.0433257   -0.0433257    0.8434312    0.8434312
           1.0149240    1.0149240    1.0657572    1.0657572    1.0657572
           1.0657572    1.0843281    1.0843281    1.1385754    1.1385754
           1.1460610    1.1460610    1.1460610    1.1460610    1.1691660
           1.1691660    1.1691660    1.1691660    1.1813840    1.1813840
           1.4810166    1.4810166    1.4810166    1.4810166    1.9347929
           1.9347929    2.2585314    2.2585314    2.2643534    2.2643534

           2.2643534    2.2643534    2.3172795    2.3172795    3.6487076
           3.6487076    3.6487076    3.6487076    3.6641222    3.6641222
           3.8042123    3.8042123    3.8666600    3.8666600    3.8666600
           3.8666600    3.9378608    3.9378608    3.9378608    3.9378608

       ********************************************************

------- case.scf2 --------
:GMA  : POTENTIAL AND CHARGE CUT-OFF  12.00 Ry**.5




:POS001: at.nr.   1 position = 0.00000 0.00000 0.50000  multiplicity =  1

       lmmax  5
       lm=   0 0  4 0  4 4  6 0  6 4
:FER gutzwiller fermi energy   1.03947
:EORB          0.070949021
:SUM sum of gutz band energies          0.224789680

:CHA001: total charge inside sphere   1 =    10.520201
:PCS001: partial charges sphere =  1 s,p,d,f,      d-eg,d-t2g 
:QTL001: 2.0383 5.2931 1.0406 2.1443 0.0000 0.0000 0.0000 0.3879 0.6527 0.0000 0.0000 0.0000

:CHA  : total charge inside unit cell =       6.500000

------- case.scfc --------

        1.ATOM      Pr                   14 CORE STATES
:1S 001: 1S               -3066.502220006 Ry
:2S 001: 2S                -492.251741792 Ry
:2PP001: 2P*               -465.351137907 Ry
:2P 001: 2P                -429.953532364 Ry
:3S 001: 3S                -105.345000765 Ry
:3PP001: 3P*                -93.882720763 Ry
:3P 001: 3P                 -86.875029474 Ry
:3DD001: 3D*                -66.801291886 Ry
:3D 001: 3D                 -65.289793171 Ry
:4S 001: 4S                 -20.025000511 Ry
:4PP001: 4P*                -15.731889094 Ry
:4P 001: 4P                 -14.204674657 Ry
:4DD001: 4D*                 -7.137889486 Ry
:4D 001: 4D                  -6.868559835 Ry

------- case.scfm --------
:CINT001 Core Integral Atom   1   45.999499

       DENSITY AT NUCLEUS
        JATOM        VALENCE       SEMI-CORE          CORE           TOTAL
:RTO001:   1      649.755248        0.000000   656824.285643   657474.040891
     
       CHARGES OF NEW CHARGE DENSITY
:NTO   : INTERSTITIAL CHARGE =     2.479909
:NPC   : PW Pseudocharge     =     8.009553
:NTO001: CHARGE SPHERE  1    =    56.519700

:NEC01: NUCLEAR AND ELECTRONIC CHARGE     59.00000    58.99961
     
       CHARGES OF OLD CHARGE DENSITY
:OTO   : INTERSTITIAL CHARGE =     2.494322
:OPC   : PW Pseudocharge     =     8.005608
:OTO001: CHARGE SPHERE  1    =    56.505678

:NEC02: NUCLEAR AND ELECTRONIC CHARGE     59.00000    59.00000
     
       CONVERGENCE TEST
:DTO001: DIFFERENCE IN SPHERE  1 =  0.0322482

:DIS  :  CHARGE DISTANCE       ( 0.0322482 for atom    1 spin 1)      0.0322482
 PW Mixed is           36
 
******************************************************
* MULTISECANT MIXING VER9 RELEASE 10.4.0              *
* Standard Mode with controls                        *
* Fixed density scale                                *
* Regularization       1.000E-04                     *
* Trust Upper Limit    5.000E+00                     *
* Max Number of Memory Steps    8                    *
******************************************************
 
:PWTMP   8.2580E+01  1.2500E+02  1.4803E+02
:PLANE:  PW TOTAL      3.2154 DISTAN   1.48E-02  4.61E-01 %
:CHARG:  CLM/ATOM    977.1819 DISTAN   3.86E-02  3.95E-03 %
 
Step History
        DMIX         DMIXT        Red     Pred      Trust     Lambda    MagRel    MagAbs     Beta
  1   3.5000E-02   3.5000E-02 -1.00E+00  1.00E+00 -1.00E+01  1.00E+00  3.50E-02  3.50E-02  1.00E+00
  2   2.5000E-02   2.5000E-02  9.68E-01  1.00E+00 -1.00E+01  1.00E+00  2.50E-02  6.04E-03  1.00E+00
  3   2.8929E-02   2.8929E-02  5.66E-01  1.00E+00 -1.00E+01  2.75E+00  2.89E-02  6.76E-03  1.00E+00
  4   6.9913E-02   6.9913E-02  6.94E-01  6.89E-01  3.33E-01  2.28E+00  2.91E-01  3.85E-02  8.00E-01
  5   1.7478E-01   1.4983E-01 -1.00E+00  3.39E-01  5.65E-01  1.00E+00  5.65E-01  5.19E-02  1.00E+00
:JACOBIANS    2.760E-01   8.091E-01
  
:NORMS:  1/Froebius, Min, Max, Used   0.6216E+00  0.4279E+00  0.9392E+00  0.6798E+00
:INFO :  Number of Memory Steps    4 Skipping    0
:INFO :  SLambda=    1.4790237891  Max    1.4790237891
:PREDicted Charge, CTotal, PW Trust    7.728E-03   7.728E-03   1.685E-02
:PREDicted DMix, Beta, BLim   1.3803E-02  1.4454E+00  8.7850E-01

Eigenvalues, unscaled except for SY+YY
   #     SY Real        SY Imag          SS             YY         SY+YY Real      SY+YY Imag
   1   8.377355E-01   0.000000E+00   1.197429E+00   2.591119E+00   3.765256E+00   0.000000E+00
   2   1.262826E+00   0.000000E+00   3.481838E-01   1.408604E+00   3.341198E+00   0.000000E+00
   3   2.952056E-06   0.000000E+00   1.590610E-06   2.664781E-04   3.160189E-04   0.000000E+00
   4   9.492128E-15   0.000000E+00  -6.887648E-18   1.071457E-05   1.521594E-05   0.000000E+00
 
:INFO :  Singular value  3.818E+00 Weight  1.000E+00 Projection -9.309E-03
:INFO :  Singular value  3.295E+00 Weight  1.000E+00 Projection -2.979E-02
:INFO :  Singular value  3.163E-04 Weight  5.985E-01 Projection  3.116E-01
:INFO :  Singular value  1.520E-05 Weight  3.429E-03 Projection  2.583E-03
:RANK :  ACTIVE   2.60/4  =  65.05 % ; YY RANK   2.52/4  =  62.89 %
 
:BLIM :  VZERO Control Off
:TRUST:  Step 7.53E-01  Charge 7.50E-02 (e) CTO  2.50E-01 (e) PW  3.50E-01 (e)
:DIRM :  MEMORY  4/8  SCALE   1.000 RED  0.45 PRED  0.34 NEXT  0.15 
:TRAVE:  Charge 5.84E-03 (e) CTO  5.84E-03 (e) PW  8.86E-03 (e)
:DIRP :  |MSR1|= 1.293E-02 |PRATT|= 1.484E-02 ANGLE=  16.4 DEGREES
:DIRQ :  |MSR1|= 2.595E-02 |PRATT|= 3.862E-02 ANGLE=  38.4 DEGREES
:DIRT :  |MSR1|= 2.900E-02 |PRATT|= 4.137E-02 ANGLE=  36.1 DEGREES
:MIX  :   MSE1   REGULARIZATION:  2.59E-04 GREED: 0.06991  Newton 1.00  0.7009                
     
       CHARGES OF MIXED CHARGE DENSITY
:CTO   : INTERSTITIAL CHARGE =     2.490551
:CPC   : PW Pseudocharge     =     8.018464
:CTO001: CHARGE SPHERE  1    =    56.509449

:NEC03: NUCLEAR AND ELECTRONIC CHARGE     59.00000    59.00000

PW CHANGE     H    K    L      Current       Change    Residue
:PTO001:      0    0    0  7.09924245E-02  6.137E-05 -5.954E-05
:PTO002:     -1   -1   -1 -1.64319022E-01  2.157E-04  2.829E-04
:PTO003:      0    0   -2  8.82300325E-02 -1.188E-04 -1.726E-04
:PTO004:      0   -2   -2  4.85114283E-02 -8.089E-04 -9.236E-04
:PTO005:     -1   -1   -3 -2.14404585E-02  9.912E-04  1.135E-03
:PTO006:     -2   -2   -2  2.91421025E-03 -2.556E-04 -2.950E-04
:PTO007:      0    0   -4 -3.15102720E-03 -1.181E-05 -1.521E-05
:PTO008:     -1   -3   -3  1.13521613E-02 -1.853E-04 -2.299E-04
:PTO009:      0   -2   -4 -1.14227345E-02  2.654E-04  3.185E-04
:PTO010:     -2   -2   -4 -9.39819245E-03  5.278E-04  5.937E-04
:PTO011:     -3   -3   -3  2.51969403E-03 -1.941E-04 -2.134E-04
:PTO012:     -1   -1   -5  7.20942286E-03 -5.088E-04 -5.708E-04

:ENE  : ********** TOTAL ENERGY IN Ry =       -18472.09614092


------- case.scf0 --------
 Flat Integration
 New Mode for Coulomb Integral
 Consistent 3/8+Simpson combinations
 Extension of core to zero
 LDM version in phi
 Fifth-order quadrature in outwin


            ---------
:ITE025: 25. ITERATION
            ---------

:NATO :    1 INDEPENDENT AND    1 TOTAL ATOMS IN UNITCELL
       SUBSTANCE: blebleble                                                   

       LATTICE                      = F   
:POT  : POTENTIAL OPTION EX_LDA EC_LDA VX_LDA VC_LDA
:LAT  : LATTICE CONSTANTS=  8.39724  8.39724  8.39724    1.571    1.571    1.571
:VOL  : UNIT CELL VOLUME =     148.03009
       MODE OF CALCULATION IS       = RELA
       NON-SPINPOLARIZED CALCULATION
:IFFT  : FFT-parameters:   72   72   72 Factor: 2.00


   CONVERGENCE PARAMETER FOR PSEUDOCHARGE: NCON=  9
   MAXIMAL VALUE OF RMT(JATOM)*ABSK(NKK) : RK  =29.92976


:VKCOUL :  VK-COUL convergence: 0.128E-06
       ATOMNUMBER=  1 Pr         VCOUL-ZERO =  0.69402E+00
:FIT001: LUSE= 13 SIGMA OF V-XC FIT FOR ATOM  1  0.4359139E-04
:FIT001: LUSE= 13 SIGMA OF V-XC FIT FOR ATOM  1  0.4359139E-04
:DEN  : DENSITY INTEGRAL  =         -7101.60533412   (Ry)
       ELS_POTENTIAL_AT Z=0 and Z=0.5:  -2.88613  -2.88613
       ELS_POTENTIAL_AT Y=0 and Y=0.5:   0.00000   0.00000
:VZERO:v0,v0c,v0x  -3.98373  -2.88613  -1.09760 v5,v5c,v5x  -3.98373  -2.88613  -1.09760
:VZERY:v0,v0c,v0x  -0.86641   0.00000  -0.86641 v5,v5c,v5x  -0.86641   0.00000  -0.86641
:VZERX:v0,v0c,v0x  -0.86641   0.00000  -0.86641 v5,v5c,v5x  -0.86641   0.00000  -0.86641

------- case.scf1 --------
:LMAX-WF:   10   Non-Spherical LMAX:   4

          ATOMIC SPHERE DEPENDENT PARAMETERS FOR ATOM  Pr        
:e__0001: OVERALL ENERGY PARAMETER IS    0.8301
          OVERALL BASIS SET ON ATOM IS LAPW
:E0_0001: E( 0)=    0.8301
             APW+lo
:E0_0001: E( 0)=   -1.5948   E(BOTTOM)=   -1.985   E(TOP)=   -1.205  4  5   223
             LOCAL ORBITAL
:E1_0001: E( 1)=    1.2301
             APW+lo
:E1_0001: E( 1)=   -0.2138   E(BOTTOM)=   -0.874   E(TOP)=    0.446  3  4   223
             LOCAL ORBITAL
:E3_0001: E( 3)=    1.0842   E(BOTTOM)=    0.936   E(TOP)=    1.232  0  1   123
             APW+lo
:E2_0001: E( 2)=    0.8301   E(BOTTOM)=    0.688   E(TOP)= -200.000  2 -1   123
             APW+lo

       K=   0.00000   0.00000   0.00000            1
:RKM  : MATRIX SIZE   133LOs:  20  RKM= 8.37  WEIGHT= 1.00  PGR:    
       EIGENVALUES ARE:
:EIG00001:      -1.6139271   -0.1144351   -0.1144351   -0.1144351    0.8458322
:EIG00006:       1.0205863    1.0784952    1.0784952    1.0784952    1.1468635
:EIG00011:       1.1468635    1.1468635    1.1759533    1.1759533    1.1759533
:EIG00016:       1.4834708    1.4834708    1.9372909    2.2649796    2.2649796
:EIG00021:       2.2649796    2.3192670    3.6569331    3.6569331    3.6569331
:EIG00026:       3.8688881    3.8688881    3.8953918    3.8953918    3.8953918
:EIG00031:       4.5799359    4.8193219    4.8193219    4.8193219    5.4813390
:EIG00036:       5.4813390    5.5692804    5.5692804    5.5692804    5.6611751
:EIG00041:       5.6611751    5.6611751    5.7259205    5.7259205    5.7259205
:EIG00046:       5.9928546    5.9928546    5.9928546    6.0852898    6.0852898
 
:EIG00051:       6.2938502    6.4283690    6.4283690    6.4283690    6.5447770
:EIG00056:       6.6093980    6.6093980    6.6093980    6.9785260    7.0436875
:EIG00061:       7.0436875    7.0436875    7.6945038    7.6945038    7.6945038
       ********************************************************

:KPT   :      NUMBER OF K-POINTS:   165

------- case.scfso --------
   0.0   0.0 angle (M,z), angle (M,x) deg
 
        SPIN-ORBIT EIGENVALUES:
     K=   0.00000   0.00000   0.00000            1
      MATRIX SIZE=  130   WEIGHT= 1.00
     EIGENVALUES ARE:
          -1.6139271   -1.6139271   -0.2717696   -0.2717696   -0.0398993
          -0.0398993   -0.0398993   -0.0398993    0.8458322    0.8458322
           1.0192482    1.0192482    1.0707694    1.0707694    1.0707694
           1.0707694    1.0893020    1.0893020    1.1438005    1.1438005
           1.1512862    1.1512862    1.1512862    1.1512862    1.1715657
           1.1715657    1.1715657    1.1715657    1.1837712    1.1837712
           1.4837876    1.4837876    1.4837876    1.4837876    1.9373819
           1.9373819    2.2611194    2.2611194    2.2669170    2.2669170

           2.2669170    2.2669170    2.3192670    2.3192670    3.6515997
           3.6515997    3.6515997    3.6515997    3.6669982    3.6669982
           3.8067148    3.8067148    3.8692181    3.8692181    3.8692181
           3.8692181    3.9403233    3.9403233    3.9403233    3.9403233

       ********************************************************

------- case.scf2 --------
:GMA  : POTENTIAL AND CHARGE CUT-OFF  12.00 Ry**.5




:POS001: at.nr.   1 position = 0.00000 0.00000 0.50000  multiplicity =  1

       lmmax  5
       lm=   0 0  4 0  4 4  6 0  6 4
:FER gutzwiller fermi energy   1.04227
:EORB          0.076129317
:SUM sum of gutz band energies          0.264222978

:CHA001: total charge inside sphere   1 =    10.515243
:PCS001: partial charges sphere =  1 s,p,d,f,      d-eg,d-t2g 
:QTL001: 2.0384 5.2923 1.0418 2.1388 0.0000 0.0000 0.0000 0.3880 0.6537 0.0000 0.0000 0.0000

:CHA  : total charge inside unit cell =       6.500000

------- case.scfc --------

        1.ATOM      Pr                   14 CORE STATES
:1S 001: 1S               -3066.502772961 Ry
:2S 001: 2S                -492.250459428 Ry
:2PP001: 2P*               -465.350249068 Ry
:2P 001: 2P                -429.952495449 Ry
:3S 001: 3S                -105.340571811 Ry
:3PP001: 3P*                -93.878458344 Ry
:3P 001: 3P                 -86.870612974 Ry
:3DD001: 3D*                -66.797300375 Ry
:3D 001: 3D                 -65.285744663 Ry
:4S 001: 4S                 -20.019011537 Ry
:4PP001: 4P*                -15.725945349 Ry
:4P 001: 4P                 -14.198750460 Ry
:4DD001: 4D*                 -7.132094449 Ry
:4D 001: 4D                  -6.862778047 Ry

------- case.scfm --------
:CINT001 Core Integral Atom   1   45.999498

       DENSITY AT NUCLEUS
        JATOM        VALENCE       SEMI-CORE          CORE           TOTAL
:RTO001:   1      649.565031        0.000000   656824.898768   657474.463799
     
       CHARGES OF NEW CHARGE DENSITY
:NTO   : INTERSTITIAL CHARGE =     2.484826
:NPC   : PW Pseudocharge     =     8.013492
:NTO001: CHARGE SPHERE  1    =    56.514741

:NEC01: NUCLEAR AND ELECTRONIC CHARGE     59.00000    58.99957
     
       CHARGES OF OLD CHARGE DENSITY
:OTO   : INTERSTITIAL CHARGE =     2.490551
:OPC   : PW Pseudocharge     =     8.018464
:OTO001: CHARGE SPHERE  1    =    56.509449

:NEC02: NUCLEAR AND ELECTRONIC CHARGE     59.00000    59.00000
     
       CONVERGENCE TEST
:DTO001: DIFFERENCE IN SPHERE  1 =  0.0141214

:DIS  :  CHARGE DISTANCE       ( 0.0141214 for atom    1 spin 1)      0.0141214
 PW Mixed is           36
 
******************************************************
* MULTISECANT MIXING VER9 RELEASE 10.4.0              *
* Standard Mode with controls                        *
* Fixed density scale                                *
* Regularization       1.000E-04                     *
* Trust Upper Limit    5.000E+00                     *
* Max Number of Memory Steps    8                    *
******************************************************
 
:PWTMP   8.2580E+01  1.2500E+02  1.4803E+02
:PLANE:  PW TOTAL      3.2132 DISTAN   2.97E-03  9.23E-02 %
:CHARG:  CLM/ATOM    977.1753 DISTAN   1.45E-02  1.49E-03 %
 
Step History
        DMIX         DMIXT        Red     Pred      Trust     Lambda    MagRel    MagAbs     Beta
  1   3.5000E-02   3.5000E-02 -1.00E+00  1.00E+00 -1.00E+01  1.00E+00  3.50E-02  3.50E-02  1.00E+00
  2   2.5000E-02   2.5000E-02  9.68E-01  1.00E+00 -1.00E+01  1.00E+00  2.50E-02  6.04E-03  1.00E+00
  3   2.8929E-02   2.8929E-02  5.66E-01  1.00E+00 -1.00E+01  2.75E+00  2.89E-02  6.76E-03  1.00E+00
  4   6.9913E-02   6.9913E-02  6.94E-01  6.89E-01  3.33E-01  2.28E+00  2.91E-01  3.85E-02  8.00E-01
  5   1.7478E-01   1.4983E-01  4.50E-01  3.39E-01  5.65E-01  1.48E+00  5.65E-01  5.19E-02  1.00E+00
  6   6.9913E-02   6.9913E-02 -1.00E+00  1.49E-01  7.53E-01  1.00E+00  7.01E-01  2.90E-02  1.00E+00
:JACOBIANS    3.206E-01   9.276E-01
  
:NORMS:  1/Froebius, Min, Max, Used   0.7181E+00  0.4271E+00  0.9099E+00  0.8585E+00
:INFO :  Number of Memory Steps    5 Skipping    0
:INFO :  SLambda=    1.5372359866  Max    1.5372359866
:PREDicted Charge, CTotal, PW Trust    3.345E-03   3.345E-03   5.274E-03
:PREDicted DMix, Beta, BLim   1.4063E-01  9.7081E-01  6.8513E-01

Eigenvalues, unscaled except for SY+YY
   #     SY Real        SY Imag          SS             YY         SY+YY Real      SY+YY Imag
   1   2.446498E+00   0.000000E+00   2.288296E+00   3.105040E+00   6.704294E+00   0.000000E+00
   2   6.921362E-01   0.000000E+00   2.900912E-01   1.894611E+00   3.120110E+00   0.000000E+00
   3   6.051147E-05   0.000000E+00   4.925200E-05   2.949041E-04   4.379723E-04   0.000000E+00
   4   1.866280E-15   0.000000E+00   3.780403E-07   4.875017E-05   6.671327E-05   0.000000E+00
   5   1.561510E-06   0.000000E+00  -4.025180E-17   5.612099E-06   7.380472E-06   0.000000E+00
 
:INFO :  Singular value  6.721E+00 Weight  1.000E+00 Projection -2.442E-03
:INFO :  Singular value  3.113E+00 Weight  1.000E+00 Projection  6.683E-03
:INFO :  Singular value  4.410E-04 Weight  6.686E-01 Projection  3.485E-01
:INFO :  Singular value  6.637E-05 Weight  4.369E-02 Projection -1.748E-02
:INFO :  Singular value  7.367E-06 Weight  5.626E-04 Projection -3.588E-04
:RANK :  ACTIVE   2.71/5  =  54.26 % ; YY RANK   2.50/5  =  49.97 %
 
:DLIM :  Beta Active  9.781E-01
:BLIM :  VZERO Control Off
:TRUST:  Step 1.00E+00  Charge 6.00E-02 (e) CTO  2.00E-01 (e) PW  2.80E-01 (e)
:DIRM :  MEMORY  5/8  SCALE   1.000 RED  0.36 PRED  0.15 NEXT  0.32 BETA  0.98
:TRAVE:  Charge 3.14E-03 (e) CTO  3.14E-03 (e) PW  4.58E-03 (e)
:DIRP :  |MSR1|= 1.060E-03 |PRATT|= 2.967E-03 ANGLE=  47.9 DEGREES
:DIRQ :  |MSR1|= 2.324E-03 |PRATT|= 1.453E-02 ANGLE=  74.8 DEGREES
:DIRT :  |MSR1|= 2.554E-03 |PRATT|= 1.483E-02 ANGLE=  73.2 DEGREES
:MIX  :   MSE1   REGULARIZATION:  3.11E-04 GREED: 0.11585  Newton 1.00  0.1722                
     
       CHARGES OF MIXED CHARGE DENSITY
:CTO   : INTERSTITIAL CHARGE =     2.490980
:CPC   : PW Pseudocharge     =     8.018576
:CTO001: CHARGE SPHERE  1    =    56.509020

:NEC03: NUCLEAR AND ELECTRONIC CHARGE     59.00000    59.00000

PW CHANGE     H    K    L      Current       Change    Residue
:PTO001:      0    0    0  7.09960771E-02  3.653E-06 -5.991E-05
:PTO002:     -1   -1   -1 -1.64288657E-01  3.037E-05  5.601E-05
:PTO003:      0    0   -2  8.81815746E-02 -4.846E-05 -8.355E-05
:PTO004:      0   -2   -2  4.84714524E-02 -3.998E-05 -1.099E-04
:PTO005:     -1   -1   -3 -2.13681268E-02  7.233E-05  1.749E-04
:PTO006:     -2   -2   -2  2.89923046E-03 -1.498E-05 -3.908E-05
:PTO007:      0    0   -4 -3.15741578E-03 -6.389E-06 -1.317E-05
:PTO008:     -1   -3   -3  1.13245157E-02 -2.765E-05 -5.448E-05
:PTO009:      0   -2   -4 -1.13975739E-02  2.516E-05  5.129E-05
:PTO010:     -2   -2   -4 -9.36695870E-03  3.123E-05  6.992E-05
:PTO011:     -3   -3   -3  2.51068839E-03 -9.006E-06 -2.105E-05
:PTO012:     -1   -1   -5  7.18373970E-03 -2.568E-05 -5.813E-05

:ENE  : ********** TOTAL ENERGY IN Ry =       -18472.09606991


------- case.scf0 --------
 Flat Integration
 New Mode for Coulomb Integral
 Consistent 3/8+Simpson combinations
 Extension of core to zero
 LDM version in phi
 Fifth-order quadrature in outwin


            ---------
:ITE026: 26. ITERATION
            ---------

:NATO :    1 INDEPENDENT AND    1 TOTAL ATOMS IN UNITCELL
       SUBSTANCE: blebleble                                                   

       LATTICE                      = F   
:POT  : POTENTIAL OPTION EX_LDA EC_LDA VX_LDA VC_LDA
:LAT  : LATTICE CONSTANTS=  8.39724  8.39724  8.39724    1.571    1.571    1.571
:VOL  : UNIT CELL VOLUME =     148.03009
       MODE OF CALCULATION IS       = RELA
       NON-SPINPOLARIZED CALCULATION
:IFFT  : FFT-parameters:   72   72   72 Factor: 2.00


   CONVERGENCE PARAMETER FOR PSEUDOCHARGE: NCON=  9
   MAXIMAL VALUE OF RMT(JATOM)*ABSK(NKK) : RK  =29.92976


:VKCOUL :  VK-COUL convergence: 0.129E-06
       ATOMNUMBER=  1 Pr         VCOUL-ZERO =  0.69421E+00
:FIT001: LUSE= 13 SIGMA OF V-XC FIT FOR ATOM  1  0.4423145E-04
:FIT001: LUSE= 13 SIGMA OF V-XC FIT FOR ATOM  1  0.4423145E-04
:DEN  : DENSITY INTEGRAL  =         -7101.60558836   (Ry)
       ELS_POTENTIAL_AT Z=0 and Z=0.5:  -2.88693  -2.88693
       ELS_POTENTIAL_AT Y=0 and Y=0.5:   0.00000   0.00000
:VZERO:v0,v0c,v0x  -3.98439  -2.88693  -1.09746 v5,v5c,v5x  -3.98439  -2.88693  -1.09746
:VZERY:v0,v0c,v0x  -0.86645   0.00000  -0.86645 v5,v5c,v5x  -0.86645   0.00000  -0.86645
:VZERX:v0,v0c,v0x  -0.86645   0.00000  -0.86645 v5,v5c,v5x  -0.86645   0.00000  -0.86645

------- case.scf1 --------
:LMAX-WF:   10   Non-Spherical LMAX:   4

          ATOMIC SPHERE DEPENDENT PARAMETERS FOR ATOM  Pr        
:e__0001: OVERALL ENERGY PARAMETER IS    0.8301
          OVERALL BASIS SET ON ATOM IS LAPW
:E0_0001: E( 0)=    0.8301
             APW+lo
:E0_0001: E( 0)=   -1.5948   E(BOTTOM)=   -1.985   E(TOP)=   -1.205  4  5   216
             LOCAL ORBITAL
:E1_0001: E( 1)=    1.2301
             APW+lo
:E1_0001: E( 1)=   -0.2138   E(BOTTOM)=   -0.874   E(TOP)=    0.446  3  4   225
             LOCAL ORBITAL
:E3_0001: E( 3)=    1.0841   E(BOTTOM)=    0.936   E(TOP)=    1.232  0  1   124
             APW+lo
:E2_0001: E( 2)=    0.8301   E(BOTTOM)=    0.688   E(TOP)= -200.000  2 -1   121
             APW+lo

       K=   0.00000   0.00000   0.00000            1
:RKM  : MATRIX SIZE   133LOs:  20  RKM= 8.37  WEIGHT= 1.00  PGR:    
       EIGENVALUES ARE:
:EIG00001:      -1.6139495   -0.1144480   -0.1144480   -0.1144480    0.8459466
:EIG00006:       1.0205801    1.0784065    1.0784065    1.0784065    1.1467743
:EIG00011:       1.1467743    1.1467743    1.1760520    1.1760520    1.1760520
:EIG00016:       1.4835164    1.4835164    1.9374276    2.2650814    2.2650814
:EIG00021:       2.2650814    2.3194102    3.6570264    3.6570264    3.6570264
:EIG00026:       3.8689886    3.8689886    3.8954994    3.8954994    3.8954994
:EIG00031:       4.5800629    4.8194642    4.8194642    4.8194642    5.4814061
:EIG00036:       5.4814061    5.5693696    5.5693696    5.5693696    5.6612985
:EIG00041:       5.6612985    5.6612985    5.7260282    5.7260282    5.7260282
:EIG00046:       5.9930066    5.9930066    5.9930066    6.0854532    6.0854532
 
:EIG00051:       6.2939602    6.4285039    6.4285039    6.4285039    6.5449648
:EIG00056:       6.6095515    6.6095515    6.6095515    6.9786164    7.0438407
:EIG00061:       7.0438407    7.0438407    7.6946440    7.6946440    7.6946440
       ********************************************************

:KPT   :      NUMBER OF K-POINTS:   165

------- case.scfso --------
   0.0   0.0 angle (M,z), angle (M,x) deg
 
        SPIN-ORBIT EIGENVALUES:
     K=   0.00000   0.00000   0.00000            1
      MATRIX SIZE=  130   WEIGHT= 1.00
     EIGENVALUES ARE:
          -1.6139495   -1.6139495   -0.2717885   -0.2717885   -0.0399093
          -0.0399093   -0.0399093   -0.0399093    0.8459466    0.8459466
           1.0192408    1.0192408    1.0706799    1.0706799    1.0706799
           1.0706799    1.0892143    1.0892143    1.1437125    1.1437125
           1.1511974    1.1511974    1.1511974    1.1511974    1.1716639
           1.1716639    1.1716639    1.1716639    1.1838706    1.1838706
           1.4838334    1.4838334    1.4838334    1.4838334    1.9375186
           1.9375186    2.2612198    2.2612198    2.2670195    2.2670195

           2.2670195    2.2670195    2.3194102    2.3194102    3.6516930
           3.6516930    3.6516930    3.6516930    3.6670915    3.6670915
           3.8068208    3.8068208    3.8693186    3.8693186    3.8693186
           3.8693186    3.9404319    3.9404319    3.9404320    3.9404320

       ********************************************************

------- case.scf2 --------
:GMA  : POTENTIAL AND CHARGE CUT-OFF  12.00 Ry**.5




:POS001: at.nr.   1 position = 0.00000 0.00000 0.50000  multiplicity =  1

       lmmax  5
       lm=   0 0  4 0  4 4  6 0  6 4
:FER gutzwiller fermi energy   1.04238
:EORB          0.075696279
:SUM sum of gutz band energies          0.264772497

:CHA001: total charge inside sphere   1 =    10.515294
:PCS001: partial charges sphere =  1 s,p,d,f,      d-eg,d-t2g 
:QTL001: 2.0384 5.2924 1.0419 2.1386 0.0000 0.0000 0.0000 0.3881 0.6538 0.0000 0.0000 0.0000

:CHA  : total charge inside unit cell =       6.500000

------- case.scfc --------

        1.ATOM      Pr                   14 CORE STATES
:1S 001: 1S               -3066.502376418 Ry
:2S 001: 2S                -492.250246407 Ry
:2PP001: 2P*               -465.349996555 Ry
:2P 001: 2P                -429.952257686 Ry
:3S 001: 3S                -105.340625785 Ry
:3PP001: 3P*                -93.878499642 Ry
:3P 001: 3P                 -86.870664759 Ry
:3DD001: 3D*                -66.797322442 Ry
:3D 001: 3D                 -65.285771065 Ry
:4S 001: 4S                 -20.019119518 Ry
:4PP001: 4P*                -15.726051859 Ry
:4P 001: 4P                 -14.198856307 Ry
:4DD001: 4D*                 -7.132198739 Ry
:4D 001: 4D                  -6.862882160 Ry

------- case.scfm --------
:CINT001 Core Integral Atom   1   45.999498

       DENSITY AT NUCLEUS
        JATOM        VALENCE       SEMI-CORE          CORE           TOTAL
:RTO001:   1      649.582483        0.000000   656824.846591   657474.429074
     
       CHARGES OF NEW CHARGE DENSITY
:NTO   : INTERSTITIAL CHARGE =     2.484635
:NPC   : PW Pseudocharge     =     8.013543
:NTO001: CHARGE SPHERE  1    =    56.514792

:NEC01: NUCLEAR AND ELECTRONIC CHARGE     59.00000    58.99943
     
       CHARGES OF OLD CHARGE DENSITY
:OTO   : INTERSTITIAL CHARGE =     2.490980
:OPC   : PW Pseudocharge     =     8.018576
:OTO001: CHARGE SPHERE  1    =    56.509020

:NEC02: NUCLEAR AND ELECTRONIC CHARGE     59.00000    59.00000
     
       CONVERGENCE TEST
:DTO001: DIFFERENCE IN SPHERE  1 =  0.0139656

:DIS  :  CHARGE DISTANCE       ( 0.0139656 for atom    1 spin 1)      0.0139656
 PW Mixed is           36
 
******************************************************
* MULTISECANT MIXING VER9 RELEASE 10.4.0              *
* Standard Mode with controls                        *
* Fixed density scale                                *
* Regularization       1.000E-04                     *
* Trust Upper Limit    5.000E+00                     *
* Max Number of Memory Steps    8                    *
******************************************************
 
:PWTMP   8.2580E+01  1.2500E+02  1.4803E+02
:PLANE:  PW TOTAL      3.2127 DISTAN   2.24E-03  6.99E-02 %
:CHARG:  CLM/ATOM    977.1760 DISTAN   1.41E-02  1.44E-03 %
 
Step History
        DMIX         DMIXT        Red     Pred      Trust     Lambda    MagRel    MagAbs     Beta
  1   3.5000E-02   3.5000E-02 -1.00E+00  1.00E+00 -1.00E+01  1.00E+00  3.50E-02  3.50E-02  1.00E+00
  2   2.5000E-02   2.5000E-02  9.68E-01  1.00E+00 -1.00E+01  1.00E+00  2.50E-02  6.04E-03  1.00E+00
  3   2.8929E-02   2.8929E-02  5.66E-01  1.00E+00 -1.00E+01  2.75E+00  2.89E-02  6.76E-03  1.00E+00
  4   6.9913E-02   6.9913E-02  6.94E-01  6.89E-01  3.33E-01  2.28E+00  2.91E-01  3.85E-02  8.00E-01
  5   1.7478E-01   1.4983E-01  4.50E-01  3.39E-01  5.65E-01  1.48E+00  5.65E-01  5.19E-02  1.00E+00
  6   6.9913E-02   6.9913E-02  3.59E-01  1.49E-01  7.53E-01  1.54E+00  7.01E-01  2.90E-02  1.00E+00
  7   1.1585E-01   1.1585E-01 -1.00E+00  3.19E-01  1.00E+00  1.00E+00  1.72E-01  2.55E-03  9.78E-01
:JACOBIANS    4.286E-01   1.266E+00
  
:NORMS:  1/Froebius, Min, Max, Used   0.7501E+00  0.4227E+00  0.9540E+00  0.8538E+00
:INFO :  Number of Memory Steps    6 Skipping    0
:INFO :  SLambda=    1.4281068899  Max    1.4281068899
:PREDicted Charge, CTotal, PW Trust    3.230E-04   3.230E-04   4.306E-04
:PREDicted DMix, Beta, BLim   7.1725E-01  1.7536E+00  1.0117E+00

Eigenvalues, unscaled except for SY+YY
   #     SY Real        SY Imag          SS             YY         SY+YY Real      SY+YY Imag
   1   2.530766E+00   0.000000E+00   2.352990E+00   3.227819E+00   6.692726E+00   0.000000E+00
   2   9.966751E-01   0.000000E+00   8.210570E-01   1.914077E+00   3.247072E+00   0.000000E+00
   3   4.956265E-01   0.000000E+00   2.020966E-01   8.578678E-01   1.805312E+00   0.000000E+00
   4   5.187935E-06   0.000000E+00   6.942839E-07   1.941725E-04   2.218404E-04   0.000000E+00
   5   3.615247E-15   0.000000E+00   2.365419E-07   3.619440E-05   6.612955E-06   0.000000E+00
   6   1.349708E-06   0.000000E+00   1.880140E-16   5.255918E-06   4.146372E-05   0.000000E+00
 
:INFO :  Singular value  6.709E+00 Weight  1.000E+00 Projection  2.868E-03
:INFO :  Singular value  3.242E+00 Weight  1.000E+00 Projection  5.115E-03
:INFO :  Singular value  1.804E+00 Weight  1.000E+00 Projection  8.554E-03
:INFO :  Singular value  2.221E-04 Weight  3.213E-01 Projection  8.042E-02
:INFO :  Singular value  4.152E-05 Weight  1.628E-02 Projection -2.579E-03
:INFO :  Singular value  6.596E-06 Weight  4.175E-04 Projection -6.484E-05
:RANK :  ACTIVE   3.34/6  =  55.63 % ; YY RANK   3.28/6  =  54.64 %
 
:BLIM :  VZERO Control Off
:TRUST:  Step 1.04E+00  Charge 4.80E-02 (e) CTO  1.60E-01 (e) PW  2.24E-01 (e)
:DIRM :  MEMORY  6/8  SCALE   1.000 RED  0.96 PRED  0.32 NEXT  0.22 
:TRAVE:  Charge 2.03E-03 (e) CTO  2.03E-03 (e) PW  2.30E-03 (e)
:DIRP :  |MSR1|= 1.228E-03 |PRATT|= 2.245E-03 ANGLE=  60.7 DEGREES
:DIRQ :  |MSR1|= 4.676E-03 |PRATT|= 1.409E-02 ANGLE=  40.8 DEGREES
:DIRT :  |MSR1|= 4.835E-03 |PRATT|= 1.427E-02 ANGLE=  42.1 DEGREES
:MIX  :   MSE1   REGULARIZATION:  3.23E-04 GREED: 0.28963  Newton 1.00  0.3388                
     
       CHARGES OF MIXED CHARGE DENSITY
:CTO   : INTERSTITIAL CHARGE =     2.490062
:CPC   : PW Pseudocharge     =     8.019517
:CTO001: CHARGE SPHERE  1    =    56.509938

:NEC03: NUCLEAR AND ELECTRONIC CHARGE     59.00000    59.00000

PW CHANGE     H    K    L      Current       Change    Residue
:PTO001:      0    0    0  7.09962317E-02  1.547E-07 -6.051E-05
:PTO002:     -1   -1   -1 -1.64282464E-01  6.193E-06  1.211E-05
:PTO003:      0    0   -2  8.81513011E-02 -3.027E-05 -2.390E-05
:PTO004:      0   -2   -2  4.84045926E-02 -6.686E-05 -6.633E-05
:PTO005:     -1   -1   -3 -2.12533293E-02  1.148E-04  9.868E-05
:PTO006:     -2   -2   -2  2.87499596E-03 -2.423E-05 -2.465E-05
:PTO007:      0    0   -4 -3.16731819E-03 -9.902E-06 -6.203E-06
:PTO008:     -1   -3   -3  1.12992768E-02 -2.524E-05 -2.386E-05
:PTO009:      0   -2   -4 -1.13760798E-02  2.149E-05  2.476E-05
:PTO010:     -2   -2   -4 -9.32373709E-03  4.322E-05  3.689E-05
:PTO011:     -3   -3   -3  2.49552392E-03 -1.516E-05 -1.147E-05
:PTO012:     -1   -1   -5  7.14899111E-03 -3.475E-05 -3.205E-05

:ENE  : ********** TOTAL ENERGY IN Ry =       -18472.09607103


------- case.scf0 --------
 Flat Integration
 New Mode for Coulomb Integral
 Consistent 3/8+Simpson combinations
 Extension of core to zero
 LDM version in phi
 Fifth-order quadrature in outwin


            ---------
:ITE027: 27. ITERATION
            ---------

:NATO :    1 INDEPENDENT AND    1 TOTAL ATOMS IN UNITCELL
       SUBSTANCE: blebleble                                                   

       LATTICE                      = F   
:POT  : POTENTIAL OPTION EX_LDA EC_LDA VX_LDA VC_LDA
:LAT  : LATTICE CONSTANTS=  8.39724  8.39724  8.39724    1.571    1.571    1.571
:VOL  : UNIT CELL VOLUME =     148.03009
       MODE OF CALCULATION IS       = RELA
       NON-SPINPOLARIZED CALCULATION
:IFFT  : FFT-parameters:   72   72   72 Factor: 2.00


   CONVERGENCE PARAMETER FOR PSEUDOCHARGE: NCON=  9
   MAXIMAL VALUE OF RMT(JATOM)*ABSK(NKK) : RK  =29.92976


:VKCOUL :  VK-COUL convergence: 0.128E-06
       ATOMNUMBER=  1 Pr         VCOUL-ZERO =  0.69433E+00
:FIT001: LUSE= 13 SIGMA OF V-XC FIT FOR ATOM  1  0.4452320E-04
:FIT001: LUSE= 13 SIGMA OF V-XC FIT FOR ATOM  1  0.4452320E-04
:DEN  : DENSITY INTEGRAL  =         -7101.76084241   (Ry)
       ELS_POTENTIAL_AT Z=0 and Z=0.5:  -2.88733  -2.88733
       ELS_POTENTIAL_AT Y=0 and Y=0.5:   0.00000   0.00000
:VZERO:v0,v0c,v0x  -3.98471  -2.88733  -1.09738 v5,v5c,v5x  -3.98471  -2.88733  -1.09738
:VZERY:v0,v0c,v0x  -0.86644   0.00000  -0.86644 v5,v5c,v5x  -0.86644   0.00000  -0.86644
:VZERX:v0,v0c,v0x  -0.86644   0.00000  -0.86644 v5,v5c,v5x  -0.86644   0.00000  -0.86644

------- case.scf1 --------
:LMAX-WF:   10   Non-Spherical LMAX:   4

          ATOMIC SPHERE DEPENDENT PARAMETERS FOR ATOM  Pr        
:e__0001: OVERALL ENERGY PARAMETER IS    0.8301
          OVERALL BASIS SET ON ATOM IS LAPW
:E0_0001: E( 0)=    0.8301
             APW+lo
:E0_0001: E( 0)=   -1.5938   E(BOTTOM)=   -1.984   E(TOP)=   -1.204  4  5   220
             LOCAL ORBITAL
:E1_0001: E( 1)=    1.2301
             APW+lo
:E1_0001: E( 1)=   -0.2129   E(BOTTOM)=   -0.873   E(TOP)=    0.447  3  4   223
             LOCAL ORBITAL
:E3_0001: E( 3)=    1.0861   E(BOTTOM)=    0.938   E(TOP)=    1.234  0  1   124
             APW+lo
:E2_0001: E( 2)=    0.8301   E(BOTTOM)=    0.688   E(TOP)= -200.000  2 -1   119
             APW+lo

       K=   0.00000   0.00000   0.00000            1
:RKM  : MATRIX SIZE   133LOs:  20  RKM= 8.37  WEIGHT= 1.00  PGR:    
       EIGENVALUES ARE:
:EIG00001:      -1.6129790   -0.1135848   -0.1135848   -0.1135848    0.8463050
:EIG00006:       1.0222297    1.0802349    1.0802349    1.0802349    1.1488529
:EIG00011:       1.1488529    1.1488529    1.1764526    1.1764526    1.1764526
:EIG00016:       1.4839893    1.4839893    1.9381500    2.2655144    2.2655144
:EIG00021:       2.2655144    2.3194846    3.6575982    3.6575982    3.6575982
:EIG00026:       3.8693753    3.8693753    3.8959555    3.8959555    3.8959555
:EIG00031:       4.5803328    4.8195864    4.8195864    4.8195864    5.4819418
:EIG00036:       5.4819418    5.5696462    5.5696462    5.5696462    5.6617791
:EIG00041:       5.6617791    5.6617791    5.7263626    5.7263626    5.7263626
:EIG00046:       5.9931992    5.9931992    5.9931992    6.0856149    6.0856149
 
:EIG00051:       6.2941886    6.4286363    6.4286363    6.4286363    6.5450540
:EIG00056:       6.6096915    6.6096915    6.6096915    6.9791286    7.0438304
:EIG00061:       7.0438304    7.0438304    7.6946276    7.6946276    7.6946276
       ********************************************************

:KPT   :      NUMBER OF K-POINTS:   165

------- case.scfso --------
   0.0   0.0 angle (M,z), angle (M,x) deg
 
        SPIN-ORBIT EIGENVALUES:
     K=   0.00000   0.00000   0.00000            1
      MATRIX SIZE=  130   WEIGHT= 1.00
     EIGENVALUES ARE:
          -1.6129790   -1.6129790   -0.2708844   -0.2708844   -0.0390658
          -0.0390658   -0.0390658   -0.0390658    0.8463050    0.8463050
           1.0208981    1.0208981    1.0725254    1.0725254    1.0725254
           1.0725254    1.0910292    1.0910292    1.1457851    1.1457851
           1.1532644    1.1532644    1.1532644    1.1532644    1.1720664
           1.1720664    1.1720664    1.1720664    1.1842682    1.1842682
           1.4843060    1.4843060    1.4843060    1.4843060    1.9382413
           1.9382413    2.2616598    2.2616598    2.2674492    2.2674492

           2.2674492    2.2674492    2.3194846    2.3194846    3.6522662
           3.6522662    3.6522662    3.6522662    3.6676604    3.6676604
           3.8072906    3.8072906    3.8697053    3.8697053    3.8697053
           3.8697053    3.9408799    3.9408799    3.9408799    3.9408799

       ********************************************************

------- case.scf2 --------
:GMA  : POTENTIAL AND CHARGE CUT-OFF  12.00 Ry**.5




:POS001: at.nr.   1 position = 0.00000 0.00000 0.50000  multiplicity =  1

       lmmax  5
       lm=   0 0  4 0  4 4  6 0  6 4
:FER gutzwiller fermi energy   1.04303
:EORB          0.078664326
:SUM sum of gutz band energies          0.273550992

:CHA001: total charge inside sphere   1 =    10.512403
:PCS001: partial charges sphere =  1 s,p,d,f,      d-eg,d-t2g 
:QTL001: 2.0384 5.2921 1.0429 2.1351 0.0000 0.0000 0.0000 0.3884 0.6544 0.0000 0.0000 0.0000

:CHA  : total charge inside unit cell =       6.500000

------- case.scfc --------

        1.ATOM      Pr                   14 CORE STATES
:1S 001: 1S               -3066.498970082 Ry
:2S 001: 2S                -492.246846023 Ry
:2PP001: 2P*               -465.346594817 Ry
:2P 001: 2P                -429.948856373 Ry
:3S 001: 3S                -105.337237845 Ry
:3PP001: 3P*                -93.875110393 Ry
:3P 001: 3P                 -86.867281051 Ry
[...]
           3.6523199    3.6523199    3.6523199    3.6677131    3.6677131
           3.8073093    3.8073093    3.8697101    3.8697101    3.8697101
           3.8697101    3.9408912    3.9408912    3.9408912    3.9408912

       ********************************************************

------- case.scf2 --------
:GMA  : POTENTIAL AND CHARGE CUT-OFF  12.00 Ry**.5




:POS001: at.nr.   1 position = 0.00000 0.00000 0.50000  multiplicity =  1

       lmmax  5
       lm=   0 0  4 0  4 4  6 0  6 4
:FER gutzwiller fermi energy   1.04326
:EORB          0.079263327
:SUM sum of gutz band energies          0.275430537

:CHA001: total charge inside sphere   1 =    10.510315
:PCS001: partial charges sphere =  1 s,p,d,f,      d-eg,d-t2g 
:QTL001: 2.0385 5.2920 1.0438 2.1320 0.0000 0.0000 0.0000 0.3887 0.6551 0.0000 0.0000 0.0000

:CHA  : total charge inside unit cell =       6.500000

------- case.scfc --------

        1.ATOM      Pr                   14 CORE STATES
:1S 001: 1S               -3066.499122554 Ry
:2S 001: 2S                -492.246772674 Ry
:2PP001: 2P*               -465.346571725 Ry
:2P 001: 2P                -429.948814501 Ry
:3S 001: 3S                -105.336754223 Ry
:3PP001: 3P*                -93.874648173 Ry
:3P 001: 3P                 -86.866799060 Ry
:3DD001: 3D*                -66.793507804 Ry
:3D 001: 3D                 -65.281950246 Ry
:4S 001: 4S                 -20.015568667 Ry
:4PP001: 4P*                -15.722555892 Ry
:4P 001: 4P                 -14.195432676 Ry
:4DD001: 4D*                 -7.128933857 Ry
:4D 001: 4D                  -6.859644327 Ry

------- case.scfm --------
:CINT001 Core Integral Atom   1   45.999497

       DENSITY AT NUCLEUS
        JATOM        VALENCE       SEMI-CORE          CORE           TOTAL
:RTO001:   1      649.463500        0.000000   656824.793378   657474.256878
     
       CHARGES OF NEW CHARGE DENSITY
:NTO   : INTERSTITIAL CHARGE =     2.489530
:NPC   : PW Pseudocharge     =     8.017257
:NTO001: CHARGE SPHERE  1    =    56.509813

:NEC01: NUCLEAR AND ELECTRONIC CHARGE     59.00000    58.99934
     
       CHARGES OF OLD CHARGE DENSITY
:OTO   : INTERSTITIAL CHARGE =     2.489521
:OPC   : PW Pseudocharge     =     8.018434
:OTO001: CHARGE SPHERE  1    =    56.510479

:NEC02: NUCLEAR AND ELECTRONIC CHARGE     59.00000    59.00000
     
       CONVERGENCE TEST
:DTO001: DIFFERENCE IN SPHERE  1 =  0.0012463

:DIS  :  CHARGE DISTANCE       ( 0.0012463 for atom    1 spin 1)      0.0012463
 PW Mixed is           36
 
******************************************************
* MULTISECANT MIXING VER9 RELEASE 10.4.0              *
* Standard Mode with controls                        *
* Fixed density scale                                *
* Regularization       1.000E-04                     *
* Trust Upper Limit    5.000E+00                     *
* Max Number of Memory Steps    8                    *
******************************************************
 
:PWTMP   8.2580E+01  1.2500E+02  1.4803E+02
:PLANE:  PW TOTAL      3.2120 DISTAN   3.98E-04  1.24E-02 %
:CHARG:  CLM/ATOM    977.1754 DISTAN   1.26E-03  1.29E-04 %
 
Step History
        DMIX         DMIXT        Red     Pred      Trust     Lambda    MagRel    MagAbs     Beta
  2   2.5000E-02   2.5000E-02  9.68E-01  1.00E+00 -1.00E+01  1.00E+00  2.50E-02  6.04E-03  1.00E+00
  3   2.8929E-02   2.8929E-02  5.66E-01  1.00E+00 -1.00E+01  2.75E+00  2.89E-02  6.76E-03  1.00E+00
  4   6.9913E-02   6.9913E-02  6.94E-01  6.89E-01  3.33E-01  2.28E+00  2.91E-01  3.85E-02  8.00E-01
  5   1.7478E-01   1.4983E-01  4.50E-01  3.39E-01  5.65E-01  1.48E+00  5.65E-01  5.19E-02  1.00E+00
  6   6.9913E-02   6.9913E-02  3.59E-01  1.49E-01  7.53E-01  1.54E+00  7.01E-01  2.90E-02  1.00E+00
  7   1.1585E-01   1.1585E-01  9.62E-01  3.19E-01  1.00E+00  1.43E+00  1.72E-01  2.55E-03  9.78E-01
  8   2.8963E-01   2.8963E-01  3.12E-01  2.22E-01  1.04E+00  1.56E+00  3.39E-01  4.83E-03  1.00E+00
  9   3.1825E-01   3.1825E-01  2.65E-01  3.97E-01  1.72E+00  1.64E+00  5.21E-01  2.32E-03  1.00E+00
 10   2.3165E-01   2.3165E-01 -1.00E+00  3.00E-01  2.76E+00  1.00E+00  4.08E-01  4.81E-04  9.09E-01
:JACOBIANS    7.895E-01   2.356E+00
  
:NORMS:  1/Froebius, Min, Max, Used   0.6580E+00  0.5283E+00  0.9563E+00  0.7219E+00
:INFO :  Number of Memory Steps    8 Skipping    1
:INFO :  SLambda=    1.5623458260  Max    1.5623458260
:PREDicted Charge, CTotal, PW Trust    6.747E-04   6.747E-04   7.715E-04
:PREDicted DMix, Beta, BLim   2.6482E-01  2.4602E+00  2.9700E+00

Eigenvalues, unscaled except for SY+YY
   #     SY Real        SY Imag          SS             YY         SY+YY Real      SY+YY Imag
   1   2.366558E+00   0.000000E+00   2.530718E+00   4.856381E+00   7.321588E+00   0.000000E+00
   2   5.793168E-01   4.165767E-01   5.138571E-01   2.020563E+00   4.219307E+00   0.000000E+00
   3   5.793168E-01  -4.165767E-01   2.763109E-01   8.841284E-01   1.704444E+00   0.000000E+00
   4   2.082463E-01   0.000000E+00   1.378310E-01   2.361940E-01   5.851398E-01   0.000000E+00
   5   2.555285E-03   0.000000E+00   4.884321E-03   2.449828E-03   6.115254E-03   0.000000E+00
   6   7.414039E-05   0.000000E+00   1.514605E-05   2.642214E-04   4.167737E-04   0.000000E+00
   7   1.186085E-06   0.000000E+00   2.441225E-07   1.525294E-05   1.514280E-05   0.000000E+00
   8   7.871374E-07   0.000000E+00   9.782324E-08   4.230857E-06   6.770417E-06   0.000000E+00
 
:INFO :  Singular value  7.702E+00 Weight  1.000E+00 Projection -4.392E-04
:INFO :  Singular value  4.288E+00 Weight  1.000E+00 Projection  3.670E-04
:INFO :  Singular value  1.611E+00 Weight  1.000E+00 Projection -1.239E-04
:INFO :  Singular value  5.845E-01 Weight  1.000E+00 Projection -7.514E-05
:INFO :  Singular value  6.065E-03 Weight  9.936E-01 Projection  3.336E-03
:INFO :  Singular value  4.173E-04 Weight  4.247E-01 Projection  5.441E-03
:INFO :  Singular value  1.520E-05 Weight  9.788E-04 Projection  4.799E-05
:INFO :  Singular value  6.729E-06 Weight  1.920E-04 Projection -5.295E-06
:RANK :  ACTIVE   5.42/8  =  67.74 % ; YY RANK   5.19/8  =  64.90 %
 
:BLIM :  VZERO Control Off
:TRUST:  Step 2.51E+00  Charge 2.23E-02 (e) CTO  7.45E-02 (e) PW  1.04E-01 (e)
:DIRM :  MEMORY  8/8  SCALE   1.000 RED  1.12 PRED  0.30 NEXT  0.17 
:TRAVE:  Charge 5.89E-04 (e) CTO  5.89E-04 (e) PW  7.16E-04 (e)
:DIRP :  |MSR1|= 2.727E-04 |PRATT|= 3.981E-04 ANGLE=   5.1 DEGREES
:DIRQ :  |MSR1|= 1.020E-03 |PRATT|= 1.257E-03 ANGLE=  41.6 DEGREES
:DIRT :  |MSR1|= 1.056E-03 |PRATT|= 1.318E-03 ANGLE=  39.9 DEGREES
:MIX  :   MSE1   REGULARIZATION:  4.86E-04 GREED: 0.25467  Newton 1.00  0.8011                
     
       CHARGES OF MIXED CHARGE DENSITY
:CTO   : INTERSTITIAL CHARGE =     2.489977
:CPC   : PW Pseudocharge     =     8.019070
:CTO001: CHARGE SPHERE  1    =    56.510023

:NEC03: NUCLEAR AND ELECTRONIC CHARGE     59.00000    59.00000

PW CHANGE     H    K    L      Current       Change    Residue
:PTO001:      0    0    0  7.09926416E-02  7.385E-06  1.084E-05
:PTO002:     -1   -1   -1 -1.64273232E-01 -9.220E-06 -1.293E-05
:PTO003:      0    0   -2  8.81467543E-02  4.625E-06  7.327E-06
:PTO004:      0   -2   -2  4.84062738E-02  4.587E-06  6.303E-06
:PTO005:     -1   -1   -3 -2.12574784E-02 -4.603E-06 -4.627E-06
:PTO006:     -2   -2   -2  2.87065421E-03  1.276E-06  1.155E-07
:PTO007:      0    0   -4 -3.16540741E-03  1.241E-07 -3.661E-08
:PTO008:     -1   -3   -3  1.12950813E-02  9.056E-07  1.440E-06
:PTO009:      0   -2   -4 -1.13678672E-02 -8.246E-07 -1.213E-06
:PTO010:     -2   -2   -4 -9.32576589E-03 -6.966E-07 -2.719E-06
:PTO011:     -3   -3   -3  2.49815674E-03  1.371E-07  1.034E-06
:PTO012:     -1   -1   -5  7.14851545E-03  4.533E-07  2.345E-06

:ENE  : ********** TOTAL ENERGY IN Ry =       -18472.09603613


------- case.scf0 --------
 Flat Integration
 New Mode for Coulomb Integral
 Consistent 3/8+Simpson combinations
 Extension of core to zero
 LDM version in phi
 Fifth-order quadrature in outwin


            ---------
:ITE030: 30. ITERATION
            ---------

:NATO :    1 INDEPENDENT AND    1 TOTAL ATOMS IN UNITCELL
       SUBSTANCE: blebleble                                                   

       LATTICE                      = F   
:POT  : POTENTIAL OPTION EX_LDA EC_LDA VX_LDA VC_LDA
:LAT  : LATTICE CONSTANTS=  8.39724  8.39724  8.39724    1.571    1.571    1.571
:VOL  : UNIT CELL VOLUME =     148.03009
       MODE OF CALCULATION IS       = RELA
       NON-SPINPOLARIZED CALCULATION
:IFFT  : FFT-parameters:   72   72   72 Factor: 2.00


   CONVERGENCE PARAMETER FOR PSEUDOCHARGE: NCON=  9
   MAXIMAL VALUE OF RMT(JATOM)*ABSK(NKK) : RK  =29.92976


:VKCOUL :  VK-COUL convergence: 0.129E-06
       ATOMNUMBER=  1 Pr         VCOUL-ZERO =  0.69429E+00
:FIT001: LUSE= 13 SIGMA OF V-XC FIT FOR ATOM  1  0.4470594E-04
:FIT001: LUSE= 13 SIGMA OF V-XC FIT FOR ATOM  1  0.4470594E-04
:DEN  : DENSITY INTEGRAL  =         -7101.74736454   (Ry)
       ELS_POTENTIAL_AT Z=0 and Z=0.5:  -2.88718  -2.88718
       ELS_POTENTIAL_AT Y=0 and Y=0.5:   0.00000   0.00000
:VZERO:v0,v0c,v0x  -3.98454  -2.88718  -1.09736 v5,v5c,v5x  -3.98454  -2.88718  -1.09736
:VZERY:v0,v0c,v0x  -0.86643   0.00000  -0.86643 v5,v5c,v5x  -0.86643   0.00000  -0.86643
:VZERX:v0,v0c,v0x  -0.86643   0.00000  -0.86643 v5,v5c,v5x  -0.86643   0.00000  -0.86643

------- case.scf1 --------
:LMAX-WF:   10   Non-Spherical LMAX:   4

          ATOMIC SPHERE DEPENDENT PARAMETERS FOR ATOM  Pr        
:e__0001: OVERALL ENERGY PARAMETER IS    0.8301
          OVERALL BASIS SET ON ATOM IS LAPW
:E0_0001: E( 0)=    0.8301
             APW+lo
:E0_0001: E( 0)=   -1.5938   E(BOTTOM)=   -1.984   E(TOP)=   -1.204  4  5   220
             LOCAL ORBITAL
:E1_0001: E( 1)=    1.2301
             APW+lo
:E1_0001: E( 1)=   -0.2129   E(BOTTOM)=   -0.873   E(TOP)=    0.447  3  4   224
             LOCAL ORBITAL
:E3_0001: E( 3)=    1.0861   E(BOTTOM)=    0.938   E(TOP)=    1.234  0  1   121
             APW+lo
:E2_0001: E( 2)=    0.8301   E(BOTTOM)=    0.688   E(TOP)= -200.000  2 -1   122
             APW+lo

       K=   0.00000   0.00000   0.00000            1
:RKM  : MATRIX SIZE   133LOs:  20  RKM= 8.37  WEIGHT= 1.00  PGR:    
       EIGENVALUES ARE:
:EIG00001:      -1.6129713   -0.1135814   -0.1135814   -0.1135814    0.8462811
:EIG00006:       1.0222205    1.0802329    1.0802329    1.0802329    1.1488493
:EIG00011:       1.1488493    1.1488493    1.1764345    1.1764345    1.1764345
:EIG00016:       1.4839759    1.4839759    1.9381178    2.2654834    2.2654834
:EIG00021:       2.2654834    2.3194503    3.6575795    3.6575795    3.6575795
:EIG00026:       3.8693583    3.8693583    3.8959316    3.8959316    3.8959316
:EIG00031:       4.5803049    4.8195534    4.8195534    4.8195534    5.4819173
:EIG00036:       5.4819173    5.5696275    5.5696275    5.5696275    5.6617556
:EIG00041:       5.6617556    5.6617556    5.7263370    5.7263370    5.7263370
:EIG00046:       5.9931746    5.9931746    5.9931746    6.0855853    6.0855853
 
:EIG00051:       6.2941644    6.4286050    6.4286050    6.4286050    6.5450210
:EIG00056:       6.6096603    6.6096603    6.6096603    6.9791080    7.0437975
:EIG00061:       7.0437975    7.0437975    7.6945933    7.6945933    7.6945933
       ********************************************************

:KPT   :      NUMBER OF K-POINTS:   165

------- case.scfso --------
   0.0   0.0 angle (M,z), angle (M,x) deg
 
        SPIN-ORBIT EIGENVALUES:
     K=   0.00000   0.00000   0.00000            1
      MATRIX SIZE=  130   WEIGHT= 1.00
     EIGENVALUES ARE:
          -1.6129713   -1.6129713   -0.2708793   -0.2708793   -0.0390633
          -0.0390633   -0.0390633   -0.0390633    0.8462811    0.8462811
           1.0208888    1.0208888    1.0725232    1.0725232    1.0725232
           1.0725232    1.0910275    1.0910275    1.1457815    1.1457815
           1.1532610    1.1532610    1.1532610    1.1532610    1.1720484
           1.1720484    1.1720484    1.1720484    1.1842499    1.1842499
           1.4842926    1.4842926    1.4842926    1.4842926    1.9382091
           1.9382091    2.2616289    2.2616289    2.2674181    2.2674181

           2.2674181    2.2674181    2.3194503    2.3194503    3.6522476
           3.6522476    3.6522476    3.6522476    3.6676417    3.6676417
           3.8072670    3.8072670    3.8696884    3.8696884    3.8696884
           3.8696884    3.9408559    3.9408559    3.9408559    3.9408559

       ********************************************************

------- case.scf2 --------
:GMA  : POTENTIAL AND CHARGE CUT-OFF  12.00 Ry**.5




:POS001: at.nr.   1 position = 0.00000 0.00000 0.50000  multiplicity =  1

       lmmax  5
       lm=   0 0  4 0  4 4  6 0  6 4
:FER gutzwiller fermi energy   1.04324
:EORB          0.078158807
:SUM sum of gutz band energies          0.273998942

:CHA001: total charge inside sphere   1 =    10.510827
:PCS001: partial charges sphere =  1 s,p,d,f,      d-eg,d-t2g 
:QTL001: 2.0385 5.2922 1.0439 2.1322 0.0000 0.0000 0.0000 0.3888 0.6552 0.0000 0.0000 0.0000

:CHA  : total charge inside unit cell =       6.500000

------- case.scfc --------

        1.ATOM      Pr                   14 CORE STATES
:1S 001: 1S               -3066.499723426 Ry
:2S 001: 2S                -492.247451303 Ry
:2PP001: 2P*               -465.347233081 Ry
:2P 001: 2P                -429.949482302 Ry
:3S 001: 3S                -105.337559501 Ry
:3PP001: 3P*                -93.875447390 Ry
:3P 001: 3P                 -86.867602598 Ry
:3DD001: 3D*                -66.794296570 Ry
:3D 001: 3D                 -65.282740942 Ry
:4S 001: 4S                 -20.016303083 Ry
:4PP001: 4P*                -15.723278675 Ry
:4P 001: 4P                 -14.196140031 Ry
:4DD001: 4D*                 -7.129608209 Ry
:4D 001: 4D                  -6.860312986 Ry

------- case.scfm --------
:CINT001 Core Integral Atom   1   45.999498

       DENSITY AT NUCLEUS
        JATOM        VALENCE       SEMI-CORE          CORE           TOTAL
:RTO001:   1      649.510133        0.000000   656824.796805   657474.306938
     
       CHARGES OF NEW CHARGE DENSITY
:NTO   : INTERSTITIAL CHARGE =     2.489041
:NPC   : PW Pseudocharge     =     8.016945
:NTO001: CHARGE SPHERE  1    =    56.510324

:NEC01: NUCLEAR AND ELECTRONIC CHARGE     59.00000    58.99937
     
       CHARGES OF OLD CHARGE DENSITY
:OTO   : INTERSTITIAL CHARGE =     2.489977
:OPC   : PW Pseudocharge     =     8.019070
:OTO001: CHARGE SPHERE  1    =    56.510023

:NEC02: NUCLEAR AND ELECTRONIC CHARGE     59.00000    59.00000
     
       CONVERGENCE TEST
:DTO001: DIFFERENCE IN SPHERE  1 =  0.0006544

:DIS  :  CHARGE DISTANCE       ( 0.0006544 for atom    1 spin 1)      0.0006544
 PW Mixed is           36
 
******************************************************
* MULTISECANT MIXING VER9 RELEASE 10.4.0              *
* Standard Mode with controls                        *
* Fixed density scale                                *
* Regularization       1.000E-04                     *
* Trust Upper Limit    5.000E+00                     *
* Max Number of Memory Steps    8                    *
******************************************************
 
:PWTMP   8.2580E+01  1.2500E+02  1.4803E+02
:PLANE:  PW TOTAL      3.2123 DISTAN   1.28E-04  3.98E-03 %
:CHARG:  CLM/ATOM    977.1756 DISTAN   6.65E-04  6.81E-05 %
 
Step History
        DMIX         DMIXT        Red     Pred      Trust     Lambda    MagRel    MagAbs     Beta
  3   2.8929E-02   2.8929E-02  5.66E-01  1.00E+00 -1.00E+01  2.75E+00  2.89E-02  6.76E-03  1.00E+00
  4   6.9913E-02   6.9913E-02  6.94E-01  6.89E-01  3.33E-01  2.28E+00  2.91E-01  3.85E-02  8.00E-01
  5   1.7478E-01   1.4983E-01  4.50E-01  3.39E-01  5.65E-01  1.48E+00  5.65E-01  5.19E-02  1.00E+00
  6   6.9913E-02   6.9913E-02  3.59E-01  1.49E-01  7.53E-01  1.54E+00  7.01E-01  2.90E-02  1.00E+00
  7   1.1585E-01   1.1585E-01  9.62E-01  3.19E-01  1.00E+00  1.43E+00  1.72E-01  2.55E-03  9.78E-01
  8   2.8963E-01   2.8963E-01  3.12E-01  2.22E-01  1.04E+00  1.56E+00  3.39E-01  4.83E-03  1.00E+00
  9   3.1825E-01   3.1825E-01  2.65E-01  3.97E-01  1.72E+00  1.64E+00  5.21E-01  2.32E-03  1.00E+00
 10   2.3165E-01   2.3165E-01  1.12E+00  3.00E-01  2.76E+00  1.56E+00  4.08E-01  4.81E-04  9.09E-01
 11   2.5467E-01   2.5467E-01 -1.00E+00  1.71E-01  2.51E+00  1.00E+00  8.01E-01  1.06E-03  1.00E+00
:JACOBIANS    9.736E-01   2.516E+00
  
:NORMS:  1/Froebius, Min, Max, Used   0.6497E+00  0.5879E+00  0.1020E+01  0.6679E+00
:INFO :  Number of Memory Steps    8 Skipping    2
:INFO :  SLambda=    1.5416687920  Max    1.5416687920
:PREDicted Charge, CTotal, PW Trust    4.171E-04   4.171E-04   6.793E-04
:PREDicted DMix, Beta, BLim   3.5981E-01  8.3907E-01  4.3149E+00

Eigenvalues, unscaled except for SY+YY
   #     SY Real        SY Imag          SS             YY         SY+YY Real      SY+YY Imag
   1   2.417596E+00   0.000000E+00   2.292086E+00   5.447700E+00   8.753187E+00   0.000000E+00
   2   1.170553E+00   0.000000E+00   7.613677E-01   1.981060E+00   4.366062E+00   0.000000E+00
   3   3.392638E-01   0.000000E+00   1.905367E-01   4.119422E-01   7.854499E-01   0.000000E+00
   4   1.344307E-01   0.000000E+00   1.189575E-01   1.390486E-01   3.374334E-01   0.000000E+00
   5   1.687961E-02   0.000000E+00   1.348596E-02   1.970206E-02   4.514440E-02   0.000000E+00
   6   1.075640E-04   0.000000E+00   2.632159E-05   4.081389E-04   7.923309E-04   0.000000E+00
   7   5.792230E-07   0.000000E+00   1.079244E-05   1.361149E-04   5.386063E-06   0.000000E+00
   8   3.495678E-05   0.000000E+00   1.107205E-07   3.187252E-06   1.860046E-04   0.000000E+00
 
:INFO :  Singular value  9.011E+00 Weight  1.000E+00 Projection  2.509E-04
:INFO :  Singular value  4.362E+00 Weight  1.000E+00 Projection  1.423E-04
:INFO :  Singular value  7.857E-01 Weight  1.000E+00 Projection  2.947E-05
:INFO :  Singular value  3.362E-01 Weight  1.000E+00 Projection -1.972E-04
:INFO :  Singular value  4.410E-02 Weight  9.998E-01 Projection  8.590E-04
:INFO :  Singular value  8.007E-04 Weight  6.836E-01 Projection -2.655E-03
:INFO :  Singular value  1.841E-04 Weight  1.025E-01 Projection -2.904E-04
:INFO :  Singular value  5.379E-06 Weight  9.749E-05 Projection -4.362E-06
:RANK :  ACTIVE   5.79/8  =  72.32 % ; YY RANK   5.42/8  =  67.72 %
 
:DLIM :  Beta Active  8.793E-01
:BLIM :  VZERO Control Off
:TRUST:  Step 3.34E+00  Charge 1.79E-02 (e) CTO  5.96E-02 (e) PW  8.34E-02 (e)
:DIRM :  MEMORY  8/8  SCALE   1.000 RED  0.51 PRED  0.17 NEXT  0.17 BETA  0.88
:TRAVE:  Charge 3.25E-04 (e) CTO  3.25E-04 (e) PW  3.61E-04 (e)
:DIRP :  |MSR1|= 5.402E-05 |PRATT|= 1.278E-04 ANGLE=  43.9 DEGREES
:DIRQ :  |MSR1|= 2.182E-04 |PRATT|= 6.652E-04 ANGLE=  41.0 DEGREES
:DIRT :  |MSR1|= 2.247E-04 |PRATT|= 6.773E-04 ANGLE=  41.3 DEGREES
:MIX  :   MSE1   REGULARIZATION:  5.45E-04 GREED: 0.30470  Newton 1.00  0.3318                
     
       CHARGES OF MIXED CHARGE DENSITY
:CTO   : INTERSTITIAL CHARGE =     2.489917
:CPC   : PW Pseudocharge     =     8.019140
:CTO001: CHARGE SPHERE  1    =    56.510083

:NEC03: NUCLEAR AND ELECTRONIC CHARGE     59.00000    59.00000

PW CHANGE     H    K    L      Current       Change    Residue
:PTO001:      0    0    0  7.09927050E-02  6.338E-08 -2.586E-06
:PTO002:     -1   -1   -1 -1.64276633E-01 -3.401E-06 -5.431E-06
:PTO003:      0    0   -2  8.81491571E-02  2.403E-06  4.295E-06
:PTO004:      0   -2   -2  4.84074467E-02  1.173E-06  2.719E-06
:PTO005:     -1   -1   -3 -2.12582178E-02 -7.394E-07 -3.111E-06
:PTO006:     -2   -2   -2  2.87051772E-03 -1.365E-07  2.894E-07
:PTO007:      0    0   -4 -3.16549294E-03 -8.553E-08  2.217E-08
:PTO008:     -1   -3   -3  1.12959104E-02  8.291E-07  1.862E-06
:PTO009:      0   -2   -4 -1.13687218E-02 -8.546E-07 -1.865E-06
:PTO010:     -2   -2   -4 -9.32697337E-03 -1.207E-06 -2.712E-06
:PTO011:     -3   -3   -3  2.49856495E-03  4.082E-07  9.154E-07
:PTO012:     -1   -1   -5  7.14964335E-03  1.128E-06  2.427E-06

:ENE  : ********** TOTAL ENERGY IN Ry =       -18472.09604212

