
:LABEL1: Calculations in /home/ykent/GWIEN/example/Pr/aU/V21/case
:LABEL2: on didymium-2.cmpgroup.ameslab.gov at Fri Jul 10 14:29:26 CDT 2020
:LABEL3: using WIEN2k_19.1 (Release 25/6/2019) in /home/ykent/opt/src/WIEN2k_19.1
:LABEL4: using the command: run_lapw -so -i 70 -cc 0.0001
 Flat Integration
 New Mode for Coulomb Integral
 Consistent 3/8+Simpson combinations
 Extension of core to zero
 LDM version in phi
 Fifth-order quadrature in outwin


            ---------
:ITE015: 15. ITERATION
            ---------

:NATO :    1 INDEPENDENT AND    2 TOTAL ATOMS IN UNITCELL
       SUBSTANCE: aU                                                          

       LATTICE                      = CXY 
:POT  : POTENTIAL OPTION EX_LDA EC_LDA VX_LDA VC_LDA
:LAT  : LATTICE CONSTANTS=  6.69940 13.59477 11.73665    1.571    1.571    1.571
:VOL  : UNIT CELL VOLUME =     534.46794
       MODE OF CALCULATION IS       = RELA
       NON-SPINPOLARIZED CALCULATION
:IFFT  : FFT-parameters:   54  108   96 Factor: 2.00


   CONVERGENCE PARAMETER FOR PSEUDOCHARGE: NCON=  9
   MAXIMAL VALUE OF RMT(JATOM)*ABSK(NKK) : RK  =27.59996


:VKCOUL :  VK-COUL convergence: 0.186E-06
       ATOMNUMBER=  1 Pr1        VCOUL-ZERO = -0.30525E-01
:EFG001:                        EFG         =    -6.81557   *10**21  V / m**2
                               V20  TOT/SRF=    -5.90245    -0.01909
                               V22  TOT/SRF=     0.18267     0.00138
                               V22M TOT/SRF=     0.00000     0.00000
                               V21  TOT/SRF=     0.00000     0.00000
                               V21M TOT/SRF=     0.00000     0.00000

              3.59046    0.00000    0.00000        3.59046    0.00000    0.00000
              0.00000    3.22511    0.00000        0.00000    3.22511    0.00000
              0.00000    0.00000   -6.81557        0.00000    0.00000   -6.81557

         MAIN DIRECTIONS OF THE EFG   1.0000  0.0000  0.0000
                                      0.0000  1.0000  0.0000
                                      0.0000  0.0000  1.0000
:ANG001:  ANGLE WITH OLD X-AXIS =         0.0

:ETA001:                         ASYMM. ETA =     0.05360


     HELLMANN-FEYNMAN-FORCE IN mRy/a.u. = |F|  Fx       Fy             Fz
:FHF001:   1.ATOM   1181.615921273642      0.000000000000      0.000000000000  -1181.615921273642

:FIT001: LUSE= 13 SIGMA OF V-XC FIT FOR ATOM  1  0.5838810E-04
:FIT001: LUSE= 13 SIGMA OF V-XC FIT FOR ATOM  1  0.5838810E-04
:DEN  : DENSITY INTEGRAL  =        -14138.66199555   (Ry)
       ELS_POTENTIAL_AT Z=0 and Z=0.5:   0.66686   0.66686
       ELS_POTENTIAL_AT Y=0 and Y=0.5:   0.08203   0.08203
:VZERO:v0,v0c,v0x   0.11949   0.66686  -0.54737 v5,v5c,v5x   0.11949   0.66686  -0.54737
:VZERY:v0,v0c,v0x  -0.65193   0.08203  -0.73395 v5,v5c,v5x  -0.65193   0.08203  -0.73395
:VZERX:v0,v0c,v0x  -1.07604  -0.36818  -0.70786 v5,v5c,v5x  -1.07604  -0.36818  -0.70786
:LMAX-WF:   10   Non-Spherical LMAX:   4

          ATOMIC SPHERE DEPENDENT PARAMETERS FOR ATOM  Pr1       
:e__0001: OVERALL ENERGY PARAMETER IS    0.3455
          OVERALL BASIS SET ON ATOM IS LAPW
:E0_0001: E( 0)=    0.3455
             APW+lo
:E0_0001: E( 0)=   -2.1335   E(BOTTOM)=   -2.770   E(TOP)=   -1.497  4  5   167
             LOCAL ORBITAL
:E1_0001: E( 1)=    0.7455
             APW+lo
:E1_0001: E( 1)=   -0.6641   E(BOTTOM)=   -1.623   E(TOP)=    0.294  3  4   198
             LOCAL ORBITAL
:E3_0001: E( 3)=    0.5260   E(BOTTOM)=    0.317   E(TOP)=    0.735  0  1   123
             APW+lo
:E2_0001: E( 2)=    0.3455   E(BOTTOM)=    0.118   E(TOP)= -200.000  2 -1    91
             APW+lo

       K=   0.06250   0.00000   0.06250            1
:RKM  : MATRIX SIZE   485LOs:  40  RKM= 8.49  WEIGHT= 4.00  PGR:    
       EIGENVALUES ARE:
:EIG00001:      -2.0995244   -2.0902277   -0.8129019   -0.7573606   -0.7446132
:EIG00006:      -0.7395594   -0.7343828   -0.7343062    0.3114555    0.4552830
:EIG00011:       0.5415966    0.5421511    0.5427823    0.5443539    0.5471213
:EIG00016:       0.5554739    0.5586192    0.5589147    0.5611246    0.5632596
:EIG00021:       0.5660288    0.5697241    0.5704756    0.5742587    0.6095355
:EIG00026:       0.6226199    0.6858098    0.7081978    0.7199814    0.7592717
:EIG00031:       0.7746909    0.8456465    0.8891932    0.9263583    1.1809797
:EIG00036:       1.2224699    1.3102343    1.3131643    1.4580859    1.5108155
:EIG00041:       1.5510801    1.6531188    1.7140863    1.7350808    1.8119584
:EIG00046:       1.8838908    1.8916758    1.9314800    1.9970841    2.0754988
 
:EIG00051:       2.1247584    2.1796931    2.1950726    2.2504271    2.2737357
:EIG00056:       2.3562622    2.4024358    2.4069664    2.5025818    2.5410378
:EIG00061:       2.6046972    2.6304734    2.7517017    2.8392303    2.8468733
:EIG00066:       2.9385595    2.9841279    2.9988783    3.0004474    3.0927553
:EIG00071:       3.0973588    3.1452688    3.1693840    3.2069096    3.2218075
:EIG00076:       3.2618510    3.3009238    3.3336147    3.3614503    3.3833692
:EIG00081:       3.4233911    3.4652146    3.4750439    3.5199876    3.5682791
:EIG00086:       3.5957534    3.6703552    3.6767801    3.7081633    3.7189604
:EIG00091:       3.7525022    3.7723629    3.8209173    3.8215231    3.8291912
:EIG00096:       3.8887089    3.9156329    3.9178918    3.9331470    4.0132557
 
:EIG00101:       4.0697525    4.1958061    4.2013235    4.2557405    4.2956941
:EIG00106:       4.3079136    4.3439879    4.3463184    4.3955327    4.4255056
:EIG00111:       4.4984232    4.5063855    4.5418332    4.5446227    4.5912871
:EIG00116:       4.6462176    4.7201164    4.7472846    4.7583740    4.7857045
:EIG00121:       4.8101848    4.9010762    4.9130617    4.9462643    4.9938925
:EIG00126:       5.0711592    5.0721369    5.1161592    5.1635865    5.1871166
:EIG00131:       5.2046787    5.2579304    5.2913639    5.3038564    5.3200683
:EIG00136:       5.3784585    5.4220009    5.4690868    5.4844332    5.5130647
:EIG00141:       5.5263251    5.5319664    5.5806352    5.6282125    5.6501718
:EIG00146:       5.6671182    5.6847277    5.6876870    5.6942808    5.7927654
 
:EIG00151:       5.8103039    5.8303076    5.9085625    5.9325524    5.9571319
:EIG00156:       6.0649816    6.1440031    6.1690479    6.2035494    6.2173570
:EIG00161:       6.2535761    6.3205331    6.3628730    6.3749453    6.3751520
:EIG00166:       6.4488466    6.4774466    6.4861185    6.5140432    6.5405868
:EIG00171:       6.5587608    6.6253831    6.6561148    6.6634634    6.7220570
:EIG00176:       6.7236239    6.7571302    6.7916009    6.8087413    6.8361455
:EIG00181:       6.9031059    6.9214870    6.9215396    6.9464968    6.9956833
:EIG00186:       7.0025028    7.0069687    7.0972871    7.1072152    7.1136384
:EIG00191:       7.1606047    7.1742147    7.2240909    7.2363549    7.2664600
:EIG00196:       7.2773902    7.2885290    7.3153569    7.3242306    7.3723573
 
:EIG00201:       7.3839150    7.4416254    7.4474878    7.4627915    7.5223505
:EIG00206:       7.5247023    7.5378359    7.5908315    7.6226542    7.6499982
:EIG00211:       7.6554801    7.7040151    7.7084043    7.7256902    7.7360984
:EIG00216:       7.7781637    7.7819213    7.7847086    7.8099714    7.8510763
:EIG00221:       7.8730841    7.9188678    7.9270964    7.9331494    7.9411416
:EIG00226:       7.9530684    7.9968616    7.9981166    8.0362693
       ********************************************************

:KPT   :      NUMBER OF K-POINTS:   288
   0.0   0.0 angle (M,z), angle (M,x) deg
 
        SPIN-ORBIT EIGENVALUES:
     K=   0.06250   0.00000   0.06250            1
      MATRIX SIZE=  458   WEIGHT= 4.00
     EIGENVALUES ARE:
          -2.0995244   -2.0995244   -2.0902278   -2.0902278   -0.9134522
          -0.9134522   -0.8861867   -0.8861867   -0.7252111   -0.7252111
          -0.6767810   -0.6767810   -0.6743661   -0.6743661   -0.6678839
          -0.6678839    0.3114821    0.3114821    0.4551560    0.4551560
           0.5339741    0.5339741    0.5359286    0.5359286    0.5362656
           0.5362656    0.5375495    0.5375495    0.5398675    0.5398676
           0.5424088    0.5424088    0.5596760    0.5596760    0.5654019
           0.5654019    0.5682050    0.5682050    0.5690521    0.5690521

           0.5728837    0.5728837    0.5758211    0.5758211    0.5765287
           0.5765287    0.5801289    0.5801289    0.6101456    0.6101456
           0.6225089    0.6225089    0.6856236    0.6856238    0.7065564
           0.7065564    0.7214601    0.7214601    0.7598026    0.7598026
           0.7746822    0.7746823    0.8454558    0.8454559    0.8894954
           0.8894954    0.9264911    0.9264911    1.1809560    1.1809560
           1.2226932    1.2226932    1.3101767    1.3101767    1.3132256
           1.3132256    1.4576075    1.4576075    1.5101580    1.5101580

           1.5510450    1.5510450    1.6509272    1.6509272    1.7132434
           1.7132434    1.7360044    1.7360044    1.8125325    1.8125325
           1.8828261    1.8828261    1.8896456    1.8896456    1.9332935
           1.9332935    1.9975727    1.9975727    2.0749794    2.0749794
           2.1244307    2.1244307    2.1769744    2.1769744    2.1970147
           2.1970147    2.2516868    2.2516868    2.2747216    2.2747216
           2.3561968    2.3561968    2.4012214    2.4012214    2.4086238
           2.4086238    2.5025638    2.5025638    2.5407736    2.5407736

           2.6079457    2.6079457    2.6307499    2.6307499    2.7516200
           2.7516200    2.8393026    2.8393026    2.8470156    2.8470156
           2.9383179    2.9383179    2.9840418    2.9840418    2.9987503
           2.9987503    3.0008369    3.0008369    3.0928616    3.0928616
           3.0975100    3.0975100    3.1453106    3.1453106    3.1694351
           3.1694351    3.2062800    3.2062800    3.2226995    3.2226995
           3.2619984    3.2619984    3.3021844    3.3021844    3.3336907
           3.3336907    3.3614776    3.3614776    3.3837583    3.3837583

           3.4235967    3.4235967    3.4652312    3.4652312    3.4751562
           3.4751562    3.5201420    3.5201420    3.5683106    3.5683106
           3.5958683    3.5958683    3.6704601    3.6704601    3.6767717
           3.6767717    3.7081493    3.7081493    3.7190137    3.7190137
           3.7525167    3.7525167    3.7724089    3.7724089    3.8202014
           3.8202014    3.8218786    3.8218786    3.8292892    3.8292892
           3.8887100    3.8887100    3.9144708    3.9144708    3.9191980
           3.9191980    3.9332283    3.9332283    4.0132951    4.0132951

           4.0695693    4.0695693    4.1936541    4.1936541    4.2027611
           4.2027611    4.2566436    4.2566436    4.2956058    4.2956058
           4.3081060    4.3081060    4.3434635    4.3434635    4.3477537
           4.3477537    4.3957410    4.3957410    4.4256198    4.4256198
           4.4983289    4.4983289
       ********************************************************
:GAP (global)   :    0.0    Ry =     0.0   eV (metal)
:GAP (this spin):    0.0    Ry =     0.0   eV (metal)
         Bandranges (emin - emax) and occupancy:
:BAN00018:  18    0.307059    0.515149  1.00000000
:BAN00019:  19    0.412229    0.524611  1.00000000
:BAN00020:  20    0.412229    0.524611  1.00000000
:BAN00021:  21    0.494135    0.533974  1.00000000
:BAN00022:  22    0.494135    0.533974  1.00000000
:BAN00023:  23    0.524898    0.537003  1.00000000
:BAN00024:  24    0.524898    0.537003  1.00000000
:BAN00025:  25    0.530556    0.542585  0.80197759
:BAN00026:  26    0.530556    0.542585  0.80197732
:BAN00027:  27    0.535989    0.542902  0.19802270
:BAN00028:  28    0.535989    0.542902  0.19802238
:BAN00029:  29    0.538958    0.547191  0.00000000
:BAN00030:  30    0.538958    0.547191  0.00000000
:BAN00031:  31    0.541128    0.551310  0.00000000
:BAN00032:  32    0.541128    0.551310  0.00000000
:BAN00033:  33    0.544261    0.559880  0.00000000
        Energy to separate low and high energystates:    0.25706


:NOE  : NUMBER OF ELECTRONS          =   26.000

:FER  : F E R M I - ENERGY(TETRAH.M.)=   0.5383144973
:GMA  : POTENTIAL AND CHARGE CUT-OFF  12.00 Ry**.5

:POS001: ATOM   -1 X,Y,Z = 0.00000 0.89750 0.25000  MULT= 2  ZZ= 59.000  Pr1       

       LMMAX 16
       LM=   0 0  1 0  2 0  2 2  3 0  3 2  4 0  4 2  4 4  5 0  5 2  5 4  6 0  6 2  6 4  6 6

:CHA001: TOTAL VALENCE CHARGE INSIDE SPHERE   1 =   9.6498    (RMT=  2.3000 )
:PCS001: PARTIAL CHARGES SPHERE =  1 S,P,D,F,PX,PY,PZ,D-Z2,D-X2Y2,D-XY,D-XZ,D-YZ 
:QTL001: 1.9379 5.0156 0.4127 2.2835 1.6696 1.6696 1.6765 0.0738 0.0737 0.0975 0.0777 0.0900
        Q-s-low E-s-low   Q-p-low E-p-low   Q-d-low E-d-low   Q-f-low E-f-low
:EPL001:  1.8697 -2.0905    4.9600 -0.7726    0.0009 -0.7614    0.0003 -0.7694
        Q-s-hi  E-s-hi    Q-p-hi  E-p-hi    Q-d-hi  E-d-hi    Q-f-hi  E-f-hi 
:EPH001:  0.0682  0.4440    0.0556  0.4790    0.4117  0.4976    2.2832  0.5295

                      VXX         VYY         VZZ       UP TO R
:VZZ001:             3.70330     0.72350    -4.42680       2.300

:CHA  : TOTAL VALENCE CHARGE INSIDE UNIT CELL =      26.000000

:SUM  : SUM OF EIGENVALUES =         -12.567494885


        1.ATOM      Pr1                  14 CORE STATES
       CORE-FORCE in mRy/a.u. = |F|      Fx             Fy             Fz
:FCO001:   1.ATOM   1151.635938549849      0.000000000000      0.000000000000   1151.635938549849

:1S 001: 1S               -3067.061590367 Ry
:2S 001: 2S                -492.812317613 Ry
:2PP001: 2P*               -465.912010444 Ry
:2P 001: 2P                -430.514314735 Ry
:3S 001: 3S                -105.897145631 Ry
:3PP001: 3P*                -94.435250905 Ry
:3P 001: 3P                 -87.427187275 Ry
:3DD001: 3D*                -67.354942199 Ry
:3D 001: 3D                 -65.843288176 Ry
:4S 001: 4S                 -20.574432519 Ry
:4PP001: 4P*                -16.281506428 Ry
:4P 001: 4P                 -14.754447721 Ry
:4DD001: 4D*                 -7.688189164 Ry
:4D 001: 4D                  -7.418913773 Ry
:CINT001 Core Integral Atom   1   45.998483

       DENSITY AT NUCLEUS
        JATOM        VALENCE       SEMI-CORE          CORE           TOTAL
:RTO001:   1      646.075922        0.000000   656824.952859   657471.028781
     
       CHARGES OF NEW CHARGE DENSITY
:NTO   : INTERSTITIAL CHARGE =     6.700372
:NPC   : PW Pseudocharge     =    16.760609
:NTO001: CHARGE SPHERE  1    =    55.648297

:NEC01: NUCLEAR AND ELECTRONIC CHARGE    118.00000   117.99696
     
       CHARGES OF OLD CHARGE DENSITY
:OTO   : INTERSTITIAL CHARGE =     7.012621
:OPC   : PW Pseudocharge     =    16.851076
:OTO001: CHARGE SPHERE  1    =    55.493690

:NEC02: NUCLEAR AND ELECTRONIC CHARGE    118.00000   118.00000
     
       CONVERGENCE TEST
:DTO001: DIFFERENCE IN SPHERE  1 =  0.2546496

:DIS  :  CHARGE DISTANCE       ( 0.2546496 for atom    1 spin 1)      0.2546496
 PW Mixed is          544
 
******************************************************
* MULTISECANT MIXING VER9 RELEASE 10.4.0              *
* Standard Mode with controls                        *
* Fixed density scale                                *
* Regularization       1.000E-04                     *
* Trust Upper Limit    5.000E+00                     *
* Max Number of Memory Steps    8                    *
******************************************************
 
:PWTMP   4.3254E+02  1.9467E+02  5.3447E+02
:PLANE:  PW TOTAL      4.3850 DISTAN   3.85E-02  8.77E-01 %
:CHARG:  CLM/ATOM   1381.9407 DISTAN   4.17E-01  3.02E-02 %
 
Step History
        DMIX         DMIXT        Red     Pred      Trust     Lambda    MagRel    MagAbs     Beta
  1   3.5000E-02   3.5000E-02 -1.00E+00  1.00E+00 -1.00E+01  1.00E+00  3.50E-02  3.50E-02  1.00E+00
:INFO :  Note, Pratt in use
:TRUST:  Step 3.75E-02  Charge 7.50E-02 (e) CTO  2.50E-01 (e) PW  3.50E-01 (e)
:DIRM :  MEMORY  0/ 8 SCALE   1.000
Performing Pseudo Compensation
Final Pseudo Compensation Rescaling     1.00000E+00
:MIX  :   PRATT  REGULARIZATION:  1.00E-04 GREED: 0.02500                  
     
       CHARGES OF MIXED CHARGE DENSITY
:CTO   : INTERSTITIAL CHARGE =     7.004890
:CPC   : PW Pseudocharge     =    16.833842
:CTO001: CHARGE SPHERE  1    =    55.497555

:NEC03: NUCLEAR AND ELECTRONIC CHARGE    118.00000   118.00000

PW CHANGE     H    K    L      Current       Change    Residue
:PTO001:      0    0    0  4.46027356E-02 -4.671E-05 -7.336E-04
:PTO003:      0    2    0  1.29278512E-02 -8.915E-06  4.403E-05
:PTO004:     -1    1    0  6.41600555E-02 -5.495E-05 -2.124E-04
:PTO005:      0    2   -1 -7.49185220E-02  5.492E-05 -1.162E-04
:PTO006:      0    0   -2 -3.87500512E-02  3.109E-05  4.321E-05
:PTO007:     -1    1   -1 -8.20745653E-02  6.034E-05 -5.420E-05
:PTO008:      0    2   -2 -1.37910936E-02  9.340E-06  2.163E-05
:PTO009:     -1    1   -2 -7.20524504E-02  3.940E-05 -2.374E-05
:PTO011:     -1    3    0 -1.21207335E-02  6.667E-06  1.006E-04
:PTO012:     -1    3   -1 -5.52290663E-02  9.883E-06 -5.643E-05
:PTO013:      0    4    0 -1.03449957E-02 -1.193E-06 -5.203E-05
:PTO014:      0    2   -3  2.36418028E-02  8.046E-08  2.971E-06

:ENE  : ********** TOTAL ENERGY IN Ry =       -36944.18557820

       TOTAL FORCE IN mRy/a.u. = |F|     Fx             Fy             Fz     with/without FOR in case.in2
:FOR001:   1.ATOM         29.980          0.000          0.000        -29.980 partial forces
       TOTAL FORCE WITH RESPECT TO GLOBAL CARTESIAN COORDINATES:
:FCA001:   1.ATOM                         0.000        -29.980          0.000 partial forces
       TOTAL FORCE WITH RESPECT TO THE GLOBAL COORDINATE SYSTEM:
:FGL001:   1.ATOM                 0.000000000   -29.979982724     0.000000000 partial forces
 Flat Integration
 New Mode for Coulomb Integral
 Consistent 3/8+Simpson combinations
 Extension of core to zero
 LDM version in phi
 Fifth-order quadrature in outwin


            ---------
:ITE016: 16. ITERATION
            ---------

:NATO :    1 INDEPENDENT AND    2 TOTAL ATOMS IN UNITCELL
       SUBSTANCE: aU                                                          

       LATTICE                      = CXY 
:POT  : POTENTIAL OPTION EX_LDA EC_LDA VX_LDA VC_LDA
:LAT  : LATTICE CONSTANTS=  6.69940 13.59477 11.73665    1.571    1.571    1.571
:VOL  : UNIT CELL VOLUME =     534.46794
       MODE OF CALCULATION IS       = RELA
       NON-SPINPOLARIZED CALCULATION
:IFFT  : FFT-parameters:   54  108   96 Factor: 2.00


   CONVERGENCE PARAMETER FOR PSEUDOCHARGE: NCON=  9
   MAXIMAL VALUE OF RMT(JATOM)*ABSK(NKK) : RK  =27.59996


:VKCOUL :  VK-COUL convergence: 0.185E-06
       ATOMNUMBER=  1 Pr1        VCOUL-ZERO = -0.30471E-01
:EFG001:                        EFG         =    -6.75622   *10**21  V / m**2
                               V20  TOT/SRF=    -5.85105    -0.01878
                               V22  TOT/SRF=     0.21548     0.00159
                               V22M TOT/SRF=     0.00000     0.00000
                               V21  TOT/SRF=     0.00000     0.00000
                               V21M TOT/SRF=     0.00000     0.00000

              3.59359    0.00000    0.00000        3.59359    0.00000    0.00000
              0.00000    3.16263    0.00000        0.00000    3.16263    0.00000
              0.00000    0.00000   -6.75622        0.00000    0.00000   -6.75622

         MAIN DIRECTIONS OF THE EFG   1.0000  0.0000  0.0000
                                      0.0000  1.0000  0.0000
                                      0.0000  0.0000  1.0000
:ANG001:  ANGLE WITH OLD X-AXIS =         0.0

:ETA001:                         ASYMM. ETA =     0.06379


     HELLMANN-FEYNMAN-FORCE IN mRy/a.u. = |F|  Fx       Fy             Fz
:FHF001:   1.ATOM   1181.560833247174      0.000000000000      0.000000000000  -1181.560833247174

:FIT001: LUSE= 13 SIGMA OF V-XC FIT FOR ATOM  1  0.5780227E-04
:FIT001: LUSE= 13 SIGMA OF V-XC FIT FOR ATOM  1  0.5780227E-04
:DEN  : DENSITY INTEGRAL  =        -14139.43345869   (Ry)
       ELS_POTENTIAL_AT Z=0 and Z=0.5:   0.66600   0.66600
       ELS_POTENTIAL_AT Y=0 and Y=0.5:   0.08195   0.08195
:VZERO:v0,v0c,v0x   0.11886   0.66600  -0.54714 v5,v5c,v5x   0.11886   0.66600  -0.54714
:VZERY:v0,v0c,v0x  -0.65174   0.08195  -0.73369 v5,v5c,v5x  -0.65174   0.08195  -0.73369
:VZERX:v0,v0c,v0x  -1.07533  -0.36772  -0.70761 v5,v5c,v5x  -1.07533  -0.36772  -0.70761
:LMAX-WF:   10   Non-Spherical LMAX:   4

          ATOMIC SPHERE DEPENDENT PARAMETERS FOR ATOM  Pr1       
:e__0001: OVERALL ENERGY PARAMETER IS    0.3407
          OVERALL BASIS SET ON ATOM IS LAPW
:E0_0001: E( 0)=    0.3407
             APW+lo
:E0_0001: E( 0)=   -2.1308   E(BOTTOM)=   -2.768   E(TOP)=   -1.494  4  5   166
             LOCAL ORBITAL
:E1_0001: E( 1)=    0.7407
             APW+lo
:E1_0001: E( 1)=   -0.6618   E(BOTTOM)=   -1.621   E(TOP)=    0.297  3  4   198
             LOCAL ORBITAL
:E3_0001: E( 3)=    0.5307   E(BOTTOM)=    0.321   E(TOP)=    0.741  0  1   109
             APW+lo
:E2_0001: E( 2)=    0.3407   E(BOTTOM)=    0.119   E(TOP)= -200.000  2 -1    95
             APW+lo

       K=   0.06250   0.00000   0.06250            1
:RKM  : MATRIX SIZE   485LOs:  40  RKM= 8.49  WEIGHT= 4.00  PGR:    
       EIGENVALUES ARE:
:EIG00001:      -2.0970322   -2.0877029   -0.8112474   -0.7555705   -0.7427863
:EIG00006:      -0.7375406   -0.7324046   -0.7323469    0.3112589    0.4553207
:EIG00011:       0.5456714    0.5463754    0.5469858    0.5486098    0.5512165
:EIG00016:       0.5601064    0.5632360    0.5635667    0.5657869    0.5677013
:EIG00021:       0.5707477    0.5743836    0.5750734    0.5788663    0.6109398
:EIG00026:       0.6234601    0.6864506    0.7087017    0.7204843    0.7598157
:EIG00031:       0.7753124    0.8463243    0.8900101    0.9272087    1.1816731
:EIG00036:       1.2226216    1.3103718    1.3131840    1.4580786    1.5107637
:EIG00041:       1.5511921    1.6532536    1.7143070    1.7352735    1.8123883
:EIG00046:       1.8840761    1.8916570    1.9316977    1.9971940    2.0758950
 
:EIG00051:       2.1249770    2.1798424    2.1951635    2.2508053    2.2740392
:EIG00056:       2.3563120    2.4030703    2.4068934    2.5027536    2.5413334
:EIG00061:       2.6051049    2.6304774    2.7519793    2.8394094    2.8466727
:EIG00066:       2.9385724    2.9844088    2.9992413    3.0004401    3.0927461
:EIG00071:       3.0971094    3.1452045    3.1693693    3.2069657    3.2217957
:EIG00076:       3.2620260    3.3008202    3.3336524    3.3613414    3.3834241
:EIG00081:       3.4233565    3.4649446    3.4749142    3.5200578    3.5680889
:EIG00086:       3.5954733    3.6701795    3.6764324    3.7078824    3.7189480
:EIG00091:       3.7522213    3.7722586    3.8206440    3.8216478    3.8293391
:EIG00096:       3.8884532    3.9155706    3.9176224    3.9328562    4.0129428
 
:EIG00101:       4.0697775    4.1956639    4.2013747    4.2555884    4.2954968
:EIG00106:       4.3077314    4.3438108    4.3461206    4.3953992    4.4252811
:EIG00111:       4.4984937    4.5060557    4.5419234    4.5441614    4.5912378
:EIG00116:       4.6462887    4.7203649    4.7470199    4.7586766    4.7859937
:EIG00121:       4.8100504    4.9009844    4.9133008    4.9461707    4.9937012
:EIG00126:       5.0713462    5.0721133    5.1161181    5.1634669    5.1872027
:EIG00131:       5.2044357    5.2577805    5.2913049    5.3036897    5.3200531
:EIG00136:       5.3782749    5.4218826    5.4688510    5.4844950    5.5129863
:EIG00141:       5.5263022    5.5320814    5.5805811    5.6278641    5.6506021
:EIG00146:       5.6669331    5.6844359    5.6873844    5.6942594    5.7925045
 
:EIG00151:       5.8105806    5.8300131    5.9084006    5.9322992    5.9571991
:EIG00156:       6.0647300    6.1438787    6.1690497    6.2035696    6.2171829
:EIG00161:       6.2536838    6.3202772    6.3627777    6.3750906    6.3751891
:EIG00166:       6.4488621    6.4773268    6.4860488    6.5139241    6.5406499
:EIG00171:       6.5588592    6.6254268    6.6561711    6.6636473    6.7221227
:EIG00176:       6.7240388    6.7572128    6.7919555    6.8087299    6.8362929
:EIG00181:       6.9032456    6.9214345    6.9216640    6.9462501    6.9955432
:EIG00186:       7.0027328    7.0067550    7.0973361    7.1072850    7.1137188
:EIG00191:       7.1604841    7.1741398    7.2240907    7.2362378    7.2665246
:EIG00196:       7.2772245    7.2885064    7.3152875    7.3241622    7.3723967
 
:EIG00201:       7.3836478    7.4414237    7.4472064    7.4628612    7.5225277
:EIG00206:       7.5248401    7.5377862    7.5906787    7.6225797    7.6499313
:EIG00211:       7.6553755    7.7039481    7.7083188    7.7256664    7.7360168
:EIG00216:       7.7780646    7.7818775    7.7846695    7.8097750    7.8507894
:EIG00221:       7.8728004    7.9185747    7.9268670    7.9329728    7.9408697
:EIG00226:       7.9529173    7.9966892    7.9979308    8.0360399
       ********************************************************

:KPT   :      NUMBER OF K-POINTS:   288
   0.0   0.0 angle (M,z), angle (M,x) deg
 
        SPIN-ORBIT EIGENVALUES:
     K=   0.06250   0.00000   0.06250            1
      MATRIX SIZE=  458   WEIGHT= 4.00
     EIGENVALUES ARE:
          -2.0970323   -2.0970323   -2.0877030   -2.0877030   -0.9115277
          -0.9115277   -0.8841426   -0.8841426   -0.7235329   -0.7235329
          -0.6749084   -0.6749084   -0.6725242   -0.6725242   -0.6660093
          -0.6660093    0.3112856    0.3112856    0.4551986    0.4551986
           0.5382200    0.5382200    0.5403018    0.5403018    0.5406526
           0.5406526    0.5419195    0.5419195    0.5442885    0.5442885
           0.5470920    0.5470920    0.5636698    0.5636698    0.5699021
           0.5699021    0.5727534    0.5727534    0.5735734    0.5735734

           0.5773399    0.5773399    0.5803183    0.5803183    0.5811165
           0.5811165    0.5847115    0.5847115    0.6117128    0.6117128
           0.6234163    0.6234163    0.6863192    0.6863193    0.7070543
           0.7070543    0.7219593    0.7219594    0.7603443    0.7603443
           0.7753050    0.7753050    0.8461350    0.8461351    0.8903103
           0.8903103    0.9273402    0.9273402    1.1816479    1.1816479
           1.2228465    1.2228465    1.3103125    1.3103125    1.3132480
           1.3132480    1.4576021    1.4576021    1.5101078    1.5101078

           1.5511567    1.5511567    1.6510687    1.6510687    1.7134577
           1.7134577    1.7361966    1.7361966    1.8129594    1.8129594
           1.8829838    1.8829838    1.8896735    1.8896735    1.9334945
           1.9334945    1.9976902    1.9976902    2.0753712    2.0753712
           2.1246487    2.1246487    2.1771205    2.1771205    2.1971131
           2.1971131    2.2520362    2.2520362    2.2750396    2.2750396
           2.3562562    2.3562562    2.4016684    2.4016684    2.4087300
           2.4087300    2.5027387    2.5027387    2.5410721    2.5410721

           2.6083448    2.6083448    2.6307590    2.6307590    2.7518971
           2.7518971    2.8394771    2.8394771    2.8468190    2.8468190
           2.9383347    2.9383347    2.9843194    2.9843194    2.9990862
           2.9990862    3.0008542    3.0008542    3.0928472    3.0928472
           3.0972661    3.0972661    3.1452460    3.1452460    3.1694207
           3.1694207    3.2063313    3.2063313    3.2226928    3.2226928
           3.2621732    3.2621732    3.3020821    3.3020821    3.3337283
           3.3337283    3.3613705    3.3613705    3.3838107    3.3838107

           3.4235617    3.4235617    3.4649614    3.4649614    3.4750277
           3.4750277    3.5202117    3.5202117    3.5681206    3.5681206
           3.5955880    3.5955880    3.6702842    3.6702842    3.6764245
           3.6764245    3.7078687    3.7078687    3.7190012    3.7190012
           3.7522360    3.7522360    3.7723049    3.7723049    3.8200758
           3.8200758    3.8218563    3.8218563    3.8294338    3.8294338
           3.8884547    3.8884547    3.9143525    3.9143525    3.9189865
           3.9189865    3.9329381    3.9329381    4.0129825    4.0129825

           4.0695939    4.0695939    4.1935527    4.1935527    4.2027647
           4.2027647    4.2564954    4.2564954    4.2954118    4.2954118
           4.3079236    4.3079236    4.3432715    4.3432715    4.3475678
           4.3475678    4.3956083    4.3956083    4.4253958    4.4253958
           4.4983853    4.4983853
       ********************************************************
:GAP (global)   :    0.0    Ry =     0.0   eV (metal)
:GAP (this spin):    0.0    Ry =     0.0   eV (metal)
         Bandranges (emin - emax) and occupancy:
:BAN00018:  18    0.306859    0.516439  1.00000000
:BAN00019:  19    0.412128    0.527248  1.00000000
:BAN00020:  20    0.412128    0.527248  1.00000000
:BAN00021:  21    0.494658    0.538220  1.00000000
:BAN00022:  22    0.494658    0.538220  1.00000000
:BAN00023:  23    0.527299    0.541085  1.00000000
:BAN00024:  24    0.527299    0.541085  1.00000000
:BAN00025:  25    0.534180    0.547191  0.80669068
:BAN00026:  26    0.534180    0.547191  0.80669049
:BAN00027:  27    0.540109    0.547545  0.19330963
:BAN00028:  28    0.540109    0.547545  0.19330920
:BAN00029:  29    0.543386    0.550764  0.00000000
:BAN00030:  30    0.543386    0.550764  0.00000000
:BAN00031:  31    0.545704    0.555095  0.00000000
:BAN00032:  32    0.545704    0.555095  0.00000000
:BAN00033:  33    0.548776    0.563876  0.00000000
        Energy to separate low and high energystates:    0.25686


:NOE  : NUMBER OF ELECTRONS          =   26.000

:FER  : F E R M I - ENERGY(TETRAH.M.)=   0.5426354455
:GMA  : POTENTIAL AND CHARGE CUT-OFF  12.00 Ry**.5

:POS001: ATOM   -1 X,Y,Z = 0.00000 0.89750 0.25000  MULT= 2  ZZ= 59.000  Pr1       

       LMMAX 16
       LM=   0 0  1 0  2 0  2 2  3 0  3 2  4 0  4 2  4 4  5 0  5 2  5 4  6 0  6 2  6 4  6 6

:CHA001: TOTAL VALENCE CHARGE INSIDE SPHERE   1 =   9.5754    (RMT=  2.3000 )
:PCS001: PARTIAL CHARGES SPHERE =  1 S,P,D,F,PX,PY,PZ,D-Z2,D-X2Y2,D-XY,D-XZ,D-YZ 
:QTL001: 1.9383 5.0163 0.4349 2.1857 1.6695 1.6697 1.6771 0.0787 0.0784 0.1004 0.0821 0.0953
        Q-s-low E-s-low   Q-p-low E-p-low   Q-d-low E-d-low   Q-f-low E-f-low
:EPL001:  1.8695 -2.0879    4.9579 -0.7708    0.0009 -0.7595    0.0003 -0.7676
        Q-s-hi  E-s-hi    Q-p-hi  E-p-hi    Q-d-hi  E-d-hi    Q-f-hi  E-f-hi 
:EPH001:  0.0688  0.4448    0.0584  0.4819    0.4340  0.5003    2.1855  0.5333

                      VXX         VYY         VZZ       UP TO R
:VZZ001:             4.03329     1.63494    -5.66823       2.300

:CHA  : TOTAL VALENCE CHARGE INSIDE UNIT CELL =      26.000000

:SUM  : SUM OF EIGENVALUES =         -12.513827935


        1.ATOM      Pr1                  14 CORE STATES
       CORE-FORCE in mRy/a.u. = |F|      Fx             Fy             Fz
:FCO001:   1.ATOM   1151.565244215706      0.000000000000      0.000000000000   1151.565244215706

:1S 001: 1S               -3067.052772667 Ry
:2S 001: 2S                -492.803482186 Ry
:2PP001: 2P*               -465.903178917 Ry
:2P 001: 2P                -430.505481987 Ry
:3S 001: 3S                -105.888502288 Ry
:3PP001: 3P*                -94.426589325 Ry
:3P 001: 3P                 -87.418559606 Ry
:3DD001: 3D*                -67.346252882 Ry
:3D 001: 3D                 -65.834607203 Ry
:4S 001: 4S                 -20.567585633 Ry
:4PP001: 4P*                -16.274772956 Ry
:4P 001: 4P                 -14.747889547 Ry
:4DD001: 4D*                 -7.681943599 Ry
:4D 001: 4D                  -7.412728241 Ry
:CINT001 Core Integral Atom   1   45.998478

       DENSITY AT NUCLEUS
        JATOM        VALENCE       SEMI-CORE          CORE           TOTAL
:RTO001:   1      645.997931        0.000000   656824.581607   657470.579538
     
       CHARGES OF NEW CHARGE DENSITY
:NTO   : INTERSTITIAL CHARGE =     6.849272
:NPC   : PW Pseudocharge     =    16.795482
:NTO001: CHARGE SPHERE  1    =    55.573842

:NEC01: NUCLEAR AND ELECTRONIC CHARGE    118.00000   117.99696
     
       CHARGES OF OLD CHARGE DENSITY
:OTO   : INTERSTITIAL CHARGE =     7.004890
:OPC   : PW Pseudocharge     =    16.833842
:OTO001: CHARGE SPHERE  1    =    55.497555

:NEC02: NUCLEAR AND ELECTRONIC CHARGE    118.00000   118.00000
     
       CONVERGENCE TEST
:DTO001: DIFFERENCE IN SPHERE  1 =  0.1293391

:DIS  :  CHARGE DISTANCE       ( 0.1293391 for atom    1 spin 1)      0.1293391
 PW Mixed is          544
 
******************************************************
* MULTISECANT MIXING VER9 RELEASE 10.4.0              *
* Slow Mode, cautious                                *
* Fixed density scale                                *
* Regularization       1.000E-04                     *
* Step Trust Radius    0.75000                       *
* Trust Upper Limit    2.000E+00                     *
* Max Number of Memory Steps   12                    *
******************************************************
 
:PWTMP   4.3254E+02  1.9467E+02  5.3447E+02
:PLANE:  PW TOTAL      4.3819 DISTAN   1.93E-02  4.40E-01 %
:CHARG:  CLM/ATOM   1381.9412 DISTAN   2.59E-01  1.88E-02 %
 
Step History
        DMIX         DMIXT        Red     Pred      Trust     Lambda    MagRel    MagAbs     Beta
  1   3.5000E-02   3.5000E-02 -1.00E+00  1.00E+00 -1.00E+01  1.00E+00  3.50E-02  3.50E-02  1.00E+00
  2   2.5000E-02   2.5000E-02 -1.00E+00  1.00E+00 -1.00E+01  1.00E+00  2.50E-02  1.05E-02  1.00E+00
:JACOBIANS    1.034E-03   2.612E-02
  
:TRUST:  Step 3.01E-02  Charge 7.50E-02 (e) CTO  2.50E-01 (e) PW  3.50E-01 (e)
:DIRM :  MEMORY  1/12 SCALE   1.000
:MIX  :   PRATT  REGULARIZATION:  1.00E-04 GREED: 0.03008  Expand 1.20  0.0301                
     
       CHARGES OF MIXED CHARGE DENSITY
:CTO   : INTERSTITIAL CHARGE =     6.996309
:CPC   : PW Pseudocharge     =    16.814712
:CTO001: CHARGE SPHERE  1    =    55.501845

:NEC03: NUCLEAR AND ELECTRONIC CHARGE    118.00000   118.00000

PW CHANGE     H    K    L      Current       Change    Residue
:PTO001:      0    0    0  4.45508871E-02 -5.185E-05 -3.433E-04
:PTO003:      0    2    0  1.29179556E-02 -9.896E-06  3.354E-05
:PTO004:     -1    1    0  6.40990594E-02 -6.100E-05 -1.021E-04
:PTO005:      0    2   -1 -7.48575558E-02  6.097E-05 -1.308E-04
:PTO006:      0    0   -2 -3.87155446E-02  3.451E-05 -3.042E-06
:PTO007:     -1    1   -1 -8.20075792E-02  6.699E-05 -6.446E-05
:PTO008:      0    2   -2 -1.37807260E-02  1.037E-05  1.266E-05
:PTO009:     -1    1   -2 -7.20087124E-02  4.374E-05 -3.159E-05
:PTO011:     -1    3    0 -1.21133329E-02  7.401E-06  7.197E-05
:PTO012:     -1    3   -1 -5.52180960E-02  1.097E-05 -3.173E-05
:PTO013:      0    4    0 -1.03463195E-02 -1.324E-06 -2.625E-05
:PTO014:      0    2   -3  2.36418921E-02  8.931E-08 -4.555E-06

:ENE  : ********** TOTAL ENERGY IN Ry =       -36944.18386881

       TOTAL FORCE IN mRy/a.u. = |F|     Fx             Fy             Fz     with/without FOR in case.in2
:FOR001:   1.ATOM         29.996          0.000          0.000        -29.996 partial forces
       TOTAL FORCE WITH RESPECT TO GLOBAL CARTESIAN COORDINATES:
:FCA001:   1.ATOM                         0.000        -29.996          0.000 partial forces
       TOTAL FORCE WITH RESPECT TO THE GLOBAL COORDINATE SYSTEM:
:FGL001:   1.ATOM                 0.000000000   -29.995589031     0.000000000 partial forces
 Flat Integration
 New Mode for Coulomb Integral
 Consistent 3/8+Simpson combinations
 Extension of core to zero
 LDM version in phi
 Fifth-order quadrature in outwin


            ---------
:ITE017: 17. ITERATION
            ---------

:NATO :    1 INDEPENDENT AND    2 TOTAL ATOMS IN UNITCELL
       SUBSTANCE: aU                                                          

       LATTICE                      = CXY 
:POT  : POTENTIAL OPTION EX_LDA EC_LDA VX_LDA VC_LDA
:LAT  : LATTICE CONSTANTS=  6.69940 13.59477 11.73665    1.571    1.571    1.571
:VOL  : UNIT CELL VOLUME =     534.46794
       MODE OF CALCULATION IS       = RELA
       NON-SPINPOLARIZED CALCULATION
:IFFT  : FFT-parameters:   54  108   96 Factor: 2.00


   CONVERGENCE PARAMETER FOR PSEUDOCHARGE: NCON=  9
   MAXIMAL VALUE OF RMT(JATOM)*ABSK(NKK) : RK  =27.59996


:VKCOUL :  VK-COUL convergence: 0.184E-06
       ATOMNUMBER=  1 Pr1        VCOUL-ZERO = -0.30412E-01
:EFG001:                        EFG         =    -6.69033   *10**21  V / m**2
                               V20  TOT/SRF=    -5.79400    -0.01844
                               V22  TOT/SRF=     0.25190     0.00184
                               V22M TOT/SRF=     0.00000     0.00000
                               V21  TOT/SRF=     0.00000     0.00000
                               V21M TOT/SRF=     0.00000     0.00000

              3.59707    0.00000    0.00000        3.59707    0.00000    0.00000
              0.00000    3.09326    0.00000        0.00000    3.09326    0.00000
              0.00000    0.00000   -6.69033        0.00000    0.00000   -6.69033

         MAIN DIRECTIONS OF THE EFG   1.0000  0.0000  0.0000
                                      0.0000  1.0000  0.0000
                                      0.0000  0.0000  1.0000
:ANG001:  ANGLE WITH OLD X-AXIS =         0.0

:ETA001:                         ASYMM. ETA =     0.07530


     HELLMANN-FEYNMAN-FORCE IN mRy/a.u. = |F|  Fx       Fy             Fz
:FHF001:   1.ATOM   1181.499682529587      0.000000000000      0.000000000000  -1181.499682529587

:FIT001: LUSE= 13 SIGMA OF V-XC FIT FOR ATOM  1  0.5715579E-04
:FIT001: LUSE= 13 SIGMA OF V-XC FIT FOR ATOM  1  0.5715579E-04
:DEN  : DENSITY INTEGRAL  =        -14140.28989112   (Ry)
       ELS_POTENTIAL_AT Z=0 and Z=0.5:   0.66505   0.66505
       ELS_POTENTIAL_AT Y=0 and Y=0.5:   0.08186   0.08186
:VZERO:v0,v0c,v0x   0.11816   0.66505  -0.54689 v5,v5c,v5x   0.11816   0.66505  -0.54689
:VZERY:v0,v0c,v0x  -0.65153   0.08186  -0.73339 v5,v5c,v5x  -0.65153   0.08186  -0.73339
:VZERX:v0,v0c,v0x  -1.07454  -0.36721  -0.70732 v5,v5c,v5x  -1.07454  -0.36721  -0.70732
:LMAX-WF:   10   Non-Spherical LMAX:   4

          ATOMIC SPHERE DEPENDENT PARAMETERS FOR ATOM  Pr1       
:e__0001: OVERALL ENERGY PARAMETER IS    0.3420
          OVERALL BASIS SET ON ATOM IS LAPW
:E0_0001: E( 0)=    0.3420
             APW+lo
:E0_0001: E( 0)=   -2.1279   E(BOTTOM)=   -2.765   E(TOP)=   -1.490  4  5   170
             LOCAL ORBITAL
:E1_0001: E( 1)=    0.7420
             APW+lo
:E1_0001: E( 1)=   -0.6592   E(BOTTOM)=   -1.619   E(TOP)=    0.301  3  4   191
             LOCAL ORBITAL
:E3_0001: E( 3)=    0.5360   E(BOTTOM)=    0.325   E(TOP)=    0.747  0  1   122
             APW+lo
:E2_0001: E( 2)=    0.3420   E(BOTTOM)=    0.121   E(TOP)= -200.000  2 -1    94
             APW+lo

       K=   0.06250   0.00000   0.06250            1
:RKM  : MATRIX SIZE   485LOs:  40  RKM= 8.49  WEIGHT= 4.00  PGR:    
       EIGENVALUES ARE:
:EIG00001:      -2.0942674   -2.0849016   -0.8094131   -0.7535851   -0.7407600
:EIG00006:      -0.7353014   -0.7302952   -0.7300885    0.3110409    0.4553534
:EIG00011:       0.5500804    0.5510154    0.5516424    0.5532987    0.5557474
:EIG00016:       0.5652376    0.5683513    0.5687215    0.5709514    0.5726203
:EIG00021:       0.5759749    0.5795137    0.5801166    0.5839796    0.6126332
:EIG00026:       0.6244743    0.6872062    0.7092675    0.7210453    0.7604241
:EIG00031:       0.7760065    0.8470777    0.8909170    0.9281507    1.1824379
:EIG00036:       1.2227977    1.3105303    1.3132115    1.4580736    1.5107079
:EIG00041:       1.5513167    1.6534028    1.7145425    1.7354812    1.8128360
:EIG00046:       1.8842688    1.8916245    1.9319281    1.9972923    2.0763015
 
:EIG00051:       2.1251968    2.1799886    2.1952479    2.2511815    2.2743438
:EIG00056:       2.3563600    2.4037084    2.4067896    2.5029164    2.5416472
:EIG00061:       2.6055212    2.6304339    2.7522315    2.8395396    2.8464175
:EIG00066:       2.9385587    2.9846978    2.9996003    3.0003817    3.0926991
:EIG00071:       3.0968197    3.1451077    3.1693164    3.2070076    3.2217658
:EIG00076:       3.2621430    3.3006869    3.3336303    3.3612082    3.3834462
:EIG00081:       3.4232954    3.4646156    3.4747535    3.5201031    3.5678509
:EIG00086:       3.5951331    3.6699620    3.6760286    3.7075563    3.7188449
:EIG00091:       3.7518866    3.7720925    3.8203165    3.8216882    3.8294233
:EIG00096:       3.8881437    3.9154394    3.9173015    3.9325008    4.0125593
 
:EIG00101:       4.0697380    4.1954142    4.2013580    4.2553539    4.2952181
:EIG00106:       4.3074682    4.3435503    4.3458702    4.3951810    4.4249706
:EIG00111:       4.4984837    4.5056590    4.5419310    4.5436319    4.5911474
:EIG00116:       4.6462383    4.7204561    4.7466643    4.7588184    4.7861038
:EIG00121:       4.8098256    4.9007872    4.9133071    4.9459731    4.9934238
:EIG00126:       5.0713803    5.0719581    5.1159994    5.1632591    5.1871423
:EIG00131:       5.2041261    5.2575664    5.2911435    5.3033993    5.3198883
:EIG00136:       5.3779762    5.4216482    5.4685353    5.4843706    5.5127572
:EIG00141:       5.5261546    5.5319895    5.5804134    5.6274269    5.6506974
:EIG00146:       5.6666335    5.6840464    5.6869764    5.6940567    5.7921495
 
:EIG00151:       5.8106160    5.8296155    5.9081109    5.9319219    5.9571243
:EIG00156:       6.0643976    6.1436588    6.1688953    6.2034270    6.2168793
:EIG00161:       6.2536836    6.3198944    6.3625429    6.3750411    6.3750756
:EIG00166:       6.4486897    6.4770594    6.4858252    6.5136533    6.5404477
:EIG00171:       6.5587347    6.6252540    6.6560245    6.6635705    6.7219659
:EIG00176:       6.7242047    6.7570712    6.7919893    6.8085664    6.8362201
:EIG00181:       6.9031763    6.9211768    6.9215878    6.9458680    6.9952603
:EIG00186:       7.0027080    7.0064115    7.0971949    7.1071404    7.1135286
:EIG00191:       7.1601767    7.1738448    7.2238611    7.2359542    7.2663577
:EIG00196:       7.2769085    7.2882589    7.3150251    7.3239258    7.3721883
 
:EIG00201:       7.3832198    7.4410592    7.4468005    7.4626588    7.5224049
:EIG00206:       7.5246771    7.5375588    7.5903492    7.6223060    7.6496822
:EIG00211:       7.6550780    7.7036776    7.7080637    7.7254111    7.7357410
:EIG00216:       7.7777786    7.7816530    7.7844236    7.8094442    7.8503628
:EIG00221:       7.8723708    7.9181704    7.9264971    7.9326084    7.9404531
:EIG00226:       7.9525795    7.9963257    7.9975741    8.0356621
       ********************************************************

:KPT   :      NUMBER OF K-POINTS:   288
   0.0   0.0 angle (M,z), angle (M,x) deg
 
        SPIN-ORBIT EIGENVALUES:
     K=   0.06250   0.00000   0.06250            1
      MATRIX SIZE=  458   WEIGHT= 4.00
     EIGENVALUES ARE:
          -2.0942674   -2.0942674   -2.0849017   -2.0849017   -0.9093950
          -0.9093950   -0.8818765   -0.8818765   -0.7216720   -0.7216720
          -0.6728317   -0.6728317   -0.6704817   -0.6704817   -0.6639292
          -0.6639292    0.3110677    0.3110677    0.4552360    0.4552360
           0.5428628    0.5428629    0.5451256    0.5451256    0.5455084
           0.5455084    0.5467424    0.5467424    0.5491637    0.5491637
           0.5522845    0.5522845    0.5680264    0.5680264    0.5748716
           0.5748716    0.5777803    0.5777804    0.5785933    0.5785933

           0.5822370    0.5822370    0.5852484    0.5852484    0.5861815
           0.5861815    0.5897945    0.5897945    0.6136192    0.6136192
           0.6245255    0.6245255    0.6871390    0.6871392    0.7076127
           0.7076127    0.7225168    0.7225169    0.7609502    0.7609502
           0.7760004    0.7760004    0.8468897    0.8468897    0.8912150
           0.8912150    0.9282807    0.9282807    1.1824108    1.1824108
           1.2230241    1.2230241    1.3104687    1.3104687    1.3132789
           1.3132789    1.4575991    1.4575991    1.5100536    1.5100536

           1.5512810    1.5512810    1.6512248    1.6512248    1.7136864
           1.7136864    1.7364032    1.7364032    1.8134044    1.8134044
           1.8831443    1.8831443    1.8896933    1.8896933    1.9337065
           1.9337065    1.9977959    1.9977959    2.0757732    2.0757732
           2.1248684    2.1248684    2.1772616    2.1772616    2.1972058
           2.1972058    2.2523821    2.2523821    2.2753598    2.2753598
           2.3563138    2.3563138    2.4020790    2.4020790    2.4088445
           2.4088445    2.5029052    2.5029052    2.5413879    2.5413879

           2.6087518    2.6087518    2.6307217    2.6307217    2.7521488
           2.7521488    2.8396026    2.8396026    2.8465686    2.8465686
           2.9383248    2.9383248    2.9846039    2.9846039    2.9994024
           2.9994024    3.0008371    3.0008371    3.0927945    3.0927945
           3.0969824    3.0969824    3.1451489    3.1451489    3.1693681
           3.1693681    3.2063677    3.2063677    3.2226682    3.2226682
           3.2622903    3.2622903    3.3019500    3.3019500    3.3337062
           3.3337062    3.3612391    3.3612391    3.3838305    3.3838305

           3.4235002    3.4235002    3.4646325    3.4646325    3.4748684
           3.4748684    3.5202565    3.5202565    3.5678828    3.5678828
           3.5952476    3.5952476    3.6700665    3.6700665    3.6760211
           3.6760211    3.7075429    3.7075429    3.7188980    3.7188980
           3.7519015    3.7519015    3.7721391    3.7721391    3.8198513
           3.8198513    3.8217949    3.8217949    3.8295141    3.8295141
           3.8881455    3.8881455    3.9141669    3.9141669    3.9187221
           3.9187221    3.9325832    3.9325832    4.0125993    4.0125993

           4.0695534    4.0695534    4.1933524    4.1933524    4.2026903
           4.2026903    4.2562662    4.2562662    4.2951363    4.2951363
           4.3076598    4.3076598    4.3430062    4.3430062    4.3473201
           4.3473201    4.3953909    4.3953909    4.4250862    4.4250862
           4.4983598    4.4983598
       ********************************************************
:GAP (global)   :    0.0    Ry =     0.0   eV (metal)
:GAP (this spin):    0.0    Ry =     0.0   eV (metal)
         Bandranges (emin - emax) and occupancy:
:BAN00018:  18    0.306637    0.517637  1.00000000
:BAN00019:  19    0.412016    0.529891  1.00000000
:BAN00020:  20    0.412016    0.529891  1.00000000
:BAN00021:  21    0.495166    0.542863  1.00000000
:BAN00022:  22    0.495166    0.542863  1.00000000
:BAN00023:  23    0.529705    0.545260  1.00000000
:BAN00024:  24    0.529705    0.545260  1.00000000
:BAN00025:  25    0.538106    0.552269  0.81221337
:BAN00026:  26    0.538106    0.552269  0.81221315
:BAN00027:  27    0.544684    0.552679  0.18778689
:BAN00028:  28    0.544684    0.552679  0.18778658
:BAN00029:  29    0.548271    0.554940  0.00000000
:BAN00030:  30    0.548271    0.554940  0.00000000
:BAN00031:  31    0.550734    0.559109  0.00000000
:BAN00032:  32    0.550734    0.559109  0.00000000
:BAN00033:  33    0.553805    0.568225  0.00000000
        Energy to separate low and high energystates:    0.25664


:NOE  : NUMBER OF ELECTRONS          =   26.000

:FER  : F E R M I - ENERGY(TETRAH.M.)=   0.5474042449
:GMA  : POTENTIAL AND CHARGE CUT-OFF  12.00 Ry**.5

:POS001: ATOM   -1 X,Y,Z = 0.00000 0.89750 0.25000  MULT= 2  ZZ= 59.000  Pr1       

       LMMAX 16
       LM=   0 0  1 0  2 0  2 2  3 0  3 2  4 0  4 2  4 4  5 0  5 2  5 4  6 0  6 2  6 4  6 6

:CHA001: TOTAL VALENCE CHARGE INSIDE SPHERE   1 =   9.4943    (RMT=  2.3000 )
:PCS001: PARTIAL CHARGES SPHERE =  1 S,P,D,F,PX,PY,PZ,D-Z2,D-X2Y2,D-XY,D-XZ,D-YZ 
:QTL001: 1.9386 5.0171 0.4594 2.0790 1.6695 1.6698 1.6777 0.0841 0.0839 0.1034 0.0869 0.1010
        Q-s-low E-s-low   Q-p-low E-p-low   Q-d-low E-d-low   Q-f-low E-f-low
:EPL001:  1.8692 -2.0851    4.9555 -0.7688    0.0009 -0.7574    0.0003 -0.7657
        Q-s-hi  E-s-hi    Q-p-hi  E-p-hi    Q-d-hi  E-d-hi    Q-f-hi  E-f-hi 
:EPH001:  0.0695  0.4457    0.0616  0.4850    0.4585  0.5032    2.0787  0.5374

                      VXX         VYY         VZZ       UP TO R
:VZZ001:             4.36760     2.57136    -6.93896       2.300

:CHA  : TOTAL VALENCE CHARGE INSIDE UNIT CELL =      26.000000

:SUM  : SUM OF EIGENVALUES =         -12.455440712


        1.ATOM      Pr1                  14 CORE STATES
       CORE-FORCE in mRy/a.u. = |F|      Fx             Fy             Fz
:FCO001:   1.ATOM   1151.486787239958      0.000000000000      0.000000000000   1151.486787239958

:1S 001: 1S               -3067.042984539 Ry
:2S 001: 2S                -492.793674379 Ry
:2PP001: 2P*               -465.893375440 Ry
:2P 001: 2P                -430.495677154 Ry
:3S 001: 3S                -105.878907705 Ry
:3PP001: 3P*                -94.416974497 Ry
:3P 001: 3P                 -87.408982421 Ry
:3DD001: 3D*                -67.336607265 Ry
:3D 001: 3D                 -65.824970851 Ry
:4S 001: 4S                 -20.559985345 Ry
:4PP001: 4P*                -16.267298616 Ry
:4P 001: 4P                 -14.740609832 Ry
:4DD001: 4D*                 -7.675011147 Ry
:4D 001: 4D                  -7.405862451 Ry
:CINT001 Core Integral Atom   1   45.998473

       DENSITY AT NUCLEUS
        JATOM        VALENCE       SEMI-CORE          CORE           TOTAL
:RTO001:   1      645.888925        0.000000   656824.169449   657470.058374
     
       CHARGES OF NEW CHARGE DENSITY
:NTO   : INTERSTITIAL CHARGE =     7.011463
:NPC   : PW Pseudocharge     =    16.833812
:NTO001: CHARGE SPHERE  1    =    55.492741

:NEC01: NUCLEAR AND ELECTRONIC CHARGE    118.00000   117.99695
     
       CHARGES OF OLD CHARGE DENSITY
:OTO   : INTERSTITIAL CHARGE =     6.996309
:OPC   : PW Pseudocharge     =    16.814712
:OTO001: CHARGE SPHERE  1    =    55.501845

:NEC02: NUCLEAR AND ELECTRONIC CHARGE    118.00000   118.00000
     
       CONVERGENCE TEST
:DTO001: DIFFERENCE IN SPHERE  1 =  0.0147299

:DIS  :  CHARGE DISTANCE       ( 0.0147299 for atom    1 spin 1)      0.0147299
 PW Mixed is          544
 
******************************************************
* MULTISECANT MIXING VER9 RELEASE 10.4.0              *
* Slow Mode, cautious                                *
* Fixed density scale                                *
* Regularization       1.000E-04                     *
* Step Trust Radius    0.75000                       *
* Trust Upper Limit    2.000E+00                     *
* Max Number of Memory Steps   12                    *
******************************************************
 
:PWTMP   4.3254E+02  1.9467E+02  5.3447E+02
:PLANE:  PW TOTAL      4.3785 DISTAN   1.05E-02  2.39E-01 %
:CHARG:  CLM/ATOM   1381.9418 DISTAN   1.66E-01  1.20E-02 %
 
Step History
        DMIX         DMIXT        Red     Pred      Trust     Lambda    MagRel    MagAbs     Beta
  1   3.5000E-02   3.5000E-02 -1.00E+00  1.00E+00 -1.00E+01  1.00E+00  3.50E-02  3.50E-02  1.00E+00
  2   2.5000E-02   2.5000E-02  6.20E-01  1.00E+00 -1.00E+01  1.00E+00  2.50E-02  1.05E-02  1.00E+00
  3   3.0081E-02   3.0081E-02 -1.00E+00  1.00E+00 -1.00E+01  1.00E+00  3.01E-02  7.82E-03  1.00E+00
:JACOBIANS    1.660E-03   3.929E-02
  
:NORMS:  1/Froebius, Min, Max, Used   0.6453E-01  0.2187E-01  0.6453E-01  0.6453E-01
:INFO :  Number of Memory Steps    2 Skipping    0
:INFO :  SLambda=    0.5763293316  Max    0.5763293316
:PREDicted Charge, CTotal, PW Trust    4.158E-03   8.315E-03   9.781E-03
:PREDicted DMix, Beta, BLim   2.3109E-02  6.1080E-01  2.2525E-01

Eigenvalues, unscaled except for SY+YY
   #     SY Real        SY Imag          SS             YY         SY+YY Real      SY+YY Imag
   1   3.858025E-15   0.000000E+00   8.327478E-03   1.999906E+00   9.369933E-05   0.000000E+00
   2   1.096752E-01   0.000000E+00  -8.673617E-19   9.428432E-05   2.063115E+00   0.000000E+00
 
:INFO :  Singular value  2.063E+00 Weight  1.000E+00 Projection -2.881E-03
:INFO :  Singular value  9.370E-05 Weight  1.800E-01 Projection  2.051E+00
:RANK :  ACTIVE   1.18/2  =  59.00 % ; YY RANK   1.18/2  =  59.09 %
 
:DLIM :  Beta Active  8.000E-01
:BLIM :  VZERO Control Off
:TRUST:  Step 3.33E-01  Charge 7.50E-02 (e) CTO  2.50E-01 (e) PW  3.50E-01 (e)
:DIRM :  MEMORY  2/12 SCALE   1.000 RED  0.64 PRED  1.00 NEXT  0.94 BETA  0.80
:TRAVE:  Charge 4.47E-04 (e) CTO  8.94E-04 (e) PW  8.70E-04 (e)
:DIRP :  |MSR1|= 4.722E-04 |PRATT|= 1.047E-02 ANGLE=  22.8 DEGREES
:DIRQ :  |MSR1|= 3.893E-03 |PRATT|= 1.656E-01 ANGLE=  10.2 DEGREES
:DIRT :  |MSR1|= 3.921E-03 |PRATT|= 1.659E-01 ANGLE=  10.8 DEGREES
:MIX  :   MSD1   REGULARIZATION:  2.00E-04 GREED: 0.02657  Newton 1.00  0.0236                
     
       CHARGES OF MIXED CHARGE DENSITY
:CTO   : INTERSTITIAL CHARGE =     6.997203
:CPC   : PW Pseudocharge     =    16.816206
:CTO001: CHARGE SPHERE  1    =    55.501399

:NEC03: NUCLEAR AND ELECTRONIC CHARGE    118.00000   118.00000

PW CHANGE     H    K    L      Current       Change    Residue
:PTO001:      0    0    0  4.45553554E-02  4.468E-06  8.353E-05
:PTO003:      0    2    0  1.29186735E-02  7.180E-07  2.668E-05
:PTO004:     -1    1    0  6.41020679E-02  3.008E-06  2.079E-05
:PTO005:      0    2   -1 -7.48638120E-02 -6.256E-06 -1.519E-04
:PTO006:      0    0   -2 -3.87185665E-02 -3.022E-06 -5.237E-05
:PTO007:     -1    1   -1 -8.20121153E-02 -4.536E-06 -8.210E-05
:PTO008:      0    2   -2 -1.37812016E-02 -4.756E-07  4.311E-06
:PTO009:     -1    1   -2 -7.20121453E-02 -3.433E-06 -3.348E-05
:PTO011:     -1    3    0 -1.21127464E-02  5.866E-07  4.332E-05
:PTO012:     -1    3   -1 -5.52187539E-02 -6.579E-07 -4.006E-06
:PTO013:      0    4    0 -1.03461129E-02  2.066E-07  4.250E-07
:PTO014:      0    2   -3  2.36416201E-02 -2.720E-07 -1.386E-05

:ENE  : ********** TOTAL ENERGY IN Ry =       -36944.18323609

       TOTAL FORCE IN mRy/a.u. = |F|     Fx             Fy             Fz     with/without FOR in case.in2
:FOR001:   1.ATOM         30.013          0.000          0.000        -30.013 partial forces
       TOTAL FORCE WITH RESPECT TO GLOBAL CARTESIAN COORDINATES:
:FCA001:   1.ATOM                         0.000        -30.013          0.000 partial forces
       TOTAL FORCE WITH RESPECT TO THE GLOBAL COORDINATE SYSTEM:
:FGL001:   1.ATOM                 0.000000000   -30.012895290     0.000000000 partial forces
 Flat Integration
 New Mode for Coulomb Integral
 Consistent 3/8+Simpson combinations
 Extension of core to zero
 LDM version in phi
 Fifth-order quadrature in outwin


            ---------
:ITE018: 18. ITERATION
            ---------

:NATO :    1 INDEPENDENT AND    2 TOTAL ATOMS IN UNITCELL
       SUBSTANCE: aU                                                          

       LATTICE                      = CXY 
:POT  : POTENTIAL OPTION EX_LDA EC_LDA VX_LDA VC_LDA
:LAT  : LATTICE CONSTANTS=  6.69940 13.59477 11.73665    1.571    1.571    1.571
:VOL  : UNIT CELL VOLUME =     534.46794
       MODE OF CALCULATION IS       = RELA
       NON-SPINPOLARIZED CALCULATION
:IFFT  : FFT-parameters:   54  108   96 Factor: 2.00


   CONVERGENCE PARAMETER FOR PSEUDOCHARGE: NCON=  9
   MAXIMAL VALUE OF RMT(JATOM)*ABSK(NKK) : RK  =27.59996


:VKCOUL :  VK-COUL convergence: 0.183E-06
       ATOMNUMBER=  1 Pr1        VCOUL-ZERO = -0.30427E-01
:EFG001:                        EFG         =    -6.70819   *10**21  V / m**2
                               V20  TOT/SRF=    -5.80947    -0.01847
                               V22  TOT/SRF=     0.26610     0.00194
                               V22M TOT/SRF=     0.00000     0.00000
                               V21  TOT/SRF=     0.00000     0.00000
                               V21M TOT/SRF=     0.00000     0.00000

              3.62020    0.00000    0.00000        3.62020    0.00000    0.00000
              0.00000    3.08799    0.00000        0.00000    3.08799    0.00000
              0.00000    0.00000   -6.70819        0.00000    0.00000   -6.70819

         MAIN DIRECTIONS OF THE EFG   1.0000  0.0000  0.0000
                                      0.0000  1.0000  0.0000
                                      0.0000  0.0000  1.0000
:ANG001:  ANGLE WITH OLD X-AXIS =         0.0

:ETA001:                         ASYMM. ETA =     0.07934


     HELLMANN-FEYNMAN-FORCE IN mRy/a.u. = |F|  Fx       Fy             Fz
:FHF001:   1.ATOM   1181.903821164323      0.000000000000      0.000000000000  -1181.903821164323

:FIT001: LUSE= 13 SIGMA OF V-XC FIT FOR ATOM  1  0.5676181E-04
:FIT001: LUSE= 13 SIGMA OF V-XC FIT FOR ATOM  1  0.5676181E-04
:DEN  : DENSITY INTEGRAL  =        -14140.21242727   (Ry)
       ELS_POTENTIAL_AT Z=0 and Z=0.5:   0.66513   0.66513
       ELS_POTENTIAL_AT Y=0 and Y=0.5:   0.08187   0.08187
:VZERO:v0,v0c,v0x   0.11821   0.66513  -0.54692 v5,v5c,v5x   0.11821   0.66513  -0.54692
:VZERY:v0,v0c,v0x  -0.65156   0.08187  -0.73343 v5,v5c,v5x  -0.65156   0.08187  -0.73343
:VZERX:v0,v0c,v0x  -1.07461  -0.36726  -0.70735 v5,v5c,v5x  -1.07461  -0.36726  -0.70735
:LMAX-WF:   10   Non-Spherical LMAX:   4

          ATOMIC SPHERE DEPENDENT PARAMETERS FOR ATOM  Pr1       
:e__0001: OVERALL ENERGY PARAMETER IS    0.3456
          OVERALL BASIS SET ON ATOM IS LAPW
:E0_0001: E( 0)=    0.3456
             APW+lo
:E0_0001: E( 0)=   -2.1281   E(BOTTOM)=   -2.766   E(TOP)=   -1.491  4  5   171
             LOCAL ORBITAL
:E1_0001: E( 1)=    0.7456
             APW+lo
:E1_0001: E( 1)=   -0.6594   E(BOTTOM)=   -1.619   E(TOP)=    0.300  3  4   192
             LOCAL ORBITAL
:E3_0001: E( 3)=    0.5355   E(BOTTOM)=    0.325   E(TOP)=    0.746  0  1   123
             APW+lo
:E2_0001: E( 2)=    0.3456   E(BOTTOM)=    0.121   E(TOP)= -200.000  2 -1    95
             APW+lo

       K=   0.06250   0.00000   0.06250            1
:RKM  : MATRIX SIZE   485LOs:  40  RKM= 8.49  WEIGHT= 4.00  PGR:    
       EIGENVALUES ARE:
:EIG00001:      -2.0945088   -2.0851457   -0.8096169   -0.7537428   -0.7409198
:EIG00006:      -0.7354774   -0.7305234   -0.7302652    0.3110610    0.4553465
:EIG00011:       0.5497443    0.5506195    0.5512187    0.5529371    0.5553557
:EIG00016:       0.5647984    0.5679117    0.5682702    0.5704977    0.5721982
:EIG00021:       0.5755439    0.5791415    0.5797158    0.5835165    0.6124865
:EIG00026:       0.6244064    0.6871293    0.7092167    0.7209738    0.7603797
:EIG00031:       0.7759554    0.8470006    0.8908253    0.9280480    1.1823563
:EIG00036:       1.2227956    1.3105298    1.3132046    1.4580790    1.5107108
:EIG00041:       1.5512994    1.6533844    1.7145200    1.7354548    1.8127778
:EIG00046:       1.8842420    1.8916211    1.9319071    1.9972733    2.0762397
 
:EIG00051:       2.1251683    2.1799613    2.1952303    2.2511254    2.2743036
:EIG00056:       2.3563549    2.4036150    2.4067833    2.5028936    2.5416075
:EIG00061:       2.6054579    2.6304064    2.7521815    2.8394864    2.8464110
:EIG00066:       2.9385346    2.9846652    2.9995506    3.0003499    3.0926870
:EIG00071:       3.0968302    3.1451008    3.1693018    3.2069907    3.2217662
:EIG00076:       3.2620902    3.3006920    3.3335912    3.3612166    3.3834262
:EIG00081:       3.4232878    3.4646311    3.4747582    3.5200780    3.5678556
:EIG00086:       3.5951456    3.6699720    3.6760519    3.7075737    3.7188047
:EIG00091:       3.7519012    3.7720753    3.8203317    3.8216350    3.8293704
:EIG00096:       3.8881506    3.9154126    3.9173119    3.9325107    4.0125742
 
:EIG00101:       4.0696924    4.1953837    4.2013070    4.2553394    4.2952116
:EIG00106:       4.3074543    4.3435390    4.3458753    4.3951595    4.4249650
:EIG00111:       4.4984312    4.5056748    4.5418803    4.5436677    4.5911311
:EIG00116:       4.6461660    4.7203396    4.7466596    4.7586934    4.7859709
:EIG00121:       4.8097944    4.9007499    4.9131584    4.9459346    4.9934074
:EIG00126:       5.0712808    5.0718966    5.1159603    5.1632275    5.1870586
:EIG00131:       5.2041291    5.2575557    5.2911045    5.3033612    5.3198170
:EIG00136:       5.3779477    5.4216126    5.4685321    5.4842775    5.5126957
:EIG00141:       5.5260952    5.5318713    5.5803683    5.6274385    5.6504740
:EIG00146:       5.6666034    5.6840456    5.6869718    5.6939689    5.7921417
 
:EIG00151:       5.8104583    5.8296110    5.9080771    5.9319019    5.9570474
:EIG00156:       6.0643955    6.1436346    6.1688223    6.2033438    6.2168349
:EIG00161:       6.2536180    6.3198671    6.3624902    6.3749265    6.3750040
:EIG00166:       6.4486002    6.4770017    6.4857575    6.5135980    6.5403151
:EIG00171:       6.5586098    6.6251483    6.6559227    6.6634087    6.7218398
:EIG00176:       6.7240280    6.7569483    6.7917793    6.8084913    6.8360897
:EIG00181:       6.9030527    6.9211196    6.9214399    6.9458376    6.9952119
:EIG00186:       7.0025455    7.0063783    7.0970979    7.1070260    7.1133839
:EIG00191:       7.1601060    7.1737506    7.2237577    7.2358889    7.2662392
:EIG00196:       7.2768582    7.2881534    7.3149380    7.3238527    7.3720667
 
:EIG00201:       7.3831800    7.4410104    7.4467834    7.4625215    7.5222377
:EIG00206:       7.5245132    7.5374803    7.5902860    7.6222206    7.6496076
:EIG00211:       7.6550005    7.7035823    7.7079941    7.7253030    7.7356578
:EIG00216:       7.7777074    7.7815705    7.7843289    7.8094073    7.8503409
:EIG00221:       7.8723442    7.9181575    7.9264639    7.9325453    7.9404247
:EIG00226:       7.9525133    7.9962613    7.9975237    8.0356269
       ********************************************************

:KPT   :      NUMBER OF K-POINTS:   288
   0.0   0.0 angle (M,z), angle (M,x) deg
 
        SPIN-ORBIT EIGENVALUES:
     K=   0.06250   0.00000   0.06250            1
      MATRIX SIZE=  458   WEIGHT= 4.00
     EIGENVALUES ARE:
          -2.0945089   -2.0945089   -2.0851458   -2.0851458   -0.9095935
          -0.9095935   -0.8820765   -0.8820765   -0.7218475   -0.7218475
          -0.6729975   -0.6729975   -0.6706447   -0.6706447   -0.6641309
          -0.6641309    0.3110878    0.3110878    0.4552287    0.4552287
           0.5424733    0.5424733    0.5447231    0.5447231    0.5451243
           0.5451243    0.5463372    0.5463372    0.5487455    0.5487455
           0.5518324    0.5518324    0.5676448    0.5676448    0.5744642
           0.5744642    0.5773647    0.5773647    0.5781543    0.5781543

           0.5818214    0.5818214    0.5848691    0.5848691    0.5857730
           0.5857730    0.5893432    0.5893432    0.6134539    0.6134539
           0.6244490    0.6244490    0.6870562    0.6870563    0.7075599
           0.7075599    0.7224481    0.7224482    0.7609060    0.7609060
           0.7759491    0.7759491    0.8468123    0.8468124    0.8911235
           0.8911235    0.9281781    0.9281781    1.1823294    1.1823294
           1.2230218    1.2230218    1.3104682    1.3104682    1.3132719
           1.3132719    1.4576042    1.4576042    1.5100564    1.5100564

           1.5512636    1.5512636    1.6512057    1.6512057    1.7136637
           1.7136637    1.7363773    1.7363773    1.8133466    1.8133466
           1.8831212    1.8831212    1.8896840    1.8896840    1.9336870
           1.9336870    1.9977753    1.9977753    2.0757120    2.0757120
           2.1248400    2.1248400    2.1772354    2.1772354    2.1971863
           2.1971863    2.2523288    2.2523288    2.2753186    2.2753186
           2.3563072    2.3563072    2.4020135    2.4020135    2.4088112
           2.4088112    2.5028822    2.5028822    2.5413474    2.5413474

           2.6086898    2.6086898    2.6306938    2.6306938    2.7520986
           2.7520986    2.8395500    2.8395500    2.8465617    2.8465617
           2.9383001    2.9383001    2.9845711    2.9845711    2.9993550
           2.9993550    3.0008036    3.0008036    3.0927830    3.0927830
           3.0969923    3.0969923    3.1451420    3.1451420    3.1693535
           3.1693535    3.2063516    3.2063516    3.2226674    3.2226674
           3.2622376    3.2622376    3.3019550    3.3019550    3.3336671
           3.3336671    3.3612472    3.3612472    3.3838111    3.3838111

           3.4234926    3.4234926    3.4646480    3.4646480    3.4748730
           3.4748730    3.5202315    3.5202315    3.5678875    3.5678875
           3.5952601    3.5952601    3.6700765    3.6700765    3.6760443
           3.6760443    3.7075602    3.7075602    3.7188579    3.7188579
           3.7519161    3.7519161    3.7721218    3.7721218    3.8198496
           3.8198496    3.8217587    3.8217587    3.8294615    3.8294615
           3.8881524    3.8881524    3.9141512    3.9141512    3.9187212
           3.9187212    3.9325931    3.9325931    4.0126141    4.0126141

           4.0695076    4.0695076    4.1933187    4.1933187    4.2026432
           4.2026432    4.2562515    4.2562515    4.2951292    4.2951292
           4.3076456    4.3076456    4.3430012    4.3430012    4.3473197
           4.3473197    4.3953692    4.3953692    4.4250806    4.4250806
           4.4983098    4.4983098
       ********************************************************
:GAP (global)   :    0.0    Ry =     0.0   eV (metal)
:GAP (this spin):    0.0    Ry =     0.0   eV (metal)
         Bandranges (emin - emax) and occupancy:
:BAN00018:  18    0.306658    0.517548  1.00000000
:BAN00019:  19    0.412027    0.529668  1.00000000
:BAN00020:  20    0.412027    0.529668  1.00000000
:BAN00021:  21    0.495129    0.542473  1.00000000
:BAN00022:  22    0.495129    0.542473  1.00000000
:BAN00023:  23    0.529505    0.544922  1.00000000
:BAN00024:  24    0.529505    0.544922  1.00000000
:BAN00025:  25    0.537783    0.551828  0.81154363
:BAN00026:  26    0.537783    0.551828  0.81154346
:BAN00027:  27    0.544288    0.552255  0.18845662
:BAN00028:  28    0.544288    0.552255  0.18845628
:BAN00029:  29    0.547847    0.554609  0.00000000
:BAN00030:  30    0.547847    0.554609  0.00000000
:BAN00031:  31    0.550304    0.558779  0.00000000
:BAN00032:  32    0.550304    0.558779  0.00000000
:BAN00033:  33    0.553386    0.567843  0.00000000
        Energy to separate low and high energystates:    0.25666


:NOE  : NUMBER OF ELECTRONS          =   26.000

:FER  : F E R M I - ENERGY(TETRAH.M.)=   0.5469952644
:GMA  : POTENTIAL AND CHARGE CUT-OFF  12.00 Ry**.5

:POS001: ATOM   -1 X,Y,Z = 0.00000 0.89750 0.25000  MULT= 2  ZZ= 59.000  Pr1       

       LMMAX 16
       LM=   0 0  1 0  2 0  2 2  3 0  3 2  4 0  4 2  4 4  5 0  5 2  5 4  6 0  6 2  6 4  6 6

:CHA001: TOTAL VALENCE CHARGE INSIDE SPHERE   1 =   9.5011    (RMT=  2.3000 )
:PCS001: PARTIAL CHARGES SPHERE =  1 S,P,D,F,PX,PY,PZ,D-Z2,D-X2Y2,D-XY,D-XZ,D-YZ 
:QTL001: 1.9386 5.0170 0.4574 2.0879 1.6695 1.6698 1.6777 0.0837 0.0835 0.1032 0.0866 0.1005
        Q-s-low E-s-low   Q-p-low E-p-low   Q-d-low E-d-low   Q-f-low E-f-low
:EPL001:  1.8692 -2.0854    4.9557 -0.7689    0.0009 -0.7576    0.0003 -0.7659
        Q-s-hi  E-s-hi    Q-p-hi  E-p-hi    Q-d-hi  E-d-hi    Q-f-hi  E-f-hi 
:EPH001:  0.0694  0.4456    0.0613  0.4847    0.4565  0.5030    2.0876  0.5371

                      VXX         VYY         VZZ       UP TO R
:VZZ001:             4.08200     2.64011    -6.72210       2.300

:CHA  : TOTAL VALENCE CHARGE INSIDE UNIT CELL =      26.000000

:SUM  : SUM OF EIGENVALUES =         -12.460467278


        1.ATOM      Pr1                  14 CORE STATES
       CORE-FORCE in mRy/a.u. = |F|      Fx             Fy             Fz
:FCO001:   1.ATOM   1151.723087500832      0.000000000000      0.000000000000   1151.723087500832

:1S 001: 1S               -3067.043986778 Ry
:2S 001: 2S                -492.794635990 Ry
:2PP001: 2P*               -465.894346080 Ry
:2P 001: 2P                -430.496644394 Ry
:3S 001: 3S                -105.879771693 Ry
:3PP001: 3P*                -94.417844462 Ry
:3P 001: 3P                 -87.409845086 Ry
:3DD001: 3D*                -67.337486954 Ry
:3D 001: 3D                 -65.825848265 Ry
:4S 001: 4S                 -20.560625395 Ry
:4PP001: 4P*                -16.267928145 Ry
:4P 001: 4P                 -14.741221825 Ry
:4DD001: 4D*                 -7.675594301 Ry
:4D 001: 4D                  -7.406439763 Ry
:CINT001 Core Integral Atom   1   45.998474

       DENSITY AT NUCLEUS
        JATOM        VALENCE       SEMI-CORE          CORE           TOTAL
:RTO001:   1      645.897403        0.000000   656824.222425   657470.119828
     
       CHARGES OF NEW CHARGE DENSITY
:NTO   : INTERSTITIAL CHARGE =     6.997893
:NPC   : PW Pseudocharge     =    16.830693
:NTO001: CHARGE SPHERE  1    =    55.499527

:NEC01: NUCLEAR AND ELECTRONIC CHARGE    118.00000   117.99695
     
       CHARGES OF OLD CHARGE DENSITY
:OTO   : INTERSTITIAL CHARGE =     6.997203
:OPC   : PW Pseudocharge     =    16.816206
:OTO001: CHARGE SPHERE  1    =    55.501399

:NEC02: NUCLEAR AND ELECTRONIC CHARGE    118.00000   118.00000
     
       CONVERGENCE TEST
:DTO001: DIFFERENCE IN SPHERE  1 =  0.0121864

:DIS  :  CHARGE DISTANCE       ( 0.0121864 for atom    1 spin 1)      0.0121864
 PW Mixed is          544
 
******************************************************
* MULTISECANT MIXING VER9 RELEASE 10.4.0              *
* Slow Mode, cautious                                *
* Fixed density scale                                *
* Regularization       1.000E-04                     *
* Step Trust Radius    0.75000                       *
* Trust Upper Limit    2.000E+00                     *
* Max Number of Memory Steps   12                    *
******************************************************
 
:PWTMP   4.3254E+02  1.9467E+02  5.3447E+02
:PLANE:  PW TOTAL      4.3788 DISTAN   9.57E-03  2.19E-01 %
:CHARG:  CLM/ATOM   1381.9415 DISTAN   1.60E-01  1.16E-02 %
 
Step History
        DMIX         DMIXT        Red     Pred      Trust     Lambda    MagRel    MagAbs     Beta
  1   3.5000E-02   3.5000E-02 -1.00E+00  1.00E+00 -1.00E+01  1.00E+00  3.50E-02  3.50E-02  1.00E+00
  2   2.5000E-02   2.5000E-02  6.20E-01  1.00E+00 -1.00E+01  1.00E+00  2.50E-02  1.05E-02  1.00E+00
  3   3.0081E-02   3.0081E-02  6.38E-01  1.00E+00 -1.00E+01  5.76E-01  3.01E-02  7.82E-03  1.00E+00
  4   2.6575E-02   2.6575E-02 -1.00E+00  9.38E-01  3.33E-01  1.00E+00  2.36E-02  3.92E-03  8.00E-01
:JACOBIANS    2.112E-03   1.547E-01
  
:NORMS:  1/Froebius, Min, Max, Used   0.1312E+00  0.7846E-01  0.1810E+00  0.1371E+00
:INFO :  Number of Memory Steps    3 Skipping    0
:INFO :  SLambda=    1.3913733231  Max    1.3913733231
:PREDicted Charge, CTotal, PW Trust    1.392E-03   2.784E-03   1.069E-03
:PREDicted DMix, Beta, BLim   2.1080E-01  6.3657E+00  2.5521E-01

Eigenvalues, unscaled except for SY+YY
   #     SY Real        SY Imag          SS             YY         SY+YY Real      SY+YY Imag
   1   1.420348E-01   0.000000E+00   4.304444E-02   2.718754E+00   2.916807E+00   0.000000E+00
   2  -1.084202E-17   0.000000E+00   8.588508E-03   2.811427E-01   9.879327E-05   0.000000E+00
   3   6.363318E-02   0.000000E+00   1.503894E-18   1.033805E-04   3.692550E-01   0.000000E+00
 
:INFO :  Singular value  2.917E+00 Weight  1.000E+00 Projection  1.442E-03
:INFO :  Singular value  3.693E-01 Weight  1.000E+00 Projection -2.415E-01
:INFO :  Singular value  9.879E-05 Weight  1.166E-01 Projection -1.054E+00
:RANK :  ACTIVE   2.12/3  =  70.55 % ; YY RANK   2.13/3  =  70.88 %
 
:BLIM :  VZERO Control Off
:TRUST:  Step 2.51E-01  Charge 7.50E-02 (e) CTO  2.50E-01 (e) PW  3.50E-01 (e)
:DTRUS:  Lambda    1.266E-01 Increment    7.276E-12 Iterations    95 DMIX    5.150E-02
:INFOA:  Angle SubSpace to MSR1      0.08
:DIRM :  MEMORY  3/12 SCALE   1.000 RED  0.97 PRED  0.94 NEXT  0.81 
:INFO :  Limited by Atoms F by Step T

:TRAVE:  Charge 6.95E-04 (e) CTO  1.39E-03 (e) PW  8.08E-04 (e)
:DIRP :  |MSR1|= 1.646E-03 |PRATT|= 9.572E-03 ANGLE=  44.1 DEGREES
:DIRQ :  |MSR1|= 4.036E-02 |PRATT|= 1.604E-01 ANGLE=   6.0 DEGREES
:DIRT :  |MSR1|= 4.039E-02 |PRATT|= 1.607E-01 ANGLE=   6.4 DEGREES
:MIX  :   MSE1   REGULARIZATION:  2.72E-04 GREED: 0.06644  LMStep 0.78  0.2513 Step           
     
       CHARGES OF MIXED CHARGE DENSITY
:CTO   : INTERSTITIAL CHARGE =     6.999088
:CPC   : PW Pseudocharge     =    16.816370
:CTO001: CHARGE SPHERE  1    =    55.500456

:NEC03: NUCLEAR AND ELECTRONIC CHARGE    118.00000   118.00000

PW CHANGE     H    K    L      Current       Change    Residue
:PTO001:      0    0    0  4.45591889E-02  3.833E-06  4.785E-05
:PTO003:      0    2    0  1.29198098E-02  1.136E-06  2.939E-05
:PTO004:     -1    1    0  6.40890240E-02 -1.304E-05  1.837E-05
:PTO005:      0    2   -1 -7.48791912E-02 -1.538E-05 -1.488E-04
:PTO006:      0    0   -2 -3.87194591E-02 -8.926E-07 -4.411E-05
:PTO007:     -1    1   -1 -8.20071856E-02  4.930E-06 -8.295E-05
:PTO008:      0    2   -2 -1.37777583E-02  3.443E-06  4.902E-06
:PTO009:     -1    1   -2 -7.20101119E-02  2.033E-06 -3.003E-05
:PTO011:     -1    3    0 -1.21010122E-02  1.173E-05  4.489E-05
:PTO012:     -1    3   -1 -5.52196465E-02 -8.926E-07 -1.104E-05
:PTO013:      0    4    0 -1.03455963E-02  5.166E-07 -2.463E-06
:PTO014:      0    2   -3  2.36369243E-02 -4.696E-06 -1.619E-05

:ENE  : ********** TOTAL ENERGY IN Ry =       -36944.18324554

       TOTAL FORCE IN mRy/a.u. = |F|     Fx             Fy             Fz     with/without FOR in case.in2
:FOR001:   1.ATOM         30.181          0.000          0.000        -30.181 partial forces
       TOTAL FORCE WITH RESPECT TO GLOBAL CARTESIAN COORDINATES:
:FCA001:   1.ATOM                         0.000        -30.181          0.000 partial forces
       TOTAL FORCE WITH RESPECT TO THE GLOBAL COORDINATE SYSTEM:
:FGL001:   1.ATOM                 0.000000000   -30.180733663     0.000000000 partial forces
 Flat Integration
 New Mode for Coulomb Integral
 Consistent 3/8+Simpson combinations
 Extension of core to zero
 LDM version in phi
 Fifth-order quadrature in outwin


            ---------
:ITE019: 19. ITERATION
            ---------

:NATO :    1 INDEPENDENT AND    2 TOTAL ATOMS IN UNITCELL
       SUBSTANCE: aU                                                          

       LATTICE                      = CXY 
:POT  : POTENTIAL OPTION EX_LDA EC_LDA VX_LDA VC_LDA
:LAT  : LATTICE CONSTANTS=  6.69940 13.59477 11.73665    1.571    1.571    1.571
:VOL  : UNIT CELL VOLUME =     534.46794
       MODE OF CALCULATION IS       = RELA
       NON-SPINPOLARIZED CALCULATION
:IFFT  : FFT-parameters:   54  108   96 Factor: 2.00


   CONVERGENCE PARAMETER FOR PSEUDOCHARGE: NCON=  9
   MAXIMAL VALUE OF RMT(JATOM)*ABSK(NKK) : RK  =27.59996


:VKCOUL :  VK-COUL convergence: 0.176E-06
       ATOMNUMBER=  1 Pr1        VCOUL-ZERO = -0.30500E-01
:EFG001:                        EFG         =    -6.75637   *10**21  V / m**2
                               V20  TOT/SRF=    -5.85119    -0.01825
                               V22  TOT/SRF=     0.30982     0.00255
                               V22M TOT/SRF=     0.00000     0.00000
                               V21  TOT/SRF=     0.00000     0.00000
                               V21M TOT/SRF=     0.00000     0.00000

              3.68801    0.00000    0.00000        3.68801    0.00000    0.00000
              0.00000    3.06836    0.00000        0.00000    3.06836    0.00000
              0.00000    0.00000   -6.75637        0.00000    0.00000   -6.75637

         MAIN DIRECTIONS OF THE EFG   1.0000  0.0000  0.0000
                                      0.0000  1.0000  0.0000
                                      0.0000  0.0000  1.0000
:ANG001:  ANGLE WITH OLD X-AXIS =         0.0

:ETA001:                         ASYMM. ETA =     0.09171


     HELLMANN-FEYNMAN-FORCE IN mRy/a.u. = |F|  Fx       Fy             Fz
:FHF001:   1.ATOM   1184.424051943869      0.000000000000      0.000000000000  -1184.424051943869

:FIT001: LUSE= 13 SIGMA OF V-XC FIT FOR ATOM  1  0.5260093E-04
:FIT001: LUSE= 13 SIGMA OF V-XC FIT FOR ATOM  1  0.5260093E-04
:DEN  : DENSITY INTEGRAL  =        -14140.13869400   (Ry)
       ELS_POTENTIAL_AT Z=0 and Z=0.5:   0.66522   0.66522
       ELS_POTENTIAL_AT Y=0 and Y=0.5:   0.08190   0.08190
:VZERO:v0,v0c,v0x   0.11824   0.66522  -0.54699 v5,v5c,v5x   0.11824   0.66522  -0.54699
:VZERY:v0,v0c,v0x  -0.65161   0.08190  -0.73351 v5,v5c,v5x  -0.65161   0.08190  -0.73351
:VZERX:v0,v0c,v0x  -1.07471  -0.36729  -0.70742 v5,v5c,v5x  -1.07471  -0.36729  -0.70742
:LMAX-WF:   10   Non-Spherical LMAX:   4

          ATOMIC SPHERE DEPENDENT PARAMETERS FOR ATOM  Pr1       
:e__0001: OVERALL ENERGY PARAMETER IS    0.3465
          OVERALL BASIS SET ON ATOM IS LAPW
:E0_0001: E( 0)=    0.3465
             APW+lo
:E0_0001: E( 0)=   -2.1283   E(BOTTOM)=   -2.766   E(TOP)=   -1.491  4  5   175
             LOCAL ORBITAL
:E1_0001: E( 1)=    0.7465
             APW+lo
:E1_0001: E( 1)=   -0.6596   E(BOTTOM)=   -1.619   E(TOP)=    0.300  3  4   192
             LOCAL ORBITAL
:E3_0001: E( 3)=    0.5354   E(BOTTOM)=    0.325   E(TOP)=    0.746  0  1   124
             APW+lo
:E2_0001: E( 2)=    0.3465   E(BOTTOM)=    0.121   E(TOP)= -200.000  2 -1    97
             APW+lo

       K=   0.06250   0.00000   0.06250            1
:RKM  : MATRIX SIZE   485LOs:  40  RKM= 8.49  WEIGHT= 4.00  PGR:    
       EIGENVALUES ARE:
:EIG00001:      -2.0946521   -2.0852881   -0.8098823   -0.7537907   -0.7409640
:EIG00006:      -0.7355447   -0.7308007   -0.7303306    0.3110958    0.4553259
:EIG00011:       0.5496945    0.5504591    0.5510039    0.5529387    0.5552680
:EIG00016:       0.5646362    0.5677071    0.5680605    0.5702830    0.5720677
:EIG00021:       0.5754610    0.5792304    0.5796674    0.5833022    0.6124379
:EIG00026:       0.6244752    0.6870828    0.7091842    0.7208396    0.7603640
:EIG00031:       0.7759375    0.8469369    0.8907395    0.9279076    1.1822717
:EIG00036:       1.2228770    1.3106005    1.3132075    1.4581493    1.5107605
:EIG00041:       1.5512731    1.6533829    1.7145402    1.7354468    1.8127570
:EIG00046:       1.8842379    1.8916630    1.9319310    1.9973168    2.0761885
 
:EIG00051:       2.1251547    2.1799305    2.1952241    2.2511045    2.2743146
:EIG00056:       2.3563634    2.4035734    2.4067642    2.5029174    2.5415754
:EIG00061:       2.6054099    2.6303855    2.7521972    2.8394655    2.8463865
:EIG00066:       2.9385046    2.9846764    2.9995696    3.0003191    3.0927086
:EIG00071:       3.0968221    3.1451093    3.1693220    3.2069924    3.2218205
:EIG00076:       3.2620945    3.3007511    3.3335791    3.3612581    3.3834490
:EIG00081:       3.4233011    3.4646749    3.4747849    3.5200831    3.5678744
:EIG00086:       3.5951693    3.6700190    3.6760874    3.7075995    3.7188066
:EIG00091:       3.7519211    3.7720632    3.8203567    3.8216472    3.8293834
:EIG00096:       3.8881657    3.9154013    3.9173023    3.9325226    4.0125987
 
:EIG00101:       4.0696345    4.1953982    4.2012511    4.2553653    4.2952422
:EIG00106:       4.3074636    4.3435623    4.3458897    4.3951697    4.4249796
:EIG00111:       4.4984238    4.5057000    4.5418932    4.5437134    4.5911373
:EIG00116:       4.6461447    4.7202931    4.7466637    4.7586403    4.7859279
:EIG00121:       4.8097816    4.9007514    4.9131358    4.9459246    4.9934185
:EIG00126:       5.0712830    5.0718831    5.1159195    5.1631969    5.1870493
:EIG00131:       5.2041475    5.2575690    5.2911203    5.3033521    5.3198016
:EIG00136:       5.3779605    5.4216392    5.4685448    5.4842484    5.5126940
:EIG00141:       5.5260618    5.5318482    5.5803614    5.6274736    5.6504161
:EIG00146:       5.6665993    5.6840883    5.6869985    5.6939465    5.7921534
 
:EIG00151:       5.8104164    5.8296342    5.9081121    5.9319187    5.9570501
:EIG00156:       6.0644061    6.1436518    6.1688157    6.2033305    6.2167977
:EIG00161:       6.2536084    6.3198558    6.3624949    6.3749125    6.3750113
:EIG00166:       6.4485897    6.4769839    6.4857313    6.5135989    6.5403102
:EIG00171:       6.5585893    6.6251427    6.6559057    6.6633241    6.7217672
:EIG00176:       6.7240031    6.7569016    6.7917154    6.8084604    6.8360525
:EIG00181:       6.9030172    6.9211209    6.9214103    6.9458448    6.9952191
:EIG00186:       7.0024815    7.0063742    7.0970799    7.1070099    7.1133441
[...]
:LAT  : LATTICE CONSTANTS=  6.69940 13.59477 11.73665    1.571    1.571    1.571
:VOL  : UNIT CELL VOLUME =     534.46794
       MODE OF CALCULATION IS       = RELA
       NON-SPINPOLARIZED CALCULATION
:IFFT  : FFT-parameters:   54  108   96 Factor: 2.00


   CONVERGENCE PARAMETER FOR PSEUDOCHARGE: NCON=  9
   MAXIMAL VALUE OF RMT(JATOM)*ABSK(NKK) : RK  =27.59996


:VKCOUL :  VK-COUL convergence: 0.156E-06
       ATOMNUMBER=  1 Pr1        VCOUL-ZERO = -0.30093E-01
:EFG001:                        EFG         =    -6.57642   *10**21  V / m**2
                               V20  TOT/SRF=    -5.69535    -0.01702
                               V22  TOT/SRF=     0.31650     0.00245
                               V22M TOT/SRF=     0.00000     0.00000
                               V21  TOT/SRF=     0.00000     0.00000
                               V21M TOT/SRF=     0.00000     0.00000

              3.60471    0.00000    0.00000        3.60471    0.00000    0.00000
              0.00000    2.97171    0.00000        0.00000    2.97171    0.00000
              0.00000    0.00000   -6.57642        0.00000    0.00000   -6.57642

         MAIN DIRECTIONS OF THE EFG   1.0000  0.0000  0.0000
                                      0.0000  1.0000  0.0000
                                      0.0000  0.0000  1.0000
:ANG001:  ANGLE WITH OLD X-AXIS =         0.0

:ETA001:                         ASYMM. ETA =     0.09625


     HELLMANN-FEYNMAN-FORCE IN mRy/a.u. = |F|  Fx       Fy             Fz
:FHF001:   1.ATOM   1162.796008176112      0.000000000000      0.000000000000  -1162.796008176112

:FIT001: LUSE= 13 SIGMA OF V-XC FIT FOR ATOM  1  0.4148071E-04
:FIT001: LUSE= 13 SIGMA OF V-XC FIT FOR ATOM  1  0.4148071E-04
:DEN  : DENSITY INTEGRAL  =        -14140.13477486   (Ry)
       ELS_POTENTIAL_AT Z=0 and Z=0.5:   0.66601   0.66601
       ELS_POTENTIAL_AT Y=0 and Y=0.5:   0.08247   0.08247
:VZERO:v0,v0c,v0x   0.11882   0.66601  -0.54719 v5,v5c,v5x   0.11882   0.66601  -0.54719
:VZERY:v0,v0c,v0x  -0.65145   0.08247  -0.73392 v5,v5c,v5x  -0.65145   0.08247  -0.73392
:VZERX:v0,v0c,v0x  -1.07542  -0.36774  -0.70768 v5,v5c,v5x  -1.07542  -0.36774  -0.70768
:LMAX-WF:   10   Non-Spherical LMAX:   4

          ATOMIC SPHERE DEPENDENT PARAMETERS FOR ATOM  Pr1       
:e__0001: OVERALL ENERGY PARAMETER IS    0.3475
          OVERALL BASIS SET ON ATOM IS LAPW
:E0_0001: E( 0)=    0.3475
             APW+lo
:E0_0001: E( 0)=   -2.1279   E(BOTTOM)=   -2.765   E(TOP)=   -1.490  4  5   165
             LOCAL ORBITAL
:E1_0001: E( 1)=    0.7475
             APW+lo
:E1_0001: E( 1)=   -0.6592   E(BOTTOM)=   -1.619   E(TOP)=    0.301  3  4   197
             LOCAL ORBITAL
:E3_0001: E( 3)=    0.5360   E(BOTTOM)=    0.325   E(TOP)=    0.747  0  1   126
             APW+lo
:E2_0001: E( 2)=    0.3475   E(BOTTOM)=    0.121   E(TOP)= -200.000  2 -1   100
             APW+lo

       K=   0.06250   0.00000   0.06250            1
:RKM  : MATRIX SIZE   485LOs:  40  RKM= 8.49  WEIGHT= 4.00  PGR:    
       EIGENVALUES ARE:
:EIG00001:      -2.0942408   -2.0848778   -0.8093598   -0.7535233   -0.7407002
:EIG00006:      -0.7351655   -0.7302777   -0.7299558    0.3115809    0.4557135
:EIG00011:       0.5502040    0.5511443    0.5515669    0.5534947    0.5559100
:EIG00016:       0.5653542    0.5683247    0.5687597    0.5709900    0.5726106
:EIG00021:       0.5761575    0.5797944    0.5803103    0.5839772    0.6129246
:EIG00026:       0.6249264    0.6876033    0.7095382    0.7212602    0.7606981
:EIG00031:       0.7762678    0.8474988    0.8912364    0.9283167    1.1827631
:EIG00036:       1.2233864    1.3110777    1.3136545    1.4587222    1.5114161
:EIG00041:       1.5516980    1.6539220    1.7150244    1.7359827    1.8132012
:EIG00046:       1.8847248    1.8922452    1.9323714    1.9978771    2.0766285
 
:EIG00051:       2.1254776    2.1803136    2.1956222    2.2515348    2.2747024
:EIG00056:       2.3567243    2.4039707    2.4071228    2.5033225    2.5420085
:EIG00061:       2.6058472    2.6307802    2.7526550    2.8399437    2.8468774
:EIG00066:       2.9389618    2.9851243    3.0000596    3.0007921    3.0931380
:EIG00071:       3.0973012    3.1455265    3.1697986    3.2074674    3.2223010
:EIG00076:       3.2625751    3.3013410    3.3340554    3.3617341    3.3838837
:EIG00081:       3.4238004    3.4650908    3.4753044    3.5205895    3.5683701
:EIG00086:       3.5956193    3.6704791    3.6766087    3.7081104    3.7192345
:EIG00091:       3.7523935    3.7725116    3.8208083    3.8220724    3.8299204
:EIG00096:       3.8887130    3.9158267    3.9177289    3.9329702    4.0129918
 
:EIG00101:       4.0700786    4.1958719    4.2017057    4.2558138    4.2957121
:EIG00106:       4.3079622    4.3440087    4.3463107    4.3956389    4.4253798
:EIG00111:       4.4988996    4.5061816    4.5423414    4.5442114    4.5916555
:EIG00116:       4.6465710    4.7207642    4.7470890    4.7590681    4.7863866
:EIG00121:       4.8102669    4.9012486    4.9136446    4.9463843    4.9938850
:EIG00126:       5.0717823    5.0723205    5.1163364    5.1636213    5.1875273
:EIG00131:       5.2046352    5.2580897    5.2916043    5.3038152    5.3202218
:EIG00136:       5.3784098    5.4221430    5.4689744    5.4846376    5.5131350
:EIG00141:       5.5264893    5.5322320    5.5807882    5.6278775    5.6507688
:EIG00146:       5.6670482    5.6845892    5.6874523    5.6944317    5.7926104
 
:EIG00151:       5.8108385    5.8300582    5.9085988    5.9323717    5.9574732
:EIG00156:       6.0648325    6.1440859    6.1692458    6.2037774    6.2172288
:EIG00161:       6.2539714    6.3202863    6.3629653    6.3753878    6.3754037
:EIG00166:       6.4489779    6.4774747    6.4861726    6.5140518    6.5407348
:EIG00171:       6.5590860    6.6255297    6.6562536    6.6637318    6.7221700
:EIG00176:       6.7244467    6.7572873    6.7921507    6.8088859    6.8365077
:EIG00181:       6.9034641    6.9215835    6.9218547    6.9463215    6.9957033
:EIG00186:       7.0028973    7.0068237    7.0975185    7.1074563    7.1137682
:EIG00191:       7.1605428    7.1742263    7.2241933    7.2363479    7.2667167
:EIG00196:       7.2773257    7.2885399    7.3153206    7.3243002    7.3724999
 
:EIG00201:       7.3836798    7.4415209    7.4472908    7.4629408    7.5226869
:EIG00206:       7.5248843    7.5379214    7.5907600    7.6226397    7.6500038
:EIG00211:       7.6554660    7.7038971    7.7084727    7.7257569    7.7361168
:EIG00216:       7.7781770    7.7820474    7.7847977    7.8098650    7.8508149
:EIG00221:       7.8728896    7.9186802    7.9269252    7.9330426    7.9410225
:EIG00226:       7.9530587    7.9967227    7.9979620    8.0361359
       ********************************************************

:KPT   :      NUMBER OF K-POINTS:   288
   0.0   0.0 angle (M,z), angle (M,x) deg
 
        SPIN-ORBIT EIGENVALUES:
     K=   0.06250   0.00000   0.06250            1
      MATRIX SIZE=  458   WEIGHT= 4.00
     EIGENVALUES ARE:
          -2.0942408   -2.0942408   -2.0848779   -2.0848779   -0.9093374
          -0.9093374   -0.8818193   -0.8818193   -0.7215948   -0.7215948
          -0.6727241   -0.6727241   -0.6703899   -0.6703899   -0.6638612
          -0.6638612    0.3116077    0.3116077    0.4555957    0.4555957
           0.5429269    0.5429269    0.5451855    0.5451855    0.5456622
           0.5456622    0.5468558    0.5468558    0.5492424    0.5492424
           0.5523524    0.5523524    0.5680599    0.5680600    0.5749640
           0.5749640    0.5779157    0.5779157    0.5786697    0.5786697

           0.5823565    0.5823565    0.5854447    0.5854447    0.5863327
           0.5863327    0.5898252    0.5898252    0.6138949    0.6138949
           0.6249706    0.6249706    0.6875205    0.6875206    0.7078925
           0.7078925    0.7227324    0.7227325    0.7612249    0.7612249
           0.7762622    0.7762622    0.8473087    0.8473088    0.8915353
           0.8915353    0.9284476    0.9284476    1.1827364    1.1827364
           1.2236125    1.2236125    1.3110152    1.3110152    1.3137229
           1.3137229    1.4582477    1.4582477    1.5107584    1.5107584

           1.5516662    1.5516662    1.6517415    1.6517415    1.7141681
           1.7141681    1.7369033    1.7369033    1.8137715    1.8137715
           1.8836219    1.8836219    1.8902745    1.8902745    1.9341685
           1.9341685    1.9983735    1.9983735    2.0761003    2.0761003
           2.1251537    2.1251537    2.1775987    2.1775987    2.1975707
           2.1975707    2.2527437    2.2527437    2.2757106    2.2757106
           2.3566765    2.3566765    2.4023711    2.4023711    2.4091495
           2.4091495    2.5033134    2.5033134    2.5417462    2.5417462

           2.6090783    2.6090783    2.6310672    2.6310672    2.7525720
           2.7525720    2.8400075    2.8400075    2.8470281    2.8470281
           2.9387281    2.9387281    2.9850300    2.9850300    2.9998562
           2.9998562    3.0012528    3.0012528    3.0932344    3.0932344
           3.0974628    3.0974628    3.1455682    3.1455682    3.1698502
           3.1698502    3.2068311    3.2068311    3.2231984    3.2231984
           3.2627228    3.2627228    3.3026036    3.3026036    3.3341314
           3.3341314    3.3617644    3.3617644    3.3842692    3.3842692

           3.4240055    3.4240055    3.4651077    3.4651077    3.4754190
           3.4754190    3.5207426    3.5207426    3.5684022    3.5684022
           3.5957341    3.5957341    3.6705837    3.6705837    3.6766010
           3.6766010    3.7080970    3.7080970    3.7192879    3.7192879
           3.7524083    3.7524083    3.7725581    3.7725581    3.8203225
           3.8203225    3.8222035    3.8222035    3.8300069    3.8300069
           3.8887145    3.8887145    3.9145700    3.9145700    3.9191348
           3.9191348    3.9330525    3.9330525    4.0130317    4.0130317

           4.0698934    4.0698934    4.1937867    4.1937867    4.2030643
           4.2030643    4.2567245    4.2567245    4.2956290    4.2956290
           4.3081535    4.3081535    4.3434571    4.3434571    4.3477683
           4.3477683    4.3958486    4.3958486    4.4254970    4.4254970
           4.4987792    4.4987792
       ********************************************************
:GAP (global)   :    0.0    Ry =     0.0   eV (metal)
:GAP (this spin):    0.0    Ry =     0.0   eV (metal)
         Bandranges (emin - emax) and occupancy:
:BAN00018:  18    0.307183    0.518103  1.00000000
:BAN00019:  19    0.412504    0.530070  1.00000000
:BAN00020:  20    0.412504    0.530070  1.00000000
:BAN00021:  21    0.495539    0.542927  1.00000000
:BAN00022:  22    0.495539    0.542927  1.00000000
:BAN00023:  23    0.529916    0.545467  1.00000000
:BAN00024:  24    0.529916    0.545467  1.00000000
:BAN00025:  25    0.538306    0.552193  0.81274614
:BAN00026:  26    0.538307    0.552193  0.81274590
:BAN00027:  27    0.544747    0.552697  0.18725415
:BAN00028:  28    0.544747    0.552697  0.18725380
:BAN00029:  29    0.548292    0.555169  0.00000000
:BAN00030:  30    0.548292    0.555169  0.00000000
:BAN00031:  31    0.550795    0.559229  0.00000000
:BAN00032:  32    0.550795    0.559229  0.00000000
:BAN00033:  33    0.553918    0.568254  0.00000000
        Energy to separate low and high energystates:    0.25718


:NOE  : NUMBER OF ELECTRONS          =   26.000

:FER  : F E R M I - ENERGY(TETRAH.M.)=   0.5474733602
:GMA  : POTENTIAL AND CHARGE CUT-OFF  12.00 Ry**.5

:POS001: ATOM   -1 X,Y,Z = 0.00000 0.89750 0.25000  MULT= 2  ZZ= 59.000  Pr1       

       LMMAX 16
       LM=   0 0  1 0  2 0  2 2  3 0  3 2  4 0  4 2  4 4  5 0  5 2  5 4  6 0  6 2  6 4  6 6

:CHA001: TOTAL VALENCE CHARGE INSIDE SPHERE   1 =   9.5002    (RMT=  2.3000 )
:PCS001: PARTIAL CHARGES SPHERE =  1 S,P,D,F,PX,PY,PZ,D-Z2,D-X2Y2,D-XY,D-XZ,D-YZ 
:QTL001: 1.9386 5.0171 0.4581 2.0862 1.6696 1.6699 1.6777 0.0839 0.0837 0.1031 0.0868 0.1006
        Q-s-low E-s-low   Q-p-low E-p-low   Q-d-low E-d-low   Q-f-low E-f-low
:EPL001:  1.8692 -2.0851    4.9558 -0.7687    0.0009 -0.7573    0.0003 -0.7657
        Q-s-hi  E-s-hi    Q-p-hi  E-p-hi    Q-d-hi  E-d-hi    Q-f-hi  E-f-hi 
:EPH001:  0.0694  0.4461    0.0613  0.4852    0.4572  0.5035    2.0859  0.5376

                      VXX         VYY         VZZ       UP TO R
:VZZ001:             3.59025     2.96599    -6.55624       2.300

:CHA  : TOTAL VALENCE CHARGE INSIDE UNIT CELL =      26.000000

:SUM  : SUM OF EIGENVALUES =         -12.451415680


        1.ATOM      Pr1                  14 CORE STATES
       CORE-FORCE in mRy/a.u. = |F|      Fx             Fy             Fz
:FCO001:   1.ATOM   1131.154438122905      0.000000000000      0.000000000000   1131.154438122905

:1S 001: 1S               -3067.047943716 Ry
:2S 001: 2S                -492.797574647 Ry
:2PP001: 2P*               -465.897511544 Ry
:2P 001: 2P                -430.499724880 Ry
:3S 001: 3S                -105.880734744 Ry
:3PP001: 3P*                -94.418914382 Ry
:3P 001: 3P                 -87.410810696 Ry
:3DD001: 3D*                -67.338737223 Ry
:3D 001: 3D                 -65.827061106 Ry
:4S 001: 4S                 -20.560124838 Ry
:4PP001: 4P*                -16.267429740 Ry
:4P 001: 4P                 -14.740692980 Ry
:4DD001: 4D*                 -7.675078450 Ry
:4D 001: 4D                  -7.405918091 Ry
:CINT001 Core Integral Atom   1   45.998473

       DENSITY AT NUCLEUS
        JATOM        VALENCE       SEMI-CORE          CORE           TOTAL
:RTO001:   1      645.877014        0.000000   656824.679389   657470.556404
     
       CHARGES OF NEW CHARGE DENSITY
:NTO   : INTERSTITIAL CHARGE =     6.999581
:NPC   : PW Pseudocharge     =    16.832583
:NTO001: CHARGE SPHERE  1    =    55.498683

:NEC01: NUCLEAR AND ELECTRONIC CHARGE    118.00000   117.99695
     
       CHARGES OF OLD CHARGE DENSITY
:OTO   : INTERSTITIAL CHARGE =     7.002664
:OPC   : PW Pseudocharge     =    16.839946
:OTO001: CHARGE SPHERE  1    =    55.498668

:NEC02: NUCLEAR AND ELECTRONIC CHARGE    118.00000   118.00000
     
       CONVERGENCE TEST
:DTO001: DIFFERENCE IN SPHERE  1 =  0.0000503

:DIS  :  CHARGE DISTANCE       ( 0.0000503 for atom    1 spin 1)      0.0000503
 PW Mixed is          544
 
******************************************************
* MULTISECANT MIXING VER9 RELEASE 10.4.0              *
* Standard Mode with controls                        *
* Fixed density scale                                *
* Regularization       1.000E-04                     *
* Trust Upper Limit    5.000E+00                     *
* Max Number of Memory Steps    8                    *
******************************************************
 
:PWTMP   4.3254E+02  1.9467E+02  5.3447E+02
:PLANE:  PW TOTAL      4.3832 DISTAN   1.00E-05  2.29E-04 %
:CHARG:  CLM/ATOM   1381.9362 DISTAN   9.30E-05  6.73E-06 %
 
Step History
        DMIX         DMIXT        Red     Pred      Trust     Lambda    MagRel    MagAbs     Beta
  5   6.6437E-02   5.1503E-02  7.37E-01  8.09E-01  2.51E-01  9.70E-01  2.51E-01  4.04E-02  1.00E+00
  6   1.6609E-01   1.5052E-01  4.81E-01  4.95E-01  5.65E-01  7.77E-01  5.65E-01  6.69E-02  1.00E+00
  7   1.1103E-01   1.1103E-01  3.97E-01  5.27E-01  7.53E-01  8.86E-01  6.29E-01  3.59E-02  1.00E+00
  8   7.9413E-02   7.9413E-02  7.70E-01  9.12E-01  1.00E+00  1.33E+00  1.58E-01  3.57E-03  1.00E+00
  9   1.9853E-01   1.9853E-01  2.13E-01  2.66E-01  1.30E+00  8.56E-01  5.42E-01  9.45E-03  1.00E+00
 10   9.1279E-02   9.1279E-02  8.36E-01  9.34E-01  1.74E+00  1.12E+00  1.93E-01  7.14E-04  1.00E+00
 11   2.2820E-01   2.2820E-01  1.01E-01  1.80E-01  2.08E+00  8.05E-01  8.77E-01  2.72E-03  1.00E+00
 12   1.0172E-01   1.0172E-01  7.97E-01  9.31E-01  3.19E+00  1.16E+00  2.65E-01  8.28E-05  1.00E+00
 13   2.5429E-01   2.5429E-01 -1.00E+00  5.03E-01  4.00E+00  1.00E+00  5.79E-01  1.44E-04  1.00E+00
:JACOBIANS    3.826E-01   2.715E+00
  
:NORMS:  1/Froebius, Min, Max, Used   0.7826E+00  0.4537E+00  0.9718E+00  0.9455E+00
:INFO :  Number of Memory Steps    8 Skipping    4
:INFO :  SLambda=    1.2120853649  Max    1.2120853649
:PREDicted Charge, CTotal, PW Trust    4.812E-06   9.625E-06   3.337E-05
:PREDicted DMix, Beta, BLim   3.3371E-01  1.1822E+00  7.4167E-01

Eigenvalues, unscaled except for SY+YY
   #     SY Real        SY Imag          SS             YY         SY+YY Real      SY+YY Imag
   1   2.509652E+00   0.000000E+00   2.433963E+00   2.722915E+00   5.744941E+00   0.000000E+00
   2   1.666755E+00   0.000000E+00   1.545493E+00   2.125614E+00   4.087018E+00   0.000000E+00
   3   9.823568E-01   0.000000E+00   6.690276E-01   1.494784E+00   2.725152E+00   0.000000E+00
   4   5.590089E-01   0.000000E+00   2.474290E-01   1.292516E+00   1.992005E+00   0.000000E+00
   5   2.971712E-02   0.000000E+00   2.606781E-03   3.194316E-01   3.706283E-01   0.000000E+00
   6   3.837708E-03   0.000000E+00   6.203864E-04   3.408878E-02   4.010188E-02   0.000000E+00
   7   1.089626E-03   0.000000E+00   1.278282E-04   1.034532E-02   4.025335E-04   0.000000E+00
   8   5.257315E-05   0.000000E+00   5.287330E-06   3.048641E-04   1.223514E-02   0.000000E+00
 
:INFO :  Singular value  5.746E+00 Weight  1.000E+00 Projection -3.345E-07
:INFO :  Singular value  4.087E+00 Weight  1.000E+00 Projection  4.760E-06
:INFO :  Singular value  2.728E+00 Weight  1.000E+00 Projection -3.502E-05
:INFO :  Singular value  1.990E+00 Weight  1.000E+00 Projection -3.881E-06
:INFO :  Singular value  3.705E-01 Weight  1.000E+00 Projection -3.781E-05
:INFO :  Singular value  4.011E-02 Weight  1.000E+00 Projection -4.128E-04
:INFO :  Singular value  1.223E-02 Weight  9.995E-01 Projection -1.436E-04
:INFO :  Singular value  4.025E-04 Weight  6.861E-01 Projection -1.023E-03
:RANK :  ACTIVE   7.69/8  =  96.07 % ; YY RANK   7.56/8  =  94.44 %
 
:BLIM :  VZERO Control Off
:TRUST:  Step 5.33E+00  Charge 1.57E-02 (e) CTO  5.24E-02 (e) PW  7.34E-02 (e)
:DIRM :  MEMORY  8/8  SCALE   1.000 RED  0.38 PRED  0.50 NEXT  0.23 
:TRAVE:  Charge 1.44E-05 (e) CTO  2.89E-05 (e) PW  2.26E-04 (e)
:DIRP :  |MSR1|= 5.717E-06 |PRATT|= 1.003E-05 ANGLE=  32.6 DEGREES
:DIRQ :  |MSR1|= 3.906E-05 |PRATT|= 9.295E-05 ANGLE=  38.7 DEGREES
:DIRT :  |MSR1|= 3.948E-05 |PRATT|= 9.349E-05 ANGLE=  38.7 DEGREES
:MIX  :   MSE1   REGULARIZATION:  2.72E-04 GREED: 0.26483  Newton 1.00  0.4223                
     
       CHARGES OF MIXED CHARGE DENSITY
:CTO   : INTERSTITIAL CHARGE =     7.002667
:CPC   : PW Pseudocharge     =    16.839939
:CTO001: CHARGE SPHERE  1    =    55.498667

:NEC03: NUCLEAR AND ELECTRONIC CHARGE    118.00000   118.00000

PW CHANGE     H    K    L      Current       Change    Residue
:PTO001:      0    0    0  4.46099836E-02 -5.959E-09 -8.795E-08
:PTO003:      0    2    0  1.29481378E-02 -2.447E-08 -1.065E-07
:PTO004:     -1    1    0  6.41552511E-02 -1.172E-07 -1.610E-07
:PTO005:      0    2   -1 -7.50018883E-02 -4.309E-08 -7.326E-08
:PTO006:      0    0   -2 -3.87625565E-02 -3.333E-09  3.451E-08
:PTO007:     -1    1   -1 -8.21028763E-02  5.708E-08  2.097E-08
:PTO008:      0    2   -2 -1.37798677E-02 -2.960E-08 -3.737E-09
:PTO009:     -1    1   -2 -7.20403969E-02 -2.775E-08 -4.990E-08
:PTO011:     -1    3    0 -1.20643640E-02  5.617E-08  6.020E-08
:PTO012:     -1    3   -1 -5.52401799E-02  1.816E-08  1.723E-08
:PTO013:      0    4    0 -1.03448470E-02 -1.416E-08 -3.601E-08
:PTO014:      0    2   -3  2.36253648E-02  3.861E-08  4.159E-08

:ENE  : ********** TOTAL ENERGY IN Ry =       -36944.18322918

       TOTAL FORCE IN mRy/a.u. = |F|     Fx             Fy             Fz     with/without FOR in case.in2
:FOR001:   1.ATOM         31.642          0.000          0.000        -31.642 partial forces
       TOTAL FORCE WITH RESPECT TO GLOBAL CARTESIAN COORDINATES:
:FCA001:   1.ATOM                         0.000        -31.642          0.000 partial forces
       TOTAL FORCE WITH RESPECT TO THE GLOBAL COORDINATE SYSTEM:
:FGL001:   1.ATOM                 0.000000000   -31.641570053     0.000000000 partial forces
