
:LABEL1: Calculations in /home/ykent/GWIEN/example/Pr/aU/V7/case
:LABEL2: on didymium-2.cmpgroup.ameslab.gov at Fri Jul 10 14:12:04 CDT 2020
:LABEL3: using WIEN2k_19.1 (Release 25/6/2019) in /home/ykent/opt/src/WIEN2k_19.1
:LABEL4: using the command: run_lapw -so -i 70 -cc 0.0001

:LABEL1: Calculations in /home/ykent/GWIEN/example/Pr/aU/V7/case
:LABEL2: on didymium-2.cmpgroup.ameslab.gov at Fri Jul 10 14:12:28 CDT 2020
:LABEL3: using WIEN2k_19.1 (Release 25/6/2019) in /home/ykent/opt/src/WIEN2k_19.1
:LABEL4: using the command: run_lapw -so -i 70 -cc 0.0001
 Flat Integration
 New Mode for Coulomb Integral
 Consistent 3/8+Simpson combinations
 Extension of core to zero
 LDM version in phi
 Fifth-order quadrature in outwin


            ---------
:ITE016: 16. ITERATION
            ---------

:NATO :    1 INDEPENDENT AND    2 TOTAL ATOMS IN UNITCELL
       SUBSTANCE: aU                                                          

       LATTICE                      = CXY 
:POT  : POTENTIAL OPTION EX_LDA EC_LDA VX_LDA VC_LDA
:LAT  : LATTICE CONSTANTS=  5.57334 11.30972  9.76391    1.571    1.571    1.571
:VOL  : UNIT CELL VOLUME =     307.72401
       MODE OF CALCULATION IS       = RELA
       NON-SPINPOLARIZED CALCULATION
:IFFT  : FFT-parameters:   48   90   80 Factor: 2.00


   CONVERGENCE PARAMETER FOR PSEUDOCHARGE: NCON=  9
   MAXIMAL VALUE OF RMT(JATOM)*ABSK(NKK) : RK  =27.58719


:VKCOUL :  VK-COUL convergence: 0.208E-06
       ATOMNUMBER=  1 Pr1        VCOUL-ZERO =  0.52389E+00
:EFG001:                        EFG         =    -9.45229   *10**21  V / m**2
                               V20  TOT/SRF=    -8.18592    -0.06154
                               V22  TOT/SRF=    -3.59150    -0.01121
                               V22M TOT/SRF=     0.00000     0.00000
                               V21  TOT/SRF=     0.00000     0.00000
                               V21M TOT/SRF=     0.00000     0.00000

              1.13465    0.00000    0.00000        1.13465    0.00000    0.00000
              0.00000    8.31764    0.00000        0.00000    8.31764    0.00000
              0.00000    0.00000   -9.45229        0.00000    0.00000   -9.45229

         MAIN DIRECTIONS OF THE EFG   1.0000  0.0000  0.0000
                                      0.0000  1.0000  0.0000
                                      0.0000  0.0000  1.0000
:ANG001:  ANGLE WITH OLD X-AXIS =         0.0

:ETA001:                         ASYMM. ETA =     0.75992


     HELLMANN-FEYNMAN-FORCE IN mRy/a.u. = |F|  Fx       Fy             Fz
:FHF001:   1.ATOM   1640.696005883948      0.000000000000      0.000000000000  -1640.696005883948

:FIT001: LUSE= 13 SIGMA OF V-XC FIT FOR ATOM  1  0.6725208E-04
:FIT001: LUSE= 13 SIGMA OF V-XC FIT FOR ATOM  1  0.6725208E-04
:DEN  : DENSITY INTEGRAL  =        -14199.21042073   (Ry)
       ELS_POTENTIAL_AT Z=0 and Z=0.5:   0.95677   0.95677
       ELS_POTENTIAL_AT Y=0 and Y=0.5:   0.01001   0.01001
:VZERO:v0,v0c,v0x   0.24682   0.95677  -0.70995 v5,v5c,v5x   0.24682   0.95677  -0.70995
:VZERY:v0,v0c,v0x  -0.92133   0.01001  -0.93134 v5,v5c,v5x  -0.92133   0.01001  -0.93134
:VZERX:v0,v0c,v0x  -1.26941  -0.39565  -0.87376 v5,v5c,v5x  -1.26941  -0.39565  -0.87376
:LMAX-WF:   10   Non-Spherical LMAX:   4

          ATOMIC SPHERE DEPENDENT PARAMETERS FOR ATOM  Pr1       
:e__0001: OVERALL ENERGY PARAMETER IS    0.8472
          OVERALL BASIS SET ON ATOM IS LAPW
:E0_0001: E( 0)=    0.8472
             APW+lo
:E0_0001: E( 0)=   -1.5829   E(BOTTOM)=   -2.220   E(TOP)=   -0.945  4  5   225
             LOCAL ORBITAL
:E1_0001: E( 1)=    1.2472
             APW+lo
:E1_0001: E( 1)=   -0.1136   E(BOTTOM)=   -1.075   E(TOP)=    0.847  3  4   233
             LOCAL ORBITAL
:E3_0001: E( 3)=    1.0568   E(BOTTOM)=    0.851   E(TOP)=    1.263  0  1   116
             APW+lo
:E2_0001: E( 2)=    0.8472   E(BOTTOM)=    0.662   E(TOP)= -200.000  2 -1   123
             APW+lo

       K=   0.06250   0.00000   0.06250            1
:RKM  : MATRIX SIZE   303LOs:  40  RKM= 8.48  WEIGHT= 4.00  PGR:    
       EIGENVALUES ARE:
:EIG00001:      -1.6071694   -1.5444770   -0.4068663   -0.1907473   -0.1404867
:EIG00006:      -0.1211932   -0.1002424   -0.0995203    0.8778723    0.9105630
:EIG00011:       1.0228127    1.0288409    1.0305087    1.0384913    1.0526528
:EIG00016:       1.0743920    1.0826268    1.0846385    1.0905020    1.0946425
:EIG00021:       1.1051888    1.1054933    1.1067304    1.1271010    1.1469655
:EIG00026:       1.1756797    1.2748100    1.2751581    1.3517266    1.3909773
:EIG00031:       1.4296791    1.6063996    1.6120929    1.6950251    1.9951340
:EIG00036:       2.0438235    2.0795920    2.2649568    2.3165926    2.4095432
:EIG00041:       2.5952024    2.6618987    2.8075212    2.8461089    2.9982126
:EIG00046:       3.0138599    3.0172905    3.1930282    3.1941166    3.3393899
 
:EIG00051:       3.4250071    3.5388529    3.5601571    3.7113641    3.7404614
:EIG00056:       3.7865122    3.8514307    4.0298537    4.0346340    4.1282692
:EIG00061:       4.1892609    4.2867122    4.3368838    4.3714343    4.4484865
:EIG00066:       4.5739445    4.5832380    4.6488649    4.7276891    4.7415336
:EIG00071:       4.8333227    4.8730037    4.9205514    5.0191106    5.0272432
:EIG00076:       5.0436326    5.1021402    5.1117906    5.1354143    5.2272249
:EIG00081:       5.2345180    5.2662866    5.3353176    5.3487047    5.3701591
:EIG00086:       5.4713168    5.5668003    5.6364544    5.6764853    5.7042159
:EIG00091:       5.7585667    5.7999937    5.8435720    5.8667542    5.8748384
:EIG00096:       5.9592857    6.0064317    6.0067813    6.0804658    6.1437354
 
:EIG00101:       6.1798766    6.3049046    6.3685318    6.4122492    6.4227538
:EIG00106:       6.5424990    6.5567896    6.5830588    6.6680811    6.8042806
:EIG00111:       6.8837966    6.9230441    7.0016724    7.0334658    7.1244066
:EIG00116:       7.2355415    7.2376763    7.3479154    7.3614079    7.4124521
:EIG00121:       7.4892723    7.5181158    7.5802368    7.6344494    7.7024568
:EIG00126:       7.7260078    7.8029276    7.8601896    7.8772362    7.8961638
:EIG00131:       7.9620261    7.9930956    8.0121518    8.1629915    8.1921639
:EIG00136:       8.2429078    8.2483524    8.3739465    8.3865365    8.4283784
:EIG00141:       8.4334541    8.4964117    8.5232125
       ********************************************************

:KPT   :      NUMBER OF K-POINTS:   288
   0.0   0.0 angle (M,z), angle (M,x) deg
 
        SPIN-ORBIT EIGENVALUES:
     K=   0.06250   0.00000   0.06250            1
      MATRIX SIZE=  286   WEIGHT= 4.00
     EIGENVALUES ARE:
          -1.6071709   -1.6071709   -1.5444782   -1.5444782   -0.4464983
          -0.4464982   -0.2779764   -0.2779764   -0.2018719   -0.2018719
          -0.0614210   -0.0614209   -0.0573118   -0.0573117   -0.0345003
          -0.0345003    0.8779820    0.8779820    0.9104652    0.9104652
           1.0207902    1.0207902    1.0264551    1.0264551    1.0284312
           1.0284312    1.0366816    1.0366816    1.0497202    1.0497202
           1.0665706    1.0665706    1.0772178    1.0772178    1.0866894
           1.0866894    1.0956396    1.0956396    1.0977706    1.0977706

           1.1056792    1.1056792    1.1084439    1.1084439    1.1110810
           1.1110810    1.1298271    1.1298271    1.1484686    1.1484686
           1.1759746    1.1759746    1.2688844    1.2688844    1.2810362
           1.2810362    1.3522473    1.3522473    1.3908673    1.3908673
           1.4301072    1.4301072    1.6064709    1.6064709    1.6123047
           1.6123047    1.6952108    1.6952108    1.9955562    1.9955562
           2.0438861    2.0438861    2.0795906    2.0795906    2.2648730
           2.2648730    2.3164087    2.3164087    2.4089549    2.4089549

           2.5954252    2.5954252    2.6614103    2.6614103    2.8072222
           2.8072222    2.8458415    2.8458415    2.9981846    2.9981846
           3.0130282    3.0130282    3.0177303    3.0177303    3.1869362
           3.1869362    3.2002208    3.2002208    3.3396235    3.3396235
           3.4245916    3.4245916    3.5354925    3.5354925    3.5620062
           3.5620062    3.7111535    3.7111535    3.7397091    3.7397091
           3.7873249    3.7873249    3.8494589    3.8494589    4.0298277
           4.0298277    4.0368402    4.0368402    4.1280696    4.1280696

           4.1907875    4.1907875    4.2863561    4.2863561    4.3370134
           4.3370134    4.3761817    4.3761817    4.4486388    4.4486388

       ********************************************************
:GAP (global)   :    0.0    Ry =     0.0   eV (metal)
:GAP (this spin):    0.0    Ry =     0.0   eV (metal)
         Bandranges (emin - emax) and occupancy:
:BAN00020:  20    0.879986    1.004023  1.00000000
:BAN00021:  21    0.914900    1.042312  1.00000000
:BAN00022:  22    0.914900    1.042312  1.00000000
:BAN00023:  23    0.979711    1.048077  0.98887883
:BAN00024:  24    0.979711    1.048077  0.98887882
:BAN00025:  25    1.001005    1.063656  0.66100175
:BAN00026:  26    1.001005    1.063656  0.66100167
:BAN00027:  27    1.027089    1.069464  0.34798753
:BAN00028:  28    1.027089    1.069464  0.34798741
:BAN00029:  29    1.043429    1.072780  0.00213200
:BAN00030:  30    1.043429    1.072780  0.00213200
:BAN00031:  31    1.051382    1.081932  0.00000000
:BAN00032:  32    1.051382    1.081932  0.00000000
:BAN00033:  33    1.069786    1.090876  0.00000000
:BAN00034:  34    1.069786    1.090876  0.00000000
:BAN00035:  35    1.073568    1.097717  0.00000000
        Energy to separate low and high energystates:    0.78289


:NOE  : NUMBER OF ELECTRONS          =   26.000

:FER  : F E R M I - ENERGY(TETRAH.M.)=   1.0445625538
:GMA  : POTENTIAL AND CHARGE CUT-OFF  12.00 Ry**.5

:POS001: ATOM   -1 X,Y,Z = 0.00000 0.89750 0.25000  MULT= 2  ZZ= 59.000  Pr1       

       LMMAX 16
       LM=   0 0  1 0  2 0  2 2  3 0  3 2  4 0  4 2  4 4  5 0  5 2  5 4  6 0  6 2  6 4  6 6

:CHA001: TOTAL VALENCE CHARGE INSIDE SPHERE   1 =   9.7707    (RMT=  2.3000 )
:PCS001: PARTIAL CHARGES SPHERE =  1 S,P,D,F,PX,PY,PZ,D-Z2,D-X2Y2,D-XY,D-XZ,D-YZ 
:QTL001: 1.9351 4.9688 0.7935 2.0711 1.6556 1.6513 1.6618 0.1542 0.1408 0.1636 0.1636 0.1714
        Q-s-low E-s-low   Q-p-low E-p-low   Q-d-low E-d-low   Q-f-low E-f-low
:EPL001:  1.8690 -1.5397    4.8871 -0.2371    0.0158 -0.2565    0.0049 -0.2677
        Q-s-hi  E-s-hi    Q-p-hi  E-p-hi    Q-d-hi  E-d-hi    Q-f-hi  E-f-hi 
:EPH001:  0.0661  0.9583    0.0818  0.9799    0.7777  0.9598    2.0662  1.0142

                      VXX         VYY         VZZ       UP TO R
:VZZ001:             1.10787     7.90796    -9.01582       2.300

:CHA  : TOTAL VALENCE CHARGE INSIDE UNIT CELL =      26.000000

:SUM  : SUM OF EIGENVALUES =           0.779076152


        1.ATOM      Pr1                  14 CORE STATES
       CORE-FORCE in mRy/a.u. = |F|      Fx             Fy             Fz
:FCO001:   1.ATOM   1642.275266132796      0.000000000000      0.000000000000   1642.275266132796

:1S 001: 1S               -3066.543802611 Ry
:2S 001: 2S                -492.297275425 Ry
:2PP001: 2P*               -465.395773829 Ry
:2P 001: 2P                -429.998495979 Ry
:3S 001: 3S                -105.395488589 Ry
:3PP001: 3P*                -93.933018021 Ry
:3P 001: 3P                 -86.925341820 Ry
:3DD001: 3D*                -66.851266399 Ry
:3D 001: 3D                 -65.339812520 Ry
:4S 001: 4S                 -20.062372023 Ry
:4PP001: 4P*                -15.768134757 Ry
:4P 001: 4P                 -14.239287359 Ry
:4DD001: 4D*                 -7.169400061 Ry
:4D 001: 4D                  -6.899498142 Ry
:CINT001 Core Integral Atom   1   45.998498

       DENSITY AT NUCLEUS
        JATOM        VALENCE       SEMI-CORE          CORE           TOTAL
:RTO001:   1      645.110528        0.000000   656826.420784   657471.531312
     
       CHARGES OF NEW CHARGE DENSITY
:NTO   : INTERSTITIAL CHARGE =     6.458592
:NPC   : PW Pseudocharge     =    17.469389
:NTO001: CHARGE SPHERE  1    =    55.769201

:NEC01: NUCLEAR AND ELECTRONIC CHARGE    118.00000   117.99699
     
       CHARGES OF OLD CHARGE DENSITY
:OTO   : INTERSTITIAL CHARGE =     6.504430
:OPC   : PW Pseudocharge     =    17.513929
:OTO001: CHARGE SPHERE  1    =    55.747785

:NEC02: NUCLEAR AND ELECTRONIC CHARGE    118.00000   118.00000
     
       CONVERGENCE TEST
:DTO001: DIFFERENCE IN SPHERE  1 =  0.0492942

:DIS  :  CHARGE DISTANCE       ( 0.0492942 for atom    1 spin 1)      0.0492942
 PW Mixed is          332
 
******************************************************
* MULTISECANT MIXING VER9 RELEASE 10.4.0              *
* Standard Mode with controls                        *
* Fixed density scale                                *
* Regularization       1.000E-04                     *
* Trust Upper Limit    5.000E+00                     *
* Max Number of Memory Steps    8                    *
******************************************************
 
:PWTMP   2.0579E+02  1.9467E+02  3.0772E+02
:PLANE:  PW TOTAL      5.9407 DISTAN   1.35E-02  2.28E-01 %
:CHARG:  CLM/ATOM   1381.9512 DISTAN   7.15E-02  5.18E-03 %
 
Step History
        DMIX         DMIXT        Red     Pred      Trust     Lambda    MagRel    MagAbs     Beta
  1   3.5000E-02   3.5000E-02 -1.00E+00  1.00E+00 -1.00E+01  1.00E+00  3.50E-02  3.50E-02  1.00E+00
:INFO :  Note, Pratt in use
:TRUST:  Step 3.75E-02  Charge 7.50E-02 (e) CTO  2.50E-01 (e) PW  3.50E-01 (e)
:DIRM :  MEMORY  0/ 8 SCALE   1.000
Performing Pseudo Compensation
Final Pseudo Compensation Rescaling     1.00000E+00
:MIX  :   PRATT  REGULARIZATION:  1.00E-04 GREED: 0.02500                  
     
       CHARGES OF MIXED CHARGE DENSITY
:CTO   : INTERSTITIAL CHARGE =     6.503360
:CPC   : PW Pseudocharge     =    17.502632
:CTO001: CHARGE SPHERE  1    =    55.748320

:NEC03: NUCLEAR AND ELECTRONIC CHARGE    118.00000   118.00000

PW CHANGE     H    K    L      Current       Change    Residue
:PTO001:      0    0    0  7.80114341E-02 -4.019E-05 -2.575E-04
:PTO003:      0    2    0  1.82973357E-02 -1.138E-05  1.050E-05
:PTO004:     -1    1    0  8.63304332E-02 -5.987E-05 -8.823E-05
:PTO005:      0    2   -1 -9.86787272E-02  6.882E-05  6.501E-05
:PTO006:      0    0   -2 -5.11786566E-02  3.558E-05  2.839E-05
:PTO007:     -1    1   -1 -1.02659357E-01  7.480E-05  1.110E-04
:PTO008:      0    2   -2 -1.44113741E-02  1.126E-05  2.012E-05
:PTO009:     -1    1   -2 -7.22810806E-02  5.206E-05  4.532E-05
:PTO011:     -1    3    0 -1.08162156E-02  7.200E-06  2.064E-05
:PTO012:     -1    3   -1 -4.42615116E-02  2.549E-05 -2.365E-06
:PTO013:      0    4    0 -7.50785604E-03  3.608E-06 -6.698E-07
:PTO014:      0    2   -3  1.74708335E-02 -8.201E-06 -6.891E-06

:ENE  : ********** TOTAL ENERGY IN Ry =       -36944.35686649

       TOTAL FORCE IN mRy/a.u. = |F|     Fx             Fy             Fz     with/without FOR in case.in2
:FOR001:   1.ATOM          1.579          0.000          0.000          1.579 partial forces
       TOTAL FORCE WITH RESPECT TO GLOBAL CARTESIAN COORDINATES:
:FCA001:   1.ATOM                         0.000          1.579          0.000 partial forces
       TOTAL FORCE WITH RESPECT TO THE GLOBAL COORDINATE SYSTEM:
:FGL001:   1.ATOM                 0.000000000     1.579260249     0.000000000 partial forces
 Flat Integration
 New Mode for Coulomb Integral
 Consistent 3/8+Simpson combinations
 Extension of core to zero
 LDM version in phi
 Fifth-order quadrature in outwin


            ---------
:ITE017: 17. ITERATION
            ---------

:NATO :    1 INDEPENDENT AND    2 TOTAL ATOMS IN UNITCELL
       SUBSTANCE: aU                                                          

       LATTICE                      = CXY 
:POT  : POTENTIAL OPTION EX_LDA EC_LDA VX_LDA VC_LDA
:LAT  : LATTICE CONSTANTS=  5.57334 11.30972  9.76391    1.571    1.571    1.571
:VOL  : UNIT CELL VOLUME =     307.72401
       MODE OF CALCULATION IS       = RELA
       NON-SPINPOLARIZED CALCULATION
:IFFT  : FFT-parameters:   48   90   80 Factor: 2.00


   CONVERGENCE PARAMETER FOR PSEUDOCHARGE: NCON=  9
   MAXIMAL VALUE OF RMT(JATOM)*ABSK(NKK) : RK  =27.58719


:VKCOUL :  VK-COUL convergence: 0.208E-06
       ATOMNUMBER=  1 Pr1        VCOUL-ZERO =  0.52364E+00
:EFG001:                        EFG         =    -9.44328   *10**21  V / m**2
                               V20  TOT/SRF=    -8.17812    -0.06150
                               V22  TOT/SRF=    -3.58675    -0.01118
                               V22M TOT/SRF=     0.00000     0.00000
                               V21  TOT/SRF=     0.00000     0.00000
                               V21M TOT/SRF=     0.00000     0.00000

              1.13489    0.00000    0.00000        1.13489    0.00000    0.00000
              0.00000    8.30840    0.00000        0.00000    8.30840    0.00000
              0.00000    0.00000   -9.44328        0.00000    0.00000   -9.44328

         MAIN DIRECTIONS OF THE EFG   1.0000  0.0000  0.0000
                                      0.0000  1.0000  0.0000
                                      0.0000  0.0000  1.0000
:ANG001:  ANGLE WITH OLD X-AXIS =         0.0

:ETA001:                         ASYMM. ETA =     0.75964


     HELLMANN-FEYNMAN-FORCE IN mRy/a.u. = |F|  Fx       Fy             Fz
:FHF001:   1.ATOM   1640.036128934377      0.000000000000      0.000000000000  -1640.036128934377

:FIT001: LUSE= 13 SIGMA OF V-XC FIT FOR ATOM  1  0.6720928E-04
:FIT001: LUSE= 13 SIGMA OF V-XC FIT FOR ATOM  1  0.6720928E-04
:DEN  : DENSITY INTEGRAL  =        -14199.32181010   (Ry)
       ELS_POTENTIAL_AT Z=0 and Z=0.5:   0.95643   0.95643
       ELS_POTENTIAL_AT Y=0 and Y=0.5:   0.00996   0.00996
:VZERO:v0,v0c,v0x   0.24652   0.95643  -0.70991 v5,v5c,v5x   0.24652   0.95643  -0.70991
:VZERY:v0,v0c,v0x  -0.92125   0.00996  -0.93121 v5,v5c,v5x  -0.92125   0.00996  -0.93121
:VZERX:v0,v0c,v0x  -1.26911  -0.39545  -0.87366 v5,v5c,v5x  -1.26911  -0.39545  -0.87366
:LMAX-WF:   10   Non-Spherical LMAX:   4

          ATOMIC SPHERE DEPENDENT PARAMETERS FOR ATOM  Pr1       
:e__0001: OVERALL ENERGY PARAMETER IS    0.8454
          OVERALL BASIS SET ON ATOM IS LAPW
:E0_0001: E( 0)=    0.8454
             APW+lo
:E0_0001: E( 0)=   -1.5827   E(BOTTOM)=   -2.220   E(TOP)=   -0.945  4  5   222
             LOCAL ORBITAL
:E1_0001: E( 1)=    1.2454
             APW+lo
:E1_0001: E( 1)=   -0.1134   E(BOTTOM)=   -1.075   E(TOP)=    0.848  3  4   226
             LOCAL ORBITAL
:E3_0001: E( 3)=    1.0574   E(BOTTOM)=    0.851   E(TOP)=    1.263  0  1   116
             APW+lo
:E2_0001: E( 2)=    0.8454   E(BOTTOM)=    0.662   E(TOP)= -200.000  2 -1   121
             APW+lo

       K=   0.06250   0.00000   0.06250            1
:RKM  : MATRIX SIZE   303LOs:  40  RKM= 8.48  WEIGHT= 4.00  PGR:    
       EIGENVALUES ARE:
:EIG00001:      -1.6070144   -1.5442968   -0.4068657   -0.1906774   -0.1404000
:EIG00006:      -0.1210842   -0.1001457   -0.0994038    0.8776941    0.9103990
:EIG00011:       1.0231649    1.0292764    1.0309689    1.0389251    1.0530790
:EIG00016:       1.0749431    1.0831934    1.0852129    1.0910631    1.0951862
:EIG00021:       1.1057628    1.1059998    1.1072089    1.1277058    1.1472826
:EIG00026:       1.1758177    1.2748251    1.2750719    1.3516584    1.3909161
:EIG00031:       1.4296226    1.6063643    1.6120145    1.6950046    1.9950355
:EIG00036:       2.0437224    2.0794631    2.2648821    2.3164346    2.4094120
:EIG00041:       2.5950756    2.6617611    2.8073728    2.8459913    2.9980727
:EIG00046:       3.0136760    3.0171680    3.1928789    3.1939467    3.3392020
 
:EIG00051:       3.4248723    3.5387209    3.5600636    3.7113038    3.7403169
:EIG00056:       3.7864016    3.8512978    4.0298748    4.0345048    4.1281313
:EIG00061:       4.1891167    4.2865377    4.3366963    4.3713792    4.4484436
:EIG00066:       4.5737644    4.5830774    4.6486811    4.7275218    4.7413907
:EIG00071:       4.8331866    4.8728240    4.9204362    5.0189232    5.0270621
:EIG00076:       5.0434488    5.1019725    5.1115946    5.1352344    5.2270206
:EIG00081:       5.2343325    5.2660874    5.3351134    5.3485230    5.3699837
:EIG00086:       5.4710745    5.5665965    5.6362877    5.6763067    5.7040152
:EIG00091:       5.7583787    5.7998202    5.8434960    5.8665805    5.8747873
:EIG00096:       5.9590747    6.0062539    6.0065530    6.0803406    6.1435775
 
:EIG00101:       6.1797269    6.3047427    6.3683660    6.4120411    6.4225456
:EIG00106:       6.5423082    6.5566082    6.5828510    6.6678927    6.8040925
:EIG00111:       6.8836663    6.9228837    7.0014850    7.0332528    7.1242839
:EIG00116:       7.2353203    7.2376357    7.3478995    7.3613592    7.4123614
:EIG00121:       7.4891309    7.5180103    7.5800783    7.6342924    7.7022861
:EIG00126:       7.7258326    7.8027663    7.8599799    7.8770635    7.8960020
:EIG00131:       7.9618673    7.9928989    8.0120102    8.1627874    8.1920036
:EIG00136:       8.2427400    8.2482398    8.3737247    8.3864469    8.4281726
:EIG00141:       8.4333402    8.4962489    8.5230881
       ********************************************************

:KPT   :      NUMBER OF K-POINTS:   288
   0.0   0.0 angle (M,z), angle (M,x) deg
 
        SPIN-ORBIT EIGENVALUES:
     K=   0.06250   0.00000   0.06250            1
      MATRIX SIZE=  286   WEIGHT= 4.00
     EIGENVALUES ARE:
          -1.6070159   -1.6070159   -1.5442981   -1.5442981   -0.4464700
          -0.4464700   -0.2778594   -0.2778593   -0.2018089   -0.2018089
          -0.0613308   -0.0613307   -0.0572193   -0.0572193   -0.0344103
          -0.0344103    0.8778039    0.8778039    0.9103017    0.9103018
           1.0211590    1.0211590    1.0269021    1.0269021    1.0288935
           1.0288935    1.0371246    1.0371246    1.0501642    1.0501642
           1.0671410    1.0671410    1.0777363    1.0777363    1.0872423
           1.0872423    1.0961975    1.0961975    1.0983102    1.0983102

           1.1061908    1.1061908    1.1089076    1.1089076    1.1116383
           1.1116383    1.1304293    1.1304293    1.1487993    1.1487993
           1.1761226    1.1761226    1.2688652    1.2688652    1.2809895
           1.2809895    1.3521788    1.3521788    1.3908069    1.3908069
           1.4300507    1.4300507    1.6064346    1.6064346    1.6122276
           1.6122276    1.6951901    1.6951901    1.9954577    1.9954577
           2.0437850    2.0437850    2.0794618    2.0794618    2.2647982
           2.2647982    2.3162509    2.3162509    2.4088237    2.4088237

           2.5952984    2.5952984    2.6612728    2.6612728    2.8070747
           2.8070747    2.8457233    2.8457233    2.9980444    2.9980444
           3.0128475    3.0128475    3.0176051    3.0176051    3.1867770
           3.1867770    3.2000611    3.2000611    3.3394360    3.3394360
           3.4244568    3.4244568    3.5353664    3.5353664    3.5619072
           3.5619072    3.7110932    3.7110932    3.7395649    3.7395649
           3.7872129    3.7872129    3.8493265    3.8493265    4.0298368
           4.0298368    4.0367213    4.0367213    4.1279323    4.1279323

           4.1906453    4.1906453    4.2861815    4.2861815    4.3368261
           4.3368261    4.3761243    4.3761243    4.4485960    4.4485960

       ********************************************************
:GAP (global)   :    0.0    Ry =     0.0   eV (metal)
:GAP (this spin):    0.0    Ry =     0.0   eV (metal)
         Bandranges (emin - emax) and occupancy:
:BAN00020:  20    0.879812    1.004204  1.00000000
:BAN00021:  21    0.914752    1.042722  1.00000000
:BAN00022:  22    0.914752    1.042722  1.00000000
:BAN00023:  23    0.979767    1.048525  0.98891989
:BAN00024:  24    0.979767    1.048525  0.98891988
:BAN00025:  25    1.001147    1.064219  0.66144471
:BAN00026:  26    1.001147    1.064219  0.66144466
:BAN00027:  27    1.027452    1.069996  0.34748598
:BAN00028:  28    1.027452    1.069996  0.34748585
:BAN00029:  29    1.043839    1.073368  0.00214951
:BAN00030:  30    1.043839    1.073368  0.00214951
:BAN00031:  31    1.051852    1.082437  0.00000000
:BAN00032:  32    1.051852    1.082437  0.00000000
:BAN00033:  33    1.070303    1.091412  0.00000000
:BAN00034:  34    1.070303    1.091412  0.00000000
:BAN00035:  35    1.074107    1.098259  0.00000000
        Energy to separate low and high energystates:    0.78270


:NOE  : NUMBER OF ELECTRONS          =   26.000

:FER  : F E R M I - ENERGY(TETRAH.M.)=   1.0450201654
:GMA  : POTENTIAL AND CHARGE CUT-OFF  12.00 Ry**.5

:POS001: ATOM   -1 X,Y,Z = 0.00000 0.89750 0.25000  MULT= 2  ZZ= 59.000  Pr1       

       LMMAX 16
       LM=   0 0  1 0  2 0  2 2  3 0  3 2  4 0  4 2  4 4  5 0  5 2  5 4  6 0  6 2  6 4  6 6

:CHA001: TOTAL VALENCE CHARGE INSIDE SPHERE   1 =   9.7655    (RMT=  2.3000 )
:PCS001: PARTIAL CHARGES SPHERE =  1 S,P,D,F,PX,PY,PZ,D-Z2,D-X2Y2,D-XY,D-XZ,D-YZ 
:QTL001: 1.9352 4.9689 0.7958 2.0634 1.6556 1.6514 1.6619 0.1547 0.1413 0.1640 0.1641 0.1718
        Q-s-low E-s-low   Q-p-low E-p-low   Q-d-low E-d-low   Q-f-low E-f-low
:EPL001:  1.8689 -1.5395    4.8867 -0.2371    0.0158 -0.2564    0.0049 -0.2676
        Q-s-hi  E-s-hi    Q-p-hi  E-p-hi    Q-d-hi  E-d-hi    Q-f-hi  E-f-hi 
:EPH001:  0.0663  0.9583    0.0822  0.9800    0.7800  0.9599    2.0585  1.0146

                      VXX         VYY         VZZ       UP TO R
:VZZ001:             1.12676     7.95305    -9.07981       2.300

:CHA  : TOTAL VALENCE CHARGE INSIDE UNIT CELL =      26.000000

:SUM  : SUM OF EIGENVALUES =           0.781828549


        1.ATOM      Pr1                  14 CORE STATES
       CORE-FORCE in mRy/a.u. = |F|      Fx             Fy             Fz
:FCO001:   1.ATOM   1641.693745401875      0.000000000000      0.000000000000   1641.693745401875

:1S 001: 1S               -3066.542431901 Ry
:2S 001: 2S                -492.295899576 Ry
:2PP001: 2P*               -465.394399042 Ry
:2P 001: 2P                -429.997120833 Ry
:3S 001: 3S                -105.394147915 Ry
:3PP001: 3P*                -93.931673913 Ry
:3P 001: 3P                 -86.924004201 Ry
:3DD001: 3D*                -66.849917059 Ry
:3D 001: 3D                 -65.338464764 Ry
:4S 001: 4S                 -20.061378116 Ry
:4PP001: 4P*                -15.767162596 Ry
:4P 001: 4P                 -14.238348909 Ry
:4DD001: 4D*                 -7.168521027 Ry
:4D 001: 4D                  -6.898630584 Ry
:CINT001 Core Integral Atom   1   45.998497

       DENSITY AT NUCLEUS
        JATOM        VALENCE       SEMI-CORE          CORE           TOTAL
:RTO001:   1      645.134242        0.000000   656826.349664   657471.483907
     
       CHARGES OF NEW CHARGE DENSITY
:NTO   : INTERSTITIAL CHARGE =     6.469084
:NPC   : PW Pseudocharge     =    17.474176
:NTO001: CHARGE SPHERE  1    =    55.763954

:NEC01: NUCLEAR AND ELECTRONIC CHARGE    118.00000   117.99699
     
       CHARGES OF OLD CHARGE DENSITY
:OTO   : INTERSTITIAL CHARGE =     6.503360
:OPC   : PW Pseudocharge     =    17.502632
:OTO001: CHARGE SPHERE  1    =    55.748320

:NEC02: NUCLEAR AND ELECTRONIC CHARGE    118.00000   118.00000
     
       CONVERGENCE TEST
:DTO001: DIFFERENCE IN SPHERE  1 =  0.0382317

:DIS  :  CHARGE DISTANCE       ( 0.0382317 for atom    1 spin 1)      0.0382317
 PW Mixed is          332
 
******************************************************
* MULTISECANT MIXING VER9 RELEASE 10.4.0              *
* Slow Mode, cautious                                *
* Fixed density scale                                *
* Regularization       1.000E-04                     *
* Step Trust Radius    0.75000                       *
* Trust Upper Limit    2.000E+00                     *
* Max Number of Memory Steps   12                    *
******************************************************
 
:PWTMP   2.0579E+02  1.9467E+02  3.0772E+02
:PLANE:  PW TOTAL      5.9371 DISTAN   8.65E-03  1.46E-01 %
:CHARG:  CLM/ATOM   1381.9513 DISTAN   5.61E-02  4.06E-03 %
 
Step History
        DMIX         DMIXT        Red     Pred      Trust     Lambda    MagRel    MagAbs     Beta
  1   3.5000E-02   3.5000E-02 -1.00E+00  1.00E+00 -1.00E+01  1.00E+00  3.50E-02  3.50E-02  1.00E+00
  2   2.5000E-02   2.5000E-02 -1.00E+00  1.00E+00 -1.00E+01  1.00E+00  2.50E-02  1.82E-03  1.00E+00
:JACOBIANS    3.413E-02   4.939E-02
  
:NORMS:  1/Froebius, Min, Max, Used   0.6323E-01  0.6323E-01  0.1666E+00  0.6323E-01
:INFO :  Number of Memory Steps    1 Skipping    0
:PREDicted Charge, CTotal, PW Trust    2.237E-03   4.474E-03   3.269E-02
:PREDicted DMix, Beta, BLim   1.0000E-02  4.1784E+00  5.4212E-01

Eigenvalues, unscaled except for SY+YY
   #     SY Real        SY Imag          SS             YY         SY+YY Real      SY+YY Imag
   1   1.666238E-01   0.000000E+00   6.322608E-02   1.000000E+00   1.166624E+00   0.000000E+00
 
:BLIM :  VZERO Control Off
:TRUST:  Step 5.42E-01  Charge 7.50E-02 (e) CTO  2.50E-01 (e) PW  3.50E-01 (e)
:DIRM :  MEMORY  1/12 SCALE   1.000 RED  0.78 PRED  1.00 NEXT  0.34 
:TRAVE:  Charge 1.65E-03 (e) CTO  3.29E-03 (e) PW  2.44E-02 (e)
:DIRP :  |MSR1|= 1.195E-02 |PRATT|= 8.655E-03 ANGLE=  56.5 DEGREES
:DIRQ :  |MSR1|= 5.823E-03 |PRATT|= 5.609E-02 ANGLE=   0.7 DEGREES
:DIRT :  |MSR1|= 1.330E-02 |PRATT|= 5.676E-02 ANGLE=  59.4 DEGREES
:MIX  :   MSR1   REGULARIZATION:  1.00E-04 GREED: 0.02000  Newton 1.00  0.2343                
     
       CHARGES OF MIXED CHARGE DENSITY
:CTO   : INTERSTITIAL CHARGE =     6.500066
:CPC   : PW Pseudocharge     =    17.467342
:CTO001: CHARGE SPHERE  1    =    55.749967

:NEC03: NUCLEAR AND ELECTRONIC CHARGE    118.00000   118.00000

PW CHANGE     H    K    L      Current       Change    Residue
:PTO001:      0    0    0  7.78860520E-02 -1.254E-04 -1.677E-04
:PTO003:      0    2    0  1.82618133E-02 -3.552E-05  1.563E-05
:PTO004:     -1    1    0  8.61434032E-02 -1.870E-04 -2.826E-05
:PTO005:      0    2   -1 -9.84642689E-02  2.145E-04 -1.697E-06
:PTO006:      0    0   -2 -5.10678498E-02  1.108E-04 -5.595E-06
:PTO007:     -1    1   -1 -1.02425638E-01  2.337E-04  3.647E-05
:PTO008:      0    2   -2 -1.43762019E-02  3.517E-05  8.081E-06
:PTO009:     -1    1   -2 -7.21188114E-02  1.623E-04 -3.872E-06
:PTO011:     -1    3    0 -1.07937665E-02  2.245E-05  1.052E-05
:PTO012:     -1    3   -1 -4.41825816E-02  7.893E-05 -2.678E-05
:PTO013:      0    4    0 -7.49671039E-03  1.115E-05 -4.340E-06
:PTO014:      0    2   -3  1.74455152E-02 -2.532E-05  3.712E-06

:ENE  : ********** TOTAL ENERGY IN Ry =       -36944.35679420

       TOTAL FORCE IN mRy/a.u. = |F|     Fx             Fy             Fz     with/without FOR in case.in2
:FOR001:   1.ATOM          1.658          0.000          0.000          1.658 partial forces
       TOTAL FORCE WITH RESPECT TO GLOBAL CARTESIAN COORDINATES:
:FCA001:   1.ATOM                         0.000          1.658          0.000 partial forces
       TOTAL FORCE WITH RESPECT TO THE GLOBAL COORDINATE SYSTEM:
:FGL001:   1.ATOM                 0.000000000     1.657616467     0.000000000 partial forces
 Flat Integration
 New Mode for Coulomb Integral
 Consistent 3/8+Simpson combinations
 Extension of core to zero
 LDM version in phi
 Fifth-order quadrature in outwin


            ---------
:ITE018: 18. ITERATION
            ---------

:NATO :    1 INDEPENDENT AND    2 TOTAL ATOMS IN UNITCELL
       SUBSTANCE: aU                                                          

       LATTICE                      = CXY 
:POT  : POTENTIAL OPTION EX_LDA EC_LDA VX_LDA VC_LDA
:LAT  : LATTICE CONSTANTS=  5.57334 11.30972  9.76391    1.571    1.571    1.571
:VOL  : UNIT CELL VOLUME =     307.72401
       MODE OF CALCULATION IS       = RELA
       NON-SPINPOLARIZED CALCULATION
:IFFT  : FFT-parameters:   48   90   80 Factor: 2.00


   CONVERGENCE PARAMETER FOR PSEUDOCHARGE: NCON=  9
   MAXIMAL VALUE OF RMT(JATOM)*ABSK(NKK) : RK  =27.58719


:VKCOUL :  VK-COUL convergence: 0.207E-06
       ATOMNUMBER=  1 Pr1        VCOUL-ZERO =  0.52284E+00
:EFG001:                        EFG         =    -9.41358   *10**21  V / m**2
                               V20  TOT/SRF=    -8.15240    -0.06137
                               V22  TOT/SRF=    -3.56938    -0.01104
                               V22M TOT/SRF=     0.00000     0.00000
                               V21  TOT/SRF=     0.00000     0.00000
                               V21M TOT/SRF=     0.00000     0.00000

              1.13741    0.00000    0.00000        1.13741    0.00000    0.00000
              0.00000    8.27617    0.00000        0.00000    8.27617    0.00000
              0.00000    0.00000   -9.41358        0.00000    0.00000   -9.41358

         MAIN DIRECTIONS OF THE EFG   1.0000  0.0000  0.0000
                                      0.0000  1.0000  0.0000
                                      0.0000  0.0000  1.0000
:ANG001:  ANGLE WITH OLD X-AXIS =         0.0

:ETA001:                         ASYMM. ETA =     0.75835


     HELLMANN-FEYNMAN-FORCE IN mRy/a.u. = |F|  Fx       Fy             Fz
:FHF001:   1.ATOM   1637.872060551182      0.000000000000      0.000000000000  -1637.872060551182

:FIT001: LUSE= 13 SIGMA OF V-XC FIT FOR ATOM  1  0.6705263E-04
:FIT001: LUSE= 13 SIGMA OF V-XC FIT FOR ATOM  1  0.6705263E-04
:DEN  : DENSITY INTEGRAL  =        -14199.67914779   (Ry)
       ELS_POTENTIAL_AT Z=0 and Z=0.5:   0.95535   0.95535
       ELS_POTENTIAL_AT Y=0 and Y=0.5:   0.00980   0.00980
:VZERO:v0,v0c,v0x   0.24556   0.95535  -0.70979 v5,v5c,v5x   0.24556   0.95535  -0.70979
:VZERY:v0,v0c,v0x  -0.92102   0.00980  -0.93083 v5,v5c,v5x  -0.92102   0.00980  -0.93083
:VZERX:v0,v0c,v0x  -1.26816  -0.39482  -0.87334 v5,v5c,v5x  -1.26816  -0.39482  -0.87334
:LMAX-WF:   10   Non-Spherical LMAX:   4

          ATOMIC SPHERE DEPENDENT PARAMETERS FOR ATOM  Pr1       
:e__0001: OVERALL ENERGY PARAMETER IS    0.8452
          OVERALL BASIS SET ON ATOM IS LAPW
:E0_0001: E( 0)=    0.8452
             APW+lo
:E0_0001: E( 0)=   -1.5820   E(BOTTOM)=   -2.220   E(TOP)=   -0.944  4  5   228
             LOCAL ORBITAL
:E1_0001: E( 1)=    1.2452
             APW+lo
:E1_0001: E( 1)=   -0.1129   E(BOTTOM)=   -1.074   E(TOP)=    0.849  3  4   234
             LOCAL ORBITAL
:E3_0001: E( 3)=    1.0593   E(BOTTOM)=    0.853   E(TOP)=    1.266  0  1   118
             APW+lo
:E2_0001: E( 2)=    0.8452   E(BOTTOM)=    0.662   E(TOP)= -200.000  2 -1   120
             APW+lo

       K=   0.06250   0.00000   0.06250            1
:RKM  : MATRIX SIZE   303LOs:  40  RKM= 8.48  WEIGHT= 4.00  PGR:    
       EIGENVALUES ARE:
:EIG00001:      -1.6065053   -1.5437071   -0.4068524   -0.1904400   -0.1401091
:EIG00006:      -0.1207187   -0.0998257   -0.0990140    0.8771457    0.9098923
:EIG00011:       1.0242960    1.0306857    1.0324508    1.0403241    1.0544511
:EIG00016:       1.0767233    1.0850214    1.0870667    1.0928718    1.0969373
:EIG00021:       1.1075715    1.1076327    1.1087862    1.1296542    1.1483401
:EIG00026:       1.1762986    1.2748148    1.2748940    1.3514608    1.3907397
:EIG00031:       1.4294591    1.6062640    1.6117798    1.6949457    1.9947443
:EIG00036:       2.0434224    2.0790691    2.2646415    2.3159478    2.4089992
:EIG00041:       2.5946821    2.6613266    2.8068941    2.8456102    2.9976055
:EIG00046:       3.0130871    3.0167236    3.1923849    3.1933805    3.3385929
 
:EIG00051:       3.4243849    3.5382413    3.5597112    3.7109849    3.7397950
:EIG00056:       3.7860104    3.8508512    4.0297147    4.0340582    4.1275568
:EIG00061:       4.1886222    4.2859382    4.3360418    4.3710659    4.4480810
:EIG00066:       4.5730952    4.5824428    4.6480157    4.7269133    4.7408211
:EIG00071:       4.8326513    4.8722011    4.9199910    5.0182730    5.0264116
:EIG00076:       5.0427948    5.1013466    5.1109036    5.1345543    5.2263263
:EIG00081:       5.2336454    5.2653878    5.3343830    5.3478598    5.3693537
:EIG00086:       5.4702616    5.5658972    5.6356481    5.6755876    5.7032754
:EIG00091:       5.7576789    5.7992030    5.8429724    5.8659178    5.8743157
:EIG00096:       5.9583581    6.0055579    6.0057766    6.0797445    6.1429722
 
:EIG00101:       6.1791050    6.3040686    6.3677307    6.4112751    6.4217945
:EIG00106:       6.5415859    6.5559271    6.5821052    6.6672042    6.8033562
:EIG00111:       6.8830874    6.9221890    7.0007286    7.0324773    7.1236240
:EIG00116:       7.2345068    7.2370921    7.3474653    7.3608131    7.4117229
:EIG00121:       7.4884333    7.5173558    7.5793747    7.6335765    7.7015421
:EIG00126:       7.7250999    7.8020813    7.8591926    7.8763064    7.8952977
:EIG00131:       7.9611745    7.9921425    8.0113002    8.1620140    8.1912670
:EIG00136:       8.2420413    8.2475954    8.3728909    8.3858370    8.4273804
:EIG00141:       8.4327078    8.4954954    8.5223559
       ********************************************************

:KPT   :      NUMBER OF K-POINTS:   288
   0.0   0.0 angle (M,z), angle (M,x) deg
 
        SPIN-ORBIT EIGENVALUES:
     K=   0.06250   0.00000   0.06250            1
      MATRIX SIZE=  286   WEIGHT= 4.00
     EIGENVALUES ARE:
          -1.6065068   -1.6065068   -1.5437084   -1.5437084   -0.4463686
          -0.4463686   -0.2774723   -0.2774722   -0.2015932   -0.2015932
          -0.0610269   -0.0610269   -0.0569079   -0.0569078   -0.0341098
          -0.0341098    0.8772559    0.8772559    0.9097968    0.9097968
           1.0223436    1.0223436    1.0283468    1.0283468    1.0303830
           1.0303830    1.0385526    1.0385526    1.0515923    1.0515923
           1.0689820    1.0689820    1.0794105    1.0794105    1.0890260
           1.0890260    1.0979963    1.0979963    1.1000468    1.1000468

           1.1078361    1.1078361    1.1103943    1.1103943    1.1134439
           1.1134439    1.1323695    1.1323695    1.1498995    1.1498995
           1.1766359    1.1766359    1.2688195    1.2688195    1.2808635
           1.2808635    1.3519800    1.3519800    1.3906330    1.3906330
           1.4298873    1.4298873    1.6063313    1.6063313    1.6119969
           1.6119969    1.6951307    1.6951307    1.9951666    1.9951666
           2.0434853    2.0434853    2.0790680    2.0790680    2.2645571
           2.2645571    2.3157646    2.3157646    2.4084106    2.4084106

           2.5949050    2.5949050    2.6608386    2.6608386    2.8065984
           2.8065984    2.8453400    2.8453400    2.9975762    2.9975762
           3.0122661    3.0122661    3.0171544    3.0171545    3.1862490
           3.1862490    3.1995294    3.1995294    3.3388274    3.3388274
           3.4239693    3.4239693    3.5349029    3.5349029    3.5615389
           3.5615389    3.7107741    3.7107741    3.7390446    3.7390446
           3.7868172    3.7868172    3.8488795    3.8488795    4.0296520
           4.0296520    4.0362959    4.0362959    4.1273595    4.1273595

           4.1901543    4.1901543    4.2855802    4.2855802    4.3361722
           4.3361722    4.3758079    4.3758079    4.4482336    4.4482336

       ********************************************************
:GAP (global)   :    0.0    Ry =     0.0   eV (metal)
:GAP (this spin):    0.0    Ry =     0.0   eV (metal)
         Bandranges (emin - emax) and occupancy:
:BAN00020:  20    0.879273    1.004787  1.00000000
:BAN00021:  21    0.914297    1.044027  1.00000000
:BAN00022:  22    0.914297    1.044027  1.00000000
:BAN00023:  23    0.979955    1.049958  0.98909772
:BAN00024:  24    0.979955    1.049958  0.98909771
:BAN00025:  25    1.001612    1.066033  0.66283652
:BAN00026:  26    1.001612    1.066033  0.66283645
:BAN00027:  27    1.028629    1.071718  0.34585062
:BAN00028:  28    1.028629    1.071718  0.34585053
:BAN00029:  29    1.045159    1.075265  0.00221522
:BAN00030:  30    1.045159    1.075265  0.00221522
:BAN00031:  31    1.053369    1.084071  0.00000000
:BAN00032:  32    1.053369    1.084071  0.00000000
:BAN00033:  33    1.071971    1.093140  0.00000000
:BAN00034:  34    1.071971    1.093140  0.00000000
:BAN00035:  35    1.075854    1.100004  0.00000000
        Energy to separate low and high energystates:    0.78210


:NOE  : NUMBER OF ELECTRONS          =   26.000

:FER  : F E R M I - ENERGY(TETRAH.M.)=   1.0465018694
:GMA  : POTENTIAL AND CHARGE CUT-OFF  12.00 Ry**.5

:POS001: ATOM   -1 X,Y,Z = 0.00000 0.89750 0.25000  MULT= 2  ZZ= 59.000  Pr1       

       LMMAX 16
       LM=   0 0  1 0  2 0  2 2  3 0  3 2  4 0  4 2  4 4  5 0  5 2  5 4  6 0  6 2  6 4  6 6

:CHA001: TOTAL VALENCE CHARGE INSIDE SPHERE   1 =   9.7488    (RMT=  2.3000 )
:PCS001: PARTIAL CHARGES SPHERE =  1 S,P,D,F,PX,PY,PZ,D-Z2,D-X2Y2,D-XY,D-XZ,D-YZ 
:QTL001: 1.9357 4.9691 0.8030 2.0389 1.6556 1.6514 1.6621 0.1562 0.1429 0.1651 0.1656 0.1732
        Q-s-low E-s-low   Q-p-low E-p-low   Q-d-low E-d-low   Q-f-low E-f-low
:EPL001:  1.8688 -1.5389    4.8855 -0.2369    0.0159 -0.2562    0.0050 -0.2674
        Q-s-hi  E-s-hi    Q-p-hi  E-p-hi    Q-d-hi  E-d-hi    Q-f-hi  E-f-hi 
:EPH001:  0.0669  0.9585    0.0836  0.9806    0.7871  0.9604    2.0339  1.0157

                      VXX         VYY         VZZ       UP TO R
:VZZ001:             1.18425     8.10289    -9.28713       2.300

:CHA  : TOTAL VALENCE CHARGE INSIDE UNIT CELL =      26.000000

:SUM  : SUM OF EIGENVALUES =           0.790946199


        1.ATOM      Pr1                  14 CORE STATES
       CORE-FORCE in mRy/a.u. = |F|      Fx             Fy             Fz
:FCO001:   1.ATOM   1639.730206244541      0.000000000000      0.000000000000   1639.730206244541

:1S 001: 1S               -3066.538071432 Ry
:2S 001: 2S                -492.291511260 Ry
:2PP001: 2P*               -465.390016657 Ry
:2P 001: 2P                -429.992736356 Ry
:3S 001: 3S                -105.389851077 Ry
:3PP001: 3P*                -93.927367202 Ry
:3P 001: 3P                 -86.919717206 Ry
:3DD001: 3D*                -66.845595474 Ry
:3D 001: 3D                 -65.334147860 Ry
:4S 001: 4S                 -20.058179224 Ry
:4PP001: 4P*                -15.764033520 Ry
:4P 001: 4P                 -14.235327707 Ry
:4DD001: 4D*                 -7.165690589 Ry
:4D 001: 4D                  -6.895836908 Ry
:CINT001 Core Integral Atom   1   45.998495

       DENSITY AT NUCLEUS
        JATOM        VALENCE       SEMI-CORE          CORE           TOTAL
:RTO001:   1      645.207128        0.000000   656826.126326   657471.333454
     
       CHARGES OF NEW CHARGE DENSITY
:NTO   : INTERSTITIAL CHARGE =     6.502427
:NPC   : PW Pseudocharge     =    17.489399
:NTO001: CHARGE SPHERE  1    =    55.747280

:NEC01: NUCLEAR AND ELECTRONIC CHARGE    118.00000   117.99699
     
       CHARGES OF OLD CHARGE DENSITY
:OTO   : INTERSTITIAL CHARGE =     6.500066
:OPC   : PW Pseudocharge     =    17.467342
:OTO001: CHARGE SPHERE  1    =    55.749967

:NEC02: NUCLEAR AND ELECTRONIC CHARGE    118.00000   118.00000
     
       CONVERGENCE TEST
:DTO001: DIFFERENCE IN SPHERE  1 =  0.0058264

:DIS  :  CHARGE DISTANCE       ( 0.0058264 for atom    1 spin 1)      0.0058264
 PW Mixed is          332
 
******************************************************
* MULTISECANT MIXING VER9 RELEASE 10.4.0              *
* Slow Mode, cautious                                *
* Fixed density scale                                *
* Regularization       1.000E-04                     *
* Step Trust Radius    0.75000                       *
* Trust Upper Limit    2.000E+00                     *
* Max Number of Memory Steps   12                    *
******************************************************
 
:PWTMP   2.0579E+02  1.9467E+02  3.0772E+02
:PLANE:  PW TOTAL      5.9257 DISTAN   1.12E-02  1.90E-01 %
:CHARG:  CLM/ATOM   1381.9515 DISTAN   1.48E-02  1.07E-03 %
 
Step History
        DMIX         DMIXT        Red     Pred      Trust     Lambda    MagRel    MagAbs     Beta
  1   3.5000E-02   3.5000E-02 -1.00E+00  1.00E+00 -1.00E+01  1.00E+00  3.50E-02  3.50E-02  1.00E+00
  2   2.5000E-02   2.5000E-02  7.79E-01  1.00E+00 -1.00E+01  1.00E+00  2.50E-02  1.82E-03  1.00E+00
  3   2.0000E-02   2.0000E-02 -1.00E+00  3.36E-01  5.42E-01  1.00E+00  2.34E-01  1.33E-02  1.00E+00
:JACOBIANS    5.020E-02   7.490E-02
  
:NORMS:  1/Froebius, Min, Max, Used   0.2489E+00  0.2489E+00  0.4928E+00  0.2493E+00
:INFO :  Number of Memory Steps    2 Skipping    0
:INFO :  SLambda=    0.0588567917  Max    0.0588567917
:PREDicted Charge, CTotal, PW Trust    1.653E-03   3.306E-03   2.446E-02
:PREDicted DMix, Beta, BLim   8.4247E-03  1.0110E+00  3.9650E-01

Eigenvalues, unscaled except for SY+YY
   #     SY Real        SY Imag          SS             YY         SY+YY Real      SY+YY Imag
   1   3.318309E-01   0.000000E+00   1.238721E-01   1.999996E+00   2.019527E+00   0.000000E+00
   2   1.848147E-06   0.000000E+00   1.260598E-06   3.787224E-06   3.896702E-06   0.000000E+00
 
:INFO :  Singular value  2.020E+00 Weight  1.000E+00 Projection  1.359E-06
:INFO :  Singular value  3.897E-06 Weight  3.795E-04 Projection -2.848E-03
:RANK :  ACTIVE   1.00/2  =  50.02 % ; YY RANK   1.00/2  =  50.02 %
 
:BLIM :  VZERO Control Off
:TRUST:  Step 6.78E-01  Charge 7.50E-02 (e) CTO  2.50E-01 (e) PW  3.50E-01 (e)
:DIRM :  MEMORY  2/12 SCALE   1.000 RED  0.33 PRED  0.34 NEXT  1.00 
:TRAVE:  Charge 8.46E-04 (e) CTO  1.69E-03 (e) PW  1.24E-02 (e)
:DIRP :  |MSR1|= 1.902E-04 |PRATT|= 1.123E-02 ANGLE=   0.0 DEGREES
:DIRQ :  |MSR1|= 2.504E-04 |PRATT|= 1.483E-02 ANGLE=   0.0 DEGREES
:DIRT :  |MSR1|= 3.145E-04 |PRATT|= 1.860E-02 ANGLE=   0.1 DEGREES
:MIX  :   MSD1   REGULARIZATION:  2.00E-04 GREED: 0.01671  Newton 1.00  0.0169                
     
       CHARGES OF MIXED CHARGE DENSITY
:CTO   : INTERSTITIAL CHARGE =     6.500157
:CPC   : PW Pseudocharge     =    17.467853
:CTO001: CHARGE SPHERE  1    =    55.749922

:NEC03: NUCLEAR AND ELECTRONIC CHARGE    118.00000   118.00000

PW CHANGE     H    K    L      Current       Change    Residue
:PTO001:      0    0    0  7.78880082E-02  1.956E-06  1.155E-04
:PTO003:      0    2    0  1.82623445E-02  5.311E-07  3.135E-05
:PTO004:     -1    1    0  8.61461008E-02  2.698E-06  1.592E-04
:PTO005:      0    2   -1 -9.84678199E-02 -3.551E-06 -2.096E-04
:PTO006:      0    0   -2 -5.10697315E-02 -1.882E-06 -1.111E-04
:PTO007:     -1    1   -1 -1.02428965E-01 -3.327E-06 -1.963E-04
:PTO008:      0    2   -2 -1.43767014E-02 -4.996E-07 -2.948E-05
:PTO009:     -1    1   -2 -7.21214689E-02 -2.657E-06 -1.569E-04
:PTO011:     -1    3    0 -1.07941224E-02 -3.558E-07 -2.101E-05
:PTO012:     -1    3   -1 -4.41843094E-02 -1.728E-06 -1.021E-04
:PTO013:      0    4    0 -7.49697591E-03 -2.655E-07 -1.569E-05
:PTO014:      0    2   -3  1.74461312E-02  6.161E-07  3.640E-05

:ENE  : ********** TOTAL ENERGY IN Ry =       -36944.35667895

       TOTAL FORCE IN mRy/a.u. = |F|     Fx             Fy             Fz     with/without FOR in case.in2
:FOR001:   1.ATOM          1.858          0.000          0.000          1.858 partial forces
       TOTAL FORCE WITH RESPECT TO GLOBAL CARTESIAN COORDINATES:
:FCA001:   1.ATOM                         0.000          1.858          0.000 partial forces
       TOTAL FORCE WITH RESPECT TO THE GLOBAL COORDINATE SYSTEM:
:FGL001:   1.ATOM                 0.000000000     1.858145693     0.000000000 partial forces
 Flat Integration
 New Mode for Coulomb Integral
 Consistent 3/8+Simpson combinations
 Extension of core to zero
 LDM version in phi
 Fifth-order quadrature in outwin


            ---------
:ITE019: 19. ITERATION
            ---------

:NATO :    1 INDEPENDENT AND    2 TOTAL ATOMS IN UNITCELL
       SUBSTANCE: aU                                                          

       LATTICE                      = CXY 
:POT  : POTENTIAL OPTION EX_LDA EC_LDA VX_LDA VC_LDA
:LAT  : LATTICE CONSTANTS=  5.57334 11.30972  9.76391    1.571    1.571    1.571
:VOL  : UNIT CELL VOLUME =     307.72401
       MODE OF CALCULATION IS       = RELA
       NON-SPINPOLARIZED CALCULATION
:IFFT  : FFT-parameters:   48   90   80 Factor: 2.00


   CONVERGENCE PARAMETER FOR PSEUDOCHARGE: NCON=  9
   MAXIMAL VALUE OF RMT(JATOM)*ABSK(NKK) : RK  =27.58719


:VKCOUL :  VK-COUL convergence: 0.207E-06
       ATOMNUMBER=  1 Pr1        VCOUL-ZERO =  0.52285E+00
:EFG001:                        EFG         =    -9.41275   *10**21  V / m**2
                               V20  TOT/SRF=    -8.15168    -0.06137
                               V22  TOT/SRF=    -3.56755    -0.01103
                               V22M TOT/SRF=     0.00000     0.00000
                               V21  TOT/SRF=     0.00000     0.00000
                               V21M TOT/SRF=     0.00000     0.00000

              1.13882    0.00000    0.00000        1.13882    0.00000    0.00000
              0.00000    8.27393    0.00000        0.00000    8.27393    0.00000
              0.00000    0.00000   -9.41275        0.00000    0.00000   -9.41275

         MAIN DIRECTIONS OF THE EFG   1.0000  0.0000  0.0000
                                      0.0000  1.0000  0.0000
                                      0.0000  0.0000  1.0000
:ANG001:  ANGLE WITH OLD X-AXIS =         0.0

:ETA001:                         ASYMM. ETA =     0.75803


     HELLMANN-FEYNMAN-FORCE IN mRy/a.u. = |F|  Fx       Fy             Fz
:FHF001:   1.ATOM   1637.811503725541      0.000000000000      0.000000000000  -1637.811503725541

:FIT001: LUSE= 13 SIGMA OF V-XC FIT FOR ATOM  1  0.6703581E-04
:FIT001: LUSE= 13 SIGMA OF V-XC FIT FOR ATOM  1  0.6703581E-04
:DEN  : DENSITY INTEGRAL  =        -14199.68185818   (Ry)
       ELS_POTENTIAL_AT Z=0 and Z=0.5:   0.95536   0.95536
       ELS_POTENTIAL_AT Y=0 and Y=0.5:   0.00981   0.00981
:VZERO:v0,v0c,v0x   0.24557   0.95536  -0.70979 v5,v5c,v5x   0.24557   0.95536  -0.70979
:VZERY:v0,v0c,v0x  -0.92103   0.00981  -0.93083 v5,v5c,v5x  -0.92103   0.00981  -0.93083
:VZERX:v0,v0c,v0x  -1.26817  -0.39483  -0.87334 v5,v5c,v5x  -1.26817  -0.39483  -0.87334
:LMAX-WF:   10   Non-Spherical LMAX:   4

          ATOMIC SPHERE DEPENDENT PARAMETERS FOR ATOM  Pr1       
:e__0001: OVERALL ENERGY PARAMETER IS    0.8461
          OVERALL BASIS SET ON ATOM IS LAPW
:E0_0001: E( 0)=    0.8461
             APW+lo
:E0_0001: E( 0)=   -1.5820   E(BOTTOM)=   -2.220   E(TOP)=   -0.944  4  5   218
             LOCAL ORBITAL
:E1_0001: E( 1)=    1.2461
             APW+lo
:E1_0001: E( 1)=   -0.1129   E(BOTTOM)=   -1.074   E(TOP)=    0.849  3  4   228
             LOCAL ORBITAL
:E3_0001: E( 3)=    1.0593   E(BOTTOM)=    0.853   E(TOP)=    1.266  0  1   119
             APW+lo
:E2_0001: E( 2)=    0.8461   E(BOTTOM)=    0.662   E(TOP)= -200.000  2 -1   120
             APW+lo

       K=   0.06250   0.00000   0.06250            1
:RKM  : MATRIX SIZE   303LOs:  40  RKM= 8.48  WEIGHT= 4.00  PGR:    
       EIGENVALUES ARE:
:EIG00001:      -1.6064914   -1.5436928   -0.4068426   -0.1904271   -0.1400960
:EIG00006:      -0.1207028   -0.0998152   -0.0989978    0.8771606    0.9099058
:EIG00011:       1.0243177    1.0307107    1.0324691    1.0403463    1.0544696
:EIG00016:       1.0767484    1.0850457    1.0870916    1.0928960    1.0969584
:EIG00021:       1.1075970    1.1076580    1.1088101    1.1296755    1.1483615
:EIG00026:       1.1763170    1.2748277    1.2749072    1.3514757    1.3907546
:EIG00031:       1.4294726    1.6062767    1.6117930    1.6949560    1.9947618
:EIG00036:       2.0434399    2.0790839    2.2646519    2.3159634    2.4090110
:EIG00041:       2.5946944    2.6613387    2.8069051    2.8456200    2.9976135
:EIG00046:       3.0130977    3.0167256    3.1923928    3.1933874    3.3386028
 
:EIG00051:       3.4243862    3.5382425    3.5597113    3.7109738    3.7397947
:EIG00056:       3.7860150    3.8508587    4.0296878    4.0340642    4.1275449
:EIG00061:       4.1886271    4.2859410    4.3360414    4.3710529    4.4480542
:EIG00066:       4.5730883    4.5824318    4.6480131    4.7269108    4.7408127
:EIG00071:       4.8326451    4.8722037    4.9199887    5.0182747    5.0264102
:EIG00076:       5.0427937    5.1013422    5.1109022    5.1345468    5.2263292
:EIG00081:       5.2336400    5.2653872    5.3343800    5.3478559    5.3693522
:EIG00086:       5.4702652    5.5658983    5.6356406    5.6755735    5.7032690
:EIG00091:       5.7576720    5.7992028    5.8429365    5.8659095    5.8742740
:EIG00096:       5.9583608    6.0055460    6.0057784    6.0797213    6.1429652
 
:EIG00101:       6.1790913    6.3040514    6.3677228    6.4112680    6.4217900
:EIG00106:       6.5415771    6.5559207    6.5821014    6.6671999    6.8033438
:EIG00111:       6.8830703    6.9221687    7.0007119    7.0324710    7.1235891
:EIG00116:       7.2344988    7.2370331    7.3474111    7.3607572    7.4116745
:EIG00121:       7.4884026    7.5173128    7.5793510    7.6335506    7.7015186
:EIG00126:       7.7250807    7.8020631    7.8591817    7.8762820    7.8952763
:EIG00131:       7.9611534    7.9921299    8.0112671    8.1620036    8.1912394
:EIG00136:       8.2420242    8.2475579    8.3728807    8.3857931    8.4273678
:EIG00141:       8.4326732    8.4954658    8.5223096
       ********************************************************

:KPT   :      NUMBER OF K-POINTS:   288
   0.0   0.0 angle (M,z), angle (M,x) deg
 
        SPIN-ORBIT EIGENVALUES:
     K=   0.06250   0.00000   0.06250            1
      MATRIX SIZE=  286   WEIGHT= 4.00
     EIGENVALUES ARE:
          -1.6064929   -1.6064929   -1.5436940   -1.5436940   -0.4463582
          -0.4463582   -0.2774590   -0.2774590   -0.2015802   -0.2015802
          -0.0610124   -0.0610123   -0.0568932   -0.0568931   -0.0340977
          -0.0340977    0.8772708    0.8772708    0.9098103    0.9098103
           1.0223656    1.0223656    1.0283716    1.0283716    1.0304019
           1.0304019    1.0385749    1.0385749    1.0516113    1.0516113
           1.0690068    1.0690068    1.0794339    1.0794339    1.0890505
           1.0890505    1.0980206    1.0980206    1.1000689    1.1000689

           1.1078607    1.1078607    1.1104177    1.1104177    1.1134690
           1.1134690    1.1323910    1.1323910    1.1499212    1.1499212
           1.1766544    1.1766544    1.2688325    1.2688325    1.2808766
           1.2808766    1.3519949    1.3519949    1.3906479    1.3906479
           1.4299008    1.4299008    1.6063439    1.6063439    1.6120100
           1.6120100    1.6951409    1.6951409    1.9951841    1.9951841
           2.0435028    2.0435028    2.0790828    2.0790828    2.2645675
           2.2645675    2.3157802    2.3157802    2.4084224    2.4084224

           2.5949172    2.5949172    2.6608505    2.6608505    2.8066094
           2.8066094    2.8453497    2.8453497    2.9975843    2.9975843
           3.0122763    3.0122763    3.0171568    3.0171569    3.1862565
           3.1862565    3.1995365    3.1995365    3.3388373    3.3388373
           3.4239707    3.4239707    3.5349035    3.5349035    3.5615394
           3.5615394    3.7107630    3.7107630    3.7390444    3.7390444
           3.7868219    3.7868219    3.8488866    3.8488866    4.0296278
           4.0296278    4.0362994    4.0362994    4.1273475    4.1273475

           4.1901587    4.1901587    4.2855828    4.2855828    4.3361717
           4.3361717    4.3757956    4.3757956    4.4482068    4.4482068

       ********************************************************
:GAP (global)   :    0.0    Ry =     0.0   eV (metal)
:GAP (this spin):    0.0    Ry =     0.0   eV (metal)
         Bandranges (emin - emax) and occupancy:
:BAN00020:  20    0.879287    1.004805  1.00000000
:BAN00021:  21    0.914312    1.044047  1.00000000
:BAN00022:  22    0.914312    1.044047  1.00000000
:BAN00023:  23    0.979971    1.049980  0.98909874
:BAN00024:  24    0.979971    1.049980  0.98909874
:BAN00025:  25    1.001632    1.066056  0.66285726
:BAN00026:  26    1.001632    1.066056  0.66285721
:BAN00027:  27    1.028650    1.071742  0.34582729
:BAN00028:  28    1.028650    1.071742  0.34582720
:BAN00029:  29    1.045179    1.075291  0.00221677
:BAN00030:  30    1.045179    1.075291  0.00221677
:BAN00031:  31    1.053390    1.084094  0.00000000
:BAN00032:  32    1.053390    1.084094  0.00000000
:BAN00033:  33    1.071994    1.093163  0.00000000
:BAN00034:  34    1.071994    1.093163  0.00000000
:BAN00035:  35    1.075876    1.100027  0.00000000
        Energy to separate low and high energystates:    0.78212


:NOE  : NUMBER OF ELECTRONS          =   26.000

:FER  : F E R M I - ENERGY(TETRAH.M.)=   1.0465240856
:GMA  : POTENTIAL AND CHARGE CUT-OFF  12.00 Ry**.5

:POS001: ATOM   -1 X,Y,Z = 0.00000 0.89750 0.25000  MULT= 2  ZZ= 59.000  Pr1       

       LMMAX 16
       LM=   0 0  1 0  2 0  2 2  3 0  3 2  4 0  4 2  4 4  5 0  5 2  5 4  6 0  6 2  6 4  6 6

:CHA001: TOTAL VALENCE CHARGE INSIDE SPHERE   1 =   9.7487    (RMT=  2.3000 )
:PCS001: PARTIAL CHARGES SPHERE =  1 S,P,D,F,PX,PY,PZ,D-Z2,D-X2Y2,D-XY,D-XZ,D-YZ 
:QTL001: 1.9357 4.9691 0.8030 2.0388 1.6556 1.6514 1.6621 0.1562 0.1429 0.1651 0.1656 0.1732
        Q-s-low E-s-low   Q-p-low E-p-low   Q-d-low E-d-low   Q-f-low E-f-low
:EPL001:  1.8688 -1.5389    4.8855 -0.2368    0.0159 -0.2562    0.0050 -0.2674
        Q-s-hi  E-s-hi    Q-p-hi  E-p-hi    Q-d-hi  E-d-hi    Q-f-hi  E-f-hi 
:EPH001:  0.0669  0.9585    0.0836  0.9807    0.7871  0.9604    2.0338  1.0157

                      VXX         VYY         VZZ       UP TO R
:VZZ001:             1.18081     8.10822    -9.28903       2.300

:CHA  : TOTAL VALENCE CHARGE INSIDE UNIT CELL =      26.000000

:SUM  : SUM OF EIGENVALUES =           0.791333499


        1.ATOM      Pr1                  14 CORE STATES
       CORE-FORCE in mRy/a.u. = |F|      Fx             Fy             Fz
:FCO001:   1.ATOM   1639.629946232626      0.000000000000      0.000000000000   1639.629946232626

:1S 001: 1S               -3066.538068305 Ry
:2S 001: 2S                -492.291498655 Ry
:2PP001: 2P*               -465.390006155 Ry
:2P 001: 2P                -429.992725068 Ry
:3S 001: 3S                -105.389821715 Ry
:3PP001: 3P*                -93.927338697 Ry
:3P 001: 3P                 -86.919687953 Ry
:3DD001: 3D*                -66.845568418 Ry
:3D 001: 3D                 -65.334120514 Ry
:4S 001: 4S                 -20.058146321 Ry
:4PP001: 4P*                -15.764001181 Ry
:4P 001: 4P                 -14.235295962 Ry
:4DD001: 4D*                 -7.165660379 Ry
:4D 001: 4D                  -6.895806928 Ry
:CINT001 Core Integral Atom   1   45.998495

       DENSITY AT NUCLEUS
        JATOM        VALENCE       SEMI-CORE          CORE           TOTAL
:RTO001:   1      645.207141        0.000000   656826.128572   657471.335713
     
       CHARGES OF NEW CHARGE DENSITY
:NTO   : INTERSTITIAL CHARGE =     6.502561
:NPC   : PW Pseudocharge     =    17.489484
:NTO001: CHARGE SPHERE  1    =    55.747213

:NEC01: NUCLEAR AND ELECTRONIC CHARGE    118.00000   117.99699
     
       CHARGES OF OLD CHARGE DENSITY
:OTO   : INTERSTITIAL CHARGE =     6.500157
:OPC   : PW Pseudocharge     =    17.467853
:OTO001: CHARGE SPHERE  1    =    55.749922

:NEC02: NUCLEAR AND ELECTRONIC CHARGE    118.00000   118.00000
     
       CONVERGENCE TEST
:DTO001: DIFFERENCE IN SPHERE  1 =  0.0056575

:DIS  :  CHARGE DISTANCE       ( 0.0056575 for atom    1 spin 1)      0.0056575
 PW Mixed is          332
 
******************************************************
* MULTISECANT MIXING VER9 RELEASE 10.4.0              *
* Slow Mode, cautious                                *
* Fixed density scale                                *
* Regularization       1.000E-04                     *
* Step Trust Radius    0.75000                       *
* Trust Upper Limit    2.000E+00                     *
* Max Number of Memory Steps   12                    *
******************************************************
 
:PWTMP   2.0579E+02  1.9467E+02  3.0772E+02
:PLANE:  PW TOTAL      5.9259 DISTAN   1.11E-02  1.87E-01 %
:CHARG:  CLM/ATOM   1381.9515 DISTAN   1.45E-02  1.05E-03 %
 
Step History
        DMIX         DMIXT        Red     Pred      Trust     Lambda    MagRel    MagAbs     Beta
  1   3.5000E-02   3.5000E-02 -1.00E+00  1.00E+00 -1.00E+01  1.00E+00  3.50E-02  3.50E-02  1.00E+00
  2   2.5000E-02   2.5000E-02  7.79E-01  1.00E+00 -1.00E+01  1.00E+00  2.50E-02  1.82E-03  1.00E+00
  3   2.0000E-02   2.0000E-02  3.28E-01  3.36E-01  5.42E-01  5.89E-02  2.34E-01  1.33E-02  1.00E+00
  4   1.6712E-02   1.6712E-02 -1.00E+00  1.00E+00  6.78E-01  1.00E+00  1.69E-02  3.14E-04  1.00E+00
:JACOBIANS    2.101E-01   2.960E-01
  
:NORMS:  1/Froebius, Min, Max, Used   0.4289E+00  0.3070E+00  0.7332E+00  0.4405E+00
:INFO :  Number of Memory Steps    3 Skipping    0
:INFO :  SLambda=    1.2150742495  Max    1.2150742495
:PREDicted Charge, CTotal, PW Trust    2.310E-03   4.621E-03   2.128E-02
:PREDicted DMix, Beta, BLim   7.1901E-01  2.3677E+01  8.5972E-01

Eigenvalues, unscaled except for SY+YY
   #     SY Real        SY Imag          SS             YY         SY+YY Real      SY+YY Imag
   1   2.149341E-08   0.000000E+00   4.505069E-01   2.321267E+00   2.787042E+00   0.000000E+00
   2   3.292309E-01   0.000000E+00   1.012347E-01   6.787317E-01   1.131769E-06   0.000000E+00
   3   5.383875E-01   0.000000E+00   5.955363E-10   1.088288E-06   1.267178E+00   0.000000E+00
 
:INFO :  Singular value  2.787E+00 Weight  1.000E+00 Projection -4.444E-03
:INFO :  Singular value  1.267E+00 Weight  1.000E+00 Projection -2.107E-02
:INFO :  Singular value  1.132E-06 Weight  2.377E-05 Projection  7.404E-06
:RANK :  ACTIVE   2.00/3  =  66.67 % ; YY RANK   2.00/3  =  66.67 %
 
:BLIM :  VZERO Control Off
:TRUST:  Step 7.35E-01  Charge 7.50E-02 (e) CTO  2.50E-01 (e) PW  3.50E-01 (e)
:DTRUS:  Lambda    2.784E-02 Increment    1.819E-12 Iterations    99 DMIX    3.859E-02
:INFOA:  Angle SubSpace to MSR1      0.19
:DIRM :  MEMORY  3/12 SCALE   1.000 RED  0.98 PRED  1.00 NEXT  0.40 
:INFO :  Limited by Atoms F by Step T

:TRAVE:  Charge 1.46E-03 (e) CTO  2.91E-03 (e) PW  1.57E-02 (e)
:DIRP :  |MSR1|= 9.429E-03 |PRATT|= 1.106E-02 ANGLE=   2.2 DEGREES
:DIRQ :  |MSR1|= 9.494E-03 |PRATT|= 1.447E-02 ANGLE=   4.3 DEGREES
:DIRT :  |MSR1|= 1.338E-02 |PRATT|= 1.821E-02 ANGLE=   8.2 DEGREES
:MIX  :   MSE1   REGULARIZATION:  2.32E-04 GREED: 0.04178  LMStep 0.92  0.7348 Step           
     
       CHARGES OF MIXED CHARGE DENSITY
:CTO   : INTERSTITIAL CHARGE =     6.504292
:CPC   : PW Pseudocharge     =    17.493763
:CTO001: CHARGE SPHERE  1    =    55.747854

:NEC03: NUCLEAR AND ELECTRONIC CHARGE    118.00000   118.00000

PW CHANGE     H    K    L      Current       Change    Residue
:PTO001:      0    0    0  7.79856456E-02  9.764E-05  1.142E-04
:PTO003:      0    2    0  1.82894978E-02  2.715E-05  3.100E-05
:PTO004:     -1    1    0  8.62836248E-02  1.375E-04  1.570E-04
:PTO005:      0    2   -1 -9.86428048E-02 -1.750E-04 -2.060E-04
:PTO006:      0    0   -2 -5.11618458E-02 -9.211E-05 -1.091E-04
:PTO007:     -1    1   -1 -1.02598262E-01 -1.693E-04 -1.932E-04
:PTO008:      0    2   -2 -1.44021196E-02 -2.542E-05 -2.901E-05
:PTO009:     -1    1   -2 -7.22524970E-02 -1.310E-04 -1.541E-04
:PTO011:     -1    3    0 -1.08116388E-02 -1.752E-05 -2.059E-05
:PTO012:     -1    3   -1 -4.42656212E-02 -8.131E-05 -1.004E-04
:PTO013:      0    4    0 -7.50925520E-03 -1.228E-05 -1.539E-05
:PTO014:      0    2   -3  1.74744698E-02  2.834E-05  3.570E-05

:ENE  : ********** TOTAL ENERGY IN Ry =       -36944.35668034

       TOTAL FORCE IN mRy/a.u. = |F|     Fx             Fy             Fz     with/without FOR in case.in2
:FOR001:   1.ATOM          1.818          0.000          0.000          1.818 partial forces
       TOTAL FORCE WITH RESPECT TO GLOBAL CARTESIAN COORDINATES:
:FCA001:   1.ATOM                         0.000          1.818          0.000 partial forces
       TOTAL FORCE WITH RESPECT TO THE GLOBAL COORDINATE SYSTEM:
:FGL001:   1.ATOM                 0.000000000     1.818442507     0.000000000 partial forces
 Flat Integration
 New Mode for Coulomb Integral
 Consistent 3/8+Simpson combinations
 Extension of core to zero
 LDM version in phi
 Fifth-order quadrature in outwin


            ---------
:ITE020: 20. ITERATION
            ---------

:NATO :    1 INDEPENDENT AND    2 TOTAL ATOMS IN UNITCELL
       SUBSTANCE: aU                                                          

       LATTICE                      = CXY 
:POT  : POTENTIAL OPTION EX_LDA EC_LDA VX_LDA VC_LDA
:LAT  : LATTICE CONSTANTS=  5.57334 11.30972  9.76391    1.571    1.571    1.571
:VOL  : UNIT CELL VOLUME =     307.72401
       MODE OF CALCULATION IS       = RELA
       NON-SPINPOLARIZED CALCULATION
:IFFT  : FFT-parameters:   48   90   80 Factor: 2.00


   CONVERGENCE PARAMETER FOR PSEUDOCHARGE: NCON=  9
   MAXIMAL VALUE OF RMT(JATOM)*ABSK(NKK) : RK  =27.58719


:VKCOUL :  VK-COUL convergence: 0.205E-06
       ATOMNUMBER=  1 Pr1        VCOUL-ZERO =  0.52341E+00
:EFG001:                        EFG         =    -9.38593   *10**21  V / m**2
                               V20  TOT/SRF=    -8.12845    -0.06131
                               V22  TOT/SRF=    -3.50427    -0.01049
                               V22M TOT/SRF=     0.00000     0.00000
                               V21  TOT/SRF=     0.00000     0.00000
                               V21M TOT/SRF=     0.00000     0.00000

              1.18870    0.00000    0.00000        1.18870    0.00000    0.00000
              0.00000    8.19723    0.00000        0.00000    8.19723    0.00000
              0.00000    0.00000   -9.38593        0.00000    0.00000   -9.38593

         MAIN DIRECTIONS OF THE EFG   1.0000  0.0000  0.0000
                                      0.0000  1.0000  0.0000
                                      0.0000  0.0000  1.0000
:ANG001:  ANGLE WITH OLD X-AXIS =         0.0

:ETA001:                         ASYMM. ETA =     0.74671


     HELLMANN-FEYNMAN-FORCE IN mRy/a.u. = |F|  Fx       Fy             Fz
:FHF001:   1.ATOM   1635.350247486150      0.000000000000      0.000000000000  -1635.350247486150

:FIT001: LUSE= 13 SIGMA OF V-XC FIT FOR ATOM  1  0.6641536E-04
:FIT001: LUSE= 13 SIGMA OF V-XC FIT FOR ATOM  1  0.6641536E-04
:DEN  : DENSITY INTEGRAL  =        -14199.73325618   (Ry)
       ELS_POTENTIAL_AT Z=0 and Z=0.5:   0.95612   0.95612
       ELS_POTENTIAL_AT Y=0 and Y=0.5:   0.00986   0.00986
:VZERO:v0,v0c,v0x   0.24620   0.95612  -0.70992 v5,v5c,v5x   0.24620   0.95612  -0.70992
:VZERY:v0,v0c,v0x  -0.92129   0.00986  -0.93114 v5,v5c,v5x  -0.92129   0.00986  -0.93114
:VZERX:v0,v0c,v0x  -1.26897  -0.39533  -0.87364 v5,v5c,v5x  -1.26897  -0.39533  -0.87364
:LMAX-WF:   10   Non-Spherical LMAX:   4

          ATOMIC SPHERE DEPENDENT PARAMETERS FOR ATOM  Pr1       
:e__0001: OVERALL ENERGY PARAMETER IS    0.8464
          OVERALL BASIS SET ON ATOM IS LAPW
:E0_0001: E( 0)=    0.8464
             APW+lo
:E0_0001: E( 0)=   -1.5815   E(BOTTOM)=   -2.220   E(TOP)=   -0.944  4  5   222
             LOCAL ORBITAL
:E1_0001: E( 1)=    1.2464
             APW+lo
:E1_0001: E( 1)=   -0.1125   E(BOTTOM)=   -1.074   E(TOP)=    0.849  3  4   230
             LOCAL ORBITAL
:E3_0001: E( 3)=    1.0600   E(BOTTOM)=    0.854   E(TOP)=    1.266  0  1   118
             APW+lo
:E2_0001: E( 2)=    0.8464   E(BOTTOM)=    0.663   E(TOP)= -200.000  2 -1   120
             APW+lo

       K=   0.06250   0.00000   0.06250            1
:RKM  : MATRIX SIZE   303LOs:  40  RKM= 8.48  WEIGHT= 4.00  PGR:    
       EIGENVALUES ARE:
:EIG00001:      -1.6060170   -1.5432136   -0.4064418   -0.1899459   -0.1396162
:EIG00006:      -0.1201404   -0.0994339   -0.0984281    0.8778414    0.9105243
:EIG00011:       1.0249951    1.0314724    1.0329836    1.0410086    1.0550045
:EIG00016:       1.0774597    1.0857213    1.0877880    1.0935752    1.0975299
:EIG00021:       1.1083282    1.1084001    1.1094999    1.1302303    1.1490361
:EIG00026:       1.1769601    1.2753911    1.2754328    1.3521057    1.3913849
:EIG00031:       1.4300488    1.6068349    1.6123746    1.6954354    1.9955069
:EIG00036:       2.0441904    2.0797656    2.2652386    2.3166942    2.4096385
:EIG00041:       2.5952962    2.6619874    2.8075908    2.8462346    2.9982807
:EIG00046:       3.0137575    3.0173643    3.1930311    3.1940426    3.3392939
 
:EIG00051:       3.4250279    3.5388883    3.5602431    3.7115510    3.7403933
:EIG00056:       3.7866450    3.8515071    4.0302859    4.0347367    4.1281954
:EIG00061:       4.1892534    4.2865641    4.3366213    4.3716253    4.4486850
:EIG00066:       4.5736687    4.5830320    4.6486712    4.7275371    4.7414561
:EIG00071:       4.8332878    4.8728709    4.9206072    5.0189226    5.0270789
:EIG00076:       5.0434355    5.1020001    5.1115159    5.1351943    5.2269672
:EIG00081:       5.2343034    5.2660308    5.3350269    5.3484920    5.3699928
:EIG00086:       5.4709366    5.5665042    5.6362825    5.6762580    5.7039412
:EIG00091:       5.7583025    5.7998441    5.8435880    5.8665534    5.8748768
:EIG00096:       5.9590046    6.0061745    6.0064266    6.0803408    6.1435904
 
:EIG00101:       6.1797424    6.3046525    6.3683453    6.4119187    6.4224391
:EIG00106:       6.5422307    6.5565846    6.5827622    6.6678574    6.8040084
:EIG00111:       6.8837075    6.9228251    7.0013533    7.0331088    7.1242323
:EIG00116:       7.2351654    7.2376738    7.3480187    7.3613612    7.4123181
:EIG00121:       7.4890705    7.5179650    7.5799716    7.6342057    7.7021667
:EIG00126:       7.7257263    7.8027138    7.8597918    7.8769474    7.8959318
:EIG00131:       7.9617987    7.9927356    8.0119244    8.1626594    8.1918988
:EIG00136:       8.2426795    8.2482068    8.3735894    8.3864463    8.4280352
:EIG00141:       8.4333307    8.4961070    8.5229621
       ********************************************************

:KPT   :      NUMBER OF K-POINTS:   288
   0.0   0.0 angle (M,z), angle (M,x) deg
 
        SPIN-ORBIT EIGENVALUES:
     K=   0.06250   0.00000   0.06250            1
      MATRIX SIZE=  286   WEIGHT= 4.00
     EIGENVALUES ARE:
          -1.6060185   -1.6060185   -1.5432148   -1.5432148   -0.4459437
          -0.4459437   -0.2769833   -0.2769833   -0.2010925   -0.2010924
          -0.0604855   -0.0604854   -0.0563613   -0.0563613   -0.0336583
          -0.0336583    0.8779515    0.8779515    0.9104288    0.9104289
           1.0230477    1.0230478    1.0291164    1.0291164    1.0309376
           1.0309376    1.0392369    1.0392369    1.0521531    1.0521531
           1.0697022    1.0697022    1.0801022    1.0801022    1.0897405
           1.0897405    1.0987019    1.0987019    1.1006831    1.1006831

           1.1085777    1.1085777    1.1111074    1.1111074    1.1141810
           1.1141810    1.1329551    1.1329551    1.1505987    1.1505987
           1.1772987    1.1772987    1.2693778    1.2693778    1.2814204
           1.2814204    1.3526246    1.3526246    1.3912778    1.3912778
           1.4304774    1.4304774    1.6069023    1.6069023    1.6125917
           1.6125917    1.6956206    1.6956206    1.9959291    1.9959291
           2.0442532    2.0442532    2.0797646    2.0797646    2.2651543
           2.2651543    2.3165109    2.3165109    2.4090500    2.4090500

           2.5955191    2.5955191    2.6614992    2.6614992    2.8072935
           2.8072935    2.8459657    2.8459657    2.9982514    2.9982514
           3.0129344    3.0129344    3.0177974    3.0177975    3.1869022
           3.1869022    3.2001843    3.2001843    3.3395280    3.3395280
           3.4246123    3.4246123    3.5355388    3.5355388    3.5620828
           3.5620828    3.7113403    3.7113403    3.7396442    3.7396442
           3.7874509    3.7874509    3.8495341    3.8495341    4.0302322
           4.0302322    4.0369656    4.0369656    4.1279975    4.1279975

           4.1907846    4.1907846    4.2862045    4.2862045    4.3367517
           4.3367517    4.3763705    4.3763705    4.4488373    4.4488373

       ********************************************************
:GAP (global)   :    0.0    Ry =     0.0   eV (metal)
:GAP (this spin):    0.0    Ry =     0.0   eV (metal)
         Bandranges (emin - emax) and occupancy:
:BAN00020:  20    0.879943    1.005407  1.00000000
:BAN00021:  21    0.914975    1.044663  1.00000000
:BAN00022:  22    0.914975    1.044663  1.00000000
:BAN00023:  23    0.980593    1.050635  0.98911449
:BAN00024:  24    0.980593    1.050635  0.98911449
:BAN00025:  25    1.002324    1.066679  0.66342424
:BAN00026:  26    1.002324    1.066679  0.66342419
:BAN00027:  27    1.029326    1.072433  0.34520290
:BAN00028:  28    1.029326    1.072433  0.34520278
:BAN00029:  29    1.045776    1.076004  0.00225845
:BAN00030:  30    1.045776    1.076004  0.00225845
:BAN00031:  31    1.054016    1.084762  0.00000000
:BAN00032:  32    1.054016    1.084762  0.00000000
:BAN00033:  33    1.072644    1.093840  0.00000000
:BAN00034:  34    1.072644    1.093840  0.00000000
:BAN00035:  35    1.076484    1.100655  0.00000000
        Energy to separate low and high energystates:    0.78275


:NOE  : NUMBER OF ELECTRONS          =   26.000

:FER  : F E R M I - ENERGY(TETRAH.M.)=   1.0471748171
:GMA  : POTENTIAL AND CHARGE CUT-OFF  12.00 Ry**.5

:POS001: ATOM   -1 X,Y,Z = 0.00000 0.89750 0.25000  MULT= 2  ZZ= 59.000  Pr1       

       LMMAX 16
       LM=   0 0  1 0  2 0  2 2  3 0  3 2  4 0  4 2  4 4  5 0  5 2  5 4  6 0  6 2  6 4  6 6

:CHA001: TOTAL VALENCE CHARGE INSIDE SPHERE   1 =   9.7487    (RMT=  2.3000 )
:PCS001: PARTIAL CHARGES SPHERE =  1 S,P,D,F,PX,PY,PZ,D-Z2,D-X2Y2,D-XY,D-XZ,D-YZ 
:QTL001: 1.9357 4.9692 0.8034 2.0382 1.6557 1.6514 1.6621 0.1563 0.1431 0.1651 0.1657 0.1732
        Q-s-low E-s-low   Q-p-low E-p-low   Q-d-low E-d-low   Q-f-low E-f-low
:EPL001:  1.8688 -1.5384    4.8857 -0.2364    0.0159 -0.2558    0.0050 -0.2670
        Q-s-hi  E-s-hi    Q-p-hi  E-p-hi    Q-d-hi  E-d-hi    Q-f-hi  E-f-hi 
:EPH001:  0.0669  0.9592    0.0835  0.9813    0.7875  0.9610    2.0333  1.0163

                      VXX         VYY         VZZ       UP TO R
:VZZ001:             1.05211     8.27017    -9.32228       2.300

:CHA  : TOTAL VALENCE CHARGE INSIDE UNIT CELL =      26.000000

:SUM  : SUM OF EIGENVALUES =           0.805405003


        1.ATOM      Pr1                  14 CORE STATES
       CORE-FORCE in mRy/a.u. = |F|      Fx             Fy             Fz
:FCO001:   1.ATOM   1635.662079113654      0.000000000000      0.000000000000   1635.662079113654

:1S 001: 1S               -3066.538626141 Ry
:2S 001: 2S                -492.291687598 Ry
:2PP001: 2P*               -465.390277053 Ry
:2P 001: 2P                -429.992965299 Ry
:3S 001: 3S                -105.389334430 Ry
:3PP001: 3P*                -93.926886860 Ry
:3P 001: 3P                 -86.919203424 Ry
:3DD001: 3D*                -66.845176235 Ry
:3D 001: 3D                 -65.333716118 Ry
:4S 001: 4S                 -20.057343833 Ry
:4PP001: 4P*                -15.763209953 Ry
:4P 001: 4P                 -14.234511060 Ry
:4DD001: 4D*                 -7.164906103 Ry
:4D 001: 4D                  -6.895055951 Ry
:CINT001 Core Integral Atom   1   45.998495

       DENSITY AT NUCLEUS
        JATOM        VALENCE       SEMI-CORE          CORE           TOTAL
:RTO001:   1      645.201193        0.000000   656826.252630   657471.453823
     
       CHARGES OF NEW CHARGE DENSITY
:NTO   : INTERSTITIAL CHARGE =     6.502638
:NPC   : PW Pseudocharge     =    17.490615
:NTO001: CHARGE SPHERE  1    =    55.747174

:NEC01: NUCLEAR AND ELECTRONIC CHARGE    118.00000   117.99699
     
       CHARGES OF OLD CHARGE DENSITY
:OTO   : INTERSTITIAL CHARGE =     6.504292
:OPC   : PW Pseudocharge     =    17.493763
:OTO001: CHARGE SPHERE  1    =    55.747854

:NEC02: NUCLEAR AND ELECTRONIC CHARGE    118.00000   118.00000
     
       CONVERGENCE TEST
:DTO001: DIFFERENCE IN SPHERE  1 =  0.0012904

:DIS  :  CHARGE DISTANCE       ( 0.0012904 for atom    1 spin 1)      0.0012904
 PW Mixed is          332
 
******************************************************
* MULTISECANT MIXING VER9 RELEASE 10.4.0              *
* Standard Mode with controls                        *
* Fixed density scale                                *
* Regularization       1.000E-04                     *
* Trust Upper Limit    5.000E+00                     *
* Max Number of Memory Steps    8                    *
******************************************************
 
:PWTMP   2.0579E+02  1.9467E+02  3.0772E+02
:PLANE:  PW TOTAL      5.9349 DISTAN   2.06E-03  3.48E-02 %
:CHARG:  CLM/ATOM   1381.9496 DISTAN   6.21E-03  4.50E-04 %
 
Step History
        DMIX         DMIXT        Red     Pred      Trust     Lambda    MagRel    MagAbs     Beta
  1   3.5000E-02   3.5000E-02 -1.00E+00  1.00E+00 -1.00E+01  1.00E+00  3.50E-02  3.50E-02  1.00E+00
  2   2.5000E-02   2.5000E-02  7.79E-01  1.00E+00 -1.00E+01  1.00E+00  2.50E-02  1.82E-03  1.00E+00
  3   2.0000E-02   2.0000E-02  3.28E-01  3.36E-01  5.42E-01  5.89E-02  2.34E-01  1.33E-02  1.00E+00
  4   1.6712E-02   1.6712E-02  9.79E-01  1.00E+00  6.78E-01  1.22E+00  1.69E-02  3.14E-04  1.00E+00
  5   4.1781E-02   3.8594E-02 -1.00E+00  4.04E-01  7.35E-01  1.00E+00  7.35E-01  1.34E-02  1.00E+00
:JACOBIANS    3.013E-01   4.129E-01
  
:NORMS:  1/Froebius, Min, Max, Used   0.6011E+00  0.3590E+00  0.9872E+00  0.7286E+00
:INFO :  Number of Memory Steps    4 Skipping    0
:INFO :  SLambda=    0.2773014317  Max    0.2773014317
:PREDicted Charge, CTotal, PW Trust    2.220E-03   4.440E-03   2.048E-02
:PREDicted DMix, Beta, BLim   2.5000E-02  1.0658E+00  1.4602E+00

Eigenvalues, unscaled except for SY+YY
   #     SY Real        SY Imag          SS             YY         SY+YY Real      SY+YY Imag
   1   1.548951E+00   0.000000E+00   1.361517E+00   2.564488E+00   2.904805E+00   0.000000E+00
   2   2.797335E-01   0.000000E+00   8.363410E-02   1.435510E+00   1.602289E+00   0.000000E+00
   3   1.899950E-08   0.000000E+00   9.399138E-08   1.306747E-06   1.386292E-06   0.000000E+00
   4   3.100894E-07   0.000000E+00   3.804502E-10   6.843106E-07   7.333641E-07   0.000000E+00
 
:INFO :  Singular value  2.905E+00 Weight  1.000E+00 Projection -5.134E-04
:INFO :  Singular value  1.602E+00 Weight  1.000E+00 Projection -7.790E-04
:INFO :  Singular value  1.386E-06 Weight  2.922E-05 Projection -1.097E-04
:INFO :  Singular value  7.333E-07 Weight  8.177E-06 Projection  4.835E-05
:RANK :  ACTIVE   2.00/4  =  50.00 % ; YY RANK   2.00/4  =  50.00 %
 
:BLIM :  VZERO Control Off
:TRUST:  Step 1.07E+00  Charge 7.50E-02 (e) CTO  2.50E-01 (e) PW  3.50E-01 (e)
:DIRM :  MEMORY  4/8  SCALE   1.000 RED  0.36 PRED  0.40 NEXT  1.00 
:TRAVE:  Charge 8.12E-04 (e) CTO  1.62E-03 (e) PW  8.64E-03 (e)
:DIRP :  |MSR1|= 7.791E-04 |PRATT|= 2.064E-03 ANGLE=  18.5 DEGREES
:DIRQ :  |MSR1|= 7.103E-04 |PRATT|= 6.212E-03 ANGLE=  53.5 DEGREES
:DIRT :  |MSR1|= 1.054E-03 |PRATT|= 6.546E-03 ANGLE=  53.0 DEGREES
:MIX  :   MSD1   REGULARIZATION:  2.56E-04 GREED: 0.02816  Newton 1.00  0.1611                
     
       CHARGES OF MIXED CHARGE DENSITY
:CTO   : INTERSTITIAL CHARGE =     6.504628
:CPC   : PW Pseudocharge     =    17.495913
:CTO001: CHARGE SPHERE  1    =    55.747686

:NEC03: NUCLEAR AND ELECTRONIC CHARGE    118.00000   118.00000

PW CHANGE     H    K    L      Current       Change    Residue
:PTO001:      0    0    0  7.79937205E-02  8.075E-06  2.053E-05
:PTO003:      0    2    0  1.82920082E-02  2.510E-06  1.385E-05
:PTO004:     -1    1    0  8.62954369E-02  1.181E-05  3.913E-05
:PTO005:      0    2   -1 -9.86571227E-02 -1.432E-05 -3.222E-05
:PTO006:      0    0   -2 -5.11692722E-02 -7.426E-06 -1.382E-05
:PTO007:     -1    1   -1 -1.02612301E-01 -1.404E-05 -3.059E-05
:PTO008:      0    2   -2 -1.44042243E-02 -2.105E-06 -4.489E-06
:PTO009:     -1    1   -2 -7.22630741E-02 -1.058E-05 -1.889E-05
:PTO011:     -1    3    0 -1.08129670E-02 -1.328E-06  4.401E-07
:PTO012:     -1    3   -1 -4.42723158E-02 -6.695E-06 -2.171E-05
:PTO013:      0    4    0 -7.51022818E-03 -9.730E-07 -2.224E-06
:PTO014:      0    2   -3  1.74766826E-02  2.213E-06  4.207E-06

:ENE  : ********** TOTAL ENERGY IN Ry =       -36944.35667644

       TOTAL FORCE IN mRy/a.u. = |F|     Fx             Fy             Fz     with/without FOR in case.in2
[...]
:RANK :  ACTIVE   4.00/8  =  50.01 % ; YY RANK   4.00/8  =  50.01 %
 
:BLIM :  VZERO Control Off
:TRUST:  Step 2.16E+00  Charge 2.70E-02 (e) CTO  9.00E-02 (e) PW  1.26E-01 (e)
:DIRM :  MEMORY  8/8  SCALE   1.000 RED  0.28 PRED  0.36 NEXT  1.00 
:TRAVE:  Charge 1.07E-04 (e) CTO  2.14E-04 (e) PW  9.66E-04 (e)
:DIRP :  |MSR1|= 6.304E-06 |PRATT|= 1.020E-04 ANGLE=  29.8 DEGREES
:DIRQ :  |MSR1|= 2.659E-05 |PRATT|= 4.294E-04 ANGLE=  34.0 DEGREES
:DIRT :  |MSR1|= 2.733E-05 |PRATT|= 4.413E-04 ANGLE=  33.8 DEGREES
:MIX  :   MSD1   REGULARIZATION:  3.22E-04 GREED: 0.03988  Newton 1.00  0.0619                
     
       CHARGES OF MIXED CHARGE DENSITY
:CTO   : INTERSTITIAL CHARGE =     6.505718
:CPC   : PW Pseudocharge     =    17.499065
:CTO001: CHARGE SPHERE  1    =    55.747141

:NEC03: NUCLEAR AND ELECTRONIC CHARGE    118.00000   118.00000

PW CHANGE     H    K    L      Current       Change    Residue
:PTO001:      0    0    0  7.80075067E-02 -2.562E-08 -5.371E-07
:PTO003:      0    2    0  1.83000867E-02 -5.600E-08 -1.795E-06
:PTO004:     -1    1    0  8.63182939E-02 -5.946E-08 -1.294E-06
:PTO005:      0    2   -1 -9.86805239E-02  4.834E-08  9.712E-07
:PTO006:      0    0   -2 -5.11797735E-02  1.701E-08  7.351E-08
:PTO007:     -1    1   -1 -1.02630010E-01  6.205E-08 -3.455E-08
:PTO008:      0    2   -2 -1.44070279E-02  3.900E-08  7.808E-07
:PTO009:     -1    1   -2 -7.22724327E-02  1.368E-07  1.359E-06
:PTO011:     -1    3    0 -1.08131513E-02  4.089E-09 -1.956E-07
:PTO012:     -1    3   -1 -4.42857149E-02  5.237E-08  1.281E-06
:PTO013:      0    4    0 -7.51217984E-03 -4.876E-10  6.373E-08
:PTO014:      0    2   -3  1.74820281E-02  2.753E-08  1.739E-07

:ENE  : ********** TOTAL ENERGY IN Ry =       -36944.35667737

       TOTAL FORCE IN mRy/a.u. = |F|     Fx             Fy             Fz     with/without FOR in case.in2
:FOR001:   1.ATOM          0.874          0.000          0.000          0.874 partial forces
       TOTAL FORCE WITH RESPECT TO GLOBAL CARTESIAN COORDINATES:
:FCA001:   1.ATOM                         0.000          0.874          0.000 partial forces
       TOTAL FORCE WITH RESPECT TO THE GLOBAL COORDINATE SYSTEM:
:FGL001:   1.ATOM                 0.000000000     0.874178298     0.000000000 partial forces
 Flat Integration
 New Mode for Coulomb Integral
 Consistent 3/8+Simpson combinations
 Extension of core to zero
 LDM version in phi
 Fifth-order quadrature in outwin


            ---------
:ITE025: 25. ITERATION
            ---------

:NATO :    1 INDEPENDENT AND    2 TOTAL ATOMS IN UNITCELL
       SUBSTANCE: aU                                                          

       LATTICE                      = CXY 
:POT  : POTENTIAL OPTION EX_LDA EC_LDA VX_LDA VC_LDA
:LAT  : LATTICE CONSTANTS=  5.57334 11.30972  9.76391    1.571    1.571    1.571
:VOL  : UNIT CELL VOLUME =     307.72401
       MODE OF CALCULATION IS       = RELA
       NON-SPINPOLARIZED CALCULATION
:IFFT  : FFT-parameters:   48   90   80 Factor: 2.00


   CONVERGENCE PARAMETER FOR PSEUDOCHARGE: NCON=  9
   MAXIMAL VALUE OF RMT(JATOM)*ABSK(NKK) : RK  =27.58719


:VKCOUL :  VK-COUL convergence: 0.204E-06
       ATOMNUMBER=  1 Pr1        VCOUL-ZERO =  0.52355E+00
:EFG001:                        EFG         =    -9.38026   *10**21  V / m**2
                               V20  TOT/SRF=    -8.12354    -0.06120
                               V22  TOT/SRF=    -3.51971    -0.01066
                               V22M TOT/SRF=     0.00000     0.00000
                               V21  TOT/SRF=     0.00000     0.00000
                               V21M TOT/SRF=     0.00000     0.00000

              1.17042    0.00000    0.00000        1.17042    0.00000    0.00000
              0.00000    8.20984    0.00000        0.00000    8.20984    0.00000
              0.00000    0.00000   -9.38026        0.00000    0.00000   -9.38026

         MAIN DIRECTIONS OF THE EFG   1.0000  0.0000  0.0000
                                      0.0000  1.0000  0.0000
                                      0.0000  0.0000  1.0000
:ANG001:  ANGLE WITH OLD X-AXIS =         0.0

:ETA001:                         ASYMM. ETA =     0.75045


     HELLMANN-FEYNMAN-FORCE IN mRy/a.u. = |F|  Fx       Fy             Fz
:FHF001:   1.ATOM   1630.713215337324      0.000000000000      0.000000000000  -1630.713215337324

:FIT001: LUSE= 13 SIGMA OF V-XC FIT FOR ATOM  1  0.6637839E-04
:FIT001: LUSE= 13 SIGMA OF V-XC FIT FOR ATOM  1  0.6637839E-04
:DEN  : DENSITY INTEGRAL  =        -14199.74144274   (Ry)
       ELS_POTENTIAL_AT Z=0 and Z=0.5:   0.95636   0.95636
       ELS_POTENTIAL_AT Y=0 and Y=0.5:   0.00997   0.00997
:VZERO:v0,v0c,v0x   0.24638   0.95636  -0.70998 v5,v5c,v5x   0.24638   0.95636  -0.70998
:VZERY:v0,v0c,v0x  -0.92127   0.00997  -0.93124 v5,v5c,v5x  -0.92127   0.00997  -0.93124
:VZERX:v0,v0c,v0x  -1.26911  -0.39539  -0.87372 v5,v5c,v5x  -1.26911  -0.39539  -0.87372
:LMAX-WF:   10   Non-Spherical LMAX:   4

          ATOMIC SPHERE DEPENDENT PARAMETERS FOR ATOM  Pr1       
:e__0001: OVERALL ENERGY PARAMETER IS    0.8473
          OVERALL BASIS SET ON ATOM IS LAPW
:E0_0001: E( 0)=    0.8473
             APW+lo
:E0_0001: E( 0)=   -1.5814   E(BOTTOM)=   -2.219   E(TOP)=   -0.943  4  5   224
             LOCAL ORBITAL
:E1_0001: E( 1)=    1.2473
             APW+lo
:E1_0001: E( 1)=   -0.1124   E(BOTTOM)=   -1.074   E(TOP)=    0.849  3  4   234
             LOCAL ORBITAL
:E3_0001: E( 3)=    1.0601   E(BOTTOM)=    0.854   E(TOP)=    1.267  0  1   119
             APW+lo
:E2_0001: E( 2)=    0.8473   E(BOTTOM)=    0.663   E(TOP)= -200.000  2 -1   119
             APW+lo

       K=   0.06250   0.00000   0.06250            1
:RKM  : MATRIX SIZE   303LOs:  40  RKM= 8.48  WEIGHT= 4.00  PGR:    
       EIGENVALUES ARE:
:EIG00001:      -1.6059052   -1.5431092   -0.4062688   -0.1898343   -0.1395041
:EIG00006:      -0.1200868   -0.0992747   -0.0983811    0.8779893    0.9106705
:EIG00011:       1.0251011    1.0315534    1.0332027    1.0411644    1.0552016
:EIG00016:       1.0775908    1.0858758    1.0879346    1.0937307    1.0977083
:EIG00021:       1.1084516    1.1085029    1.1096397    1.1304381    1.1491263
:EIG00026:       1.1770578    1.2755291    1.2756017    1.3522175    1.3914898
:EIG00031:       1.4301907    1.6069672    1.6125311    1.6955899    1.9956474
:EIG00036:       2.0443281    2.0799260    2.2653777    2.3168382    2.4098025
:EIG00041:       2.5954580    2.6621369    2.8077123    2.8463868    2.9984080
:EIG00046:       3.0139136    3.0175041    3.1931668    3.1941937    3.3394179
 
:EIG00051:       3.4251345    3.5389996    3.5604091    3.7116701    3.7405066
:EIG00056:       3.7867601    3.8516339    4.0303610    4.0348445    4.1283252
:EIG00061:       4.1893860    4.2866968    4.3367512    4.3717493    4.4487607
:EIG00066:       4.5738209    4.5831532    4.6487807    4.7276735    4.7415511
:EIG00071:       4.8333866    4.8729958    4.9207249    5.0190466    5.0271979
:EIG00076:       5.0435677    5.1021073    5.1116549    5.1353134    5.2271061
:EIG00081:       5.2344150    5.2661578    5.3351479    5.3486258    5.3701066
:EIG00086:       5.4710821    5.5666469    5.6363909    5.6763714    5.7040673
:EIG00091:       5.7584266    5.7999803    5.8436638    5.8666830    5.8749541
:EIG00096:       5.9591329    6.0063008    6.0065677    6.0804574    6.1437142
 
:EIG00101:       6.1798486    6.3047814    6.3684704    6.4120457    6.4225696
:EIG00106:       6.5423558    6.5567075    6.5829057    6.6679809    6.8041299
:EIG00111:       6.8838108    6.9229423    7.0014706    7.0332346    7.1243194
:EIG00116:       7.2353132    7.2377308    7.3481026    7.3614345    7.4123915
:EIG00121:       7.4891581    7.5180548    7.5800830    7.6343106    7.7022813
:EIG00126:       7.7258463    7.8028265    7.8599297    7.8770552    7.8960462
:EIG00131:       7.9619097    7.9928618    8.0120236    8.1627829    8.1920077
:EIG00136:       8.2427890    8.2483020    8.3737096    8.3865280    8.4281583
:EIG00141:       8.4334306    8.4962101    8.5230524
       ********************************************************

:KPT   :      NUMBER OF K-POINTS:   288
   0.0   0.0 angle (M,z), angle (M,x) deg
 
        SPIN-ORBIT EIGENVALUES:
     K=   0.06250   0.00000   0.06250            1
      MATRIX SIZE=  286   WEIGHT= 4.00
     EIGENVALUES ARE:
          -1.6059067   -1.6059067   -1.5431104   -1.5431104   -0.4457842
          -0.4457842   -0.2768774   -0.2768774   -0.2009831   -0.2009831
          -0.0604073   -0.0604072   -0.0562848   -0.0562847   -0.0335314
          -0.0335313    0.8780994    0.8780994    0.9105750    0.9105750
           1.0231541    1.0231541    1.0292077    1.0292077    1.0311457
           1.0311457    1.0393935    1.0393935    1.0523484    1.0523484
           1.0698469    1.0698469    1.0802516    1.0802516    1.0898809
           1.0898809    1.0988543    1.0988543    1.1008481    1.1008481

           1.1087028    1.1087028    1.1112175    1.1112175    1.1143299
           1.1143299    1.1331587    1.1331587    1.1506893    1.1506893
           1.1773968    1.1773968    1.2695307    1.2695307    1.2815745
           1.2815745    1.3527365    1.3527366    1.3913830    1.3913830
           1.4306189    1.4306189    1.6070355    1.6070355    1.6127472
           1.6127472    1.6957751    1.6957751    1.9960696    1.9960696
           2.0443909    2.0443909    2.0799249    2.0799249    2.2652934
           2.2652934    2.3166549    2.3166549    2.4092140    2.4092140

           2.5956808    2.5956808    2.6616487    2.6616487    2.8074156
           2.8074156    2.8461173    2.8461173    2.9983789    2.9983789
           3.0130900    3.0130900    3.0179372    3.0179373    3.1870459
           3.1870459    3.2003275    3.2003275    3.3396521    3.3396521
           3.4247192    3.4247192    3.5356548    3.5356548    3.5622436
           3.5622436    3.7114594    3.7114594    3.7397573    3.7397573
           3.7875665    3.7875665    3.8496606    3.8496606    4.0303103
           4.0303103    4.0370711    4.0370711    4.1281272    4.1281272

           4.1909164    4.1909164    4.2863374    4.2863374    4.3368815
           4.3368815    4.3764945    4.3764945    4.4489130    4.4489130

       ********************************************************
:GAP (global)   :    0.0    Ry =     0.0   eV (metal)
:GAP (this spin):    0.0    Ry =     0.0   eV (metal)
         Bandranges (emin - emax) and occupancy:
:BAN00020:  20    0.880076    1.005573  1.00000000
:BAN00021:  21    0.915102    1.044826  1.00000000
:BAN00022:  22    0.915102    1.044826  1.00000000
:BAN00023:  23    0.980716    1.050778  0.98913770
:BAN00024:  24    0.980716    1.050778  0.98913767
:BAN00025:  25    1.002433    1.066840  0.66323769
:BAN00026:  26    1.002433    1.066840  0.66323764
:BAN00027:  27    1.029451    1.072576  0.34540226
:BAN00028:  28    1.029451    1.072576  0.34540216
:BAN00029:  29    1.045956    1.076137  0.00222244
:BAN00030:  30    1.045956    1.076137  0.00222244
:BAN00031:  31    1.054184    1.084909  0.00000000
:BAN00032:  32    1.054184    1.084909  0.00000000
:BAN00033:  33    1.072802    1.093991  0.00000000
:BAN00034:  34    1.072802    1.093991  0.00000000
:BAN00035:  35    1.076662    1.100822  0.00000000
        Energy to separate low and high energystates:    0.78290


:NOE  : NUMBER OF ELECTRONS          =   26.000

:FER  : F E R M I - ENERGY(TETRAH.M.)=   1.0473230837
:GMA  : POTENTIAL AND CHARGE CUT-OFF  12.00 Ry**.5

:POS001: ATOM   -1 X,Y,Z = 0.00000 0.89750 0.25000  MULT= 2  ZZ= 59.000  Pr1       

       LMMAX 16
       LM=   0 0  1 0  2 0  2 2  3 0  3 2  4 0  4 2  4 4  5 0  5 2  5 4  6 0  6 2  6 4  6 6

:CHA001: TOTAL VALENCE CHARGE INSIDE SPHERE   1 =   9.7486    (RMT=  2.3000 )
:PCS001: PARTIAL CHARGES SPHERE =  1 S,P,D,F,PX,PY,PZ,D-Z2,D-X2Y2,D-XY,D-XZ,D-YZ 
:QTL001: 1.9357 4.9692 0.8035 2.0381 1.6557 1.6514 1.6621 0.1563 0.1431 0.1651 0.1657 0.1732
        Q-s-low E-s-low   Q-p-low E-p-low   Q-d-low E-d-low   Q-f-low E-f-low
:EPL001:  1.8688 -1.5383    4.8857 -0.2363    0.0159 -0.2556    0.0050 -0.2669
        Q-s-hi  E-s-hi    Q-p-hi  E-p-hi    Q-d-hi  E-d-hi    Q-f-hi  E-f-hi 
:EPH001:  0.0669  0.9593    0.0835  0.9814    0.7876  0.9612    2.0331  1.0165

                      VXX         VYY         VZZ       UP TO R
:VZZ001:             1.14140     8.16866    -9.31006       2.300

:CHA  : TOTAL VALENCE CHARGE INSIDE UNIT CELL =      26.000000

:SUM  : SUM OF EIGENVALUES =           0.808630297


        1.ATOM      Pr1                  14 CORE STATES
       CORE-FORCE in mRy/a.u. = |F|      Fx             Fy             Fz
:FCO001:   1.ATOM   1631.570570583465      0.000000000000      0.000000000000   1631.570570583465

:1S 001: 1S               -3066.538754665 Ry
:2S 001: 2S                -492.291774250 Ry
:2PP001: 2P*               -465.390374453 Ry
:2P 001: 2P                -429.993058694 Ry
:3S 001: 3S                -105.389295556 Ry
:3PP001: 3P*                -93.926855112 Ry
:3P 001: 3P                 -86.919164160 Ry
:3DD001: 3D*                -66.845157951 Ry
:3D 001: 3D                 -65.333695259 Ry
:4S 001: 4S                 -20.057177288 Ry
:4PP001: 4P*                -15.763043936 Ry
:4P 001: 4P                 -14.234342695 Ry
:4DD001: 4D*                 -7.164741831 Ry
:4D 001: 4D                  -6.894891512 Ry
:CINT001 Core Integral Atom   1   45.998495

       DENSITY AT NUCLEUS
        JATOM        VALENCE       SEMI-CORE          CORE           TOTAL
:RTO001:   1      645.200857        0.000000   656826.281877   657471.482734
     
       CHARGES OF NEW CHARGE DENSITY
:NTO   : INTERSTITIAL CHARGE =     6.502724
:NPC   : PW Pseudocharge     =    17.490764
:NTO001: CHARGE SPHERE  1    =    55.747131

:NEC01: NUCLEAR AND ELECTRONIC CHARGE    118.00000   117.99699
     
       CHARGES OF OLD CHARGE DENSITY
:OTO   : INTERSTITIAL CHARGE =     6.505718
:OPC   : PW Pseudocharge     =    17.499065
:OTO001: CHARGE SPHERE  1    =    55.747141

:NEC02: NUCLEAR AND ELECTRONIC CHARGE    118.00000   118.00000
     
       CONVERGENCE TEST
:DTO001: DIFFERENCE IN SPHERE  1 =  0.0000951

:DIS  :  CHARGE DISTANCE       ( 0.0000951 for atom    1 spin 1)      0.0000951
 PW Mixed is          332
 
******************************************************
* MULTISECANT MIXING VER9 RELEASE 10.4.0              *
* Standard Mode with controls                        *
* Fixed density scale                                *
* Regularization       1.000E-04                     *
* Trust Upper Limit    5.000E+00                     *
* Max Number of Memory Steps    8                    *
******************************************************
 
:PWTMP   2.0579E+02  1.9467E+02  3.0772E+02
:PLANE:  PW TOTAL      5.9369 DISTAN   9.48E-05  1.60E-03 %
:CHARG:  CLM/ATOM   1381.9494 DISTAN   3.78E-04  2.73E-05 %
 
Step History
        DMIX         DMIXT        Red     Pred      Trust     Lambda    MagRel    MagAbs     Beta
  2   2.5000E-02   2.5000E-02  7.79E-01  1.00E+00 -1.00E+01  1.00E+00  2.50E-02  1.82E-03  1.00E+00
  3   2.0000E-02   2.0000E-02  3.28E-01  3.36E-01  5.42E-01  5.89E-02  2.34E-01  1.33E-02  1.00E+00
  4   1.6712E-02   1.6712E-02  9.79E-01  1.00E+00  6.78E-01  1.22E+00  1.69E-02  3.14E-04  1.00E+00
  5   4.1781E-02   3.8594E-02  3.59E-01  4.04E-01  7.35E-01  2.77E-01  7.35E-01  1.34E-02  1.00E+00
  6   2.8159E-02   2.8159E-02  9.11E-01  9.95E-01  1.07E+00  7.50E-01  1.61E-01  1.05E-03  1.00E+00
  7   7.0398E-02   7.0398E-02  2.75E-01  3.07E-01  1.17E+00  2.26E-01  5.07E-01  3.02E-03  1.00E+00
  8   2.8159E-02   2.8159E-02  9.62E-01  9.99E-01  1.56E+00  1.00E+00  3.75E-02  6.15E-05  9.96E-01
  9   7.0398E-02   7.0398E-02  2.80E-01  3.64E-01  1.62E+00  1.55E-01  7.83E-01  1.24E-03  1.00E+00
 10   3.9878E-02   3.9878E-02 -1.00E+00  9.99E-01  2.16E+00  1.00E+00  6.19E-02  2.73E-05  1.00E+00
:JACOBIANS    6.040E-01   1.614E+00
  
:NORMS:  1/Froebius, Min, Max, Used   0.7314E+00  0.3918E+00  0.1004E+01  0.9429E+00
:INFO :  Number of Memory Steps    8 Skipping    1
:INFO :  SLambda=    1.0000000000  Max    1.0000000000
:PREDicted Charge, CTotal, PW Trust    1.543E-05   3.086E-05   1.217E-04
:PREDicted DMix, Beta, BLim   3.8932E-01  5.0946E+00  5.2112E-01

Eigenvalues, unscaled except for SY+YY
   #     SY Real        SY Imag          SS             YY         SY+YY Real      SY+YY Imag
   1   2.802286E+00   0.000000E+00   2.728736E+00   3.069033E+00   5.831040E+00   0.000000E+00
   2   1.524852E+00   0.000000E+00   1.351068E+00   1.914936E+00   3.408140E+00   0.000000E+00
   3   3.589574E-01   0.000000E+00   1.015937E-01   1.257445E+00   7.119720E-01   0.000000E+00
   4   2.620132E-01   0.000000E+00   7.235162E-02   1.199134E+00   1.457243E+00   0.000000E+00
   5   1.101445E-01   0.000000E+00   2.571656E-02   5.594517E-01   1.649858E+00   0.000000E+00
   6   4.119961E-09   2.151213E-09   1.883889E-09   9.899105E-08   1.008329E-07   0.000000E+00
   7   4.119961E-09  -2.151213E-09   1.089382E-09   3.396305E-08   2.337459E-09   0.000000E+00
   8   4.241694E-10   0.000000E+00   2.396243E-11   1.675988E-09   3.947333E-08   0.000000E+00
 
:INFO :  Singular value  5.833E+00 Weight  1.000E+00 Projection  2.705E-05
:INFO :  Singular value  3.407E+00 Weight  1.000E+00 Projection -6.298E-05
:INFO :  Singular value  1.650E+00 Weight  1.000E+00 Projection -1.628E-04
:INFO :  Singular value  1.457E+00 Weight  1.000E+00 Projection -1.985E-04
:INFO :  Singular value  7.120E-01 Weight  1.000E+00 Projection  3.503E-04
:INFO :  Singular value  1.011E-07 Weight  1.085E-07 Projection -8.425E-09
:INFO :  Singular value  3.938E-08 Weight  1.646E-08 Projection  4.318E-09
:INFO :  Singular value  2.337E-09 Weight  5.801E-11 Projection  6.552E-11
:RANK :  ACTIVE   5.00/8  =  62.50 % ; YY RANK   5.00/8  =  62.50 %
 
:BLIM :  VZERO Control Off
:TRUST:  Step 2.45E+00  Charge 2.16E-02 (e) CTO  7.20E-02 (e) PW  1.01E-01 (e)
:DIRM :  MEMORY  8/8  SCALE   1.000 RED  0.88 PRED  1.00 NEXT  0.26 
:TRAVE:  Charge 5.94E-05 (e) CTO  1.19E-04 (e) PW  5.39E-04 (e)
:DIRP :  |MSR1|= 7.253E-05 |PRATT|= 9.476E-05 ANGLE=  30.6 DEGREES
:DIRQ :  |MSR1|= 1.778E-04 |PRATT|= 3.775E-04 ANGLE=  30.7 DEGREES
:DIRT :  |MSR1|= 1.920E-04 |PRATT|= 3.892E-04 ANGLE=  31.7 DEGREES
:MIX  :   MSR1   REGULARIZATION:  3.07E-04 GREED: 0.09970  Newton 1.00  0.4933                
     
       CHARGES OF MIXED CHARGE DENSITY
:CTO   : INTERSTITIAL CHARGE =     6.505742
:CPC   : PW Pseudocharge     =    17.498864
:CTO001: CHARGE SPHERE  1    =    55.747129

:NEC03: NUCLEAR AND ELECTRONIC CHARGE    118.00000   118.00000

PW CHANGE     H    K    L      Current       Change    Residue
:PTO001:      0    0    0  7.80069297E-02 -5.770E-07 -5.682E-07
:PTO003:      0    2    0  1.82995155E-02 -5.712E-07 -1.651E-06
:PTO004:     -1    1    0  8.63173133E-02 -9.806E-07 -1.203E-06
:PTO005:      0    2   -1 -9.86795095E-02  1.014E-06  9.226E-07
:PTO006:      0    0   -2 -5.11793091E-02  4.644E-07  9.952E-08
:PTO007:     -1    1   -1 -1.02628974E-01  1.036E-06 -3.510E-08
:PTO008:      0    2   -2 -1.44066388E-02  3.892E-07  7.092E-07
:PTO009:     -1    1   -2 -7.22709834E-02  1.449E-06  1.269E-06
:PTO011:     -1    3    0 -1.08130759E-02  7.538E-08 -1.832E-07
:PTO012:     -1    3   -1 -4.42850412E-02  6.737E-07  1.192E-06
:PTO013:      0    4    0 -7.51214145E-03  3.839E-08  5.994E-08
:PTO014:      0    2   -3  1.74821021E-02  7.404E-08  1.222E-07

:ENE  : ********** TOTAL ENERGY IN Ry =       -36944.35667738

       TOTAL FORCE IN mRy/a.u. = |F|     Fx             Fy             Fz     with/without FOR in case.in2
:FOR001:   1.ATOM          0.857          0.000          0.000          0.857 partial forces
       TOTAL FORCE WITH RESPECT TO GLOBAL CARTESIAN COORDINATES:
:FCA001:   1.ATOM                         0.000          0.857          0.000 partial forces
       TOTAL FORCE WITH RESPECT TO THE GLOBAL COORDINATE SYSTEM:
:FGL001:   1.ATOM                 0.000000000     0.857355246     0.000000000 partial forces
