
------- case.scf0 --------
 Flat Integration
 New Mode for Coulomb Integral
 Consistent 3/8+Simpson combinations
 Extension of core to zero
 LDM version in phi
 Fifth-order quadrature in outwin


            ---------
:ITE083: 83. ITERATION
            ---------

:NATO :    1 INDEPENDENT AND    2 TOTAL ATOMS IN UNITCELL
       SUBSTANCE: aU                                                          

       LATTICE                      = CXY 
:POT  : POTENTIAL OPTION EX_LDA EC_LDA VX_LDA VC_LDA
:LAT  : LATTICE CONSTANTS=  5.26305 10.68006  9.22032    1.571    1.571    1.571
:VOL  : UNIT CELL VOLUME =     259.13599
       MODE OF CALCULATION IS       = RELA
       NON-SPINPOLARIZED CALCULATION
:IFFT  : FFT-parameters:   48   90   72 Factor: 2.00


   CONVERGENCE PARAMETER FOR PSEUDOCHARGE: NCON=  9
   MAXIMAL VALUE OF RMT(JATOM)*ABSK(NKK) : RK  =27.59449


:VKCOUL :  VK-COUL convergence: 0.252E-06
       ATOMNUMBER=  1 Pr1        VCOUL-ZERO =  0.72599E+00
:EFG001:                        EFG         =     8.94636   *10**21  V / m**2
                               V20  TOT/SRF=    -6.16910    -0.08113
                               V22  TOT/SRF=    -5.38462    -0.01144
                               V22M TOT/SRF=     0.00000     0.00000
                               V21  TOT/SRF=     0.00000     0.00000
                               V21M TOT/SRF=     0.00000     0.00000

             -1.82289    0.00000    0.00000       -1.82289    0.00000    0.00000
              0.00000    8.94636    0.00000        0.00000    8.94636    0.00000
              0.00000    0.00000   -7.12346        0.00000    0.00000   -7.12346

         MAIN DIRECTIONS OF THE EFG   1.0000  0.0000  0.0000
                                      0.0000  1.0000  0.0000
                                      0.0000  0.0000  1.0000
:ANG001:  ANGLE WITH OLD X-AXIS =         0.0

:ETA001:                         ASYMM. ETA =     0.59248


     HELLMANN-FEYNMAN-FORCE IN mRy/a.u. = |F|  Fx       Fy             Fz
:FHF001:   1.ATOM   1257.317056669560      0.000000000000      0.000000000000  -1257.317056669560

:FIT001: LUSE= 13 SIGMA OF V-XC FIT FOR ATOM  1  0.1093428E-03
:FIT001: LUSE= 13 SIGMA OF V-XC FIT FOR ATOM  1  0.1093428E-03
:DEN  : DENSITY INTEGRAL  =        -14231.50629772   (Ry)
       ELS_POTENTIAL_AT Z=0 and Z=0.5:   1.05686   1.05686
       ELS_POTENTIAL_AT Y=0 and Y=0.5:  -0.02719  -0.02719
:VZERO:v0,v0c,v0x   0.28619   1.05686  -0.77067 v5,v5c,v5x   0.28619   1.05686  -0.77067
:VZERY:v0,v0c,v0x  -1.02397  -0.02719  -0.99677 v5,v5c,v5x  -1.02397  -0.02719  -0.99677
:VZERX:v0,v0c,v0x  -1.32550  -0.39603  -0.92947 v5,v5c,v5x  -1.32550  -0.39603  -0.92947

------- case.scf1 --------
:LMAX-WF:   10   Non-Spherical LMAX:   4

          ATOMIC SPHERE DEPENDENT PARAMETERS FOR ATOM  Pr1       
:e__0001: OVERALL ENERGY PARAMETER IS    1.0630
          OVERALL BASIS SET ON ATOM IS LAPW
:E0_0001: E( 0)=    1.0630
             APW+lo
:E0_0001: E( 0)=   -1.3397   E(BOTTOM)=   -1.987   E(TOP)=   -0.693  4  5   245
             LOCAL ORBITAL
:E1_0001: E( 1)=    1.4630
             APW+lo
:E1_0001: E( 1)=    0.1244   E(BOTTOM)=   -0.848   E(TOP)=    1.097  3  4   251
             LOCAL ORBITAL
:E3_0001: E( 3)=    1.3219   E(BOTTOM)=    1.108   E(TOP)=    1.536  0  1   122
             APW+lo
:E2_0001: E( 2)=    1.0630   E(BOTTOM)=    0.882   E(TOP)= -200.000  2 -1   121
             APW+lo

       K=   0.06250   0.00000   0.06250            1
:RKM  : MATRIX SIZE   266LOs:  40  RKM= 8.47  WEIGHT= 4.00  PGR:    
       EIGENVALUES ARE:
:EIG00001:      -1.4124306   -1.3064673   -0.2551665    0.0583834    0.1329901
:EIG00006:       0.1598504    0.1886907    0.1925840    1.1054697    1.1611799
:EIG00011:       1.2431124    1.2572301    1.2627157    1.2728919    1.2968462
:EIG00016:       1.3293498    1.3424673    1.3473103    1.3537288    1.3588207
:EIG00021:       1.3639479    1.3702991    1.3779096    1.4073466    1.4159426
:EIG00026:       1.4479299    1.5206532    1.5330708    1.6117137    1.6587060
:EIG00031:       1.7311190    1.9175837    1.9815320    2.0317540    2.3213232
:EIG00036:       2.3673202    2.4064213    2.6747123    2.6901875    2.8382059
:EIG00041:       3.0445450    3.0877338    3.2523430    3.3170525    3.4647192
:EIG00046:       3.4717203    3.5022997    3.6784720    3.6941814    3.8352440
 
:EIG00051:       3.9528976    4.0972053    4.1676837    4.3097167    4.3379646
:EIG00056:       4.4338543    4.5025768    4.7096411    4.7562561    4.7608581
:EIG00061:       4.7985998    4.9304916    4.9887619    5.1365389    5.1827039
:EIG00066:       5.2090791    5.2339154    5.2586328    5.4070951    5.4791290
:EIG00071:       5.5429042    5.6310465    5.6918659    5.7486031    5.7486798
:EIG00076:       5.7699087    5.8156469    5.8322658    5.8645033    5.9612775
:EIG00081:       5.9840212    6.0421811    6.0672173    6.1542443    6.2093254
:EIG00086:       6.2261200    6.3598969    6.4460867    6.4699181    6.5379869
:EIG00091:       6.6012251    6.6678014    6.6978724    6.7328926    6.7333127
:EIG00096:       6.8969526    6.9382284    6.9808314    6.9913711    7.0798628
 
:EIG00101:       7.1532394    7.2128998    7.2672705    7.3054698    7.3167248
:EIG00106:       7.4179251    7.4844244    7.5733393    7.6441504    7.8150463
:EIG00111:       7.9228563    7.9365517    7.9477534    8.0298433    8.1419206
:EIG00116:       8.1894666    8.4054468    8.4704948    8.5137087    8.5586558
:EIG00121:       8.5920581    8.6294909    8.6660114
       ********************************************************

:KPT   :      NUMBER OF K-POINTS:   288

------- case.scfso --------
   0.0   0.0 angle (M,z), angle (M,x) deg
 
        SPIN-ORBIT EIGENVALUES:
     K=   0.06250   0.00000   0.06250            1
      MATRIX SIZE=  246   WEIGHT= 4.00
     EIGENVALUES ARE:
          -1.4124342   -1.4124342   -1.3064705   -1.3064705   -0.2813288
          -0.2813288   -0.0017997   -0.0017997    0.0423230    0.0423230
           0.2181384    0.2181384    0.2259318    0.2259318    0.2535704
           0.2535704    1.1053920    1.1053920    1.1613434    1.1613434
           1.2422628    1.2422628    1.2559345    1.2559345    1.2613787
           1.2613787    1.2719104    1.2719104    1.2952848    1.2952848
           1.3246612    1.3246612    1.3367330    1.3367330    1.3460031
           1.3460031    1.3575000    1.3575000    1.3608042    1.3608042

           1.3659699    1.3659699    1.3711561    1.3711561    1.3809038
           1.3809039    1.4092833    1.4092833    1.4174937    1.4174937
           1.4484569    1.4484569    1.5186720    1.5186720    1.5354045
           1.5354045    1.6122380    1.6122380    1.6587548    1.6587548
           1.7314465    1.7314465    1.9177956    1.9177956    1.9816106
           1.9816106    2.0320804    2.0320804    2.3218730    2.3218730
           2.3674241    2.3674241    2.4064432    2.4064432    2.6744041
           2.6744041    2.6901238    2.6901238    2.8375992    2.8375992

           3.0449383    3.0449383    3.0874114    3.0874114    3.2524541
           3.2524541    3.3166080    3.3166080    3.4645800    3.4645800
           3.4713601    3.4713601    3.5025824    3.5025824    3.6762440
           3.6762440    3.6965254    3.6965254    3.8356016    3.8356016
           3.9526343    3.9526343    4.0959618    4.0959618    4.1675023
           4.1675023    4.3093093    4.3093093    4.3378373    4.3378373
           4.4339184    4.4339184    4.4996869    4.4996869
       ********************************************************

------- case.scf2 --------
:GMA  : POTENTIAL AND CHARGE CUT-OFF  12.00 Ry**.5




:POS001: at.nr.  -1 position = 0.00000 0.89750 0.25000  multiplicity =  2

       lmmax 16
       lm=   0 0  1 0  2 0  2 2  3 0  3 2  4 0  4 2  4 4  5 0  5 2  5 4  6 0  6 2  6 4  6 6
:FER gutzwiller fermi energy   1.28145
:EORB          0.179942808
:SUM sum of gutz band energies          6.614339495

:CHA001: total charge inside sphere   1 =     9.924618
:PCS001: partial charges sphere =  1 s,p,d,f,px,py,pz,d-z2,d-x2y2,d-xy,d-xz,d-yz 
:QTL001: 1.9294 4.9478 0.9806 2.0619 1.6508 1.6443 1.6527 0.1940 0.1761 0.1985 0.2037 0.2083

                      vxx         vyy         vzz       up to r

:VZZ001:            -1.62486     9.09093    -7.46607       2.300

:CHA  : total charge inside unit cell =      13.000000

------- case.scfc --------

        1.ATOM      Pr1                  14 CORE STATES
       CORE-FORCE in mRy/a.u. = |F|      Fx             Fy             Fz
:FCO001:   1.ATOM   1259.178372430640      0.000000000000      0.000000000000   1259.178372430640

:1S 001: 1S               -3066.260436901 Ry
:2S 001: 2S                -492.007955372 Ry
:2PP001: 2P*               -465.107484917 Ry
:2P 001: 2P                -429.709806772 Ry
:3S 001: 3S                -105.101474271 Ry
:3PP001: 3P*                -93.639223430 Ry
:3P 001: 3P                 -86.631458691 Ry
:3DD001: 3D*                -66.557662425 Ry
:3D 001: 3D                 -65.046155887 Ry
:4S 001: 4S                 -19.776992247 Ry
:4PP001: 4P*                -15.483643722 Ry
:4P 001: 4P                 -13.956054076 Ry
:4DD001: 4D*                 -6.888698489 Ry
:4D 001: 4D                  -6.619259023 Ry

------- case.scfm --------
:CINT001 Core Integral Atom   1   45.998437

       DENSITY AT NUCLEUS
        JATOM        VALENCE       SEMI-CORE          CORE           TOTAL
:RTO001:   1      637.995052        0.000000   656825.387249   657463.382302
     
       CHARGES OF NEW CHARGE DENSITY
:NTO   : INTERSTITIAL CHARGE =     6.150646
:NPC   : PW Pseudocharge     =    17.816153
:NTO001: CHARGE SPHERE  1    =    55.923054

:NEC01: NUCLEAR AND ELECTRONIC CHARGE    118.00000   117.99675
     
       CHARGES OF OLD CHARGE DENSITY
:OTO   : INTERSTITIAL CHARGE =     6.094262
:OPC   : PW Pseudocharge     =    17.786120
:OTO001: CHARGE SPHERE  1    =    55.952869

:NEC02: NUCLEAR AND ELECTRONIC CHARGE    118.00000   118.00000
     
       CONVERGENCE TEST
:DTO001: DIFFERENCE IN SPHERE  1 =  0.0609091

:DIS  :  CHARGE DISTANCE       ( 0.0609091 for atom    1 spin 1)      0.0609091
 PW Mixed is          280
 
******************************************************
* MULTISECANT MIXING VER9 RELEASE 10.4.0              *
* Standard Mode with controls                        *
* Fixed density scale                                *
* Regularization       1.000E-04                     *
* Trust Upper Limit    5.000E+00                     *
* Max Number of Memory Steps    8                    *
******************************************************
 
:PWTMP   1.5721E+02  1.9467E+02  2.5914E+02
:PLANE:  PW TOTAL      5.8522 DISTAN   1.72E-02  2.93E-01 %
:CHARG:  CLM/ATOM   1381.9245 DISTAN   8.63E-02  6.24E-03 %
 
Step History
        DMIX         DMIXT        Red     Pred      Trust     Lambda    MagRel    MagAbs     Beta
  1   3.5000E-02   3.5000E-02 -1.00E+00  1.00E+00 -1.00E+01  1.00E+00  3.50E-02  3.50E-02  1.00E+00
:INFO :  Note, Pratt in use
:TRUST:  Step 3.75E-02  Charge 7.50E-02 (e) CTO  2.50E-01 (e) PW  3.50E-01 (e)
:DIRM :  MEMORY  0/ 8 SCALE   1.000
Performing Pseudo Compensation
Final Pseudo Compensation Rescaling     1.00000E+00
:MIX  :   PRATT  REGULARIZATION:  1.00E-04 GREED: 0.02500                  
     
       CHARGES OF MIXED CHARGE DENSITY
:CTO   : INTERSTITIAL CHARGE =     6.095753
:CPC   : PW Pseudocharge     =    17.796086
:CTO001: CHARGE SPHERE  1    =    55.952124

:NEC03: NUCLEAR AND ELECTRONIC CHARGE    118.00000   118.00000

PW CHANGE     H    K    L      Current       Change    Residue
:PTO001:      0    0    0  9.21980733E-02  4.421E-05  3.823E-04
:PTO003:      0    2    0  2.00698644E-02  1.143E-05 -2.636E-05
:PTO004:     -1    1    0  9.20059695E-02  6.101E-05  2.778E-05
:PTO005:      0    2   -1 -1.04408170E-01 -7.112E-05 -2.863E-05
:PTO006:      0    0   -2 -5.41571827E-02 -3.688E-05 -1.373E-05
:PTO007:     -1    1   -1 -1.05992105E-01 -7.661E-05 -1.513E-05
:PTO008:      0    2   -2 -1.36173491E-02 -1.246E-05 -2.167E-05
:PTO009:     -1    1   -2 -6.68944035E-02 -5.806E-05  3.178E-07
:PTO011:     -1    3    0 -9.25271780E-03 -8.769E-06 -1.032E-05
:PTO012:     -1    3   -1 -3.62958568E-02 -3.631E-05 -1.842E-05
:PTO013:      0    4    0 -5.73624069E-03 -6.338E-06 -9.714E-06
:PTO014:      0    2   -3  1.34231501E-02  1.467E-05  4.025E-05

:ENE  : ********** TOTAL ENERGY IN Ry =       -36944.15528140

       TOTAL FORCE IN mRy/a.u. = |F|     Fx             Fy             Fz     with/without FOR in case.in2
:FOR001:   1.ATOM          1.861          0.000          0.000          1.861 partial forces
       TOTAL FORCE WITH RESPECT TO GLOBAL CARTESIAN COORDINATES:
:FCA001:   1.ATOM                         0.000          1.861          0.000 partial forces
       TOTAL FORCE WITH RESPECT TO THE GLOBAL COORDINATE SYSTEM:
:FGL001:   1.ATOM                 0.000000000     1.861315761     0.000000000 partial forces

------- case.scf0 --------
 Flat Integration
 New Mode for Coulomb Integral
 Consistent 3/8+Simpson combinations
 Extension of core to zero
 LDM version in phi
 Fifth-order quadrature in outwin


            ---------
:ITE084: 84. ITERATION
            ---------

:NATO :    1 INDEPENDENT AND    2 TOTAL ATOMS IN UNITCELL
       SUBSTANCE: aU                                                          

       LATTICE                      = CXY 
:POT  : POTENTIAL OPTION EX_LDA EC_LDA VX_LDA VC_LDA
:LAT  : LATTICE CONSTANTS=  5.26305 10.68006  9.22032    1.571    1.571    1.571
:VOL  : UNIT CELL VOLUME =     259.13599
       MODE OF CALCULATION IS       = RELA
       NON-SPINPOLARIZED CALCULATION
:IFFT  : FFT-parameters:   48   90   72 Factor: 2.00


   CONVERGENCE PARAMETER FOR PSEUDOCHARGE: NCON=  9
   MAXIMAL VALUE OF RMT(JATOM)*ABSK(NKK) : RK  =27.59449


:VKCOUL :  VK-COUL convergence: 0.252E-06
       ATOMNUMBER=  1 Pr1        VCOUL-ZERO =  0.72626E+00
:EFG001:                        EFG         =     8.95127   *10**21  V / m**2
                               V20  TOT/SRF=    -6.17884    -0.08117
                               V22  TOT/SRF=    -5.38391    -0.01143
                               V22M TOT/SRF=     0.00000     0.00000
                               V21  TOT/SRF=     0.00000     0.00000
                               V21M TOT/SRF=     0.00000     0.00000

             -1.81655    0.00000    0.00000       -1.81655    0.00000    0.00000
              0.00000    8.95127    0.00000        0.00000    8.95127    0.00000
              0.00000    0.00000   -7.13471        0.00000    0.00000   -7.13471

         MAIN DIRECTIONS OF THE EFG   1.0000  0.0000  0.0000
                                      0.0000  1.0000  0.0000
                                      0.0000  0.0000  1.0000
:ANG001:  ANGLE WITH OLD X-AXIS =         0.0

:ETA001:                         ASYMM. ETA =     0.59412


     HELLMANN-FEYNMAN-FORCE IN mRy/a.u. = |F|  Fx       Fy             Fz
:FHF001:   1.ATOM   1258.211669078386      0.000000000000      0.000000000000  -1258.211669078386

:FIT001: LUSE= 13 SIGMA OF V-XC FIT FOR ATOM  1  0.1093753E-03
:FIT001: LUSE= 13 SIGMA OF V-XC FIT FOR ATOM  1  0.1093753E-03
:DEN  : DENSITY INTEGRAL  =        -14231.36193740   (Ry)
       ELS_POTENTIAL_AT Z=0 and Z=0.5:   1.05723   1.05723
       ELS_POTENTIAL_AT Y=0 and Y=0.5:  -0.02720  -0.02720
:VZERO:v0,v0c,v0x   0.28649   1.05723  -0.77073 v5,v5c,v5x   0.28649   1.05723  -0.77073
:VZERY:v0,v0c,v0x  -1.02409  -0.02720  -0.99689 v5,v5c,v5x  -1.02409  -0.02720  -0.99689
:VZERX:v0,v0c,v0x  -1.32579  -0.39620  -0.92959 v5,v5c,v5x  -1.32579  -0.39620  -0.92959

------- case.scf1 --------
:LMAX-WF:   10   Non-Spherical LMAX:   4

          ATOMIC SPHERE DEPENDENT PARAMETERS FOR ATOM  Pr1       
:e__0001: OVERALL ENERGY PARAMETER IS    1.0630
          OVERALL BASIS SET ON ATOM IS LAPW
:E0_0001: E( 0)=    1.0630
             APW+lo
:E0_0001: E( 0)=   -1.3400   E(BOTTOM)=   -1.987   E(TOP)=   -0.693  4  5   248
             LOCAL ORBITAL
:E1_0001: E( 1)=    1.4630
             APW+lo
:E1_0001: E( 1)=    0.1242   E(BOTTOM)=   -0.848   E(TOP)=    1.097  3  4   250
             LOCAL ORBITAL
:E3_0001: E( 3)=    1.3211   E(BOTTOM)=    1.107   E(TOP)=    1.535  0  1   124
             APW+lo
:E2_0001: E( 2)=    1.0630   E(BOTTOM)=    0.882   E(TOP)= -200.000  2 -1   121
             APW+lo

       K=   0.06250   0.00000   0.06250            1
:RKM  : MATRIX SIZE   266LOs:  40  RKM= 8.47  WEIGHT= 4.00  PGR:    
       EIGENVALUES ARE:
:EIG00001:      -1.4126628   -1.3067444   -0.2552190    0.0582321    0.1328126
:EIG00006:       0.1596581    0.1884932    0.1923805    1.1056003    1.1612918
:EIG00011:       1.2427789    1.2567272    1.2621308    1.2723764    1.2963259
:EIG00016:       1.3286415    1.3417380    1.3465715    1.3530079    1.3581139
:EIG00021:       1.3634850    1.3696429    1.3771272    1.4065085    1.4152706
:EIG00026:       1.4474878    1.5206449    1.5328730    1.6116786    1.6586762
:EIG00031:       1.7310717    1.9175266    1.9815359    2.0316707    2.3213329
:EIG00036:       2.3673354    2.4064774    2.6748219    2.6902430    2.8382421
:EIG00041:       3.0446079    3.0878188    3.2524677    3.3171319    3.4648419
:EIG00046:       3.4718772    3.5024143    3.6786280    3.6943138    3.8354278
 
:EIG00051:       3.9530218    4.0973196    4.1677604    4.3098378    4.3380019
:EIG00056:       4.4339502    4.5026696    4.7097564    4.7562735    4.7610156
:EIG00061:       4.7988003    4.9306560    4.9888521    5.1366377    5.1827780
:EIG00066:       5.2092775    5.2340503    5.2588216    5.4072499    5.4792894
:EIG00071:       5.5431024    5.6311938    5.6920369    5.7488058    5.7488640
:EIG00076:       5.7700758    5.8158220    5.8324578    5.8646929    5.9614847
:EIG00081:       5.9842349    6.0423776    6.0674305    6.1544635    6.2095695
:EIG00086:       6.2263251    6.3601178    6.4463354    6.4701087    6.5381970
:EIG00091:       6.6014212    6.6680284    6.6980388    6.7330169    6.7334772
:EIG00096:       6.8972043    6.9383906    6.9810279    6.9915725    7.0800414
 
:EIG00101:       7.1534295    7.2131319    7.2675060    7.3056320    7.3169152
:EIG00106:       7.4181973    7.4846170    7.5734791    7.6443195    7.8152992
:EIG00111:       7.9230964    7.9367404    7.9479916    8.0300200    8.1421256
:EIG00116:       8.1897111    8.4055998    8.4706776    8.5138507    8.5588599
:EIG00121:       8.5922844    8.6296704    8.6661530
       ********************************************************

:KPT   :      NUMBER OF K-POINTS:   288

------- case.scfso --------
   0.0   0.0 angle (M,z), angle (M,x) deg
 
        SPIN-ORBIT EIGENVALUES:
     K=   0.06250   0.00000   0.06250            1
      MATRIX SIZE=  246   WEIGHT= 4.00
     EIGENVALUES ARE:
          -1.4126665   -1.4126665   -1.3067476   -1.3067476   -0.2814022
          -0.2814022   -0.0020107   -0.0020107    0.0421717    0.0421717
           0.2179653    0.2179653    0.2257482    0.2257482    0.2533871
           0.2533871    1.1055222    1.1055222    1.1614549    1.1614549
           1.2419202    1.2419202    1.2554259    1.2554259    1.2607899
           1.2607899    1.2713905    1.2713905    1.2947544    1.2947544
           1.3239384    1.3239385    1.3360232    1.3360233    1.3452906
           1.3452906    1.3568074    1.3568074    1.3601456    1.3601456

           1.3654334    1.3654334    1.3704936    1.3704936    1.3801396
           1.3801396    1.4084494    1.4084494    1.4168212    1.4168212
           1.4480073    1.4480073    1.5186224    1.5186224    1.5352406
           1.5352406    1.6122033    1.6122033    1.6587241    1.6587241
           1.7313991    1.7313991    1.9177386    1.9177386    1.9816135
           1.9816135    2.0319976    2.0319976    2.3218827    2.3218827
           2.3674393    2.3674393    2.4064992    2.4064992    2.6745130
           2.6745130    2.6901802    2.6901802    2.8376354    2.8376354

           3.0450013    3.0450013    3.0874964    3.0874964    3.2525784
           3.2525784    3.3166875    3.3166875    3.4647041    3.4647041
           3.4715156    3.4715156    3.5026971    3.5026971    3.6763970
           3.6763970    3.6966607    3.6966607    3.8357853    3.8357853
           3.9527586    3.9527586    4.0960750    4.0960750    4.1675797
           4.1675797    4.3094304    4.3094304    4.3378746    4.3378746
           4.4340150    4.4340150    4.4997799    4.4997799
       ********************************************************

------- case.scf2 --------
:GMA  : POTENTIAL AND CHARGE CUT-OFF  12.00 Ry**.5




:POS001: at.nr.  -1 position = 0.00000 0.89750 0.25000  multiplicity =  2

       lmmax 16
       lm=   0 0  1 0  2 0  2 2  3 0  3 2  4 0  4 2  4 4  5 0  5 2  5 4  6 0  6 2  6 4  6 6
:FER gutzwiller fermi energy   1.28149
:EORB          0.176363029
:SUM sum of gutz band energies          6.612943176

:CHA001: total charge inside sphere   1 =     9.926106
:PCS001: partial charges sphere =  1 s,p,d,f,px,py,pz,d-z2,d-x2y2,d-xy,d-xz,d-yz 
:QTL001: 1.9294 4.9481 0.9805 2.0630 1.6509 1.6444 1.6528 0.1940 0.1761 0.1985 0.2037 0.2083

                      vxx         vyy         vzz       up to r

:VZZ001:            -1.62242     9.08353    -7.46112       2.300

:CHA  : total charge inside unit cell =      13.000000

------- case.scfc --------

        1.ATOM      Pr1                  14 CORE STATES
       CORE-FORCE in mRy/a.u. = |F|      Fx             Fy             Fz
:FCO001:   1.ATOM   1259.939386303930      0.000000000000      0.000000000000   1259.939386303930

:1S 001: 1S               -3066.262160447 Ry
:2S 001: 2S                -492.009693334 Ry
:2PP001: 2P*               -465.109219803 Ry
:2P 001: 2P                -429.711542763 Ry
:3S 001: 3S                -105.103184041 Ry
:3PP001: 3P*                -93.640936606 Ry
:3P 001: 3P                 -86.633164695 Ry
:3DD001: 3D*                -66.559380689 Ry
:3D 001: 3D                 -65.047872491 Ry
:4S 001: 4S                 -19.778286953 Ry
:4PP001: 4P*                -15.484911608 Ry
:4P 001: 4P                 -13.957280696 Ry
:4DD001: 4D*                 -6.889851474 Ry
:4D 001: 4D                  -6.620397885 Ry

------- case.scfm --------
:CINT001 Core Integral Atom   1   45.998438

       DENSITY AT NUCLEUS
        JATOM        VALENCE       SEMI-CORE          CORE           TOTAL
:RTO001:   1      638.070801        0.000000   656825.471192   657463.541993
     
       CHARGES OF NEW CHARGE DENSITY
:NTO   : INTERSTITIAL CHARGE =     6.147701
:NPC   : PW Pseudocharge     =    17.815447
:NTO001: CHARGE SPHERE  1    =    55.924544

:NEC01: NUCLEAR AND ELECTRONIC CHARGE    118.00000   117.99679
     
       CHARGES OF OLD CHARGE DENSITY
:OTO   : INTERSTITIAL CHARGE =     6.095753
:OPC   : PW Pseudocharge     =    17.796086
:OTO001: CHARGE SPHERE  1    =    55.952124

:NEC02: NUCLEAR AND ELECTRONIC CHARGE    118.00000   118.00000
     
       CONVERGENCE TEST
:DTO001: DIFFERENCE IN SPHERE  1 =  0.0563985

:DIS  :  CHARGE DISTANCE       ( 0.0563985 for atom    1 spin 1)      0.0563985
 PW Mixed is          280
 
******************************************************
* MULTISECANT MIXING VER9 RELEASE 10.4.0              *
* Slow Mode, cautious                                *
* Fixed density scale                                *
* Regularization       1.000E-04                     *
* Step Trust Radius    0.75000                       *
* Trust Upper Limit    2.000E+00                     *
* Max Number of Memory Steps   12                    *
******************************************************
 
:PWTMP   1.5721E+02  1.9467E+02  2.5914E+02
:PLANE:  PW TOTAL      5.8556 DISTAN   1.46E-02  2.49E-01 %
:CHARG:  CLM/ATOM   1381.9244 DISTAN   7.99E-02  5.78E-03 %
 
Step History
        DMIX         DMIXT        Red     Pred      Trust     Lambda    MagRel    MagAbs     Beta
  1   3.5000E-02   3.5000E-02 -1.00E+00  1.00E+00 -1.00E+01  1.00E+00  3.50E-02  3.50E-02  1.00E+00
  2   2.5000E-02   2.5000E-02 -1.00E+00  1.00E+00 -1.00E+01  1.00E+00  2.50E-02  2.20E-03  1.00E+00
:JACOBIANS    1.050E-01   1.173E-01
  
:NORMS:  1/Froebius, Min, Max, Used   0.2888E+00  0.2888E+00  0.4398E+00  0.2888E+00
:INFO :  Number of Memory Steps    1 Skipping    0
:PREDicted Charge, CTotal, PW Trust    7.442E-03   1.488E-02   6.940E-02
:PREDicted DMix, Beta, BLim   1.0000E-02  9.9845E+00  6.9666E-01

Eigenvalues, unscaled except for SY+YY
   #     SY Real        SY Imag          SS             YY         SY+YY Real      SY+YY Imag
   1   4.398318E-01   0.000000E+00   2.888302E-01   1.000000E+00   1.439832E+00   0.000000E+00
 
:BLIM :  VZERO Control Off
:TRUST:  Step 6.97E-01  Charge 7.50E-02 (e) CTO  2.50E-01 (e) PW  3.50E-01 (e)
:DIRM :  MEMORY  1/12 SCALE   1.000 RED  0.92 PRED  1.00 NEXT  0.51 
:TRAVE:  Charge 6.85E-03 (e) CTO  1.37E-02 (e) PW  6.18E-02 (e)
:DIRP :  |MSR1|= 3.157E-02 |PRATT|= 1.458E-02 ANGLE=  61.9 DEGREES
:DIRQ :  |MSR1|= 1.983E-02 |PRATT|= 7.990E-02 ANGLE=   0.3 DEGREES
:DIRT :  |MSR1|= 3.728E-02 |PRATT|= 8.122E-02 ANGLE=  53.5 DEGREES
:MIX  :   MSR1   REGULARIZATION:  1.00E-04 GREED: 0.02000  Newton 1.00  0.4590                
     
       CHARGES OF MIXED CHARGE DENSITY
:CTO   : INTERSTITIAL CHARGE =     6.109446
:CPC   : PW Pseudocharge     =    17.884264
:CTO001: CHARGE SPHERE  1    =    55.945277

:NEC03: NUCLEAR AND ELECTRONIC CHARGE    118.00000   118.00000

PW CHANGE     H    K    L      Current       Change    Residue
:PTO001:      0    0    0  9.25911936E-02  3.931E-04  3.235E-04
:PTO003:      0    2    0  2.01704047E-02  1.005E-04 -3.466E-05
:PTO004:     -1    1    0  9.25441509E-02  5.382E-04 -2.489E-05
:PTO005:      0    2   -1 -1.05035513E-01 -6.273E-04  3.258E-05
:PTO006:      0    0   -2 -5.44826267E-02 -3.254E-04  1.744E-05
:PTO007:     -1    1   -1 -1.06667685E-01 -6.756E-04  5.033E-05
:PTO008:      0    2   -2 -1.37276342E-02 -1.103E-04 -1.129E-05
:PTO009:     -1    1   -2 -6.74066016E-02 -5.122E-04  4.760E-05
:PTO011:     -1    3    0 -9.33013601E-03 -7.742E-05 -2.456E-06
:PTO012:     -1    3   -1 -3.66169026E-02 -3.210E-04  9.402E-06
:PTO013:      0    4    0 -5.79236838E-03 -5.613E-05 -4.647E-06
:PTO014:      0    2   -3  1.35533289E-02  1.302E-04  2.802E-05

:ENE  : ********** TOTAL ENERGY IN Ry =       -36944.15520941

       TOTAL FORCE IN mRy/a.u. = |F|     Fx             Fy             Fz     with/without FOR in case.in2
:FOR001:   1.ATOM          1.728          0.000          0.000          1.728 partial forces
       TOTAL FORCE WITH RESPECT TO GLOBAL CARTESIAN COORDINATES:
:FCA001:   1.ATOM                         0.000          1.728          0.000 partial forces
       TOTAL FORCE WITH RESPECT TO THE GLOBAL COORDINATE SYSTEM:
:FGL001:   1.ATOM                 0.000000000     1.727717226     0.000000000 partial forces

------- case.scf0 --------
 Flat Integration
 New Mode for Coulomb Integral
 Consistent 3/8+Simpson combinations
 Extension of core to zero
 LDM version in phi
 Fifth-order quadrature in outwin


            ---------
:ITE085: 85. ITERATION
            ---------

:NATO :    1 INDEPENDENT AND    2 TOTAL ATOMS IN UNITCELL
       SUBSTANCE: aU                                                          

       LATTICE                      = CXY 
:POT  : POTENTIAL OPTION EX_LDA EC_LDA VX_LDA VC_LDA
:LAT  : LATTICE CONSTANTS=  5.26305 10.68006  9.22032    1.571    1.571    1.571
:VOL  : UNIT CELL VOLUME =     259.13599
       MODE OF CALCULATION IS       = RELA
       NON-SPINPOLARIZED CALCULATION
:IFFT  : FFT-parameters:   48   90   72 Factor: 2.00


   CONVERGENCE PARAMETER FOR PSEUDOCHARGE: NCON=  9
   MAXIMAL VALUE OF RMT(JATOM)*ABSK(NKK) : RK  =27.59449


:VKCOUL :  VK-COUL convergence: 0.253E-06
       ATOMNUMBER=  1 Pr1        VCOUL-ZERO =  0.72870E+00
:EFG001:                        EFG         =     8.99684   *10**21  V / m**2
                               V20  TOT/SRF=    -6.27134    -0.08154
                               V22  TOT/SRF=    -5.37608    -0.01138
                               V22M TOT/SRF=     0.00000     0.00000
                               V21  TOT/SRF=     0.00000     0.00000
                               V21M TOT/SRF=     0.00000     0.00000

             -1.75532    0.00000    0.00000       -1.75532    0.00000    0.00000
              0.00000    8.99684    0.00000        0.00000    8.99684    0.00000
              0.00000    0.00000   -7.24152        0.00000    0.00000   -7.24152

         MAIN DIRECTIONS OF THE EFG   1.0000  0.0000  0.0000
                                      0.0000  1.0000  0.0000
                                      0.0000  0.0000  1.0000
:ANG001:  ANGLE WITH OLD X-AXIS =         0.0

:ETA001:                         ASYMM. ETA =     0.60979


     HELLMANN-FEYNMAN-FORCE IN mRy/a.u. = |F|  Fx       Fy             Fz
:FHF001:   1.ATOM   1266.297482283866      0.000000000000      0.000000000000  -1266.297482283866

:FIT001: LUSE= 13 SIGMA OF V-XC FIT FOR ATOM  1  0.1096932E-03
:FIT001: LUSE= 13 SIGMA OF V-XC FIT FOR ATOM  1  0.1096932E-03
:DEN  : DENSITY INTEGRAL  =        -14230.03686028   (Ry)
       ELS_POTENTIAL_AT Z=0 and Z=0.5:   1.06050   1.06050
       ELS_POTENTIAL_AT Y=0 and Y=0.5:  -0.02723  -0.02723
:VZERO:v0,v0c,v0x   0.28922   1.06050  -0.77128 v5,v5c,v5x   0.28922   1.06050  -0.77128
:VZERY:v0,v0c,v0x  -1.02517  -0.02723  -0.99795 v5,v5c,v5x  -1.02517  -0.02723  -0.99795
:VZERX:v0,v0c,v0x  -1.32837  -0.39772  -0.93065 v5,v5c,v5x  -1.32837  -0.39772  -0.93065

------- case.scf1 --------
:LMAX-WF:   10   Non-Spherical LMAX:   4

          ATOMIC SPHERE DEPENDENT PARAMETERS FOR ATOM  Pr1       
:e__0001: OVERALL ENERGY PARAMETER IS    1.0630
          OVERALL BASIS SET ON ATOM IS LAPW
:E0_0001: E( 0)=    1.0630
             APW+lo
:E0_0001: E( 0)=   -1.3430   E(BOTTOM)=   -1.989   E(TOP)=   -0.697  4  5   245
             LOCAL ORBITAL
:E1_0001: E( 1)=    1.4630
             APW+lo
:E1_0001: E( 1)=    0.1219   E(BOTTOM)=   -0.849   E(TOP)=    1.093  3  4   246
             LOCAL ORBITAL
:E3_0001: E( 3)=    1.3137   E(BOTTOM)=    1.101   E(TOP)=    1.526  0  1   123
             APW+lo
:E2_0001: E( 2)=    1.0630   E(BOTTOM)=    0.881   E(TOP)= -200.000  2 -1   121
             APW+lo

       K=   0.06250   0.00000   0.06250            1
:RKM  : MATRIX SIZE   266LOs:  40  RKM= 8.47  WEIGHT= 4.00  PGR:    
       EIGENVALUES ARE:
:EIG00001:      -1.4148703   -1.3093626   -0.2557762    0.0567703    0.1311103
:EIG00006:       0.1578201    0.1866062    0.1904401    1.1067192    1.1622435
:EIG00011:       1.2395214    1.2519778    1.2566574    1.2675041    1.2914520
:EIG00016:       1.3220482    1.3349403    1.3396797    1.3462939    1.3515253
:EIG00021:       1.3590055    1.3635548    1.3698591    1.3987469    1.4091475
:EIG00026:       1.4435484    1.5205367    1.5310629    1.6113220    1.6583569
:EIG00031:       1.7305854    1.9169460    1.9815081    2.0308463    2.3213739
:EIG00036:       2.3674276    2.4069376    2.6757685    2.6906871    2.8385082
:EIG00041:       3.0451227    3.0885381    3.2535471    3.3177954    3.4659019
:EIG00046:       3.4732521    3.5033974    3.6799921    3.6954628    3.8370478
 
:EIG00051:       3.9540930    4.0982996    4.1683968    4.3108799    4.3382731
:EIG00056:       4.4347630    4.5034544    4.7107485    4.7563559    4.7623897
:EIG00061:       4.8005743    4.9320966    4.9896143    5.1374686    5.1833842
:EIG00066:       5.2110282    5.2352240    5.2604842    5.4086004    5.4806949
:EIG00071:       5.5448518    5.6324764    5.6935360    5.7504843    5.7505956
:EIG00076:       5.7715391    5.8173618    5.8341494    5.8663637    5.9633171
:EIG00081:       5.9861257    6.0441108    6.0693173    6.1564084    6.2117429
:EIG00086:       6.2281401    6.3620770    6.4485424    6.4717906    6.5400566
:EIG00091:       6.6031530    6.6700419    6.6994856    6.7340818    6.7349227
:EIG00096:       6.8994474    6.9398051    6.9827640    6.9933525    7.0816093
 
:EIG00101:       7.1551067    7.2151911    7.2695943    7.3070510    7.3185936
:EIG00106:       7.4206259    7.4863143    7.5746927    7.6458023    7.8175504
:EIG00111:       7.9252284    7.9383888    7.9501145    8.0315736    8.1439302
:EIG00116:       8.1918864    8.4069275    8.4722793    8.5150754    8.5606599
:EIG00121:       8.5942902    8.6312441    8.6673766
       ********************************************************

:KPT   :      NUMBER OF K-POINTS:   288

------- case.scfso --------
   0.0   0.0 angle (M,z), angle (M,x) deg
 
        SPIN-ORBIT EIGENVALUES:
     K=   0.06250   0.00000   0.06250            1
      MATRIX SIZE=  246   WEIGHT= 4.00
     EIGENVALUES ARE:
          -1.4148740   -1.4148740   -1.3093658   -1.3093658   -0.2821512
          -0.2821512   -0.0040211   -0.0040211    0.0407095    0.0407095
           0.2163038    0.2163038    0.2239912    0.2239912    0.2516299
           0.2516299    1.1066379    1.1066379    1.1624027    1.1624027
           1.2385758    1.2385758    1.2506220    1.2506220    1.2552812
           1.2552812    1.2664777    1.2664777    1.2897814    1.2897814
           1.3172098    1.3172098    1.3294224    1.3294224    1.3386332
           1.3386332    1.3502695    1.3502695    1.3539039    1.3539039

           1.3604259    1.3604259    1.3643813    1.3643813    1.3730449
           1.3730449    1.4007247    1.4007247    1.4106876    1.4106876
           1.4439976    1.4439977    1.5181081    1.5181081    1.5337695
           1.5337695    1.6118509    1.6118509    1.6583964    1.6583964
           1.7309122    1.7309122    1.9171588    1.9171588    1.9815769
           1.9815769    2.0311787    2.0311787    2.3219241    2.3219241
           2.3675305    2.3675305    2.4069584    2.4069584    2.6754529
           2.6754529    2.6906321    2.6906321    2.8379019    2.8379019

           3.0455168    3.0455168    3.0882154    3.0882154    3.2536535
           3.2536535    3.3173528    3.3173528    3.4657760    3.4657760
           3.4728781    3.4728781    3.5036807    3.5036807    3.6777337
           3.6777337    3.6978362    3.6978362    3.8374038    3.8374038
           3.9538295    3.9538295    4.0970456    4.0970456    4.1682230
           4.1682230    4.3104719    4.3104719    4.3381463    4.3381463
           4.4348342    4.4348342
       ********************************************************

------- case.scf2 --------
:GMA  : POTENTIAL AND CHARGE CUT-OFF  12.00 Ry**.5




:POS001: at.nr.  -1 position = 0.00000 0.89750 0.25000  multiplicity =  2

       lmmax 16
       lm=   0 0  1 0  2 0  2 2  3 0  3 2  4 0  4 2  4 4  5 0  5 2  5 4  6 0  6 2  6 4  6 6
:FER gutzwiller fermi energy   1.28117
:EORB          0.146045175
:SUM sum of gutz band energies          6.595431837

:CHA001: total charge inside sphere   1 =     9.943580
:PCS001: partial charges sphere =  1 s,p,d,f,px,py,pz,d-z2,d-x2y2,d-xy,d-xz,d-yz 
:QTL001: 1.9295 4.9509 0.9774 2.0809 1.6518 1.6454 1.6537 0.1932 0.1755 0.1980 0.2030 0.2077

                      vxx         vyy         vzz       up to r

:VZZ001:            -1.62414     8.97841    -7.35427       2.300

:CHA  : total charge inside unit cell =      13.000000

------- case.scfc --------

        1.ATOM      Pr1                  14 CORE STATES
       CORE-FORCE in mRy/a.u. = |F|      Fx             Fy             Fz
:FCO001:   1.ATOM   1266.835796472131      0.000000000000      0.000000000000   1266.835796472131

:1S 001: 1S               -3066.277824992 Ry
:2S 001: 2S                -492.025534055 Ry
:2PP001: 2P*               -465.125022567 Ry
:2P 001: 2P                -429.727359313 Ry
:3S 001: 3S                -105.118851191 Ry
:3PP001: 3P*                -93.656630361 Ry
:3P 001: 3P                 -86.648797316 Ry
:3DD001: 3D*                -66.575113393 Ry
:3D 001: 3D                 -65.063591604 Ry
:4S 001: 4S                 -19.790222518 Ry
:4PP001: 4P*                -15.496602133 Ry
:4P 001: 4P                 -13.968595459 Ry
:4DD001: 4D*                 -6.900493326 Ry
:4D 001: 4D                  -6.630910958 Ry

------- case.scfm --------
:CINT001 Core Integral Atom   1   45.998448

       DENSITY AT NUCLEUS
        JATOM        VALENCE       SEMI-CORE          CORE           TOTAL
:RTO001:   1      638.665259        0.000000   656826.218682   657464.883941
     
       CHARGES OF NEW CHARGE DENSITY
:NTO   : INTERSTITIAL CHARGE =     6.113001
:NPC   : PW Pseudocharge     =    17.803897
:NTO001: CHARGE SPHERE  1    =    55.942028

:NEC01: NUCLEAR AND ELECTRONIC CHARGE    118.00000   117.99706
     
       CHARGES OF OLD CHARGE DENSITY
:OTO   : INTERSTITIAL CHARGE =     6.109446
:OPC   : PW Pseudocharge     =    17.884264
:OTO001: CHARGE SPHERE  1    =    55.945277

:NEC02: NUCLEAR AND ELECTRONIC CHARGE    118.00000   118.00000
     
       CONVERGENCE TEST
:DTO001: DIFFERENCE IN SPHERE  1 =  0.0181542

:DIS  :  CHARGE DISTANCE       ( 0.0181542 for atom    1 spin 1)      0.0181542
 PW Mixed is          280
 
******************************************************
* MULTISECANT MIXING VER9 RELEASE 10.4.0              *
* Slow Mode, cautious                                *
* Fixed density scale                                *
* Regularization       1.000E-04                     *
* Step Trust Radius    0.75000                       *
* Trust Upper Limit    2.000E+00                     *
* Max Number of Memory Steps   12                    *
******************************************************
 
:PWTMP   1.5721E+02  1.9467E+02  2.5914E+02
:PLANE:  PW TOTAL      5.8865 DISTAN   2.61E-02  4.43E-01 %
:CHARG:  CLM/ATOM   1381.9240 DISTAN   2.58E-02  1.87E-03 %
 
Step History
        DMIX         DMIXT        Red     Pred      Trust     Lambda    MagRel    MagAbs     Beta
  1   3.5000E-02   3.5000E-02 -1.00E+00  1.00E+00 -1.00E+01  1.00E+00  3.50E-02  3.50E-02  1.00E+00
  2   2.5000E-02   2.5000E-02  9.23E-01  1.00E+00 -1.00E+01  1.00E+00  2.50E-02  2.20E-03  1.00E+00
  3   2.0000E-02   2.0000E-02 -1.00E+00  5.13E-01  6.97E-01  1.00E+00  4.59E-01  3.73E-02  1.00E+00
:JACOBIANS    1.372E-01   1.658E-01
  
:NORMS:  1/Froebius, Min, Max, Used   0.4652E+00  0.3986E+00  0.7198E+00  0.4652E+00
:INFO :  Number of Memory Steps    2 Skipping    0
:INFO :  SLambda=    1.0523673277  Max    1.0523673277
:PREDicted Charge, CTotal, PW Trust    5.763E-03   1.153E-02   5.173E-02
:PREDicted DMix, Beta, BLim   9.8871E-03  8.4164E-01  5.2451E-01

Eigenvalues, unscaled except for SY+YY
   #     SY Real        SY Imag          SS             YY         SY+YY Real      SY+YY Imag
   1   7.451797E-01   0.000000E+00   4.327629E-01   1.999975E+00   2.784172E+00   0.000000E+00
   2   3.802641E-06   0.000000E+00   5.158746E-07   2.545361E-05   3.475048E-05   0.000000E+00
 
:INFO :  Singular value  2.784E+00 Weight  1.000E+00 Projection  8.117E-03
:INFO :  Singular value  3.475E-05 Weight  2.931E-02 Projection -2.047E-01
:RANK :  ACTIVE   1.03/2  =  51.47 % ; YY RANK   1.02/2  =  50.80 %
 
:DLIM :  Beta Active  8.812E-01
:BLIM :  VZERO Control Off
:TRUST:  Step 8.71E-01  Charge 7.50E-02 (e) CTO  2.50E-01 (e) PW  3.50E-01 (e)
:DIRM :  MEMORY  2/12 SCALE   1.000 RED  0.45 PRED  0.51 NEXT  0.95 BETA  0.88
:TRAVE:  Charge 3.86E-03 (e) CTO  7.72E-03 (e) PW  3.57E-02 (e)
:DIRP :  |MSR1|= 5.090E-03 |PRATT|= 2.609E-02 ANGLE=   8.0 DEGREES
:DIRQ :  |MSR1|= 2.537E-03 |PRATT|= 2.584E-02 ANGLE= 104.1 DEGREES
:DIRT :  |MSR1|= 5.688E-03 |PRATT|= 3.672E-02 ANGLE=  56.4 DEGREES
:MIX  :   MSE1   REGULARIZATION:  2.00E-04 GREED: 0.01744  Newton 1.00  0.1549                
     
       CHARGES OF MIXED CHARGE DENSITY
:CTO   : INTERSTITIAL CHARGE =     6.107707
:CPC   : PW Pseudocharge     =    17.870080
:CTO001: CHARGE SPHERE  1    =    55.946147

:NEC03: NUCLEAR AND ELECTRONIC CHARGE    118.00000   118.00000

PW CHANGE     H    K    L      Current       Change    Residue
:PTO001:      0    0    0  9.25297449E-02 -6.145E-05 -2.520E-04
:PTO003:      0    2    0  2.01536637E-02 -1.674E-05 -1.027E-04
:PTO004:     -1    1    0  9.24560690E-02 -8.808E-05 -4.901E-04
:PTO005:      0    2   -1 -1.04932830E-01  1.027E-04  5.712E-04
:PTO006:      0    0   -2 -5.44294396E-02  5.319E-05  2.917E-04
:PTO007:     -1    1   -1 -1.06556914E-01  1.108E-04  6.234E-04
:PTO008:      0    2   -2 -1.37099650E-02  1.767E-05  8.179E-05
:PTO009:     -1    1   -2 -6.73228190E-02  8.378E-05  4.599E-04
:PTO011:     -1    3    0 -9.31753184E-03  1.260E-05  6.776E-05
:PTO012:     -1    3   -1 -3.65650525E-02  5.185E-05  2.544E-04
:PTO013:      0    4    0 -5.78338717E-03  8.981E-06  4.082E-05
:PTO014:      0    2   -3  1.35327207E-02 -2.061E-05 -8.506E-05

:ENE  : ********** TOTAL ENERGY IN Ry =       -36944.15503574

       TOTAL FORCE IN mRy/a.u. = |F|     Fx             Fy             Fz     with/without FOR in case.in2
:FOR001:   1.ATOM          0.538          0.000          0.000          0.538 partial forces
       TOTAL FORCE WITH RESPECT TO GLOBAL CARTESIAN COORDINATES:
:FCA001:   1.ATOM                         0.000          0.538          0.000 partial forces
       TOTAL FORCE WITH RESPECT TO THE GLOBAL COORDINATE SYSTEM:
:FGL001:   1.ATOM                 0.000000000     0.538314188     0.000000000 partial forces

------- case.scf0 --------
 Flat Integration
 New Mode for Coulomb Integral
 Consistent 3/8+Simpson combinations
 Extension of core to zero
 LDM version in phi
 Fifth-order quadrature in outwin


            ---------
:ITE086: 86. ITERATION
            ---------

:NATO :    1 INDEPENDENT AND    2 TOTAL ATOMS IN UNITCELL
       SUBSTANCE: aU                                                          

       LATTICE                      = CXY 
:POT  : POTENTIAL OPTION EX_LDA EC_LDA VX_LDA VC_LDA
:LAT  : LATTICE CONSTANTS=  5.26305 10.68006  9.22032    1.571    1.571    1.571
:VOL  : UNIT CELL VOLUME =     259.13599
       MODE OF CALCULATION IS       = RELA
       NON-SPINPOLARIZED CALCULATION
:IFFT  : FFT-parameters:   48   90   72 Factor: 2.00


   CONVERGENCE PARAMETER FOR PSEUDOCHARGE: NCON=  9
   MAXIMAL VALUE OF RMT(JATOM)*ABSK(NKK) : RK  =27.59449


:VKCOUL :  VK-COUL convergence: 0.253E-06
       ATOMNUMBER=  1 Pr1        VCOUL-ZERO =  0.72832E+00
:EFG001:                        EFG         =     8.99126   *10**21  V / m**2
                               V20  TOT/SRF=    -6.26221    -0.08150
                               V22  TOT/SRF=    -5.37577    -0.01138
                               V22M TOT/SRF=     0.00000     0.00000
                               V21  TOT/SRF=     0.00000     0.00000
                               V21M TOT/SRF=     0.00000     0.00000

             -1.76028    0.00000    0.00000       -1.76028    0.00000    0.00000
              0.00000    8.99126    0.00000        0.00000    8.99126    0.00000
              0.00000    0.00000   -7.23097        0.00000    0.00000   -7.23097

         MAIN DIRECTIONS OF THE EFG   1.0000  0.0000  0.0000
                                      0.0000  1.0000  0.0000
                                      0.0000  0.0000  1.0000
:ANG001:  ANGLE WITH OLD X-AXIS =         0.0

:ETA001:                         ASYMM. ETA =     0.60845


     HELLMANN-FEYNMAN-FORCE IN mRy/a.u. = |F|  Fx       Fy             Fz
:FHF001:   1.ATOM   1265.147300195118      0.000000000000      0.000000000000  -1265.147300195118

:FIT001: LUSE= 13 SIGMA OF V-XC FIT FOR ATOM  1  0.1096699E-03
:FIT001: LUSE= 13 SIGMA OF V-XC FIT FOR ATOM  1  0.1096699E-03
:DEN  : DENSITY INTEGRAL  =        -14230.20595303   (Ry)
       ELS_POTENTIAL_AT Z=0 and Z=0.5:   1.06002   1.06002
       ELS_POTENTIAL_AT Y=0 and Y=0.5:  -0.02724  -0.02724
:VZERO:v0,v0c,v0x   0.28881   1.06002  -0.77121 v5,v5c,v5x   0.28881   1.06002  -0.77121
:VZERY:v0,v0c,v0x  -1.02502  -0.02724  -0.99778 v5,v5c,v5x  -1.02502  -0.02724  -0.99778
:VZERX:v0,v0c,v0x  -1.32798  -0.39748  -0.93050 v5,v5c,v5x  -1.32798  -0.39748  -0.93050

------- case.scf1 --------
:LMAX-WF:   10   Non-Spherical LMAX:   4

          ATOMIC SPHERE DEPENDENT PARAMETERS FOR ATOM  Pr1       
:e__0001: OVERALL ENERGY PARAMETER IS    1.0630
          OVERALL BASIS SET ON ATOM IS LAPW
:E0_0001: E( 0)=    1.0630
             APW+lo
:E0_0001: E( 0)=   -1.3426   E(BOTTOM)=   -1.988   E(TOP)=   -0.697  4  5   240
             LOCAL ORBITAL
:E1_0001: E( 1)=    1.4630
             APW+lo
:E1_0001: E( 1)=    0.1221   E(BOTTOM)=   -0.849   E(TOP)=    1.093  3  4   251
             LOCAL ORBITAL
:E3_0001: E( 3)=    1.3146   E(BOTTOM)=    1.102   E(TOP)=    1.527  0  1   122
             APW+lo
:E2_0001: E( 2)=    1.0630   E(BOTTOM)=    0.881   E(TOP)= -200.000  2 -1   122
             APW+lo

       K=   0.06250   0.00000   0.06250            1
:RKM  : MATRIX SIZE   266LOs:  40  RKM= 8.47  WEIGHT= 4.00  PGR:    
       EIGENVALUES ARE:
:EIG00001:      -1.4146514   -1.3090914   -0.2557678    0.0568948    0.1312656
:EIG00006:       0.1579927    0.1867839    0.1906257    1.1065160    1.1620609
:EIG00011:       1.2398903    1.2525312    1.2572995    1.2680726    1.2920176
:EIG00016:       1.3228323    1.3357521    1.3405038    1.3470943    1.3523101
:EIG00021:       1.3595341    1.3642731    1.3707299    1.3996792    1.4098583
:EIG00026:       1.4439727    1.5204860    1.5312258    1.6113034    1.6583348
:EIG00031:       1.7305841    1.9169575    1.9814489    2.0308893    2.3213070
:EIG00036:       2.3673544    2.4068169    2.6755859    2.6905686    2.8384120
:EIG00041:       3.0449952    3.0883845    3.2533474    3.3176489    3.4657046
:EIG00046:       3.4730147    3.5032094    3.6797558    3.6952540    3.8367791
 
:EIG00051:       3.9538935    4.0981118    4.1682534    4.3106840    4.3381743
:EIG00056:       4.4345977    4.5032926    4.7105603    4.7562811    4.7621502
:EIG00061:       4.8002845    4.9318489    4.9894548    5.1373002    5.1832412
:EIG00066:       5.2107408    5.2350090    5.2602086    5.4083639    5.4804522
:EIG00071:       5.5445655    5.6322491    5.6932827    5.7502137    5.7503037
:EIG00076:       5.7712893    5.8171015    5.8338696    5.8660875    5.9630202
:EIG00081:       5.9858209    6.0438256    6.0690131    6.1560972    6.2114028
:EIG00086:       6.2278456    6.3617640    6.4481985    6.4715111    6.5397545
:EIG00091:       6.6028682    6.6697217    6.6992364    6.7338783    6.7346727
:EIG00096:       6.8990985    6.9395578    6.9824797    6.9930608    7.0813447
 
:EIG00101:       7.1548292    7.2148642    7.2692640    7.3068057    7.3183151
:EIG00106:       7.4202529    7.4860330    7.5744743    7.6455489    7.8171994
:EIG00111:       7.9248919    7.9381144    7.9497789    8.0313102    8.1436331
:EIG00116:       8.1915440    8.4066893    8.4720084    8.5148502    8.5603640
:EIG00121:       8.5939695    8.6309763    8.6671513
       ********************************************************

:KPT   :      NUMBER OF K-POINTS:   288

------- case.scfso --------
   0.0   0.0 angle (M,z), angle (M,x) deg
 
        SPIN-ORBIT EIGENVALUES:
     K=   0.06250   0.00000   0.06250            1
      MATRIX SIZE=  246   WEIGHT= 4.00
     EIGENVALUES ARE:
          -1.4146551   -1.4146551   -1.3090946   -1.3090946   -0.2821183
          -0.2821183   -0.0038270   -0.0038270    0.0408340    0.0408340
           0.2164538    0.2164538    0.2241534    0.2241534    0.2517914
           0.2517914    1.1064351    1.1064351    1.1622207    1.1622207
           1.2389562    1.2389562    1.2511825    1.2511825    1.2559279
           1.2559279    1.2670514    1.2670515    1.2903602    1.2903602
           1.3180116    1.3180116    1.3302073    1.3302073    1.3394281
           1.3394281    1.3510535    1.3510535    1.3546527    1.3546527

           1.3610111    1.3610111    1.3650985    1.3650985    1.3738927
           1.3738927    1.4016524    1.4016524    1.4114005    1.4114005
           1.4444311    1.4444312    1.5181120    1.5181120    1.5338861
           1.5338861    1.6118318    1.6118318    1.6583754    1.6583754
           1.7309110    1.7309110    1.9171702    1.9171702    1.9815188
           1.9815188    2.0312209    2.0312209    2.3218571    2.3218571
           2.3674575    2.3674575    2.4068378    2.4068378    2.6752712
           2.6752712    2.6905126    2.6905126    2.8378057    2.8378057

           3.0453893    3.0453893    3.0880618    3.0880618    3.2534544
           3.2534544    3.3172061    3.3172061    3.4655773    3.4655773
           3.4726422    3.4726422    3.5034926    3.5034926    3.6775010
           3.6775010    3.6976241    3.6976241    3.8371353    3.8371353
           3.9536300    3.9536300    4.0968590    4.0968590    4.1680788
           4.1680788    4.3102761    4.3102761    4.3380475    4.3380475
           4.4346681    4.4346681
       ********************************************************

------- case.scf2 --------
:GMA  : POTENTIAL AND CHARGE CUT-OFF  12.00 Ry**.5




:POS001: at.nr.  -1 position = 0.00000 0.89750 0.25000  multiplicity =  2

       lmmax 16
       lm=   0 0  1 0  2 0  2 2  3 0  3 2  4 0  4 2  4 4  5 0  5 2  5 4  6 0  6 2  6 4  6 6
:FER gutzwiller fermi energy   1.28097
:EORB          0.150664847
:SUM sum of gutz band energies          6.595285531

:CHA001: total charge inside sphere   1 =     9.942435
:PCS001: partial charges sphere =  1 s,p,d,f,px,py,pz,d-z2,d-x2y2,d-xy,d-xz,d-yz 
:QTL001: 1.9294 4.9504 0.9771 2.0805 1.6517 1.6452 1.6535 0.1932 0.1754 0.1980 0.2029 0.2077

                      vxx         vyy         vzz       up to r

:VZZ001:            -1.63328     8.98477    -7.35149       2.300

:CHA  : total charge inside unit cell =      13.000000

------- case.scfc --------

        1.ATOM      Pr1                  14 CORE STATES
       CORE-FORCE in mRy/a.u. = |F|      Fx             Fy             Fz
:FCO001:   1.ATOM   1265.870859898148      0.000000000000      0.000000000000   1265.870859898148

:1S 001: 1S               -3066.275687440 Ry
:2S 001: 2S                -492.023412473 Ry
:2PP001: 2P*               -465.122897302 Ry
:2P 001: 2P                -429.725235484 Ry
:3S 001: 3S                -105.116826617 Ry
:3PP001: 3P*                -93.654598294 Ry
:3P 001: 3P                 -86.646777190 Ry
:3DD001: 3D*                -66.573069536 Ry
:3D 001: 3D                 -65.061550936 Ry
:4S 001: 4S                 -19.788743316 Ry
:4PP001: 4P*                -15.495155122 Ry
:4P 001: 4P                 -13.967199041 Ry
:4DD001: 4D*                 -6.899184959 Ry
:4D 001: 4D                  -6.629619746 Ry

------- case.scfm --------
:CINT001 Core Integral Atom   1   45.998446

       DENSITY AT NUCLEUS
        JATOM        VALENCE       SEMI-CORE          CORE           TOTAL
:RTO001:   1      638.561616        0.000000   656826.103054   657464.664670
     
       CHARGES OF NEW CHARGE DENSITY
:NTO   : INTERSTITIAL CHARGE =     6.115309
:NPC   : PW Pseudocharge     =    17.803981
:NTO001: CHARGE SPHERE  1    =    55.940881

:NEC01: NUCLEAR AND ELECTRONIC CHARGE    118.00000   117.99707
     
       CHARGES OF OLD CHARGE DENSITY
:OTO   : INTERSTITIAL CHARGE =     6.107707
:OPC   : PW Pseudocharge     =    17.870080
:OTO001: CHARGE SPHERE  1    =    55.946147

:NEC02: NUCLEAR AND ELECTRONIC CHARGE    118.00000   118.00000
     
       CONVERGENCE TEST
:DTO001: DIFFERENCE IN SPHERE  1 =  0.0181567

:DIS  :  CHARGE DISTANCE       ( 0.0181567 for atom    1 spin 1)      0.0181567
 PW Mixed is          280
 
******************************************************
* MULTISECANT MIXING VER9 RELEASE 10.4.0              *
* Slow Mode, cautious                                *
* Fixed density scale                                *
* Regularization       1.000E-04                     *
* Step Trust Radius    0.75000                       *
* Trust Upper Limit    2.000E+00                     *
* Max Number of Memory Steps   12                    *
******************************************************
 
:PWTMP   1.5721E+02  1.9467E+02  2.5914E+02
:PLANE:  PW TOTAL      5.8815 DISTAN   2.14E-02  3.65E-01 %
:CHARG:  CLM/ATOM   1381.9243 DISTAN   2.58E-02  1.87E-03 %
 
Step History
        DMIX         DMIXT        Red     Pred      Trust     Lambda    MagRel    MagAbs     Beta
  1   3.5000E-02   3.5000E-02 -1.00E+00  1.00E+00 -1.00E+01  1.00E+00  3.50E-02  3.50E-02  1.00E+00
  2   2.5000E-02   2.5000E-02  9.23E-01  1.00E+00 -1.00E+01  1.00E+00  2.50E-02  2.20E-03  1.00E+00
  3   2.0000E-02   2.0000E-02  4.52E-01  5.13E-01  6.97E-01  1.05E+00  4.59E-01  3.73E-02  1.00E+00
  4   1.7444E-02   1.7444E-02 -1.00E+00  9.53E-01  8.71E-01  1.00E+00  1.55E-01  5.69E-03  8.81E-01
:JACOBIANS    4.466E-01   1.808E-01
  
:NORMS:  1/Froebius, Min, Max, Used   0.5345E+00  0.5051E+00  0.9714E+00  0.5387E+00
:INFO :  Number of Memory Steps    3 Skipping    0
:INFO :  SLambda=    0.8845479820  Max    0.8845479820
:PREDicted Charge, CTotal, PW Trust    3.599E-03   7.199E-03   6.065E-02
:PREDicted DMix, Beta, BLim   4.5725E-01  5.9846E+00  1.0130E+00

Eigenvalues, unscaled except for SY+YY
   #     SY Real        SY Imag          SS             YY         SY+YY Real      SY+YY Imag
   1   1.268862E+00   0.000000E+00   8.524264E-01   2.937278E+00   4.050168E+00   0.000000E+00
   2   2.069287E-09   0.000000E+00   4.762012E-03   6.272166E-02   4.609352E-08   0.000000E+00
   3   1.811775E-02   0.000000E+00   4.574361E-11   1.537131E-07   8.822796E-02   0.000000E+00
 
:INFO :  Singular value  4.054E+00 Weight  1.000E+00 Projection  3.258E-03
:INFO :  Singular value  8.815E-02 Weight  1.000E+00 Projection -1.307E-01
:INFO :  Singular value  4.609E-08 Weight  2.463E-08 Projection  3.467E-07
:RANK :  ACTIVE   2.00/3  =  66.67 % ; YY RANK   2.00/3  =  66.67 %
 
:BLIM :  VZERO Control Off
:TRUST:  Step 9.52E-01  Charge 7.50E-02 (e) CTO  2.50E-01 (e) PW  3.50E-01 (e)
:DIRM :  MEMORY  3/12 SCALE   1.000 RED  0.91 PRED  0.95 NEXT  0.12 
:TRAVE:  Charge 3.28E-03 (e) CTO  6.56E-03 (e) PW  4.29E-02 (e)
:DIRP :  |MSR1|= 2.780E-02 |PRATT|= 2.144E-02 ANGLE=   9.2 DEGREES
:DIRQ :  |MSR1|= 9.763E-03 |PRATT|= 2.583E-02 ANGLE=  89.2 DEGREES
:DIRT :  |MSR1|= 2.946E-02 |PRATT|= 3.357E-02 ANGLE=  53.2 DEGREES
:MIX  :   MSD1   REGULARIZATION:  2.94E-04 GREED: 0.04361  Newton 1.00  0.8776                
     
       CHARGES OF MIXED CHARGE DENSITY
:CTO   : INTERSTITIAL CHARGE =     6.102301
:CPC   : PW Pseudocharge     =    17.792946
:CTO001: CHARGE SPHERE  1    =    55.948849

:NEC03: NUCLEAR AND ELECTRONIC CHARGE    118.00000   118.00000

PW CHANGE     H    K    L      Current       Change    Residue
:PTO001:      0    0    0  9.22112264E-02 -3.185E-04 -1.815E-04
:PTO003:      0    2    0  2.00576557E-02 -9.601E-05 -8.929E-05
:PTO004:     -1    1    0  9.19641118E-02 -4.920E-04 -4.130E-04
:PTO005:      0    2   -1 -1.04359267E-01  5.736E-04  4.816E-04
:PTO006:      0    0   -2 -5.41330967E-02  2.963E-04  2.459E-04
:PTO007:     -1    1   -1 -1.05936584E-01  6.203E-04  5.269E-04
:PTO008:      0    2   -2 -1.36147730E-02  9.519E-05  6.715E-05
:PTO009:     -1    1   -2 -6.68554912E-02  4.673E-04  3.894E-04
:PTO011:     -1    3    0 -9.24775676E-03  6.978E-05  5.648E-05
:PTO012:     -1    3   -1 -3.62819705E-02  2.831E-04  2.132E-04
:PTO013:      0    4    0 -5.73511494E-03  4.827E-05  3.358E-05
:PTO014:      0    2   -3  1.34238894E-02 -1.088E-04 -6.827E-05

:ENE  : ********** TOTAL ENERGY IN Ry =       -36944.15506277

       TOTAL FORCE IN mRy/a.u. = |F|     Fx             Fy             Fz     with/without FOR in case.in2
:FOR001:   1.ATOM          0.724          0.000          0.000          0.724 partial forces
       TOTAL FORCE WITH RESPECT TO GLOBAL CARTESIAN COORDINATES:
:FCA001:   1.ATOM                         0.000          0.724          0.000 partial forces
       TOTAL FORCE WITH RESPECT TO THE GLOBAL COORDINATE SYSTEM:
:FGL001:   1.ATOM                 0.000000000     0.723559703     0.000000000 partial forces

------- case.scf0 --------
 Flat Integration
 New Mode for Coulomb Integral
 Consistent 3/8+Simpson combinations
 Extension of core to zero
 LDM version in phi
 Fifth-order quadrature in outwin


            ---------
:ITE087: 87. ITERATION
            ---------

:NATO :    1 INDEPENDENT AND    2 TOTAL ATOMS IN UNITCELL
       SUBSTANCE: aU                                                          

       LATTICE                      = CXY 
:POT  : POTENTIAL OPTION EX_LDA EC_LDA VX_LDA VC_LDA
:LAT  : LATTICE CONSTANTS=  5.26305 10.68006  9.22032    1.571    1.571    1.571
:VOL  : UNIT CELL VOLUME =     259.13599
       MODE OF CALCULATION IS       = RELA
       NON-SPINPOLARIZED CALCULATION
:IFFT  : FFT-parameters:   48   90   72 Factor: 2.00


   CONVERGENCE PARAMETER FOR PSEUDOCHARGE: NCON=  9
   MAXIMAL VALUE OF RMT(JATOM)*ABSK(NKK) : RK  =27.59449


:VKCOUL :  VK-COUL convergence: 0.252E-06
       ATOMNUMBER=  1 Pr1        VCOUL-ZERO =  0.72646E+00
:EFG001:                        EFG         =     8.97640   *10**21  V / m**2
                               V20  TOT/SRF=    -6.26466    -0.08135
                               V22  TOT/SRF=    -5.35949    -0.01134
                               V22M TOT/SRF=     0.00000     0.00000
                               V21  TOT/SRF=     0.00000     0.00000
                               V21M TOT/SRF=     0.00000     0.00000

             -1.74259    0.00000    0.00000       -1.74259    0.00000    0.00000
              0.00000    8.97640    0.00000        0.00000    8.97640    0.00000
              0.00000    0.00000   -7.23381        0.00000    0.00000   -7.23381

         MAIN DIRECTIONS OF THE EFG   1.0000  0.0000  0.0000
                                      0.0000  1.0000  0.0000
                                      0.0000  0.0000  1.0000
:ANG001:  ANGLE WITH OLD X-AXIS =         0.0

:ETA001:                         ASYMM. ETA =     0.61174


     HELLMANN-FEYNMAN-FORCE IN mRy/a.u. = |F|  Fx       Fy             Fz
:FHF001:   1.ATOM   1260.147480419751      0.000000000000      0.000000000000  -1260.147480419751

:FIT001: LUSE= 13 SIGMA OF V-XC FIT FOR ATOM  1  0.1098026E-03
:FIT001: LUSE= 13 SIGMA OF V-XC FIT FOR ATOM  1  0.1098026E-03
:DEN  : DENSITY INTEGRAL  =        -14230.74079341   (Ry)
       ELS_POTENTIAL_AT Z=0 and Z=0.5:   1.05782   1.05782
       ELS_POTENTIAL_AT Y=0 and Y=0.5:  -0.02747  -0.02747
:VZERO:v0,v0c,v0x   0.28682   1.05782  -0.77099 v5,v5c,v5x   0.28682   1.05782  -0.77099
:VZERY:v0,v0c,v0x  -1.02444  -0.02747  -0.99696 v5,v5c,v5x  -1.02444  -0.02747  -0.99696
:VZERX:v0,v0c,v0x  -1.32602  -0.39625  -0.92977 v5,v5c,v5x  -1.32602  -0.39625  -0.92977

------- case.scf1 --------
:LMAX-WF:   10   Non-Spherical LMAX:   4

          ATOMIC SPHERE DEPENDENT PARAMETERS FOR ATOM  Pr1       
:e__0001: OVERALL ENERGY PARAMETER IS    1.0630
          OVERALL BASIS SET ON ATOM IS LAPW
:E0_0001: E( 0)=    1.0630
             APW+lo
:E0_0001: E( 0)=   -1.3424   E(BOTTOM)=   -1.989   E(TOP)=   -0.696  4  5   246
             LOCAL ORBITAL
:E1_0001: E( 1)=    1.4630
             APW+lo
:E1_0001: E( 1)=    0.1222   E(BOTTOM)=   -0.850   E(TOP)=    1.094  3  4   253
             LOCAL ORBITAL
:E3_0001: E( 3)=    1.3167   E(BOTTOM)=    1.103   E(TOP)=    1.530  0  1   125
             APW+lo
:E2_0001: E( 2)=    1.0630   E(BOTTOM)=    0.881   E(TOP)= -200.000  2 -1   121
             APW+lo

       K=   0.06250   0.00000   0.06250            1
:RKM  : MATRIX SIZE   266LOs:  40  RKM= 8.47  WEIGHT= 4.00  PGR:    
       EIGENVALUES ARE:
:EIG00001:      -1.4146646   -1.3089400   -0.2564433    0.0565943    0.1310637
:EIG00006:       0.1578440    0.1866393    0.1905186    1.1051901    1.1607974
:EIG00011:       1.2403629    1.2536032    1.2586492    1.2691772    1.2931293
:EIG00016:       1.3246344    1.3376442    1.3424317    1.3489486    1.3541168
:EIG00021:       1.3605039    1.3658811    1.3728186    1.4019664    1.4114695
:EIG00026:       1.4446847    1.5196548    1.5310767    1.6105771    1.6575958
:EIG00031:       1.7298993    1.9163155    1.9805739    2.0303463    2.3204362
:EIG00036:       2.3664671    2.4057662    2.6743361    2.6895139    2.8374230
:EIG00041:       3.0439160    3.0872241    3.2520356    3.3165066    3.4643987
:EIG00046:       3.4715834    3.5019238    3.6783233    3.6939105    3.8352476
 
:EIG00051:       3.9525686    4.0968254    4.1671149    4.3093690    4.3371524
:EIG00056:       4.4333954    4.5020996    4.7092863    4.7553266    4.7606845
:EIG00061:       4.7986724    4.9303631    4.9882669    5.1360691    5.1820620
:EIG00066:       5.2091263    5.2336171    5.2586365    5.4069086    5.4789893
:EIG00071:       5.5429642    5.6308295    5.6917952    5.7486531    5.7486789
:EIG00076:       5.7698022    5.8155780    5.8322785    5.8645190    5.9613858
:EIG00081:       5.9841565    6.0422172    6.0673528    6.1544217    6.2096374
:EIG00086:       6.2262239    6.3600817    6.4464174    6.4699166    6.5380871
:EIG00091:       6.6012661    6.6680123    6.6977246    6.7324878    6.7331690
:EIG00096:       6.8973076    6.9380379    6.9808918    6.9914294    7.0797962
 
:EIG00101:       7.1532541    7.2131231    7.2675134    7.3053218    7.3167281
:EIG00106:       7.4183776    7.4844315    7.5730837    7.6440413    7.8153881
:EIG00111:       7.9231166    7.9365269    7.9480142    8.0297621    8.1419533
:EIG00116:       8.1897497    8.4051762    8.4704144    8.5133736    8.5586973
:EIG00121:       8.5922424    8.6293899    8.6656749
       ********************************************************

:KPT   :      NUMBER OF K-POINTS:   288

------- case.scfso --------
   0.0   0.0 angle (M,z), angle (M,x) deg
 
        SPIN-ORBIT EIGENVALUES:
     K=   0.06250   0.00000   0.06250            1
      MATRIX SIZE=  246   WEIGHT= 4.00
     EIGENVALUES ARE:
          -1.4146683   -1.4146683   -1.3089432   -1.3089432   -0.2827167
          -0.2827167   -0.0039122   -0.0039122    0.0405329    0.0405329
           0.2162345    0.2162345    0.2239735    0.2239735    0.2516007
           0.2516007    1.1051106    1.1051106    1.1609588    1.1609588
           1.2394647    1.2394647    1.2522771    1.2522771    1.2572922
           1.2572922    1.2681729    1.2681729    1.2915130    1.2915130
           1.3198705    1.3198705    1.3320173    1.3320173    1.3412637
           1.3412637    1.3528446    1.3528446    1.3563315    1.3563315

           1.3621763    1.3621763    1.3667113    1.3667113    1.3759087
           1.3759088    1.4039243    1.4039243    1.4130163    1.4130163
           1.4451717    1.4451718    1.5174481    1.5174481    1.5335966
           1.5335966    1.6111037    1.6111037    1.6576396    1.6576396
           1.7302265    1.7302265    1.9165279    1.9165279    1.9806475
           1.9806475    2.0306757    2.0306757    2.3209861    2.3209861
           2.3665704    2.3665704    2.4057875    2.4057875    2.6740239
           2.6740239    2.6894549    2.6894549    2.8368165    2.8368165

           3.0443096    3.0443096    3.0869015    3.0869015    3.2521443
           3.2521443    3.3160630    3.3160630    3.4642667    3.4642667
           3.4712157    3.4712157    3.5022070    3.5022070    3.6760797
           3.6760797    3.6962697    3.6962697    3.8356044    3.8356044
           3.9523053    3.9523053    4.0955763    4.0955763    4.1669374
           4.1669374    4.3089613    4.3089613    4.3370254    4.3370254
           4.4334633    4.4334633    4.4992099    4.4992099
       ********************************************************

------- case.scf2 --------
:GMA  : POTENTIAL AND CHARGE CUT-OFF  12.00 Ry**.5




:POS001: at.nr.  -1 position = 0.00000 0.89750 0.25000  multiplicity =  2

       lmmax 16
       lm=   0 0  1 0  2 0  2 2  3 0  3 2  4 0  4 2  4 4  5 0  5 2  5 4  6 0  6 2  6 4  6 6
:FER gutzwiller fermi energy   1.28010
:EORB          0.163627857
:SUM sum of gutz band energies          6.578662791

:CHA001: total charge inside sphere   1 =     9.936032
:PCS001: partial charges sphere =  1 s,p,d,f,px,py,pz,d-z2,d-x2y2,d-xy,d-xz,d-yz 
:QTL001: 1.9294 4.9492 0.9779 2.0746 1.6513 1.6448 1.6532 0.1934 0.1756 0.1981 0.2031 0.2078

                      vxx         vyy         vzz       up to r

:VZZ001:            -1.64730     9.02420    -7.37690       2.300

:CHA  : total charge inside unit cell =      13.000000

------- case.scfc --------

        1.ATOM      Pr1                  14 CORE STATES
       CORE-FORCE in mRy/a.u. = |F|      Fx             Fy             Fz
:FCO001:   1.ATOM   1261.844235981769      0.000000000000      0.000000000000   1261.844235981769

:1S 001: 1S               -3066.267354257 Ry
:2S 001: 2S                -492.015568451 Ry
:2PP001: 2P*               -465.114944356 Ry
:2P 001: 2P                -429.717323543 Ry
:3S 001: 3S                -105.110143494 Ry
:3PP001: 3P*                -93.647844710 Ry
:3P 001: 3P                 -86.640108563 Ry
:3DD001: 3D*                -66.566200836 Ry
:3D 001: 3D                 -65.054708905 Ry
:4S 001: 4S                 -19.784569918 Ry
:4PP001: 4P*                -15.491093727 Ry
:4P 001: 4P                 -13.963327217 Ry
:4DD001: 4D*                 -6.895615837 Ry
:4D 001: 4D                  -6.626112938 Ry

------- case.scfm --------
:CINT001 Core Integral Atom   1   45.998442

       DENSITY AT NUCLEUS
        JATOM        VALENCE       SEMI-CORE          CORE           TOTAL
:RTO001:   1      638.307817        0.000000   656825.507537   657463.815354
     
       CHARGES OF NEW CHARGE DENSITY
:NTO   : INTERSTITIAL CHARGE =     6.127860
:NPC   : PW Pseudocharge     =    17.807638
:NTO001: CHARGE SPHERE  1    =    55.934474

:NEC01: NUCLEAR AND ELECTRONIC CHARGE    118.00000   117.99681
     
       CHARGES OF OLD CHARGE DENSITY
:OTO   : INTERSTITIAL CHARGE =     6.102301
:OPC   : PW Pseudocharge     =    17.792946
:OTO001: CHARGE SPHERE  1    =    55.948849

:NEC02: NUCLEAR AND ELECTRONIC CHARGE    118.00000   118.00000
     
       CONVERGENCE TEST
:DTO001: DIFFERENCE IN SPHERE  1 =  0.0297139

:DIS  :  CHARGE DISTANCE       ( 0.0297139 for atom    1 spin 1)      0.0297139
 PW Mixed is          280
 
******************************************************
* MULTISECANT MIXING VER9 RELEASE 10.4.0              *
* Standard Mode with controls                        *
* Fixed density scale                                *
* Regularization       1.000E-04                     *
* Trust Upper Limit    5.000E+00                     *
* Max Number of Memory Steps    8                    *
******************************************************
 
:PWTMP   1.5721E+02  1.9467E+02  2.5914E+02
:PLANE:  PW TOTAL      5.8547 DISTAN   9.47E-03  1.62E-01 %
:CHARG:  CLM/ATOM   1381.9274 DISTAN   4.21E-02  3.05E-03 %
 
Step History
        DMIX         DMIXT        Red     Pred      Trust     Lambda    MagRel    MagAbs     Beta
  1   3.5000E-02   3.5000E-02 -1.00E+00  1.00E+00 -1.00E+01  1.00E+00  3.50E-02  3.50E-02  1.00E+00
  2   2.5000E-02   2.5000E-02  9.23E-01  1.00E+00 -1.00E+01  1.00E+00  2.50E-02  2.20E-03  1.00E+00
  3   2.0000E-02   2.0000E-02  4.52E-01  5.13E-01  6.97E-01  1.05E+00  4.59E-01  3.73E-02  1.00E+00
  4   1.7444E-02   1.7444E-02  9.14E-01  9.53E-01  8.71E-01  8.85E-01  1.55E-01  5.69E-03  8.81E-01
  5   4.3609E-02   4.3609E-02 -1.00E+00  1.16E-01  9.52E-01  1.00E+00  8.78E-01  2.95E-02  1.00E+00
:JACOBIANS    5.960E-01   2.952E-01
  
:NORMS:  1/Froebius, Min, Max, Used   0.5371E+00  0.5338E+00  0.9321E+00  0.5400E+00
:INFO :  Number of Memory Steps    4 Skipping    0
:INFO :  SLambda=    0.5614353043  Max    1.3268219731
:PREDicted Charge, CTotal, PW Trust    9.592E-04   1.918E-03   4.059E-02
:PREDicted DMix, Beta, BLim   2.1488E-02  8.5951E-01  1.4015E+00

Eigenvalues, unscaled except for SY+YY
   #     SY Real        SY Imag          SS             YY         SY+YY Real      SY+YY Imag
   1   1.309933E+00   0.000000E+00   9.695794E-01   3.325539E+00   3.990860E+00   0.000000E+00
   2   4.007755E-01   0.000000E+00   1.844400E-01   6.744432E-01   9.695910E-01   0.000000E+00
   3   4.878027E-09   0.000000E+00   2.785814E-08   1.714343E-05   2.412884E-07   0.000000E+00
   4  -7.428438E-07   0.000000E+00   1.477965E-10   2.457596E-07  -8.999989E-11   0.000000E+00
 
:INFO :  Singular value  3.993E+00 Weight  1.000E+00 Projection -2.119E-02
:INFO :  Singular value  9.691E-01 Weight  1.000E+00 Projection -1.935E-02
:INFO :  Singular value  2.753E-07 Weight  6.854E-07 Projection -1.083E-06
:INFO :  Singular value  7.887E-11 Weight  5.625E-14 Projection  4.284E-10
:RANK :  ACTIVE   2.00/4  =  50.00 % ; YY RANK   2.00/4  =  50.07 %
 
:DLIM :  Beta Active  8.946E-01
:BLIM :  VZERO Control Off
:TRUST:  Step 1.13E+00  Charge 5.11E-02 (e) CTO  1.70E-01 (e) PW  2.39E-01 (e)
:DIRM :  MEMORY  4/8  SCALE   1.000 RED  1.29 PRED  0.12 NEXT  0.19 BETA  0.89
:TRAVE:  Charge 3.33E-03 (e) CTO  6.66E-03 (e) PW  2.59E-02 (e)
:DIRP :  |MSR1|= 3.033E-03 |PRATT|= 9.468E-03 ANGLE=  17.3 DEGREES
:DIRQ :  |MSR1|= 1.143E-02 |PRATT|= 4.211E-02 ANGLE=  25.7 DEGREES
:DIRT :  |MSR1|= 1.182E-02 |PRATT|= 4.316E-02 ANGLE=  25.4 DEGREES
:MIX  :   MSD1   REGULARIZATION:  3.33E-04 GREED: 0.02695  Newton 1.00  0.2739                
     
       CHARGES OF MIXED CHARGE DENSITY
:CTO   : INTERSTITIAL CHARGE =     6.109059
:CPC   : PW Pseudocharge     =    17.800857
:CTO001: CHARGE SPHERE  1    =    55.945470

:NEC03: NUCLEAR AND ELECTRONIC CHARGE    118.00000   118.00000

PW CHANGE     H    K    L      Current       Change    Residue
:PTO001:      0    0    0  9.22678346E-02  5.661E-05  2.034E-04
:PTO003:      0    2    0  2.00599335E-02  2.278E-06 -5.451E-06
:PTO004:     -1    1    0  9.19948585E-02  3.075E-05  5.150E-05
:PTO005:      0    2   -1 -1.04395024E-01 -3.576E-05 -5.822E-05
:PTO006:      0    0   -2 -5.41526673E-02 -1.957E-05 -2.967E-05
:PTO007:     -1    1   -1 -1.05972824E-01 -3.624E-05 -5.504E-05
:PTO008:      0    2   -2 -1.36259466E-02 -1.117E-05 -2.035E-05
:PTO009:     -1    1   -2 -6.68856395E-02 -3.015E-05 -3.877E-05
:PTO011:     -1    3    0 -9.25303510E-03 -5.278E-06 -1.075E-05
:PTO012:     -1    3   -1 -3.63095564E-02 -2.759E-05 -4.009E-05
:PTO013:      0    4    0 -5.74098527E-03 -5.870E-06 -1.044E-05
:PTO014:      0    2   -3  1.34401641E-02  1.627E-05  3.287E-05

:ENE  : ********** TOTAL ENERGY IN Ry =       -36944.15504850

       TOTAL FORCE IN mRy/a.u. = |F|     Fx             Fy             Fz     with/without FOR in case.in2
:FOR001:   1.ATOM          1.697          0.000          0.000          1.697 partial forces
       TOTAL FORCE WITH RESPECT TO GLOBAL CARTESIAN COORDINATES:
:FCA001:   1.ATOM                         0.000          1.697          0.000 partial forces
       TOTAL FORCE WITH RESPECT TO THE GLOBAL COORDINATE SYSTEM:
:FGL001:   1.ATOM                 0.000000000     1.696755562     0.000000000 partial forces

------- case.scf0 --------
 Flat Integration
 New Mode for Coulomb Integral
 Consistent 3/8+Simpson combinations
 Extension of core to zero
 LDM version in phi
 Fifth-order quadrature in outwin


            ---------
:ITE088: 88. ITERATION
            ---------

:NATO :    1 INDEPENDENT AND    2 TOTAL ATOMS IN UNITCELL
       SUBSTANCE: aU                                                          

       LATTICE                      = CXY 
:POT  : POTENTIAL OPTION EX_LDA EC_LDA VX_LDA VC_LDA
:LAT  : LATTICE CONSTANTS=  5.26305 10.68006  9.22032    1.571    1.571    1.571
:VOL  : UNIT CELL VOLUME =     259.13599
       MODE OF CALCULATION IS       = RELA
       NON-SPINPOLARIZED CALCULATION
:IFFT  : FFT-parameters:   48   90   72 Factor: 2.00


   CONVERGENCE PARAMETER FOR PSEUDOCHARGE: NCON=  9
   MAXIMAL VALUE OF RMT(JATOM)*ABSK(NKK) : RK  =27.59449


:VKCOUL :  VK-COUL convergence: 0.251E-06
       ATOMNUMBER=  1 Pr1        VCOUL-ZERO =  0.72689E+00
:EFG001:                        EFG         =     9.00175   *10**21  V / m**2
                               V20  TOT/SRF=    -6.34483    -0.08154
                               V22  TOT/SRF=    -5.33856    -0.01126
                               V22M TOT/SRF=     0.00000     0.00000
                               V21  TOT/SRF=     0.00000     0.00000
                               V21M TOT/SRF=     0.00000     0.00000

             -1.67537    0.00000    0.00000       -1.67537    0.00000    0.00000
              0.00000    9.00175    0.00000        0.00000    9.00175    0.00000
              0.00000    0.00000   -7.32637        0.00000    0.00000   -7.32637

         MAIN DIRECTIONS OF THE EFG   1.0000  0.0000  0.0000
                                      0.0000  1.0000  0.0000
                                      0.0000  0.0000  1.0000
:ANG001:  ANGLE WITH OLD X-AXIS =         0.0

:ETA001:                         ASYMM. ETA =     0.62777


     HELLMANN-FEYNMAN-FORCE IN mRy/a.u. = |F|  Fx       Fy             Fz
:FHF001:   1.ATOM   1262.567005890164      0.000000000000      0.000000000000  -1262.567005890164

:FIT001: LUSE= 13 SIGMA OF V-XC FIT FOR ATOM  1  0.1101920E-03
:FIT001: LUSE= 13 SIGMA OF V-XC FIT FOR ATOM  1  0.1101920E-03
:DEN  : DENSITY INTEGRAL  =        -14230.09919316   (Ry)
       ELS_POTENTIAL_AT Z=0 and Z=0.5:   1.05866   1.05866
       ELS_POTENTIAL_AT Y=0 and Y=0.5:  -0.02770  -0.02770
:VZERO:v0,v0c,v0x   0.28740   1.05866  -0.77126 v5,v5c,v5x   0.28740   1.05866  -0.77126
:VZERY:v0,v0c,v0x  -1.02484  -0.02770  -0.99714 v5,v5c,v5x  -1.02484  -0.02770  -0.99714
:VZERX:v0,v0c,v0x  -1.32650  -0.39646  -0.93004 v5,v5c,v5x  -1.32650  -0.39646  -0.93004

------- case.scf1 --------
:LMAX-WF:   10   Non-Spherical LMAX:   4

          ATOMIC SPHERE DEPENDENT PARAMETERS FOR ATOM  Pr1       
:e__0001: OVERALL ENERGY PARAMETER IS    1.0630
          OVERALL BASIS SET ON ATOM IS LAPW
:E0_0001: E( 0)=    1.0630
             APW+lo
:E0_0001: E( 0)=   -1.3446   E(BOTTOM)=   -1.990   E(TOP)=   -0.699  4  5   248
             LOCAL ORBITAL
:E1_0001: E( 1)=    1.4630
             APW+lo
:E1_0001: E( 1)=    0.1203   E(BOTTOM)=   -0.851   E(TOP)=    1.091  3  4   254
             LOCAL ORBITAL
:E3_0001: E( 3)=    1.3124   E(BOTTOM)=    1.100   E(TOP)=    1.525  0  1   123
             APW+lo
:E2_0001: E( 2)=    1.0630   E(BOTTOM)=    0.880   E(TOP)= -200.000  2 -1   122
             APW+lo

       K=   0.06250   0.00000   0.06250            1
:RKM  : MATRIX SIZE   266LOs:  40  RKM= 8.47  WEIGHT= 4.00  PGR:    
       EIGENVALUES ARE:
:EIG00001:      -1.4165022   -1.3109781   -0.2574747    0.0551313    0.1294852
:EIG00006:       0.1561985    0.1849566    0.1888234    1.1049938    1.1605163
:EIG00011:       1.2380326    1.2505624    1.2552528    1.2660607    1.2900285
:EIG00016:       1.3206971    1.3336108    1.3383487    1.3449535    1.3501847
:EIG00021:       1.3575713    1.3622061    1.3685676    1.3974785    1.4077991
:EIG00026:       1.4420824    1.5188745    1.5294756    1.6096797    1.6567149
:EIG00031:       1.7289249    1.9152978    1.9798147    2.0292100    2.3197413
:EIG00036:       2.3658005    2.4052642    2.6740671    2.6889925    2.8368100
:EIG00041:       3.0434333    3.0868423    3.2518225    3.3160930    3.4641745
:EIG00046:       3.4715138    3.5016523    3.6782433    3.6937280    3.8352956
 
:EIG00051:       3.9523370    4.0965510    4.1666815    4.3091215    4.3365151
:EIG00056:       4.4330539    4.5017425    4.7090330    4.7545886    4.7605841
:EIG00061:       4.7987803    4.9303018    4.9878965    5.1357161    5.1815686
:EIG00066:       5.2092117    5.2334157    5.2586851    5.4067978    5.4789188
:EIG00071:       5.5430599    5.6306934    5.6917795    5.7486767    5.7487882
:EIG00076:       5.7697577    5.8155673    5.8323351    5.8645776    5.9615224
:EIG00081:       5.9843158    6.0422938    6.0675124    6.1546176    6.2099457
:EIG00086:       6.2263576    6.3602828    6.4467375    6.4699636    6.5382188
:EIG00091:       6.6013475    6.6682352    6.6976422    6.7321953    6.7330992
:EIG00096:       6.8976522    6.9379255    6.9809888    6.9915263    7.0797866
 
:EIG00101:       7.1533134    7.2133573    7.2677627    7.3052442    7.3167780
:EIG00106:       7.4188034    7.4844847    7.5729148    7.6439962    7.8157217
:EIG00111:       7.9233817    7.9365470    7.9482833    8.0297422    8.1420274
:EIG00116:       8.1900357    8.4049975    8.4703933    8.5131402    8.5587795
:EIG00121:       8.5924442    8.6293533    8.6654416
       ********************************************************

:KPT   :      NUMBER OF K-POINTS:   288

------- case.scfso --------
   0.0   0.0 angle (M,z), angle (M,x) deg
 
        SPIN-ORBIT EIGENVALUES:
     K=   0.06250   0.00000   0.06250            1
      MATRIX SIZE=  246   WEIGHT= 4.00
     EIGENVALUES ARE:
          -1.4165058   -1.4165058   -1.3109813   -1.3109813   -0.2838420
          -0.2838420   -0.0056472   -0.0056472    0.0390693    0.0390693
           0.2146751    0.2146751    0.2223687    0.2223687    0.2499867
           0.2499867    1.1049126    1.1049126    1.1606757    1.1606757
           1.2370919    1.2370919    1.2492100    1.2492100    1.2538790
           1.2538790    1.2650371    1.2650371    1.2883635    1.2883635
           1.3158685    1.3158685    1.3280821    1.3280821    1.3372948
           1.3372948    1.3489209    1.3489209    1.3525518    1.3525518

           1.3590100    1.3590100    1.3630305    1.3630305    1.3717414
           1.3717414    1.3994540    1.3994540    1.4093391    1.4093391
           1.4425350    1.4425350    1.5164653    1.5164653    1.5321657
           1.5321657    1.6102083    1.6102083    1.6567547    1.6567547
           1.7292518    1.7292518    1.9155106    1.9155106    1.9798841
           1.9798841    2.0295420    2.0295420    2.3202914    2.3202914
           2.3659034    2.3659034    2.4052850    2.4052850    2.6737514
           2.6737514    2.6889374    2.6889374    2.8362037    2.8362037

           3.0438273    3.0438273    3.0865194    3.0865194    3.2519292
           3.2519292    3.3156502    3.3156502    3.4640483    3.4640483
           3.4711399    3.4711399    3.5019358    3.5019358    3.6759864
           3.6759864    3.6961000    3.6961000    3.8356517    3.8356517
           3.9520736    3.9520736    4.0952971    4.0952971    4.1665074
           4.1665074    4.3087137    4.3087137    4.3363883    4.3363883
           4.4331249    4.4331249    4.4988530    4.4988530
       ********************************************************

------- case.scf2 --------
:GMA  : POTENTIAL AND CHARGE CUT-OFF  12.00 Ry**.5




:POS001: at.nr.  -1 position = 0.00000 0.89750 0.25000  multiplicity =  2

       lmmax 16
       lm=   0 0  1 0  2 0  2 2  3 0  3 2  4 0  4 2  4 4  5 0  5 2  5 4  6 0  6 2  6 4  6 6
:FER gutzwiller fermi energy   1.27913
:EORB          0.149242587
:SUM sum of gutz band energies          6.550273717

:CHA001: total charge inside sphere   1 =     9.944919
:PCS001: partial charges sphere =  1 s,p,d,f,px,py,pz,d-z2,d-x2y2,d-xy,d-xz,d-yz 
:QTL001: 1.9294 4.9505 0.9761 2.0840 1.6517 1.6452 1.6536 0.1929 0.1752 0.1978 0.2027 0.2075

                      vxx         vyy         vzz       up to r

:VZZ001:            -1.65996     8.97179    -7.31183       2.300

:CHA  : total charge inside unit cell =      13.000000

------- case.scfc --------

        1.ATOM      Pr1                  14 CORE STATES
       CORE-FORCE in mRy/a.u. = |F|      Fx             Fy             Fz
:FCO001:   1.ATOM   1264.123544330995      0.000000000000      0.000000000000   1264.123544330995

:1S 001: 1S               -3066.273200472 Ry
:2S 001: 2S                -492.021986710 Ry
:2PP001: 2P*               -465.121236300 Ry
:2P 001: 2P                -429.723662620 Ry
:3S 001: 3S                -105.117425600 Ry
:3PP001: 3P*                -93.655087805 Ry
:3P 001: 3P                 -86.647374398 Ry
:3DD001: 3D*                -66.573376383 Ry
:3D 001: 3D                 -65.061896272 Ry
:4S 001: 4S                 -19.790912300 Ry
:4PP001: 4P*                -15.497328349 Ry
:4P 001: 4P                 -13.969412129 Ry
:4DD001: 4D*                 -6.901400575 Ry
:4D 001: 4D                  -6.631844053 Ry

------- case.scfm --------
:CINT001 Core Integral Atom   1   45.998447

       DENSITY AT NUCLEUS
[...]
:INFO :  Singular value  1.406E-04 Weight  2.668E-02 Projection  1.374E-04
:INFO :  Singular value  2.408E-05 Weight  8.037E-04 Projection -1.144E-06
:INFO :  Singular value  8.242E-06 Weight  9.422E-05 Projection -1.672E-06
:INFO :  Singular value  5.136E-06 Weight  3.659E-05 Projection  3.252E-07
:INFO :  Singular value  4.049E-06 Weight  2.274E-05 Projection  5.019E-07
:INFO :  Singular value  6.866E-07 Weight  6.538E-07 Projection -2.371E-08
:INFO :  Singular value  3.461E-07 Weight  1.661E-07 Projection  1.227E-08
:INFO :  Singular value  8.846E-08 Weight  1.085E-08 Projection -1.283E-11
:RANK :  ACTIVE   4.03/12 =  33.56 % ; YY RANK   4.03/12 =  33.54 %
 
:DLIM :  Beta Active  8.818E-01
:BLIM :  VZERO Control Off
:TRUST:  Step 4.54E+00  Charge 3.08E-03 (e) CTO  1.03E-02 (e) PW  1.44E-02 (e)
:DIRM :  MEMORY 12/12 SCALE   1.000 RED  0.10 PRED  0.01 NEXT  0.14 BETA  0.88
:TRAVE:  Charge 3.70E-04 (e) CTO  7.40E-04 (e) PW  1.48E-03 (e)
:DIRP :  |MSR1|= 7.459E-05 |PRATT|= 1.999E-04 ANGLE=  64.1 DEGREES
:DIRQ :  |MSR1|= 1.869E-04 |PRATT|= 1.010E-03 ANGLE=  39.5 DEGREES
:DIRT :  |MSR1|= 2.012E-04 |PRATT|= 1.030E-03 ANGLE=  42.8 DEGREES
:MIX  :   MSE1   REGULARIZATION:  8.49E-04 GREED: 0.01589  Newton 1.00  0.1954                
     
       CHARGES OF MIXED CHARGE DENSITY
:CTO   : INTERSTITIAL CHARGE =     6.106625
:CPC   : PW Pseudocharge     =    17.804397
:CTO001: CHARGE SPHERE  1    =    55.946688

:NEC03: NUCLEAR AND ELECTRONIC CHARGE    118.00000   118.00000

PW CHANGE     H    K    L      Current       Change    Residue
:PTO001:      0    0    0  9.22721016E-02 -4.141E-07  3.415E-06
:PTO003:      0    2    0  2.00681882E-02 -3.782E-07 -6.360E-07
:PTO004:     -1    1    0  9.20342421E-02 -1.533E-06 -2.385E-06
:PTO005:      0    2   -1 -1.04441418E-01  1.791E-06  3.236E-06
:PTO006:      0    0   -2 -5.41766183E-02  8.978E-07  1.718E-06
:PTO007:     -1    1   -1 -1.06024423E-01  1.930E-06  3.485E-06
:PTO008:      0    2   -2 -1.36360055E-02  1.682E-07  2.285E-07
:PTO009:     -1    1   -2 -6.69293900E-02  1.331E-06  2.653E-06
:PTO011:     -1    3    0 -9.25928712E-03  1.852E-07  3.937E-07
:PTO012:     -1    3   -1 -3.63440797E-02  5.701E-07  1.262E-06
:PTO013:      0    4    0 -5.74731356E-03  7.027E-08  1.940E-07
:PTO014:      0    2   -3  1.34541052E-02 -9.705E-08 -2.005E-07

:ENE  : ********** TOTAL ENERGY IN Ry =       -36944.15514161

       TOTAL FORCE IN mRy/a.u. = |F|     Fx             Fy             Fz     with/without FOR in case.in2
:FOR001:   1.ATOM          2.089          0.000          0.000          2.089 partial forces
       TOTAL FORCE WITH RESPECT TO GLOBAL CARTESIAN COORDINATES:
:FCA001:   1.ATOM                         0.000          2.089          0.000 partial forces
       TOTAL FORCE WITH RESPECT TO THE GLOBAL COORDINATE SYSTEM:
:FGL001:   1.ATOM                 0.000000000     2.088963193     0.000000000 partial forces

------- case.scf0 --------
 Flat Integration
 New Mode for Coulomb Integral
 Consistent 3/8+Simpson combinations
 Extension of core to zero
 LDM version in phi
 Fifth-order quadrature in outwin


            ---------
:ITE098: 98. ITERATION
            ---------

:NATO :    1 INDEPENDENT AND    2 TOTAL ATOMS IN UNITCELL
       SUBSTANCE: aU                                                          

       LATTICE                      = CXY 
:POT  : POTENTIAL OPTION EX_LDA EC_LDA VX_LDA VC_LDA
:LAT  : LATTICE CONSTANTS=  5.26305 10.68006  9.22032    1.571    1.571    1.571
:VOL  : UNIT CELL VOLUME =     259.13599
       MODE OF CALCULATION IS       = RELA
       NON-SPINPOLARIZED CALCULATION
:IFFT  : FFT-parameters:   48   90   72 Factor: 2.00


   CONVERGENCE PARAMETER FOR PSEUDOCHARGE: NCON=  9
   MAXIMAL VALUE OF RMT(JATOM)*ABSK(NKK) : RK  =27.59449


:VKCOUL :  VK-COUL convergence: 0.251E-06
       ATOMNUMBER=  1 Pr1        VCOUL-ZERO =  0.72681E+00
:EFG001:                        EFG         =     8.99892   *10**21  V / m**2
                               V20  TOT/SRF=    -6.36391    -0.08145
                               V22  TOT/SRF=    -5.32471    -0.01127
                               V22M TOT/SRF=     0.00000     0.00000
                               V21  TOT/SRF=     0.00000     0.00000
                               V21M TOT/SRF=     0.00000     0.00000

             -1.65051    0.00000    0.00000       -1.65051    0.00000    0.00000
              0.00000    8.99892    0.00000        0.00000    8.99892    0.00000
              0.00000    0.00000   -7.34841        0.00000    0.00000   -7.34841

         MAIN DIRECTIONS OF THE EFG   1.0000  0.0000  0.0000
                                      0.0000  1.0000  0.0000
                                      0.0000  0.0000  1.0000
:ANG001:  ANGLE WITH OLD X-AXIS =         0.0

:ETA001:                         ASYMM. ETA =     0.63318


     HELLMANN-FEYNMAN-FORCE IN mRy/a.u. = |F|  Fx       Fy             Fz
:FHF001:   1.ATOM   1261.176922773120      0.000000000000      0.000000000000  -1261.176922773120

:FIT001: LUSE= 13 SIGMA OF V-XC FIT FOR ATOM  1  0.1104080E-03
:FIT001: LUSE= 13 SIGMA OF V-XC FIT FOR ATOM  1  0.1104080E-03
:DEN  : DENSITY INTEGRAL  =        -14230.36117731   (Ry)
       ELS_POTENTIAL_AT Z=0 and Z=0.5:   1.05844   1.05844
       ELS_POTENTIAL_AT Y=0 and Y=0.5:  -0.02759  -0.02759
:VZERO:v0,v0c,v0x   0.28727   1.05844  -0.77117 v5,v5c,v5x   0.28727   1.05844  -0.77117
:VZERY:v0,v0c,v0x  -1.02471  -0.02759  -0.99712 v5,v5c,v5x  -1.02471  -0.02759  -0.99712
:VZERX:v0,v0c,v0x  -1.32646  -0.39645  -0.93000 v5,v5c,v5x  -1.32646  -0.39645  -0.93000

------- case.scf1 --------
:LMAX-WF:   10   Non-Spherical LMAX:   4

          ATOMIC SPHERE DEPENDENT PARAMETERS FOR ATOM  Pr1       
:e__0001: OVERALL ENERGY PARAMETER IS    1.0630
          OVERALL BASIS SET ON ATOM IS LAPW
:E0_0001: E( 0)=    1.0630
             APW+lo
:E0_0001: E( 0)=   -1.3438   E(BOTTOM)=   -1.990   E(TOP)=   -0.698  4  5   245
             LOCAL ORBITAL
:E1_0001: E( 1)=    1.4630
             APW+lo
:E1_0001: E( 1)=    0.1210   E(BOTTOM)=   -0.850   E(TOP)=    1.092  3  4   254
             LOCAL ORBITAL
:E3_0001: E( 3)=    1.3139   E(BOTTOM)=    1.101   E(TOP)=    1.527  0  1   125
             APW+lo
:E2_0001: E( 2)=    1.0630   E(BOTTOM)=    0.880   E(TOP)= -200.000  2 -1   122
             APW+lo

       K=   0.06250   0.00000   0.06250            1
:RKM  : MATRIX SIZE   266LOs:  40  RKM= 8.47  WEIGHT= 4.00  PGR:    
       EIGENVALUES ARE:
:EIG00001:      -1.4158239   -1.3102348   -0.2570521    0.0556904    0.1300818
:EIG00006:       0.1568225    0.1855952    0.1894640    1.1051322    1.1606687
:EIG00011:       1.2388758    1.2516265    1.2564323    1.2671541    1.2911154
:EIG00016:       1.3220504    1.3349959    1.3397514    1.3463280    1.3515355
:EIG00021:       1.3586111    1.3634779    1.3700268    1.3990117    1.4090639
:EIG00026:       1.4430017    1.5192076    1.5300743    1.6100514    1.6570831
:EIG00031:       1.7293223    1.9157157    1.9801303    2.0296685    2.3200334
:EIG00036:       2.3660852    2.4054935    2.6742265    2.6892360    2.8370880
:EIG00041:       3.0436637    3.0870380    3.2519628    3.3163008    3.4643206
:EIG00046:       3.4716047    3.5018122    3.6783381    3.6938632    3.8353515
 
:EIG00051:       3.9524855    4.0967144    4.1669042    4.3092809    4.3368068
:EIG00056:       4.4332436    4.5019333    4.7091960    4.7549145    4.7606875
:EIG00061:       4.7988190    4.9304031    4.9881017    5.1359119    5.1818143
:EIG00066:       5.2092573    5.2335621    5.2587485    5.4069183    5.4790266
:EIG00071:       5.5431068    5.6308209    5.6918630    5.7487446    5.7488261
:EIG00076:       5.7698527    5.8156468    5.8323940    5.8646342    5.9615512
:EIG00081:       5.9843387    6.0423492    6.0675330    6.1546328    6.2099193
:EIG00086:       6.2263991    6.3602945    6.4467056    6.4700268    6.5382500
:EIG00091:       6.6014023    6.6682355    6.6977539    6.7323838    6.7332022
:EIG00096:       6.8976141    6.9380447    6.9810393    6.9915781    7.0798671
 
:EIG00101:       7.1533768    7.2133569    7.2677526    7.3053493    7.3168431
:EIG00106:       7.4187300    7.4845476    7.5730488    7.6440907    7.8156850
:EIG00111:       7.9233694    7.9366194    7.9482697    8.0298280    8.1420826
:EIG00116:       8.1900109    8.4051444    8.4704781    8.5133037    8.5588313
:EIG00121:       8.5924565    8.6294458    8.6656003
       ********************************************************

:KPT   :      NUMBER OF K-POINTS:   288

------- case.scfso --------
   0.0   0.0 angle (M,z), angle (M,x) deg
 
        SPIN-ORBIT EIGENVALUES:
     K=   0.06250   0.00000   0.06250            1
      MATRIX SIZE=  246   WEIGHT= 4.00
     EIGENVALUES ARE:
          -1.4158275   -1.4158275   -1.3102380   -1.3102380   -0.2833892
          -0.2833892   -0.0049969   -0.0049969    0.0396292    0.0396292
           0.2152692    0.2152692    0.2229791    0.2229791    0.2506024
           0.2506024    1.1050516    1.1050516    1.1608287    1.1608287
           1.2379489    1.2379489    1.2502827    1.2502827    1.2550641
           1.2550641    1.2661369    1.2661369    1.2894665    1.2894665
           1.3172438    1.3172438    1.3294357    1.3294357    1.3386599
           1.3386599    1.3502752    1.3502752    1.3538578    1.3538579

           1.3601199    1.3601200    1.3643018    1.3643018    1.3731726
           1.3731726    1.4009813    1.4009813    1.4106063    1.4106063
           1.4434653    1.4434653    1.5168655    1.5168655    1.5327077
           1.5327077    1.6105794    1.6105794    1.6571242    1.6571242
           1.7296493    1.7296493    1.9159283    1.9159283    1.9802012
           1.9802012    2.0299995    2.0299995    2.3205835    2.3205835
           2.3661882    2.3661882    2.4055146    2.4055146    2.6739120
           2.6739120    2.6891796    2.6891796    2.8364816    2.8364816

           3.0440576    3.0440576    3.0867152    3.0867152    3.2520701
           3.2520701    3.3158578    3.3158578    3.4641924    3.4641924
           3.4712330    3.4712330    3.5020956    3.5020956    3.6760863
           3.6760863    3.6962304    3.6962304    3.8357078    3.8357078
           3.9522222    3.9522222    4.0954622    4.0954622    4.1667290
           4.1667290    4.3088731    4.3088731    4.3366799    4.3366799
           4.4333137    4.4333137    4.4990439    4.4990439
       ********************************************************

------- case.scf2 --------
:GMA  : POTENTIAL AND CHARGE CUT-OFF  12.00 Ry**.5




:POS001: at.nr.  -1 position = 0.00000 0.89750 0.25000  multiplicity =  2

       lmmax 16
       lm=   0 0  1 0  2 0  2 2  3 0  3 2  4 0  4 2  4 4  5 0  5 2  5 4  6 0  6 2  6 4  6 6
:FER gutzwiller fermi energy   1.27842
:EORB          0.158707520
:SUM sum of gutz band energies          6.556733494

:CHA001: total charge inside sphere   1 =     9.948455
:PCS001: partial charges sphere =  1 s,p,d,f,px,py,pz,d-z2,d-x2y2,d-xy,d-xz,d-yz 
:QTL001: 1.9290 4.9494 0.9724 2.0926 1.6514 1.6449 1.6531 0.1922 0.1743 0.1972 0.2019 0.2068

                      vxx         vyy         vzz       up to r

:VZZ001:            -1.70844     8.94582    -7.23738       2.300

:CHA  : total charge inside unit cell =      13.000000

------- case.scfc --------

        1.ATOM      Pr1                  14 CORE STATES
       CORE-FORCE in mRy/a.u. = |F|      Fx             Fy             Fz
:FCO001:   1.ATOM   1263.270034366756      0.000000000000      0.000000000000   1263.270034366756

:1S 001: 1S               -3066.270023188 Ry
:2S 001: 2S                -492.018822811 Ry
:2PP001: 2P*               -465.118069424 Ry
:2P 001: 2P                -429.720497049 Ry
:3S 001: 3S                -105.114416356 Ry
:3PP001: 3P*                -93.652066092 Ry
:3P 001: 3P                 -86.644371992 Ry
:3DD001: 3D*                -66.570333752 Ry
:3D 001: 3D                 -65.058858771 Ry
:4S 001: 4S                 -19.788710778 Ry
:4PP001: 4P*                -15.495167205 Ry
:4P 001: 4P                 -13.967317307 Ry
:4DD001: 4D*                 -6.899412886 Ry
:4D 001: 4D                  -6.629878164 Ry

------- case.scfm --------
:CINT001 Core Integral Atom   1   45.998445

       DENSITY AT NUCLEUS
        JATOM        VALENCE       SEMI-CORE          CORE           TOTAL
:RTO001:   1      638.330083        0.000000   656825.456154   657463.786236
     
       CHARGES OF NEW CHARGE DENSITY
:NTO   : INTERSTITIAL CHARGE =     6.102916
:NPC   : PW Pseudocharge     =    17.794652
:NTO001: CHARGE SPHERE  1    =    55.946901

:NEC01: NUCLEAR AND ELECTRONIC CHARGE    118.00000   117.99672
     
       CHARGES OF OLD CHARGE DENSITY
:OTO   : INTERSTITIAL CHARGE =     6.106625
:OPC   : PW Pseudocharge     =    17.804397
:OTO001: CHARGE SPHERE  1    =    55.946688

:NEC02: NUCLEAR AND ELECTRONIC CHARGE    118.00000   118.00000
     
       CONVERGENCE TEST
:DTO001: DIFFERENCE IN SPHERE  1 =  0.0005894

:DIS  :  CHARGE DISTANCE       ( 0.0005894 for atom    1 spin 1)      0.0005894
 PW Mixed is          280
 
******************************************************
* MULTISECANT MIXING VER9 RELEASE 10.4.0              *
* Slow Mode, cautious                                *
* Fixed density scale                                *
* Regularization       1.000E-04                     *
* Step Trust Radius    0.75000                       *
* Trust Upper Limit    2.000E+00                     *
* Max Number of Memory Steps   12                    *
******************************************************
 
:PWTMP   1.5721E+02  1.9467E+02  2.5914E+02
:PLANE:  PW TOTAL      5.8591 DISTAN   1.10E-04  1.87E-03 %
:CHARG:  CLM/ATOM   1381.9301 DISTAN   8.37E-04  6.06E-05 %
 
Step History
        DMIX         DMIXT        Red     Pred      Trust     Lambda    MagRel    MagAbs     Beta
  4   1.7444E-02   1.7444E-02  9.14E-01  9.53E-01  8.71E-01  8.85E-01  1.55E-01  5.69E-03  8.81E-01
  5   4.3609E-02   4.3609E-02  1.29E+00  1.16E-01  9.52E-01  5.61E-01  8.78E-01  2.95E-02  1.00E+00
  6   2.6952E-02   2.6952E-02  2.25E-01  1.91E-01  1.13E+00  6.74E-01  2.74E-01  1.18E-02  8.95E-01
  7   1.9842E-02   1.9842E-02  7.42E-01  7.34E-01  1.42E+00  9.77E-01  2.24E-01  2.18E-03  1.00E+00
  8   1.7381E-02   1.7381E-02  2.56E+00  4.87E-01  1.77E+00  1.47E+00  1.02E+00  7.35E-03  8.00E-01
  9   4.3453E-02   4.3453E-02  6.63E-01  3.55E-01  1.42E+00  1.82E+00  1.56E-01  2.88E-03  6.48E-01
 10   1.7381E-02   1.7381E-02  2.73E-01  2.05E-01  1.89E+00  1.11E+00  2.62E-01  3.21E-03  8.10E-01
 11   1.2416E-02   1.2416E-02  4.35E-01  2.58E-01  2.36E+00  1.66E+00  3.10E-01  1.03E-03  1.00E+00
 12   2.1130E-02   2.1130E-02  1.23E+00  5.57E-01  2.96E+00  1.72E+00  4.87E-01  7.06E-04  8.00E-01
 13   5.2824E-02   2.2874E-02  5.00E+00  3.18E-01  3.88E+00  4.05E-01  3.88E+00  6.89E-03  1.00E+00
 14   3.3069E-02   3.3069E-02  7.18E-01  2.00E-01  2.91E+00  1.00E+00  1.12E-01  1.57E-03  8.00E-01
 15   2.1112E-02   2.1112E-02  1.03E-01  1.09E-02  3.63E+00  1.28E+00  3.07E-01  3.08E-03  1.00E+00
 16   1.5887E-02   1.5887E-02 -1.00E+00  1.39E-01  4.54E+00  1.00E+00  1.95E-01  2.01E-04  8.82E-01
:JACOBIANS    1.403E+00   3.715E+00
  
:NORMS:  1/Froebius, Min, Max, Used   0.1186E+01  0.2170E+00  0.1362E+01  0.1362E+01
:INFO :  Number of Memory Steps   12 Skipping    3
:INFO :  SLambda=    0.0722481957  Max    0.9273311540
:PREDicted Charge, CTotal, PW Trust    1.523E-05   3.047E-05   3.550E-04
:PREDicted DMix, Beta, BLim   1.7513E-02  1.7454E-01  3.3736E-01

Eigenvalues, unscaled except for SY+YY
   #     SY Real        SY Imag          SS             YY         SY+YY Real      SY+YY Imag
   1   1.902562E+00   1.004035E+00   1.561989E+01   8.423099E+00   8.623280E+00   0.000000E+00
   2   1.902562E+00  -1.004035E+00   6.953556E-01   1.525144E+00   8.286863E-01   0.000000E+00
   3   7.578918E-01   0.000000E+00   5.150649E-01   1.274432E+00   1.452541E+00   0.000000E+00
   4   3.878090E-01   0.000000E+00   4.022887E-02   7.766856E-01   1.452541E+00   0.000000E+00
   5   2.423749E-05   0.000000E+00   1.142228E-06   5.925419E-04   5.948007E-04   0.000000E+00
   6   1.545522E-06   0.000000E+00   2.878262E-07   2.725455E-05   2.696064E-05   0.000000E+00
   7   1.982811E-07   0.000000E+00   3.284743E-08   9.124755E-06   9.281564E-06   0.000000E+00
   8   5.507252E-08   7.249183E-08   8.010340E-09   5.087146E-06   5.100742E-06   0.000000E+00
   9   5.507252E-08  -7.249183E-08   1.204047E-09   3.462189E-06   3.454893E-06   0.000000E+00
  10   5.086267E-08   0.000000E+00   9.721056E-10   1.521186E-06   1.522945E-06   0.000000E+00
  11   1.592415E-08   0.000000E+00   1.430687E-10   3.576695E-07   3.604049E-07   0.000000E+00
  12   4.942707E-09   0.000000E+00   8.578356E-11   3.057958E-07   3.029455E-07   0.000000E+00
 
:INFO :  Singular value  8.653E+00 Weight  1.000E+00 Projection -2.839E-04
:INFO :  Singular value  1.522E+00 Weight  1.000E+00 Projection -5.526E-06
:INFO :  Singular value  1.382E+00 Weight  1.000E+00 Projection -1.263E-04
:INFO :  Singular value  8.285E-01 Weight  1.000E+00 Projection  2.381E-05
:INFO :  Singular value  5.947E-04 Weight  3.327E-01 Projection -8.699E-04
:INFO :  Singular value  2.698E-05 Weight  1.025E-03 Projection  5.531E-06
:INFO :  Singular value  9.276E-06 Weight  1.213E-04 Projection  6.021E-08
:INFO :  Singular value  5.101E-06 Weight  3.667E-05 Projection -2.449E-07
:INFO :  Singular value  3.455E-06 Weight  1.682E-05 Projection -1.509E-07
:INFO :  Singular value  1.523E-06 Weight  3.269E-06 Projection -1.262E-08
:INFO :  Singular value  3.606E-07 Weight  1.832E-07 Projection  6.518E-09
:INFO :  Singular value  3.028E-07 Weight  1.292E-07 Projection -1.865E-09
:RANK :  ACTIVE   4.33/12 =  36.12 % ; YY RANK   4.33/12 =  36.10 %
 
:DLIM :  Beta Active  7.054E-01
:BLIM :  VZERO Control Off
:TRUST:  Step 5.54E+00  Charge 2.31E-03 (e) CTO  7.70E-03 (e) PW  1.08E-02 (e)
:DIRM :  MEMORY 12/12 SCALE   1.000 RED  0.82 PRED  0.14 NEXT  0.31 BETA  0.71
:TRAVE:  Charge 2.29E-04 (e) CTO  4.57E-04 (e) PW  8.88E-04 (e)
:DIRP :  |MSR1|= 1.230E-04 |PRATT|= 1.098E-04 ANGLE=  55.7 DEGREES
:DIRQ :  |MSR1|= 3.381E-04 |PRATT|= 8.374E-04 ANGLE=  37.2 DEGREES
:DIRT :  |MSR1|= 3.598E-04 |PRATT|= 8.446E-04 ANGLE=  39.9 DEGREES
:MIX  :   MSD1   REGULARIZATION:  8.42E-04 GREED: 0.01971  Newton 1.00  0.4260                
     
       CHARGES OF MIXED CHARGE DENSITY
:CTO   : INTERSTITIAL CHARGE =     6.106450
:CPC   : PW Pseudocharge     =    17.804080
:CTO001: CHARGE SPHERE  1    =    55.946775

:NEC03: NUCLEAR AND ELECTRONIC CHARGE    118.00000   118.00000

PW CHANGE     H    K    L      Current       Change    Residue
:PTO001:      0    0    0  9.22702038E-02 -1.898E-06 -2.311E-06
:PTO003:      0    2    0  2.00679764E-02 -2.118E-07  7.281E-07
:PTO004:     -1    1    0  9.20325809E-02 -1.661E-06  6.672E-07
:PTO005:      0    2   -1 -1.04439470E-01  1.948E-06 -3.738E-07
:PTO006:      0    0   -2 -5.41755773E-02  1.041E-06 -1.355E-07
:PTO007:     -1    1   -1 -1.06022374E-01  2.050E-06 -6.005E-07
:PTO008:      0    2   -2 -1.36354835E-02  5.220E-07  9.748E-08
:PTO009:     -1    1   -2 -6.69276833E-02  1.707E-06 -4.467E-07
:PTO011:     -1    3    0 -9.25900968E-03  2.774E-07  1.827E-07
:PTO012:     -1    3   -1 -3.63426354E-02  1.444E-06 -1.087E-07
:PTO013:      0    4    0 -5.74702337E-03  2.902E-07  1.208E-07
:PTO014:      0    2   -3  1.34533605E-02 -7.447E-07 -4.465E-07

:ENE  : ********** TOTAL ENERGY IN Ry =       -36944.15514682

       TOTAL FORCE IN mRy/a.u. = |F|     Fx             Fy             Fz     with/without FOR in case.in2
:FOR001:   1.ATOM          2.093          0.000          0.000          2.093 partial forces
       TOTAL FORCE WITH RESPECT TO GLOBAL CARTESIAN COORDINATES:
:FCA001:   1.ATOM                         0.000          2.093          0.000 partial forces
       TOTAL FORCE WITH RESPECT TO THE GLOBAL COORDINATE SYSTEM:
:FGL001:   1.ATOM                 0.000000000     2.093111594     0.000000000 partial forces
