
------- case.scf0 --------
 Flat Integration
 New Mode for Coulomb Integral
 Consistent 3/8+Simpson combinations
 Extension of core to zero
 LDM version in phi
 Fifth-order quadrature in outwin


            ---------
:ITE010: 10. ITERATION
            ---------

:NATO :    2 INDEPENDENT AND    4 TOTAL ATOMS IN UNITCELL
       SUBSTANCE: FeSe                                                        

       LATTICE                      = P   
:POT  : POTENTIAL OPTION EX_LDA EC_LDA VX_LDA VC_LDA
:LAT  : LATTICE CONSTANTS=  7.12881  7.12881 10.43450    1.571    1.571    1.571
:VOL  : UNIT CELL VOLUME =     530.28024
       MODE OF CALCULATION IS       = RELA
       NON-SPINPOLARIZED CALCULATION
:IFFT  : FFT-parameters:   60   60   80 Factor: 2.00


   CONVERGENCE PARAMETER FOR PSEUDOCHARGE: NCON=  9
   MAXIMAL VALUE OF RMT(JATOM)*ABSK(NKK) : RK  =25.91023


:VKCOUL :  VK-COUL convergence: 0.195E-06
       ATOMNUMBER=  1 Fe         VCOUL-ZERO =  0.24753E+00
:EFG001:                        EFG         =    -0.04699   *10**21  V / m**2
                               V20  TOT/SRF=    -0.04069    -0.04210
                               V22  TOT/SRF=     0.00000     0.00000
                               V22M TOT/SRF=     0.00000     0.00000
                               V21  TOT/SRF=     0.00000     0.00000
                               V21M TOT/SRF=     0.00000     0.00000

              0.02350    0.00000    0.00000        0.02350    0.00000    0.00000
              0.00000    0.02350    0.00000        0.00000    0.02350    0.00000
              0.00000    0.00000   -0.04699        0.00000    0.00000   -0.04699

         MAIN DIRECTIONS OF THE EFG   1.0000  0.0000  0.0000
                                      0.0000  1.0000  0.0000
                                      0.0000  0.0000  1.0000
:ANG001:  ANGLE WITH OLD X-AXIS =         0.0

:ETA001:                         ASYMM. ETA =     0.00000


       ATOMNUMBER=  2 Se         VCOUL-ZERO =  0.47958E-01
:EFG002:                        EFG         =    -5.94079   *10**21  V / m**2
                               V20  TOT/SRF=    -5.14488    -0.00674
                               V22  TOT/SRF=     0.00000     0.00000
                               V22M TOT/SRF=     0.00000     0.00000
                               V21  TOT/SRF=     0.00000     0.00000
                               V21M TOT/SRF=     0.00000     0.00000

              2.97040    0.00000    0.00000        2.97040    0.00000    0.00000
              0.00000    2.97040    0.00000        0.00000    2.97040    0.00000
              0.00000    0.00000   -5.94079        0.00000    0.00000   -5.94079

         MAIN DIRECTIONS OF THE EFG   1.0000  0.0000  0.0000
                                      0.0000  1.0000  0.0000
                                      0.0000  0.0000  1.0000
:ANG002:  ANGLE WITH OLD X-AXIS =         0.0

:ETA002:                         ASYMM. ETA =     0.00000


     HELLMANN-FEYNMAN-FORCE IN mRy/a.u. = |F|  Fx       Fy             Fz
:FHF001:   1.ATOM      0.000000000000      0.000000000000      0.000000000000      0.000000000000

     HELLMANN-FEYNMAN-FORCE IN mRy/a.u. = |F|  Fx       Fy             Fz
:FHF002:   2.ATOM   1270.093336483608      0.000000000000      0.000000000000   1270.093336483608

:FIT001: LUSE= 13 SIGMA OF V-XC FIT FOR ATOM  1  0.2089342E-02
:FIT001: LUSE= 13 SIGMA OF V-XC FIT FOR ATOM  1  0.2089342E-02
:FIT002: LUSE= 13 SIGMA OF V-XC FIT FOR ATOM  2  0.4426491E-03
:FIT002: LUSE= 13 SIGMA OF V-XC FIT FOR ATOM  2  0.4426491E-03
:DEN  : DENSITY INTEGRAL  =         -6218.23097220   (Ry)
       ELS_POTENTIAL_AT Z=0 and Z=0.5:  -0.72663   0.66038
       ELS_POTENTIAL_AT Y=0 and Y=0.5:   0.00000   0.00000
:VZERO:v0,v0c,v0x  -1.55380  -0.72663  -0.82717 v5,v5c,v5x   0.18357   0.66038  -0.47681
:VZERY:v0,v0c,v0x  -0.70767   0.00000  -0.70767 v5,v5c,v5x  -0.70767   0.00000  -0.70767
:VZERX:v0,v0c,v0x   0.10856   0.78683  -0.67827 v5,v5c,v5x   0.10856   0.78683  -0.67827

------- case.scf1 --------
:LMAX-WF:   10   Non-Spherical LMAX:   4

          ATOMIC SPHERE DEPENDENT PARAMETERS FOR ATOM  Fe        
:e__0001: OVERALL ENERGY PARAMETER IS    0.1858
          OVERALL BASIS SET ON ATOM IS LAPW
:E1_0001: E( 1)=    0.1858
             APW+lo
:E1_0001: E( 1)=   -3.4808   E(BOTTOM)=   -3.572   E(TOP)=   -3.389  1  2   148
             LOCAL ORBITAL
:E2_0001: E( 2)=    0.3056   E(BOTTOM)=   -0.052   E(TOP)=    0.663  0  1   132
             APW+lo
:E0_0001: E( 0)=    0.1858
             APW+lo

          ATOMIC SPHERE DEPENDENT PARAMETERS FOR ATOM  Se        
:e__0002: OVERALL ENERGY PARAMETER IS    0.1858
          OVERALL BASIS SET ON ATOM IS LAPW
:E2_0002: E( 2)=    0.1858
             APW+lo
:E2_0002: E( 2)=   -3.1801   E(BOTTOM)=   -3.224   E(TOP)=   -3.136  0  1   140
             LOCAL ORBITAL
:E0_0002: E( 0)=    0.5858
             APW+lo
:E0_0002: E( 0)=   -1.0200   E(BOTTOM)=   -1.648   E(TOP)= -200.000  3 -1   185
             LOCAL ORBITAL
:E1_0002: E( 1)=    0.1858
             APW+lo

       K=   0.04545   0.04545   0.07143            1
:RKM  : MATRIX SIZE   582LOs:  54  RKM= 7.97  WEIGHT= 8.00  PGR:    
       EIGENVALUES ARE:
:EIG00001:      -3.4711693   -3.4709426   -3.4621409   -3.4619144   -3.4514369
:EIG00006:      -3.4494867   -3.1706043   -3.1703613   -3.1699773   -3.1699272
:EIG00011:      -3.1690209   -3.1690162   -3.1689973   -3.1689845   -3.1681495
:EIG00016:      -3.1681158   -0.6874105   -0.6028268   -0.0331004    0.0849597
:EIG00021:       0.0965002    0.1009108    0.1409344    0.1455109    0.2010568
:EIG00026:       0.3430873    0.3504164    0.3874663    0.3894046    0.3969955
:EIG00031:       0.4448938    0.4622896    0.5473020    0.5568980    0.6150876
:EIG00036:       0.7513340    0.8175526    0.9122682    0.9244693    0.9251792
:EIG00041:       1.2390761    1.2840173    1.3037566    1.3497445    1.3507967
:EIG00046:       1.3587855    1.4154823    1.4441117    1.4566953    1.4877947
 
:EIG00051:       1.6064366    1.6162395    1.7146068    1.7493195    1.8505937
       ********************************************************

:KPT   :      NUMBER OF K-POINTS:    84

------- case.scf2 --------
:GMA  : POTENTIAL AND CHARGE CUT-OFF  12.00 Ry**.5




:POS001: at.nr.  -1 position = 0.25000 0.75000 0.00000  multiplicity =  2

       lmmax  8
       lm=   0 0  2 0 -3 2  4 0  4 4 -5 2  6 0  6 4




:POS002: at.nr.  -2 position = 0.25000 0.75000 0.00000  multiplicity =  2

       lmmax 10
       lm=   0 0  1 0  2 0  3 0  4 0  4 4  5 0  5 4  6 0  6 4
:FER gutzwiller fermi energy   0.38445
:EORB          0.189230691
:SUM sum of gutz band energies       -102.404309548

:CHA001: total charge inside sphere   1 =    12.631125
:PCS001: partial charges sphere =  1 s,p,d,f,pz,pxy,,d-z2,d-xy,d-x2y2,d-xz,yz 
:QTL001: 0.2630 6.2485 6.0965 0.0187 2.0673 4.1812 0.0000 1.3687 1.2818 1.1635 2.2825 0.0000
:VZZ001: efg inside sphere   1 =     2.062805      up to r =   2.16000

:CHA002: total charge inside sphere   2 =    13.468638
:PCS002: partial charges sphere =  2 s,p,d,f,pz,pxy,,d-z2,d-xy,d-x2y2,d-xz,yz 
:QTL002: 1.3589 2.055410.0395 0.0122 0.7011 1.3543 0.0000 2.0073 2.0079 2.0081 4.0162 0.0000
:VZZ002: efg inside sphere   2 =    -5.038170      up to r =   2.05000

:CHA  : total charge inside unit cell =      60.000000

------- case.scfc --------

        1.ATOM      Fe                    5 CORE STATES
:1S 001: 1S                -512.221375879 Ry
:2S 001: 2S                 -59.153742479 Ry
:2PP001: 2P*                -50.955983517 Ry
:2P 001: 2P                 -50.040760704 Ry
:3S 001: 3S                  -5.923057466 Ry

        2.ATOM      Se                    7 CORE STATES
       CORE-FORCE in mRy/a.u. = |F|      Fx             Fy             Fz
:FCO002:   2.ATOM   1110.763088529493      0.000000000000      0.000000000000  -1110.763088529493

:1S 002: 1S                -916.480518197 Ry
:2S 002: 2S                -117.139847431 Ry
:2PP002: 2P*               -105.115113247 Ry
:2P 002: 2P                -102.051860564 Ry
:3S 002: 3S                 -14.871289447 Ry
:3PP002: 3P*                -10.758434016 Ry
:3P 002: 3P                 -10.325983147 Ry

------- case.scfm --------
:CINT001 Core Integral Atom   1   11.997152
:CINT002 Core Integral Atom   2   17.999411

       DENSITY AT NUCLEUS
        JATOM        VALENCE       SEMI-CORE          CORE           TOTAL
:RTO001:   1        5.784178        0.000000    14798.147531    14803.931709
:RTO002:   2       55.990228        0.000000    38924.736969    38980.727196
     
       CHARGES OF NEW CHARGE DENSITY
:NTO   : INTERSTITIAL CHARGE =     7.800691
:NPC   : PW Pseudocharge     =    13.862680
:NTO001: CHARGE SPHERE  1    =    24.628276
:NTO002: CHARGE SPHERE  2    =    31.468049

:NEC01: NUCLEAR AND ELECTRONIC CHARGE    120.00000   119.99334
     
       CHARGES OF OLD CHARGE DENSITY
:OTO   : INTERSTITIAL CHARGE =     7.876646
:OPC   : PW Pseudocharge     =    13.868846
:OTO001: CHARGE SPHERE  1    =    24.631239
:OTO002: CHARGE SPHERE  2    =    31.430438

:NEC02: NUCLEAR AND ELECTRONIC CHARGE    120.00000   120.00000
     
       CONVERGENCE TEST
:DTO001: DIFFERENCE IN SPHERE  1 =  0.0794547
:DTO002: DIFFERENCE IN SPHERE  2 =  0.0277389

:DIS  :  CHARGE DISTANCE       ( 0.0794547 for atom    1 spin 1)      0.0535968
 PW Mixed is          365
 
******************************************************
* MULTISECANT MIXING VER9 RELEASE 10.4.0              *
* Standard Mode with controls                        *
* Fixed density scale                                *
* Regularization       1.000E-04                     *
* Trust Upper Limit    5.000E+00                     *
* Max Number of Memory Steps    8                    *
******************************************************
 
:PWTMP   3.7368E+02  3.2249E+02  5.3028E+02
:PLANE:  PW TOTAL      3.7068 DISTAN   5.78E-02  1.56E+00 %
:CHARG:  CLM/ATOM    303.3358 DISTAN   8.31E-02  2.74E-02 %
 
Step History
        DMIX         DMIXT        Red     Pred      Trust     Lambda    MagRel    MagAbs     Beta
  1   3.5000E-02   3.5000E-02 -1.00E+00  1.00E+00 -1.00E+01  1.00E+00  3.50E-02  3.50E-02  1.00E+00
:INFO :  Note, Pratt in use
:TRUST:  Step 3.75E-02  Charge 7.50E-02 (e) CTO  2.50E-01 (e) PW  3.50E-01 (e)
:DIRM :  MEMORY  0/ 8 SCALE   1.000
Performing Pseudo Compensation
Final Pseudo Compensation Rescaling     9.99819E-01
:MIX  :   PRATT  REGULARIZATION:  1.00E-04 GREED: 0.02500                  
     
       CHARGES OF MIXED CHARGE DENSITY
:CTO   : INTERSTITIAL CHARGE =     7.874914
:CPC   : PW Pseudocharge     =    13.895174
:CTO001: CHARGE SPHERE  1    =    24.631165
:CTO002: CHARGE SPHERE  2    =    31.431379

:NEC03: NUCLEAR AND ELECTRONIC CHARGE    120.00000   120.00000

PW CHANGE     H    K    L      Current       Change    Residue
:PTO001:      0    0    0  4.10539303E-02  4.638E-05 -1.200E-04
:PTO002:      0    0   -1  2.12420722E-02 -9.093E-05 -7.025E-04
:PTO004:     -1    0   -1 -9.19732295E-02 -5.790E-04 -1.154E-03
:PTO005:      0    0   -2 -1.09021582E-02 -1.755E-04 -3.157E-04
:PTO006:     -1   -1    0 -2.12270412E-02 -3.371E-04 -5.608E-04
:PTO007:     -1   -1   -1  1.90137685E-02 -1.276E-04 -2.055E-04
:PTO008:     -1    0   -2 -6.90241676E-04 -4.365E-06 -1.746E-04
:PTO009:     -1   -1   -2  2.84169370E-02  2.909E-04  6.548E-04
:PTO010:     -2    0    0 -1.31038192E-02 -1.421E-04 -2.844E-04
:PTO011:      0    0   -3  4.09796880E-04 -4.923E-06  1.313E-04
:PTO012:     -2    0   -1  1.21613520E-03  7.857E-06 -5.955E-04
:PTO014:     -1    0   -3  9.87102973E-03  2.353E-04  2.420E-04

:ENE  : ********** TOTAL ENERGY IN Ry =       -14790.27233309

       TOTAL FORCE IN mRy/a.u. = |F|     Fx             Fy             Fz     with/without FOR in case.in2
:FOR001:   1.ATOM          0.000          0.000          0.000          0.000 partial forces
:FOR002:   2.ATOM        159.330          0.000          0.000        159.330 partial forces
       TOTAL FORCE WITH RESPECT TO GLOBAL CARTESIAN COORDINATES:
:FCA001:   1.ATOM                         0.000          0.000          0.000 partial forces
:FCA002:   2.ATOM                         0.000          0.000        159.330 partial forces
       TOTAL FORCE WITH RESPECT TO THE GLOBAL COORDINATE SYSTEM:
:FGL001:   1.ATOM                 0.000000000     0.000000000     0.000000000 partial forces
:FGL002:   2.ATOM                 0.000000000     0.000000000   159.330247954 partial forces

------- case.scf0 --------
 Flat Integration
 New Mode for Coulomb Integral
 Consistent 3/8+Simpson combinations
 Extension of core to zero
 LDM version in phi
 Fifth-order quadrature in outwin


            ---------
:ITE011: 11. ITERATION
            ---------

:NATO :    2 INDEPENDENT AND    4 TOTAL ATOMS IN UNITCELL
       SUBSTANCE: FeSe                                                        

       LATTICE                      = P   
:POT  : POTENTIAL OPTION EX_LDA EC_LDA VX_LDA VC_LDA
:LAT  : LATTICE CONSTANTS=  7.12881  7.12881 10.43450    1.571    1.571    1.571
:VOL  : UNIT CELL VOLUME =     530.28024
       MODE OF CALCULATION IS       = RELA
       NON-SPINPOLARIZED CALCULATION
:IFFT  : FFT-parameters:   60   60   80 Factor: 2.00


   CONVERGENCE PARAMETER FOR PSEUDOCHARGE: NCON=  9
   MAXIMAL VALUE OF RMT(JATOM)*ABSK(NKK) : RK  =25.91023


:VKCOUL :  VK-COUL convergence: 0.195E-06
       ATOMNUMBER=  1 Fe         VCOUL-ZERO =  0.24682E+00
:EFG001:                        EFG         =     0.00358   *10**21  V / m**2
                               V20  TOT/SRF=     0.00310    -0.04267
                               V22  TOT/SRF=     0.00000     0.00000
                               V22M TOT/SRF=     0.00000     0.00000
                               V21  TOT/SRF=     0.00000     0.00000
                               V21M TOT/SRF=     0.00000     0.00000

             -0.00179    0.00000    0.00000       -0.00179    0.00000    0.00000
              0.00000   -0.00179    0.00000        0.00000   -0.00179    0.00000
              0.00000    0.00000    0.00358        0.00000    0.00000    0.00358

         MAIN DIRECTIONS OF THE EFG   1.0000  0.0000  0.0000
                                      0.0000  1.0000  0.0000
                                      0.0000  0.0000  1.0000
:ANG001:  ANGLE WITH OLD X-AXIS =         0.0

:ETA001:                         ASYMM. ETA =     0.00000


       ATOMNUMBER=  2 Se         VCOUL-ZERO =  0.48125E-01
:EFG002:                        EFG         =    -5.91808   *10**21  V / m**2
                               V20  TOT/SRF=    -5.12520    -0.00674
                               V22  TOT/SRF=     0.00000     0.00000
                               V22M TOT/SRF=     0.00000     0.00000
                               V21  TOT/SRF=     0.00000     0.00000
                               V21M TOT/SRF=     0.00000     0.00000

              2.95904    0.00000    0.00000        2.95904    0.00000    0.00000
              0.00000    2.95904    0.00000        0.00000    2.95904    0.00000
              0.00000    0.00000   -5.91808        0.00000    0.00000   -5.91808

         MAIN DIRECTIONS OF THE EFG   1.0000  0.0000  0.0000
                                      0.0000  1.0000  0.0000
                                      0.0000  0.0000  1.0000
:ANG002:  ANGLE WITH OLD X-AXIS =         0.0

:ETA002:                         ASYMM. ETA =     0.00000


     HELLMANN-FEYNMAN-FORCE IN mRy/a.u. = |F|  Fx       Fy             Fz
:FHF001:   1.ATOM      0.000000000000      0.000000000000      0.000000000000      0.000000000000

     HELLMANN-FEYNMAN-FORCE IN mRy/a.u. = |F|  Fx       Fy             Fz
:FHF002:   2.ATOM   1281.119944678656      0.000000000000      0.000000000000   1281.119944678656

:FIT001: LUSE= 13 SIGMA OF V-XC FIT FOR ATOM  1  0.2089978E-02
:FIT001: LUSE= 13 SIGMA OF V-XC FIT FOR ATOM  1  0.2089978E-02
:FIT002: LUSE= 13 SIGMA OF V-XC FIT FOR ATOM  2  0.4413400E-03
:FIT002: LUSE= 13 SIGMA OF V-XC FIT FOR ATOM  2  0.4413400E-03
:DEN  : DENSITY INTEGRAL  =         -6218.31314857   (Ry)
       ELS_POTENTIAL_AT Z=0 and Z=0.5:  -0.72458   0.66105
       ELS_POTENTIAL_AT Y=0 and Y=0.5:   0.00000   0.00000
:VZERO:v0,v0c,v0x  -1.55105  -0.72458  -0.82647 v5,v5c,v5x   0.18414   0.66105  -0.47691
:VZERY:v0,v0c,v0x  -0.70769   0.00000  -0.70769 v5,v5c,v5x  -0.70769   0.00000  -0.70769
:VZERX:v0,v0c,v0x   0.10871   0.78673  -0.67802 v5,v5c,v5x   0.10871   0.78673  -0.67802

------- case.scf1 --------
:LMAX-WF:   10   Non-Spherical LMAX:   4

          ATOMIC SPHERE DEPENDENT PARAMETERS FOR ATOM  Fe        
:e__0001: OVERALL ENERGY PARAMETER IS    0.1858
          OVERALL BASIS SET ON ATOM IS LAPW
:E1_0001: E( 1)=    0.1858
             APW+lo
:E1_0001: E( 1)=   -3.4804   E(BOTTOM)=   -3.572   E(TOP)=   -3.389  1  2   145
             LOCAL ORBITAL
:E2_0001: E( 2)=    0.3058   E(BOTTOM)=   -0.052   E(TOP)=    0.664  0  1   133
             APW+lo
:E0_0001: E( 0)=    0.1858
             APW+lo

          ATOMIC SPHERE DEPENDENT PARAMETERS FOR ATOM  Se        
:e__0002: OVERALL ENERGY PARAMETER IS    0.1858
          OVERALL BASIS SET ON ATOM IS LAPW
:E2_0002: E( 2)=    0.1858
             APW+lo
:E2_0002: E( 2)=   -3.1794   E(BOTTOM)=   -3.223   E(TOP)=   -3.135  0  1   141
             LOCAL ORBITAL
:E0_0002: E( 0)=    0.5858
             APW+lo
:E0_0002: E( 0)=   -1.0200   E(BOTTOM)=   -1.647   E(TOP)= -200.000  3 -1   181
             LOCAL ORBITAL
:E1_0002: E( 1)=    0.1858
             APW+lo

       K=   0.04545   0.04545   0.07143            1
:RKM  : MATRIX SIZE   582LOs:  54  RKM= 7.97  WEIGHT= 8.00  PGR:    
       EIGENVALUES ARE:
:EIG00001:      -3.4706795   -3.4704525   -3.4616432   -3.4614165   -3.4511425
:EIG00006:      -3.4491905   -3.1699294   -3.1696865   -3.1693018   -3.1692516
:EIG00011:      -3.1683507   -3.1683461   -3.1683271   -3.1683143   -3.1674808
:EIG00016:      -3.1674471   -0.6873065   -0.6026453   -0.0330171    0.0850367
:EIG00021:       0.0965622    0.1009753    0.1409974    0.1455802    0.2011755
:EIG00026:       0.3432474    0.3506443    0.3876483    0.3897413    0.3971776
:EIG00031:       0.4452822    0.4625301    0.5475707    0.5572144    0.6151360
:EIG00036:       0.7514826    0.8176293    0.9122836    0.9244736    0.9251816
:EIG00041:       1.2391775    1.2841924    1.3037767    1.3498556    1.3508469
:EIG00046:       1.3586990    1.4155223    1.4441172    1.4568414    1.4878651
 
:EIG00051:       1.6066341    1.6164808    1.7145503    1.7493430    1.8506134
       ********************************************************

:KPT   :      NUMBER OF K-POINTS:    84

------- case.scf2 --------
:GMA  : POTENTIAL AND CHARGE CUT-OFF  12.00 Ry**.5




:POS001: at.nr.  -1 position = 0.25000 0.75000 0.00000  multiplicity =  2

       lmmax  8
       lm=   0 0  2 0 -3 2  4 0  4 4 -5 2  6 0  6 4




:POS002: at.nr.  -2 position = 0.25000 0.75000 0.00000  multiplicity =  2

       lmmax 10
       lm=   0 0  1 0  2 0  3 0  4 0  4 4  5 0  5 4  6 0  6 4
:FER gutzwiller fermi energy   0.38474
:EORB          0.188963047
:SUM sum of gutz band energies       -102.381695934

:CHA001: total charge inside sphere   1 =    12.629843
:PCS001: partial charges sphere =  1 s,p,d,f,pz,pxy,,d-z2,d-xy,d-x2y2,d-xz,yz 
:QTL001: 0.2632 6.2488 6.0947 0.0188 2.0674 4.1815 0.0000 1.3686 1.2800 1.1630 2.2832 0.0000
:VZZ001: efg inside sphere   1 =     1.978178      up to r =   2.16000

:CHA002: total charge inside sphere   2 =    13.468150
:PCS002: partial charges sphere =  2 s,p,d,f,pz,pxy,,d-z2,d-xy,d-x2y2,d-xz,yz 
:QTL002: 1.3588 2.054910.0396 0.0122 0.7010 1.3539 0.0000 2.0074 2.0079 2.0081 4.0163 0.0000
:VZZ002: efg inside sphere   2 =    -5.040694      up to r =   2.05000

:CHA  : total charge inside unit cell =      60.000000

------- case.scfc --------

        1.ATOM      Fe                    5 CORE STATES
:1S 001: 1S                -512.219792345 Ry
:2S 001: 2S                 -59.152291520 Ry
:2PP001: 2P*                -50.954499475 Ry
:2P 001: 2P                 -50.039279829 Ry
:3S 001: 3S                  -5.922566573 Ry

        2.ATOM      Se                    7 CORE STATES
       CORE-FORCE in mRy/a.u. = |F|      Fx             Fy             Fz
:FCO002:   2.ATOM   1115.374991147864      0.000000000000      0.000000000000  -1115.374991147864

:1S 002: 1S                -916.479594899 Ry
:2S 002: 2S                -117.139018378 Ry
:2PP002: 2P*               -105.114269422 Ry
:2P 002: 2P                -102.051018773 Ry
:3S 002: 3S                 -14.870596108 Ry
:3PP002: 3P*                -10.757743014 Ry
:3P 002: 3P                 -10.325295710 Ry

------- case.scfm --------
:CINT001 Core Integral Atom   1   11.997150
:CINT002 Core Integral Atom   2   17.999410

       DENSITY AT NUCLEUS
        JATOM        VALENCE       SEMI-CORE          CORE           TOTAL
:RTO001:   1        5.789354        0.000000    14798.127282    14803.916636
:RTO002:   2       55.984070        0.000000    38924.731010    38980.715080
     
       CHARGES OF NEW CHARGE DENSITY
:NTO   : INTERSTITIAL CHARGE =     7.803972
:NPC   : PW Pseudocharge     =    13.864213
:NTO001: CHARGE SPHERE  1    =    24.626993
:NTO002: CHARGE SPHERE  2    =    31.467560

:NEC01: NUCLEAR AND ELECTRONIC CHARGE    120.00000   119.99308
     
       CHARGES OF OLD CHARGE DENSITY
:OTO   : INTERSTITIAL CHARGE =     7.874914
:OPC   : PW Pseudocharge     =    13.895174
:OTO001: CHARGE SPHERE  1    =    24.631165
:OTO002: CHARGE SPHERE  2    =    31.431379

:NEC02: NUCLEAR AND ELECTRONIC CHARGE    120.00000   120.00000
     
       CONVERGENCE TEST
:DTO001: DIFFERENCE IN SPHERE  1 =  0.0728087
:DTO002: DIFFERENCE IN SPHERE  2 =  0.0264818

:DIS  :  CHARGE DISTANCE       ( 0.0728087 for atom    1 spin 1)      0.0496453
 PW Mixed is          365
 
******************************************************
* MULTISECANT MIXING VER9 RELEASE 10.4.0              *
* Slow Mode, cautious                                *
* Fixed density scale                                *
* Regularization       1.000E-04                     *
* Step Trust Radius    0.75000                       *
* Trust Upper Limit    2.000E+00                     *
* Max Number of Memory Steps   12                    *
******************************************************
 
:PWTMP   3.7368E+02  3.2249E+02  5.3028E+02
:PLANE:  PW TOTAL      3.7201 DISTAN   4.35E-02  1.17E+00 %
:CHARG:  CLM/ATOM    303.3360 DISTAN   7.78E-02  2.57E-02 %
 
Step History
        DMIX         DMIXT        Red     Pred      Trust     Lambda    MagRel    MagAbs     Beta
  1   3.5000E-02   3.5000E-02 -1.00E+00  1.00E+00 -1.00E+01  1.00E+00  3.50E-02  3.50E-02  1.00E+00
  2   2.5000E-02   2.5000E-02 -1.00E+00  1.00E+00 -1.00E+01  1.00E+00  2.50E-02  4.40E-03  1.00E+00
:JACOBIANS    3.997E-01   3.018E-02
  
:NORMS:  1/Froebius, Min, Max, Used   0.8001E+00  0.8001E+00  0.8580E+00  0.8001E+00
:INFO :  Number of Memory Steps    1 Skipping    0
:PREDicted Charge, CTotal, PW Trust    3.495E-03   6.440E-03   5.560E-02
:PREDicted DMix, Beta, BLim   1.0000E-02  3.7173E+00  5.2125E-01

Eigenvalues, unscaled except for SY+YY
   #     SY Real        SY Imag          SS             YY         SY+YY Real      SY+YY Imag
   1   8.579532E-01   0.000000E+00   8.001395E-01   1.000000E+00   1.857953E+00   0.000000E+00
 
:BLIM :  VZERO Control Off
:TRUST:  Step 4.49E-01  Charge 7.50E-02 (e) CTO  2.50E-01 (e) PW  3.50E-01 (e)
:DIRM :  MEMORY  1/12 SCALE   1.000 RED  0.92 PRED  1.00 NEXT  0.89 
:TRAVE:  Charge 3.20E-03 (e) CTO  5.70E-03 (e) PW  3.90E-02 (e)
:DIRP :  |MSR1|= 6.479E-02 |PRATT|= 4.348E-02 ANGLE=  69.2 DEGREES
:DIRQ :  |MSR1|= 1.383E-02 |PRATT|= 1.556E-01 ANGLE=   0.3 DEGREES
:DIRT :  |MSR1|= 6.624E-02 |PRATT|= 1.616E-01 ANGLE=  72.9 DEGREES
:MIX  :   MSR1   REGULARIZATION:  1.00E-04 GREED: 0.02000  Newton 1.00  0.4099                
     
       CHARGES OF MIXED CHARGE DENSITY
:CTO   : INTERSTITIAL CHARGE =     7.869213
:CPC   : PW Pseudocharge     =    13.965020
:CTO001: CHARGE SPHERE  1    =    24.630814
:CTO002: CHARGE SPHERE  2    =    31.434579

:NEC03: NUCLEAR AND ELECTRONIC CHARGE    120.00000   120.00000

PW CHANGE     H    K    L      Current       Change    Residue
:PTO001:      0    0    0  4.11748934E-02  1.210E-04 -1.559E-04
:PTO002:      0    0   -1  2.09895413E-02 -2.525E-04 -5.867E-04
:PTO004:     -1    0   -1 -9.35252072E-02 -1.552E-03 -5.565E-04
:PTO005:      0    0   -2 -1.13718567E-02 -4.697E-04 -1.342E-04
:PTO006:     -1   -1    0 -2.21285310E-02 -9.015E-04 -2.146E-04
:PTO007:     -1   -1   -1  1.86719203E-02 -3.418E-04 -8.344E-05
:PTO008:     -1    0   -2 -7.06076253E-04 -1.583E-05 -1.811E-04
:PTO009:     -1   -1   -2  2.91979817E-02  7.810E-04  3.528E-04
:PTO010:     -2    0    0 -1.34846447E-02 -3.808E-04 -1.353E-04
:PTO011:      0    0   -3  3.98994550E-04 -1.080E-05  1.306E-04
:PTO012:     -2    0   -1  1.22536620E-03  9.231E-06 -5.983E-04
:PTO014:     -1    0   -3  1.04975716E-02  6.265E-04  4.946E-06

:ENE  : ********** TOTAL ENERGY IN Ry =       -14790.27212289

       TOTAL FORCE IN mRy/a.u. = |F|     Fx             Fy             Fz     with/without FOR in case.in2
:FOR001:   1.ATOM          0.000          0.000          0.000          0.000 partial forces
:FOR002:   2.ATOM        165.745          0.000          0.000        165.745 partial forces
       TOTAL FORCE WITH RESPECT TO GLOBAL CARTESIAN COORDINATES:
:FCA001:   1.ATOM                         0.000          0.000          0.000 partial forces
:FCA002:   2.ATOM                         0.000          0.000        165.745 partial forces
       TOTAL FORCE WITH RESPECT TO THE GLOBAL COORDINATE SYSTEM:
:FGL001:   1.ATOM                 0.000000000     0.000000000     0.000000000 partial forces
:FGL002:   2.ATOM                 0.000000000     0.000000000   165.744953531 partial forces

------- case.scf0 --------
 Flat Integration
 New Mode for Coulomb Integral
 Consistent 3/8+Simpson combinations
 Extension of core to zero
 LDM version in phi
 Fifth-order quadrature in outwin


            ---------
:ITE012: 12. ITERATION
            ---------

:NATO :    2 INDEPENDENT AND    4 TOTAL ATOMS IN UNITCELL
       SUBSTANCE: FeSe                                                        

       LATTICE                      = P   
:POT  : POTENTIAL OPTION EX_LDA EC_LDA VX_LDA VC_LDA
:LAT  : LATTICE CONSTANTS=  7.12881  7.12881 10.43450    1.571    1.571    1.571
:VOL  : UNIT CELL VOLUME =     530.28024
       MODE OF CALCULATION IS       = RELA
       NON-SPINPOLARIZED CALCULATION
:IFFT  : FFT-parameters:   60   60   80 Factor: 2.00


   CONVERGENCE PARAMETER FOR PSEUDOCHARGE: NCON=  9
   MAXIMAL VALUE OF RMT(JATOM)*ABSK(NKK) : RK  =25.91023


:VKCOUL :  VK-COUL convergence: 0.196E-06
       ATOMNUMBER=  1 Fe         VCOUL-ZERO =  0.24440E+00
:EFG001:                        EFG         =     0.17145   *10**21  V / m**2
                               V20  TOT/SRF=     0.14848    -0.04459
                               V22  TOT/SRF=     0.00000     0.00000
                               V22M TOT/SRF=     0.00000     0.00000
                               V21  TOT/SRF=     0.00000     0.00000
                               V21M TOT/SRF=     0.00000     0.00000

             -0.08573    0.00000    0.00000       -0.08573    0.00000    0.00000
              0.00000   -0.08573    0.00000        0.00000   -0.08573    0.00000
              0.00000    0.00000    0.17145        0.00000    0.00000    0.17145

         MAIN DIRECTIONS OF THE EFG   1.0000  0.0000  0.0000
                                      0.0000  1.0000  0.0000
                                      0.0000  0.0000  1.0000
:ANG001:  ANGLE WITH OLD X-AXIS =         0.0

:ETA001:                         ASYMM. ETA =     0.00000


       ATOMNUMBER=  2 Se         VCOUL-ZERO =  0.48703E-01
:EFG002:                        EFG         =    -5.84005   *10**21  V / m**2
                               V20  TOT/SRF=    -5.05763    -0.00672
                               V22  TOT/SRF=     0.00000     0.00000
                               V22M TOT/SRF=     0.00000     0.00000
                               V21  TOT/SRF=     0.00000     0.00000
                               V21M TOT/SRF=     0.00000     0.00000

              2.92003    0.00000    0.00000        2.92003    0.00000    0.00000
              0.00000    2.92003    0.00000        0.00000    2.92003    0.00000
              0.00000    0.00000   -5.84005        0.00000    0.00000   -5.84005

         MAIN DIRECTIONS OF THE EFG   1.0000  0.0000  0.0000
                                      0.0000  1.0000  0.0000
                                      0.0000  0.0000  1.0000
:ANG002:  ANGLE WITH OLD X-AXIS =         0.0

:ETA002:                         ASYMM. ETA =     0.00000


     HELLMANN-FEYNMAN-FORCE IN mRy/a.u. = |F|  Fx       Fy             Fz
:FHF001:   1.ATOM      0.000000000000      0.000000000000      0.000000000000      0.000000000000

     HELLMANN-FEYNMAN-FORCE IN mRy/a.u. = |F|  Fx       Fy             Fz
:FHF002:   2.ATOM   1317.321147954475      0.000000000000      0.000000000000   1317.321147954475

:FIT001: LUSE= 13 SIGMA OF V-XC FIT FOR ATOM  1  0.2092030E-02
:FIT001: LUSE= 13 SIGMA OF V-XC FIT FOR ATOM  1  0.2092030E-02
:FIT002: LUSE= 13 SIGMA OF V-XC FIT FOR ATOM  2  0.4368703E-03
:FIT002: LUSE= 13 SIGMA OF V-XC FIT FOR ATOM  2  0.4368703E-03
:DEN  : DENSITY INTEGRAL  =         -6218.58045343   (Ry)
       ELS_POTENTIAL_AT Z=0 and Z=0.5:  -0.71957   0.66332
       ELS_POTENTIAL_AT Y=0 and Y=0.5:   0.00000   0.00000
:VZERO:v0,v0c,v0x  -1.54409  -0.71957  -0.82451 v5,v5c,v5x   0.18606   0.66332  -0.47726
:VZERY:v0,v0c,v0x  -0.70772   0.00000  -0.70772 v5,v5c,v5x  -0.70772   0.00000  -0.70772
:VZERX:v0,v0c,v0x   0.10905   0.78641  -0.67736 v5,v5c,v5x   0.10905   0.78641  -0.67736

------- case.scf1 --------
:LMAX-WF:   10   Non-Spherical LMAX:   4

          ATOMIC SPHERE DEPENDENT PARAMETERS FOR ATOM  Fe        
:e__0001: OVERALL ENERGY PARAMETER IS    0.1858
          OVERALL BASIS SET ON ATOM IS LAPW
:E1_0001: E( 1)=    0.1858
             APW+lo
:E1_0001: E( 1)=   -3.4792   E(BOTTOM)=   -3.571   E(TOP)=   -3.388  1  2   149
             LOCAL ORBITAL
:E2_0001: E( 2)=    0.3064   E(BOTTOM)=   -0.052   E(TOP)=    0.665  0  1   136
             APW+lo
:E0_0001: E( 0)=    0.1858
             APW+lo

          ATOMIC SPHERE DEPENDENT PARAMETERS FOR ATOM  Se        
:e__0002: OVERALL ENERGY PARAMETER IS    0.1858
          OVERALL BASIS SET ON ATOM IS LAPW
:E2_0002: E( 2)=    0.1858
             APW+lo
:E2_0002: E( 2)=   -3.1771   E(BOTTOM)=   -3.221   E(TOP)=   -3.133  0  1   142
             LOCAL ORBITAL
:E0_0002: E( 0)=    0.5858
             APW+lo
:E0_0002: E( 0)=   -1.0200   E(BOTTOM)=   -1.646   E(TOP)= -200.000  3 -1   184
             LOCAL ORBITAL
:E1_0002: E( 1)=    0.1858
             APW+lo

       K=   0.04545   0.04545   0.07143            1
:RKM  : MATRIX SIZE   582LOs:  54  RKM= 7.97  WEIGHT= 8.00  PGR:    
       EIGENVALUES ARE:
:EIG00001:      -3.4691898   -3.4689622   -3.4601282   -3.4599007   -3.4503067
:EIG00006:      -3.4483490   -3.1676415   -3.1673989   -3.1670112   -3.1669610
:EIG00011:      -3.1660790   -3.1660745   -3.1660554   -3.1660425   -3.1652139
:EIG00016:      -3.1651803   -0.6869497   -0.6020248   -0.0327458    0.0852491
:EIG00021:       0.0967262    0.1011475    0.1411965    0.1457999    0.2014641
:EIG00026:       0.3436774    0.3513126    0.3881599    0.3907350    0.3976726
:EIG00031:       0.4464489    0.4633033    0.5484116    0.5582096    0.6152946
:EIG00036:       0.7519319    0.8178509    0.9123281    0.9244791    0.9251823
:EIG00041:       1.2395162    1.2847703    1.3038320    1.3502290    1.3509786
:EIG00046:       1.3584243    1.4156501    1.4441306    1.4573335    1.4881052
 
:EIG00051:       1.6072926    1.6172898    1.7143552    1.7494165    1.8506847
       ********************************************************

:KPT   :      NUMBER OF K-POINTS:    84

------- case.scf2 --------
:GMA  : POTENTIAL AND CHARGE CUT-OFF  12.00 Ry**.5




:POS001: at.nr.  -1 position = 0.25000 0.75000 0.00000  multiplicity =  2

       lmmax  8
       lm=   0 0  2 0 -3 2  4 0  4 4 -5 2  6 0  6 4




:POS002: at.nr.  -2 position = 0.25000 0.75000 0.00000  multiplicity =  2

       lmmax 10
       lm=   0 0  1 0  2 0  3 0  4 0  4 4  5 0  5 4  6 0  6 4
:FER gutzwiller fermi energy   0.38526
:EORB          0.192616314
:SUM sum of gutz band energies       -102.312953376

:CHA001: total charge inside sphere   1 =    12.629152
:PCS001: partial charges sphere =  1 s,p,d,f,pz,pxy,,d-z2,d-xy,d-x2y2,d-xz,yz 
:QTL001: 0.2638 6.2496 6.0925 0.0188 2.0675 4.1821 0.0000 1.3686 1.2784 1.1604 2.2851 0.0000
:VZZ001: efg inside sphere   1 =     1.807258      up to r =   2.16000

:CHA002: total charge inside sphere   2 =    13.465085
:PCS002: partial charges sphere =  2 s,p,d,f,pz,pxy,,d-z2,d-xy,d-x2y2,d-xz,yz 
:QTL002: 1.3586 2.051710.0400 0.0123 0.6998 1.3518 0.0000 2.0074 2.0079 2.0081 4.0165 0.0000
:VZZ002: efg inside sphere   2 =    -5.024528      up to r =   2.05000

:CHA  : total charge inside unit cell =      59.999996

------- case.scfc --------

        1.ATOM      Fe                    5 CORE STATES
:1S 001: 1S                -512.214781242 Ry
:2S 001: 2S                 -59.147690770 Ry
:2PP001: 2P*                -50.949793793 Ry
:2P 001: 2P                 -50.034584219 Ry
:3S 001: 3S                  -5.921080053 Ry

        2.ATOM      Se                    7 CORE STATES
       CORE-FORCE in mRy/a.u. = |F|      Fx             Fy             Fz
:FCO002:   2.ATOM   1130.272879146390      0.000000000000      0.000000000000  -1130.272879146390

:1S 002: 1S                -916.476488881 Ry
:2S 002: 2S                -117.136226145 Ry
:2PP002: 2P*               -105.111428284 Ry
:2P 002: 2P                -102.048184367 Ry
:3S 002: 3S                 -14.868246276 Ry
:3PP002: 3P*                -10.755401034 Ry
:3P 002: 3P                 -10.322965439 Ry

------- case.scfm --------
:CINT001 Core Integral Atom   1   11.997144
:CINT002 Core Integral Atom   2   17.999410

       DENSITY AT NUCLEUS
        JATOM        VALENCE       SEMI-CORE          CORE           TOTAL
:RTO001:   1        5.806563        0.000000    14798.061804    14803.868367
:RTO002:   2       55.962821        0.000000    38924.711392    38980.674213
     
       CHARGES OF NEW CHARGE DENSITY
:NTO   : INTERSTITIAL CHARGE =     7.811216
:NPC   : PW Pseudocharge     =    13.866827
:NTO001: CHARGE SPHERE  1    =    24.626296
:NTO002: CHARGE SPHERE  2    =    31.464495

:NEC01: NUCLEAR AND ELECTRONIC CHARGE    120.00000   119.99280
     
       CHARGES OF OLD CHARGE DENSITY
:OTO   : INTERSTITIAL CHARGE =     7.869213
:OPC   : PW Pseudocharge     =    13.965020
:OTO001: CHARGE SPHERE  1    =    24.630814
:OTO002: CHARGE SPHERE  2    =    31.434579

:NEC02: NUCLEAR AND ELECTRONIC CHARGE    120.00000   120.00000
     
       CONVERGENCE TEST
:DTO001: DIFFERENCE IN SPHERE  1 =  0.0549518
:DTO002: DIFFERENCE IN SPHERE  2 =  0.0214150

:DIS  :  CHARGE DISTANCE       ( 0.0549518 for atom    1 spin 1)      0.0381834
 PW Mixed is          365
 
******************************************************
* MULTISECANT MIXING VER9 RELEASE 10.4.0              *
* Slow Mode, cautious                                *
* Fixed density scale                                *
* Regularization       1.000E-04                     *
* Step Trust Radius    0.75000                       *
* Trust Upper Limit    2.000E+00                     *
* Max Number of Memory Steps   12                    *
******************************************************
 
:PWTMP   3.7368E+02  3.2249E+02  5.3028E+02
:PLANE:  PW TOTAL      3.7560 DISTAN   6.47E-02  1.72E+00 %
:CHARG:  CLM/ATOM    303.3368 DISTAN   6.31E-02  2.08E-02 %
 
Step History
        DMIX         DMIXT        Red     Pred      Trust     Lambda    MagRel    MagAbs     Beta
  1   3.5000E-02   3.5000E-02 -1.00E+00  1.00E+00 -1.00E+01  1.00E+00  3.50E-02  3.50E-02  1.00E+00
  2   2.5000E-02   2.5000E-02  9.18E-01  1.00E+00 -1.00E+01  1.00E+00  2.50E-02  4.40E-03  1.00E+00
  3   2.0000E-02   2.0000E-02 -1.00E+00  8.87E-01  4.49E-01  1.00E+00  4.10E-01  6.62E-02  1.00E+00
:JACOBIANS    6.022E-01   7.832E-02
  
:NORMS:  1/Froebius, Min, Max, Used   0.8829E+00  0.4694E+00  0.8830E+00  0.8830E+00
:INFO :  Number of Memory Steps    2 Skipping    0
:INFO :  SLambda=    0.0874296582  Max    0.0874296582
:PREDicted Charge, CTotal, PW Trust    5.007E-03   8.454E-03   3.290E-02
:PREDicted DMix, Beta, BLim   5.0781E-02  9.5625E-01  4.2257E-01

Eigenvalues, unscaled except for SY+YY
   #     SY Real        SY Imag          SS             YY         SY+YY Real      SY+YY Imag
   1   1.709842E+00   0.000000E+00   1.559050E+00   1.999621E+00   2.149112E+00   0.000000E+00
   2   3.117482E-05   0.000000E+00   5.103713E-05   3.792152E-04   3.819897E-04   0.000000E+00
 
:INFO :  Singular value  2.149E+00 Weight  1.000E+00 Projection -1.706E-05
:INFO :  Singular value  3.820E-04 Weight  7.849E-01 Projection -1.148E+00
:RANK :  ACTIVE   1.78/2  =  89.25 % ; YY RANK   1.78/2  =  89.12 %
 
:DLIM :  Beta Active  9.672E-01
:BLIM :  VZERO Control Off
:TRUST:  Step 5.11E-01  Charge 7.50E-02 (e) CTO  2.50E-01 (e) PW  3.50E-01 (e)
:DIRM :  MEMORY  2/12 SCALE   1.000 RED  0.88 PRED  0.89 NEXT  0.99 BETA  0.97
:TRAVE:  Charge 2.90E-03 (e) CTO  5.19E-03 (e) PW  2.40E-02 (e)
:DIRP :  |MSR1|= 7.751E-03 |PRATT|= 6.471E-02 ANGLE=   8.8 DEGREES
:DIRQ :  |MSR1|= 1.143E-02 |PRATT|= 1.262E-01 ANGLE=   2.0 DEGREES
:DIRT :  |MSR1|= 1.381E-02 |PRATT|= 1.418E-01 ANGLE=   8.5 DEGREES
:MIX  :   MSD1   REGULARIZATION:  2.00E-04 GREED: 0.03789  Newton 1.00  0.0974                
     
       CHARGES OF MIXED CHARGE DENSITY
:CTO   : INTERSTITIAL CHARGE =     7.864528
:CPC   : PW Pseudocharge     =    13.954840
:CTO001: CHARGE SPHERE  1    =    24.630558
:CTO002: CHARGE SPHERE  2    =    31.437178

:NEC03: NUCLEAR AND ELECTRONIC CHARGE    120.00000   120.00000

PW CHANGE     H    K    L      Current       Change    Residue
:PTO001:      0    0    0  4.11468613E-02 -2.803E-05 -2.569E-04
:PTO002:      0    0   -1  2.09750923E-02 -1.445E-05 -2.470E-04
:PTO004:     -1    0   -1 -9.33748150E-02  1.504E-04  1.090E-03
:PTO005:      0    0   -2 -1.13227103E-02  4.915E-05  3.676E-04
:PTO006:     -1   -1    0 -2.20322135E-02  9.632E-05  7.324E-04
:PTO007:     -1   -1   -1  1.87042219E-02  3.230E-05  2.390E-04
:PTO008:     -1    0   -2 -7.26319517E-04 -2.024E-05 -2.126E-04
:PTO009:     -1   -1   -2  2.91305184E-02 -6.746E-05 -4.679E-04
:PTO010:     -2    0    0 -1.34478269E-02  3.682E-05  2.697E-04
:PTO011:      0    0   -3  4.11149050E-04  1.215E-05  1.266E-04
:PTO012:     -2    0   -1  1.16951827E-03 -5.585E-05 -5.955E-04
:PTO014:     -1    0   -3  1.04198463E-02 -7.773E-05 -6.305E-04

:ENE  : ********** TOTAL ENERGY IN Ry =       -14790.27120860

       TOTAL FORCE IN mRy/a.u. = |F|     Fx             Fy             Fz     with/without FOR in case.in2
:FOR001:   1.ATOM          0.000          0.000          0.000          0.000 partial forces
:FOR002:   2.ATOM        187.048          0.000          0.000        187.048 partial forces
       TOTAL FORCE WITH RESPECT TO GLOBAL CARTESIAN COORDINATES:
:FCA001:   1.ATOM                         0.000          0.000          0.000 partial forces
:FCA002:   2.ATOM                         0.000          0.000        187.048 partial forces
       TOTAL FORCE WITH RESPECT TO THE GLOBAL COORDINATE SYSTEM:
:FGL001:   1.ATOM                 0.000000000     0.000000000     0.000000000 partial forces
:FGL002:   2.ATOM                 0.000000000     0.000000000   187.048268808 partial forces

------- case.scf0 --------
 Flat Integration
 New Mode for Coulomb Integral
 Consistent 3/8+Simpson combinations
 Extension of core to zero
 LDM version in phi
 Fifth-order quadrature in outwin


            ---------
:ITE013: 13. ITERATION
            ---------

:NATO :    2 INDEPENDENT AND    4 TOTAL ATOMS IN UNITCELL
       SUBSTANCE: FeSe                                                        

       LATTICE                      = P   
:POT  : POTENTIAL OPTION EX_LDA EC_LDA VX_LDA VC_LDA
:LAT  : LATTICE CONSTANTS=  7.12881  7.12881 10.43450    1.571    1.571    1.571
:VOL  : UNIT CELL VOLUME =     530.28024
       MODE OF CALCULATION IS       = RELA
       NON-SPINPOLARIZED CALCULATION
:IFFT  : FFT-parameters:   60   60   80 Factor: 2.00


   CONVERGENCE PARAMETER FOR PSEUDOCHARGE: NCON=  9
   MAXIMAL VALUE OF RMT(JATOM)*ABSK(NKK) : RK  =25.91023


:VKCOUL :  VK-COUL convergence: 0.196E-06
       ATOMNUMBER=  1 Fe         VCOUL-ZERO =  0.24255E+00
:EFG001:                        EFG         =     0.31473   *10**21  V / m**2
                               V20  TOT/SRF=     0.27256    -0.04592
                               V22  TOT/SRF=     0.00000     0.00000
                               V22M TOT/SRF=     0.00000     0.00000
                               V21  TOT/SRF=     0.00000     0.00000
                               V21M TOT/SRF=     0.00000     0.00000

             -0.15736    0.00000    0.00000       -0.15736    0.00000    0.00000
              0.00000   -0.15736    0.00000        0.00000   -0.15736    0.00000
              0.00000    0.00000    0.31473        0.00000    0.00000    0.31473

         MAIN DIRECTIONS OF THE EFG   1.0000  0.0000  0.0000
                                      0.0000  1.0000  0.0000
                                      0.0000  0.0000  1.0000
:ANG001:  ANGLE WITH OLD X-AXIS =         0.0

:ETA001:                         ASYMM. ETA =     0.00000


       ATOMNUMBER=  2 Se         VCOUL-ZERO =  0.49180E-01
:EFG002:                        EFG         =    -5.76467   *10**21  V / m**2
                               V20  TOT/SRF=    -4.99235    -0.00673
                               V22  TOT/SRF=     0.00000     0.00000
                               V22M TOT/SRF=     0.00000     0.00000
                               V21  TOT/SRF=     0.00000     0.00000
                               V21M TOT/SRF=     0.00000     0.00000

              2.88233    0.00000    0.00000        2.88233    0.00000    0.00000
              0.00000    2.88233    0.00000        0.00000    2.88233    0.00000
              0.00000    0.00000   -5.76467        0.00000    0.00000   -5.76467

         MAIN DIRECTIONS OF THE EFG   1.0000  0.0000  0.0000
                                      0.0000  1.0000  0.0000
                                      0.0000  0.0000  1.0000
:ANG002:  ANGLE WITH OLD X-AXIS =         0.0

:ETA002:                         ASYMM. ETA =     0.00000


     HELLMANN-FEYNMAN-FORCE IN mRy/a.u. = |F|  Fx       Fy             Fz
:FHF001:   1.ATOM      0.000000000000      0.000000000000      0.000000000000      0.000000000000

     HELLMANN-FEYNMAN-FORCE IN mRy/a.u. = |F|  Fx       Fy             Fz
:FHF002:   2.ATOM   1337.779204928498      0.000000000000      0.000000000000   1337.779204928498

:FIT001: LUSE= 13 SIGMA OF V-XC FIT FOR ATOM  1  0.2093258E-02
:FIT001: LUSE= 13 SIGMA OF V-XC FIT FOR ATOM  1  0.2093258E-02
:FIT002: LUSE= 13 SIGMA OF V-XC FIT FOR ATOM  2  0.4329676E-03
:FIT002: LUSE= 13 SIGMA OF V-XC FIT FOR ATOM  2  0.4329676E-03
:DEN  : DENSITY INTEGRAL  =         -6218.78621132   (Ry)
       ELS_POTENTIAL_AT Z=0 and Z=0.5:  -0.72183   0.66504
       ELS_POTENTIAL_AT Y=0 and Y=0.5:   0.00000   0.00000
:VZERO:v0,v0c,v0x  -1.54633  -0.72183  -0.82451 v5,v5c,v5x   0.18748   0.66504  -0.47756
:VZERY:v0,v0c,v0x  -0.70767   0.00000  -0.70767 v5,v5c,v5x  -0.70767   0.00000  -0.70767
:VZERX:v0,v0c,v0x   0.10875   0.78613  -0.67738 v5,v5c,v5x   0.10875   0.78613  -0.67738

------- case.scf1 --------
:LMAX-WF:   10   Non-Spherical LMAX:   4

          ATOMIC SPHERE DEPENDENT PARAMETERS FOR ATOM  Fe        
:e__0001: OVERALL ENERGY PARAMETER IS    0.1858
          OVERALL BASIS SET ON ATOM IS LAPW
:E1_0001: E( 1)=    0.1858
             APW+lo
:E1_0001: E( 1)=   -3.4782   E(BOTTOM)=   -3.570   E(TOP)=   -3.386  1  2   144
             LOCAL ORBITAL
:E2_0001: E( 2)=    0.3070   E(BOTTOM)=   -0.052   E(TOP)=    0.666  0  1   136
             APW+lo
:E0_0001: E( 0)=    0.1858
             APW+lo

          ATOMIC SPHERE DEPENDENT PARAMETERS FOR ATOM  Se        
:e__0002: OVERALL ENERGY PARAMETER IS    0.1858
          OVERALL BASIS SET ON ATOM IS LAPW
:E2_0002: E( 2)=    0.1858
             APW+lo
:E2_0002: E( 2)=   -3.1754   E(BOTTOM)=   -3.219   E(TOP)=   -3.131  0  1   142
             LOCAL ORBITAL
:E0_0002: E( 0)=    0.5858
             APW+lo
:E0_0002: E( 0)=   -1.0200   E(BOTTOM)=   -1.645   E(TOP)= -200.000  3 -1   188
             LOCAL ORBITAL
:E1_0002: E( 1)=    0.1858
             APW+lo

       K=   0.04545   0.04545   0.07143            1
:RKM  : MATRIX SIZE   582LOs:  54  RKM= 7.97  WEIGHT= 8.00  PGR:    
       EIGENVALUES ARE:
:EIG00001:      -3.4679587   -3.4677306   -3.4588773   -3.4586493   -3.4496698
:EIG00006:      -3.4477077   -3.1658646   -3.1656225   -3.1652319   -3.1651817
:EIG00011:      -3.1643174   -3.1643131   -3.1642939   -3.1642809   -3.1634572
:EIG00016:      -3.1634236   -0.6866385   -0.6015060   -0.0325199    0.0854609
:EIG00021:       0.0968811    0.1013075    0.1413784    0.1459984    0.2017615
:EIG00026:       0.3440202    0.3518358    0.3885707    0.3915932    0.3980777
:EIG00031:       0.4474334    0.4639114    0.5490753    0.5589972    0.6154337
:EIG00036:       0.7523270    0.8180236    0.9123707    0.9244861    0.9252005
:EIG00041:       1.2397927    1.2852126    1.3038848    1.3505190    1.3510550
:EIG00046:       1.3582558    1.4157560    1.4441542    1.4577158    1.4882961
 
:EIG00051:       1.6078020    1.6179141    1.7141954    1.7494689    1.8507519
       ********************************************************

:KPT   :      NUMBER OF K-POINTS:    84

------- case.scf2 --------
:GMA  : POTENTIAL AND CHARGE CUT-OFF  12.00 Ry**.5




:POS001: at.nr.  -1 position = 0.25000 0.75000 0.00000  multiplicity =  2

       lmmax  8
       lm=   0 0  2 0 -3 2  4 0  4 4 -5 2  6 0  6 4




:POS002: at.nr.  -2 position = 0.25000 0.75000 0.00000  multiplicity =  2

       lmmax 10
       lm=   0 0  1 0  2 0  3 0  4 0  4 4  5 0  5 4  6 0  6 4
:FER gutzwiller fermi energy   0.38574
:EORB          0.194729841
:SUM sum of gutz band energies       -102.257467588

:CHA001: total charge inside sphere   1 =    12.628543
:PCS001: partial charges sphere =  1 s,p,d,f,pz,pxy,,d-z2,d-xy,d-x2y2,d-xz,yz 
:QTL001: 0.2644 6.2503 6.0907 0.0188 2.0676 4.1827 0.0000 1.3686 1.2770 1.1583 2.2867 0.0000
:VZZ001: efg inside sphere   1 =     1.662097      up to r =   2.16000

:CHA002: total charge inside sphere   2 =    13.462823
:PCS002: partial charges sphere =  2 s,p,d,f,pz,pxy,,d-z2,d-xy,d-x2y2,d-xz,yz 
:QTL002: 1.3583 2.049310.0402 0.0123 0.6990 1.3503 0.0000 2.0075 2.0080 2.0082 4.0166 0.0000
:VZZ002: efg inside sphere   2 =    -5.008293      up to r =   2.05000

:CHA  : total charge inside unit cell =      60.000000

------- case.scfc --------

        1.ATOM      Fe                    5 CORE STATES
:1S 001: 1S                -512.211060777 Ry
:2S 001: 2S                 -59.144175698 Ry
:2PP001: 2P*                -50.946213252 Ry
:2P 001: 2P                 -50.031010112 Ry
:3S 001: 3S                  -5.919879577 Ry

        2.ATOM      Se                    7 CORE STATES
       CORE-FORCE in mRy/a.u. = |F|      Fx             Fy             Fz
:FCO002:   2.ATOM   1136.832919784669      0.000000000000      0.000000000000  -1136.832919784669

:1S 002: 1S                -916.474174496 Ry
:2S 002: 2S                -117.134136898 Ry
:2PP002: 2P*               -105.109305412 Ry
:2P 002: 2P                -102.046066122 Ry
:3S 002: 3S                 -14.866424601 Ry
:3PP002: 3P*                -10.753585310 Ry
:3P 002: 3P                 -10.321157240 Ry

------- case.scfm --------
:CINT001 Core Integral Atom   1   11.997140
:CINT002 Core Integral Atom   2   17.999410

       DENSITY AT NUCLEUS
        JATOM        VALENCE       SEMI-CORE          CORE           TOTAL
:RTO001:   1        5.820193        0.000000    14798.013573    14803.833766
:RTO002:   2       55.944593        0.000000    38924.698502    38980.643095
     
       CHARGES OF NEW CHARGE DENSITY
:NTO   : INTERSTITIAL CHARGE =     7.817329
:NPC   : PW Pseudocharge     =    13.869049
:NTO001: CHARGE SPHERE  1    =    24.625683
:NTO002: CHARGE SPHERE  2    =    31.462233

:NEC01: NUCLEAR AND ELECTRONIC CHARGE    120.00000   119.99316
     
       CHARGES OF OLD CHARGE DENSITY
:OTO   : INTERSTITIAL CHARGE =     7.864528
:OPC   : PW Pseudocharge     =    13.954840
:OTO001: CHARGE SPHERE  1    =    24.630558
:OTO002: CHARGE SPHERE  2    =    31.437178

:NEC02: NUCLEAR AND ELECTRONIC CHARGE    120.00000   120.00000
     
       CONVERGENCE TEST
:DTO001: DIFFERENCE IN SPHERE  1 =  0.0412800
:DTO002: DIFFERENCE IN SPHERE  2 =  0.0176796

:DIS  :  CHARGE DISTANCE       ( 0.0412800 for atom    1 spin 1)      0.0294798
 PW Mixed is          365
 
******************************************************
* MULTISECANT MIXING VER9 RELEASE 10.4.0              *
* Standard Mode with controls                        *
* Fixed density scale                                *
* Regularization       1.000E-04                     *
* Trust Upper Limit    5.000E+00                     *
* Max Number of Memory Steps    8                    *
******************************************************
 
:PWTMP   3.7368E+02  3.2249E+02  5.3028E+02
:PLANE:  PW TOTAL      3.7511 DISTAN   5.82E-02  1.55E+00 %
:CHARG:  CLM/ATOM    303.3373 DISTAN   5.15E-02  1.70E-02 %
 
Step History
        DMIX         DMIXT        Red     Pred      Trust     Lambda    MagRel    MagAbs     Beta
  1   3.5000E-02   3.5000E-02 -1.00E+00  1.00E+00 -1.00E+01  1.00E+00  3.50E-02  3.50E-02  1.00E+00
  2   2.5000E-02   2.5000E-02  9.18E-01  1.00E+00 -1.00E+01  1.00E+00  2.50E-02  4.40E-03  1.00E+00
  3   2.0000E-02   2.0000E-02  8.77E-01  8.87E-01  4.49E-01  8.74E-02  4.10E-01  6.62E-02  1.00E+00
  4   3.7891E-02   3.7891E-02 -1.00E+00  9.86E-01  5.11E-01  1.00E+00  9.74E-02  1.38E-02  9.67E-01
:JACOBIANS    8.189E-01   2.514E-01
  
:NORMS:  1/Froebius, Min, Max, Used   0.6888E+00  0.4896E+00  0.1004E+01  0.6960E+00
:INFO :  Number of Memory Steps    3 Skipping    0
:INFO :  SLambda=    1.4719697291  Max    1.4719697291
:PREDicted Charge, CTotal, PW Trust    1.393E-02   2.502E-02   7.210E-02
:PREDicted DMix, Beta, BLim   5.2915E-01  4.7583E+00  7.7328E-01

Eigenvalues, unscaled except for SY+YY
   #     SY Real        SY Imag          SS             YY         SY+YY Real      SY+YY Imag
   1   1.434195E+00   0.000000E+00   1.149565E+00   2.373128E+00   4.402580E+00   0.000000E+00
   2   9.278454E-06   0.000000E+00   2.738178E-01   6.265761E-01   3.098671E-04   0.000000E+00
   3   4.483145E-01   0.000000E+00   2.918714E-07   2.956033E-04   1.368120E+00   0.000000E+00
 
:INFO :  Singular value  4.407E+00 Weight  1.000E+00 Projection  1.891E-02
:INFO :  Singular value  1.367E+00 Weight  1.000E+00 Projection -1.310E-01
:INFO :  Singular value  3.099E-04 Weight  6.303E-01 Projection -3.177E-01
:RANK :  ACTIVE   2.63/3  =  87.68 % ; YY RANK   2.61/3  =  86.94 %
 
:BLIM :  VZERO Control Off
:TRUST:  Step 6.27E-01  Charge 7.50E-02 (e) CTO  2.50E-01 (e) PW  3.50E-01 (e)
:DTRUS:  Lambda    1.670E-01 Increment    7.276E-12 Iterations    99 DMIX    9.404E-02
:INFOA:  Angle SubSpace to MSR1      2.35
:DIRM :  MEMORY  3/8  SCALE   1.000 RED  0.83 PRED  0.99 NEXT  0.38 
:INFO :  Limited by Atoms F by Step T

:TRAVE:  Charge 6.86E-03 (e) CTO  1.20E-02 (e) PW  3.92E-02 (e)
:DIRP :  |MSR1|= 5.744E-02 |PRATT|= 5.816E-02 ANGLE=  16.9 DEGREES
:DIRQ :  |MSR1|= 4.686E-02 |PRATT|= 1.030E-01 ANGLE=   2.7 DEGREES
:DIRT :  |MSR1|= 7.413E-02 |PRATT|= 1.183E-01 ANGLE=  23.9 DEGREES
:MIX  :   MSE1   REGULARIZATION:  2.37E-04 GREED: 0.09473  LMStep 0.92  0.6266 Step           
     
       CHARGES OF MIXED CHARGE DENSITY
:CTO   : INTERSTITIAL CHARGE =     7.845789
:CPC   : PW Pseudocharge     =    13.884165
:CTO001: CHARGE SPHERE  1    =    24.629113
:CTO002: CHARGE SPHERE  2    =    31.447993

:NEC03: NUCLEAR AND ELECTRONIC CHARGE    120.00000   120.00000

PW CHANGE     H    K    L      Current       Change    Residue
:PTO001:      0    0    0  4.09782460E-02 -1.686E-04 -2.150E-04
:PTO002:      0    0   -1  2.10102545E-02  3.516E-05 -1.674E-04
:PTO004:     -1    0   -1 -9.21252472E-02  1.250E-03  1.020E-03
:PTO005:      0    0   -2 -1.09264195E-02  3.963E-04  3.436E-04
:PTO006:     -1   -1    0 -2.12660737E-02  7.661E-04  6.748E-04
:PTO007:     -1   -1   -1  1.89611940E-02  2.570E-04  1.942E-04
:PTO008:     -1    0   -2 -8.36549119E-04 -1.102E-04 -2.248E-04
:PTO009:     -1   -1   -2  2.85452087E-02 -5.853E-04 -4.350E-04
:PTO010:     -2    0    0 -1.31418172E-02  3.060E-04  2.526E-04
:PTO011:      0    0   -3  4.69087733E-04  5.794E-05  1.029E-04
:PTO012:     -2    0   -1  8.94807667E-04 -2.747E-04 -5.311E-04
:PTO014:     -1    0   -3  9.84261734E-03 -5.772E-04 -5.616E-04

:ENE  : ********** TOTAL ENERGY IN Ry =       -14790.27064094

       TOTAL FORCE IN mRy/a.u. = |F|     Fx             Fy             Fz     with/without FOR in case.in2
:FOR001:   1.ATOM          0.000          0.000          0.000          0.000 partial forces
:FOR002:   2.ATOM        200.946          0.000          0.000        200.946 partial forces
       TOTAL FORCE WITH RESPECT TO GLOBAL CARTESIAN COORDINATES:
:FCA001:   1.ATOM                         0.000          0.000          0.000 partial forces
:FCA002:   2.ATOM                         0.000          0.000        200.946 partial forces
       TOTAL FORCE WITH RESPECT TO THE GLOBAL COORDINATE SYSTEM:
:FGL001:   1.ATOM                 0.000000000     0.000000000     0.000000000 partial forces
:FGL002:   2.ATOM                 0.000000000     0.000000000   200.946285144 partial forces

------- case.scf0 --------
 Flat Integration
 New Mode for Coulomb Integral
 Consistent 3/8+Simpson combinations
 Extension of core to zero
 LDM version in phi
 Fifth-order quadrature in outwin


            ---------
:ITE014: 14. ITERATION
            ---------

:NATO :    2 INDEPENDENT AND    4 TOTAL ATOMS IN UNITCELL
       SUBSTANCE: FeSe                                                        

       LATTICE                      = P   
:POT  : POTENTIAL OPTION EX_LDA EC_LDA VX_LDA VC_LDA
:LAT  : LATTICE CONSTANTS=  7.12881  7.12881 10.43450    1.571    1.571    1.571
:VOL  : UNIT CELL VOLUME =     530.28024
       MODE OF CALCULATION IS       = RELA
       NON-SPINPOLARIZED CALCULATION
:IFFT  : FFT-parameters:   60   60   80 Factor: 2.00


   CONVERGENCE PARAMETER FOR PSEUDOCHARGE: NCON=  9
   MAXIMAL VALUE OF RMT(JATOM)*ABSK(NKK) : RK  =25.91023


:VKCOUL :  VK-COUL convergence: 0.195E-06
       ATOMNUMBER=  1 Fe         VCOUL-ZERO =  0.23512E+00
:EFG001:                        EFG         =     0.90477   *10**21  V / m**2
                               V20  TOT/SRF=     0.78356    -0.05079
                               V22  TOT/SRF=     0.00000     0.00000
                               V22M TOT/SRF=     0.00000     0.00000
                               V21  TOT/SRF=     0.00000     0.00000
                               V21M TOT/SRF=     0.00000     0.00000

             -0.45239    0.00000    0.00000       -0.45239    0.00000    0.00000
              0.00000   -0.45239    0.00000        0.00000   -0.45239    0.00000
              0.00000    0.00000    0.90477        0.00000    0.00000    0.90477

         MAIN DIRECTIONS OF THE EFG   1.0000  0.0000  0.0000
                                      0.0000  1.0000  0.0000
                                      0.0000  0.0000  1.0000
:ANG001:  ANGLE WITH OLD X-AXIS =         0.0

:ETA001:                         ASYMM. ETA =     0.00000


       ATOMNUMBER=  2 Se         VCOUL-ZERO =  0.51191E-01
:EFG002:                        EFG         =    -5.40798   *10**21  V / m**2
                               V20  TOT/SRF=    -4.68345    -0.00678
                               V22  TOT/SRF=     0.00000     0.00000
                               V22M TOT/SRF=     0.00000     0.00000
                               V21  TOT/SRF=     0.00000     0.00000
                               V21M TOT/SRF=     0.00000     0.00000

              2.70399    0.00000    0.00000        2.70399    0.00000    0.00000
              0.00000    2.70399    0.00000        0.00000    2.70399    0.00000
              0.00000    0.00000   -5.40798        0.00000    0.00000   -5.40798

         MAIN DIRECTIONS OF THE EFG   1.0000  0.0000  0.0000
                                      0.0000  1.0000  0.0000
                                      0.0000  0.0000  1.0000
:ANG002:  ANGLE WITH OLD X-AXIS =         0.0

:ETA002:                         ASYMM. ETA =     0.00000


     HELLMANN-FEYNMAN-FORCE IN mRy/a.u. = |F|  Fx       Fy             Fz
:FHF001:   1.ATOM      0.000000000000      0.000000000000      0.000000000000      0.000000000000

     HELLMANN-FEYNMAN-FORCE IN mRy/a.u. = |F|  Fx       Fy             Fz
:FHF002:   2.ATOM   1390.421254285695      0.000000000000      0.000000000000   1390.421254285695

:FIT001: LUSE= 13 SIGMA OF V-XC FIT FOR ATOM  1  0.2096716E-02
:FIT001: LUSE= 13 SIGMA OF V-XC FIT FOR ATOM  1  0.2096716E-02
:FIT002: LUSE= 13 SIGMA OF V-XC FIT FOR ATOM  2  0.4159033E-03
:FIT002: LUSE= 13 SIGMA OF V-XC FIT FOR ATOM  2  0.4159033E-03
:DEN  : DENSITY INTEGRAL  =         -6219.53739277   (Ry)
       ELS_POTENTIAL_AT Z=0 and Z=0.5:  -0.73375   0.67182
       ELS_POTENTIAL_AT Y=0 and Y=0.5:   0.00000   0.00000
:VZERO:v0,v0c,v0x  -1.55901  -0.73375  -0.82526 v5,v5c,v5x   0.19302   0.67182  -0.47880
:VZERY:v0,v0c,v0x  -0.70743   0.00000  -0.70743 v5,v5c,v5x  -0.70743   0.00000  -0.70743
:VZERX:v0,v0c,v0x   0.10729   0.78500  -0.67771 v5,v5c,v5x   0.10729   0.78500  -0.67771

------- case.scf1 --------
:LMAX-WF:   10   Non-Spherical LMAX:   4

          ATOMIC SPHERE DEPENDENT PARAMETERS FOR ATOM  Fe        
:e__0001: OVERALL ENERGY PARAMETER IS    0.1858
          OVERALL BASIS SET ON ATOM IS LAPW
:E1_0001: E( 1)=    0.1858
             APW+lo
:E1_0001: E( 1)=   -3.4749   E(BOTTOM)=   -3.567   E(TOP)=   -3.383  1  2   147
             LOCAL ORBITAL
:E2_0001: E( 2)=    0.3085   E(BOTTOM)=   -0.052   E(TOP)=    0.669  0  1   138
             APW+lo
:E0_0001: E( 0)=    0.1858
             APW+lo

          ATOMIC SPHERE DEPENDENT PARAMETERS FOR ATOM  Se        
:e__0002: OVERALL ENERGY PARAMETER IS    0.1858
          OVERALL BASIS SET ON ATOM IS LAPW
:E2_0002: E( 2)=    0.1858
             APW+lo
:E2_0002: E( 2)=   -3.1684   E(BOTTOM)=   -3.212   E(TOP)=   -3.124  0  1   140
             LOCAL ORBITAL
:E0_0002: E( 0)=    0.5858
             APW+lo
:E0_0002: E( 0)=   -1.0200   E(BOTTOM)=   -1.642   E(TOP)= -200.000  3 -1   184
             LOCAL ORBITAL
:E1_0002: E( 1)=    0.1858
             APW+lo

       K=   0.04545   0.04545   0.07143            1
:RKM  : MATRIX SIZE   582LOs:  54  RKM= 7.97  WEIGHT= 8.00  PGR:    
       EIGENVALUES ARE:
:EIG00001:      -3.4637951   -3.4635651   -3.4546406   -3.4544106   -3.4480915
:EIG00006:      -3.4461131   -3.1587960   -3.1585562   -3.1581511   -3.1581007
:EIG00011:      -3.1573229   -3.1573187   -3.1572994   -3.1572862   -3.1564853
:EIG00016:      -3.1564520   -0.6853141   -0.5993374   -0.0316762    0.0861383
:EIG00021:       0.0972875    0.1017281    0.1420649    0.1467496    0.2025014
:EIG00026:       0.3447633    0.3533345    0.3896376    0.3944338    0.3990484
:EIG00031:       0.4507373    0.4661016    0.5513476    0.5617285    0.6159769
:EIG00036:       0.7537155    0.8184746    0.9124883    0.9244442    0.9252495
:EIG00041:       1.2408713    1.2868477    1.3040307    1.3509834    1.3516334
:EIG00046:       1.3578543    1.4161326    1.4442300    1.4592032    1.4890518
 
:EIG00051:       1.6097439    1.6203184    1.7135004    1.7496053    1.8510539
       ********************************************************

:KPT   :      NUMBER OF K-POINTS:    84

------- case.scf2 --------
:GMA  : POTENTIAL AND CHARGE CUT-OFF  12.00 Ry**.5




:POS001: at.nr.  -1 position = 0.25000 0.75000 0.00000  multiplicity =  2

       lmmax  8
       lm=   0 0  2 0 -3 2  4 0  4 4 -5 2  6 0  6 4




:POS002: at.nr.  -2 position = 0.25000 0.75000 0.00000  multiplicity =  2

       lmmax 10
       lm=   0 0  1 0  2 0  3 0  4 0  4 4  5 0  5 4  6 0  6 4
:FER gutzwiller fermi energy   0.38721
:EORB          0.199768629
:SUM sum of gutz band energies       -102.050929363

:CHA001: total charge inside sphere   1 =    12.628153
:PCS001: partial charges sphere =  1 s,p,d,f,pz,pxy,,d-z2,d-xy,d-x2y2,d-xz,yz 
:QTL001: 0.2664 6.2528 6.0856 0.0189 2.0680 4.1848 0.0000 1.3692 1.2714 1.1501 2.2949 0.0000
:VZZ001: efg inside sphere   1 =     1.031826      up to r =   2.16000

:CHA002: total charge inside sphere   2 =    13.452463
:PCS002: partial charges sphere =  2 s,p,d,f,pz,pxy,,d-z2,d-xy,d-x2y2,d-xz,yz 
:QTL002: 1.3574 2.038810.0411 0.0125 0.6952 1.3436 0.0000 2.0076 2.0081 2.0083 4.0172 0.0000
:VZZ002: efg inside sphere   2 =    -4.937160      up to r =   2.05000

:CHA  : total charge inside unit cell =      60.000000

------- case.scfc --------

        1.ATOM      Fe                    5 CORE STATES
:1S 001: 1S                -512.198703301 Ry
:2S 001: 2S                 -59.132077973 Ry
:2PP001: 2P*                -50.933942367 Ry
:2P 001: 2P                 -50.018757085 Ry
:3S 001: 3S                  -5.915957950 Ry

        2.ATOM      Se                    7 CORE STATES
       CORE-FORCE in mRy/a.u. = |F|      Fx             Fy             Fz
:FCO002:   2.ATOM   1144.091227849014      0.000000000000      0.000000000000  -1144.091227849014

:1S 002: 1S                -916.465344404 Ry
:2S 002: 2S                -117.126130680 Ry
:2PP002: 2P*               -105.101182037 Ry
:2P 002: 2P                -102.037958854 Ry
:3S 002: 3S                 -14.859191779 Ry
:3PP002: 3P*                -10.746375450 Ry
:3P 002: 3P                 -10.313971236 Ry

------- case.scfm --------
:CINT001 Core Integral Atom   1   11.997123
:CINT002 Core Integral Atom   2   17.999409

       DENSITY AT NUCLEUS
        JATOM        VALENCE       SEMI-CORE          CORE           TOTAL
:RTO001:   1        5.874138        0.000000    14797.845810    14803.719947
:RTO002:   2       55.871307        0.000000    38924.656300    38980.527607
     
       CHARGES OF NEW CHARGE DENSITY
:NTO   : INTERSTITIAL CHARGE =     7.838539
:NPC   : PW Pseudocharge     =    13.874239
:NTO001: CHARGE SPHERE  1    =    24.625276
:NTO002: CHARGE SPHERE  2    =    31.451872

:NEC01: NUCLEAR AND ELECTRONIC CHARGE    120.00000   119.99283
     
       CHARGES OF OLD CHARGE DENSITY
:OTO   : INTERSTITIAL CHARGE =     7.845789
:OPC   : PW Pseudocharge     =    13.884165
:OTO001: CHARGE SPHERE  1    =    24.629113
:OTO002: CHARGE SPHERE  2    =    31.447993

:NEC02: NUCLEAR AND ELECTRONIC CHARGE    120.00000   120.00000
     
       CONVERGENCE TEST
:DTO001: DIFFERENCE IN SPHERE  1 =  0.0150507
:DTO002: DIFFERENCE IN SPHERE  2 =  0.0058885

:DIS  :  CHARGE DISTANCE       ( 0.0150507 for atom    1 spin 1)      0.0104696
 PW Mixed is          365
 
******************************************************
* MULTISECANT MIXING VER9 RELEASE 10.4.0              *
* Standard Mode with controls                        *
* Fixed density scale                                *
* Regularization       1.000E-04                     *
* Trust Upper Limit    5.000E+00                     *
* Max Number of Memory Steps    8                    *
******************************************************
 
:PWTMP   3.7368E+02  3.2249E+02  5.3028E+02
:PLANE:  PW TOTAL      3.7162 DISTAN   1.27E-02  3.42E-01 %
:CHARG:  CLM/ATOM    303.3388 DISTAN   1.69E-02  5.58E-03 %
 
Step History
        DMIX         DMIXT        Red     Pred      Trust     Lambda    MagRel    MagAbs     Beta
  1   3.5000E-02   3.5000E-02 -1.00E+00  1.00E+00 -1.00E+01  1.00E+00  3.50E-02  3.50E-02  1.00E+00
  2   2.5000E-02   2.5000E-02  9.18E-01  1.00E+00 -1.00E+01  1.00E+00  2.50E-02  4.40E-03  1.00E+00
  3   2.0000E-02   2.0000E-02  8.77E-01  8.87E-01  4.49E-01  8.74E-02  4.10E-01  6.62E-02  1.00E+00
  4   3.7891E-02   3.7891E-02  8.34E-01  9.86E-01  5.11E-01  1.47E+00  9.74E-02  1.38E-02  9.67E-01
  5   9.4727E-02   9.4043E-02 -1.00E+00  3.76E-01  6.27E-01  1.00E+00  6.27E-01  7.41E-02  1.00E+00
:JACOBIANS    9.269E-01   3.612E-01
  
:NORMS:  1/Froebius, Min, Max, Used   0.5810E+00  0.4836E+00  0.1003E+01  0.6199E+00
:INFO :  Number of Memory Steps    4 Skipping    0
:INFO :  SLambda=    0.3848168243  Max    0.3848168243
:PREDicted Charge, CTotal, PW Trust    1.146E-02   1.951E-02   6.020E-02
:PREDicted DMix, Beta, BLim   6.0237E-02  1.0905E+00  1.4349E+00

Eigenvalues, unscaled except for SY+YY
   #     SY Real        SY Imag          SS             YY         SY+YY Real      SY+YY Imag
   1   1.732076E+00   0.000000E+00   1.081621E+00   3.652887E+00   4.315479E+00   0.000000E+00
   2   3.296472E-01   0.000000E+00   2.685488E-01   3.468843E-01   4.776760E-01   0.000000E+00
   3   3.123267E-06   0.000000E+00   2.201570E-05   1.324876E-04   9.918459E-05   0.000000E+00
   4   5.217038E-05   0.000000E+00   9.708487E-08   9.633596E-05   1.523820E-04   0.000000E+00
 
:INFO :  Singular value  4.316E+00 Weight  1.000E+00 Projection  2.130E-03
:INFO :  Singular value  4.776E-01 Weight  1.000E+00 Projection -1.217E-02
:INFO :  Singular value  1.524E-04 Weight  1.482E-01 Projection -3.896E-01
:INFO :  Singular value  9.918E-05 Weight  6.865E-02 Projection -8.902E-02
:RANK :  ACTIVE   2.22/4  =  55.42 % ; YY RANK   2.18/4  =  54.53 %
 
:BLIM :  VZERO Control Off
:TRUST:  Step 9.94E-01  Charge 7.50E-02 (e) CTO  2.50E-01 (e) PW  3.50E-01 (e)
:DIRM :  MEMORY  4/8  SCALE   1.000 RED  0.31 PRED  0.38 NEXT  0.87 
:TRAVE:  Charge 3.83E-03 (e) CTO  6.35E-03 (e) PW  2.22E-02 (e)
:DIRP :  |MSR1|= 7.828E-03 |PRATT|= 1.269E-02 ANGLE=  52.9 DEGREES
:DIRQ :  |MSR1|= 4.835E-03 |PRATT|= 3.388E-02 ANGLE=  18.9 DEGREES
:DIRT :  |MSR1|= 9.201E-03 |PRATT|= 3.618E-02 ANGLE=  49.8 DEGREES
:MIX  :   MSD1   REGULARIZATION:  3.65E-04 GREED: 0.06166  Newton 1.00  0.2543                
     
       CHARGES OF MIXED CHARGE DENSITY
:CTO   : INTERSTITIAL CHARGE =     7.845062
:CPC   : PW Pseudocharge     =    13.876255
:CTO001: CHARGE SPHERE  1    =    24.628676
:CTO002: CHARGE SPHERE  2    =    31.448793

:NEC03: NUCLEAR AND ELECTRONIC CHARGE    120.00000   120.00000

PW CHANGE     H    K    L      Current       Change    Residue
:PTO001:      0    0    0  4.09619581E-02 -1.629E-05  5.045E-06
:PTO002:      0    0   -1  2.10339195E-02  2.367E-05  5.260E-05
:PTO004:     -1    0   -1 -9.19496897E-02  1.756E-04  9.999E-05
:PTO005:      0    0   -2 -1.08700671E-02  5.635E-05  5.056E-05
:PTO006:     -1   -1    0 -2.11606342E-02  1.054E-04  7.172E-05
:PTO007:     -1   -1   -1  1.89853215E-02  2.413E-05 -9.580E-05
:PTO008:     -1    0   -2 -8.67613023E-04 -3.106E-05 -2.312E-04
:PTO009:     -1   -1   -2  2.84669497E-02 -7.826E-05  1.776E-05
:PTO010:     -2    0    0 -1.30990242E-02  4.279E-05  2.337E-05
:PTO011:      0    0   -3  4.73183287E-04  4.096E-06  2.684E-06
:PTO012:     -2    0   -1  8.54869281E-04 -3.994E-05 -2.205E-04
:PTO014:     -1    0   -3  9.77043779E-03 -7.218E-05 -1.910E-05

:ENE  : ********** TOTAL ENERGY IN Ry =       -14790.26967467

       TOTAL FORCE IN mRy/a.u. = |F|     Fx             Fy             Fz     with/without FOR in case.in2
:FOR001:   1.ATOM          0.000          0.000          0.000          0.000 partial forces
:FOR002:   2.ATOM        246.330          0.000          0.000        246.330 partial forces
       TOTAL FORCE WITH RESPECT TO GLOBAL CARTESIAN COORDINATES:
:FCA001:   1.ATOM                         0.000          0.000          0.000 partial forces
:FCA002:   2.ATOM                         0.000          0.000        246.330 partial forces
       TOTAL FORCE WITH RESPECT TO THE GLOBAL COORDINATE SYSTEM:
:FGL001:   1.ATOM                 0.000000000     0.000000000     0.000000000 partial forces
:FGL002:   2.ATOM                 0.000000000     0.000000000   246.330026437 partial forces

------- case.scf0 --------
 Flat Integration
 New Mode for Coulomb Integral
 Consistent 3/8+Simpson combinations
 Extension of core to zero
 LDM version in phi
 Fifth-order quadrature in outwin


            ---------
:ITE015: 15. ITERATION
            ---------

:NATO :    2 INDEPENDENT AND    4 TOTAL ATOMS IN UNITCELL
       SUBSTANCE: FeSe                                                        

       LATTICE                      = P   
:POT  : POTENTIAL OPTION EX_LDA EC_LDA VX_LDA VC_LDA
:LAT  : LATTICE CONSTANTS=  7.12881  7.12881 10.43450    1.571    1.571    1.571
:VOL  : UNIT CELL VOLUME =     530.28024
       MODE OF CALCULATION IS       = RELA
       NON-SPINPOLARIZED CALCULATION
:IFFT  : FFT-parameters:   60   60   80 Factor: 2.00


   CONVERGENCE PARAMETER FOR PSEUDOCHARGE: NCON=  9
   MAXIMAL VALUE OF RMT(JATOM)*ABSK(NKK) : RK  =25.91023


:VKCOUL :  VK-COUL convergence: 0.195E-06
       ATOMNUMBER=  1 Fe         VCOUL-ZERO =  0.23478E+00
:EFG001:                        EFG         =     0.93585   *10**21  V / m**2
                               V20  TOT/SRF=     0.81047    -0.05064
                               V22  TOT/SRF=     0.00000     0.00000
                               V22M TOT/SRF=     0.00000     0.00000
                               V21  TOT/SRF=     0.00000     0.00000
                               V21M TOT/SRF=     0.00000     0.00000

             -0.46793    0.00000    0.00000       -0.46793    0.00000    0.00000
              0.00000   -0.46793    0.00000        0.00000   -0.46793    0.00000
              0.00000    0.00000    0.93585        0.00000    0.00000    0.93585

         MAIN DIRECTIONS OF THE EFG   1.0000  0.0000  0.0000
                                      0.0000  1.0000  0.0000
                                      0.0000  0.0000  1.0000
:ANG001:  ANGLE WITH OLD X-AXIS =         0.0

:ETA001:                         ASYMM. ETA =     0.00000


       ATOMNUMBER=  2 Se         VCOUL-ZERO =  0.51360E-01
:EFG002:                        EFG         =    -5.34027   *10**21  V / m**2
                               V20  TOT/SRF=    -4.62481    -0.00677
                               V22  TOT/SRF=     0.00000     0.00000
                               V22M TOT/SRF=     0.00000     0.00000
                               V21  TOT/SRF=     0.00000     0.00000
                               V21M TOT/SRF=     0.00000     0.00000

              2.67014    0.00000    0.00000        2.67014    0.00000    0.00000
              0.00000    2.67014    0.00000        0.00000    2.67014    0.00000
              0.00000    0.00000   -5.34027        0.00000    0.00000   -5.34027

         MAIN DIRECTIONS OF THE EFG   1.0000  0.0000  0.0000
                                      0.0000  1.0000  0.0000
                                      0.0000  0.0000  1.0000
:ANG002:  ANGLE WITH OLD X-AXIS =         0.0

:ETA002:                         ASYMM. ETA =     0.00000


     HELLMANN-FEYNMAN-FORCE IN mRy/a.u. = |F|  Fx       Fy             Fz
:FHF001:   1.ATOM      0.000000000000      0.000000000000      0.000000000000      0.000000000000

     HELLMANN-FEYNMAN-FORCE IN mRy/a.u. = |F|  Fx       Fy             Fz
:FHF002:   2.ATOM   1366.959194190597      0.000000000000      0.000000000000   1366.959194190597

:FIT001: LUSE= 13 SIGMA OF V-XC FIT FOR ATOM  1  0.2094958E-02
:FIT001: LUSE= 13 SIGMA OF V-XC FIT FOR ATOM  1  0.2094958E-02
:FIT002: LUSE= 13 SIGMA OF V-XC FIT FOR ATOM  2  0.4136464E-03
:FIT002: LUSE= 13 SIGMA OF V-XC FIT FOR ATOM  2  0.4136464E-03
:DEN  : DENSITY INTEGRAL  =         -6219.50612057   (Ry)
       ELS_POTENTIAL_AT Z=0 and Z=0.5:  -0.73480   0.67205
       ELS_POTENTIAL_AT Y=0 and Y=0.5:   0.00000   0.00000
:VZERO:v0,v0c,v0x  -1.56030  -0.73480  -0.82550 v5,v5c,v5x   0.19316   0.67205  -0.47888
:VZERY:v0,v0c,v0x  -0.70744   0.00000  -0.70744 v5,v5c,v5x  -0.70744   0.00000  -0.70744
:VZERX:v0,v0c,v0x   0.10720   0.78499  -0.67779 v5,v5c,v5x   0.10720   0.78499  -0.67779

------- case.scf1 --------
:LMAX-WF:   10   Non-Spherical LMAX:   4

          ATOMIC SPHERE DEPENDENT PARAMETERS FOR ATOM  Fe        
:e__0001: OVERALL ENERGY PARAMETER IS    0.1858
          OVERALL BASIS SET ON ATOM IS LAPW
:E1_0001: E( 1)=    0.1858
             APW+lo
:E1_0001: E( 1)=   -3.4755   E(BOTTOM)=   -3.568   E(TOP)=   -3.383  1  2   145
             LOCAL ORBITAL
:E2_0001: E( 2)=    0.3080   E(BOTTOM)=   -0.053   E(TOP)=    0.669  0  1   139
             APW+lo
:E0_0001: E( 0)=    0.1858
             APW+lo

          ATOMIC SPHERE DEPENDENT PARAMETERS FOR ATOM  Se        
:e__0002: OVERALL ENERGY PARAMETER IS    0.1858
          OVERALL BASIS SET ON ATOM IS LAPW
:E2_0002: E( 2)=    0.1858
             APW+lo
:E2_0002: E( 2)=   -3.1681   E(BOTTOM)=   -3.212   E(TOP)=   -3.124  0  1   140
             LOCAL ORBITAL
:E0_0002: E( 0)=    0.5858
             APW+lo
:E0_0002: E( 0)=   -1.0200   E(BOTTOM)=   -1.642   E(TOP)= -200.000  3 -1   184
             LOCAL ORBITAL
:E1_0002: E( 1)=    0.1858
             APW+lo

       K=   0.04545   0.04545   0.07143            1
:RKM  : MATRIX SIZE   582LOs:  54  RKM= 7.97  WEIGHT= 8.00  PGR:    
       EIGENVALUES ARE:
:EIG00001:      -3.4642598   -3.4640299   -3.4551075   -3.4548775   -3.4488253
:EIG00006:      -3.4468473   -3.1585597   -3.1583208   -3.1579124   -3.1578620
:EIG00011:      -3.1571024   -3.1570981   -3.1570789   -3.1570658   -3.1562695
:EIG00016:      -3.1562362   -0.6851731   -0.5991576   -0.0317023    0.0860320
:EIG00021:       0.0971295    0.1015657    0.1420685    0.1467536    0.2021652
:EIG00026:       0.3442785    0.3529013    0.3892096    0.3940554    0.3985598
:EIG00031:       0.4503446    0.4659947    0.5511496    0.5614989    0.6159729
:EIG00036:       0.7535963    0.8183113    0.9124425    0.9243807    0.9252165
:EIG00041:       1.2409292    1.2867804    1.3039842    1.3509355    1.3516526
:EIG00046:       1.3578004    1.4160970    1.4442041    1.4592104    1.4890709
 
:EIG00051:       1.6097550    1.6203445    1.7134322    1.7495544    1.8510839
       ********************************************************

:KPT   :      NUMBER OF K-POINTS:    84

------- case.scf2 --------
:GMA  : POTENTIAL AND CHARGE CUT-OFF  12.00 Ry**.5




:POS001: at.nr.  -1 position = 0.25000 0.75000 0.00000  multiplicity =  2

       lmmax  8
       lm=   0 0  2 0 -3 2  4 0  4 4 -5 2  6 0  6 4




:POS002: at.nr.  -2 position = 0.25000 0.75000 0.00000  multiplicity =  2

       lmmax 10
       lm=   0 0  1 0  2 0  3 0  4 0  4 4  5 0  5 4  6 0  6 4
:FER gutzwiller fermi energy   0.38731
:EORB          0.192158240
:SUM sum of gutz band energies       -102.050257540

:CHA001: total charge inside sphere   1 =    12.628831
:PCS001: partial charges sphere =  1 s,p,d,f,pz,pxy,,d-z2,d-xy,d-x2y2,d-xz,yz 
:QTL001: 0.2666 6.2529 6.0860 0.0189 2.0680 4.1849 0.0000 1.3695 1.2708 1.1497 2.2960 0.0000
:VZZ001: efg inside sphere   1 =     0.970717      up to r =   2.16000

:CHA002: total charge inside sphere   2 =    13.451849
:PCS002: partial charges sphere =  2 s,p,d,f,pz,pxy,,d-z2,d-xy,d-x2y2,d-xz,yz 
:QTL002: 1.3573 2.038310.0411 0.0125 0.6951 1.3433 0.0000 2.0076 2.0081 2.0082 4.0172 0.0000
:VZZ002: efg inside sphere   2 =    -4.939014      up to r =   2.05000

:CHA  : total charge inside unit cell =      60.000000

------- case.scfc --------

        1.ATOM      Fe                    5 CORE STATES
:1S 001: 1S                -512.200310305 Ry
:2S 001: 2S                 -59.133208997 Ry
:2PP001: 2P*                -50.935142451 Ry
:2P 001: 2P                 -50.019951152 Ry
:3S 001: 3S                  -5.916528044 Ry

        2.ATOM      Se                    7 CORE STATES
       CORE-FORCE in mRy/a.u. = |F|      Fx             Fy             Fz
:FCO002:   2.ATOM   1127.564668829962      0.000000000000      0.000000000000  -1127.564668829962

:1S 002: 1S                -916.465386228 Ry
:2S 002: 2S                -117.126139170 Ry
:2PP002: 2P*               -105.101201038 Ry
:2P 002: 2P                -102.037976395 Ry
:3S 002: 3S                 -14.858964244 Ry
:3PP002: 3P*                -10.746147943 Ry
:3P 002: 3P                 -10.313738990 Ry

------- case.scfm --------
:CINT001 Core Integral Atom   1   11.997124
:CINT002 Core Integral Atom   2   17.999409

       DENSITY AT NUCLEUS
        JATOM        VALENCE       SEMI-CORE          CORE           TOTAL
:RTO001:   1        5.877689        0.000000    14797.859869    14803.737558
:RTO002:   2       55.864712        0.000000    38924.663028    38980.527740
     
       CHARGES OF NEW CHARGE DENSITY
:NTO   : INTERSTITIAL CHARGE =     7.838850
:NPC   : PW Pseudocharge     =    13.872899
:NTO001: CHARGE SPHERE  1    =    24.625955
:NTO002: CHARGE SPHERE  2    =    31.451257

:NEC01: NUCLEAR AND ELECTRONIC CHARGE    120.00000   119.99328
     
       CHARGES OF OLD CHARGE DENSITY
:OTO   : INTERSTITIAL CHARGE =     7.845062
:OPC   : PW Pseudocharge     =    13.876255
:OTO001: CHARGE SPHERE  1    =    24.628676
:OTO002: CHARGE SPHERE  2    =    31.448793

:NEC02: NUCLEAR AND ELECTRONIC CHARGE    120.00000   120.00000
     
       CONVERGENCE TEST
:DTO001: DIFFERENCE IN SPHERE  1 =  0.0122683
:DTO002: DIFFERENCE IN SPHERE  2 =  0.0045452

:DIS  :  CHARGE DISTANCE       ( 0.0122683 for atom    1 spin 1)      0.0084068
 PW Mixed is          365
 
******************************************************
* MULTISECANT MIXING VER9 RELEASE 10.4.0              *
* Standard Mode with controls                        *
* Fixed density scale                                *
* Regularization       1.000E-04                     *
* Trust Upper Limit    5.000E+00                     *
* Max Number of Memory Steps    8                    *
******************************************************
 
:PWTMP   3.7368E+02  3.2249E+02  5.3028E+02
:PLANE:  PW TOTAL      3.7119 DISTAN   9.62E-03  2.59E-01 %
:CHARG:  CLM/ATOM    303.3384 DISTAN   1.35E-02  4.45E-03 %
 
Step History
        DMIX         DMIXT        Red     Pred      Trust     Lambda    MagRel    MagAbs     Beta
  1   3.5000E-02   3.5000E-02 -1.00E+00  1.00E+00 -1.00E+01  1.00E+00  3.50E-02  3.50E-02  1.00E+00
  2   2.5000E-02   2.5000E-02  9.18E-01  1.00E+00 -1.00E+01  1.00E+00  2.50E-02  4.40E-03  1.00E+00
  3   2.0000E-02   2.0000E-02  8.77E-01  8.87E-01  4.49E-01  8.74E-02  4.10E-01  6.62E-02  1.00E+00
  4   3.7891E-02   3.7891E-02  8.34E-01  9.86E-01  5.11E-01  1.47E+00  9.74E-02  1.38E-02  9.67E-01
  5   9.4727E-02   9.4043E-02  3.06E-01  3.76E-01  6.27E-01  3.85E-01  6.27E-01  7.41E-02  1.00E+00
  6   6.1662E-02   6.1662E-02 -1.00E+00  8.71E-01  9.94E-01  1.00E+00  2.54E-01  9.20E-03  1.00E+00
:JACOBIANS    1.005E+00   6.618E-01
  
:NORMS:  1/Froebius, Min, Max, Used   0.6736E+00  0.4446E+00  0.1001E+01  0.6982E+00
:INFO :  Number of Memory Steps    5 Skipping    0
:INFO :  SLambda=    1.0000000000  Max    1.0000000000
:PREDicted Charge, CTotal, PW Trust    3.290E-03   2.323E-03   4.281E-03
:PREDicted DMix, Beta, BLim   5.5406E-01  2.1079E+00  6.5465E-01

Eigenvalues, unscaled except for SY+YY
   #     SY Real        SY Imag          SS             YY         SY+YY Real      SY+YY Imag
   1   2.208638E+00   0.000000E+00   1.834350E+00   3.762888E+00   5.868913E+00   0.000000E+00
   2   7.167435E-01   0.000000E+00   3.862040E-01   1.108824E+00   1.922192E+00   0.000000E+00
   3   8.267305E-02   0.000000E+00   4.815573E-02   1.281773E-01   2.168390E-01   0.000000E+00
   4   3.987233E-06   0.000000E+00   3.497794E-07   1.006298E-04   1.041883E-04   0.000000E+00
   5   9.169709E-07   0.000000E+00   4.504812E-08   1.002275E-05   1.133915E-05   0.000000E+00
 
:INFO :  Singular value  5.873E+00 Weight  1.000E+00 Projection  3.360E-03
:INFO :  Singular value  1.921E+00 Weight  1.000E+00 Projection -1.115E-02
[...]
 10   3.2560E-01   3.2560E-01 -1.00E+00  3.95E-01  2.98E+00  1.00E+00  6.20E-01  1.27E-03  1.00E+00
:JACOBIANS    1.275E+00   1.948E+00
  
:NORMS:  1/Froebius, Min, Max, Used   0.7305E+00  0.5293E+00  0.1002E+01  0.8738E+00
:INFO :  Number of Memory Steps    8 Skipping    1
:INFO :  SLambda=    0.5459024580  Max    0.5459024580
:PREDicted Charge, CTotal, PW Trust    2.845E-04   5.426E-04   5.426E-04
:PREDicted DMix, Beta, BLim   6.7441E-01  1.2557E+00  9.3777E-01

Eigenvalues, unscaled except for SY+YY
   #     SY Real        SY Imag          SS             YY         SY+YY Real      SY+YY Imag
   1   2.854579E+00   0.000000E+00   2.600619E+00   3.406394E+00   4.915132E+00   0.000000E+00
   2   1.550523E+00   0.000000E+00   1.151068E+00   2.467816E+00   3.346653E+00   0.000000E+00
   3   7.784901E-01   0.000000E+00   4.051240E-01   1.848320E+00   2.279566E+00   0.000000E+00
   4   1.709519E-01   0.000000E+00   1.025722E-01   2.054509E-01   3.087012E-01   0.000000E+00
   5   1.869312E-02   0.000000E+00   7.859192E-03   6.122446E-02   7.180196E-02   0.000000E+00
   6   5.548111E-03   0.000000E+00   2.004641E-03   1.076174E-02   1.440308E-02   0.000000E+00
   7   4.598009E-06   0.000000E+00   6.235244E-07   3.358938E-05   3.655721E-05   0.000000E+00
   8   9.654319E-08   0.000000E+00   3.874643E-08   3.750079E-07   4.299000E-07   0.000000E+00
 
:INFO :  Singular value  4.916E+00 Weight  1.000E+00 Projection  2.371E-05
:INFO :  Singular value  3.347E+00 Weight  1.000E+00 Projection  5.578E-05
:INFO :  Singular value  2.279E+00 Weight  1.000E+00 Projection -2.742E-05
:INFO :  Singular value  3.087E-01 Weight  1.000E+00 Projection -5.445E-05
:INFO :  Singular value  7.188E-02 Weight  1.000E+00 Projection  2.035E-03
:INFO :  Singular value  1.438E-02 Weight  9.994E-01 Projection  3.224E-03
:INFO :  Singular value  3.656E-05 Weight  1.139E-02 Projection -3.832E-04
:INFO :  Singular value  4.299E-07 Weight  1.593E-06 Projection -1.903E-07
:RANK :  ACTIVE   6.01/8  =  75.14 % ; YY RANK   6.01/8  =  75.11 %
 
:BLIM :  VZERO Control Off
:TRUST:  Step 3.97E+00  Charge 2.46E-02 (e) CTO  8.19E-02 (e) PW  1.15E-01 (e)
:DIRM :  MEMORY  8/8  SCALE   1.000 RED  0.31 PRED  0.39 NEXT  0.39 
:TRAVE:  Charge 3.32E-04 (e) CTO  4.81E-04 (e) PW  1.04E-03 (e)
:DIRP :  |MSR1|= 1.363E-04 |PRATT|= 1.762E-04 ANGLE=  36.7 DEGREES
:DIRQ :  |MSR1|= 4.387E-04 |PRATT|= 6.020E-04 ANGLE=  23.4 DEGREES
:DIRT :  |MSR1|= 4.594E-04 |PRATT|= 6.272E-04 ANGLE=  24.8 DEGREES
:MIX  :   MSD1   REGULARIZATION:  3.41E-04 GREED: 0.35000  Newton 1.00  0.7324                
     
       CHARGES OF MIXED CHARGE DENSITY
:CTO   : INTERSTITIAL CHARGE =     7.844855
:CPC   : PW Pseudocharge     =    13.881495
:CTO001: CHARGE SPHERE  1    =    24.627039
:CTO002: CHARGE SPHERE  2    =    31.450533

:NEC03: NUCLEAR AND ELECTRONIC CHARGE    120.00000   120.00000

PW CHANGE     H    K    L      Current       Change    Residue
:PTO001:      0    0    0  4.09714511E-02  5.169E-07  9.579E-07
:PTO002:      0    0   -1  2.10436291E-02  8.964E-07  7.334E-07
:PTO004:     -1    0   -1 -9.19772068E-02  1.062E-06 -1.208E-06
:PTO005:      0    0   -2 -1.08720367E-02  5.783E-07 -1.045E-07
:PTO006:     -1   -1    0 -2.11790724E-02 -4.228E-07 -2.188E-06
:PTO007:     -1   -1   -1  1.89005414E-02  4.599E-07 -9.146E-08
:PTO008:     -1    0   -2 -1.00835168E-03  9.499E-07  1.520E-06
:PTO009:     -1   -1   -2  2.85439924E-02  4.693E-07  1.337E-06
:PTO010:     -2    0    0 -1.31100321E-02  9.499E-07  7.447E-07
:PTO011:      0    0   -3  4.78682639E-04  6.733E-07  7.340E-07
:PTO012:     -2    0   -1  6.97860763E-04  3.774E-08  7.082E-07
:PTO014:     -1    0   -3  9.81249809E-03 -3.276E-07  3.591E-07

:ENE  : ********** TOTAL ENERGY IN Ry =       -14790.26997906

       TOTAL FORCE IN mRy/a.u. = |F|     Fx             Fy             Fz     with/without FOR in case.in2
:FOR001:   1.ATOM          0.000          0.000          0.000          0.000 partial forces
:FOR002:   2.ATOM        202.009          0.000          0.000        202.009 partial forces
       TOTAL FORCE WITH RESPECT TO GLOBAL CARTESIAN COORDINATES:
:FCA001:   1.ATOM                         0.000          0.000          0.000 partial forces
:FCA002:   2.ATOM                         0.000          0.000        202.009 partial forces
       TOTAL FORCE WITH RESPECT TO THE GLOBAL COORDINATE SYSTEM:
:FGL001:   1.ATOM                 0.000000000     0.000000000     0.000000000 partial forces
:FGL002:   2.ATOM                 0.000000000     0.000000000   202.009178913 partial forces

------- case.scf0 --------
 Flat Integration
 New Mode for Coulomb Integral
 Consistent 3/8+Simpson combinations
 Extension of core to zero
 LDM version in phi
 Fifth-order quadrature in outwin


            ---------
:ITE020: 20. ITERATION
            ---------

:NATO :    2 INDEPENDENT AND    4 TOTAL ATOMS IN UNITCELL
       SUBSTANCE: FeSe                                                        

       LATTICE                      = P   
:POT  : POTENTIAL OPTION EX_LDA EC_LDA VX_LDA VC_LDA
:LAT  : LATTICE CONSTANTS=  7.12881  7.12881 10.43450    1.571    1.571    1.571
:VOL  : UNIT CELL VOLUME =     530.28024
       MODE OF CALCULATION IS       = RELA
       NON-SPINPOLARIZED CALCULATION
:IFFT  : FFT-parameters:   60   60   80 Factor: 2.00


   CONVERGENCE PARAMETER FOR PSEUDOCHARGE: NCON=  9
   MAXIMAL VALUE OF RMT(JATOM)*ABSK(NKK) : RK  =25.91023


:VKCOUL :  VK-COUL convergence: 0.195E-06
       ATOMNUMBER=  1 Fe         VCOUL-ZERO =  0.23389E+00
:EFG001:                        EFG         =     0.80026   *10**21  V / m**2
                               V20  TOT/SRF=     0.69305    -0.04971
                               V22  TOT/SRF=     0.00000     0.00000
                               V22M TOT/SRF=     0.00000     0.00000
                               V21  TOT/SRF=     0.00000     0.00000
                               V21M TOT/SRF=     0.00000     0.00000

             -0.40013    0.00000    0.00000       -0.40013    0.00000    0.00000
              0.00000   -0.40013    0.00000        0.00000   -0.40013    0.00000
              0.00000    0.00000    0.80026        0.00000    0.00000    0.80026

         MAIN DIRECTIONS OF THE EFG   1.0000  0.0000  0.0000
                                      0.0000  1.0000  0.0000
                                      0.0000  0.0000  1.0000
:ANG001:  ANGLE WITH OLD X-AXIS =         0.0

:ETA001:                         ASYMM. ETA =     0.00000


       ATOMNUMBER=  2 Se         VCOUL-ZERO =  0.51655E-01
:EFG002:                        EFG         =    -4.95732   *10**21  V / m**2
                               V20  TOT/SRF=    -4.29317    -0.00639
                               V22  TOT/SRF=     0.00000     0.00000
                               V22M TOT/SRF=     0.00000     0.00000
                               V21  TOT/SRF=     0.00000     0.00000
                               V21M TOT/SRF=     0.00000     0.00000

              2.47866    0.00000    0.00000        2.47866    0.00000    0.00000
              0.00000    2.47866    0.00000        0.00000    2.47866    0.00000
              0.00000    0.00000   -4.95732        0.00000    0.00000   -4.95732

         MAIN DIRECTIONS OF THE EFG   1.0000  0.0000  0.0000
                                      0.0000  1.0000  0.0000
                                      0.0000  0.0000  1.0000
:ANG002:  ANGLE WITH OLD X-AXIS =         0.0

:ETA002:                         ASYMM. ETA =     0.00000


     HELLMANN-FEYNMAN-FORCE IN mRy/a.u. = |F|  Fx       Fy             Fz
:FHF001:   1.ATOM      0.000000000000      0.000000000000      0.000000000000      0.000000000000

     HELLMANN-FEYNMAN-FORCE IN mRy/a.u. = |F|  Fx       Fy             Fz
:FHF002:   2.ATOM   1249.906721692020      0.000000000000      0.000000000000   1249.906721692020

:FIT001: LUSE= 13 SIGMA OF V-XC FIT FOR ATOM  1  0.2080170E-02
:FIT001: LUSE= 13 SIGMA OF V-XC FIT FOR ATOM  1  0.2080170E-02
:FIT002: LUSE= 13 SIGMA OF V-XC FIT FOR ATOM  2  0.4019732E-03
:FIT002: LUSE= 13 SIGMA OF V-XC FIT FOR ATOM  2  0.4019732E-03
:DEN  : DENSITY INTEGRAL  =         -6219.31381181   (Ry)
       ELS_POTENTIAL_AT Z=0 and Z=0.5:  -0.73507   0.67241
       ELS_POTENTIAL_AT Y=0 and Y=0.5:   0.00000   0.00000
:VZERO:v0,v0c,v0x  -1.56085  -0.73507  -0.82578 v5,v5c,v5x   0.19319   0.67241  -0.47923
:VZERY:v0,v0c,v0x  -0.70759   0.00000  -0.70759 v5,v5c,v5x  -0.70759   0.00000  -0.70759
:VZERX:v0,v0c,v0x   0.10719   0.78510  -0.67792 v5,v5c,v5x   0.10719   0.78510  -0.67792

------- case.scf1 --------
:LMAX-WF:   10   Non-Spherical LMAX:   4

          ATOMIC SPHERE DEPENDENT PARAMETERS FOR ATOM  Fe        
:e__0001: OVERALL ENERGY PARAMETER IS    0.1858
          OVERALL BASIS SET ON ATOM IS LAPW
:E1_0001: E( 1)=    0.1858
             APW+lo
:E1_0001: E( 1)=   -3.4776   E(BOTTOM)=   -3.570   E(TOP)=   -3.386  1  2   142
             LOCAL ORBITAL
:E2_0001: E( 2)=    0.3063   E(BOTTOM)=   -0.054   E(TOP)=    0.667  0  1   138
             APW+lo
:E0_0001: E( 0)=    0.1858
             APW+lo

          ATOMIC SPHERE DEPENDENT PARAMETERS FOR ATOM  Se        
:e__0002: OVERALL ENERGY PARAMETER IS    0.1858
          OVERALL BASIS SET ON ATOM IS LAPW
:E2_0002: E( 2)=    0.1858
             APW+lo
:E2_0002: E( 2)=   -3.1683   E(BOTTOM)=   -3.212   E(TOP)=   -3.124  0  1   139
             LOCAL ORBITAL
:E0_0002: E( 0)=    0.5858
             APW+lo
:E0_0002: E( 0)=   -1.0200   E(BOTTOM)=   -1.641   E(TOP)= -200.000  3 -1   185
             LOCAL ORBITAL
:E1_0002: E( 1)=    0.1858
             APW+lo

       K=   0.04545   0.04545   0.07143            1
:RKM  : MATRIX SIZE   582LOs:  54  RKM= 7.97  WEIGHT= 8.00  PGR:    
       EIGENVALUES ARE:
:EIG00001:      -3.4661658   -3.4659361   -3.4570258   -3.4567962   -3.4512257
:EIG00006:      -3.4492501   -3.1587232   -3.1584867   -3.1580605   -3.1580100
:EIG00011:      -3.1573604   -3.1573558   -3.1573369   -3.1573242   -3.1565566
:EIG00016:      -3.1565235   -0.6849264   -0.5988668   -0.0319839    0.0855106
:EIG00021:       0.0965000    0.1009222    0.1419253    0.1466050    0.2009319
:EIG00026:       0.3426866    0.3513736    0.3876845    0.3924789    0.3968719
:EIG00031:       0.4487441    0.4653145    0.5502693    0.5604696    0.6158773
:EIG00036:       0.7530840    0.8177528    0.9122107    0.9241256    0.9249985
:EIG00041:       1.2409877    1.2863175    1.3037864    1.3507668    1.3515622
:EIG00046:       1.3576079    1.4159086    1.4440732    1.4590809    1.4890088
 
:EIG00051:       1.6095526    1.6201456    1.7132446    1.7493396    1.8510964
       ********************************************************

:KPT   :      NUMBER OF K-POINTS:    84

------- case.scf2 --------
:GMA  : POTENTIAL AND CHARGE CUT-OFF  12.00 Ry**.5




:POS001: at.nr.  -1 position = 0.25000 0.75000 0.00000  multiplicity =  2

       lmmax  8
       lm=   0 0  2 0 -3 2  4 0  4 4 -5 2  6 0  6 4




:POS002: at.nr.  -2 position = 0.25000 0.75000 0.00000  multiplicity =  2

       lmmax 10
       lm=   0 0  1 0  2 0  3 0  4 0  4 4  5 0  5 4  6 0  6 4
:FER gutzwiller fermi energy   0.38746
:EORB          0.165942420
:SUM sum of gutz band energies       -102.074034985

:CHA001: total charge inside sphere   1 =    12.629554
:PCS001: partial charges sphere =  1 s,p,d,f,pz,pxy,,d-z2,d-xy,d-x2y2,d-xz,yz 
:QTL001: 0.2669 6.2533 6.0860 0.0189 2.0682 4.1851 0.0000 1.3697 1.2695 1.1490 2.2978 0.0000
:VZZ001: efg inside sphere   1 =     0.867039      up to r =   2.16000

:CHA002: total charge inside sphere   2 =    13.451231
:PCS002: partial charges sphere =  2 s,p,d,f,pz,pxy,,d-z2,d-xy,d-x2y2,d-xz,yz 
:QTL002: 1.3572 2.038010.0410 0.0124 0.6950 1.3430 0.0000 2.0076 2.0081 2.0082 4.0171 0.0000
:VZZ002: efg inside sphere   2 =    -4.963935      up to r =   2.05000

:CHA  : total charge inside unit cell =      60.000000

------- case.scfc --------

        1.ATOM      Fe                    5 CORE STATES
:1S 001: 1S                -512.207092599 Ry
:2S 001: 2S                 -59.138088604 Ry
:2PP001: 2P*                -50.940310864 Ry
:2P 001: 2P                 -50.025094396 Ry
:3S 001: 3S                  -5.918686303 Ry

        2.ATOM      Se                    7 CORE STATES
       CORE-FORCE in mRy/a.u. = |F|      Fx             Fy             Fz
:FCO002:   2.ATOM   1047.204258491647      0.000000000000      0.000000000000  -1047.204258491647

:1S 002: 1S                -916.466540249 Ry
:2S 002: 2S                -117.127182002 Ry
:2PP002: 2P*               -105.102274826 Ry
:2P 002: 2P                -102.039045774 Ry
:3S 002: 3S                 -14.859222165 Ry
:3PP002: 3P*                -10.746399115 Ry
:3P 002: 3P                 -10.313970873 Ry

------- case.scfm --------
:CINT001 Core Integral Atom   1   11.997127
:CINT002 Core Integral Atom   2   17.999409

       DENSITY AT NUCLEUS
        JATOM        VALENCE       SEMI-CORE          CORE           TOTAL
:RTO001:   1        5.885375        0.000000    14797.923923    14803.809298
:RTO002:   2       55.854377        0.000000    38924.688240    38980.542617
     
       CHARGES OF NEW CHARGE DENSITY
:NTO   : INTERSTITIAL CHARGE =     7.838335
:NPC   : PW Pseudocharge     =    13.869481
:NTO001: CHARGE SPHERE  1    =    24.626681
:NTO002: CHARGE SPHERE  2    =    31.450640

:NEC01: NUCLEAR AND ELECTRONIC CHARGE    120.00000   119.99298
     
       CHARGES OF OLD CHARGE DENSITY
:OTO   : INTERSTITIAL CHARGE =     7.844855
:OPC   : PW Pseudocharge     =    13.881495
:OTO001: CHARGE SPHERE  1    =    24.627039
:OTO002: CHARGE SPHERE  2    =    31.450533

:NEC02: NUCLEAR AND ELECTRONIC CHARGE    120.00000   120.00000
     
       CONVERGENCE TEST
:DTO001: DIFFERENCE IN SPHERE  1 =  0.0004305
:DTO002: DIFFERENCE IN SPHERE  2 =  0.0001079

:DIS  :  CHARGE DISTANCE       ( 0.0004305 for atom    1 spin 1)      0.0002692
 PW Mixed is          365
 
******************************************************
* MULTISECANT MIXING VER9 RELEASE 10.4.0              *
* Standard Mode with controls                        *
* Fixed density scale                                *
* Regularization       1.000E-04                     *
* Trust Upper Limit    5.000E+00                     *
* Max Number of Memory Steps    8                    *
******************************************************
 
:PWTMP   3.7368E+02  3.2249E+02  5.3028E+02
:PLANE:  PW TOTAL      3.7129 DISTAN   1.85E-04  4.97E-03 %
:CHARG:  CLM/ATOM    303.3370 DISTAN   3.16E-04  1.04E-04 %
 
Step History
        DMIX         DMIXT        Red     Pred      Trust     Lambda    MagRel    MagAbs     Beta
  3   2.0000E-02   2.0000E-02  8.77E-01  8.87E-01  4.49E-01  8.74E-02  4.10E-01  6.62E-02  1.00E+00
  4   3.7891E-02   3.7891E-02  8.34E-01  9.86E-01  5.11E-01  1.47E+00  9.74E-02  1.38E-02  9.67E-01
  5   9.4727E-02   9.4043E-02  3.06E-01  3.76E-01  6.27E-01  3.85E-01  6.27E-01  7.41E-02  1.00E+00
  6   6.1662E-02   6.1662E-02  7.91E-01  8.71E-01  9.94E-01  1.00E+00  2.54E-01  9.20E-03  1.00E+00
  7   1.5415E-01   1.5415E-01  2.65E-01  3.38E-01  1.26E+00  5.70E-01  6.10E-01  1.75E-02  1.00E+00
  8   1.2231E-01   1.2231E-01  7.04E-01  8.02E-01  1.67E+00  1.00E+00  2.63E-01  2.00E-03  1.00E+00
  9   2.9304E-01   2.9304E-01  3.83E-01  6.90E-01  2.23E+00  1.47E+00  6.25E-01  3.34E-03  1.00E+00
 10   3.2560E-01   3.2560E-01  3.06E-01  3.95E-01  2.98E+00  5.46E-01  6.20E-01  1.27E-03  1.00E+00
 11   3.5000E-01   3.5000E-01 -1.00E+00  3.85E-01  3.97E+00  1.00E+00  7.32E-01  4.59E-04  1.00E+00
:JACOBIANS    1.374E+00   2.255E+00
  
:NORMS:  1/Froebius, Min, Max, Used   0.7548E+00  0.4986E+00  0.1003E+01  0.8965E+00
:INFO :  Number of Memory Steps    8 Skipping    2
:INFO :  SLambda=    1.0000000000  Max    1.0000000000
:PREDicted Charge, CTotal, PW Trust    2.146E-04   2.666E-04   3.981E-04
:PREDicted DMix, Beta, BLim   1.4422E-01  1.0896E+00  4.1735E+00

Eigenvalues, unscaled except for SY+YY
   #     SY Real        SY Imag          SS             YY         SY+YY Real      SY+YY Imag
   1   2.710412E+00   0.000000E+00   2.559105E+00   3.183919E+00   5.822816E+00   0.000000E+00
   2   1.365193E+00   0.000000E+00   1.126356E+00   2.473813E+00   3.381587E+00   0.000000E+00
   3   1.126640E+00   0.000000E+00   7.121096E-01   2.040487E+00   3.683556E+00   0.000000E+00
   4   1.740763E-01   0.000000E+00   1.477041E-01   2.292545E-01   4.115143E-01   0.000000E+00
   5   2.261292E-02   0.000000E+00   1.029081E-02   5.463047E-02   7.964957E-02   0.000000E+00
   6   5.663212E-03   0.000000E+00   1.550726E-03   1.486337E-02   2.246809E-02   0.000000E+00
   7   1.234836E-07   0.000000E+00   2.306606E-04   3.027959E-03   5.364859E-06   0.000000E+00
   8   3.850144E-04   0.000000E+00   6.599243E-08   5.270625E-06   3.386811E-03   0.000000E+00
 
:INFO :  Singular value  5.826E+00 Weight  1.000E+00 Projection -5.148E-05
:INFO :  Singular value  3.685E+00 Weight  1.000E+00 Projection  1.897E-04
:INFO :  Singular value  3.381E+00 Weight  1.000E+00 Projection -1.509E-04
:INFO :  Singular value  4.149E-01 Weight  1.000E+00 Projection  7.726E-04
:INFO :  Singular value  7.913E-02 Weight  1.000E+00 Projection  6.800E-04
:INFO :  Singular value  2.244E-02 Weight  9.998E-01 Projection  1.907E-04
:INFO :  Singular value  3.383E-03 Weight  9.912E-01 Projection  2.673E-03
:INFO :  Singular value  5.365E-06 Weight  2.838E-04 Projection -1.449E-05
:RANK :  ACTIVE   6.99/8  =  87.39 % ; YY RANK   6.99/8  =  87.36 %
 
:BLIM :  VZERO Control Off
:TRUST:  Step 3.78E+00  Charge 1.79E-02 (e) CTO  5.96E-02 (e) PW  8.34E-02 (e)
:DIRM :  MEMORY  8/8  SCALE   1.000 RED  1.05 PRED  0.39 NEXT  0.35 
:TRAVE:  Charge 2.03E-04 (e) CTO  2.99E-04 (e) PW  6.14E-04 (e)
:DIRP :  |MSR1|= 8.606E-05 |PRATT|= 1.845E-04 ANGLE=  21.7 DEGREES
:DIRQ :  |MSR1|= 1.249E-04 |PRATT|= 6.321E-04 ANGLE=  25.9 DEGREES
:DIRT :  |MSR1|= 1.517E-04 |PRATT|= 6.585E-04 ANGLE=  30.8 DEGREES
:MIX  :   MSR1   REGULARIZATION:  3.18E-04 GREED: 0.22583  Newton 1.00  0.2303                
     
       CHARGES OF MIXED CHARGE DENSITY
:CTO   : INTERSTITIAL CHARGE =     7.844973
:CPC   : PW Pseudocharge     =    13.881693
:CTO001: CHARGE SPHERE  1    =    24.626965
:CTO002: CHARGE SPHERE  2    =    31.450548

:NEC03: NUCLEAR AND ELECTRONIC CHARGE    120.00000   120.00000

PW CHANGE     H    K    L      Current       Change    Residue
:PTO001:      0    0    0  4.09720444E-02  5.933E-07  1.725E-06
:PTO002:      0    0   -1  2.10437977E-02  1.685E-07  1.908E-07
:PTO004:     -1    0   -1 -9.19792609E-02 -2.054E-06 -4.092E-06
:PTO005:      0    0   -2 -1.08725091E-02 -4.724E-07 -1.144E-06
:PTO006:     -1   -1    0 -2.11802886E-02 -1.216E-06 -2.499E-06
:PTO007:     -1   -1   -1  1.89003450E-02 -1.964E-07 -9.810E-07
:PTO008:     -1    0   -2 -1.00811753E-03  2.341E-07  2.865E-07
:PTO009:     -1   -1   -2  2.85449033E-02  9.109E-07  6.495E-07
:PTO010:     -2    0    0 -1.31102791E-02 -2.469E-07  3.328E-08
:PTO011:      0    0   -3  4.78738528E-04  5.589E-08 -1.542E-07
:PTO012:     -2    0   -1  6.98183789E-04  3.230E-07  8.266E-07
:PTO014:     -1    0   -3  9.81310254E-03  6.044E-07  5.001E-07

:ENE  : ********** TOTAL ENERGY IN Ry =       -14790.26997963

       TOTAL FORCE IN mRy/a.u. = |F|     Fx             Fy             Fz     with/without FOR in case.in2
:FOR001:   1.ATOM          0.000          0.000          0.000          0.000 partial forces
:FOR002:   2.ATOM        202.702          0.000          0.000        202.702 partial forces
       TOTAL FORCE WITH RESPECT TO GLOBAL CARTESIAN COORDINATES:
:FCA001:   1.ATOM                         0.000          0.000          0.000 partial forces
:FCA002:   2.ATOM                         0.000          0.000        202.702 partial forces
       TOTAL FORCE WITH RESPECT TO THE GLOBAL COORDINATE SYSTEM:
:FGL001:   1.ATOM                 0.000000000     0.000000000     0.000000000 partial forces
:FGL002:   2.ATOM                 0.000000000     0.000000000   202.702463200 partial forces
