
:LABEL1: Calculations in /home/ykent/GWIEN/example/Pr/V11/case
:LABEL2: on didymium-2.cmpgroup.ameslab.gov at Wed Jul  8 16:40:34 CDT 2020
:LABEL3: using WIEN2k_19.1 (Release 25/6/2019) in /home/ykent/opt/src/WIEN2k_19.1
:LABEL4: using the command: run_lapw -so -i 70 -cc 0.0001
 Flat Integration
 New Mode for Coulomb Integral
 Consistent 3/8+Simpson combinations
 Extension of core to zero
 LDM version in phi
 Fifth-order quadrature in outwin


            ---------
:ITE014: 14. ITERATION
            ---------

:NATO :    1 INDEPENDENT AND    1 TOTAL ATOMS IN UNITCELL
       SUBSTANCE: blebleble                                                   

       LATTICE                      = F   
:POT  : POTENTIAL OPTION EX_LDA EC_LDA VX_LDA VC_LDA
:LAT  : LATTICE CONSTANTS=  9.78725  9.78725  9.78725    1.571    1.571    1.571
:VOL  : UNIT CELL VOLUME =     234.38096
       MODE OF CALCULATION IS       = RELA
       NON-SPINPOLARIZED CALCULATION
:IFFT  : FFT-parameters:   80   80   80 Factor: 2.00


   CONVERGENCE PARAMETER FOR PSEUDOCHARGE: NCON=  9
   MAXIMAL VALUE OF RMT(JATOM)*ABSK(NKK) : RK  =29.89674


:VKCOUL :  VK-COUL convergence: 0.229E-06
       ATOMNUMBER=  1 Pr         VCOUL-ZERO =  0.26484E+00
:FIT001: LUSE= 13 SIGMA OF V-XC FIT FOR ATOM  1  0.4852670E-04
:FIT001: LUSE= 13 SIGMA OF V-XC FIT FOR ATOM  1  0.4852670E-04
:DEN  : DENSITY INTEGRAL  =         -7072.18934851   (Ry)
       ELS_POTENTIAL_AT Z=0 and Z=0.5:  -2.51808  -2.51808
       ELS_POTENTIAL_AT Y=0 and Y=0.5:   0.00000   0.00000
:VZERO:v0,v0c,v0x  -3.49775  -2.51808  -0.97968 v5,v5c,v5x  -3.49775  -2.51808  -0.97968
:VZERY:v0,v0c,v0x  -0.72032   0.00000  -0.72032 v5,v5c,v5x  -0.72032   0.00000  -0.72032
:VZERX:v0,v0c,v0x  -0.72032   0.00000  -0.72032 v5,v5c,v5x  -0.72032   0.00000  -0.72032
:LMAX-WF:   10   Non-Spherical LMAX:   4

          ATOMIC SPHERE DEPENDENT PARAMETERS FOR ATOM  Pr        
:e__0001: OVERALL ENERGY PARAMETER IS    0.3971
          OVERALL BASIS SET ON ATOM IS LAPW
:E0_0001: E( 0)=    0.3971
             APW+lo
:E0_0001: E( 0)=   -2.0772   E(BOTTOM)=   -2.457   E(TOP)=   -1.697  4  5   172
             LOCAL ORBITAL
:E1_0001: E( 1)=    0.7971
             APW+lo
:E1_0001: E( 1)=   -0.6884   E(BOTTOM)=   -1.334   E(TOP)=   -0.043  3  4   177
             LOCAL ORBITAL
:E3_0001: E( 3)=    0.5879   E(BOTTOM)=    0.447   E(TOP)=    0.728  0  1   114
             APW+lo
:E2_0001: E( 2)=    0.3971   E(BOTTOM)=    0.242   E(TOP)= -200.000  2 -1    88
             APW+lo

       K=   0.00000   0.00000   0.00000            1
:RKM  : MATRIX SIZE   189LOs:  20  RKM= 8.34  WEIGHT= 1.00  PGR:    
       EIGENVALUES ARE:
:EIG00001:      -2.0399007   -0.6659008   -0.6659008   -0.6659008    0.3467732
:EIG00006:       0.5827732    0.6016073    0.6016073    0.6016073    0.6273263
:EIG00011:       0.6273263    0.6273263    0.7303117    0.7303117    0.7303117
:EIG00016:       0.9085874    0.9085874    1.3142622    1.5482414    1.5482414
:EIG00021:       1.5482414    1.6526082    2.3702235    2.3702235    2.3702235
:EIG00026:       2.4649054    2.4649054    2.4649054    2.6560232    2.6560232
:EIG00031:       3.0507965    3.2066444    3.2066444    3.2066444    3.6526796
:EIG00036:       3.6526796    3.8872626    3.8872626    3.8872626    3.9417474
:EIG00041:       3.9417474    3.9417474    4.0430023    4.0430023    4.0430023
:EIG00046:       4.3394357    4.3394357    4.3394357    4.3832446    4.4430304
 
:EIG00051:       4.4430304    4.5480994    4.5480994    4.5480994    4.5753980
:EIG00056:       4.5753980    4.5753980    4.6841915    4.6865146    4.8038645
:EIG00061:       4.8038645    4.8038645    4.9719119    4.9719119    4.9719119
:EIG00066:       5.2766057    6.2378466    6.2515408    6.2515408    6.6239490
:EIG00071:       6.6239490    6.6239490    7.1363751    7.1363751    7.3135205
:EIG00076:       7.3135205    7.3135205    7.3627645    7.3627645    7.3627645
:EIG00081:       7.5966538    7.5966538    7.5966538    7.6118683    7.6118683
:EIG00086:       7.7235130    7.7235130    7.7235130    7.7492399    7.7492399
:EIG00091:       7.7492399    7.8214994    7.8214994    7.8214994    7.8266423
:EIG00096:       7.8266423    7.8266423    7.9269749    7.9621037    8.0887375
 
:EIG00101:       8.0887375
       ********************************************************

:KPT   :      NUMBER OF K-POINTS:   165
   0.0   0.0 angle (M,z), angle (M,x) deg
 
        SPIN-ORBIT EIGENVALUES:
     K=   0.00000   0.00000   0.00000            1
      MATRIX SIZE=  202   WEIGHT= 1.00
     EIGENVALUES ARE:
          -2.0399007   -2.0399007   -0.8141894   -0.8141894   -0.5963704
          -0.5963704   -0.5963704   -0.5963704    0.3467732    0.3467732
           0.5785999    0.5785999    0.5909024    0.5909024    0.5909024
           0.5909024    0.6132913    0.6132913    0.6272192    0.6272192
           0.6342369    0.6342369    0.6342369    0.6342369    0.7264798
           0.7264798    0.7264798    0.7264798    0.7368351    0.7368351
           0.9089638    0.9089638    0.9089638    0.9089638    1.3143174
           1.3143174    1.5435028    1.5435028    1.5504328    1.5504328

           1.5504328    1.5504328    1.6526082    1.6526082    2.3651691
           2.3651691    2.3651691    2.3651691    2.3798288    2.3798288
           2.3905419    2.3905419    2.5029390    2.5029390    2.5029390
           2.5029390    2.6563137    2.6563137    2.6563137    2.6563137
           3.0507965    3.0507965    3.2062230    3.2062230    3.2068676
           3.2068676    3.2068676    3.2068676    3.6526497    3.6526497
           3.6526497    3.6526497    3.8858792    3.8858792    3.8858792
           3.8858792    3.8903057    3.8903057    3.9083228    3.9083228

           3.9601141    3.9601141    3.9601141    3.9601141    4.0429931
           4.0429931    4.0430069    4.0430069    4.0430069    4.0430069
           4.3393787    4.3393787    4.3393787    4.3393787    4.3395572
           4.3395572    4.3832446    4.3832446    4.4430304    4.4430304
           4.4430304    4.4430304
       ********************************************************
:GAP (global)   :    0.0    Ry =     0.0   eV (metal)
:GAP (this spin):    0.0    Ry =     0.0   eV (metal)
         Bandranges (emin - emax) and occupancy:
:BAN00004:   4   -0.856602   -0.814189  1.00000000
:BAN00005:   5   -0.669060   -0.596370  1.00000000
:BAN00006:   6   -0.669060   -0.596370  1.00000000
:BAN00007:   7   -0.643329   -0.596370  1.00000000
:BAN00008:   8   -0.643329   -0.596370  1.00000000
:BAN00009:   9    0.346773    0.564651  1.00000000
:BAN00010:  10    0.346773    0.564651  1.00000000
:BAN00011:  11    0.517283    0.589232  1.00000000
:BAN00012:  12    0.517283    0.589232  1.00000000
:BAN00013:  13    0.578578    0.595477  0.50000002
:BAN00014:  14    0.578578    0.595477  0.49999998
:BAN00015:  15    0.590902    0.602507  0.00000000
:BAN00016:  16    0.590902    0.602507  0.00000000
:BAN00017:  17    0.596292    0.620171  0.00000000
:BAN00018:  18    0.596292    0.620171  0.00000000
:BAN00019:  19    0.615519    0.627219  0.00000000
        Energy to separate low and high energystates:    0.29677


:NOE  : NUMBER OF ELECTRONS          =   13.000

:FER  : F E R M I - ENERGY(TETRAH.M.)=   0.5905499389
:GMA  : POTENTIAL AND CHARGE CUT-OFF  12.00 Ry**.5

:POS001: ATOM    1 X,Y,Z = 0.00000 0.00000 0.50000  MULT= 1  ZZ= 59.000  Pr        

       LMMAX  5
       LM=   0 0  4 0  4 4  6 0  6 4

:CHA001: TOTAL VALENCE CHARGE INSIDE SPHERE   1 =  10.2059    (RMT=  2.5000 )
:PCS001: PARTIAL CHARGES SPHERE =  1 S,P,D,F,      D-EG,D-T2G 
:QTL001: 2.0299 5.3440 0.5977 2.2338 0.0000 0.0000 0.0000 0.2177 0.3800 0.0000 0.0000 0.0000
        Q-s-low E-s-low   Q-p-low E-p-low   Q-d-low E-d-low   Q-f-low E-f-low
:EPL001:  1.9258 -2.0275    5.2801 -0.7093    0.0016 -0.6952    0.0005 -0.6944
        Q-s-hi  E-s-hi    Q-p-hi  E-p-hi    Q-d-hi  E-d-hi    Q-f-hi  E-f-hi 
:EPH001:  0.1041  0.4942    0.0639  0.5283    0.5961  0.5398    2.2334  0.5774

:CHA  : TOTAL VALENCE CHARGE INSIDE UNIT CELL =      13.000000

:SUM  : SUM OF EIGENVALUES =          -5.552401184


        1.ATOM      Pr                   14 CORE STATES
:1S 001: 1S               -3067.011932367 Ry
:2S 001: 2S                -492.765255750 Ry
:2PP001: 2P*               -465.864342194 Ry
:2P 001: 2P                -430.466874102 Ry
:3S 001: 3S                -105.855008843 Ry
:3PP001: 3P*                -94.392887951 Ry
:3P 001: 3P                 -87.384980150 Ry
:3DD001: 3D*                -67.312141974 Ry
:3D 001: 3D                 -65.800561399 Ry
:4S 001: 4S                 -20.528785690 Ry
:4PP001: 4P*                -16.235371752 Ry
:4P 001: 4P                 -14.707651921 Ry
:4DD001: 4D*                 -7.640032251 Ry
:4D 001: 4D                  -7.370519440 Ry
:CINT001 Core Integral Atom   1   45.999521

       DENSITY AT NUCLEUS
        JATOM        VALENCE       SEMI-CORE          CORE           TOTAL
:RTO001:   1      651.665776        0.000000   656825.250514   657476.916290
     
       CHARGES OF NEW CHARGE DENSITY
:NTO   : INTERSTITIAL CHARGE =     2.794119
:NPC   : PW Pseudocharge     =     7.611566
:NTO001: CHARGE SPHERE  1    =    56.205401

:NEC01: NUCLEAR AND ELECTRONIC CHARGE     59.00000    58.99952
     
       CHARGES OF OLD CHARGE DENSITY
:OTO   : INTERSTITIAL CHARGE =     2.900434
:OPC   : PW Pseudocharge     =     7.663434
:OTO001: CHARGE SPHERE  1    =    56.099566

:NEC02: NUCLEAR AND ELECTRONIC CHARGE     59.00000    59.00000
     
       CONVERGENCE TEST
:DTO001: DIFFERENCE IN SPHERE  1 =  0.1963593

:DIS  :  CHARGE DISTANCE       ( 0.1963593 for atom    1 spin 1)      0.1963593
 PW Mixed is           53
 
******************************************************
* MULTISECANT MIXING VER9 RELEASE 10.4.0              *
* Standard Mode with controls                        *
* Fixed density scale                                *
* Restart from converged density                     *
* Regularization       1.000E-04                     *
* Trust Upper Limit    5.000E+00                     *
* Max Number of Memory Steps    8                    *
******************************************************
 
:INFO : Forcing a restart
:PWTMP   1.6893E+02  1.2500E+02  2.3438E+02
:PLANE:  PW TOTAL      3.0738 DISTAN   2.72E-02  8.84E-01 %
:CHARG:  CLM/ATOM    977.1900 DISTAN   2.09E-01  2.14E-02 %
 
Step History
        DMIX         DMIXT        Red     Pred      Trust     Lambda    MagRel    MagAbs     Beta
  1   3.5000E-02   3.5000E-02 -1.00E+00  1.00E+00 -1.00E+01  1.00E+00  3.50E-02  3.50E-02  1.00E+00
:INFO :  Note, Pratt in use
:TRUST:  Step 2.18E-01  Charge 7.50E-02 (e) CTO  2.50E-01 (e) PW  3.50E-01 (e)
:DIRM :  MEMORY  0/ 8 SCALE   1.000
Performing Pseudo Compensation
Final Pseudo Compensation Rescaling     1.00000E+00
:MIX  :   PRATT  REGULARIZATION:  1.00E-04 GREED: 0.14504                  
     
       CHARGES OF MIXED CHARGE DENSITY
:CTO   : INTERSTITIAL CHARGE =     2.885083
:CPC   : PW Pseudocharge     =     7.637165
:CTO001: CHARGE SPHERE  1    =    56.114917

:NEC03: NUCLEAR AND ELECTRONIC CHARGE     59.00000    59.00000

PW CHANGE     H    K    L      Current       Change    Residue
:PTO001:      0    0    0  4.48937862E-02 -1.776E-04 -6.673E-04
:PTO002:     -1   -1   -1 -1.36459240E-01  4.219E-04  3.221E-04
:PTO003:      0    0   -2  8.01481243E-02 -2.162E-04  1.024E-04
:PTO004:      0   -2   -2  6.67009394E-02 -2.267E-04 -2.856E-04
:PTO005:     -1   -1   -3 -6.01672604E-02  1.383E-04 -4.768E-05
:PTO006:     -2   -2   -2  1.49790543E-02 -3.517E-05 -2.390E-05
:PTO007:      0    0   -4  1.90895440E-03  1.951E-05  9.817E-05
:PTO008:     -1   -3   -3  3.35231790E-04 -3.645E-05  9.303E-05
:PTO009:      0   -2   -4 -2.94097497E-03  5.405E-05  8.340E-06
:PTO010:     -2   -2   -4 -7.46116427E-03  5.011E-05  3.281E-05
:PTO011:     -3   -3   -3  2.79086361E-03 -1.382E-05 -2.647E-05
:PTO012:     -1   -1   -5  8.13835870E-03 -4.523E-05 -1.055E-04

:ENE  : ********** TOTAL ENERGY IN Ry =       -18472.12212541

 Flat Integration
 New Mode for Coulomb Integral
 Consistent 3/8+Simpson combinations
 Extension of core to zero
 LDM version in phi
 Fifth-order quadrature in outwin


            ---------
:ITE015: 15. ITERATION
            ---------

:NATO :    1 INDEPENDENT AND    1 TOTAL ATOMS IN UNITCELL
       SUBSTANCE: blebleble                                                   

       LATTICE                      = F   
:POT  : POTENTIAL OPTION EX_LDA EC_LDA VX_LDA VC_LDA
:LAT  : LATTICE CONSTANTS=  9.78725  9.78725  9.78725    1.571    1.571    1.571
:VOL  : UNIT CELL VOLUME =     234.38096
       MODE OF CALCULATION IS       = RELA
       NON-SPINPOLARIZED CALCULATION
:IFFT  : FFT-parameters:   80   80   80 Factor: 2.00


   CONVERGENCE PARAMETER FOR PSEUDOCHARGE: NCON=  9
   MAXIMAL VALUE OF RMT(JATOM)*ABSK(NKK) : RK  =29.89674


:VKCOUL :  VK-COUL convergence: 0.225E-06
       ATOMNUMBER=  1 Pr         VCOUL-ZERO =  0.26397E+00
:FIT001: LUSE= 13 SIGMA OF V-XC FIT FOR ATOM  1  0.4697701E-04
:FIT001: LUSE= 13 SIGMA OF V-XC FIT FOR ATOM  1  0.4697701E-04
:DEN  : DENSITY INTEGRAL  =         -7073.90209913   (Ry)
       ELS_POTENTIAL_AT Z=0 and Z=0.5:  -2.50652  -2.50652
       ELS_POTENTIAL_AT Y=0 and Y=0.5:   0.00000   0.00000
:VZERO:v0,v0c,v0x  -3.48537  -2.50652  -0.97884 v5,v5c,v5x  -3.48537  -2.50652  -0.97884
:VZERY:v0,v0c,v0x  -0.71928   0.00000  -0.71928 v5,v5c,v5x  -0.71928   0.00000  -0.71928
:VZERX:v0,v0c,v0x  -0.71928   0.00000  -0.71928 v5,v5c,v5x  -0.71928   0.00000  -0.71928
:LMAX-WF:   10   Non-Spherical LMAX:   4

          ATOMIC SPHERE DEPENDENT PARAMETERS FOR ATOM  Pr        
:e__0001: OVERALL ENERGY PARAMETER IS    0.3927
          OVERALL BASIS SET ON ATOM IS LAPW
:E0_0001: E( 0)=    0.3927
             APW+lo
:E0_0001: E( 0)=   -2.0660   E(BOTTOM)=   -2.448   E(TOP)=   -1.684  4  5   175
             LOCAL ORBITAL
:E1_0001: E( 1)=    0.7927
             APW+lo
:E1_0001: E( 1)=   -0.6790   E(BOTTOM)=   -1.327   E(TOP)=   -0.031  3  4   168
             LOCAL ORBITAL
:E3_0001: E( 3)=    0.6086   E(BOTTOM)=    0.466   E(TOP)=    0.752  0  1   118
             APW+lo
:E2_0001: E( 2)=    0.3927   E(BOTTOM)=    0.247   E(TOP)= -200.000  2 -1    91
             APW+lo

       K=   0.00000   0.00000   0.00000            1
:RKM  : MATRIX SIZE   189LOs:  20  RKM= 8.34  WEIGHT= 1.00  PGR:    
       EIGENVALUES ARE:
:EIG00001:      -2.0289478   -0.6572902   -0.6572902   -0.6572902    0.3466200
:EIG00006:       0.6014616    0.6216901    0.6216901    0.6216901    0.6487878
:EIG00011:       0.6487878    0.6487878    0.7323776    0.7323776    0.7323776
:EIG00016:       0.9118901    0.9118901    1.3161869    1.5488995    1.5488995
:EIG00021:       1.5488995    1.6503731    2.3735717    2.3735717    2.3735717
:EIG00026:       2.4672087    2.4672087    2.4672087    2.6578716    2.6578716
:EIG00031:       3.0517102    3.2065567    3.2065567    3.2065567    3.6544805
:EIG00036:       3.6544805    3.8883880    3.8883880    3.8883880    3.9415938
:EIG00041:       3.9415938    3.9415938    4.0432975    4.0432975    4.0432975
:EIG00046:       4.3383620    4.3383620    4.3383620    4.3840093    4.4415518
 
:EIG00051:       4.4415518    4.5468202    4.5468202    4.5468202    4.5739858
:EIG00056:       4.5739858    4.5739858    4.6843354    4.6844882    4.8019896
:EIG00061:       4.8019896    4.8019896    4.9701518    4.9701518    4.9701518
:EIG00066:       5.2745068    6.2379228    6.2517902    6.2517902    6.6232646
:EIG00071:       6.6232646    6.6232646    7.1398517    7.1398517    7.3158609
:EIG00076:       7.3158609    7.3158609    7.3646232    7.3646232    7.3646232
:EIG00081:       7.5961793    7.5961793    7.5961793    7.6109709    7.6109709
:EIG00086:       7.7231746    7.7231746    7.7231746    7.7506381    7.7506381
:EIG00091:       7.7506381    7.8211257    7.8211257    7.8211257    7.8269540
:EIG00096:       7.8269540    7.8269540    7.9259906    7.9612983    8.0878012
 
:EIG00101:       8.0878012
       ********************************************************

:KPT   :      NUMBER OF K-POINTS:   165
   0.0   0.0 angle (M,z), angle (M,x) deg
 
        SPIN-ORBIT EIGENVALUES:
     K=   0.00000   0.00000   0.00000            1
      MATRIX SIZE=  202   WEIGHT= 1.00
     EIGENVALUES ARE:
          -2.0289478   -2.0289478   -0.8050356   -0.8050356   -0.5880210
          -0.5880210   -0.5880210   -0.5880210    0.3466200    0.3466200
           0.5975971    0.5975971    0.6112610    0.6112610    0.6112610
           0.6112610    0.6332422    0.6332422    0.6483933    0.6483933
           0.6554732    0.6554732    0.6554732    0.6554732    0.7285842
           0.7285842    0.7285842    0.7285842    0.7388467    0.7388467
           0.9122570    0.9122570    0.9122570    0.9122570    1.3162462
           1.3162462    1.5442354    1.5442354    1.5510569    1.5510569

           1.5510569    1.5510569    1.6503731    1.6503731    2.3685283
           2.3685283    2.3685283    2.3685283    2.3831533    2.3831533
           2.3929052    2.3929052    2.5052014    2.5052014    2.5052014
           2.5052014    2.6581614    2.6581614    2.6581614    2.6581614
           3.0517102    3.0517102    3.2061290    3.2061290    3.2067832
           3.2067832    3.2067832    3.2067832    3.6544499    3.6544499
           3.6544499    3.6544499    3.8870014    3.8870014    3.8870014
           3.8870014    3.8914388    3.8914388    3.9080654    3.9080654

           3.9600184    3.9600184    3.9600184    3.9600184    4.0432883
           4.0432883    4.0433021    4.0433021    4.0433021    4.0433021
           4.3383054    4.3383054    4.3383054    4.3383054    4.3384826
           4.3384826    4.3840093    4.3840093    4.4415518    4.4415518
           4.4415518    4.4415518
       ********************************************************
:GAP (global)   :    0.0    Ry =     0.0   eV (metal)
:GAP (this spin):    0.0    Ry =     0.0   eV (metal)
         Bandranges (emin - emax) and occupancy:
:BAN00004:   4   -0.848133   -0.805036  1.00000000
:BAN00005:   5   -0.661662   -0.588021  1.00000000
:BAN00006:   6   -0.661662   -0.588021  1.00000000
:BAN00007:   7   -0.635645   -0.588021  1.00000000
:BAN00008:   8   -0.635645   -0.588021  1.00000000
:BAN00009:   9    0.346620    0.572789  1.00000000
:BAN00010:  10    0.346620    0.572789  1.00000000
:BAN00011:  11    0.518155    0.607765  1.00000000
:BAN00012:  12    0.518155    0.607765  1.00000000
:BAN00013:  13    0.592478    0.616018  0.50000001
:BAN00014:  14    0.592478    0.616018  0.49999999
:BAN00015:  15    0.611261    0.620483  0.00000000
:BAN00016:  16    0.611261    0.620483  0.00000000
:BAN00017:  17    0.616874    0.640053  0.00000000
:BAN00018:  18    0.616874    0.640053  0.00000000
:BAN00019:  19    0.632581    0.648393  0.00000000
        Energy to separate low and high energystates:    0.29662


:NOE  : NUMBER OF ELECTRONS          =   13.000

:FER  : F E R M I - ENERGY(TETRAH.M.)=   0.6089980948
:GMA  : POTENTIAL AND CHARGE CUT-OFF  12.00 Ry**.5

:POS001: ATOM    1 X,Y,Z = 0.00000 0.00000 0.50000  MULT= 1  ZZ= 59.000  Pr        

       LMMAX  5
       LM=   0 0  4 0  4 4  6 0  6 4

:CHA001: TOTAL VALENCE CHARGE INSIDE SPHERE   1 =   9.9719    (RMT=  2.5000 )
:PCS001: PARTIAL CHARGES SPHERE =  1 S,P,D,F,      D-EG,D-T2G 
:QTL001: 2.0329 5.3508 0.6949 1.8929 0.0000 0.0000 0.0000 0.2474 0.4475 0.0000 0.0000 0.0000
        Q-s-low E-s-low   Q-p-low E-p-low   Q-d-low E-d-low   Q-f-low E-f-low
:EPL001:  1.9250 -2.0163    5.2722 -0.7013    0.0016 -0.6874    0.0005 -0.6867
        Q-s-hi  E-s-hi    Q-p-hi  E-p-hi    Q-d-hi  E-d-hi    Q-f-hi  E-f-hi 
:EPH001:  0.1078  0.4985    0.0786  0.5420    0.6933  0.5503    1.8924  0.5934

:CHA  : TOTAL VALENCE CHARGE INSIDE UNIT CELL =      13.000000

:SUM  : SUM OF EIGENVALUES =          -5.436977175


        1.ATOM      Pr                   14 CORE STATES
:1S 001: 1S               -3066.972834337 Ry
:2S 001: 2S                -492.726040131 Ry
:2PP001: 2P*               -465.825150888 Ry
:2P 001: 2P                -430.427674680 Ry
:3S 001: 3S                -105.816611726 Ry
:3PP001: 3P*                -94.354411454 Ry
:3P 001: 3P                 -87.346653432 Ry
:3DD001: 3D*                -67.273543960 Ry
:3D 001: 3D                 -65.762000014 Ry
:4S 001: 4S                 -20.498402588 Ry
:4PP001: 4P*                -16.205495027 Ry
:4P 001: 4P                 -14.678557947 Ry
:4DD001: 4D*                 -7.612330892 Ry
:4D 001: 4D                  -7.343085803 Ry
:CINT001 Core Integral Atom   1   45.999513

       DENSITY AT NUCLEUS
        JATOM        VALENCE       SEMI-CORE          CORE           TOTAL
:RTO001:   1      651.382126        0.000000   656823.601650   657474.983777
     
       CHARGES OF NEW CHARGE DENSITY
:NTO   : INTERSTITIAL CHARGE =     3.028138
:NPC   : PW Pseudocharge     =     7.702027
:NTO001: CHARGE SPHERE  1    =    55.971374

:NEC01: NUCLEAR AND ELECTRONIC CHARGE     59.00000    58.99951
     
       CHARGES OF OLD CHARGE DENSITY
:OTO   : INTERSTITIAL CHARGE =     2.885083
:OPC   : PW Pseudocharge     =     7.637165
:OTO001: CHARGE SPHERE  1    =    56.114917

:NEC02: NUCLEAR AND ELECTRONIC CHARGE     59.00000    59.00000
     
       CONVERGENCE TEST
:DTO001: DIFFERENCE IN SPHERE  1 =  0.2499004

:DIS  :  CHARGE DISTANCE       ( 0.2499004 for atom    1 spin 1)      0.2499004
 PW Mixed is           53
 
******************************************************
* MULTISECANT MIXING VER9 RELEASE 10.4.0              *
* Standard Mode with controls                        *
* Fixed density scale                                *
* Restart from converged density                     *
* Regularization       1.000E-04                     *
* Trust Upper Limit    5.000E+00                     *
* Max Number of Memory Steps    8                    *
******************************************************
 
:INFO : Forcing a restart
:PWTMP   1.6893E+02  1.2500E+02  2.3438E+02
:PLANE:  PW TOTAL      3.0637 DISTAN   3.58E-02  1.17E+00 %
:CHARG:  CLM/ATOM    977.1916 DISTAN   2.58E-01  2.64E-02 %
 
Step History
        DMIX         DMIXT        Red     Pred      Trust     Lambda    MagRel    MagAbs     Beta
  1   3.5000E-02   3.5000E-02 -1.00E+00  1.00E+00 -1.00E+01  1.00E+00  3.50E-02  3.50E-02  1.00E+00
  2   1.4504E-01   1.4504E-01 -1.00E+00  1.00E+00 -1.00E+01  1.00E+00  1.45E-01  3.06E-02  1.00E+00
:JACOBIANS    1.239E-03   3.149E-02
  
:NORMS:  1/Froebius, Min, Max, Used   0.5053E-02  0.5053E-02  0.6526E-01  0.5053E-02
:INFO :  Number of Memory Steps    1 Skipping    0
:PREDicted Charge, CTotal, PW Trust    6.783E-03   6.783E-03   9.808E-03
:PREDicted DMix, Beta, BLim   2.4174E-02  4.4185E-01  1.1563E+00

Eigenvalues, unscaled except for SY+YY
   #     SY Real        SY Imag          SS             YY         SY+YY Real      SY+YY Imag
   1   6.526141E-02   0.000000E+00   5.052661E-03   1.000000E+00   1.065261E+00   0.000000E+00
 
:DLIM :  Beta Active  8.000E-01
:BLIM :  VZERO Control Off
:TRUST:  Step 3.00E+00  Charge 6.82E-02 (e) CTO  2.27E-01 (e) PW  3.18E-01 (e)
:DIRM :  MEMORY  1/8  SCALE   1.000 RED  1.24 PRED  1.00 NEXT  0.33 BETA  0.80
:TRAVE:  Charge 7.11E-03 (e) CTO  7.11E-03 (e) PW  1.01E-02 (e)
:DIRP :  |MSR1|= 4.587E-03 |PRATT|= 3.580E-02 ANGLE=  42.3 DEGREES
:DIRQ :  |MSR1|= 1.278E-02 |PRATT|= 2.584E-01 ANGLE=  17.7 DEGREES
:DIRT :  |MSR1|= 1.358E-02 |PRATT|= 2.609E-01 ANGLE=  22.7 DEGREES
:MIX  :   MSR1   REGULARIZATION:  1.00E-04 GREED: 0.05802  Newton 1.00  0.0520                
     
       CHARGES OF MIXED CHARGE DENSITY
:CTO   : INTERSTITIAL CHARGE =     2.892190
:CPC   : PW Pseudocharge     =     7.648952
:CTO001: CHARGE SPHERE  1    =    56.107810

:NEC03: NUCLEAR AND ELECTRONIC CHARGE     59.00000    59.00000

PW CHANGE     H    K    L      Current       Change    Residue
:PTO001:      0    0    0  4.49743977E-02  8.061E-05  8.945E-04
:PTO002:     -1   -1   -1 -1.36642313E-01 -1.831E-04 -1.989E-04
:PTO003:      0    0   -2  8.02477482E-02  9.962E-05 -8.511E-06
:PTO004:      0   -2   -2  6.67953361E-02  9.440E-05  9.476E-05
:PTO005:     -1   -1   -3 -6.02238104E-02 -5.655E-05  2.640E-04
:PTO006:     -2   -2   -2  1.49920532E-02  1.300E-05 -7.526E-05
:PTO007:      0    0   -4  1.90096536E-03 -7.989E-06 -9.588E-05
:PTO008:     -1   -3   -3  3.58738490E-04  2.351E-05  1.646E-04
:PTO009:      0   -2   -4 -2.97036302E-03 -2.939E-05 -2.155E-04
:PTO010:     -2   -2   -4 -7.48553046E-03 -2.437E-05 -1.191E-04
:PTO011:     -3   -3   -3  2.79643022E-03  5.567E-06  9.957E-06
:PTO012:     -1   -1   -5  8.15867714E-03  2.032E-05  1.381E-04

:ENE  : ********** TOTAL ENERGY IN Ry =       -18472.12252715

 Flat Integration
 New Mode for Coulomb Integral
 Consistent 3/8+Simpson combinations
 Extension of core to zero
 LDM version in phi
 Fifth-order quadrature in outwin


            ---------
:ITE016: 16. ITERATION
            ---------

:NATO :    1 INDEPENDENT AND    1 TOTAL ATOMS IN UNITCELL
       SUBSTANCE: blebleble                                                   

       LATTICE                      = F   
:POT  : POTENTIAL OPTION EX_LDA EC_LDA VX_LDA VC_LDA
:LAT  : LATTICE CONSTANTS=  9.78725  9.78725  9.78725    1.571    1.571    1.571
:VOL  : UNIT CELL VOLUME =     234.38096
       MODE OF CALCULATION IS       = RELA
       NON-SPINPOLARIZED CALCULATION
:IFFT  : FFT-parameters:   80   80   80 Factor: 2.00


   CONVERGENCE PARAMETER FOR PSEUDOCHARGE: NCON=  9
   MAXIMAL VALUE OF RMT(JATOM)*ABSK(NKK) : RK  =29.89674


:VKCOUL :  VK-COUL convergence: 0.225E-06
       ATOMNUMBER=  1 Pr         VCOUL-ZERO =  0.26436E+00
:FIT001: LUSE= 13 SIGMA OF V-XC FIT FOR ATOM  1  0.4735200E-04
:FIT001: LUSE= 13 SIGMA OF V-XC FIT FOR ATOM  1  0.4735200E-04
:DEN  : DENSITY INTEGRAL  =         -7073.12280515   (Ry)
       ELS_POTENTIAL_AT Z=0 and Z=0.5:  -2.51173  -2.51173
       ELS_POTENTIAL_AT Y=0 and Y=0.5:   0.00000   0.00000
:VZERO:v0,v0c,v0x  -3.49102  -2.51173  -0.97929 v5,v5c,v5x  -3.49102  -2.51173  -0.97929
:VZERY:v0,v0c,v0x  -0.71976   0.00000  -0.71976 v5,v5c,v5x  -0.71976   0.00000  -0.71976
:VZERX:v0,v0c,v0x  -0.71976   0.00000  -0.71976 v5,v5c,v5x  -0.71976   0.00000  -0.71976
:LMAX-WF:   10   Non-Spherical LMAX:   4

          ATOMIC SPHERE DEPENDENT PARAMETERS FOR ATOM  Pr        
:e__0001: OVERALL ENERGY PARAMETER IS    0.4036
          OVERALL BASIS SET ON ATOM IS LAPW
:E0_0001: E( 0)=    0.4036
             APW+lo
:E0_0001: E( 0)=   -2.0711   E(BOTTOM)=   -2.452   E(TOP)=   -1.690  4  5   173
             LOCAL ORBITAL
:E1_0001: E( 1)=    0.8036
             APW+lo
:E1_0001: E( 1)=   -0.6833   E(BOTTOM)=   -1.330   E(TOP)=   -0.036  3  4   171
             LOCAL ORBITAL
:E3_0001: E( 3)=    0.5993   E(BOTTOM)=    0.457   E(TOP)=    0.741  0  1   122
             APW+lo
:E2_0001: E( 2)=    0.4036   E(BOTTOM)=    0.245   E(TOP)= -200.000  2 -1    85
             APW+lo

       K=   0.00000   0.00000   0.00000            1
:RKM  : MATRIX SIZE   189LOs:  20  RKM= 8.34  WEIGHT= 1.00  PGR:    
       EIGENVALUES ARE:
:EIG00001:      -2.0339099   -0.6611951   -0.6611951   -0.6611951    0.3467017
:EIG00006:       0.5930394    0.6126428    0.6126428    0.6126428    0.6391033
:EIG00011:       0.6391033    0.6391033    0.7314372    0.7314372    0.7314372
:EIG00016:       0.9103897    0.9103897    1.3152937    1.5486118    1.5486118
:EIG00021:       1.5486118    1.6514146    2.3717610    2.3717610    2.3717610
:EIG00026:       2.4661618    2.4661618    2.4661618    2.6567748    2.6567748
:EIG00031:       3.0512669    3.2065926    3.2065926    3.2065926    3.6531399
:EIG00036:       3.6531399    3.8874305    3.8874305    3.8874305    3.9416525
:EIG00041:       3.9416525    3.9416525    4.0429908    4.0429908    4.0429908
:EIG00046:       4.3387519    4.3387519    4.3387519    4.3835166    4.4422049
 
:EIG00051:       4.4422049    4.5473854    4.5473854    4.5473854    4.5746168
:EIG00056:       4.5746168    4.5746168    4.6841720    4.6853261    4.8028028
:EIG00061:       4.8028028    4.8028028    4.9709456    4.9709456    4.9709456
:EIG00066:       5.2754540    6.2374408    6.2510854    6.2510854    6.6234461
:EIG00071:       6.6234461    6.6234461    7.1365677    7.1365677    7.3134470
:EIG00076:       7.3134470    7.3134470    7.3633277    7.3633277    7.3633277
:EIG00081:       7.5960207    7.5960207    7.5960207    7.6112214    7.6112214
:EIG00086:       7.7231107    7.7231107    7.7231107    7.7486869    7.7486869
:EIG00091:       7.7486869    7.8210025    7.8210025    7.8210025    7.8261399
:EIG00096:       7.8261399    7.8261399    7.9260701    7.9615732    8.0879130
 
:EIG00101:       8.0879130
       ********************************************************

:KPT   :      NUMBER OF K-POINTS:   165
   0.0   0.0 angle (M,z), angle (M,x) deg
 
        SPIN-ORBIT EIGENVALUES:
     K=   0.00000   0.00000   0.00000            1
      MATRIX SIZE=  202   WEIGHT= 1.00
     EIGENVALUES ARE:
          -2.0339099   -2.0339099   -0.8091885   -0.8091885   -0.5918086
          -0.5918086   -0.5918086   -0.5918086    0.3467017    0.3467017
           0.5890382    0.5890382    0.6020886    0.6020886    0.6020886
           0.6020886    0.6242550    0.6242550    0.6388358    0.6388358
           0.6458908    0.6458908    0.6458908    0.6458908    0.7276246
           0.7276246    0.7276246    0.7276246    0.7379333    0.7379333
           0.9107611    0.9107611    0.9107611    0.9107611    1.3153511
           1.3153511    1.5439132    1.5439132    1.5507848    1.5507848

           1.5507848    1.5507848    1.6514146    1.6514146    2.3667024
           2.3667024    2.3667024    2.3667024    2.3813713    2.3813713
           2.3918152    2.3918152    2.5041796    2.5041796    2.5041796
           2.5041796    2.6570661    2.6570661    2.6570661    2.6570661
           3.0512669    3.0512669    3.2061677    3.2061677    3.2068177
           3.2068177    3.2068177    3.2068177    3.6531095    3.6531095
           3.6531095    3.6531095    3.8860428    3.8860428    3.8860428
           3.8860428    3.8904839    3.8904839    3.9081564    3.9081564

           3.9600586    3.9600586    3.9600586    3.9600586    4.0429816
           4.0429816    4.0429955    4.0429955    4.0429955    4.0429955
           4.3386950    4.3386950    4.3386950    4.3386950    4.3388732
           4.3388732    4.3835166    4.3835166    4.4422049    4.4422049
           4.4422049    4.4422049
       ********************************************************
:GAP (global)   :    0.0    Ry =     0.0   eV (metal)
:GAP (this spin):    0.0    Ry =     0.0   eV (metal)
         Bandranges (emin - emax) and occupancy:
:BAN00004:   4   -0.851974   -0.809189  1.00000000
:BAN00005:   5   -0.665017   -0.591809  1.00000000
:BAN00006:   6   -0.665017   -0.591809  1.00000000
:BAN00007:   7   -0.639129   -0.591809  1.00000000
:BAN00008:   8   -0.639129   -0.591809  1.00000000
:BAN00009:   9    0.346702    0.569531  1.00000000
:BAN00010:  10    0.346702    0.569531  1.00000000
:BAN00011:  11    0.517762    0.599703  1.00000000
:BAN00012:  12    0.517762    0.599703  1.00000000
:BAN00013:  13    0.586401    0.606756  0.50000002
:BAN00014:  14    0.586401    0.606756  0.49999998
:BAN00015:  15    0.602089    0.612266  0.00000000
:BAN00016:  16    0.602089    0.612266  0.00000000
:BAN00017:  17    0.607603    0.631110  0.00000000
:BAN00018:  18    0.607603    0.631110  0.00000000
:BAN00019:  19    0.624920    0.638836  0.00000000
        Energy to separate low and high energystates:    0.29670


:NOE  : NUMBER OF ELECTRONS          =   13.000

:FER  : F E R M I - ENERGY(TETRAH.M.)=   0.6007320606
:GMA  : POTENTIAL AND CHARGE CUT-OFF  12.00 Ry**.5

:POS001: ATOM    1 X,Y,Z = 0.00000 0.00000 0.50000  MULT= 1  ZZ= 59.000  Pr        

       LMMAX  5
       LM=   0 0  4 0  4 4  6 0  6 4

:CHA001: TOTAL VALENCE CHARGE INSIDE SPHERE   1 =  10.0761    (RMT=  2.5000 )
:PCS001: PARTIAL CHARGES SPHERE =  1 S,P,D,F,      D-EG,D-T2G 
:QTL001: 2.0316 5.3476 0.6518 2.0447 0.0000 0.0000 0.0000 0.2340 0.4178 0.0000 0.0000 0.0000
        Q-s-low E-s-low   Q-p-low E-p-low   Q-d-low E-d-low   Q-f-low E-f-low
:EPL001:  1.9254 -2.0214    5.2758 -0.7049    0.0016 -0.6909    0.0005 -0.6902
        Q-s-hi  E-s-hi    Q-p-hi  E-p-hi    Q-d-hi  E-d-hi    Q-f-hi  E-f-hi 
:EPH001:  0.1063  0.4966    0.0718  0.5358    0.6502  0.5456    2.0442  0.5863

:CHA  : TOTAL VALENCE CHARGE INSIDE UNIT CELL =      13.000000

:SUM  : SUM OF EIGENVALUES =          -5.488319565


        1.ATOM      Pr                   14 CORE STATES
:1S 001: 1S               -3066.990875505 Ry
:2S 001: 2S                -492.744040224 Ry
:2PP001: 2P*               -465.843160617 Ry
:2P 001: 2P                -430.445680340 Ry
:3S 001: 3S                -105.834070577 Ry
:3PP001: 3P*                -94.371915325 Ry
:3P 001: 3P                 -87.364080868 Ry
:3DD001: 3D*                -67.291117857 Ry
:3D 001: 3D                 -65.779554176 Ry
:4S 001: 4S                 -20.512126933 Ry
:4PP001: 4P*                -16.218990925 Ry
:4P 001: 4P                 -14.691698121 Ry
:4DD001: 4D*                 -7.624842647 Ry
:4D 001: 4D                  -7.355476180 Ry
:CINT001 Core Integral Atom   1   45.999517

       DENSITY AT NUCLEUS
        JATOM        VALENCE       SEMI-CORE          CORE           TOTAL
:RTO001:   1      651.546247        0.000000   656824.385351   657475.931598
     
       CHARGES OF NEW CHARGE DENSITY
:NTO   : INTERSTITIAL CHARGE =     2.923937
:NPC   : PW Pseudocharge     =     7.661961
:NTO001: CHARGE SPHERE  1    =    56.075579

:NEC01: NUCLEAR AND ELECTRONIC CHARGE     59.00000    58.99952
     
       CHARGES OF OLD CHARGE DENSITY
:OTO   : INTERSTITIAL CHARGE =     2.892190
:OPC   : PW Pseudocharge     =     7.648952
:OTO001: CHARGE SPHERE  1    =    56.107810

:NEC02: NUCLEAR AND ELECTRONIC CHARGE     59.00000    59.00000
     
       CONVERGENCE TEST
:DTO001: DIFFERENCE IN SPHERE  1 =  0.0528605

:DIS  :  CHARGE DISTANCE       ( 0.0528605 for atom    1 spin 1)      0.0528605
 PW Mixed is           53
 
******************************************************
* MULTISECANT MIXING VER9 RELEASE 10.4.0              *
* Standard Mode with controls                        *
* Fixed density scale                                *
* Regularization       1.000E-04                     *
* Trust Upper Limit    5.000E+00                     *
* Max Number of Memory Steps    8                    *
******************************************************
 
:PWTMP   1.6893E+02  1.2500E+02  2.3438E+02
:PLANE:  PW TOTAL      3.0682 DISTAN   8.17E-03  2.66E-01 %
:CHARG:  CLM/ATOM    977.1905 DISTAN   8.03E-02  8.22E-03 %
 
Step History
        DMIX         DMIXT        Red     Pred      Trust     Lambda    MagRel    MagAbs     Beta
  1   3.5000E-02   3.5000E-02 -1.00E+00  1.00E+00 -1.00E+01  1.00E+00  3.50E-02  3.50E-02  1.00E+00
  2   1.4504E-01   1.4504E-01  1.24E+00  1.00E+00 -1.00E+01  1.00E+00  1.45E-01  3.06E-02  1.00E+00
  3   5.8017E-02   5.8017E-02 -1.00E+00  3.29E-01  3.00E+00  1.00E+00  5.20E-02  1.36E-02  8.00E-01
:JACOBIANS    2.343E-03   3.037E-01
  
:NORMS:  1/Froebius, Min, Max, Used   0.7273E-01  0.7069E-01  0.5104E+00  0.8509E-01
:INFO :  Number of Memory Steps    2 Skipping    0
:INFO :  SLambda=    3.0000000000  Max    3.0000000000
:PREDicted Charge, CTotal, PW Trust    1.142E-02   1.142E-02   1.454E-02
:PREDicted DMix, Beta, BLim   4.6958E-01  1.8291E+00  5.1536E-01

Eigenvalues, unscaled except for SY+YY
   #     SY Real        SY Imag          SS             YY         SY+YY Real      SY+YY Imag
   1   1.302888E-01   0.000000E+00   9.982568E-03   1.997724E+00   2.388610E+00   0.000000E+00
   2   1.170598E-03   0.000000E+00   5.962335E-04   2.276282E-03   5.768570E-03   0.000000E+00
 
:INFO :  Singular value  2.389E+00 Weight  1.000E+00 Projection  3.423E-02
:INFO :  Singular value  5.769E-03 Weight  9.988E-01 Projection -1.307E+00
:RANK :  ACTIVE   2.00/2  =  99.94 % ; YY RANK   1.99/2  =  99.62 %
 
:BLIM :  VZERO Control Off
:TRUST:  Step 1.27E+00  Charge 6.82E-02 (e) CTO  2.27E-01 (e) PW  3.18E-01 (e)
:DIRM :  MEMORY  2/8  SCALE   1.000 RED  0.31 PRED  0.33 NEXT  0.25 
:TRAVE:  Charge 5.57E-03 (e) CTO  5.57E-03 (e) PW  7.21E-03 (e)
:DIRP :  |MSR1|= 1.867E-03 |PRATT|= 8.171E-03 ANGLE=  30.2 DEGREES
:DIRQ :  |MSR1|= 3.287E-02 |PRATT|= 8.033E-02 ANGLE=  32.7 DEGREES
:DIRT :  |MSR1|= 3.293E-02 |PRATT|= 8.075E-02 ANGLE=  32.8 DEGREES
:MIX  :   MSE1   REGULARIZATION:  2.00E-04 GREED: 0.14504  Newton 1.00  0.4078                
     
       CHARGES OF MIXED CHARGE DENSITY
:CTO   : INTERSTITIAL CHARGE =     2.896230
:CPC   : PW Pseudocharge     =     7.653075
:CTO001: CHARGE SPHERE  1    =    56.103770

:NEC03: NUCLEAR AND ELECTRONIC CHARGE     59.00000    59.00000

PW CHANGE     H    K    L      Current       Change    Residue
:PTO001:      0    0    0  4.50092222E-02  3.482E-05  1.984E-04
:PTO002:     -1   -1   -1 -1.36662266E-01 -1.995E-05  1.681E-05
:PTO003:      0    0   -2  8.02924671E-02  4.472E-05  2.761E-05
:PTO004:      0   -2   -2  6.67625767E-02 -3.276E-05 -6.623E-05
:PTO005:     -1   -1   -3 -6.01851392E-02  3.867E-05  1.260E-04
:PTO006:     -2   -2   -2  1.49710597E-02 -2.099E-05 -4.981E-05
:PTO007:      0    0   -4  1.90409673E-03  3.131E-06 -1.122E-05
:PTO008:     -1   -3   -3  4.23301043E-04  6.456E-05  1.190E-04
:PTO009:      0   -2   -4 -3.01846995E-03 -4.811E-05 -1.042E-04
:PTO010:     -2   -2   -4 -7.50933373E-03 -2.380E-05 -4.833E-05
:PTO011:     -3   -3   -3  2.79442851E-03 -2.002E-06 -4.251E-06
:PTO012:     -1   -1   -5  8.16191054E-03  3.233E-06  2.682E-05

:ENE  : ********** TOTAL ENERGY IN Ry =       -18472.12134640

 Flat Integration
 New Mode for Coulomb Integral
 Consistent 3/8+Simpson combinations
 Extension of core to zero
 LDM version in phi
 Fifth-order quadrature in outwin


            ---------
:ITE017: 17. ITERATION
            ---------

:NATO :    1 INDEPENDENT AND    1 TOTAL ATOMS IN UNITCELL
       SUBSTANCE: blebleble                                                   

       LATTICE                      = F   
:POT  : POTENTIAL OPTION EX_LDA EC_LDA VX_LDA VC_LDA
:LAT  : LATTICE CONSTANTS=  9.78725  9.78725  9.78725    1.571    1.571    1.571
:VOL  : UNIT CELL VOLUME =     234.38096
       MODE OF CALCULATION IS       = RELA
       NON-SPINPOLARIZED CALCULATION
:IFFT  : FFT-parameters:   80   80   80 Factor: 2.00


   CONVERGENCE PARAMETER FOR PSEUDOCHARGE: NCON=  9
   MAXIMAL VALUE OF RMT(JATOM)*ABSK(NKK) : RK  =29.89674


:VKCOUL :  VK-COUL convergence: 0.215E-06
       ATOMNUMBER=  1 Pr         VCOUL-ZERO =  0.26454E+00
:FIT001: LUSE= 13 SIGMA OF V-XC FIT FOR ATOM  1  0.4519786E-04
:FIT001: LUSE= 13 SIGMA OF V-XC FIT FOR ATOM  1  0.4519786E-04
:DEN  : DENSITY INTEGRAL  =         -7072.77301585   (Ry)
       ELS_POTENTIAL_AT Z=0 and Z=0.5:  -2.51383  -2.51383
       ELS_POTENTIAL_AT Y=0 and Y=0.5:   0.00000   0.00000
:VZERO:v0,v0c,v0x  -3.49373  -2.51383  -0.97990 v5,v5c,v5x  -3.49373  -2.51383  -0.97990
:VZERY:v0,v0c,v0x  -0.72002   0.00000  -0.72002 v5,v5c,v5x  -0.72002   0.00000  -0.72002
:VZERX:v0,v0c,v0x  -0.72002   0.00000  -0.72002 v5,v5c,v5x  -0.72002   0.00000  -0.72002
:LMAX-WF:   10   Non-Spherical LMAX:   4

          ATOMIC SPHERE DEPENDENT PARAMETERS FOR ATOM  Pr        
:e__0001: OVERALL ENERGY PARAMETER IS    0.4017
          OVERALL BASIS SET ON ATOM IS LAPW
:E0_0001: E( 0)=    0.4017
             APW+lo
:E0_0001: E( 0)=   -2.0731   E(BOTTOM)=   -2.454   E(TOP)=   -1.692  4  5   172
             LOCAL ORBITAL
:E1_0001: E( 1)=    0.8017
             APW+lo
:E1_0001: E( 1)=   -0.6850   E(BOTTOM)=   -1.332   E(TOP)=   -0.038  3  4   173
             LOCAL ORBITAL
:E3_0001: E( 3)=    0.5957   E(BOTTOM)=    0.454   E(TOP)=    0.737  0  1   111
             APW+lo
:E2_0001: E( 2)=    0.4017   E(BOTTOM)=    0.244   E(TOP)= -200.000  2 -1    86
             APW+lo

       K=   0.00000   0.00000   0.00000            1
:RKM  : MATRIX SIZE   189LOs:  20  RKM= 8.34  WEIGHT= 1.00  PGR:    
       EIGENVALUES ARE:
:EIG00001:      -2.0359228   -0.6628075   -0.6628075   -0.6628075    0.3468565
:EIG00006:       0.5896538    0.6092364    0.6092364    0.6092364    0.6353830
:EIG00011:       0.6353830    0.6353830    0.7310301    0.7310301    0.7310301
:EIG00016:       0.9098125    0.9098125    1.3150005    1.5486983    1.5486983
:EIG00021:       1.5486983    1.6520738    2.3712738    2.3712738    2.3712738
:EIG00026:       2.4657792    2.4657792    2.4657792    2.6565702    2.6565702
:EIG00031:       3.0512091    3.2066612    3.2066612    3.2066612    3.6530981
:EIG00036:       3.6530981    3.8873801    3.8873801    3.8873801    3.9418332
:EIG00041:       3.9418332    3.9418332    4.0430124    4.0430124    4.0430124
:EIG00046:       4.3390585    4.3390585    4.3390585    4.3835922    4.4425200
 
:EIG00051:       4.4425200    4.5476732    4.5476732    4.5476732    4.5749792
:EIG00056:       4.5749792    4.5749792    4.6842400    4.6858126    4.8033156
:EIG00061:       4.8033156    4.8033156    4.9713999    4.9713999    4.9713999
:EIG00066:       5.2758924    6.2376744    6.2513221    6.2513221    6.6237024
:EIG00071:       6.6237024    6.6237024    7.1364764    7.1364764    7.3134360
:EIG00076:       7.3134360    7.3134360    7.3631489    7.3631489    7.3631489
:EIG00081:       7.5962669    7.5962669    7.5962669    7.6114666    7.6114666
:EIG00086:       7.7233059    7.7233059    7.7233059    7.7489391    7.7489391
:EIG00091:       7.7489391    7.8212269    7.8212269    7.8212269    7.8263682
:EIG00096:       7.8263682    7.8263682    7.9265744    7.9617825    8.0883120
 
:EIG00101:       8.0883120
       ********************************************************

:KPT   :      NUMBER OF K-POINTS:   165
   0.0   0.0 angle (M,z), angle (M,x) deg
 
        SPIN-ORBIT EIGENVALUES:
     K=   0.00000   0.00000   0.00000            1
      MATRIX SIZE=  202   WEIGHT= 1.00
     EIGENVALUES ARE:
          -2.0359228   -2.0359228   -0.8108955   -0.8108955   -0.5933747
          -0.5933747   -0.5933747   -0.5933747    0.3468565    0.3468565
           0.5856103    0.5856103    0.5986258    0.5986258    0.5986258
           0.5986258    0.6208718    0.6208718    0.6351540    0.6351540
           0.6422179    0.6422179    0.6422179    0.6422179    0.7272105
           0.7272105    0.7272105    0.7272105    0.7375364    0.7375364
           0.9101854    0.9101854    0.9101854    0.9101854    1.3150572
           1.3150572    1.5439875    1.5439875    1.5508767    1.5508767

           1.5508767    1.5508767    1.6520738    1.6520738    2.3662165
           2.3662165    2.3662165    2.3662165    2.3808827    2.3808827
           2.3914228    2.3914228    2.5038044    2.5038044    2.5038044
           2.5038044    2.6568612    2.6568612    2.6568612    2.6568612
           3.0512091    3.0512091    3.2062373    3.2062373    3.2068857
           3.2068857    3.2068857    3.2068857    3.6530679    3.6530679
           3.6530679    3.6530679    3.8859940    3.8859940    3.8859940
           3.8859940    3.8904297    3.8904297    3.9083619    3.9083619

           3.9602254    3.9602254    3.9602254    3.9602254    4.0430031
           4.0430031    4.0430170    4.0430170    4.0430170    4.0430170
           4.3390014    4.3390014    4.3390014    4.3390014    4.3391800
           4.3391800    4.3835922    4.3835922    4.4425200    4.4425200
           4.4425200    4.4425200
       ********************************************************
:GAP (global)   :    0.0    Ry =     0.0   eV (metal)
:GAP (this spin):    0.0    Ry =     0.0   eV (metal)
         Bandranges (emin - emax) and occupancy:
:BAN00004:   4   -0.853553   -0.810896  1.00000000
:BAN00005:   5   -0.666403   -0.593375  1.00000000
:BAN00006:   6   -0.666403   -0.593375  1.00000000
:BAN00007:   7   -0.640569   -0.593375  1.00000000
:BAN00008:   8   -0.640569   -0.593375  1.00000000
:BAN00009:   9    0.346856    0.568146  1.00000000
:BAN00010:  10    0.346856    0.568146  1.00000000
:BAN00011:  11    0.517596    0.596439  1.00000000
:BAN00012:  12    0.517596    0.596439  1.00000000
:BAN00013:  13    0.584022    0.603191  0.50000002
:BAN00014:  14    0.584022    0.603191  0.49999998
:BAN00015:  15    0.598626    0.609170  0.00000000
:BAN00016:  16    0.598626    0.609170  0.00000000
:BAN00017:  17    0.604073    0.627591  0.00000000
:BAN00018:  18    0.604073    0.627591  0.00000000
:BAN00019:  19    0.622635    0.635154  0.00000000
        Energy to separate low and high energystates:    0.29686


:NOE  : NUMBER OF ELECTRONS          =   13.000

:FER  : F E R M I - ENERGY(TETRAH.M.)=   0.5975476224
:GMA  : POTENTIAL AND CHARGE CUT-OFF  12.00 Ry**.5

:POS001: ATOM    1 X,Y,Z = 0.00000 0.00000 0.50000  MULT= 1  ZZ= 59.000  Pr        

       LMMAX  5
       LM=   0 0  4 0  4 4  6 0  6 4

:CHA001: TOTAL VALENCE CHARGE INSIDE SPHERE   1 =  10.1176    (RMT=  2.5000 )
:PCS001: PARTIAL CHARGES SPHERE =  1 S,P,D,F,      D-EG,D-T2G 
:QTL001: 2.0311 5.3465 0.6349 2.1048 0.0000 0.0000 0.0000 0.2288 0.4061 0.0000 0.0000 0.0000
        Q-s-low E-s-low   Q-p-low E-p-low   Q-d-low E-d-low   Q-f-low E-f-low
:EPL001:  1.9255 -2.0234    5.2773 -0.7065    0.0016 -0.6924    0.0005 -0.6917
        Q-s-hi  E-s-hi    Q-p-hi  E-p-hi    Q-d-hi  E-d-hi    Q-f-hi  E-f-hi 
:EPH001:  0.1056  0.4959    0.0692  0.5335    0.6332  0.5438    2.1043  0.5835

:CHA  : TOTAL VALENCE CHARGE INSIDE UNIT CELL =      13.000000

:SUM  : SUM OF EIGENVALUES =          -5.509066181


        1.ATOM      Pr                   14 CORE STATES
:1S 001: 1S               -3067.001125745 Ry
:2S 001: 2S                -492.753487298 Ry
:2PP001: 2P*               -465.852783216 Ry
:2P 001: 2P                -430.455236897 Ry
:3S 001: 3S                -105.841870783 Ry
:3PP001: 3P*                -94.379810461 Ry
:3P 001: 3P                 -87.371871263 Ry
:3DD001: 3D*                -67.299167483 Ry
:3D 001: 3D                 -65.787569137 Ry
:4S 001: 4S                 -20.517442808 Ry
:4PP001: 4P*                -16.224218600 Ry
:4P 001: 4P                 -14.696765212 Ry
:4DD001: 4D*                 -7.629669505 Ry
:4D 001: 4D                  -7.360251148 Ry
:CINT001 Core Integral Atom   1   45.999518

       DENSITY AT NUCLEUS
        JATOM        VALENCE       SEMI-CORE          CORE           TOTAL
:RTO001:   1      651.584068        0.000000   656825.026282   657476.610350
     
       CHARGES OF NEW CHARGE DENSITY
:NTO   : INTERSTITIAL CHARGE =     2.882379
:NPC   : PW Pseudocharge     =     7.646361
:NTO001: CHARGE SPHERE  1    =    56.117138

:NEC01: NUCLEAR AND ELECTRONIC CHARGE     59.00000    58.99952
     
       CHARGES OF OLD CHARGE DENSITY
:OTO   : INTERSTITIAL CHARGE =     2.896230
:OPC   : PW Pseudocharge     =     7.653075
:OTO001: CHARGE SPHERE  1    =    56.103770

:NEC02: NUCLEAR AND ELECTRONIC CHARGE     59.00000    59.00000
     
       CONVERGENCE TEST
:DTO001: DIFFERENCE IN SPHERE  1 =  0.0264255

:DIS  :  CHARGE DISTANCE       ( 0.0264255 for atom    1 spin 1)      0.0264255
 PW Mixed is           53
 
******************************************************
* MULTISECANT MIXING VER9 RELEASE 10.4.0              *
* Standard Mode with controls                        *
* Fixed density scale                                *
* Regularization       1.000E-04                     *
* Trust Upper Limit    5.000E+00                     *
* Max Number of Memory Steps    8                    *
******************************************************
 
:PWTMP   1.6893E+02  1.2500E+02  2.3438E+02
:PLANE:  PW TOTAL      3.0693 DISTAN   3.41E-03  1.11E-01 %
:CHARG:  CLM/ATOM    977.1873 DISTAN   3.86E-02  3.95E-03 %
 
Step History
        DMIX         DMIXT        Red     Pred      Trust     Lambda    MagRel    MagAbs     Beta
  1   3.5000E-02   3.5000E-02 -1.00E+00  1.00E+00 -1.00E+01  1.00E+00  3.50E-02  3.50E-02  1.00E+00
  2   1.4504E-01   1.4504E-01  1.24E+00  1.00E+00 -1.00E+01  1.00E+00  1.45E-01  3.06E-02  1.00E+00
  3   5.8017E-02   5.8017E-02  3.10E-01  3.29E-01  3.00E+00  3.00E+00  5.20E-02  1.36E-02  8.00E-01
  4   1.4504E-01   1.4504E-01 -1.00E+00  2.51E-01  1.27E+00  1.00E+00  4.08E-01  3.29E-02  1.00E+00
:JACOBIANS    3.635E-03   6.554E-01
  
:NORMS:  1/Froebius, Min, Max, Used   0.2740E+00  0.2645E+00  0.8559E+00  0.2775E+00
:INFO :  Number of Memory Steps    3 Skipping    0
:INFO :  SLambda=    3.0000000000  Max    3.0000000000
:PREDicted Charge, CTotal, PW Trust    4.207E-03   4.207E-03   3.604E-03
:PREDicted DMix, Beta, BLim   1.6267E-01  1.6266E+00  1.1480E+00

Eigenvalues, unscaled except for SY+YY
   #     SY Real        SY Imag          SS             YY         SY+YY Real      SY+YY Imag
   1   2.933484E-05   0.000000E+00   2.141414E-01   2.780862E+00   3.384535E+00   0.000000E+00
   2   1.404144E-01   0.000000E+00   1.102507E-02   2.188381E-01   8.140535E-01   0.000000E+00
   3   2.592095E-01   0.000000E+00   2.919981E-06   2.997388E-04   3.708635E-04   0.000000E+00
 
:INFO :  Singular value  3.385E+00 Weight  1.000E+00 Projection -9.587E-03
:INFO :  Singular value  8.142E-01 Weight  1.000E+00 Projection -6.408E-02
:INFO :  Singular value  3.708E-04 Weight  6.400E-01 Projection -3.622E-01
:RANK :  ACTIVE   2.64/3  =  88.00 % ; YY RANK   2.54/3  =  84.58 %
 
:BLIM :  VZERO Control Off
:TRUST:  Step 1.69E+00  Charge 6.82E-02 (e) CTO  2.27E-01 (e) PW  3.18E-01 (e)
:DIRM :  MEMORY  3/8  SCALE   1.000 RED  0.48 PRED  0.25 NEXT  0.13 
:TRAVE:  Charge 2.84E-03 (e) CTO  2.84E-03 (e) PW  3.91E-03 (e)
:DIRP :  |MSR1|= 1.077E-03 |PRATT|= 3.414E-03 ANGLE=  62.9 DEGREES
:DIRQ :  |MSR1|= 2.088E-02 |PRATT|= 3.862E-02 ANGLE=  40.0 DEGREES
:DIRT :  |MSR1|= 2.091E-02 |PRATT|= 3.877E-02 ANGLE=  40.1 DEGREES
:MIX  :   MSE1   REGULARIZATION:  2.78E-04 GREED: 0.13610  Newton 1.00  0.5394                
     
       CHARGES OF MIXED CHARGE DENSITY
:CTO   : INTERSTITIAL CHARGE =     2.896327
:CPC   : PW Pseudocharge     =     7.651829
:CTO001: CHARGE SPHERE  1    =    56.103673

:NEC03: NUCLEAR AND ELECTRONIC CHARGE     59.00000    59.00000

PW CHANGE     H    K    L      Current       Change    Residue
:PTO001:      0    0    0  4.50043203E-02 -4.902E-06 -8.021E-05
:PTO002:     -1   -1   -1 -1.36615936E-01  4.633E-05  4.013E-05
:PTO003:      0    0   -2  8.02895614E-02 -2.906E-06  3.767E-05
:PTO004:      0   -2   -2  6.67121197E-02 -5.046E-05 -5.731E-05
:PTO005:     -1   -1   -3 -6.01433558E-02  4.178E-05  1.315E-05
:PTO006:     -2   -2   -2  1.49548375E-02 -1.622E-05 -8.612E-06
:PTO007:      0    0   -4  1.90797305E-03  3.876E-06  1.160E-05
:PTO008:     -1   -3   -3  4.56009723E-04  3.271E-05  4.330E-05
:PTO009:      0   -2   -4 -3.04078491E-03 -2.231E-05 -3.067E-05
:PTO010:     -2   -2   -4 -7.51601664E-03 -6.683E-06 -4.518E-06
:PTO011:     -3   -3   -3  2.79075222E-03 -3.676E-06 -8.173E-06
:PTO012:     -1   -1   -5  8.15908738E-03 -2.823E-06 -4.591E-06

:ENE  : ********** TOTAL ENERGY IN Ry =       -18472.12132300

 Flat Integration
 New Mode for Coulomb Integral
 Consistent 3/8+Simpson combinations
 Extension of core to zero
 LDM version in phi
 Fifth-order quadrature in outwin


            ---------
:ITE018: 18. ITERATION
            ---------

:NATO :    1 INDEPENDENT AND    1 TOTAL ATOMS IN UNITCELL
       SUBSTANCE: blebleble                                                   

       LATTICE                      = F   
:POT  : POTENTIAL OPTION EX_LDA EC_LDA VX_LDA VC_LDA
:LAT  : LATTICE CONSTANTS=  9.78725  9.78725  9.78725    1.571    1.571    1.571
:VOL  : UNIT CELL VOLUME =     234.38096
       MODE OF CALCULATION IS       = RELA
       NON-SPINPOLARIZED CALCULATION
:IFFT  : FFT-parameters:   80   80   80 Factor: 2.00


   CONVERGENCE PARAMETER FOR PSEUDOCHARGE: NCON=  9
   MAXIMAL VALUE OF RMT(JATOM)*ABSK(NKK) : RK  =29.89674


:VKCOUL :  VK-COUL convergence: 0.208E-06
       ATOMNUMBER=  1 Pr         VCOUL-ZERO =  0.26452E+00
:FIT001: LUSE= 13 SIGMA OF V-XC FIT FOR ATOM  1  0.4372627E-04
:FIT001: LUSE= 13 SIGMA OF V-XC FIT FOR ATOM  1  0.4372627E-04
:DEN  : DENSITY INTEGRAL  =         -7072.82477727   (Ry)
       ELS_POTENTIAL_AT Z=0 and Z=0.5:  -2.51340  -2.51340
       ELS_POTENTIAL_AT Y=0 and Y=0.5:   0.00000   0.00000
:VZERO:v0,v0c,v0x  -3.49354  -2.51340  -0.98014 v5,v5c,v5x  -3.49354  -2.51340  -0.98014
:VZERY:v0,v0c,v0x  -0.72002   0.00000  -0.72002 v5,v5c,v5x  -0.72002   0.00000  -0.72002
:VZERX:v0,v0c,v0x  -0.72002   0.00000  -0.72002 v5,v5c,v5x  -0.72002   0.00000  -0.72002
:LMAX-WF:   10   Non-Spherical LMAX:   4

          ATOMIC SPHERE DEPENDENT PARAMETERS FOR ATOM  Pr        
:e__0001: OVERALL ENERGY PARAMETER IS    0.3989
          OVERALL BASIS SET ON ATOM IS LAPW
:E0_0001: E( 0)=    0.3989
             APW+lo
:E0_0001: E( 0)=   -2.0727   E(BOTTOM)=   -2.454   E(TOP)=   -1.692  4  5   174
             LOCAL ORBITAL
:E1_0001: E( 1)=    0.7989
             APW+lo
:E1_0001: E( 1)=   -0.6847   E(BOTTOM)=   -1.331   E(TOP)=   -0.038  3  4   172
             LOCAL ORBITAL
:E3_0001: E( 3)=    0.5966   E(BOTTOM)=    0.455   E(TOP)=    0.738  0  1   120
             APW+lo
:E2_0001: E( 2)=    0.3989   E(BOTTOM)=    0.244   E(TOP)= -200.000  2 -1    91
             APW+lo

       K=   0.00000   0.00000   0.00000            1
:RKM  : MATRIX SIZE   189LOs:  20  RKM= 8.34  WEIGHT= 1.00  PGR:    
       EIGENVALUES ARE:
:EIG00001:      -2.0354828   -0.6624776   -0.6624776   -0.6624776    0.3469300
:EIG00006:       0.5904571    0.6101965    0.6101965    0.6101965    0.6363787
:EIG00011:       0.6363787    0.6363787    0.7311049    0.7311049    0.7311049
:EIG00016:       0.9099630    0.9099630    1.3151228    1.5488481    1.5488481
:EIG00021:       1.5488481    1.6521355    2.3715244    2.3715244    2.3715244
:EIG00026:       2.4659021    2.4659021    2.4659021    2.6567550    2.6567550
:EIG00031:       3.0513204    3.2066944    3.2066944    3.2066944    3.6534030
:EIG00036:       3.6534030    3.8875749    3.8875749    3.8875749    3.9419246
:EIG00041:       3.9419246    3.9419246    4.0430926    4.0430926    4.0430926
:EIG00046:       4.3390978    4.3390978    4.3390978    4.3837737    4.4424957
 
:EIG00051:       4.4424957    4.5476602    4.5476602    4.5476602    4.5749899
:EIG00056:       4.5749899    4.5749899    4.6843488    4.6857835    4.8033507
:EIG00061:       4.8033507    4.8033507    4.9714128    4.9714128    4.9714128
:EIG00066:       5.2758483    6.2378790    6.2515709    6.2515709    6.6237721
:EIG00071:       6.6237721    6.6237721    7.1371333    7.1371333    7.3139373
:EIG00076:       7.3139373    7.3139373    7.3633761    7.3633761    7.3633761
:EIG00081:       7.5963903    7.5963903    7.5963903    7.6115020    7.6115020
:EIG00086:       7.7234021    7.7234021    7.7234021    7.7494514    7.7494514
:EIG00091:       7.7494514    7.8213420    7.8213420    7.8213420    7.8266291
:EIG00096:       7.8266291    7.8266291    7.9267731    7.9618016    8.0884504
 
:EIG00101:       8.0884504
       ********************************************************

:KPT   :      NUMBER OF K-POINTS:   165
   0.0   0.0 angle (M,z), angle (M,x) deg
 
        SPIN-ORBIT EIGENVALUES:
     K=   0.00000   0.00000   0.00000            1
      MATRIX SIZE=  202   WEIGHT= 1.00
     EIGENVALUES ARE:
          -2.0354828   -2.0354828   -0.8105408   -0.8105408   -0.5930562
          -0.5930562   -0.5930562   -0.5930562    0.3469300    0.3469300
           0.5864330    0.5864330    0.5995955    0.5995955    0.5995955
           0.5995955    0.6218261    0.6218261    0.6361314    0.6361314
           0.6432063    0.6432063    0.6432063    0.6432063    0.7272872
           0.7272872    0.7272872    0.7272872    0.7376089    0.7376089
           0.9103356    0.9103356    0.9103356    0.9103356    1.3151797
           1.3151797    1.5441411    1.5441411    1.5510246    1.5510246

           1.5510246    1.5510246    1.6521355    1.6521355    2.3664706
           2.3664706    2.3664706    2.3664706    2.3811269    2.3811269
           2.3915506    2.3915506    2.5039248    2.5039248    2.5039249
           2.5039249    2.6570457    2.6570457    2.6570457    2.6570457
           3.0513204    3.0513204    3.2062702    3.2062702    3.2069191
           3.2069191    3.2069191    3.2069191    3.6533727    3.6533727
           3.6533727    3.6533727    3.8861896    3.8861896    3.8861896
           3.8861896    3.8906227    3.8906227    3.9084544    3.9084544

           3.9603165    3.9603165    3.9603165    3.9603165    4.0430833
           4.0430833    4.0430972    4.0430972    4.0430972    4.0430972
           4.3390408    4.3390408    4.3390408    4.3390408    4.3392193
           4.3392193    4.3837737    4.3837737    4.4424957    4.4424957
           4.4424957    4.4424957
       ********************************************************
:GAP (global)   :    0.0    Ry =     0.0   eV (metal)
:GAP (this spin):    0.0    Ry =     0.0   eV (metal)
         Bandranges (emin - emax) and occupancy:
:BAN00004:   4   -0.853224   -0.810541  1.00000000
:BAN00005:   5   -0.666119   -0.593056  1.00000000
:BAN00006:   6   -0.666119   -0.593056  1.00000000
:BAN00007:   7   -0.640275   -0.593056  1.00000000
:BAN00008:   8   -0.640275   -0.593056  1.00000000
:BAN00009:   9    0.346930    0.568561  1.00000000
:BAN00010:  10    0.346930    0.568561  1.00000000
:BAN00011:  11    0.517636    0.597315  1.00000000
:BAN00012:  12    0.517636    0.597315  1.00000000
:BAN00013:  13    0.584698    0.604140  0.50000004
:BAN00014:  14    0.584698    0.604140  0.49999996
:BAN00015:  15    0.599595    0.610005  0.00000000
:BAN00016:  16    0.599595    0.610005  0.00000000
:BAN00017:  17    0.605043    0.628483  0.00000000
:BAN00018:  18    0.605043    0.628483  0.00000000
:BAN00019:  19    0.623443    0.636131  0.00000000
        Energy to separate low and high energystates:    0.29693


:NOE  : NUMBER OF ELECTRONS          =   13.000

:FER  : F E R M I - ENERGY(TETRAH.M.)=   0.5984110482
:GMA  : POTENTIAL AND CHARGE CUT-OFF  12.00 Ry**.5

:POS001: ATOM    1 X,Y,Z = 0.00000 0.00000 0.50000  MULT= 1  ZZ= 59.000  Pr        

       LMMAX  5
       LM=   0 0  4 0  4 4  6 0  6 4

:CHA001: TOTAL VALENCE CHARGE INSIDE SPHERE   1 =  10.1073    (RMT=  2.5000 )
:PCS001: PARTIAL CHARGES SPHERE =  1 S,P,D,F,      D-EG,D-T2G 
:QTL001: 2.0313 5.3468 0.6394 2.0894 0.0000 0.0000 0.0000 0.2301 0.4093 0.0000 0.0000 0.0000
        Q-s-low E-s-low   Q-p-low E-p-low   Q-d-low E-d-low   Q-f-low E-f-low
:EPL001:  1.9255 -2.0230    5.2770 -0.7061    0.0016 -0.6921    0.0005 -0.6914
        Q-s-hi  E-s-hi    Q-p-hi  E-p-hi    Q-d-hi  E-d-hi    Q-f-hi  E-f-hi 
:EPH001:  0.1058  0.4962    0.0698  0.5342    0.6378  0.5443    2.0890  0.5843

:CHA  : TOTAL VALENCE CHARGE INSIDE UNIT CELL =      13.000000

:SUM  : SUM OF EIGENVALUES =          -5.504071107


        1.ATOM      Pr                   14 CORE STATES
:1S 001: 1S               -3067.001116623 Ry
:2S 001: 2S                -492.753049864 Ry
:2PP001: 2P*               -465.852439337 Ry
:2P 001: 2P                -430.454857947 Ry
:3S 001: 3S                -105.840690283 Ry
:3PP001: 3P*                -94.378668517 Ry
:3P 001: 3P                 -87.370695161 Ry
:3DD001: 3D*                -67.298089640 Ry
:3D 001: 3D                 -65.786478252 Ry
:4S 001: 4S                 -20.516058767 Ry
:4PP001: 4P*                -16.222858062 Ry
:4P 001: 4P                 -14.695428167 Ry
:4DD001: 4D*                 -7.628398642 Ry
:4D 001: 4D                  -7.358989957 Ry
:CINT001 Core Integral Atom   1   45.999518

       DENSITY AT NUCLEUS
        JATOM        VALENCE       SEMI-CORE          CORE           TOTAL
:RTO001:   1      651.566336        0.000000   656825.133845   657476.700181
     
       CHARGES OF NEW CHARGE DENSITY
:NTO   : INTERSTITIAL CHARGE =     2.892742
:NPC   : PW Pseudocharge     =     7.650664
:NTO001: CHARGE SPHERE  1    =    56.106775

:NEC01: NUCLEAR AND ELECTRONIC CHARGE     59.00000    58.99952
     
       CHARGES OF OLD CHARGE DENSITY
:OTO   : INTERSTITIAL CHARGE =     2.896327
:OPC   : PW Pseudocharge     =     7.651829
:OTO001: CHARGE SPHERE  1    =    56.103673

:NEC02: NUCLEAR AND ELECTRONIC CHARGE     59.00000    59.00000
     
       CONVERGENCE TEST
:DTO001: DIFFERENCE IN SPHERE  1 =  0.0060309

:DIS  :  CHARGE DISTANCE       ( 0.0060309 for atom    1 spin 1)      0.0060309
 PW Mixed is           53
 
******************************************************
* MULTISECANT MIXING VER9 RELEASE 10.4.0              *
* Standard Mode with controls                        *
* Fixed density scale                                *
* Regularization       1.000E-04                     *
* Trust Upper Limit    5.000E+00                     *
* Max Number of Memory Steps    8                    *
******************************************************
 
:PWTMP   1.6893E+02  1.2500E+02  2.3438E+02
:PLANE:  PW TOTAL      3.0686 DISTAN   7.37E-04  2.40E-02 %
:CHARG:  CLM/ATOM    977.1858 DISTAN   1.17E-02  1.20E-03 %
 
Step History
        DMIX         DMIXT        Red     Pred      Trust     Lambda    MagRel    MagAbs     Beta
  1   3.5000E-02   3.5000E-02 -1.00E+00  1.00E+00 -1.00E+01  1.00E+00  3.50E-02  3.50E-02  1.00E+00
  2   1.4504E-01   1.4504E-01  1.24E+00  1.00E+00 -1.00E+01  1.00E+00  1.45E-01  3.06E-02  1.00E+00
  3   5.8017E-02   5.8017E-02  3.10E-01  3.29E-01  3.00E+00  3.00E+00  5.20E-02  1.36E-02  8.00E-01
  4   1.4504E-01   1.4504E-01  4.80E-01  2.51E-01  1.27E+00  3.00E+00  4.08E-01  3.29E-02  1.00E+00
  5   1.3610E-01   1.3610E-01 -1.00E+00  1.34E-01  1.69E+00  1.00E+00  5.39E-01  2.09E-02  1.00E+00
:JACOBIANS    4.725E-03   1.053E+00
  
:NORMS:  1/Froebius, Min, Max, Used   0.5191E+00  0.4072E+00  0.9753E+00  0.6114E+00
:INFO :  Number of Memory Steps    4 Skipping    0
:INFO :  SLambda=    1.8116137665  Max    1.8116137665
:PREDicted Charge, CTotal, PW Trust    1.128E-04   1.128E-04   3.516E-04
:PREDicted DMix, Beta, BLim   3.5180E-01  1.2354E+00  8.2592E-01

Eigenvalues, unscaled except for SY+YY
   #     SY Real        SY Imag          SS             YY         SY+YY Real      SY+YY Imag
   1   1.105305E+00   0.000000E+00   1.065161E+00   2.849794E+00   3.364933E+00   0.000000E+00
   2   1.819610E-01   0.000000E+00   1.258819E-02   1.149245E+00   2.966140E+00   0.000000E+00
   3   5.794285E-06   0.000000E+00   2.674105E-04   9.172172E-04   5.395002E-05   0.000000E+00
   4   4.414150E-04   0.000000E+00   6.776643E-07   4.381748E-05   1.712772E-03   0.000000E+00
 
:INFO :  Singular value  3.366E+00 Weight  1.000E+00 Projection -6.140E-03
:INFO :  Singular value  2.965E+00 Weight  1.000E+00 Projection  1.564E-03
:INFO :  Singular value  1.769E-03 Weight  9.747E-01 Projection  2.776E-01
:INFO :  Singular value  5.223E-05 Weight  3.250E-02 Projection -1.620E-04
:RANK :  ACTIVE   3.01/4  =  75.18 % ; YY RANK   2.94/4  =  73.38 %
 
:BLIM :  VZERO Control Off
:TRUST:  Step 2.26E+00  Charge 5.45E-02 (e) CTO  1.82E-01 (e) PW  2.55E-01 (e)
:DIRM :  MEMORY  4/8  SCALE   1.000 RED  0.30 PRED  0.13 NEXT  0.11 
:TRAVE:  Charge 1.44E-03 (e) CTO  1.44E-03 (e) PW  2.12E-03 (e)
:DIRP :  |MSR1|= 2.919E-04 |PRATT|= 7.366E-04 ANGLE=  66.0 DEGREES
:DIRQ :  |MSR1|= 6.481E-03 |PRATT|= 1.172E-02 ANGLE=  29.5 DEGREES
:DIRT :  |MSR1|= 6.487E-03 |PRATT|= 1.174E-02 ANGLE=  29.7 DEGREES
:MIX  :   MSE1   REGULARIZATION:  2.85E-04 GREED: 0.23731  Newton 1.00  0.5524                
     
       CHARGES OF MIXED CHARGE DENSITY
:CTO   : INTERSTITIAL CHARGE =     2.896278
:CPC   : PW Pseudocharge     =     7.652476
:CTO001: CHARGE SPHERE  1    =    56.103722

:NEC03: NUCLEAR AND ELECTRONIC CHARGE     59.00000    59.00000

PW CHANGE     H    K    L      Current       Change    Residue
:PTO001:      0    0    0  4.50068726E-02  2.552E-06 -1.275E-05
:PTO002:     -1   -1   -1 -1.36624901E-01 -8.966E-06 -1.958E-05
:PTO003:      0    0   -2  8.03002085E-02  1.065E-05  2.396E-05
:PTO004:      0   -2   -2  6.67102741E-02 -1.846E-06  1.771E-06
:PTO005:     -1   -1   -3 -6.01397180E-02  3.638E-06 -5.460E-06
:PTO006:     -2   -2   -2  1.49557611E-02  9.235E-07  5.627E-06
:PTO007:      0    0   -4  1.90578308E-03 -2.190E-06 -2.403E-06
:PTO008:     -1   -3   -3  4.64584705E-04  8.575E-06  9.945E-06
:PTO009:      0   -2   -4 -3.05340480E-03 -1.262E-05 -1.774E-05
:PTO010:     -2   -2   -4 -7.51853425E-03 -2.518E-06 -1.814E-06
:PTO011:     -3   -3   -3  2.78858186E-03 -2.170E-06 -4.048E-06
:PTO012:     -1   -1   -5  8.16572475E-03  6.637E-06  1.018E-05

:ENE  : ********** TOTAL ENERGY IN Ry =       -18472.12129876

 Flat Integration
 New Mode for Coulomb Integral
 Consistent 3/8+Simpson combinations
 Extension of core to zero
 LDM version in phi
 Fifth-order quadrature in outwin


            ---------
:ITE019: 19. ITERATION
            ---------

:NATO :    1 INDEPENDENT AND    1 TOTAL ATOMS IN UNITCELL
       SUBSTANCE: blebleble                                                   

       LATTICE                      = F   
:POT  : POTENTIAL OPTION EX_LDA EC_LDA VX_LDA VC_LDA
:LAT  : LATTICE CONSTANTS=  9.78725  9.78725  9.78725    1.571    1.571    1.571
:VOL  : UNIT CELL VOLUME =     234.38096
       MODE OF CALCULATION IS       = RELA
       NON-SPINPOLARIZED CALCULATION
:IFFT  : FFT-parameters:   80   80   80 Factor: 2.00


   CONVERGENCE PARAMETER FOR PSEUDOCHARGE: NCON=  9
   MAXIMAL VALUE OF RMT(JATOM)*ABSK(NKK) : RK  =29.89674


:VKCOUL :  VK-COUL convergence: 0.207E-06
       ATOMNUMBER=  1 Pr         VCOUL-ZERO =  0.26454E+00
:FIT001: LUSE= 13 SIGMA OF V-XC FIT FOR ATOM  1  0.4338048E-04
:FIT001: LUSE= 13 SIGMA OF V-XC FIT FOR ATOM  1  0.4338048E-04
:DEN  : DENSITY INTEGRAL  =         -7072.85300561   (Ry)
       ELS_POTENTIAL_AT Z=0 and Z=0.5:  -2.51351  -2.51351
       ELS_POTENTIAL_AT Y=0 and Y=0.5:   0.00000   0.00000
:VZERO:v0,v0c,v0x  -3.49372  -2.51351  -0.98022 v5,v5c,v5x  -3.49372  -2.51351  -0.98022
:VZERY:v0,v0c,v0x  -0.72002   0.00000  -0.72002 v5,v5c,v5x  -0.72002   0.00000  -0.72002
:VZERX:v0,v0c,v0x  -0.72002   0.00000  -0.72002 v5,v5c,v5x  -0.72002   0.00000  -0.72002
:LMAX-WF:   10   Non-Spherical LMAX:   4

          ATOMIC SPHERE DEPENDENT PARAMETERS FOR ATOM  Pr        
:e__0001: OVERALL ENERGY PARAMETER IS    0.3986
          OVERALL BASIS SET ON ATOM IS LAPW
:E0_0001: E( 0)=    0.3986
             APW+lo
:E0_0001: E( 0)=   -2.0726   E(BOTTOM)=   -2.454   E(TOP)=   -1.691  4  5   174
             LOCAL ORBITAL
:E1_0001: E( 1)=    0.7986
             APW+lo
:E1_0001: E( 1)=   -0.6846   E(BOTTOM)=   -1.331   E(TOP)=   -0.038  3  4   173
             LOCAL ORBITAL
:E3_0001: E( 3)=    0.5969   E(BOTTOM)=    0.455   E(TOP)=    0.738  0  1   124
             APW+lo
:E2_0001: E( 2)=    0.3986   E(BOTTOM)=    0.244   E(TOP)= -200.000  2 -1    87
             APW+lo

       K=   0.00000   0.00000   0.00000            1
:RKM  : MATRIX SIZE   189LOs:  20  RKM= 8.34  WEIGHT= 1.00  PGR:    
       EIGENVALUES ARE:
:EIG00001:      -2.0353576   -0.6623754   -0.6623754   -0.6623754    0.3469680
:EIG00006:       0.5907398    0.6104003    0.6104003    0.6104003    0.6366448
:EIG00011:       0.6366448    0.6366448    0.7311581    0.7311581    0.7311581
:EIG00016:       0.9100087    0.9100087    1.3151954    1.5488936    1.5488936
:EIG00021:       1.5488936    1.6521648    2.3716089    2.3716089    2.3716089
:EIG00026:       2.4659593    2.4659593    2.4659593    2.6568046    2.6568046
:EIG00031:       3.0513680    3.2067284    3.2067284    3.2067284    3.6534710
:EIG00036:       3.6534710    3.8876388    3.8876388    3.8876388    3.9419657
:EIG00041:       3.9419657    3.9419657    4.0431265    4.0431265    4.0431265
:EIG00046:       4.3391293    4.3391293    4.3391293    4.3838310    4.4425185
 
:EIG00051:       4.4425185    4.5476810    4.5476810    4.5476810    4.5750121
:EIG00056:       4.5750121    4.5750121    4.6843871    4.6858048    4.8033767
:EIG00061:       4.8033767    4.8033767    4.9714350    4.9714350    4.9714350
:EIG00066:       5.2758731    6.2379317    6.2516304    6.2516304    6.6238050
:EIG00071:       6.6238050    6.6238050    7.1372498    7.1372498    7.3140428
:EIG00076:       7.3140428    7.3140428    7.3634417    7.3634417    7.3634417
:EIG00081:       7.5964322    7.5964322    7.5964322    7.6115319    7.6115319
:EIG00086:       7.7234441    7.7234441    7.7234441    7.7495554    7.7495554
:EIG00091:       7.7495554    7.8213806    7.8213806    7.8213806    7.8266876
:EIG00096:       7.8266876    7.8266876    7.9268204    7.9618252    8.0884901
 
:EIG00101:       8.0884901
       ********************************************************

:KPT   :      NUMBER OF K-POINTS:   165
   0.0   0.0 angle (M,z), angle (M,x) deg
 
        SPIN-ORBIT EIGENVALUES:
     K=   0.00000   0.00000   0.00000            1
      MATRIX SIZE=  202   WEIGHT= 1.00
     EIGENVALUES ARE:
          -2.0353576   -2.0353576   -0.8104333   -0.8104333   -0.5929564
          -0.5929564   -0.5929564   -0.5929564    0.3469680    0.3469680
           0.5867155    0.5867155    0.5998076    0.5998076    0.5998076
           0.5998076    0.6220284    0.6220284    0.6363980    0.6363980
           0.6434646    0.6434646    0.6434647    0.6434647    0.7273407
           0.7273407    0.7273407    0.7273407    0.7376615    0.7376615
           0.9103812    0.9103812    0.9103812    0.9103812    1.3152523
           1.3152523    1.5441872    1.5441872    1.5510699    1.5510699

           1.5510699    1.5510699    1.6521648    1.6521648    2.3665555
           2.3665555    2.3665555    2.3665555    2.3812105    2.3812105
           2.3916088    2.3916088    2.5039815    2.5039815    2.5039815
           2.5039815    2.6570952    2.6570952    2.6570952    2.6570952
           3.0513680    3.0513680    3.2063040    3.2063040    3.2069531
           3.2069531    3.2069531    3.2069531    3.6534407    3.6534407
           3.6534407    3.6534407    3.8862536    3.8862536    3.8862536
           3.8862536    3.8906864    3.8906864    3.9084951    3.9084951

           3.9603577    3.9603577    3.9603577    3.9603577    4.0431173
           4.0431173    4.0431312    4.0431312    4.0431312    4.0431312
           4.3390722    4.3390722    4.3390722    4.3390722    4.3392508
           4.3392508    4.3838310    4.3838310    4.4425185    4.4425185
           4.4425185    4.4425185
       ********************************************************
:GAP (global)   :    0.0    Ry =     0.0   eV (metal)
:GAP (this spin):    0.0    Ry =     0.0   eV (metal)
         Bandranges (emin - emax) and occupancy:
:BAN00004:   4   -0.853122   -0.810433  1.00000000
:BAN00005:   5   -0.666027   -0.592956  1.00000000
:BAN00006:   6   -0.666027   -0.592956  1.00000000
:BAN00007:   7   -0.640180   -0.592956  1.00000000
:BAN00008:   8   -0.640180   -0.592956  1.00000000
:BAN00009:   9    0.346968    0.568671  1.00000000
:BAN00010:  10    0.346968    0.568671  1.00000000
:BAN00011:  11    0.517680    0.597553  1.00000000
:BAN00012:  12    0.517680    0.597553  1.00000000
:BAN00013:  13    0.584859    0.604394  0.50000005
:BAN00014:  14    0.584859    0.604394  0.49999995
:BAN00015:  15    0.599808    0.610225  0.00000000
:BAN00016:  16    0.599808    0.610225  0.00000000
:BAN00017:  17    0.605273    0.628751  0.00000000
:BAN00018:  18    0.605273    0.628751  0.00000000
:BAN00019:  19    0.623600    0.636398  0.00000000
        Energy to separate low and high energystates:    0.29697


:NOE  : NUMBER OF ELECTRONS          =   13.000

:FER  : F E R M I - ENERGY(TETRAH.M.)=   0.5986321659
:GMA  : POTENTIAL AND CHARGE CUT-OFF  12.00 Ry**.5

:POS001: ATOM    1 X,Y,Z = 0.00000 0.00000 0.50000  MULT= 1  ZZ= 59.000  Pr        

       LMMAX  5
       LM=   0 0  4 0  4 4  6 0  6 4

:CHA001: TOTAL VALENCE CHARGE INSIDE SPHERE   1 =  10.1049    (RMT=  2.5000 )
:PCS001: PARTIAL CHARGES SPHERE =  1 S,P,D,F,      D-EG,D-T2G 
:QTL001: 2.0313 5.3469 0.6404 2.0859 0.0000 0.0000 0.0000 0.2304 0.4100 0.0000 0.0000 0.0000
        Q-s-low E-s-low   Q-p-low E-p-low   Q-d-low E-d-low   Q-f-low E-f-low
:EPL001:  1.9255 -2.0228    5.2769 -0.7060    0.0016 -0.6920    0.0005 -0.6913
        Q-s-hi  E-s-hi    Q-p-hi  E-p-hi    Q-d-hi  E-d-hi    Q-f-hi  E-f-hi 
:EPH001:  0.1058  0.4963    0.0699  0.5344    0.6388  0.5445    2.0854  0.5845

:CHA  : TOTAL VALENCE CHARGE INSIDE UNIT CELL =      13.000000

:SUM  : SUM OF EIGENVALUES =          -5.502600709


        1.ATOM      Pr                   14 CORE STATES
:1S 001: 1S               -3067.000119356 Ry
:2S 001: 2S                -492.752195435 Ry
:2PP001: 2P*               -465.851554263 Ry
:2P 001: 2P                -430.453984341 Ry
:3S 001: 3S                -105.840075050 Ry
:3PP001: 3P*                -94.378040451 Ry
:3P 001: 3P                 -87.370079926 Ry
:3DD001: 3D*                -67.297441820 Ry
:3D 001: 3D                 -65.785834984 Ry
:4S 001: 4S                 -20.515674225 Ry
:4PP001: 4P*                -16.222480472 Ry
:4P 001: 4P                 -14.695063886 Ry
:4DD001: 4D*                 -7.628054660 Ry
:4D 001: 4D                  -7.358650344 Ry
:CINT001 Core Integral Atom   1   45.999518

       DENSITY AT NUCLEUS
        JATOM        VALENCE       SEMI-CORE          CORE           TOTAL
:RTO001:   1      651.563550        0.000000   656825.059616   657476.623166
     
       CHARGES OF NEW CHARGE DENSITY
:NTO   : INTERSTITIAL CHARGE =     2.895128
:NPC   : PW Pseudocharge     =     7.651666
:NTO001: CHARGE SPHERE  1    =    56.104389

:NEC01: NUCLEAR AND ELECTRONIC CHARGE     59.00000    58.99952
     
       CHARGES OF OLD CHARGE DENSITY
:OTO   : INTERSTITIAL CHARGE =     2.896278
:OPC   : PW Pseudocharge     =     7.652476
:OTO001: CHARGE SPHERE  1    =    56.103722

:NEC02: NUCLEAR AND ELECTRONIC CHARGE     59.00000    59.00000
     
       CONVERGENCE TEST
:DTO001: DIFFERENCE IN SPHERE  1 =  0.0012517

:DIS  :  CHARGE DISTANCE       ( 0.0012517 for atom    1 spin 1)      0.0012517
 PW Mixed is           53
 
******************************************************
* MULTISECANT MIXING VER9 RELEASE 10.4.0              *
* Standard Mode with controls                        *
* Fixed density scale                                *
* Regularization       1.000E-04                     *
* Trust Upper Limit    5.000E+00                     *
* Max Number of Memory Steps    8                    *
******************************************************
 
:PWTMP   1.6893E+02  1.2500E+02  2.3438E+02
:PLANE:  PW TOTAL      3.0688 DISTAN   2.81E-04  9.15E-03 %
:CHARG:  CLM/ATOM    977.1863 DISTAN   2.55E-03  2.61E-04 %
 
Step History
        DMIX         DMIXT        Red     Pred      Trust     Lambda    MagRel    MagAbs     Beta
  1   3.5000E-02   3.5000E-02 -1.00E+00  1.00E+00 -1.00E+01  1.00E+00  3.50E-02  3.50E-02  1.00E+00
  2   1.4504E-01   1.4504E-01  1.24E+00  1.00E+00 -1.00E+01  1.00E+00  1.45E-01  3.06E-02  1.00E+00
  3   5.8017E-02   5.8017E-02  3.10E-01  3.29E-01  3.00E+00  3.00E+00  5.20E-02  1.36E-02  8.00E-01
  4   1.4504E-01   1.4504E-01  4.80E-01  2.51E-01  1.27E+00  3.00E+00  4.08E-01  3.29E-02  1.00E+00
  5   1.3610E-01   1.3610E-01  3.03E-01  1.34E-01  1.69E+00  1.81E+00  5.39E-01  2.09E-02  1.00E+00
  6   2.3731E-01   2.3731E-01 -1.00E+00  1.07E-01  2.26E+00  1.00E+00  5.52E-01  6.49E-03  1.00E+00
:JACOBIANS    6.252E-03   1.349E+00
  
:NORMS:  1/Froebius, Min, Max, Used   0.5823E+00  0.4539E+00  0.1094E+01  0.6993E+00
:INFO :  Number of Memory Steps    5 Skipping    0
:INFO :  SLambda=    1.5304827712  Max    1.5304827712
:PREDicted Charge, CTotal, PW Trust    5.702E-05   5.702E-05   4.370E-04
:PREDicted DMix, Beta, BLim   4.7223E-02  1.2740E+00  7.9449E-01

Eigenvalues, unscaled except for SY+YY
   #     SY Real        SY Imag          SS             YY         SY+YY Real      SY+YY Imag
   1   1.624582E+00   0.000000E+00   1.561873E+00   3.194024E+00   4.628998E+00   0.000000E+00
   2   2.424876E-01   0.000000E+00   1.219606E-01   1.523195E+00   2.888275E+00   0.000000E+00
   3   1.338365E-01   0.000000E+00   1.143908E-02   2.827329E-01   5.450322E-01   0.000000E+00
   4   5.889700E-06   0.000000E+00   1.106812E-06   4.066938E-05   4.929009E-05   0.000000E+00
   5   2.350194E-06   0.000000E+00   6.223546E-07   7.013426E-06   1.138016E-05   0.000000E+00
 
:INFO :  Singular value  4.629E+00 Weight  1.000E+00 Projection -1.442E-03
:INFO :  Singular value  2.888E+00 Weight  1.000E+00 Projection  1.651E-04
:INFO :  Singular value  5.450E-01 Weight  1.000E+00 Projection -2.433E-03
:INFO :  Singular value  4.934E-05 Weight  2.330E-02 Projection -5.151E-04
:INFO :  Singular value  1.137E-05 Weight  1.265E-03 Projection -1.970E-04
:RANK :  ACTIVE   3.02/5  =  60.49 % ; YY RANK   3.02/5  =  60.33 %
 
:BLIM :  VZERO Control Off
:TRUST:  Step 3.01E+00  Charge 4.36E-02 (e) CTO  1.45E-01 (e) PW  2.04E-01 (e)
:DIRM :  MEMORY  5/8  SCALE   1.000 RED  0.22 PRED  0.11 NEXT  0.19 
:TRAVE:  Charge 7.33E-04 (e) CTO  7.33E-04 (e) PW  1.12E-03 (e)
:DIRP :  |MSR1|= 1.138E-04 |PRATT|= 2.807E-04 ANGLE=  34.6 DEGREES
:DIRQ :  |MSR1|= 1.836E-03 |PRATT|= 2.550E-03 ANGLE=  25.8 DEGREES
:DIRT :  |MSR1|= 1.839E-03 |PRATT|= 2.566E-03 ANGLE=  26.0 DEGREES
:MIX  :   MSE1   REGULARIZATION:  3.19E-04 GREED: 0.11364  Newton 1.00  0.7169                
     
       CHARGES OF MIXED CHARGE DENSITY
:CTO   : INTERSTITIAL CHARGE =     2.896255
:CPC   : PW Pseudocharge     =     7.652749
:CTO001: CHARGE SPHERE  1    =    56.103745

:NEC03: NUCLEAR AND ELECTRONIC CHARGE     59.00000    59.00000

PW CHANGE     H    K    L      Current       Change    Residue
:PTO001:      0    0    0  4.50079367E-02  1.064E-06 -8.529E-07
:PTO002:     -1   -1   -1 -1.36629423E-01 -4.521E-06 -1.346E-05
:PTO003:      0    0   -2  8.03043368E-02  4.128E-06  1.066E-05
:PTO004:      0   -2   -2  6.67108537E-02  5.796E-07  5.206E-06
:PTO005:     -1   -1   -3 -6.01397393E-02 -2.125E-08 -6.194E-06
:PTO006:     -2   -2   -2  1.49563533E-02  5.922E-07  2.532E-06
:PTO007:      0    0   -4  1.90510473E-03 -6.784E-07 -5.621E-07
:PTO008:     -1   -3   -3  4.67156915E-04  2.572E-06  3.542E-06
:PTO009:      0   -2   -4 -3.05729195E-03 -3.887E-06 -5.566E-06
:PTO010:     -2   -2   -4 -7.51941790E-03 -8.836E-07 -1.454E-06
:PTO011:     -3   -3   -3  2.78798328E-03 -5.986E-07 -7.505E-07
:PTO012:     -1   -1   -5  8.16791588E-03  2.191E-06  3.491E-06

:ENE  : ********** TOTAL ENERGY IN Ry =       -18472.12129532

 Flat Integration
 New Mode for Coulomb Integral
 Consistent 3/8+Simpson combinations
 Extension of core to zero
 LDM version in phi
 Fifth-order quadrature in outwin


            ---------
:ITE020: 20. ITERATION
            ---------

:NATO :    1 INDEPENDENT AND    1 TOTAL ATOMS IN UNITCELL
       SUBSTANCE: blebleble                                                   

       LATTICE                      = F   
:POT  : POTENTIAL OPTION EX_LDA EC_LDA VX_LDA VC_LDA
:LAT  : LATTICE CONSTANTS=  9.78725  9.78725  9.78725    1.571    1.571    1.571
:VOL  : UNIT CELL VOLUME =     234.38096
       MODE OF CALCULATION IS       = RELA
       NON-SPINPOLARIZED CALCULATION
:IFFT  : FFT-parameters:   80   80   80 Factor: 2.00


   CONVERGENCE PARAMETER FOR PSEUDOCHARGE: NCON=  9
   MAXIMAL VALUE OF RMT(JATOM)*ABSK(NKK) : RK  =29.89674


:VKCOUL :  VK-COUL convergence: 0.206E-06
       ATOMNUMBER=  1 Pr         VCOUL-ZERO =  0.26455E+00
:FIT001: LUSE= 13 SIGMA OF V-XC FIT FOR ATOM  1  0.4328280E-04
:FIT001: LUSE= 13 SIGMA OF V-XC FIT FOR ATOM  1  0.4328280E-04
:DEN  : DENSITY INTEGRAL  =         -7072.86119479   (Ry)
       ELS_POTENTIAL_AT Z=0 and Z=0.5:  -2.51355  -2.51355
       ELS_POTENTIAL_AT Y=0 and Y=0.5:   0.00000   0.00000
:VZERO:v0,v0c,v0x  -3.49379  -2.51355  -0.98024 v5,v5c,v5x  -3.49379  -2.51355  -0.98024
:VZERY:v0,v0c,v0x  -0.72003   0.00000  -0.72003 v5,v5c,v5x  -0.72003   0.00000  -0.72003
:VZERX:v0,v0c,v0x  -0.72003   0.00000  -0.72003 v5,v5c,v5x  -0.72003   0.00000  -0.72003
:LMAX-WF:   10   Non-Spherical LMAX:   4

          ATOMIC SPHERE DEPENDENT PARAMETERS FOR ATOM  Pr        
:e__0001: OVERALL ENERGY PARAMETER IS    0.3986
[...]
:4D 001: 4D                  -7.358561026 Ry
:CINT001 Core Integral Atom   1   45.999518

       DENSITY AT NUCLEUS
        JATOM        VALENCE       SEMI-CORE          CORE           TOTAL
:RTO001:   1      651.562911        0.000000   656825.034596   657476.597507
     
       CHARGES OF NEW CHARGE DENSITY
:NTO   : INTERSTITIAL CHARGE =     2.895729
:NPC   : PW Pseudocharge     =     7.651917
:NTO001: CHARGE SPHERE  1    =    56.103788

:NEC01: NUCLEAR AND ELECTRONIC CHARGE     59.00000    58.99952
     
       CHARGES OF OLD CHARGE DENSITY
:OTO   : INTERSTITIAL CHARGE =     2.896255
:OPC   : PW Pseudocharge     =     7.652749
:OTO001: CHARGE SPHERE  1    =    56.103745

:NEC02: NUCLEAR AND ELECTRONIC CHARGE     59.00000    59.00000
     
       CONVERGENCE TEST
:DTO001: DIFFERENCE IN SPHERE  1 =  0.0003045

:DIS  :  CHARGE DISTANCE       ( 0.0003045 for atom    1 spin 1)      0.0003045
 PW Mixed is           53
 
******************************************************
* MULTISECANT MIXING VER9 RELEASE 10.4.0              *
* Standard Mode with controls                        *
* Fixed density scale                                *
* Regularization       1.000E-04                     *
* Trust Upper Limit    5.000E+00                     *
* Max Number of Memory Steps    8                    *
******************************************************
 
:PWTMP   1.6893E+02  1.2500E+02  2.3438E+02
:PLANE:  PW TOTAL      3.0689 DISTAN   1.95E-04  6.36E-03 %
:CHARG:  CLM/ATOM    977.1865 DISTAN   3.92E-04  4.02E-05 %
 
Step History
        DMIX         DMIXT        Red     Pred      Trust     Lambda    MagRel    MagAbs     Beta
  1   3.5000E-02   3.5000E-02 -1.00E+00  1.00E+00 -1.00E+01  1.00E+00  3.50E-02  3.50E-02  1.00E+00
  2   1.4504E-01   1.4504E-01  1.24E+00  1.00E+00 -1.00E+01  1.00E+00  1.45E-01  3.06E-02  1.00E+00
  3   5.8017E-02   5.8017E-02  3.10E-01  3.29E-01  3.00E+00  3.00E+00  5.20E-02  1.36E-02  8.00E-01
  4   1.4504E-01   1.4504E-01  4.80E-01  2.51E-01  1.27E+00  3.00E+00  4.08E-01  3.29E-02  1.00E+00
  5   1.3610E-01   1.3610E-01  3.03E-01  1.34E-01  1.69E+00  1.81E+00  5.39E-01  2.09E-02  1.00E+00
  6   2.3731E-01   2.3731E-01  2.18E-01  1.07E-01  2.26E+00  1.53E+00  5.52E-01  6.49E-03  1.00E+00
  7   1.1364E-01   1.1364E-01 -1.00E+00  1.89E-01  3.01E+00  1.00E+00  7.17E-01  1.84E-03  1.00E+00
:JACOBIANS    2.642E-02   1.573E+00
  
:NORMS:  1/Froebius, Min, Max, Used   0.6108E+00  0.5029E+00  0.9638E+00  0.7314E+00
:INFO :  Number of Memory Steps    6 Skipping    0
:INFO :  SLambda=    1.9882767631  Max    1.9882767631
:PREDicted Charge, CTotal, PW Trust    6.535E-05   6.535E-05   2.618E-04
:PREDicted DMix, Beta, BLim   2.8319E-01  1.0070E+00  7.2709E-01

Eigenvalues, unscaled except for SY+YY
   #     SY Real        SY Imag          SS             YY         SY+YY Real      SY+YY Imag
   1   2.176884E+00   0.000000E+00   2.026878E+00   3.789232E+00   7.289438E+00   0.000000E+00
   2   3.365883E-01   0.000000E+00   1.997425E-01   1.785580E+00   3.060048E+00   0.000000E+00
   3   1.513293E-01   0.000000E+00   1.143783E-02   4.249357E-01   9.486184E-01   0.000000E+00
   4   1.642955E-04   0.000000E+00   1.267416E-04   2.125546E-04   5.456590E-04   0.000000E+00
   5   5.148201E-06   0.000000E+00   6.990708E-07   3.806288E-05   4.866831E-05   0.000000E+00
   6   3.722552E-07   0.000000E+00   1.020444E-07   1.307744E-06   2.211957E-06   0.000000E+00
 
:INFO :  Singular value  7.290E+00 Weight  1.000E+00 Projection -1.262E-05
:INFO :  Singular value  3.060E+00 Weight  1.000E+00 Projection  7.832E-05
:INFO :  Singular value  9.486E-01 Weight  1.000E+00 Projection -7.105E-05
:INFO :  Singular value  5.471E-04 Weight  6.758E-01 Projection -1.931E-02
:INFO :  Singular value  4.860E-05 Weight  1.619E-02 Projection -5.360E-05
:INFO :  Singular value  2.209E-06 Weight  3.399E-05 Projection -1.345E-06
:RANK :  ACTIVE   3.69/6  =  61.53 % ; YY RANK   3.25/6  =  54.16 %
 
:BLIM :  VZERO Control Off
:TRUST:  Step 4.01E+00  Charge 3.49E-02 (e) CTO  1.16E-01 (e) PW  1.63E-01 (e)
:DIRM :  MEMORY  6/8  SCALE   1.000 RED  0.17 PRED  0.19 NEXT  0.32 
:TRAVE:  Charge 3.90E-04 (e) CTO  3.90E-04 (e) PW  6.28E-04 (e)
:DIRP :  |MSR1|= 1.298E-04 |PRATT|= 1.952E-04 ANGLE=   1.9 DEGREES
:DIRQ :  |MSR1|= 2.269E-04 |PRATT|= 3.924E-04 ANGLE=  11.1 DEGREES
:DIRT :  |MSR1|= 2.614E-04 |PRATT|= 4.383E-04 ANGLE=  10.3 DEGREES
:MIX  :   MSE1   REGULARIZATION:  3.79E-04 GREED: 0.21502  Newton 1.00  0.5965                
     
       CHARGES OF MIXED CHARGE DENSITY
:CTO   : INTERSTITIAL CHARGE =     2.896207
:CPC   : PW Pseudocharge     =     7.653041
:CTO001: CHARGE SPHERE  1    =    56.103793

:NEC03: NUCLEAR AND ELECTRONIC CHARGE     59.00000    59.00000

PW CHANGE     H    K    L      Current       Change    Residue
:PTO001:      0    0    0  4.50089811E-02  1.044E-06  1.716E-06
:PTO002:     -1   -1   -1 -1.36635898E-01 -6.475E-06 -9.608E-06
:PTO003:      0    0   -2  8.03083011E-02  3.964E-06  5.893E-06
:PTO004:      0   -2   -2  6.67142265E-02  3.373E-06  5.003E-06
:PTO005:     -1   -1   -3 -6.01434195E-02 -3.680E-06 -5.554E-06
:PTO006:     -2   -2   -2  1.49572391E-02  8.858E-07  1.315E-06
:PTO007:      0    0   -4  1.90516900E-03  6.428E-08  1.181E-07
:PTO008:     -1   -3   -3  4.68171700E-04  1.015E-06  1.618E-06
:PTO009:      0   -2   -4 -3.05839039E-03 -1.098E-06 -1.711E-06
:PTO010:     -2   -2   -4 -7.52017593E-03 -7.580E-07 -1.166E-06
:PTO011:     -3   -3   -3  2.78810276E-03  1.195E-07  1.775E-07
:PTO012:     -1   -1   -5  8.16867323E-03  7.573E-07  1.161E-06

:ENE  : ********** TOTAL ENERGY IN Ry =       -18472.12129475

 Flat Integration
 New Mode for Coulomb Integral
 Consistent 3/8+Simpson combinations
 Extension of core to zero
 LDM version in phi
 Fifth-order quadrature in outwin


            ---------
:ITE021: 21. ITERATION
            ---------

:NATO :    1 INDEPENDENT AND    1 TOTAL ATOMS IN UNITCELL
       SUBSTANCE: blebleble                                                   

       LATTICE                      = F   
:POT  : POTENTIAL OPTION EX_LDA EC_LDA VX_LDA VC_LDA
:LAT  : LATTICE CONSTANTS=  9.78725  9.78725  9.78725    1.571    1.571    1.571
:VOL  : UNIT CELL VOLUME =     234.38096
       MODE OF CALCULATION IS       = RELA
       NON-SPINPOLARIZED CALCULATION
:IFFT  : FFT-parameters:   80   80   80 Factor: 2.00


   CONVERGENCE PARAMETER FOR PSEUDOCHARGE: NCON=  9
   MAXIMAL VALUE OF RMT(JATOM)*ABSK(NKK) : RK  =29.89674


:VKCOUL :  VK-COUL convergence: 0.206E-06
       ATOMNUMBER=  1 Pr         VCOUL-ZERO =  0.26456E+00
:FIT001: LUSE= 13 SIGMA OF V-XC FIT FOR ATOM  1  0.4326107E-04
:FIT001: LUSE= 13 SIGMA OF V-XC FIT FOR ATOM  1  0.4326107E-04
:DEN  : DENSITY INTEGRAL  =         -7072.86284638   (Ry)
       ELS_POTENTIAL_AT Z=0 and Z=0.5:  -2.51357  -2.51357
       ELS_POTENTIAL_AT Y=0 and Y=0.5:   0.00000   0.00000
:VZERO:v0,v0c,v0x  -3.49382  -2.51357  -0.98024 v5,v5c,v5x  -3.49382  -2.51357  -0.98024
:VZERY:v0,v0c,v0x  -0.72003   0.00000  -0.72003 v5,v5c,v5x  -0.72003   0.00000  -0.72003
:VZERX:v0,v0c,v0x  -0.72003   0.00000  -0.72003 v5,v5c,v5x  -0.72003   0.00000  -0.72003
:LMAX-WF:   10   Non-Spherical LMAX:   4

          ATOMIC SPHERE DEPENDENT PARAMETERS FOR ATOM  Pr        
:e__0001: OVERALL ENERGY PARAMETER IS    0.3987
          OVERALL BASIS SET ON ATOM IS LAPW
:E0_0001: E( 0)=    0.3987
             APW+lo
:E0_0001: E( 0)=   -2.0725   E(BOTTOM)=   -2.454   E(TOP)=   -1.691  4  5   177
             LOCAL ORBITAL
:E1_0001: E( 1)=    0.7987
             APW+lo
:E1_0001: E( 1)=   -0.6845   E(BOTTOM)=   -1.331   E(TOP)=   -0.038  3  4   177
             LOCAL ORBITAL
:E3_0001: E( 3)=    0.5969   E(BOTTOM)=    0.455   E(TOP)=    0.738  0  1   120
             APW+lo
:E2_0001: E( 2)=    0.3987   E(BOTTOM)=    0.244   E(TOP)= -200.000  2 -1    85
             APW+lo

       K=   0.00000   0.00000   0.00000            1
:RKM  : MATRIX SIZE   189LOs:  20  RKM= 8.34  WEIGHT= 1.00  PGR:    
       EIGENVALUES ARE:
:EIG00001:      -2.0353101   -0.6623334   -0.6623334   -0.6623334    0.3469846
:EIG00006:       0.5908221    0.6104590    0.6104590    0.6104590    0.6367209
:EIG00011:       0.6367209    0.6367209    0.7311838    0.7311838    0.7311838
:EIG00016:       0.9100326    0.9100326    1.3152208    1.5489103    1.5489103
:EIG00021:       1.5489103    1.6521770    2.3716357    2.3716357    2.3716357
:EIG00026:       2.4659840    2.4659840    2.4659840    2.6568219    2.6568219
:EIG00031:       3.0513875    3.2067458    3.2067458    3.2067458    3.6534877
:EIG00036:       3.6534877    3.8876574    3.8876574    3.8876574    3.9419828
:EIG00041:       3.9419828    3.9419828    4.0431430    4.0431430    4.0431430
:EIG00046:       4.3391430    4.3391430    4.3391430    4.3838508    4.4425321
 
:EIG00051:       4.4425321    4.5476945    4.5476945    4.5476945    4.5750257
:EIG00056:       4.5750257    4.5750257    4.6844024    4.6858160    4.8033880
:EIG00061:       4.8033880    4.8033880    4.9714479    4.9714479    4.9714479
:EIG00066:       5.2758881    6.2379455    6.2516432    6.2516432    6.6238189
:EIG00071:       6.6238189    6.6238189    7.1372598    7.1372598    7.3140564
:EIG00076:       7.3140564    7.3140564    7.3634609    7.3634609    7.3634609
:EIG00081:       7.5964450    7.5964450    7.5964450    7.6115457    7.6115457
:EIG00086:       7.7234596    7.7234596    7.7234596    7.7495658    7.7495658
:EIG00091:       7.7495658    7.8213945    7.8213945    7.8213945    7.8266994
:EIG00096:       7.8266994    7.8266994    7.9268310    7.9618388    8.0885012
 
:EIG00101:       8.0885012
       ********************************************************

:KPT   :      NUMBER OF K-POINTS:   165
   0.0   0.0 angle (M,z), angle (M,x) deg
 
        SPIN-ORBIT EIGENVALUES:
     K=   0.00000   0.00000   0.00000            1
      MATRIX SIZE=  202   WEIGHT= 1.00
     EIGENVALUES ARE:
          -2.0353101   -2.0353101   -0.8103901   -0.8103901   -0.5929151
          -0.5929151   -0.5929150   -0.5929150    0.3469846    0.3469846
           0.5867976    0.5867976    0.5998685    0.5998685    0.5998685
           0.5998685    0.6220868    0.6220868    0.6364744    0.6364744
           0.6435386    0.6435386    0.6435386    0.6435386    0.7273665
           0.7273665    0.7273665    0.7273665    0.7376871    0.7376871
           0.9104051    0.9104051    0.9104051    0.9104051    1.3152777
           1.3152777    1.5442040    1.5442040    1.5510866    1.5510866

           1.5510866    1.5510866    1.6521770    1.6521770    2.3665822
           2.3665822    2.3665822    2.3665822    2.3812375    2.3812375
           2.3916335    2.3916335    2.5040062    2.5040062    2.5040062
           2.5040062    2.6571126    2.6571126    2.6571126    2.6571126
           3.0513875    3.0513875    3.2063215    3.2063215    3.2069705
           3.2069705    3.2069705    3.2069705    3.6534574    3.6534574
           3.6534574    3.6534574    3.8862722    3.8862722    3.8862722
           3.8862722    3.8907052    3.8907052    3.9085118    3.9085118

           3.9603751    3.9603751    3.9603751    3.9603751    4.0431338
           4.0431338    4.0431476    4.0431476    4.0431476    4.0431476
           4.3390860    4.3390860    4.3390860    4.3390860    4.3392645
           4.3392645    4.3838508    4.3838508    4.4425321    4.4425321
           4.4425321    4.4425321
       ********************************************************
:GAP (global)   :    0.0    Ry =     0.0   eV (metal)
:GAP (this spin):    0.0    Ry =     0.0   eV (metal)
         Bandranges (emin - emax) and occupancy:
:BAN00004:   4   -0.853080   -0.810390  1.00000000
:BAN00005:   5   -0.665988   -0.592915  1.00000000
:BAN00006:   6   -0.665988   -0.592915  1.00000000
:BAN00007:   7   -0.640141   -0.592915  1.00000000
:BAN00008:   8   -0.640141   -0.592915  1.00000000
:BAN00009:   9    0.346985    0.568708  1.00000000
:BAN00010:  10    0.346985    0.568708  1.00000000
:BAN00011:  11    0.517702    0.597622  1.00000000
:BAN00012:  12    0.517702    0.597622  1.00000000
:BAN00013:  13    0.584908    0.604467  0.50000004
:BAN00014:  14    0.584908    0.604467  0.49999996
:BAN00015:  15    0.599869    0.610289  0.00000000
:BAN00016:  16    0.599869    0.610289  0.00000000
:BAN00017:  17    0.605340    0.628828  0.00000000
:BAN00018:  18    0.605340    0.628828  0.00000000
:BAN00019:  19    0.623649    0.636474  0.00000000
        Energy to separate low and high energystates:    0.29698


:NOE  : NUMBER OF ELECTRONS          =   13.000

:FER  : F E R M I - ENERGY(TETRAH.M.)=   0.5986966265
:GMA  : POTENTIAL AND CHARGE CUT-OFF  12.00 Ry**.5

:POS001: ATOM    1 X,Y,Z = 0.00000 0.00000 0.50000  MULT= 1  ZZ= 59.000  Pr        

       LMMAX  5
       LM=   0 0  4 0  4 4  6 0  6 4

:CHA001: TOTAL VALENCE CHARGE INSIDE SPHERE   1 =  10.1043    (RMT=  2.5000 )
:PCS001: PARTIAL CHARGES SPHERE =  1 S,P,D,F,      D-EG,D-T2G 
:QTL001: 2.0313 5.3469 0.6407 2.0850 0.0000 0.0000 0.0000 0.2305 0.4102 0.0000 0.0000 0.0000
        Q-s-low E-s-low   Q-p-low E-p-low   Q-d-low E-d-low   Q-f-low E-f-low
:EPL001:  1.9255 -2.0228    5.2769 -0.7060    0.0016 -0.6920    0.0005 -0.6912
        Q-s-hi  E-s-hi    Q-p-hi  E-p-hi    Q-d-hi  E-d-hi    Q-f-hi  E-f-hi 
:EPH001:  0.1058  0.4963    0.0700  0.5344    0.6391  0.5445    2.0846  0.5846

:CHA  : TOTAL VALENCE CHARGE INSIDE UNIT CELL =      13.000000

:SUM  : SUM OF EIGENVALUES =          -5.502058732


        1.ATOM      Pr                   14 CORE STATES
:1S 001: 1S               -3066.999701564 Ry
:2S 001: 2S                -492.751856584 Ry
:2PP001: 2P*               -465.851198498 Ry
:2P 001: 2P                -430.453634910 Ry
:3S 001: 3S                -105.839867896 Ry
:3PP001: 3P*                -94.377826249 Ry
:3P 001: 3P                 -87.369872565 Ry
:3DD001: 3D*                -67.297216649 Ry
:3D 001: 3D                 -65.785612273 Ry
:4S 001: 4S                 -20.515568733 Ry
:4PP001: 4P*                -16.222376448 Ry
:4P 001: 4P                 -14.694963794 Ry
:4DD001: 4D*                 -7.627959110 Ry
:4D 001: 4D                  -7.358555997 Ry
:CINT001 Core Integral Atom   1   45.999518

       DENSITY AT NUCLEUS
        JATOM        VALENCE       SEMI-CORE          CORE           TOTAL
:RTO001:   1      651.563186        0.000000   656825.024989   657476.588175
     
       CHARGES OF NEW CHARGE DENSITY
:NTO   : INTERSTITIAL CHARGE =     2.895729
:NPC   : PW Pseudocharge     =     7.651902
:NTO001: CHARGE SPHERE  1    =    56.103788

:NEC01: NUCLEAR AND ELECTRONIC CHARGE     59.00000    58.99952
     
       CHARGES OF OLD CHARGE DENSITY
:OTO   : INTERSTITIAL CHARGE =     2.896207
:OPC   : PW Pseudocharge     =     7.653041
:OTO001: CHARGE SPHERE  1    =    56.103793

:NEC02: NUCLEAR AND ELECTRONIC CHARGE     59.00000    59.00000
     
       CONVERGENCE TEST
:DTO001: DIFFERENCE IN SPHERE  1 =  0.0000825

:DIS  :  CHARGE DISTANCE       ( 0.0000825 for atom    1 spin 1)      0.0000825
 PW Mixed is           53
 
******************************************************
* MULTISECANT MIXING VER9 RELEASE 10.4.0              *
* Standard Mode with controls                        *
* Fixed density scale                                *
* Regularization       1.000E-04                     *
* Trust Upper Limit    5.000E+00                     *
* Max Number of Memory Steps    8                    *
******************************************************
 
:PWTMP   1.6893E+02  1.2500E+02  2.3438E+02
:PLANE:  PW TOTAL      3.0690 DISTAN   6.09E-05  1.98E-03 %
:CHARG:  CLM/ATOM    977.1866 DISTAN   1.26E-04  1.29E-05 %
 
Step History
        DMIX         DMIXT        Red     Pred      Trust     Lambda    MagRel    MagAbs     Beta
  1   3.5000E-02   3.5000E-02 -1.00E+00  1.00E+00 -1.00E+01  1.00E+00  3.50E-02  3.50E-02  1.00E+00
  2   1.4504E-01   1.4504E-01  1.24E+00  1.00E+00 -1.00E+01  1.00E+00  1.45E-01  3.06E-02  1.00E+00
  3   5.8017E-02   5.8017E-02  3.10E-01  3.29E-01  3.00E+00  3.00E+00  5.20E-02  1.36E-02  8.00E-01
  4   1.4504E-01   1.4504E-01  4.80E-01  2.51E-01  1.27E+00  3.00E+00  4.08E-01  3.29E-02  1.00E+00
  5   1.3610E-01   1.3610E-01  3.03E-01  1.34E-01  1.69E+00  1.81E+00  5.39E-01  2.09E-02  1.00E+00
  6   2.3731E-01   2.3731E-01  2.18E-01  1.07E-01  2.26E+00  1.53E+00  5.52E-01  6.49E-03  1.00E+00
  7   1.1364E-01   1.1364E-01  1.71E-01  1.89E-01  3.01E+00  1.99E+00  7.17E-01  1.84E-03  1.00E+00
  8   2.1502E-01   2.1502E-01 -1.00E+00  3.22E-01  4.01E+00  1.00E+00  5.96E-01  2.61E-04  1.00E+00
:JACOBIANS    1.076E-01   1.936E+00
  
:NORMS:  1/Froebius, Min, Max, Used   0.6509E+00  0.4877E+00  0.9914E+00  0.7325E+00
:INFO :  Number of Memory Steps    7 Skipping    0
:INFO :  SLambda=    1.4642224549  Max    1.4642224549
:PREDicted Charge, CTotal, PW Trust    6.747E-05   6.747E-05   1.937E-04
:PREDicted DMix, Beta, BLim   7.6184E-01  1.3132E+00  2.2602E+00

Eigenvalues, unscaled except for SY+YY
   #     SY Real        SY Imag          SS             YY         SY+YY Real      SY+YY Imag
   1   2.180098E+00   0.000000E+00   2.039535E+00   3.800709E+00   6.225588E+00   0.000000E+00
   2   8.490163E-01   0.000000E+00   7.255683E-01   1.819413E+00   3.046287E+00   0.000000E+00
   3   3.451640E-01   0.000000E+00   1.903552E-01   9.669798E-01   2.088687E+00   0.000000E+00
   4   1.351716E-01   0.000000E+00   1.028490E-02   4.128575E-01   7.780117E-01   0.000000E+00
   5   5.107634E-06   0.000000E+00   7.328324E-07   3.840352E-05   4.615171E-05   0.000000E+00
   6   5.614683E-07   0.000000E+00   1.922285E-07   1.720748E-06   2.683183E-06   0.000000E+00
   7   6.454290E-09   0.000000E+00   3.813102E-09   1.654464E-08   2.375070E-08   0.000000E+00
 
:INFO :  Singular value  6.231E+00 Weight  1.000E+00 Projection  6.164E-07
:INFO :  Singular value  3.065E+00 Weight  1.000E+00 Projection  8.223E-05
:INFO :  Singular value  2.074E+00 Weight  1.000E+00 Projection  8.196E-05
:INFO :  Singular value  7.779E-01 Weight  1.000E+00 Projection  4.481E-05
:INFO :  Singular value  4.620E-05 Weight  1.456E-02 Projection -9.091E-05
:INFO :  Singular value  2.690E-06 Weight  5.011E-05 Projection -1.059E-06
:INFO :  Singular value  2.366E-08 Weight  3.875E-09 Projection  2.723E-10
:RANK :  ACTIVE   4.01/7  =  57.35 % ; YY RANK   4.01/7  =  57.29 %
 
:BLIM :  VZERO Control Off
:TRUST:  Step 5.70E+00  Charge 2.79E-02 (e) CTO  9.31E-02 (e) PW  1.30E-01 (e)
:DIRM :  MEMORY  7/8  SCALE   1.000 RED  0.32 PRED  0.32 NEXT  0.34 
:TRAVE:  Charge 2.03E-04 (e) CTO  2.03E-04 (e) PW  3.40E-04 (e)
:DIRP :  |MSR1|= 5.161E-05 |PRATT|= 6.090E-05 ANGLE=   4.5 DEGREES
:DIRQ :  |MSR1|= 8.953E-05 |PRATT|= 1.256E-04 ANGLE=  21.1 DEGREES
:DIRT :  |MSR1|= 1.033E-04 |PRATT|= 1.396E-04 ANGLE=  19.2 DEGREES
:MIX  :   MSE1   REGULARIZATION:  3.80E-04 GREED: 0.35000  Newton 1.00  0.7403                
     
       CHARGES OF MIXED CHARGE DENSITY
:CTO   : INTERSTITIAL CHARGE =     2.896191
:CPC   : PW Pseudocharge     =     7.653157
:CTO001: CHARGE SPHERE  1    =    56.103809

:NEC03: NUCLEAR AND ELECTRONIC CHARGE     59.00000    59.00000

PW CHANGE     H    K    L      Current       Change    Residue
:PTO001:      0    0    0  4.50094080E-02  4.269E-07  6.083E-07
:PTO002:     -1   -1   -1 -1.36638391E-01 -2.494E-06 -2.798E-06
:PTO003:      0    0   -2  8.03099288E-02  1.628E-06  1.865E-06
:PTO004:      0   -2   -2  6.67155527E-02  1.326E-06  1.584E-06
:PTO005:     -1   -1   -3 -6.01449552E-02 -1.536E-06 -1.900E-06
:PTO006:     -2   -2   -2  1.49575911E-02  3.520E-07  4.272E-07
:PTO007:      0    0   -4  1.90521391E-03  4.490E-08  6.205E-08
:PTO008:     -1   -3   -3  4.68655937E-04  4.842E-07  5.852E-07
:PTO009:      0   -2   -4 -3.05888885E-03 -4.985E-07 -6.011E-07
:PTO010:     -2   -2   -4 -7.52049912E-03 -3.232E-07 -3.840E-07
:PTO011:     -3   -3   -3  2.78814378E-03  4.103E-08  4.796E-08
:PTO012:     -1   -1   -5  8.16899067E-03  3.174E-07  3.985E-07

:ENE  : ********** TOTAL ENERGY IN Ry =       -18472.12129479

