
------- case.scf0 --------
 Flat Integration
 New Mode for Coulomb Integral
 Consistent 3/8+Simpson combinations
 Extension of core to zero
 LDM version in phi
 Fifth-order quadrature in outwin


            ---------
:ITE049: 49. ITERATION
            ---------

:NATO :    2 INDEPENDENT AND    4 TOTAL ATOMS IN UNITCELL
       SUBSTANCE: FeSe                                                        

       LATTICE                      = P   
:POT  : POTENTIAL OPTION EX_LDA EC_LDA VX_LDA VC_LDA
:LAT  : LATTICE CONSTANTS=  7.12881  7.12881 10.43450    1.571    1.571    1.571
:VOL  : UNIT CELL VOLUME =     530.28024
       MODE OF CALCULATION IS       = RELA
       NON-SPINPOLARIZED CALCULATION
:IFFT  : FFT-parameters:   60   60   80 Factor: 2.00


   CONVERGENCE PARAMETER FOR PSEUDOCHARGE: NCON=  9
   MAXIMAL VALUE OF RMT(JATOM)*ABSK(NKK) : RK  =25.91023


:VKCOUL :  VK-COUL convergence: 0.314E-06
       ATOMNUMBER=  1 Fe         VCOUL-ZERO =  0.22511E+00
:EFG001:                        EFG         =     0.78347   *10**21  V / m**2
                               V20  TOT/SRF=     0.67850    -0.04387
                               V22  TOT/SRF=     0.00000     0.00000
                               V22M TOT/SRF=     0.00000     0.00000
                               V21  TOT/SRF=     0.00000     0.00000
                               V21M TOT/SRF=     0.00000     0.00000

             -0.39173    0.00000    0.00000       -0.39173    0.00000    0.00000
              0.00000   -0.39173    0.00000        0.00000   -0.39173    0.00000
              0.00000    0.00000    0.78347        0.00000    0.00000    0.78347

         MAIN DIRECTIONS OF THE EFG   1.0000  0.0000  0.0000
                                      0.0000  1.0000  0.0000
                                      0.0000  0.0000  1.0000
:ANG001:  ANGLE WITH OLD X-AXIS =         0.0

:ETA001:                         ASYMM. ETA =     0.00000


       ATOMNUMBER=  2 Se         VCOUL-ZERO =  0.71133E-01
:EFG002:                        EFG         =    -5.22478   *10**21  V / m**2
                               V20  TOT/SRF=    -4.52479    -0.00138
                               V22  TOT/SRF=     0.00000     0.00000
                               V22M TOT/SRF=     0.00000     0.00000
                               V21  TOT/SRF=     0.00000     0.00000
                               V21M TOT/SRF=     0.00000     0.00000

              2.61239    0.00000    0.00000        2.61239    0.00000    0.00000
              0.00000    2.61239    0.00000        0.00000    2.61239    0.00000
              0.00000    0.00000   -5.22478        0.00000    0.00000   -5.22478

         MAIN DIRECTIONS OF THE EFG   1.0000  0.0000  0.0000
                                      0.0000  1.0000  0.0000
                                      0.0000  0.0000  1.0000
:ANG002:  ANGLE WITH OLD X-AXIS =         0.0

:ETA002:                         ASYMM. ETA =     0.00000


     HELLMANN-FEYNMAN-FORCE IN mRy/a.u. = |F|  Fx       Fy             Fz
:FHF001:   1.ATOM      0.000000000000      0.000000000000      0.000000000000      0.000000000000

     HELLMANN-FEYNMAN-FORCE IN mRy/a.u. = |F|  Fx       Fy             Fz
:FHF002:   2.ATOM   1566.069912849967      0.000000000000      0.000000000000   1566.069912849967

:FIT001: LUSE= 13 SIGMA OF V-XC FIT FOR ATOM  1  0.1869462E-02
:FIT001: LUSE= 13 SIGMA OF V-XC FIT FOR ATOM  1  0.1869462E-02
:FIT002: LUSE= 13 SIGMA OF V-XC FIT FOR ATOM  2  0.3594959E-03
:FIT002: LUSE= 13 SIGMA OF V-XC FIT FOR ATOM  2  0.3594959E-03
:DEN  : DENSITY INTEGRAL  =         -6216.20294860   (Ry)
       ELS_POTENTIAL_AT Z=0 and Z=0.5:  -0.77218   0.68116
       ELS_POTENTIAL_AT Y=0 and Y=0.5:   0.00000   0.00000
:VZERO:v0,v0c,v0x  -1.59202  -0.77218  -0.81984 v5,v5c,v5x   0.17826   0.68116  -0.50290
:VZERY:v0,v0c,v0x  -0.71362   0.00000  -0.71362 v5,v5c,v5x  -0.71362   0.00000  -0.71362
:VZERX:v0,v0c,v0x   0.10813   0.79373  -0.68560 v5,v5c,v5x   0.10813   0.79373  -0.68560

------- case.scf1 --------
:LMAX-WF:   10   Non-Spherical LMAX:   4

          ATOMIC SPHERE DEPENDENT PARAMETERS FOR ATOM  Fe        
:e__0001: OVERALL ENERGY PARAMETER IS    0.1865
          OVERALL BASIS SET ON ATOM IS LAPW
:E1_0001: E( 1)=    0.1865
             APW+lo
:E1_0001: E( 1)=   -3.5624   E(BOTTOM)=   -3.652   E(TOP)=   -3.473  1  2   140
             LOCAL ORBITAL
:E2_0001: E( 2)=    0.2328   E(BOTTOM)=   -0.116   E(TOP)=    0.582  0  1   141
             APW+lo
:E0_0001: E( 0)=    0.1865
             APW+lo

          ATOMIC SPHERE DEPENDENT PARAMETERS FOR ATOM  Se        
:e__0002: OVERALL ENERGY PARAMETER IS    0.1865
          OVERALL BASIS SET ON ATOM IS LAPW
:E2_0002: E( 2)=    0.1865
             APW+lo
:E2_0002: E( 2)=   -3.1499   E(BOTTOM)=   -3.194   E(TOP)=   -3.106  0  1   142
             LOCAL ORBITAL
:E0_0002: E( 0)=    0.5865
             APW+lo
:E0_0002: E( 0)=   -1.0200   E(BOTTOM)=   -1.622   E(TOP)= -200.000  3 -1   183
             LOCAL ORBITAL
:E1_0002: E( 1)=    0.1865
             APW+lo

       K=   0.04545   0.04545   0.07143            1
:RKM  : MATRIX SIZE   582LOs:  54  RKM= 7.97  WEIGHT= 8.00  PGR:    
       EIGENVALUES ARE:
:EIG00001:      -3.5505647   -3.5503477   -3.5419441   -3.5417274   -3.5375842
:EIG00006:      -3.5356914   -3.1402698   -3.1401545   -3.1396373   -3.1395847
:EIG00011:      -3.1390161   -3.1389944   -3.1389486   -3.1389412   -3.1381179
:EIG00016:      -3.1380921   -0.6716338   -0.5850732   -0.0391646    0.0669666
:EIG00021:       0.0767535    0.0809555    0.1425251    0.1425308    0.1470107
:EIG00026:       0.2791062    0.2888041    0.3201650    0.3298155    0.3333803
:EIG00031:       0.3734028    0.4355201    0.5117061    0.5193016    0.6052365
:EIG00036:       0.7301137    0.7983140    0.8956777    0.9057687    0.9154634
:EIG00041:       1.2583310    1.2624432    1.3074065    1.3436137    1.3530672
:EIG00046:       1.3577209    1.4103280    1.4445875    1.4574252    1.4917801
 
:EIG00051:       1.5945457    1.6057430    1.7051078    1.7385676    1.8484534
       ********************************************************

:KPT   :      NUMBER OF K-POINTS:    84

------- case.scf2 --------
:GMA  : POTENTIAL AND CHARGE CUT-OFF  12.00 Ry**.5




:POS001: at.nr.  -1 position = 0.25000 0.75000 0.00000  multiplicity =  2

       lmmax  8
       lm=   0 0  2 0 -3 2  4 0  4 4 -5 2  6 0  6 4




:POS002: at.nr.  -2 position = 0.25000 0.75000 0.00000  multiplicity =  2

       lmmax 10
       lm=   0 0  1 0  2 0  3 0  4 0  4 4  5 0  5 4  6 0  6 4
:FER gutzwiller fermi energy   0.43571
:EORB        -21.526359675
:SUM sum of gutz band energies       -101.817942103

:CHA001: total charge inside sphere   1 =    12.416375
:PCS001: partial charges sphere =  1 s,p,d,f,pz,pxy,,d-z2,d-xy,d-x2y2,d-xz,yz 
:QTL001: 0.2795 6.2703 5.8448 0.0179 2.0770 4.1934 0.0000 1.3262 1.2048 1.1373 2.1765 0.0000
:VZZ001: efg inside sphere   1 =     0.902589      up to r =   2.16000

:CHA002: total charge inside sphere   2 =    13.494874
:PCS002: partial charges sphere =  2 s,p,d,f,pz,pxy,,d-z2,d-xy,d-x2y2,d-xz,yz 
:QTL002: 1.3556 2.090510.0368 0.0099 0.7141 1.3765 0.0000 2.0073 2.0072 2.0062 4.0160 0.0000
:VZZ002: efg inside sphere   2 =    -5.309792      up to r =   2.05000

:CHA  : total charge inside unit cell =      59.999993

------- case.scfc --------

        1.ATOM      Fe                    5 CORE STATES
:1S 001: 1S                -512.301971649 Ry
:2S 001: 2S                 -59.242149229 Ry
:2PP001: 2P*                -51.043411726 Ry
:2P 001: 2P                 -50.128271383 Ry
:3S 001: 3S                  -6.007259435 Ry

        2.ATOM      Se                    7 CORE STATES
       CORE-FORCE in mRy/a.u. = |F|      Fx             Fy             Fz
:FCO002:   2.ATOM   1275.294167347454      0.000000000000      0.000000000000  -1275.294167347454

:1S 002: 1S                -916.448145756 Ry
:2S 002: 2S                -117.108906741 Ry
:2PP002: 2P*               -105.083984228 Ry
:2P 002: 2P                -102.020756952 Ry
:3S 002: 3S                 -14.840800373 Ry
:3PP002: 3P*                -10.727970504 Ry
:3P 002: 3P                 -10.295536810 Ry

------- case.scfm --------
:CINT001 Core Integral Atom   1   11.997243
:CINT002 Core Integral Atom   2   17.999409

       DENSITY AT NUCLEUS
        JATOM        VALENCE       SEMI-CORE          CORE           TOTAL
:RTO001:   1        6.185120        0.000000    14798.335725    14804.520845
:RTO002:   2       55.807727        0.000000    38924.692374    38980.500101
     
       CHARGES OF NEW CHARGE DENSITY
:NTO   : INTERSTITIAL CHARGE =     8.177236
:NPC   : PW Pseudocharge     =    13.797161
:NTO001: CHARGE SPHERE  1    =    24.413618
:NTO002: CHARGE SPHERE  2    =    31.494284

:NEC01: NUCLEAR AND ELECTRONIC CHARGE    120.00000   119.99304
     
       CHARGES OF OLD CHARGE DENSITY
:OTO   : INTERSTITIAL CHARGE =     8.120896
:OPC   : PW Pseudocharge     =    13.746597
:OTO001: CHARGE SPHERE  1    =    24.493095
:OTO002: CHARGE SPHERE  2    =    31.446457

:NEC02: NUCLEAR AND ELECTRONIC CHARGE    120.00000   120.00000
     
       CONVERGENCE TEST
:DTO001: DIFFERENCE IN SPHERE  1 =  0.0727410
:DTO002: DIFFERENCE IN SPHERE  2 =  0.0327746

:DIS  :  CHARGE DISTANCE       ( 0.0727410 for atom    1 spin 1)      0.0527578
 PW Mixed is          365
 
******************************************************
* MULTISECANT MIXING VER9 RELEASE 10.4.0              *
* Standard Mode with controls                        *
* Fixed density scale                                *
* Restart from converged density                     *
* Regularization       1.000E-04                     *
* Trust Upper Limit    5.000E+00                     *
* Max Number of Memory Steps    8                    *
******************************************************
 
:INFO : Forcing a restart
:PWTMP   3.7368E+02  3.2249E+02  5.3028E+02
:PLANE:  PW TOTAL      3.7011 DISTAN   4.24E-02  1.15E+00 %
:CHARG:  CLM/ATOM    303.3420 DISTAN   5.96E-02  1.97E-02 %
 
Step History
        DMIX         DMIXT        Red     Pred      Trust     Lambda    MagRel    MagAbs     Beta
  1   3.5000E-02   3.5000E-02 -1.00E+00  1.00E+00 -1.00E+01  1.00E+00  3.50E-02  3.50E-02  1.00E+00
:INFO :  Note, Pratt in use
:TRUST:  Step 2.25E-01  Charge 7.50E-02 (e) CTO  2.50E-01 (e) PW  3.50E-01 (e)
:DIRM :  MEMORY  0/ 8 SCALE   1.000
Performing Pseudo Compensation
Final Pseudo Compensation Rescaling     9.99845E-01
:MIX  :   PRATT  REGULARIZATION:  1.00E-04 GREED: 0.15000                  
     
       CHARGES OF MIXED CHARGE DENSITY
:CTO   : INTERSTITIAL CHARGE =     8.130391
:CPC   : PW Pseudocharge     =    13.776633
:CTO001: CHARGE SPHERE  1    =    24.481173
:CTO002: CHARGE SPHERE  2    =    31.453631

:NEC03: NUCLEAR AND ELECTRONIC CHARGE    120.00000   120.00000

PW CHANGE     H    K    L      Current       Change    Residue
:PTO001:      0    0    0  4.13121631E-02  7.455E-05  2.369E-04
:PTO002:      0    0   -1  1.84906913E-02 -1.220E-04 -3.688E-04
:PTO004:     -1    0   -1 -9.22406943E-02 -5.688E-04 -1.041E-03
:PTO005:      0    0   -2 -1.10283719E-02 -1.764E-04 -3.069E-04
:PTO006:     -1   -1    0 -2.19865559E-02 -3.373E-04 -5.638E-04
:PTO007:     -1   -1   -1  2.14866678E-02 -1.236E-04 -1.557E-04
:PTO008:     -1    0   -2  4.61043446E-03  5.549E-05  1.278E-04
:PTO009:     -1   -1   -2  2.79172902E-02  1.849E-04  2.293E-04
:PTO010:     -2    0    0 -1.28500396E-02 -9.027E-05 -1.086E-04
:PTO011:      0    0   -3  1.38912231E-03 -1.307E-06  2.332E-05
:PTO012:     -2    0   -1  2.33610900E-03  4.332E-05 -1.122E-04
:PTO014:     -1    0   -3  9.41224869E-03  1.545E-04  9.264E-05

:ENE  : ********** TOTAL ENERGY IN Ry =       -14810.32217010

       TOTAL FORCE IN mRy/a.u. = |F|     Fx             Fy             Fz     with/without FOR in case.in2
:FOR001:   1.ATOM          0.000          0.000          0.000          0.000 partial forces
:FOR002:   2.ATOM        290.776          0.000          0.000        290.776 partial forces
       TOTAL FORCE WITH RESPECT TO GLOBAL CARTESIAN COORDINATES:
:FCA001:   1.ATOM                         0.000          0.000          0.000 partial forces
:FCA002:   2.ATOM                         0.000          0.000        290.776 partial forces
       TOTAL FORCE WITH RESPECT TO THE GLOBAL COORDINATE SYSTEM:
:FGL001:   1.ATOM                 0.000000000     0.000000000     0.000000000 partial forces
:FGL002:   2.ATOM                 0.000000000     0.000000000   290.775745503 partial forces

------- case.scf0 --------
 Flat Integration
 New Mode for Coulomb Integral
 Consistent 3/8+Simpson combinations
 Extension of core to zero
 LDM version in phi
 Fifth-order quadrature in outwin


            ---------
:ITE050: 50. ITERATION
            ---------

:NATO :    2 INDEPENDENT AND    4 TOTAL ATOMS IN UNITCELL
       SUBSTANCE: FeSe                                                        

       LATTICE                      = P   
:POT  : POTENTIAL OPTION EX_LDA EC_LDA VX_LDA VC_LDA
:LAT  : LATTICE CONSTANTS=  7.12881  7.12881 10.43450    1.571    1.571    1.571
:VOL  : UNIT CELL VOLUME =     530.28024
       MODE OF CALCULATION IS       = RELA
       NON-SPINPOLARIZED CALCULATION
:IFFT  : FFT-parameters:   60   60   80 Factor: 2.00


   CONVERGENCE PARAMETER FOR PSEUDOCHARGE: NCON=  9
   MAXIMAL VALUE OF RMT(JATOM)*ABSK(NKK) : RK  =25.91023


:VKCOUL :  VK-COUL convergence: 0.315E-06
       ATOMNUMBER=  1 Fe         VCOUL-ZERO =  0.21914E+00
:EFG001:                        EFG         =     0.78468   *10**21  V / m**2
                               V20  TOT/SRF=     0.67955    -0.04997
                               V22  TOT/SRF=     0.00000     0.00000
                               V22M TOT/SRF=     0.00000     0.00000
                               V21  TOT/SRF=     0.00000     0.00000
                               V21M TOT/SRF=     0.00000     0.00000

             -0.39234    0.00000    0.00000       -0.39234    0.00000    0.00000
              0.00000   -0.39234    0.00000        0.00000   -0.39234    0.00000
              0.00000    0.00000    0.78468        0.00000    0.00000    0.78468

         MAIN DIRECTIONS OF THE EFG   1.0000  0.0000  0.0000
                                      0.0000  1.0000  0.0000
                                      0.0000  0.0000  1.0000
:ANG001:  ANGLE WITH OLD X-AXIS =         0.0

:ETA001:                         ASYMM. ETA =     0.00000


       ATOMNUMBER=  2 Se         VCOUL-ZERO =  0.73927E-01
:EFG002:                        EFG         =    -5.23424   *10**21  V / m**2
                               V20  TOT/SRF=    -4.53299    -0.00073
                               V22  TOT/SRF=     0.00000     0.00000
                               V22M TOT/SRF=     0.00000     0.00000
                               V21  TOT/SRF=     0.00000     0.00000
                               V21M TOT/SRF=     0.00000     0.00000

              2.61712    0.00000    0.00000        2.61712    0.00000    0.00000
              0.00000    2.61712    0.00000        0.00000    2.61712    0.00000
              0.00000    0.00000   -5.23424        0.00000    0.00000   -5.23424

         MAIN DIRECTIONS OF THE EFG   1.0000  0.0000  0.0000
                                      0.0000  1.0000  0.0000
                                      0.0000  0.0000  1.0000
:ANG002:  ANGLE WITH OLD X-AXIS =         0.0

:ETA002:                         ASYMM. ETA =     0.00000


     HELLMANN-FEYNMAN-FORCE IN mRy/a.u. = |F|  Fx       Fy             Fz
:FHF001:   1.ATOM      0.000000000000      0.000000000000      0.000000000000      0.000000000000

     HELLMANN-FEYNMAN-FORCE IN mRy/a.u. = |F|  Fx       Fy             Fz
:FHF002:   2.ATOM   1681.886860221951      0.000000000000      0.000000000000   1681.886860221951

:FIT001: LUSE= 13 SIGMA OF V-XC FIT FOR ATOM  1  0.1872557E-02
:FIT001: LUSE= 13 SIGMA OF V-XC FIT FOR ATOM  1  0.1872557E-02
:FIT002: LUSE= 13 SIGMA OF V-XC FIT FOR ATOM  2  0.3555011E-03
:FIT002: LUSE= 13 SIGMA OF V-XC FIT FOR ATOM  2  0.3555011E-03
:DEN  : DENSITY INTEGRAL  =         -6215.74322073   (Ry)
       ELS_POTENTIAL_AT Z=0 and Z=0.5:  -0.78079   0.68800
       ELS_POTENTIAL_AT Y=0 and Y=0.5:   0.00000   0.00000
:VZERO:v0,v0c,v0x  -1.59978  -0.78079  -0.81899 v5,v5c,v5x   0.18444   0.68800  -0.50357
:VZERY:v0,v0c,v0x  -0.71392   0.00000  -0.71392 v5,v5c,v5x  -0.71392   0.00000  -0.71392
:VZERX:v0,v0c,v0x   0.10885   0.79463  -0.68578 v5,v5c,v5x   0.10885   0.79463  -0.68578

------- case.scf1 --------
:LMAX-WF:   10   Non-Spherical LMAX:   4

          ATOMIC SPHERE DEPENDENT PARAMETERS FOR ATOM  Fe        
:e__0001: OVERALL ENERGY PARAMETER IS    0.1865
          OVERALL BASIS SET ON ATOM IS LAPW
:E1_0001: E( 1)=    0.1865
             APW+lo
:E1_0001: E( 1)=   -3.5781   E(BOTTOM)=   -3.667   E(TOP)=   -3.489  1  2   134
             LOCAL ORBITAL
:E2_0001: E( 2)=    0.2186   E(BOTTOM)=   -0.129   E(TOP)=    0.566  0  1   141
             APW+lo
:E0_0001: E( 0)=    0.1865
             APW+lo

          ATOMIC SPHERE DEPENDENT PARAMETERS FOR ATOM  Se        
:e__0002: OVERALL ENERGY PARAMETER IS    0.1865
          OVERALL BASIS SET ON ATOM IS LAPW
:E2_0002: E( 2)=    0.1865
             APW+lo
:E2_0002: E( 2)=   -3.1437   E(BOTTOM)=   -3.188   E(TOP)=   -3.100  0  1   142
             LOCAL ORBITAL
:E0_0002: E( 0)=    0.5865
             APW+lo
:E0_0002: E( 0)=   -1.0200   E(BOTTOM)=   -1.618   E(TOP)= -200.000  3 -1   182
             LOCAL ORBITAL
:E1_0002: E( 1)=    0.1865
             APW+lo

       K=   0.04545   0.04545   0.07143            1
:RKM  : MATRIX SIZE   582LOs:  54  RKM= 7.97  WEIGHT= 8.00  PGR:    
       EIGENVALUES ARE:
:EIG00001:      -3.5664171   -3.5662015   -3.5578552   -3.5576400   -3.5532298
:EIG00006:      -3.5513502   -3.1340331   -3.1339249   -3.1333928   -3.1333397
:EIG00011:      -3.1328055   -3.1327834   -3.1327352   -3.1327274   -3.1318957
:EIG00016:      -3.1318703   -0.6704938   -0.5833172   -0.0408001    0.0602749
:EIG00021:       0.0700699    0.0742562    0.1298019    0.1397408    0.1441195
:EIG00026:       0.2669640    0.2793695    0.3056175    0.3199855    0.3218156
:EIG00031:       0.3594156    0.4346245    0.5074491    0.5147909    0.6049770
:EIG00036:       0.7252553    0.7952072    0.8945430    0.9044328    0.9144669
:EIG00041:       1.2593357    1.2608474    1.3071912    1.3434501    1.3539818
:EIG00046:       1.3551558    1.4097840    1.4437373    1.4583233    1.4925205
 
:EIG00051:       1.5951677    1.6069179    1.7045566    1.7378943    1.8486950
       ********************************************************

:KPT   :      NUMBER OF K-POINTS:    84

------- case.scf2 --------
:GMA  : POTENTIAL AND CHARGE CUT-OFF  12.00 Ry**.5




:POS001: at.nr.  -1 position = 0.25000 0.75000 0.00000  multiplicity =  2

       lmmax  8
       lm=   0 0  2 0 -3 2  4 0  4 4 -5 2  6 0  6 4




:POS002: at.nr.  -2 position = 0.25000 0.75000 0.00000  multiplicity =  2

       lmmax 10
       lm=   0 0  1 0  2 0  3 0  4 0  4 4  5 0  5 4  6 0  6 4
:FER gutzwiller fermi energy   0.43285
:EORB        -21.662644987
:SUM sum of gutz band energies       -101.902149904

:CHA001: total charge inside sphere   1 =    12.449523
:PCS001: partial charges sphere =  1 s,p,d,f,pz,pxy,,d-z2,d-xy,d-x2y2,d-xz,yz 
:QTL001: 0.2828 6.2730 5.8718 0.0179 2.0774 4.1956 0.0000 1.3311 1.2117 1.1405 2.1887 0.0000
:VZZ001: efg inside sphere   1 =     0.907013      up to r =   2.16000

:CHA002: total charge inside sphere   2 =    13.474739
:PCS002: partial charges sphere =  2 s,p,d,f,pz,pxy,,d-z2,d-xy,d-x2y2,d-xz,yz 
:QTL002: 1.3546 2.071710.0365 0.0098 0.7070 1.3647 0.0000 2.0072 2.0070 2.0060 4.0163 0.0000
:VZZ002: efg inside sphere   2 =    -5.048226      up to r =   2.05000

:CHA  : total charge inside unit cell =      60.000000

------- case.scfc --------

        1.ATOM      Fe                    5 CORE STATES
:1S 001: 1S                -512.323558325 Ry
:2S 001: 2S                 -59.263276130 Ry
:2PP001: 2P*                -51.064669325 Ry
:2P 001: 2P                 -50.149516180 Ry
:3S 001: 3S                  -6.023531225 Ry

        2.ATOM      Se                    7 CORE STATES
       CORE-FORCE in mRy/a.u. = |F|      Fx             Fy             Fz
:FCO002:   2.ATOM   1334.898094368780      0.000000000000      0.000000000000  -1334.898094368780

:1S 002: 1S                -916.440205050 Ry
:2S 002: 2S                -117.101562120 Ry
:2PP002: 2P*               -105.076542278 Ry
:2P 002: 2P                -102.013328337 Ry
:3S 002: 3S                 -14.834427532 Ry
:3PP002: 3P*                -10.721613110 Ry
:3P 002: 3P                 -10.289204597 Ry

------- case.scfm --------
:CINT001 Core Integral Atom   1   11.997258
:CINT002 Core Integral Atom   2   17.999408

       DENSITY AT NUCLEUS
        JATOM        VALENCE       SEMI-CORE          CORE           TOTAL
:RTO001:   1        6.261252        0.000000    14798.449839    14804.711091
:RTO002:   2       55.745005        0.000000    38924.651834    38980.396840
     
       CHARGES OF NEW CHARGE DENSITY
:NTO   : INTERSTITIAL CHARGE =     8.151468
:NPC   : PW Pseudocharge     =    13.760283
:NTO001: CHARGE SPHERE  1    =    24.446781
:NTO002: CHARGE SPHERE  2    =    31.474148

:NEC01: NUCLEAR AND ELECTRONIC CHARGE    120.00000   119.99332
     
       CHARGES OF OLD CHARGE DENSITY
:OTO   : INTERSTITIAL CHARGE =     8.130391
:OPC   : PW Pseudocharge     =    13.776633
:OTO001: CHARGE SPHERE  1    =    24.481173
:OTO002: CHARGE SPHERE  2    =    31.453631

:NEC02: NUCLEAR AND ELECTRONIC CHARGE    120.00000   120.00000
     
       CONVERGENCE TEST
:DTO001: DIFFERENCE IN SPHERE  1 =  0.0243934
:DTO002: DIFFERENCE IN SPHERE  2 =  0.0133552

:DIS  :  CHARGE DISTANCE       ( 0.0243934 for atom    1 spin 1)      0.0188743
 PW Mixed is          365
 
******************************************************
* MULTISECANT MIXING VER9 RELEASE 10.4.0              *
* Standard Mode with controls                        *
* Fixed density scale                                *
* Restart from converged density                     *
* Regularization       1.000E-04                     *
* Trust Upper Limit    5.000E+00                     *
* Max Number of Memory Steps    8                    *
******************************************************
 
:INFO : Forcing a restart
:PWTMP   3.7368E+02  3.2249E+02  5.3028E+02
:PLANE:  PW TOTAL      3.7148 DISTAN   1.28E-02  3.45E-01 %
:CHARG:  CLM/ATOM    303.3423 DISTAN   2.41E-02  7.93E-03 %
 
Step History
        DMIX         DMIXT        Red     Pred      Trust     Lambda    MagRel    MagAbs     Beta
  1   3.5000E-02   3.5000E-02 -1.00E+00  1.00E+00 -1.00E+01  1.00E+00  3.50E-02  3.50E-02  1.00E+00
  2   1.5000E-01   1.5000E-01 -1.00E+00  1.00E+00 -1.00E+01  1.00E+00  1.50E-01  1.90E-02  1.00E+00
:JACOBIANS    4.338E-02   7.721E-02
  
:NORMS:  1/Froebius, Min, Max, Used   0.8422E-01  0.8422E-01  0.2408E+00  0.8422E-01
:INFO :  Number of Memory Steps    1 Skipping    0
:PREDicted Charge, CTotal, PW Trust    1.414E-02   1.126E-02   2.852E-02
:PREDicted DMix, Beta, BLim   5.0000E-02  1.1863E+00  2.1559E+00

Eigenvalues, unscaled except for SY+YY
   #     SY Real        SY Imag          SS             YY         SY+YY Real      SY+YY Imag
   1   2.407719E-01   0.000000E+00   8.422302E-02   1.000000E+00   1.240772E+00   0.000000E+00
 
:BLIM :  VZERO Control Off
:TRUST:  Step 3.00E+00  Charge 7.50E-02 (e) CTO  2.50E-01 (e) PW  3.50E-01 (e)
:DIRM :  MEMORY  1/8  SCALE   1.000 RED  0.39 PRED  1.00 NEXT  0.93 
:TRAVE:  Charge 4.07E-03 (e) CTO  3.27E-03 (e) PW  4.63E-03 (e)
:DIRP :  |MSR1|= 3.840E-03 |PRATT|= 1.281E-02 ANGLE=  75.0 DEGREES
:DIRQ :  |MSR1|= 5.453E-03 |PRATT|= 4.810E-02 ANGLE=  13.0 DEGREES
:DIRT :  |MSR1|= 6.670E-03 |PRATT|= 4.978E-02 ANGLE=  36.1 DEGREES
:MIX  :   MSR1   REGULARIZATION:  1.00E-04 GREED: 0.07125  Newton 1.00  0.1340                
     
       CHARGES OF MIXED CHARGE DENSITY
:CTO   : INTERSTITIAL CHARGE =     8.133666
:CPC   : PW Pseudocharge     =    13.780972
:CTO001: CHARGE SPHERE  1    =    24.477100
:CTO002: CHARGE SPHERE  2    =    31.456067

:NEC03: NUCLEAR AND ELECTRONIC CHARGE    120.00000   120.00000

PW CHANGE     H    K    L      Current       Change    Residue
:PTO001:      0    0    0  4.13265204E-02  1.436E-05  4.275E-05
:PTO002:      0    0   -1  1.84647004E-02 -2.599E-05 -9.647E-05
:PTO004:     -1    0   -1 -9.23345149E-02 -9.382E-05 -1.968E-05
:PTO005:      0    0   -2 -1.10581391E-02 -2.977E-05 -1.159E-05
:PTO006:     -1   -1    0 -2.20462138E-02 -5.966E-05 -5.098E-05
:PTO007:     -1   -1   -1  2.14553124E-02 -3.136E-05 -1.230E-04
:PTO008:     -1    0   -2  4.61139029E-03  9.558E-07 -9.092E-05
:PTO009:     -1   -1   -2  2.79446650E-02  2.737E-05 -4.757E-05
:PTO010:     -2    0    0 -1.28604913E-02 -1.045E-05  5.826E-05
:PTO011:      0    0   -3  1.38906077E-03 -6.155E-08  5.814E-06
:PTO012:     -2    0   -1  2.33293976E-03 -3.169E-06 -1.506E-04
:PTO014:     -1    0   -3  9.43219735E-03  1.995E-05 -8.997E-05

:ENE  : ********** TOTAL ENERGY IN Ry =       -14810.32194891

       TOTAL FORCE IN mRy/a.u. = |F|     Fx             Fy             Fz     with/without FOR in case.in2
:FOR001:   1.ATOM          0.000          0.000          0.000          0.000 partial forces
:FOR002:   2.ATOM        346.989          0.000          0.000        346.989 partial forces
       TOTAL FORCE WITH RESPECT TO GLOBAL CARTESIAN COORDINATES:
:FCA001:   1.ATOM                         0.000          0.000          0.000 partial forces
:FCA002:   2.ATOM                         0.000          0.000        346.989 partial forces
       TOTAL FORCE WITH RESPECT TO THE GLOBAL COORDINATE SYSTEM:
:FGL001:   1.ATOM                 0.000000000     0.000000000     0.000000000 partial forces
:FGL002:   2.ATOM                 0.000000000     0.000000000   346.988765853 partial forces

------- case.scf0 --------
 Flat Integration
 New Mode for Coulomb Integral
 Consistent 3/8+Simpson combinations
 Extension of core to zero
 LDM version in phi
 Fifth-order quadrature in outwin


            ---------
:ITE051: 51. ITERATION
            ---------

:NATO :    2 INDEPENDENT AND    4 TOTAL ATOMS IN UNITCELL
       SUBSTANCE: FeSe                                                        

       LATTICE                      = P   
:POT  : POTENTIAL OPTION EX_LDA EC_LDA VX_LDA VC_LDA
:LAT  : LATTICE CONSTANTS=  7.12881  7.12881 10.43450    1.571    1.571    1.571
:VOL  : UNIT CELL VOLUME =     530.28024
       MODE OF CALCULATION IS       = RELA
       NON-SPINPOLARIZED CALCULATION
:IFFT  : FFT-parameters:   60   60   80 Factor: 2.00


   CONVERGENCE PARAMETER FOR PSEUDOCHARGE: NCON=  9
   MAXIMAL VALUE OF RMT(JATOM)*ABSK(NKK) : RK  =25.91023


:VKCOUL :  VK-COUL convergence: 0.315E-06
       ATOMNUMBER=  1 Fe         VCOUL-ZERO =  0.21716E+00
:EFG001:                        EFG         =     0.78772   *10**21  V / m**2
                               V20  TOT/SRF=     0.68219    -0.05172
                               V22  TOT/SRF=     0.00000     0.00000
                               V22M TOT/SRF=     0.00000     0.00000
                               V21  TOT/SRF=     0.00000     0.00000
                               V21M TOT/SRF=     0.00000     0.00000

             -0.39386    0.00000    0.00000       -0.39386    0.00000    0.00000
              0.00000   -0.39386    0.00000        0.00000   -0.39386    0.00000
              0.00000    0.00000    0.78772        0.00000    0.00000    0.78772

         MAIN DIRECTIONS OF THE EFG   1.0000  0.0000  0.0000
                                      0.0000  1.0000  0.0000
                                      0.0000  0.0000  1.0000
:ANG001:  ANGLE WITH OLD X-AXIS =         0.0

:ETA001:                         ASYMM. ETA =     0.00000


       ATOMNUMBER=  2 Se         VCOUL-ZERO =  0.74827E-01
:EFG002:                        EFG         =    -5.21786   *10**21  V / m**2
                               V20  TOT/SRF=    -4.51880    -0.00056
                               V22  TOT/SRF=     0.00000     0.00000
                               V22M TOT/SRF=     0.00000     0.00000
                               V21  TOT/SRF=     0.00000     0.00000
                               V21M TOT/SRF=     0.00000     0.00000

              2.60893    0.00000    0.00000        2.60893    0.00000    0.00000
              0.00000    2.60893    0.00000        0.00000    2.60893    0.00000
              0.00000    0.00000   -5.21786        0.00000    0.00000   -5.21786

         MAIN DIRECTIONS OF THE EFG   1.0000  0.0000  0.0000
                                      0.0000  1.0000  0.0000
                                      0.0000  0.0000  1.0000
:ANG002:  ANGLE WITH OLD X-AXIS =         0.0

:ETA002:                         ASYMM. ETA =     0.00000


     HELLMANN-FEYNMAN-FORCE IN mRy/a.u. = |F|  Fx       Fy             Fz
:FHF001:   1.ATOM      0.000000000000      0.000000000000      0.000000000000      0.000000000000

     HELLMANN-FEYNMAN-FORCE IN mRy/a.u. = |F|  Fx       Fy             Fz
:FHF002:   2.ATOM   1709.567147034225      0.000000000000      0.000000000000   1709.567147034225

:FIT001: LUSE= 13 SIGMA OF V-XC FIT FOR ATOM  1  0.1874223E-02
:FIT001: LUSE= 13 SIGMA OF V-XC FIT FOR ATOM  1  0.1874223E-02
:FIT002: LUSE= 13 SIGMA OF V-XC FIT FOR ATOM  2  0.3538571E-03
:FIT002: LUSE= 13 SIGMA OF V-XC FIT FOR ATOM  2  0.3538571E-03
:DEN  : DENSITY INTEGRAL  =         -6215.64105126   (Ry)
       ELS_POTENTIAL_AT Z=0 and Z=0.5:  -0.78385   0.69014
       ELS_POTENTIAL_AT Y=0 and Y=0.5:   0.00000   0.00000
:VZERO:v0,v0c,v0x  -1.60268  -0.78385  -0.81884 v5,v5c,v5x   0.18635   0.69014  -0.50379
:VZERY:v0,v0c,v0x  -0.71401   0.00000  -0.71401 v5,v5c,v5x  -0.71401   0.00000  -0.71401
:VZERX:v0,v0c,v0x   0.10900   0.79486  -0.68586 v5,v5c,v5x   0.10900   0.79486  -0.68586

------- case.scf1 --------
:LMAX-WF:   10   Non-Spherical LMAX:   4

          ATOMIC SPHERE DEPENDENT PARAMETERS FOR ATOM  Fe        
:e__0001: OVERALL ENERGY PARAMETER IS    0.1865
          OVERALL BASIS SET ON ATOM IS LAPW
:E1_0001: E( 1)=    0.1865
             APW+lo
:E1_0001: E( 1)=   -3.5825   E(BOTTOM)=   -3.671   E(TOP)=   -3.494  1  2   140
             LOCAL ORBITAL
:E2_0001: E( 2)=    0.2146   E(BOTTOM)=   -0.132   E(TOP)=    0.561  0  1   135
             APW+lo
:E0_0001: E( 0)=    0.1865
             APW+lo

          ATOMIC SPHERE DEPENDENT PARAMETERS FOR ATOM  Se        
:e__0002: OVERALL ENERGY PARAMETER IS    0.1865
          OVERALL BASIS SET ON ATOM IS LAPW
:E2_0002: E( 2)=    0.1865
             APW+lo
:E2_0002: E( 2)=   -3.1418   E(BOTTOM)=   -3.186   E(TOP)=   -3.098  0  1   144
             LOCAL ORBITAL
:E0_0002: E( 0)=    0.5865
             APW+lo
:E0_0002: E( 0)=   -1.0200   E(BOTTOM)=   -1.617   E(TOP)= -200.000  3 -1   180
             LOCAL ORBITAL
:E1_0002: E( 1)=    0.1865
             APW+lo

       K=   0.04545   0.04545   0.07143            1
:RKM  : MATRIX SIZE   582LOs:  54  RKM= 7.97  WEIGHT= 8.00  PGR:    
       EIGENVALUES ARE:
:EIG00001:      -3.5708104   -3.5705952   -3.5622623   -3.5620474   -3.5576036
:EIG00006:      -3.5557272   -3.1321291   -3.1320228   -3.1314855   -3.1314323
:EIG00011:      -3.1309130   -3.1308909   -3.1308420   -3.1308341   -3.1300013
:EIG00016:      -3.1299761   -0.6701297   -0.5827461   -0.0413019    0.0583265
:EIG00021:       0.0681126    0.0722946    0.1261612    0.1388906    0.1432395
:EIG00026:       0.2634997    0.2767445    0.3015275    0.3172540    0.3185640
:EIG00031:       0.3555558    0.4344703    0.5063603    0.5136415    0.6049165
:EIG00036:       0.7239223    0.7943105    0.8941968    0.9040256    0.9141482
:EIG00041:       1.2594410    1.2605921    1.3071817    1.3434086    1.3542742
:EIG00046:       1.3543603    1.4096379    1.4434932    1.4586369    1.4927516
 
:EIG00051:       1.5953935    1.6073165    1.7043614    1.7376887    1.8487707
       ********************************************************

:KPT   :      NUMBER OF K-POINTS:    84

------- case.scf2 --------
:GMA  : POTENTIAL AND CHARGE CUT-OFF  12.00 Ry**.5




:POS001: at.nr.  -1 position = 0.25000 0.75000 0.00000  multiplicity =  2

       lmmax  8
       lm=   0 0  2 0 -3 2  4 0  4 4 -5 2  6 0  6 4




:POS002: at.nr.  -2 position = 0.25000 0.75000 0.00000  multiplicity =  2

       lmmax 10
       lm=   0 0  1 0  2 0  3 0  4 0  4 4  5 0  5 4  6 0  6 4
:FER gutzwiller fermi energy   0.43189
:EORB        -21.698614484
:SUM sum of gutz band energies       -101.924780772

:CHA001: total charge inside sphere   1 =    12.459666
:PCS001: partial charges sphere =  1 s,p,d,f,pz,pxy,,d-z2,d-xy,d-x2y2,d-xz,yz 
:QTL001: 0.2838 6.2739 5.8801 0.0179 2.0776 4.1964 0.0000 1.3326 1.2140 1.1410 2.1925 0.0000
:VZZ001: efg inside sphere   1 =     0.903020      up to r =   2.16000

:CHA002: total charge inside sphere   2 =    13.468214
:PCS002: partial charges sphere =  2 s,p,d,f,pz,pxy,,d-z2,d-xy,d-x2y2,d-xz,yz 
:QTL002: 1.3543 2.065610.0365 0.0098 0.7047 1.3609 0.0000 2.0072 2.0070 2.0059 4.0164 0.0000
:VZZ002: efg inside sphere   2 =    -4.954697      up to r =   2.05000

:CHA  : total charge inside unit cell =      60.000017

------- case.scfc --------

        1.ATOM      Fe                    5 CORE STATES
:1S 001: 1S                -512.328390002 Ry
:2S 001: 2S                 -59.268330170 Ry
:2PP001: 2P*                -51.069702304 Ry
:2P 001: 2P                 -50.154550771 Ry
:3S 001: 3S                  -6.028026362 Ry

        2.ATOM      Se                    7 CORE STATES
       CORE-FORCE in mRy/a.u. = |F|      Fx             Fy             Fz
:FCO002:   2.ATOM   1348.336337501832      0.000000000000      0.000000000000  -1348.336337501832

:1S 002: 1S                -916.437940755 Ry
:2S 002: 2S                -117.099448572 Ry
:2PP002: 2P*               -105.074406110 Ry
:2P 002: 2P                -102.011195252 Ry
:3S 002: 3S                 -14.832487013 Ry
:3PP002: 3P*                -10.719676993 Ry
:3P 002: 3P                 -10.287273603 Ry

------- case.scfm --------
:CINT001 Core Integral Atom   1   11.997262
:CINT002 Core Integral Atom   2   17.999408

       DENSITY AT NUCLEUS
        JATOM        VALENCE       SEMI-CORE          CORE           TOTAL
:RTO001:   1        6.285050        0.000000    14798.464622    14804.749672
:RTO002:   2       55.724675        0.000000    38924.643341    38980.368016
     
       CHARGES OF NEW CHARGE DENSITY
:NTO   : INTERSTITIAL CHARGE =     8.144352
:NPC   : PW Pseudocharge     =    13.749544
:NTO001: CHARGE SPHERE  1    =    24.456928
:NTO002: CHARGE SPHERE  2    =    31.467622

:NEC01: NUCLEAR AND ELECTRONIC CHARGE    120.00000   119.99345
     
       CHARGES OF OLD CHARGE DENSITY
:OTO   : INTERSTITIAL CHARGE =     8.133666
:OPC   : PW Pseudocharge     =    13.780972
:OTO001: CHARGE SPHERE  1    =    24.477100
:OTO002: CHARGE SPHERE  2    =    31.456067

:NEC02: NUCLEAR AND ELECTRONIC CHARGE    120.00000   120.00000
     
       CONVERGENCE TEST
:DTO001: DIFFERENCE IN SPHERE  1 =  0.0215955
:DTO002: DIFFERENCE IN SPHERE  2 =  0.0078402

:DIS  :  CHARGE DISTANCE       ( 0.0215955 for atom    1 spin 1)      0.0147178
 PW Mixed is          365
 
******************************************************
* MULTISECANT MIXING VER9 RELEASE 10.4.0              *
* Standard Mode with controls                        *
* Fixed density scale                                *
* Regularization       1.000E-04                     *
* Trust Upper Limit    5.000E+00                     *
* Max Number of Memory Steps    8                    *
******************************************************
 
:PWTMP   3.7368E+02  3.2249E+02  5.3028E+02
:PLANE:  PW TOTAL      3.7170 DISTAN   1.38E-02  3.71E-01 %
:CHARG:  CLM/ATOM    303.3426 DISTAN   1.98E-02  6.54E-03 %
 
Step History
        DMIX         DMIXT        Red     Pred      Trust     Lambda    MagRel    MagAbs     Beta
  1   3.5000E-02   3.5000E-02 -1.00E+00  1.00E+00 -1.00E+01  1.00E+00  3.50E-02  3.50E-02  1.00E+00
  2   1.5000E-01   1.5000E-01  3.93E-01  1.00E+00 -1.00E+01  1.00E+00  1.50E-01  1.90E-02  1.00E+00
  3   7.1250E-02   7.1250E-02 -1.00E+00  9.28E-01  3.00E+00  1.00E+00  1.34E-01  6.67E-03  1.00E+00
:JACOBIANS    1.232E-01   3.628E-01
  
:NORMS:  1/Froebius, Min, Max, Used   0.2680E+00  0.2630E+00  0.5774E+00  0.2960E+00
:INFO :  Number of Memory Steps    2 Skipping    0
:INFO :  SLambda=    1.0184888794  Max    1.0184888794
:PREDicted Charge, CTotal, PW Trust    1.238E-02   1.016E-02   1.081E-02
:PREDicted DMix, Beta, BLim   5.9205E-01  1.8077E+00  7.6885E-01

Eigenvalues, unscaled except for SY+YY
   #     SY Real        SY Imag          SS             YY         SY+YY Real      SY+YY Imag
   1   4.171221E-01   0.000000E+00   1.375180E-01   1.988589E+00   2.414510E+00   0.000000E+00
   2   8.606624E-03   0.000000E+00   6.117673E-03   1.141131E-02   1.909028E-02   0.000000E+00
 
:INFO :  Singular value  2.415E+00 Weight  1.000E+00 Projection  4.828E-04
:INFO :  Singular value  1.908E-02 Weight  9.999E-01 Projection -3.876E-01
:RANK :  ACTIVE   2.00/2  =  99.99 % ; YY RANK   2.00/2  =  99.98 %
 
:BLIM :  VZERO Control Off
:TRUST:  Step 1.82E+00  Charge 7.50E-02 (e) CTO  2.50E-01 (e) PW  3.50E-01 (e)
:DIRM :  MEMORY  2/8  SCALE   1.000 RED  0.84 PRED  0.93 NEXT  0.21 
:TRAVE:  Charge 5.95E-03 (e) CTO  5.52E-03 (e) PW  9.05E-03 (e)
:DIRP :  |MSR1|= 1.991E-02 |PRATT|= 1.379E-02 ANGLE=  30.3 DEGREES
:DIRQ :  |MSR1|= 2.400E-02 |PRATT|= 3.966E-02 ANGLE=  17.2 DEGREES
:DIRT :  |MSR1|= 3.119E-02 |PRATT|= 4.198E-02 ANGLE=  28.9 DEGREES
:MIX  :   MSE1   REGULARIZATION:  1.99E-04 GREED: 0.17813  Newton 1.00  0.7429                
     
       CHARGES OF MIXED CHARGE DENSITY
:CTO   : INTERSTITIAL CHARGE =     8.141424
:CPC   : PW Pseudocharge     =    13.751071
:CTO001: CHARGE SPHERE  1    =    24.469264
:CTO002: CHARGE SPHERE  2    =    31.460024

:NEC03: NUCLEAR AND ELECTRONIC CHARGE    120.00000   120.00000

PW CHANGE     H    K    L      Current       Change    Residue
:PTO001:      0    0    0  4.12847641E-02 -4.176E-05 -5.921E-06
:PTO002:      0    0   -1  1.85259179E-02  6.122E-05 -1.651E-05
:PTO004:     -1    0   -1 -9.18609320E-02  4.736E-04  2.246E-04
:PTO005:      0    0   -2 -1.09184206E-02  1.397E-04  5.878E-05
:PTO006:     -1   -1    0 -2.18075358E-02  2.387E-04  7.102E-05
:PTO007:     -1   -1   -1  2.14480552E-02 -7.257E-06 -1.133E-04
:PTO008:     -1    0   -2  4.48749511E-03 -1.239E-04 -1.387E-04
:PTO009:     -1   -1   -2  2.77676228E-02 -1.770E-04 -1.065E-04
:PTO010:     -2    0    0 -1.27433814E-02  1.171E-04  9.462E-05
:PTO011:      0    0   -3  1.38948084E-03  4.201E-07 -1.183E-07
:PTO012:     -2    0   -1  2.21237177E-03 -1.206E-04 -1.428E-04
:PTO014:     -1    0   -3  9.26714800E-03 -1.650E-04 -1.179E-04

:ENE  : ********** TOTAL ENERGY IN Ry =       -14810.32223665

       TOTAL FORCE IN mRy/a.u. = |F|     Fx             Fy             Fz     with/without FOR in case.in2
:FOR001:   1.ATOM          0.000          0.000          0.000          0.000 partial forces
:FOR002:   2.ATOM        361.231          0.000          0.000        361.231 partial forces
       TOTAL FORCE WITH RESPECT TO GLOBAL CARTESIAN COORDINATES:
:FCA001:   1.ATOM                         0.000          0.000          0.000 partial forces
:FCA002:   2.ATOM                         0.000          0.000        361.231 partial forces
       TOTAL FORCE WITH RESPECT TO THE GLOBAL COORDINATE SYSTEM:
:FGL001:   1.ATOM                 0.000000000     0.000000000     0.000000000 partial forces
:FGL002:   2.ATOM                 0.000000000     0.000000000   361.230809532 partial forces

------- case.scf0 --------
 Flat Integration
 New Mode for Coulomb Integral
 Consistent 3/8+Simpson combinations
 Extension of core to zero
 LDM version in phi
 Fifth-order quadrature in outwin


            ---------
:ITE052: 52. ITERATION
            ---------

:NATO :    2 INDEPENDENT AND    4 TOTAL ATOMS IN UNITCELL
       SUBSTANCE: FeSe                                                        

       LATTICE                      = P   
:POT  : POTENTIAL OPTION EX_LDA EC_LDA VX_LDA VC_LDA
:LAT  : LATTICE CONSTANTS=  7.12881  7.12881 10.43450    1.571    1.571    1.571
:VOL  : UNIT CELL VOLUME =     530.28024
       MODE OF CALCULATION IS       = RELA
       NON-SPINPOLARIZED CALCULATION
:IFFT  : FFT-parameters:   60   60   80 Factor: 2.00


   CONVERGENCE PARAMETER FOR PSEUDOCHARGE: NCON=  9
   MAXIMAL VALUE OF RMT(JATOM)*ABSK(NKK) : RK  =25.91023


:VKCOUL :  VK-COUL convergence: 0.314E-06
       ATOMNUMBER=  1 Fe         VCOUL-ZERO =  0.21430E+00
:EFG001:                        EFG         =     0.80674   *10**21  V / m**2
                               V20  TOT/SRF=     0.69866    -0.05199
                               V22  TOT/SRF=     0.00000     0.00000
                               V22M TOT/SRF=     0.00000     0.00000
                               V21  TOT/SRF=     0.00000     0.00000
                               V21M TOT/SRF=     0.00000     0.00000

             -0.40337    0.00000    0.00000       -0.40337    0.00000    0.00000
              0.00000   -0.40337    0.00000        0.00000   -0.40337    0.00000
              0.00000    0.00000    0.80674        0.00000    0.00000    0.80674

         MAIN DIRECTIONS OF THE EFG   1.0000  0.0000  0.0000
                                      0.0000  1.0000  0.0000
                                      0.0000  0.0000  1.0000
:ANG001:  ANGLE WITH OLD X-AXIS =         0.0

:ETA001:                         ASYMM. ETA =     0.00000


       ATOMNUMBER=  2 Se         VCOUL-ZERO =  0.76041E-01
:EFG002:                        EFG         =    -5.00291   *10**21  V / m**2
                               V20  TOT/SRF=    -4.33265    -0.00059
                               V22  TOT/SRF=     0.00000     0.00000
                               V22M TOT/SRF=     0.00000     0.00000
                               V21  TOT/SRF=     0.00000     0.00000
                               V21M TOT/SRF=     0.00000     0.00000

              2.50145    0.00000    0.00000        2.50145    0.00000    0.00000
              0.00000    2.50145    0.00000        0.00000    2.50145    0.00000
              0.00000    0.00000   -5.00291        0.00000    0.00000   -5.00291

         MAIN DIRECTIONS OF THE EFG   1.0000  0.0000  0.0000
                                      0.0000  1.0000  0.0000
                                      0.0000  0.0000  1.0000
:ANG002:  ANGLE WITH OLD X-AXIS =         0.0

:ETA002:                         ASYMM. ETA =     0.00000


     HELLMANN-FEYNMAN-FORCE IN mRy/a.u. = |F|  Fx       Fy             Fz
:FHF001:   1.ATOM      0.000000000000      0.000000000000      0.000000000000      0.000000000000

     HELLMANN-FEYNMAN-FORCE IN mRy/a.u. = |F|  Fx       Fy             Fz
:FHF002:   2.ATOM   1662.676981290086      0.000000000000      0.000000000000   1662.676981290086

:FIT001: LUSE= 13 SIGMA OF V-XC FIT FOR ATOM  1  0.1879943E-02
:FIT001: LUSE= 13 SIGMA OF V-XC FIT FOR ATOM  1  0.1879943E-02
:FIT002: LUSE= 13 SIGMA OF V-XC FIT FOR ATOM  2  0.3488146E-03
:FIT002: LUSE= 13 SIGMA OF V-XC FIT FOR ATOM  2  0.3488146E-03
:DEN  : DENSITY INTEGRAL  =         -6215.78054580   (Ry)
       ELS_POTENTIAL_AT Z=0 and Z=0.5:  -0.78974   0.69231
       ELS_POTENTIAL_AT Y=0 and Y=0.5:   0.00000   0.00000
:VZERO:v0,v0c,v0x  -1.60926  -0.78974  -0.81952 v5,v5c,v5x   0.18815   0.69231  -0.50416
:VZERY:v0,v0c,v0x  -0.71412   0.00000  -0.71412 v5,v5c,v5x  -0.71412   0.00000  -0.71412
:VZERX:v0,v0c,v0x   0.10871   0.79488  -0.68618 v5,v5c,v5x   0.10871   0.79488  -0.68618

------- case.scf1 --------
:LMAX-WF:   10   Non-Spherical LMAX:   4

          ATOMIC SPHERE DEPENDENT PARAMETERS FOR ATOM  Fe        
:e__0001: OVERALL ENERGY PARAMETER IS    0.1865
          OVERALL BASIS SET ON ATOM IS LAPW
:E1_0001: E( 1)=    0.1865
             APW+lo
:E1_0001: E( 1)=   -3.5840   E(BOTTOM)=   -3.673   E(TOP)=   -3.495  1  2   131
             LOCAL ORBITAL
:E2_0001: E( 2)=    0.2127   E(BOTTOM)=   -0.134   E(TOP)=    0.560  0  1   136
             APW+lo
:E0_0001: E( 0)=    0.1865
             APW+lo

          ATOMIC SPHERE DEPENDENT PARAMETERS FOR ATOM  Se        
:e__0002: OVERALL ENERGY PARAMETER IS    0.1865
          OVERALL BASIS SET ON ATOM IS LAPW
:E2_0002: E( 2)=    0.1865
             APW+lo
:E2_0002: E( 2)=   -3.1402   E(BOTTOM)=   -3.184   E(TOP)=   -3.096  0  1   142
             LOCAL ORBITAL
:E0_0002: E( 0)=    0.5865
             APW+lo
:E0_0002: E( 0)=   -1.0200   E(BOTTOM)=   -1.616   E(TOP)= -200.000  3 -1   180
             LOCAL ORBITAL
:E1_0002: E( 1)=    0.1865
             APW+lo

       K=   0.04545   0.04545   0.07143            1
:RKM  : MATRIX SIZE   582LOs:  54  RKM= 7.97  WEIGHT= 8.00  PGR:    
       EIGENVALUES ARE:
:EIG00001:      -3.5721471   -3.5719315   -3.5635860   -3.5633708   -3.5592911
:EIG00006:      -3.5574123   -3.1305364   -3.1304307   -3.1298810   -3.1298278
:EIG00011:      -3.1293723   -3.1293502   -3.1293011   -3.1292932   -3.1284745
:EIG00016:      -3.1284493   -0.6695584   -0.5818731   -0.0415986    0.0573637
:EIG00021:       0.0671027    0.0712846    0.1243287    0.1385855    0.1429305
:EIG00026:       0.2617836    0.2755857    0.2998943    0.3160299    0.3171183
:EIG00031:       0.3542020    0.4347384    0.5063864    0.5136846    0.6049881
:EIG00036:       0.7236176    0.7937518    0.8938382    0.9036154    0.9137120
:EIG00041:       1.2594599    1.2607740    1.3074029    1.3433657    1.3535943
:EIG00046:       1.3546457    1.4096592    1.4433932    1.4591089    1.4930094
 
:EIG00051:       1.5958126    1.6078955    1.7040666    1.7374816    1.8488785
       ********************************************************

:KPT   :      NUMBER OF K-POINTS:    84

------- case.scf2 --------
:GMA  : POTENTIAL AND CHARGE CUT-OFF  12.00 Ry**.5




:POS001: at.nr.  -1 position = 0.25000 0.75000 0.00000  multiplicity =  2

       lmmax  8
       lm=   0 0  2 0 -3 2  4 0  4 4 -5 2  6 0  6 4




:POS002: at.nr.  -2 position = 0.25000 0.75000 0.00000  multiplicity =  2

       lmmax 10
       lm=   0 0  1 0  2 0  3 0  4 0  4 4  5 0  5 4  6 0  6 4
:FER gutzwiller fermi energy   0.43159
:EORB        -21.714803763
:SUM sum of gutz band energies       -101.912292135

:CHA001: total charge inside sphere   1 =    12.465176
:PCS001: partial charges sphere =  1 s,p,d,f,pz,pxy,,d-z2,d-xy,d-x2y2,d-xz,yz 
:QTL001: 0.2850 6.2750 5.8833 0.0179 2.0778 4.1972 0.0000 1.3336 1.2146 1.1396 2.1956 0.0000
:VZZ001: efg inside sphere   1 =     0.826530      up to r =   2.16000

:CHA002: total charge inside sphere   2 =    13.461914
:PCS002: partial charges sphere =  2 s,p,d,f,pz,pxy,,d-z2,d-xy,d-x2y2,d-xz,yz 
:QTL002: 1.3539 2.059610.0366 0.0098 0.7026 1.3570 0.0000 2.0072 2.0070 2.0059 4.0165 0.0000
:VZZ002: efg inside sphere   2 =    -4.941369      up to r =   2.05000

:CHA  : total charge inside unit cell =      60.000000

------- case.scfc --------

        1.ATOM      Fe                    5 CORE STATES
:1S 001: 1S                -512.320967300 Ry
:2S 001: 2S                 -59.263668419 Ry
:2PP001: 2P*                -51.064592114 Ry
:2P 001: 2P                 -50.149480939 Ry
:3S 001: 3S                  -6.029314512 Ry

        2.ATOM      Se                    7 CORE STATES
       CORE-FORCE in mRy/a.u. = |F|      Fx             Fy             Fz
:FCO002:   2.ATOM   1316.402760815180      0.000000000000      0.000000000000  -1316.402760815180

:1S 002: 1S                -916.437330201 Ry
:2S 002: 2S                -117.098718740 Ry
:2PP002: 2P*               -105.073712763 Ry
:2P 002: 2P                -102.010496744 Ry
:3S 002: 3S                 -14.830917603 Ry
:3PP002: 3P*                -10.718107750 Ry
:3P 002: 3P                 -10.285687693 Ry

------- case.scfm --------
:CINT001 Core Integral Atom   1   11.997258
:CINT002 Core Integral Atom   2   17.999408

       DENSITY AT NUCLEUS
        JATOM        VALENCE       SEMI-CORE          CORE           TOTAL
:RTO001:   1        6.315459        0.000000    14798.339315    14804.654774
:RTO002:   2       55.697003        0.000000    38924.667526    38980.364528
     
       CHARGES OF NEW CHARGE DENSITY
:NTO   : INTERSTITIAL CHARGE =     8.145826
:NPC   : PW Pseudocharge     =    13.745983
:NTO001: CHARGE SPHERE  1    =    24.462434
:NTO002: CHARGE SPHERE  2    =    31.461322

:NEC01: NUCLEAR AND ELECTRONIC CHARGE    120.00000   119.99334
     
       CHARGES OF OLD CHARGE DENSITY
:OTO   : INTERSTITIAL CHARGE =     8.141424
:OPC   : PW Pseudocharge     =    13.751071
:OTO001: CHARGE SPHERE  1    =    24.469264
:OTO002: CHARGE SPHERE  2    =    31.460024

:NEC02: NUCLEAR AND ELECTRONIC CHARGE    120.00000   120.00000
     
       CONVERGENCE TEST
:DTO001: DIFFERENCE IN SPHERE  1 =  0.0061846
:DTO002: DIFFERENCE IN SPHERE  2 =  0.0011279

:DIS  :  CHARGE DISTANCE       ( 0.0061846 for atom    1 spin 1)      0.0036562
 PW Mixed is          365
 
******************************************************
* MULTISECANT MIXING VER9 RELEASE 10.4.0              *
* Standard Mode with controls                        *
* Fixed density scale                                *
* Regularization       1.000E-04                     *
* Trust Upper Limit    5.000E+00                     *
* Max Number of Memory Steps    8                    *
******************************************************
 
:PWTMP   3.7368E+02  3.2249E+02  5.3028E+02
:PLANE:  PW TOTAL      3.7052 DISTAN   4.84E-03  1.31E-01 %
:CHARG:  CLM/ATOM    303.3443 DISTAN   5.66E-03  1.86E-03 %
 
Step History
        DMIX         DMIXT        Red     Pred      Trust     Lambda    MagRel    MagAbs     Beta
  1   3.5000E-02   3.5000E-02 -1.00E+00  1.00E+00 -1.00E+01  1.00E+00  3.50E-02  3.50E-02  1.00E+00
  2   1.5000E-01   1.5000E-01  3.93E-01  1.00E+00 -1.00E+01  1.00E+00  1.50E-01  1.90E-02  1.00E+00
  3   7.1250E-02   7.1250E-02  8.43E-01  9.28E-01  3.00E+00  1.02E+00  1.34E-01  6.67E-03  1.00E+00
  4   1.7813E-01   1.7813E-01 -1.00E+00  2.13E-01  1.82E+00  1.00E+00  7.43E-01  3.12E-02  1.00E+00
:JACOBIANS    1.690E-01   5.511E-01
  
:NORMS:  1/Froebius, Min, Max, Used   0.6488E+00  0.3737E+00  0.7790E+00  0.7790E+00
:INFO :  Number of Memory Steps    3 Skipping    0
:INFO :  SLambda=    1.7736170168  Max    1.7736170168
:PREDicted Charge, CTotal, PW Trust    1.053E-02   1.026E-02   1.212E-02
:PREDicted DMix, Beta, BLim   7.2617E-02  1.0768E+00  8.0612E-01

Eigenvalues, unscaled except for SY+YY
   #     SY Real        SY Imag          SS             YY         SY+YY Real      SY+YY Imag
   1   1.242062E+00   0.000000E+00   1.185070E+00   1.953017E+00   1.017740E-04   0.000000E+00
   2   2.874684E-01   0.000000E+00   7.767881E-02   1.046907E+00   1.582206E+00   0.000000E+00
   3   1.357351E-05   0.000000E+00   5.976754E-06   7.650745E-05   4.130517E+00   0.000000E+00
 
:INFO :  Singular value  4.240E+00 Weight  1.000E+00 Projection  2.025E-03
:INFO :  Singular value  1.541E+00 Weight  1.000E+00 Projection -9.273E-03
:INFO :  Singular value  1.018E-04 Weight  2.136E-01 Projection -6.756E-02
:RANK :  ACTIVE   2.21/3  =  73.79 % ; YY RANK   2.13/3  =  71.10 %
 
:BLIM :  VZERO Control Off
:TRUST:  Step 2.43E+00  Charge 7.50E-02 (e) CTO  2.50E-01 (e) PW  3.50E-01 (e)
:DIRM :  MEMORY  3/8  SCALE   1.000 RED  0.29 PRED  0.21 NEXT  0.57 
:TRAVE:  Charge 4.26E-03 (e) CTO  4.25E-03 (e) PW  5.42E-03 (e)
:DIRP :  |MSR1|= 1.208E-03 |PRATT|= 4.839E-03 ANGLE=  40.7 DEGREES
:DIRQ :  |MSR1|= 4.063E-03 |PRATT|= 1.131E-02 ANGLE=  47.9 DEGREES
:DIRT :  |MSR1|= 4.239E-03 |PRATT|= 1.230E-02 ANGLE=  47.4 DEGREES
:MIX  :   MSE1   REGULARIZATION:  1.95E-04 GREED: 0.10131  Newton 1.00  0.3445                
     
       CHARGES OF MIXED CHARGE DENSITY
:CTO   : INTERSTITIAL CHARGE =     8.144402
:CPC   : PW Pseudocharge     =    13.751031
:CTO001: CHARGE SPHERE  1    =    24.466699
:CTO002: CHARGE SPHERE  2    =    31.461100

:NEC03: NUCLEAR AND ELECTRONIC CHARGE    120.00000   120.00000

PW CHANGE     H    K    L      Current       Change    Residue
:PTO001:      0    0    0  4.12903055E-02  5.541E-06  3.246E-05
:PTO002:      0    0   -1  1.85234025E-02 -2.515E-06  5.442E-06
:PTO004:     -1    0   -1 -9.18691887E-02 -8.257E-06 -8.080E-05
:PTO005:      0    0   -2 -1.09226028E-02 -4.182E-06 -2.892E-05
:PTO006:     -1   -1    0 -2.18226168E-02 -1.508E-05 -7.908E-05
:PTO007:     -1   -1   -1  2.14230154E-02 -2.504E-05 -7.817E-05
:PTO008:     -1    0   -2  4.47383874E-03 -1.366E-05 -2.211E-05
:PTO009:     -1   -1   -2  2.77680288E-02  4.060E-07  2.280E-05
:PTO010:     -2    0    0 -1.27373755E-02  6.006E-06  5.157E-06
:PTO011:      0    0   -3  1.38847707E-03 -1.004E-06 -4.850E-06
:PTO012:     -2    0   -1  2.20352244E-03 -8.849E-06  3.200E-06
:PTO014:     -1    0   -3  9.26772563E-03  5.776E-07  2.916E-05

:ENE  : ********** TOTAL ENERGY IN Ry =       -14810.32228231

       TOTAL FORCE IN mRy/a.u. = |F|     Fx             Fy             Fz     with/without FOR in case.in2
:FOR001:   1.ATOM          0.000          0.000          0.000          0.000 partial forces
:FOR002:   2.ATOM        346.274          0.000          0.000        346.274 partial forces
       TOTAL FORCE WITH RESPECT TO GLOBAL CARTESIAN COORDINATES:
:FCA001:   1.ATOM                         0.000          0.000          0.000 partial forces
:FCA002:   2.ATOM                         0.000          0.000        346.274 partial forces
       TOTAL FORCE WITH RESPECT TO THE GLOBAL COORDINATE SYSTEM:
:FGL001:   1.ATOM                 0.000000000     0.000000000     0.000000000 partial forces
:FGL002:   2.ATOM                 0.000000000     0.000000000   346.274220475 partial forces

------- case.scf0 --------
 Flat Integration
 New Mode for Coulomb Integral
 Consistent 3/8+Simpson combinations
 Extension of core to zero
 LDM version in phi
 Fifth-order quadrature in outwin


            ---------
:ITE053: 53. ITERATION
            ---------

:NATO :    2 INDEPENDENT AND    4 TOTAL ATOMS IN UNITCELL
       SUBSTANCE: FeSe                                                        

       LATTICE                      = P   
:POT  : POTENTIAL OPTION EX_LDA EC_LDA VX_LDA VC_LDA
:LAT  : LATTICE CONSTANTS=  7.12881  7.12881 10.43450    1.571    1.571    1.571
:VOL  : UNIT CELL VOLUME =     530.28024
       MODE OF CALCULATION IS       = RELA
       NON-SPINPOLARIZED CALCULATION
:IFFT  : FFT-parameters:   60   60   80 Factor: 2.00


   CONVERGENCE PARAMETER FOR PSEUDOCHARGE: NCON=  9
   MAXIMAL VALUE OF RMT(JATOM)*ABSK(NKK) : RK  =25.91023


:VKCOUL :  VK-COUL convergence: 0.314E-06
       ATOMNUMBER=  1 Fe         VCOUL-ZERO =  0.21345E+00
:EFG001:                        EFG         =     0.80244   *10**21  V / m**2
                               V20  TOT/SRF=     0.69493    -0.05235
                               V22  TOT/SRF=     0.00000     0.00000
                               V22M TOT/SRF=     0.00000     0.00000
                               V21  TOT/SRF=     0.00000     0.00000
                               V21M TOT/SRF=     0.00000     0.00000

             -0.40122    0.00000    0.00000       -0.40122    0.00000    0.00000
              0.00000   -0.40122    0.00000        0.00000   -0.40122    0.00000
              0.00000    0.00000    0.80244        0.00000    0.00000    0.80244

         MAIN DIRECTIONS OF THE EFG   1.0000  0.0000  0.0000
                                      0.0000  1.0000  0.0000
                                      0.0000  0.0000  1.0000
:ANG001:  ANGLE WITH OLD X-AXIS =         0.0

:ETA001:                         ASYMM. ETA =     0.00000


       ATOMNUMBER=  2 Se         VCOUL-ZERO =  0.76469E-01
:EFG002:                        EFG         =    -4.96368   *10**21  V / m**2
                               V20  TOT/SRF=    -4.29868    -0.00056
                               V22  TOT/SRF=     0.00000     0.00000
                               V22M TOT/SRF=     0.00000     0.00000
                               V21  TOT/SRF=     0.00000     0.00000
                               V21M TOT/SRF=     0.00000     0.00000

              2.48184    0.00000    0.00000        2.48184    0.00000    0.00000
              0.00000    2.48184    0.00000        0.00000    2.48184    0.00000
              0.00000    0.00000   -4.96368        0.00000    0.00000   -4.96368

         MAIN DIRECTIONS OF THE EFG   1.0000  0.0000  0.0000
                                      0.0000  1.0000  0.0000
                                      0.0000  0.0000  1.0000
:ANG002:  ANGLE WITH OLD X-AXIS =         0.0

:ETA002:                         ASYMM. ETA =     0.00000


     HELLMANN-FEYNMAN-FORCE IN mRy/a.u. = |F|  Fx       Fy             Fz
:FHF001:   1.ATOM      0.000000000000      0.000000000000      0.000000000000      0.000000000000

     HELLMANN-FEYNMAN-FORCE IN mRy/a.u. = |F|  Fx       Fy             Fz
:FHF002:   2.ATOM   1660.387766202517      0.000000000000      0.000000000000   1660.387766202517

:FIT001: LUSE= 13 SIGMA OF V-XC FIT FOR ATOM  1  0.1880639E-02
:FIT001: LUSE= 13 SIGMA OF V-XC FIT FOR ATOM  1  0.1880639E-02
:FIT002: LUSE= 13 SIGMA OF V-XC FIT FOR ATOM  2  0.3476811E-03
:FIT002: LUSE= 13 SIGMA OF V-XC FIT FOR ATOM  2  0.3476811E-03
:DEN  : DENSITY INTEGRAL  =         -6215.73297206   (Ry)
       ELS_POTENTIAL_AT Z=0 and Z=0.5:  -0.79124   0.69317
       ELS_POTENTIAL_AT Y=0 and Y=0.5:   0.00000   0.00000
:VZERO:v0,v0c,v0x  -1.61078  -0.79124  -0.81954 v5,v5c,v5x   0.18889   0.69317  -0.50427
:VZERY:v0,v0c,v0x  -0.71419   0.00000  -0.71419 v5,v5c,v5x  -0.71419   0.00000  -0.71419
:VZERX:v0,v0c,v0x   0.10879   0.79505  -0.68626 v5,v5c,v5x   0.10879   0.79505  -0.68626

------- case.scf1 --------
:LMAX-WF:   10   Non-Spherical LMAX:   4

          ATOMIC SPHERE DEPENDENT PARAMETERS FOR ATOM  Fe        
:e__0001: OVERALL ENERGY PARAMETER IS    0.1865
          OVERALL BASIS SET ON ATOM IS LAPW
:E1_0001: E( 1)=    0.1865
             APW+lo
:E1_0001: E( 1)=   -3.5859   E(BOTTOM)=   -3.675   E(TOP)=   -3.497  1  2   136
             LOCAL ORBITAL
:E2_0001: E( 2)=    0.2109   E(BOTTOM)=   -0.136   E(TOP)=    0.558  0  1   136
             APW+lo
:E0_0001: E( 0)=    0.1865
             APW+lo

          ATOMIC SPHERE DEPENDENT PARAMETERS FOR ATOM  Se        
:e__0002: OVERALL ENERGY PARAMETER IS    0.1865
          OVERALL BASIS SET ON ATOM IS LAPW
:E2_0002: E( 2)=    0.1865
             APW+lo
:E2_0002: E( 2)=   -3.1395   E(BOTTOM)=   -3.184   E(TOP)=   -3.095  0  1   144
             LOCAL ORBITAL
:E0_0002: E( 0)=    0.5865
             APW+lo
:E0_0002: E( 0)=   -1.0200   E(BOTTOM)=   -1.615   E(TOP)= -200.000  3 -1   184
             LOCAL ORBITAL
:E1_0002: E( 1)=    0.1865
             APW+lo

       K=   0.04545   0.04545   0.07143            1
:RKM  : MATRIX SIZE   582LOs:  54  RKM= 7.97  WEIGHT= 8.00  PGR:    
       EIGENVALUES ARE:
:EIG00001:      -3.5740783   -3.5738629   -3.5655232   -3.5653082   -3.5612540
:EIG00006:      -3.5593767   -3.1298407   -3.1297358   -3.1291822   -3.1291290
:EIG00011:      -3.1286882   -3.1286660   -3.1286167   -3.1286088   -3.1277919
:EIG00016:      -3.1277668   -0.6693778   -0.5816042   -0.0418440    0.0565042
:EIG00021:       0.0662166    0.0703945    0.1227382    0.1381919    0.1425227
:EIG00026:       0.2602119    0.2743793    0.2980943    0.3148163    0.3156761
:EIG00031:       0.3525202    0.4346336    0.5058975    0.5131657    0.6049863
:EIG00036:       0.7230797    0.7933333    0.8936756    0.9034324    0.9135401
:EIG00041:       1.2593647    1.2607765    1.3074175    1.3433124    1.3532756
:EIG00046:       1.3547710    1.4096094    1.4433064    1.4592407    1.4931127
 
:EIG00051:       1.5958942    1.6080442    1.7039892    1.7373829    1.8489374
       ********************************************************

:KPT   :      NUMBER OF K-POINTS:    84

------- case.scf2 --------
:GMA  : POTENTIAL AND CHARGE CUT-OFF  12.00 Ry**.5




:POS001: at.nr.  -1 position = 0.25000 0.75000 0.00000  multiplicity =  2

       lmmax  8
       lm=   0 0  2 0 -3 2  4 0  4 4 -5 2  6 0  6 4




:POS002: at.nr.  -2 position = 0.25000 0.75000 0.00000  multiplicity =  2

       lmmax 10
       lm=   0 0  1 0  2 0  3 0  4 0  4 4  5 0  5 4  6 0  6 4
:FER gutzwiller fermi energy   0.43120
:EORB        -21.730704686
:SUM sum of gutz band energies       -101.925493319

:CHA001: total charge inside sphere   1 =    12.469748
:PCS001: partial charges sphere =  1 s,p,d,f,pz,pxy,,d-z2,d-xy,d-x2y2,d-xz,yz 
:QTL001: 0.2855 6.2754 5.8871 0.0179 2.0778 4.1976 0.0000 1.3344 1.2155 1.1398 2.1974 0.0000
:VZZ001: efg inside sphere   1 =     0.822887      up to r =   2.16000

:CHA002: total charge inside sphere   2 =    13.459025
:PCS002: partial charges sphere =  2 s,p,d,f,pz,pxy,,d-z2,d-xy,d-x2y2,d-xz,yz 
:QTL002: 1.3538 2.056910.0366 0.0098 0.7016 1.3553 0.0000 2.0072 2.0070 2.0058 4.0166 0.0000
:VZZ002: efg inside sphere   2 =    -4.914546      up to r =   2.05000

:CHA  : total charge inside unit cell =      60.000000

------- case.scfc --------

        1.ATOM      Fe                    5 CORE STATES
:1S 001: 1S                -512.322557472 Ry
:2S 001: 2S                 -59.265509171 Ry
:2PP001: 2P*                -51.066398088 Ry
:2P 001: 2P                 -50.151289952 Ry
:3S 001: 3S                  -6.031296286 Ry

        2.ATOM      Se                    7 CORE STATES
       CORE-FORCE in mRy/a.u. = |F|      Fx             Fy             Fz
:FCO002:   2.ATOM   1313.939479236028      0.000000000000      0.000000000000  -1313.939479236028

:1S 002: 1S                -916.436632230 Ry
:2S 002: 2S                -117.098052824 Ry
:2PP002: 2P*               -105.073043420 Ry
:2P 002: 2P                -102.009827836 Ry
:3S 002: 3S                 -14.830218968 Ry
:3PP002: 3P*                -10.717409740 Ry
:3P 002: 3P                 -10.284989185 Ry

------- case.scfm --------
:CINT001 Core Integral Atom   1   11.997260
:CINT002 Core Integral Atom   2   17.999408

       DENSITY AT NUCLEUS
        JATOM        VALENCE       SEMI-CORE          CORE           TOTAL
:RTO001:   1        6.326247        0.000000    14798.338247    14804.664494
:RTO002:   2       55.687805        0.000000    38924.667738    38980.355543
     
       CHARGES OF NEW CHARGE DENSITY
:NTO   : INTERSTITIAL CHARGE =     8.142518
:NPC   : PW Pseudocharge     =    13.741315
:NTO001: CHARGE SPHERE  1    =    24.467008
:NTO002: CHARGE SPHERE  2    =    31.458433

:NEC01: NUCLEAR AND ELECTRONIC CHARGE    120.00000   119.99340
     
       CHARGES OF OLD CHARGE DENSITY
:OTO   : INTERSTITIAL CHARGE =     8.144402
:OPC   : PW Pseudocharge     =    13.751031
:OTO001: CHARGE SPHERE  1    =    24.466699
:OTO002: CHARGE SPHERE  2    =    31.461100

:NEC02: NUCLEAR AND ELECTRONIC CHARGE    120.00000   120.00000
     
       CONVERGENCE TEST
:DTO001: DIFFERENCE IN SPHERE  1 =  0.0016897
:DTO002: DIFFERENCE IN SPHERE  2 =  0.0018494

:DIS  :  CHARGE DISTANCE       ( 0.0018494 for atom    2 spin 1)      0.0017696
 PW Mixed is          365
 
******************************************************
* MULTISECANT MIXING VER9 RELEASE 10.4.0              *
* Standard Mode with controls                        *
* Fixed density scale                                *
* Regularization       1.000E-04                     *
* Trust Upper Limit    5.000E+00                     *
* Max Number of Memory Steps    8                    *
******************************************************
 
:PWTMP   3.7368E+02  3.2249E+02  5.3028E+02
:PLANE:  PW TOTAL      3.7055 DISTAN   2.77E-03  7.48E-02 %
:CHARG:  CLM/ATOM    303.3445 DISTAN   2.57E-03  8.48E-04 %
 
Step History
        DMIX         DMIXT        Red     Pred      Trust     Lambda    MagRel    MagAbs     Beta
  1   3.5000E-02   3.5000E-02 -1.00E+00  1.00E+00 -1.00E+01  1.00E+00  3.50E-02  3.50E-02  1.00E+00
  2   1.5000E-01   1.5000E-01  3.93E-01  1.00E+00 -1.00E+01  1.00E+00  1.50E-01  1.90E-02  1.00E+00
  3   7.1250E-02   7.1250E-02  8.43E-01  9.28E-01  3.00E+00  1.02E+00  1.34E-01  6.67E-03  1.00E+00
  4   1.7813E-01   1.7813E-01  2.93E-01  2.13E-01  1.82E+00  1.77E+00  7.43E-01  3.12E-02  1.00E+00
  5   1.0131E-01   1.0131E-01 -1.00E+00  5.73E-01  2.43E+00  1.00E+00  3.45E-01  4.24E-03  1.00E+00
:JACOBIANS    2.553E-01   8.283E-01
  
:NORMS:  1/Froebius, Min, Max, Used   0.5910E+00  0.3978E+00  0.6856E+00  0.6576E+00
:INFO :  Number of Memory Steps    4 Skipping    0
:INFO :  SLambda=    1.2673026820  Max    1.2673026820
:PREDicted Charge, CTotal, PW Trust    3.072E-03   6.474E-03   4.723E-03
:PREDicted DMix, Beta, BLim   4.5498E-01  1.4246E+00  2.1024E+00

Eigenvalues, unscaled except for SY+YY
   #     SY Real        SY Imag          SS             YY         SY+YY Real      SY+YY Imag
   1   1.243705E+00   0.000000E+00   1.269187E+00   2.935358E+00   4.383465E+00   0.000000E+00
   2   4.516866E-01   0.000000E+00   1.256028E-01   1.056153E+00   1.756463E+00   0.000000E+00
   3   1.000947E-05   0.000000E+00   2.335637E-03   8.430689E-03   1.364611E-02   0.000000E+00
   4   3.990860E-03   0.000000E+00   1.675506E-06   5.835312E-05   7.041864E-05   0.000000E+00
 
:INFO :  Singular value  4.465E+00 Weight  1.000E+00 Projection -4.741E-06
:INFO :  Singular value  1.725E+00 Weight  1.000E+00 Projection -1.539E-04
:INFO :  Singular value  1.365E-02 Weight  9.995E-01 Projection  5.875E-02
:INFO :  Singular value  7.041E-05 Weight  5.441E-02 Projection -6.482E-03
:RANK :  ACTIVE   3.05/4  =  76.35 % ; YY RANK   3.04/4  =  75.92 %
 
:BLIM :  VZERO Control Off
:TRUST:  Step 3.24E+00  Charge 6.00E-02 (e) CTO  2.00E-01 (e) PW  2.80E-01 (e)
:DIRM :  MEMORY  4/8  SCALE   1.000 RED  0.48 PRED  0.57 NEXT  0.66 
:TRAVE:  Charge 2.70E-03 (e) CTO  3.69E-03 (e) PW  4.10E-03 (e)
:DIRP :  |MSR1|= 1.896E-03 |PRATT|= 2.772E-03 ANGLE=  19.7 DEGREES
:DIRQ :  |MSR1|= 3.132E-03 |PRATT|= 5.146E-03 ANGLE=  15.7 DEGREES
:DIRT :  |MSR1|= 3.662E-03 |PRATT|= 5.845E-03 ANGLE=  17.0 DEGREES
:MIX  :   MSE1   REGULARIZATION:  2.94E-04 GREED: 0.25327  Newton 1.00  0.6264                
     
       CHARGES OF MIXED CHARGE DENSITY
:CTO   : INTERSTITIAL CHARGE =     8.147534
:CPC   : PW Pseudocharge     =    13.752471
:CTO001: CHARGE SPHERE  1    =    24.466273
:CTO002: CHARGE SPHERE  2    =    31.459960

:NEC03: NUCLEAR AND ELECTRONIC CHARGE    120.00000   120.00000

PW CHANGE     H    K    L      Current       Change    Residue
:PTO001:      0    0    0  4.12989280E-02  8.622E-06  1.158E-05
:PTO002:      0    0   -1  1.85342000E-02  1.080E-05  2.907E-05
:PTO004:     -1    0   -1 -9.18878707E-02 -1.868E-05 -5.366E-06
:PTO005:      0    0   -2 -1.09313467E-02 -8.744E-06 -6.350E-06
:PTO006:     -1   -1    0 -2.18524822E-02 -2.987E-05 -3.448E-05
:PTO007:     -1   -1   -1  2.13882429E-02 -3.477E-05 -5.456E-05
:PTO008:     -1    0   -2  4.46513922E-03 -8.700E-06 -2.080E-05
:PTO009:     -1   -1   -2  2.77781710E-02  1.014E-05  8.462E-06
:PTO010:     -2    0    0 -1.27335911E-02  3.784E-06  9.537E-06
:PTO011:      0    0   -3  1.38628746E-03 -2.190E-06 -4.970E-06
:PTO012:     -2    0   -1  2.21275193E-03  9.229E-06  1.608E-05
:PTO014:     -1    0   -3  9.28473656E-03  1.701E-05  2.318E-05

:ENE  : ********** TOTAL ENERGY IN Ry =       -14810.32249865

       TOTAL FORCE IN mRy/a.u. = |F|     Fx             Fy             Fz     with/without FOR in case.in2
:FOR001:   1.ATOM          0.000          0.000          0.000          0.000 partial forces
:FOR002:   2.ATOM        346.448          0.000          0.000        346.448 partial forces
       TOTAL FORCE WITH RESPECT TO GLOBAL CARTESIAN COORDINATES:
:FCA001:   1.ATOM                         0.000          0.000          0.000 partial forces
:FCA002:   2.ATOM                         0.000          0.000        346.448 partial forces
       TOTAL FORCE WITH RESPECT TO THE GLOBAL COORDINATE SYSTEM:
:FGL001:   1.ATOM                 0.000000000     0.000000000     0.000000000 partial forces
:FGL002:   2.ATOM                 0.000000000     0.000000000   346.448286966 partial forces

------- case.scf0 --------
 Flat Integration
 New Mode for Coulomb Integral
 Consistent 3/8+Simpson combinations
 Extension of core to zero
 LDM version in phi
 Fifth-order quadrature in outwin


            ---------
:ITE054: 54. ITERATION
            ---------

:NATO :    2 INDEPENDENT AND    4 TOTAL ATOMS IN UNITCELL
       SUBSTANCE: FeSe                                                        

       LATTICE                      = P   
:POT  : POTENTIAL OPTION EX_LDA EC_LDA VX_LDA VC_LDA
:LAT  : LATTICE CONSTANTS=  7.12881  7.12881 10.43450    1.571    1.571    1.571
:VOL  : UNIT CELL VOLUME =     530.28024
       MODE OF CALCULATION IS       = RELA
       NON-SPINPOLARIZED CALCULATION
:IFFT  : FFT-parameters:   60   60   80 Factor: 2.00


   CONVERGENCE PARAMETER FOR PSEUDOCHARGE: NCON=  9
   MAXIMAL VALUE OF RMT(JATOM)*ABSK(NKK) : RK  =25.91023


:VKCOUL :  VK-COUL convergence: 0.315E-06
       ATOMNUMBER=  1 Fe         VCOUL-ZERO =  0.21422E+00
:EFG001:                        EFG         =     0.77494   *10**21  V / m**2
                               V20  TOT/SRF=     0.67112    -0.05097
                               V22  TOT/SRF=     0.00000     0.00000
                               V22M TOT/SRF=     0.00000     0.00000
                               V21  TOT/SRF=     0.00000     0.00000
                               V21M TOT/SRF=     0.00000     0.00000

             -0.38747    0.00000    0.00000       -0.38747    0.00000    0.00000
              0.00000   -0.38747    0.00000        0.00000   -0.38747    0.00000
              0.00000    0.00000    0.77494        0.00000    0.00000    0.77494

         MAIN DIRECTIONS OF THE EFG   1.0000  0.0000  0.0000
                                      0.0000  1.0000  0.0000
                                      0.0000  0.0000  1.0000
:ANG001:  ANGLE WITH OLD X-AXIS =         0.0

:ETA001:                         ASYMM. ETA =     0.00000


       ATOMNUMBER=  2 Se         VCOUL-ZERO =  0.76219E-01
:EFG002:                        EFG         =    -4.92001   *10**21  V / m**2
                               V20  TOT/SRF=    -4.26086    -0.00071
                               V22  TOT/SRF=     0.00000     0.00000
                               V22M TOT/SRF=     0.00000     0.00000
                               V21  TOT/SRF=     0.00000     0.00000
                               V21M TOT/SRF=     0.00000     0.00000

              2.46001    0.00000    0.00000        2.46001    0.00000    0.00000
              0.00000    2.46001    0.00000        0.00000    2.46001    0.00000
              0.00000    0.00000   -4.92001        0.00000    0.00000   -4.92001

         MAIN DIRECTIONS OF THE EFG   1.0000  0.0000  0.0000
                                      0.0000  1.0000  0.0000
                                      0.0000  0.0000  1.0000
:ANG002:  ANGLE WITH OLD X-AXIS =         0.0

:ETA002:                         ASYMM. ETA =     0.00000


     HELLMANN-FEYNMAN-FORCE IN mRy/a.u. = |F|  Fx       Fy             Fz
:FHF001:   1.ATOM      0.000000000000      0.000000000000      0.000000000000      0.000000000000

     HELLMANN-FEYNMAN-FORCE IN mRy/a.u. = |F|  Fx       Fy             Fz
:FHF002:   2.ATOM   1630.750547027694      0.000000000000      0.000000000000   1630.750547027694

:FIT001: LUSE= 13 SIGMA OF V-XC FIT FOR ATOM  1  0.1878777E-02
:FIT001: LUSE= 13 SIGMA OF V-XC FIT FOR ATOM  1  0.1878777E-02
:FIT002: LUSE= 13 SIGMA OF V-XC FIT FOR ATOM  2  0.3476200E-03
:FIT002: LUSE= 13 SIGMA OF V-XC FIT FOR ATOM  2  0.3476200E-03
:DEN  : DENSITY INTEGRAL  =         -6215.70399213   (Ry)
       ELS_POTENTIAL_AT Z=0 and Z=0.5:  -0.79017   0.69237
       ELS_POTENTIAL_AT Y=0 and Y=0.5:   0.00000   0.00000
:VZERO:v0,v0c,v0x  -1.60980  -0.79017  -0.81963 v5,v5c,v5x   0.18815   0.69237  -0.50422
:VZERY:v0,v0c,v0x  -0.71424   0.00000  -0.71424 v5,v5c,v5x  -0.71424   0.00000  -0.71424
:VZERX:v0,v0c,v0x   0.10893   0.79526  -0.68633 v5,v5c,v5x   0.10893   0.79526  -0.68633

------- case.scf1 --------
:LMAX-WF:   10   Non-Spherical LMAX:   4

          ATOMIC SPHERE DEPENDENT PARAMETERS FOR ATOM  Fe        
:e__0001: OVERALL ENERGY PARAMETER IS    0.1865
          OVERALL BASIS SET ON ATOM IS LAPW
:E1_0001: E( 1)=    0.1865
             APW+lo
:E1_0001: E( 1)=   -3.5853   E(BOTTOM)=   -3.674   E(TOP)=   -3.496  1  2   133
             LOCAL ORBITAL
:E2_0001: E( 2)=    0.2115   E(BOTTOM)=   -0.135   E(TOP)=    0.559  0  1   138
             APW+lo
:E0_0001: E( 0)=    0.1865
             APW+lo

          ATOMIC SPHERE DEPENDENT PARAMETERS FOR ATOM  Se        
:e__0002: OVERALL ENERGY PARAMETER IS    0.1865
          OVERALL BASIS SET ON ATOM IS LAPW
:E2_0002: E( 2)=    0.1865
             APW+lo
:E2_0002: E( 2)=   -3.1404   E(BOTTOM)=   -3.185   E(TOP)=   -3.096  0  1   146
             LOCAL ORBITAL
:E0_0002: E( 0)=    0.5865
             APW+lo
:E0_0002: E( 0)=   -1.0200   E(BOTTOM)=   -1.616   E(TOP)= -200.000  3 -1   180
             LOCAL ORBITAL
:E1_0002: E( 1)=    0.1865
             APW+lo

       K=   0.04545   0.04545   0.07143            1
:RKM  : MATRIX SIZE   582LOs:  54  RKM= 7.97  WEIGHT= 8.00  PGR:    
       EIGENVALUES ARE:
:EIG00001:      -3.5735084   -3.5732930   -3.5649548   -3.5647398   -3.5606910
:EIG00006:      -3.5588140   -3.1307167   -3.1306115   -3.1300557   -3.1300026
:EIG00011:      -3.1295706   -3.1295485   -3.1294993   -3.1294914   -3.1286782
:EIG00016:      -3.1286530   -0.6694834   -0.5818057   -0.0417862    0.0568512
:EIG00021:       0.0665185    0.0706911    0.1233931    0.1383018    0.1426357
:EIG00026:       0.2606931    0.2746375    0.2986928    0.3151882    0.3161526
:EIG00031:       0.3530717    0.4344421    0.5058947    0.5131511    0.6050372
:EIG00036:       0.7233688    0.7934603    0.8937450    0.9035331    0.9135669
:EIG00041:       1.2594738    1.2606105    1.3074051    1.3432375    1.3535830
:EIG00046:       1.3546681    1.4096682    1.4434061    1.4590987    1.4930472
 
:EIG00051:       1.5957469    1.6078222    1.7041156    1.7374219    1.8489851
       ********************************************************

:KPT   :      NUMBER OF K-POINTS:    84

------- case.scf2 --------
:GMA  : POTENTIAL AND CHARGE CUT-OFF  12.00 Ry**.5




:POS001: at.nr.  -1 position = 0.25000 0.75000 0.00000  multiplicity =  2

       lmmax  8
       lm=   0 0  2 0 -3 2  4 0  4 4 -5 2  6 0  6 4




:POS002: at.nr.  -2 position = 0.25000 0.75000 0.00000  multiplicity =  2

       lmmax 10
       lm=   0 0  1 0  2 0  3 0  4 0  4 4  5 0  5 4  6 0  6 4
:FER gutzwiller fermi energy   0.43133
:EORB        -21.725612372
:SUM sum of gutz band energies       -101.935462952

:CHA001: total charge inside sphere   1 =    12.467645
:PCS001: partial charges sphere =  1 s,p,d,f,pz,pxy,,d-z2,d-xy,d-x2y2,d-xz,yz 
:QTL001: 0.2852 6.2750 5.8856 0.0179 2.0778 4.1973 0.0000 1.3341 1.2148 1.1399 2.1968 0.0000
:VZZ001: efg inside sphere   1 =     0.825526      up to r =   2.16000

:CHA002: total charge inside sphere   2 =    13.461038
:PCS002: partial charges sphere =  2 s,p,d,f,pz,pxy,,d-z2,d-xy,d-x2y2,d-xz,yz 
:QTL002: 1.3539 2.058810.0365 0.0098 0.7023 1.3565 0.0000 2.0071 2.0070 2.0059 4.0165 0.0000
:VZZ002: efg inside sphere   2 =    -4.940992      up to r =   2.05000

:CHA  : total charge inside unit cell =      59.999988

------- case.scfc --------

        1.ATOM      Fe                    5 CORE STATES
:1S 001: 1S                -512.322393438 Ry
:2S 001: 2S                 -59.265085287 Ry
:2PP001: 2P*                -51.066010708 Ry
:2P 001: 2P                 -50.150899471 Ry
:3S 001: 3S                  -6.030732118 Ry

        2.ATOM      Se                    7 CORE STATES
       CORE-FORCE in mRy/a.u. = |F|      Fx             Fy             Fz
:FCO002:   2.ATOM   1298.383737279604      0.000000000000      0.000000000000  -1298.383737279604

:1S 002: 1S                -916.437598142 Ry
:2S 002: 2S                -117.098976219 Ry
:2PP002: 2P*               -105.073970204 Ry
:2P 002: 2P                -102.010754101 Ry
:3S 002: 3S                 -14.831129648 Ry
:3PP002: 3P*                -10.718315966 Ry
:3P 002: 3P                 -10.285893099 Ry

------- case.scfm --------
:CINT001 Core Integral Atom   1   11.997260
:CINT002 Core Integral Atom   2   17.999408

       DENSITY AT NUCLEUS
        JATOM        VALENCE       SEMI-CORE          CORE           TOTAL
:RTO001:   1        6.319135        0.000000    14798.343301    14804.662435
:RTO002:   2       55.696474        0.000000    38924.670543    38980.367017
     
       CHARGES OF NEW CHARGE DENSITY
:NTO   : INTERSTITIAL CHARGE =     8.142334
:NPC   : PW Pseudocharge     =    13.743561
:NTO001: CHARGE SPHERE  1    =    24.464905
:NTO002: CHARGE SPHERE  2    =    31.460446

:NEC01: NUCLEAR AND ELECTRONIC CHARGE    120.00000   119.99304
     
       CHARGES OF OLD CHARGE DENSITY
:OTO   : INTERSTITIAL CHARGE =     8.147534
:OPC   : PW Pseudocharge     =    13.752471
:OTO001: CHARGE SPHERE  1    =    24.466273
:OTO002: CHARGE SPHERE  2    =    31.459960

:NEC02: NUCLEAR AND ELECTRONIC CHARGE    120.00000   120.00000
     
       CONVERGENCE TEST
:DTO001: DIFFERENCE IN SPHERE  1 =  0.0013577
:DTO002: DIFFERENCE IN SPHERE  2 =  0.0007766

:DIS  :  CHARGE DISTANCE       ( 0.0013577 for atom    1 spin 1)      0.0010671
 PW Mixed is          365
 
******************************************************
* MULTISECANT MIXING VER9 RELEASE 10.4.0              *
* Standard Mode with controls                        *
* Fixed density scale                                *
* Regularization       1.000E-04                     *
* Trust Upper Limit    5.000E+00                     *
* Max Number of Memory Steps    8                    *
******************************************************
 
:PWTMP   3.7368E+02  3.2249E+02  5.3028E+02
:PLANE:  PW TOTAL      3.7064 DISTAN   1.80E-03  4.85E-02 %
:CHARG:  CLM/ATOM    303.3442 DISTAN   1.48E-03  4.87E-04 %
 
Step History
        DMIX         DMIXT        Red     Pred      Trust     Lambda    MagRel    MagAbs     Beta
  1   3.5000E-02   3.5000E-02 -1.00E+00  1.00E+00 -1.00E+01  1.00E+00  3.50E-02  3.50E-02  1.00E+00
  2   1.5000E-01   1.5000E-01  3.93E-01  1.00E+00 -1.00E+01  1.00E+00  1.50E-01  1.90E-02  1.00E+00
  3   7.1250E-02   7.1250E-02  8.43E-01  9.28E-01  3.00E+00  1.02E+00  1.34E-01  6.67E-03  1.00E+00
  4   1.7813E-01   1.7813E-01  2.93E-01  2.13E-01  1.82E+00  1.77E+00  7.43E-01  3.12E-02  1.00E+00
  5   1.0131E-01   1.0131E-01  4.75E-01  5.73E-01  2.43E+00  1.27E+00  3.45E-01  4.24E-03  1.00E+00
  6   2.5327E-01   2.5327E-01 -1.00E+00  6.56E-01  3.24E+00  1.00E+00  6.26E-01  3.66E-03  1.00E+00
:JACOBIANS    4.405E-01   1.177E+00
  
:NORMS:  1/Froebius, Min, Max, Used   0.6660E+00  0.4660E+00  0.7963E+00  0.7495E+00
:INFO :  Number of Memory Steps    5 Skipping    0
:INFO :  SLambda=    1.3634001418  Max    1.6511415165
:PREDicted Charge, CTotal, PW Trust    1.398E-03   4.716E-03   5.118E-03
:PREDicted DMix, Beta, BLim   4.5752E-01  1.3904E+00  3.9248E+00

Eigenvalues, unscaled except for SY+YY
   #     SY Real        SY Imag          SS             YY         SY+YY Real      SY+YY Imag
   1   1.651785E+00   0.000000E+00   1.574512E+00   2.802771E+00   4.791768E+00   0.000000E+00
   2   4.402270E-01   1.484496E-01   5.641868E-01   1.326770E+00   1.829662E+00   0.000000E+00
   3   4.402270E-01  -1.484496E-01   7.893928E-02   8.692384E-01   1.829662E+00   0.000000E+00
   4   4.785777E-04   0.000000E+00   1.814417E-04   1.160029E-03   1.953300E-03   0.000000E+00
   5   1.011915E-05   0.000000E+00   1.417883E-06   6.051248E-05   7.576596E-05   0.000000E+00
 
:INFO :  Singular value  4.857E+00 Weight  1.000E+00 Projection  6.521E-04
:INFO :  Singular value  2.024E+00 Weight  1.000E+00 Projection -1.040E-03
:INFO :  Singular value  1.631E+00 Weight  1.000E+00 Projection -2.261E-03
:INFO :  Singular value  1.955E-03 Weight  9.799E-01 Projection -4.723E-02
[...]
:JACOBIANS    7.386E-01   2.272E+00
  
:NORMS:  1/Froebius, Min, Max, Used   0.6387E+00  0.4483E+00  0.9261E+00  0.6637E+00
:INFO :  Number of Memory Steps    8 Skipping    1
:INFO :  SLambda=    1.7429367565  Max    1.7429367565
:PREDicted Charge, CTotal, PW Trust    5.958E-05   1.290E-04   1.272E-04
:PREDicted DMix, Beta, BLim   1.3896E-03  7.9816E-01  9.3228E+00

Eigenvalues, unscaled except for SY+YY
   #     SY Real        SY Imag          SS             YY         SY+YY Real      SY+YY Imag
   1   1.890379E+00   0.000000E+00   1.838020E+00   4.172554E+00   6.561393E+00   0.000000E+00
   2   9.418089E-01   0.000000E+00   1.048121E+00   1.870757E+00   3.973944E+00   0.000000E+00
   3   7.477403E-01   0.000000E+00   2.868486E-01   1.285578E+00   2.984418E+00   0.000000E+00
   4   1.813094E-01   0.000000E+00   5.776534E-02   3.717451E-01   7.158126E-01   0.000000E+00
   5   9.673312E-02   0.000000E+00   3.155119E-02   2.692079E-01   4.564852E-01   0.000000E+00
   6   5.313061E-03   0.000000E+00   8.403889E-04   2.938355E-02   4.061280E-02   0.000000E+00
   7   2.088646E-05   0.000000E+00   6.906584E-05   6.933072E-04   1.244589E-04   0.000000E+00
   8   1.516638E-04   0.000000E+00   9.074773E-06   8.109732E-05   9.708085E-04   0.000000E+00
 
:INFO :  Singular value  6.754E+00 Weight  1.000E+00 Projection  6.374E-05
:INFO :  Singular value  4.086E+00 Weight  1.000E+00 Projection -1.243E-04
:INFO :  Singular value  2.839E+00 Weight  1.000E+00 Projection -2.947E-05
:INFO :  Singular value  7.135E-01 Weight  1.000E+00 Projection -2.001E-05
:INFO :  Singular value  4.561E-01 Weight  1.000E+00 Projection -8.542E-05
:INFO :  Singular value  4.051E-02 Weight  9.999E-01 Projection  4.342E-04
:INFO :  Singular value  9.708E-04 Weight  8.441E-01 Projection -3.511E-04
:INFO :  Singular value  1.244E-04 Weight  8.169E-02 Projection  9.406E-05
:RANK :  ACTIVE   6.93/8  =  86.57 % ; YY RANK   6.77/8  =  84.63 %
 
:DLIM :  Beta Active  8.378E-01
:BLIM :  VZERO Control Off
:TRUST:  Step 7.68E+00  Charge 1.79E-02 (e) CTO  5.96E-02 (e) PW  8.34E-02 (e)
:DIRM :  MEMORY  8/8  SCALE   1.000 RED  0.40 PRED  0.12 NEXT  0.32 BETA  0.84
:TRAVE:  Charge 1.45E-04 (e) CTO  2.22E-04 (e) PW  2.92E-04 (e)
:DIRP :  |MSR1|= 1.365E-05 |PRATT|= 8.740E-05 ANGLE=  43.3 DEGREES
:DIRQ :  |MSR1|= 1.996E-05 |PRATT|= 2.807E-04 ANGLE=  48.1 DEGREES
:DIRT :  |MSR1|= 2.419E-05 |PRATT|= 2.940E-04 ANGLE=  49.6 DEGREES
:MIX  :   MSE1   REGULARIZATION:  4.17E-04 GREED: 0.13907  Newton 1.00  0.0823                
     
       CHARGES OF MIXED CHARGE DENSITY
:CTO   : INTERSTITIAL CHARGE =     8.148399
:CPC   : PW Pseudocharge     =    13.754445
:CTO001: CHARGE SPHERE  1    =    24.465808
:CTO002: CHARGE SPHERE  2    =    31.459992

:NEC03: NUCLEAR AND ELECTRONIC CHARGE    120.00000   120.00000

PW CHANGE     H    K    L      Current       Change    Residue
:PTO001:      0    0    0  4.13042802E-02  8.094E-08  1.051E-06
:PTO002:      0    0   -1  1.85288517E-02 -2.171E-08  4.836E-07
:PTO004:     -1    0   -1 -9.19198989E-02 -3.593E-07 -1.869E-06
:PTO005:      0    0   -2 -1.09416039E-02 -8.614E-08 -1.938E-07
:PTO006:     -1   -1    0 -2.18727941E-02 -1.184E-07 -2.530E-07
:PTO007:     -1   -1   -1  2.13848481E-02  9.855E-08  7.909E-07
:PTO008:     -1    0   -2  4.47350073E-03  1.082E-07  1.742E-07
:PTO009:     -1   -1   -2  2.77903992E-02  1.235E-07  5.049E-07
:PTO010:     -2    0    0 -1.27383460E-02 -8.416E-08 -2.757E-07
:PTO011:      0    0   -3  1.38694133E-03  4.714E-09  6.582E-09
:PTO012:     -2    0   -1  2.21933154E-03  6.538E-08  5.068E-08
:PTO014:     -1    0   -3  9.29365408E-03  8.320E-08  6.886E-09

:ENE  : ********** TOTAL ENERGY IN Ry =       -14810.32240890

       TOTAL FORCE IN mRy/a.u. = |F|     Fx             Fy             Fz     with/without FOR in case.in2
:FOR001:   1.ATOM          0.000          0.000          0.000          0.000 partial forces
:FOR002:   2.ATOM        335.788          0.000          0.000        335.788 partial forces
       TOTAL FORCE WITH RESPECT TO GLOBAL CARTESIAN COORDINATES:
:FCA001:   1.ATOM                         0.000          0.000          0.000 partial forces
:FCA002:   2.ATOM                         0.000          0.000        335.788 partial forces
       TOTAL FORCE WITH RESPECT TO THE GLOBAL COORDINATE SYSTEM:
:FGL001:   1.ATOM                 0.000000000     0.000000000     0.000000000 partial forces
:FGL002:   2.ATOM                 0.000000000     0.000000000   335.787566854 partial forces

------- case.scf0 --------
 Flat Integration
 New Mode for Coulomb Integral
 Consistent 3/8+Simpson combinations
 Extension of core to zero
 LDM version in phi
 Fifth-order quadrature in outwin


            ---------
:ITE059: 59. ITERATION
            ---------

:NATO :    2 INDEPENDENT AND    4 TOTAL ATOMS IN UNITCELL
       SUBSTANCE: FeSe                                                        

       LATTICE                      = P   
:POT  : POTENTIAL OPTION EX_LDA EC_LDA VX_LDA VC_LDA
:LAT  : LATTICE CONSTANTS=  7.12881  7.12881 10.43450    1.571    1.571    1.571
:VOL  : UNIT CELL VOLUME =     530.28024
       MODE OF CALCULATION IS       = RELA
       NON-SPINPOLARIZED CALCULATION
:IFFT  : FFT-parameters:   60   60   80 Factor: 2.00


   CONVERGENCE PARAMETER FOR PSEUDOCHARGE: NCON=  9
   MAXIMAL VALUE OF RMT(JATOM)*ABSK(NKK) : RK  =25.91023


:VKCOUL :  VK-COUL convergence: 0.315E-06
       ATOMNUMBER=  1 Fe         VCOUL-ZERO =  0.21406E+00
:EFG001:                        EFG         =     0.76405   *10**21  V / m**2
                               V20  TOT/SRF=     0.66169    -0.05117
                               V22  TOT/SRF=     0.00000     0.00000
                               V22M TOT/SRF=     0.00000     0.00000
                               V21  TOT/SRF=     0.00000     0.00000
                               V21M TOT/SRF=     0.00000     0.00000

             -0.38203    0.00000    0.00000       -0.38203    0.00000    0.00000
              0.00000   -0.38203    0.00000        0.00000   -0.38203    0.00000
              0.00000    0.00000    0.76405        0.00000    0.00000    0.76405

         MAIN DIRECTIONS OF THE EFG   1.0000  0.0000  0.0000
                                      0.0000  1.0000  0.0000
                                      0.0000  0.0000  1.0000
:ANG001:  ANGLE WITH OLD X-AXIS =         0.0

:ETA001:                         ASYMM. ETA =     0.00000


       ATOMNUMBER=  2 Se         VCOUL-ZERO =  0.76287E-01
:EFG002:                        EFG         =    -4.91607   *10**21  V / m**2
                               V20  TOT/SRF=    -4.25745    -0.00065
                               V22  TOT/SRF=     0.00000     0.00000
                               V22M TOT/SRF=     0.00000     0.00000
                               V21  TOT/SRF=     0.00000     0.00000
                               V21M TOT/SRF=     0.00000     0.00000

              2.45804    0.00000    0.00000        2.45804    0.00000    0.00000
              0.00000    2.45804    0.00000        0.00000    2.45804    0.00000
              0.00000    0.00000   -4.91607        0.00000    0.00000   -4.91607

         MAIN DIRECTIONS OF THE EFG   1.0000  0.0000  0.0000
                                      0.0000  1.0000  0.0000
                                      0.0000  0.0000  1.0000
:ANG002:  ANGLE WITH OLD X-AXIS =         0.0

:ETA002:                         ASYMM. ETA =     0.00000


     HELLMANN-FEYNMAN-FORCE IN mRy/a.u. = |F|  Fx       Fy             Fz
:FHF001:   1.ATOM      0.000000000000      0.000000000000      0.000000000000      0.000000000000

     HELLMANN-FEYNMAN-FORCE IN mRy/a.u. = |F|  Fx       Fy             Fz
:FHF002:   2.ATOM   1640.740813063800      0.000000000000      0.000000000000   1640.740813063800

:FIT001: LUSE= 13 SIGMA OF V-XC FIT FOR ATOM  1  0.1878952E-02
:FIT001: LUSE= 13 SIGMA OF V-XC FIT FOR ATOM  1  0.1878952E-02
:FIT002: LUSE= 13 SIGMA OF V-XC FIT FOR ATOM  2  0.3477111E-03
:FIT002: LUSE= 13 SIGMA OF V-XC FIT FOR ATOM  2  0.3477111E-03
:DEN  : DENSITY INTEGRAL  =         -6215.69715234   (Ry)
       ELS_POTENTIAL_AT Z=0 and Z=0.5:  -0.79041   0.69260
       ELS_POTENTIAL_AT Y=0 and Y=0.5:   0.00000   0.00000
:VZERO:v0,v0c,v0x  -1.61000  -0.79041  -0.81960 v5,v5c,v5x   0.18836   0.69260  -0.50424
:VZERY:v0,v0c,v0x  -0.71427   0.00000  -0.71427 v5,v5c,v5x  -0.71427   0.00000  -0.71427
:VZERX:v0,v0c,v0x   0.10899   0.79533  -0.68634 v5,v5c,v5x   0.10899   0.79533  -0.68634

------- case.scf1 --------
:LMAX-WF:   10   Non-Spherical LMAX:   4

          ATOMIC SPHERE DEPENDENT PARAMETERS FOR ATOM  Fe        
:e__0001: OVERALL ENERGY PARAMETER IS    0.1865
          OVERALL BASIS SET ON ATOM IS LAPW
:E1_0001: E( 1)=    0.1865
             APW+lo
:E1_0001: E( 1)=   -3.5856   E(BOTTOM)=   -3.675   E(TOP)=   -3.497  1  2   131
             LOCAL ORBITAL
:E2_0001: E( 2)=    0.2112   E(BOTTOM)=   -0.136   E(TOP)=    0.558  0  1   138
             APW+lo
:E0_0001: E( 0)=    0.1865
             APW+lo

          ATOMIC SPHERE DEPENDENT PARAMETERS FOR ATOM  Se        
:e__0002: OVERALL ENERGY PARAMETER IS    0.1865
          OVERALL BASIS SET ON ATOM IS LAPW
:E2_0002: E( 2)=    0.1865
             APW+lo
:E2_0002: E( 2)=   -3.1402   E(BOTTOM)=   -3.184   E(TOP)=   -3.096  0  1   139
             LOCAL ORBITAL
:E0_0002: E( 0)=    0.5865
             APW+lo
:E0_0002: E( 0)=   -1.0200   E(BOTTOM)=   -1.615   E(TOP)= -200.000  3 -1   180
             LOCAL ORBITAL
:E1_0002: E( 1)=    0.1865
             APW+lo

       K=   0.04545   0.04545   0.07143            1
:RKM  : MATRIX SIZE   582LOs:  54  RKM= 7.97  WEIGHT= 8.00  PGR:    
       EIGENVALUES ARE:
:EIG00001:      -3.5738408   -3.5736254   -3.5652881   -3.5650731   -3.5609785
:EIG00006:      -3.5591016   -3.1305598   -3.1304547   -3.1298984   -3.1298452
:EIG00011:      -3.1294170   -3.1293948   -3.1293456   -3.1293377   -3.1285255
:EIG00016:      -3.1285004   -0.6694791   -0.5817896   -0.0418142    0.0566940
:EIG00021:       0.0663688    0.0705418    0.1231157    0.1382270    0.1425583
:EIG00026:       0.2604616    0.2744751    0.2983682    0.3150031    0.3159239
:EIG00031:       0.3527882    0.4344503    0.5058256    0.5130776    0.6050331
:EIG00036:       0.7232642    0.7934121    0.8937311    0.9035115    0.9135609
:EIG00041:       1.2594582    1.2606496    1.3074224    1.3432573    1.3535275
:EIG00046:       1.3547077    1.4096768    1.4434000    1.4591472    1.4930784
 
:EIG00051:       1.5957827    1.6078737    1.7041229    1.7374208    1.8489998
       ********************************************************

:KPT   :      NUMBER OF K-POINTS:    84

------- case.scf2 --------
:GMA  : POTENTIAL AND CHARGE CUT-OFF  12.00 Ry**.5




:POS001: at.nr.  -1 position = 0.25000 0.75000 0.00000  multiplicity =  2

       lmmax  8
       lm=   0 0  2 0 -3 2  4 0  4 4 -5 2  6 0  6 4




:POS002: at.nr.  -2 position = 0.25000 0.75000 0.00000  multiplicity =  2

       lmmax 10
       lm=   0 0  1 0  2 0  3 0  4 0  4 4  5 0  5 4  6 0  6 4
:FER gutzwiller fermi energy   0.43125
:EORB        -21.728188962
:SUM sum of gutz band energies       -101.936971661

:CHA001: total charge inside sphere   1 =    12.468506
:PCS001: partial charges sphere =  1 s,p,d,f,pz,pxy,,d-z2,d-xy,d-x2y2,d-xz,yz 
:QTL001: 0.2852 6.2751 5.8863 0.0179 2.0778 4.1973 0.0000 1.3342 1.2153 1.1400 2.1970 0.0000
:VZZ001: efg inside sphere   1 =     0.837140      up to r =   2.16000

:CHA002: total charge inside sphere   2 =    13.460595
:PCS002: partial charges sphere =  2 s,p,d,f,pz,pxy,,d-z2,d-xy,d-x2y2,d-xz,yz 
:QTL002: 1.3539 2.058410.0365 0.0098 0.7022 1.3562 0.0000 2.0071 2.0070 2.0059 4.0165 0.0000
:VZZ002: efg inside sphere   2 =    -4.933719      up to r =   2.05000

:CHA  : total charge inside unit cell =      60.000000

------- case.scfc --------

        1.ATOM      Fe                    5 CORE STATES
:1S 001: 1S                -512.322992315 Ry
:2S 001: 2S                 -59.265537796 Ry
:2PP001: 2P*                -51.066484848 Ry
:2P 001: 2P                 -50.151371752 Ry
:3S 001: 3S                  -6.031054552 Ry

        2.ATOM      Se                    7 CORE STATES
       CORE-FORCE in mRy/a.u. = |F|      Fx             Fy             Fz
:FCO002:   2.ATOM   1304.908683996930      0.000000000000      0.000000000000  -1304.908683996930

:1S 002: 1S                -916.437283911 Ry
:2S 002: 2S                -117.098698118 Ry
:2PP002: 2P*               -105.073684210 Ry
:2P 002: 2P                -102.010469182 Ry
:3S 002: 3S                 -14.830971428 Ry
:3PP002: 3P*                -10.718157903 Ry
:3P 002: 3P                 -10.285737469 Ry

------- case.scfm --------
:CINT001 Core Integral Atom   1   11.997260
:CINT002 Core Integral Atom   2   17.999408

       DENSITY AT NUCLEUS
        JATOM        VALENCE       SEMI-CORE          CORE           TOTAL
:RTO001:   1        6.321019        0.000000    14798.346982    14804.668001
:RTO002:   2       55.696391        0.000000    38924.666798    38980.363188
     
       CHARGES OF NEW CHARGE DENSITY
:NTO   : INTERSTITIAL CHARGE =     8.141642
:NPC   : PW Pseudocharge     =    13.742972
:NTO001: CHARGE SPHERE  1    =    24.465766
:NTO002: CHARGE SPHERE  2    =    31.460003

:NEC01: NUCLEAR AND ELECTRONIC CHARGE    120.00000   119.99318
     
       CHARGES OF OLD CHARGE DENSITY
:OTO   : INTERSTITIAL CHARGE =     8.148399
:OPC   : PW Pseudocharge     =    13.754445
:OTO001: CHARGE SPHERE  1    =    24.465808
:OTO002: CHARGE SPHERE  2    =    31.459992

:NEC02: NUCLEAR AND ELECTRONIC CHARGE    120.00000   120.00000
     
       CONVERGENCE TEST
:DTO001: DIFFERENCE IN SPHERE  1 =  0.0000570
:DTO002: DIFFERENCE IN SPHERE  2 =  0.0000250

:DIS  :  CHARGE DISTANCE       ( 0.0000570 for atom    1 spin 1)      0.0000410
 PW Mixed is          365
 
******************************************************
* MULTISECANT MIXING VER9 RELEASE 10.4.0              *
* Standard Mode with controls                        *
* Fixed density scale                                *
* Regularization       1.000E-04                     *
* Trust Upper Limit    5.000E+00                     *
* Max Number of Memory Steps    8                    *
******************************************************
 
:PWTMP   3.7368E+02  3.2249E+02  5.3028E+02
:PLANE:  PW TOTAL      3.7073 DISTAN   2.30E-05  6.19E-04 %
:CHARG:  CLM/ATOM    303.3442 DISTAN   4.54E-05  1.50E-05 %
 
Step History
        DMIX         DMIXT        Red     Pred      Trust     Lambda    MagRel    MagAbs     Beta
  3   7.1250E-02   7.1250E-02  8.43E-01  9.28E-01  3.00E+00  1.02E+00  1.34E-01  6.67E-03  1.00E+00
  4   1.7813E-01   1.7813E-01  2.93E-01  2.13E-01  1.82E+00  1.77E+00  7.43E-01  3.12E-02  1.00E+00
  5   1.0131E-01   1.0131E-01  4.75E-01  5.73E-01  2.43E+00  1.27E+00  3.45E-01  4.24E-03  1.00E+00
  6   2.5327E-01   2.5327E-01  5.92E-01  6.56E-01  3.24E+00  1.36E+00  6.26E-01  3.66E-03  1.00E+00
  7   3.2099E-01   3.2099E-01  6.27E-01  4.87E-01  4.32E+00  1.61E+00  6.74E-01  2.33E-03  1.00E+00
  8   2.4941E-01   2.4941E-01  1.38E-01  2.50E-01  5.76E+00  1.68E+00  2.07E-01  4.49E-04  8.45E-01
  9   2.4810E-01   2.4810E-01  2.45E+00  8.41E-01  7.68E+00  1.79E+00  4.35E-01  1.30E-04  8.68E-01
 10   3.0393E-01   3.0393E-01  4.01E-01  1.24E-01  5.76E+00  1.74E+00  2.15E-01  1.58E-04  9.57E-01
 11   1.3907E-01   1.3907E-01 -1.00E+00  3.23E-01  7.68E+00  1.00E+00  8.23E-02  2.42E-05  8.38E-01
:JACOBIANS    8.165E-01   2.331E+00
  
:NORMS:  1/Froebius, Min, Max, Used   0.6080E+00  0.4900E+00  0.9278E+00  0.6284E+00
:INFO :  Number of Memory Steps    8 Skipping    2
:INFO :  SLambda=    1.8849677553  Max    1.8849677553
:PREDicted Charge, CTotal, PW Trust    7.572E-06   2.466E-05   3.237E-05
:PREDicted DMix, Beta, BLim   1.0051E-01  6.8875E-01  3.8084E+00

Eigenvalues, unscaled except for SY+YY
   #     SY Real        SY Imag          SS             YY         SY+YY Real      SY+YY Imag
   1   1.690389E+00   0.000000E+00   1.645449E+00   4.167478E+00   6.419714E+00   0.000000E+00
   2   7.951839E-01   1.553131E-01   7.469397E-01   1.484153E+00   3.441880E+00   0.000000E+00
   3   7.951839E-01  -1.553131E-01   4.724295E-01   1.295252E+00   3.096980E+00   0.000000E+00
   4   2.050632E-01   0.000000E+00   5.255139E-02   5.047050E-01   1.017328E+00   0.000000E+00
   5   1.133249E-01   0.000000E+00   3.638781E-02   3.405812E-01   5.680668E-01   0.000000E+00
   6   2.239827E-02   0.000000E+00   2.355815E-03   1.834392E-01   2.578180E-01   0.000000E+00
   7   1.130534E-04   0.000000E+00   6.669006E-04   2.423543E-02   3.245908E-02   0.000000E+00
   8   4.195509E-03   0.000000E+00   5.347276E-05   1.560569E-04   3.674677E-04   0.000000E+00
 
:INFO :  Singular value  6.567E+00 Weight  1.000E+00 Projection  1.952E-05
:INFO :  Singular value  3.597E+00 Weight  1.000E+00 Projection  1.164E-05
:INFO :  Singular value  2.969E+00 Weight  1.000E+00 Projection -1.056E-05
:INFO :  Singular value  1.004E+00 Weight  1.000E+00 Projection  4.372E-05
:INFO :  Singular value  5.662E-01 Weight  1.000E+00 Projection -5.727E-05
:INFO :  Singular value  2.566E-01 Weight  1.000E+00 Projection -4.021E-05
:INFO :  Singular value  3.234E-02 Weight  9.998E-01 Projection -8.400E-05
:INFO :  Singular value  3.675E-04 Weight  4.374E-01 Projection -1.693E-03
:RANK :  ACTIVE   7.44/8  =  92.97 % ; YY RANK   7.12/8  =  89.03 %
 
:DLIM :  Beta Active  7.260E-01
:BLIM :  VZERO Control Off
:TRUST:  Step 1.02E+01  Charge 1.43E-02 (e) CTO  4.77E-02 (e) PW  6.67E-02 (e)
:DIRM :  MEMORY  8/8  SCALE   1.000 RED  0.32 PRED  0.32 NEXT  0.48 BETA  0.73
:TRAVE:  Charge 7.52E-05 (e) CTO  1.16E-04 (e) PW  1.47E-04 (e)
:DIRP :  |MSR1|= 1.157E-05 |PRATT|= 2.296E-05 ANGLE=  39.6 DEGREES
:DIRQ :  |MSR1|= 1.292E-05 |PRATT|= 9.076E-05 ANGLE=  26.5 DEGREES
:DIRT :  |MSR1|= 1.734E-05 |PRATT|= 9.362E-05 ANGLE=  39.4 DEGREES
:MIX  :   MSE1   REGULARIZATION:  4.17E-04 GREED: 0.15421  Newton 1.00  0.1853                
     
       CHARGES OF MIXED CHARGE DENSITY
:CTO   : INTERSTITIAL CHARGE =     8.148409
:CPC   : PW Pseudocharge     =    13.754437
:CTO001: CHARGE SPHERE  1    =    24.465803
:CTO002: CHARGE SPHERE  2    =    31.459992

:NEC03: NUCLEAR AND ELECTRONIC CHARGE    120.00000   120.00000

PW CHANGE     H    K    L      Current       Change    Residue
:PTO001:      0    0    0  4.13042859E-02  5.636E-09  1.879E-07
:PTO002:      0    0   -1  1.85289218E-02  7.008E-08  1.814E-07
:PTO004:     -1    0   -1 -9.19196434E-02  2.555E-07  1.505E-07
:PTO005:      0    0   -2 -1.09415219E-02  8.199E-08  9.541E-08
:PTO006:     -1   -1    0 -2.18726289E-02  1.653E-07  2.307E-07
:PTO007:     -1   -1   -1  2.13849176E-02  6.952E-08  2.304E-07
:PTO008:     -1    0   -2  4.47344513E-03 -5.559E-08 -9.388E-08
:PTO009:     -1   -1   -2  2.77903065E-02 -9.266E-08 -1.034E-07
:PTO010:     -2    0    0 -1.27382957E-02  5.026E-08  4.801E-08
:PTO011:      0    0   -3  1.38693263E-03 -8.702E-09 -3.022E-08
:PTO012:     -2    0   -1  2.21929166E-03 -3.988E-08 -6.836E-08
:PTO014:     -1    0   -3  9.29353971E-03 -1.144E-07 -2.465E-07

:ENE  : ********** TOTAL ENERGY IN Ry =       -14810.32240051

       TOTAL FORCE IN mRy/a.u. = |F|     Fx             Fy             Fz     with/without FOR in case.in2
:FOR001:   1.ATOM          0.000          0.000          0.000          0.000 partial forces
:FOR002:   2.ATOM        335.832          0.000          0.000        335.832 partial forces
       TOTAL FORCE WITH RESPECT TO GLOBAL CARTESIAN COORDINATES:
:FCA001:   1.ATOM                         0.000          0.000          0.000 partial forces
:FCA002:   2.ATOM                         0.000          0.000        335.832 partial forces
       TOTAL FORCE WITH RESPECT TO THE GLOBAL COORDINATE SYSTEM:
:FGL001:   1.ATOM                 0.000000000     0.000000000     0.000000000 partial forces
:FGL002:   2.ATOM                 0.000000000     0.000000000   335.832129067 partial forces
