
:LABEL1: Calculations in /home/ykent/GWIEN/example/Pr/aU/V12/case
:LABEL2: on didymium-2.cmpgroup.ameslab.gov at Fri Jul 10 13:23:19 CDT 2020
:LABEL3: using WIEN2k_19.1 (Release 25/6/2019) in /home/ykent/opt/src/WIEN2k_19.1
:LABEL4: using the command: run_lapw -cc 0.0001
 Flat Integration
 New Mode for Coulomb Integral
 Consistent 3/8+Simpson combinations
 Extension of core to zero
 LDM version in phi
 Fifth-order quadrature in outwin


            ---------
:ITE001:  1. ITERATION
            ---------

:NATO :    1 INDEPENDENT AND    2 TOTAL ATOMS IN UNITCELL
       SUBSTANCE: aU                                                          

       LATTICE                      = CXY 
:POT  : POTENTIAL OPTION EX_LDA EC_LDA VX_LDA VC_LDA
:LAT  : LATTICE CONSTANTS=  6.02469 12.22562 10.55463    1.571    1.571    1.571
:VOL  : UNIT CELL VOLUME =     388.70398
       MODE OF CALCULATION IS       = RELA
       NON-SPINPOLARIZED CALCULATION
:IFFT  : FFT-parameters:   48   96   90 Factor: 2.00


   CONVERGENCE PARAMETER FOR PSEUDOCHARGE: NCON=  9
   MAXIMAL VALUE OF RMT(JATOM)*ABSK(NKK) : RK  =27.59258


:VKCOUL :  VK-COUL convergence: 0.195E-06
       ATOMNUMBER=  1 Pr1        VCOUL-ZERO =  0.26026E+00
:EFG001:                        EFG         =    -0.04246   *10**21  V / m**2
                               V20  TOT/SRF=    -0.03677    -0.04592
                               V22  TOT/SRF=     0.00615     0.00735
                               V22M TOT/SRF=     0.00000     0.00000
                               V21  TOT/SRF=     0.00000     0.00000
                               V21M TOT/SRF=     0.00000     0.00000

              0.02738    0.00000    0.00000        0.02738    0.00000    0.00000
              0.00000    0.01508    0.00000        0.00000    0.01508    0.00000
              0.00000    0.00000   -0.04246        0.00000    0.00000   -0.04246

         MAIN DIRECTIONS OF THE EFG   1.0000  0.0000  0.0000
                                      0.0000  1.0000  0.0000
                                      0.0000  0.0000  1.0000
:ANG001:  ANGLE WITH OLD X-AXIS =         0.0

:ETA001:                         ASYMM. ETA =     0.28988


     HELLMANN-FEYNMAN-FORCE IN mRy/a.u. = |F|  Fx       Fy             Fz
:FHF001:   1.ATOM    477.887291540125      0.000000000000      0.000000000000   -477.887291540125

:FIT001: LUSE= 13 SIGMA OF V-XC FIT FOR ATOM  1  0.5500059E-05
:FIT001: LUSE= 13 SIGMA OF V-XC FIT FOR ATOM  1  0.5500059E-05
:DEN  : DENSITY INTEGRAL  =        -14179.09875028   (Ry)
       ELS_POTENTIAL_AT Z=0 and Z=0.5:   0.80556   0.80556
       ELS_POTENTIAL_AT Y=0 and Y=0.5:   0.03361   0.03361
:VZERO:v0,v0c,v0x   0.17361   0.80556  -0.63194 v5,v5c,v5x   0.17361   0.80556  -0.63194
:VZERY:v0,v0c,v0x  -0.80322   0.03361  -0.83683 v5,v5c,v5x  -0.80322   0.03361  -0.83683
:VZERX:v0,v0c,v0x  -1.16709  -0.37753  -0.78956 v5,v5c,v5x  -1.16709  -0.37753  -0.78956
:LMAX-WF:   10   Non-Spherical LMAX:   4

          ATOMIC SPHERE DEPENDENT PARAMETERS FOR ATOM  Pr1       
:e__0001: OVERALL ENERGY PARAMETER IS    0.3000
          OVERALL BASIS SET ON ATOM IS LAPW
:E0_0001: E( 0)=    0.3000
             APW+lo
:E0_0001: E( 0)=   -1.8101   E(BOTTOM)=   -2.453   E(TOP)=   -1.167  4  5   198
             LOCAL ORBITAL
:E1_0001: E( 1)=    0.7000
             APW+lo
:E1_0001: E( 1)=   -0.3446   E(BOTTOM)=   -1.312   E(TOP)=    0.622  3  4   205
             LOCAL ORBITAL
:E3_0001: E( 3)=    0.6461   E(BOTTOM)=    0.646   E(TOP)= -200.000  0 -1   104
             APW+lo
:E2_0001: E( 2)=    0.4236   E(BOTTOM)=    0.424   E(TOP)= -200.000  2 -1    93
             APW+lo

       K=   0.06250   0.00000   0.06250            1
:RKM  : MATRIX SIZE   364LOs:  40  RKM= 8.48  WEIGHT= 4.00  PGR:    
       EIGENVALUES ARE:
:EIG00001:      -1.8018913   -1.7707957   -0.5743363   -0.4368374   -0.4067631
:EIG00006:      -0.3969778   -0.3863737   -0.3839612    0.5812781    0.6888259
:EIG00011:       0.8225003    0.8425037    0.8467985    0.8475996    0.8581578
:EIG00016:       0.8795971    0.8851562    0.8863085    0.8886068    0.8923550
:EIG00021:       0.8968271    0.9019093    0.9046644    0.9192717    0.9251533
:EIG00026:       0.9319366    1.0085604    1.0105798    1.0679122    1.0962673
:EIG00031:       1.1037346    1.2310503    1.2711483    1.3339239    1.6347646
:EIG00036:       1.6785375    1.7186391    1.7725212    1.9125424    1.9701278
       ********************************************************

:KPT   :      NUMBER OF K-POINTS:   288
:GAP (global)   :    0.0    Ry =     0.0   eV (metal)
         Bandranges (emin - emax) and occupancy:
:BAN00004:   4   -0.547524   -0.436837  2.00000000
:BAN00005:   5   -0.526453   -0.406763  2.00000000
:BAN00006:   6   -0.502814   -0.389960  2.00000000
:BAN00007:   7   -0.471641   -0.385033  2.00000000
:BAN00008:   8   -0.418393   -0.377557  2.00000000
:BAN00009:   9    0.574698    0.772826  2.00000000
:BAN00010:  10    0.677336    0.796659  2.00000000
:BAN00011:  11    0.707908    0.840367  2.00000000
:BAN00012:  12    0.772639    0.848038  2.00000000
:BAN00013:  13    0.804352    0.874437  1.57539550
:BAN00014:  14    0.832348    0.879078  0.42460449
:BAN00015:  15    0.853003    0.887186  0.00000000
:BAN00016:  16    0.862712    0.887856  0.00000000
:BAN00017:  17    0.873830    0.889406  0.00000000
:BAN00018:  18    0.878766    0.890870  0.00000000
:BAN00019:  19    0.884171    0.896109  0.00000000
        Energy to separate low and high energystates:    0.52470


:NOE  : NUMBER OF ELECTRONS          =   26.000

:FER  : F E R M I - ENERGY(TETRAH.M.)=   0.8525516360
:GMA  : POTENTIAL AND CHARGE CUT-OFF  12.00 Ry**.5

:POS001: ATOM   -1 X,Y,Z = 0.00000 0.89750 0.25000  MULT= 2  ZZ= 59.000  Pr1       

       LMMAX 16
       LM=   0 0  1 0  2 0  2 2  3 0  3 2  4 0  4 2  4 4  5 0  5 2  5 4  6 0  6 2  6 4  6 6

:CHA001: TOTAL VALENCE CHARGE INSIDE SPHERE   1 =   9.0678    (RMT=  2.3000 )
:PCS001: PARTIAL CHARGES SPHERE =  1 S,P,D,F,PX,PY,PZ,D-Z2,D-X2Y2,D-XY,D-XZ,D-YZ 
:QTL001: 1.9483 5.0017 0.8327 1.2842 1.6618 1.6632 1.6767 0.1629 0.1742 0.1594 0.1645 0.1719
        Q-s-low E-s-low   Q-p-low E-p-low   Q-d-low E-d-low   Q-f-low E-f-low
:EPL001:  1.8648 -1.7698    4.8916 -0.4625    0.0054 -0.5006    0.0015 -0.5112
        Q-s-hi  E-s-hi    Q-p-hi  E-p-hi    Q-d-hi  E-d-hi    Q-f-hi  E-f-hi 
:EPH001:  0.0835  0.7201    0.1102  0.7676    0.8273  0.7626    1.2827  0.8212

                      VXX         VYY         VZZ       UP TO R
:VZZ001:             5.78995     5.79930   -11.58925       2.300

:CHA  : TOTAL VALENCE CHARGE INSIDE UNIT CELL =      26.000000

:SUM  : SUM OF EIGENVALUES =          -4.938696531


        1.ATOM      Pr1                  14 CORE STATES
       CORE-FORCE in mRy/a.u. = |F|      Fx             Fy             Fz
:FCO001:   1.ATOM    387.433653125213      0.000000000000      0.000000000000    387.433653125213

:1S 001: 1S               -3066.677351706 Ry
:2S 001: 2S                -492.443118820 Ry
:2PP001: 2P*               -465.540729680 Ry
:2P 001: 2P                -430.143935407 Ry
:3S 001: 3S                -105.541183083 Ry
:3PP001: 3P*                -94.078562738 Ry
:3P 001: 3P                 -87.071227586 Ry
:3DD001: 3D*                -66.997471066 Ry
:3D 001: 3D                 -65.486060485 Ry
:4S 001: 4S                 -20.229315625 Ry
:4PP001: 4P*                -15.936575788 Ry
:4P 001: 4P                 -14.409943109 Ry
:4DD001: 4D*                 -7.344600132 Ry
:4D 001: 4D                  -7.075500896 Ry
:CINT001 Core Integral Atom   1   45.998443

       DENSITY AT NUCLEUS
        JATOM        VALENCE       SEMI-CORE          CORE           TOTAL
:RTO001:   1      648.539568        0.000000   656820.172512   657468.712080
     
       CHARGES OF NEW CHARGE DENSITY
:NTO   : INTERSTITIAL CHARGE =     7.864391
:NPC   : PW Pseudocharge     =    17.555494
:NTO001: CHARGE SPHERE  1    =    55.066247

:NEC01: NUCLEAR AND ELECTRONIC CHARGE    118.00000   117.99689
     
       CHARGES OF OLD CHARGE DENSITY
:OTO   : INTERSTITIAL CHARGE =     6.712460
:OPC   : PW Pseudocharge     =    15.978108
:OTO001: CHARGE SPHERE  1    =    55.644396

:NEC02: NUCLEAR AND ELECTRONIC CHARGE    118.00000   118.00125
     
       CONVERGENCE TEST
:DTO001: DIFFERENCE IN SPHERE  1 =  0.9816356

:DIS  :  CHARGE DISTANCE       ( 0.9816356 for atom    1 spin 1)      0.9816356
 PW Mixed is          404
 
******************************************************
* MULTISECANT MIXING VER9 RELEASE 10.4.0              *
* Standard Mode with controls                        *
* Fixed density scale                                *
* Regularization       1.000E-04                     *
* Trust Upper Limit    5.000E+00                     *
* Max Number of Memory Steps    8                    *
******************************************************
 
:PWTMP   2.8677E+02  1.9467E+02  3.8870E+02
:PLANE:  PW TOTAL      4.7447 DISTAN   6.36E-01  1.34E+01 %
:CHARG:  CLM/ATOM   1382.0529 DISTAN   1.44E+00  1.04E-01 %
 
Step History
        DMIX         DMIXT        Red     Pred      Trust     Lambda    MagRel    MagAbs     Beta
  1   3.5000E-02   3.5000E-02 -1.00E+00  1.00E+00 -1.00E+01  1.00E+00  3.50E-02  3.50E-02  1.00E+00
:INFO :  Note, Pratt in use
:TRUST:  Step 3.75E-02  Charge 7.50E-02 (e) CTO  2.50E-01 (e) PW  3.50E-01 (e)
:DIRM :  MEMORY  0/ 8 SCALE   1.000
Performing Pseudo Compensation
Final Pseudo Compensation Rescaling     1.00000E+00
:MIX  :   PRATT  REGULARIZATION:  1.00E-04 GREED: 0.02500                  
     
       CHARGES OF MIXED CHARGE DENSITY
:CTO   : INTERSTITIAL CHARGE =     6.740116
:CPC   : PW Pseudocharge     =    16.897815
:CTO001: CHARGE SPHERE  1    =    55.629942

:NEC03: NUCLEAR AND ELECTRONIC CHARGE    118.00000   118.00000

PW CHANGE     H    K    L      Current       Change    Residue
:PTO001:      0    0    0  6.08121665E-02  2.448E-03  7.058E-03
:PTO003:      0    2    0  1.54749037E-02  1.091E-03  2.288E-03
:PTO004:     -1    1    0  7.53544777E-02  5.806E-03  8.453E-03
:PTO005:      0    2   -1 -8.76490928E-02 -6.849E-03 -8.350E-03
:PTO006:      0    0   -2 -4.54726908E-02 -3.557E-03 -4.174E-03
:PTO007:     -1    1   -1 -9.39614273E-02 -8.034E-03 -8.161E-03
:PTO008:      0    2   -2 -1.48127824E-02 -1.601E-03 -1.722E-03
:PTO009:     -1    1   -2 -7.31773878E-02 -8.644E-03 -9.678E-03
:PTO011:     -1    3    0 -1.13163138E-02 -1.651E-03 -1.845E-03
:PTO012:     -1    3   -1 -4.96808189E-02 -8.122E-03 -9.926E-03
:PTO013:      0    4    0 -8.97608422E-03 -1.671E-03 -1.773E-03
:PTO014:      0    2   -3  2.02133410E-02  3.803E-03  4.800E-03

:ENE  : ********** TOTAL ENERGY IN Ry =       -36944.30095154

       TOTAL FORCE IN mRy/a.u. = |F|     Fx             Fy             Fz     with/without FOR in case.in2
:FOR001:   1.ATOM         90.454          0.000          0.000        -90.454 partial forces
       TOTAL FORCE WITH RESPECT TO GLOBAL CARTESIAN COORDINATES:
:FCA001:   1.ATOM                         0.000        -90.454          0.000 partial forces
       TOTAL FORCE WITH RESPECT TO THE GLOBAL COORDINATE SYSTEM:
:FGL001:   1.ATOM                 0.000000000   -90.453638415     0.000000000 partial forces
 Flat Integration
 New Mode for Coulomb Integral
 Consistent 3/8+Simpson combinations
 Extension of core to zero
 LDM version in phi
 Fifth-order quadrature in outwin


            ---------
:ITE002:  2. ITERATION
            ---------

:NATO :    1 INDEPENDENT AND    2 TOTAL ATOMS IN UNITCELL
       SUBSTANCE: aU                                                          

       LATTICE                      = CXY 
:POT  : POTENTIAL OPTION EX_LDA EC_LDA VX_LDA VC_LDA
:LAT  : LATTICE CONSTANTS=  6.02469 12.22562 10.55463    1.571    1.571    1.571
:VOL  : UNIT CELL VOLUME =     388.70398
       MODE OF CALCULATION IS       = RELA
       NON-SPINPOLARIZED CALCULATION
:IFFT  : FFT-parameters:   48   96   90 Factor: 2.00


   CONVERGENCE PARAMETER FOR PSEUDOCHARGE: NCON=  9
   MAXIMAL VALUE OF RMT(JATOM)*ABSK(NKK) : RK  =27.59258


:VKCOUL :  VK-COUL convergence: 0.125E-06
       ATOMNUMBER=  1 Pr1        VCOUL-ZERO =  0.26471E+00
:EFG001:                        EFG         =    -0.33231   *10**21  V / m**2
                               V20  TOT/SRF=    -0.28779    -0.04565
                               V22  TOT/SRF=     0.00560     0.00668
                               V22M TOT/SRF=     0.00000     0.00000
                               V21  TOT/SRF=     0.00000     0.00000
                               V21M TOT/SRF=     0.00000     0.00000

              0.17176    0.00000    0.00000        0.17176    0.00000    0.00000
              0.00000    0.16055    0.00000        0.00000    0.16055    0.00000
              0.00000    0.00000   -0.33231        0.00000    0.00000   -0.33231

         MAIN DIRECTIONS OF THE EFG   1.0000  0.0000  0.0000
                                      0.0000  1.0000  0.0000
                                      0.0000  0.0000  1.0000
:ANG001:  ANGLE WITH OLD X-AXIS =         0.0

:ETA001:                         ASYMM. ETA =     0.03373


     HELLMANN-FEYNMAN-FORCE IN mRy/a.u. = |F|  Fx       Fy             Fz
:FHF001:   1.ATOM    481.306779349297      0.000000000000      0.000000000000   -481.306779349297

:FIT001: LUSE= 13 SIGMA OF V-XC FIT FOR ATOM  1  0.5636931E-05
:FIT001: LUSE= 13 SIGMA OF V-XC FIT FOR ATOM  1  0.5636931E-05
:DEN  : DENSITY INTEGRAL  =        -14176.60618151   (Ry)
       ELS_POTENTIAL_AT Z=0 and Z=0.5:   0.81263   0.81263
       ELS_POTENTIAL_AT Y=0 and Y=0.5:   0.03743   0.03743
:VZERO:v0,v0c,v0x   0.17979   0.81263  -0.63284 v5,v5c,v5x   0.17979   0.81263  -0.63284
:VZERY:v0,v0c,v0x  -0.80243   0.03743  -0.83986 v5,v5c,v5x  -0.80243   0.03743  -0.83986
:VZERX:v0,v0c,v0x  -1.18033  -0.38414  -0.79619 v5,v5c,v5x  -1.18033  -0.38414  -0.79619
:LMAX-WF:   10   Non-Spherical LMAX:   4

          ATOMIC SPHERE DEPENDENT PARAMETERS FOR ATOM  Pr1       
:e__0001: OVERALL ENERGY PARAMETER IS    0.5000
          OVERALL BASIS SET ON ATOM IS LAPW
:E0_0001: E( 0)=    0.5000
             APW+lo
:E0_0001: E( 0)=   -1.8160   E(BOTTOM)=   -2.457   E(TOP)=   -1.175  4  5   198
             LOCAL ORBITAL
:E1_0001: E( 1)=    0.9000
             APW+lo
:E1_0001: E( 1)=   -0.3492   E(BOTTOM)=   -1.314   E(TOP)=    0.615  3  4   201
             LOCAL ORBITAL
:E3_0001: E( 3)=    0.6348   E(BOTTOM)=    0.635   E(TOP)= -200.000  0 -1    82
             APW+lo
:E2_0001: E( 2)=    0.5000   E(BOTTOM)=    0.423   E(TOP)= -200.000  2 -1    75
             APW+lo

       K=   0.06250   0.00000   0.06250            1
:RKM  : MATRIX SIZE   364LOs:  40  RKM= 8.48  WEIGHT= 4.00  PGR:    
       EIGENVALUES ARE:
:EIG00001:      -1.8068263   -1.7760834   -0.5757390   -0.4397717   -0.4099468
:EIG00006:      -0.4001949   -0.3895313   -0.3873232    0.5851142    0.6921817
:EIG00011:       0.8185881    0.8332985    0.8358818    0.8383821    0.8471516
:EIG00016:       0.8668917    0.8739016    0.8747042    0.8792652    0.8799268
:EIG00021:       0.8845309    0.8910399    0.8914248    0.9051141    0.9138855
:EIG00026:       0.9229172    1.0068835    1.0111160    1.0686725    1.0972699
:EIG00031:       1.1043102    1.2320609    1.2713457    1.3337651    1.6366222
:EIG00036:       1.6801810    1.7209556    1.7734835    1.9155196    1.9732723
:EIG00041:       2.0969710    2.1911386
       ********************************************************

:KPT   :      NUMBER OF K-POINTS:   288
:GAP (global)   :    0.0    Ry =     0.0   eV (metal)
         Bandranges (emin - emax) and occupancy:
:BAN00004:   4   -0.549190   -0.439772  2.00000000
:BAN00005:   5   -0.528561   -0.409947  2.00000000
:BAN00006:   6   -0.504985   -0.393257  2.00000000
:BAN00007:   7   -0.474091   -0.388382  2.00000000
:BAN00008:   8   -0.421320   -0.380987  2.00000000
:BAN00009:   9    0.578559    0.772377  2.00000000
:BAN00010:  10    0.680828    0.796071  2.00000000
:BAN00011:  11    0.710880    0.836015  2.00000000
:BAN00012:  12    0.773421    0.841355  2.00000000
:BAN00013:  13    0.801473    0.861841  1.57355915
:BAN00014:  14    0.825410    0.869611  0.42644085
:BAN00015:  15    0.843047    0.874360  0.00000000
:BAN00016:  16    0.852756    0.875145  0.00000000
:BAN00017:  17    0.861752    0.876660  0.00000000
:BAN00018:  18    0.866790    0.878185  0.00000000
:BAN00019:  19    0.872147    0.883449  0.00000000
        Energy to separate low and high energystates:    0.52856


:NOE  : NUMBER OF ELECTRONS          =   26.000

:FER  : F E R M I - ENERGY(TETRAH.M.)=   0.8430018176
:GMA  : POTENTIAL AND CHARGE CUT-OFF  12.00 Ry**.5

:POS001: ATOM   -1 X,Y,Z = 0.00000 0.89750 0.25000  MULT= 2  ZZ= 59.000  Pr1       

       LMMAX 16
       LM=   0 0  1 0  2 0  2 2  3 0  3 2  4 0  4 2  4 4  5 0  5 2  5 4  6 0  6 2  6 4  6 6

:CHA001: TOTAL VALENCE CHARGE INSIDE SPHERE   1 =   9.1954    (RMT=  2.3000 )
:PCS001: PARTIAL CHARGES SPHERE =  1 S,P,D,F,PX,PY,PZ,D-Z2,D-X2Y2,D-XY,D-XZ,D-YZ 
:QTL001: 1.9469 5.0003 0.7838 1.4635 1.6621 1.6628 1.6754 0.1517 0.1586 0.1531 0.1563 0.1641
        Q-s-low E-s-low   Q-p-low E-p-low   Q-d-low E-d-low   Q-f-low E-f-low
:EPL001:  1.8658 -1.7752    4.9001 -0.4651    0.0053 -0.5031    0.0015 -0.5136
        Q-s-hi  E-s-hi    Q-p-hi  E-p-hi    Q-d-hi  E-d-hi    Q-f-hi  E-f-hi 
:EPH001:  0.0811  0.7199    0.1002  0.7639    0.7785  0.7595    1.4621  0.8148

                      VXX         VYY         VZZ       UP TO R
:VZZ001:             4.15689     5.60841    -9.76530       2.300

:CHA  : TOTAL VALENCE CHARGE INSIDE UNIT CELL =      26.000000

:SUM  : SUM OF EIGENVALUES =          -5.002302324


        1.ATOM      Pr1                  14 CORE STATES
       CORE-FORCE in mRy/a.u. = |F|      Fx             Fy             Fz
:FCO001:   1.ATOM    397.461692458833      0.000000000000      0.000000000000    397.461692458833

:1S 001: 1S               -3066.708189957 Ry
:2S 001: 2S                -492.473499701 Ry
:2PP001: 2P*               -465.571171703 Ry
:2P 001: 2P                -430.174350203 Ry
:3S 001: 3S                -105.570404093 Ry
:3PP001: 3P*                -94.107876896 Ry
:3P 001: 3P                 -87.100390010 Ry
:3DD001: 3D*                -67.026912580 Ry
:3D 001: 3D                 -65.515462586 Ry
:4S 001: 4S                 -20.251405008 Ry
:4PP001: 4P*                -15.958231587 Ry
:4P 001: 4P                 -14.430923871 Ry
:4DD001: 4D*                 -7.364374466 Ry
:4D 001: 4D                  -7.095043502 Ry
:CINT001 Core Integral Atom   1   45.998461

       DENSITY AT NUCLEUS
        JATOM        VALENCE       SEMI-CORE          CORE           TOTAL
:RTO001:   1      648.855509        0.000000   656821.730719   657470.586228
     
       CHARGES OF NEW CHARGE DENSITY
:NTO   : INTERSTITIAL CHARGE =     7.609241
:NPC   : PW Pseudocharge     =    17.467276
:NTO001: CHARGE SPHERE  1    =    55.193840

:NEC01: NUCLEAR AND ELECTRONIC CHARGE    118.00000   117.99692
     
       CHARGES OF OLD CHARGE DENSITY
:OTO   : INTERSTITIAL CHARGE =     6.740116
:OPC   : PW Pseudocharge     =    16.897815
:OTO001: CHARGE SPHERE  1    =    55.629942

:NEC02: NUCLEAR AND ELECTRONIC CHARGE    118.00000   118.00000
     
       CONVERGENCE TEST
:DTO001: DIFFERENCE IN SPHERE  1 =  0.7392640

:DIS  :  CHARGE DISTANCE       ( 0.7392640 for atom    1 spin 1)      0.7392640
 PW Mixed is          404
 
******************************************************
* MULTISECANT MIXING VER9 RELEASE 10.4.0              *
* Slow Mode, cautious                                *
* Fixed density scale                                *
* Regularization       1.000E-04                     *
* Step Trust Radius    0.75000                       *
* Trust Upper Limit    2.000E+00                     *
* Max Number of Memory Steps   12                    *
******************************************************
 
:PWTMP   2.8677E+02  1.9467E+02  3.8870E+02
:PLANE:  PW TOTAL      5.1278 DISTAN   2.22E-01  4.34E+00 %
:CHARG:  CLM/ATOM   1382.0474 DISTAN   1.12E+00  8.13E-02 %
 
Step History
        DMIX         DMIXT        Red     Pred      Trust     Lambda    MagRel    MagAbs     Beta
  1   3.5000E-02   3.5000E-02 -1.00E+00  1.00E+00 -1.00E+01  1.00E+00  3.50E-02  3.50E-02  1.00E+00
  2   2.5000E-02   2.5000E-02 -1.00E+00  1.00E+00 -1.00E+01  1.00E+00  2.50E-02  3.94E-02  1.00E+00
:JACOBIANS    3.174E-01   1.755E-02
  
:TRUST:  Step 4.23E-02  Charge 7.50E-02 (e) CTO  2.50E-01 (e) PW  3.50E-01 (e)
:DIRM :  MEMORY  1/12 SCALE   1.000
:MIX  :   PRATT  REGULARIZATION:  1.00E-04 GREED: 0.04227  Expand 1.69  0.0423                
     
       CHARGES OF MIXED CHARGE DENSITY
:CTO   : INTERSTITIAL CHARGE =     6.773927
:CPC   : PW Pseudocharge     =    17.977015
:CTO001: CHARGE SPHERE  1    =    55.613037

:NEC03: NUCLEAR AND ELECTRONIC CHARGE    118.00000   118.00000

PW CHANGE     H    K    L      Current       Change    Residue
:PTO001:      0    0    0  6.36755547E-02  2.863E-03  3.727E-03
:PTO003:      0    2    0  1.67515375E-02  1.277E-03  1.166E-03
:PTO004:     -1    1    0  8.21453908E-02  6.791E-03  2.643E-03
:PTO005:      0    2   -1 -9.56598972E-02 -8.011E-03 -1.469E-03
:PTO006:      0    0   -2 -4.96333280E-02 -4.161E-03 -6.187E-04
:PTO007:     -1    1   -1 -1.03358387E-01 -9.397E-03 -2.928E-04
:PTO008:      0    2   -2 -1.66847712E-02 -1.872E-03 -1.237E-04
:PTO009:     -1    1   -2 -8.32872203E-02 -1.011E-02 -1.237E-03
:PTO011:     -1    3    0 -1.32473582E-02 -1.931E-03 -2.359E-04
:PTO012:     -1    3   -1 -5.91807389E-02 -9.500E-03 -1.931E-03
:PTO013:      0    4    0 -1.09302043E-02 -1.954E-03 -1.091E-04
:PTO014:      0    2   -3  2.46619757E-02  4.449E-03  9.850E-04

:ENE  : ********** TOTAL ENERGY IN Ry =       -36944.27328171

       TOTAL FORCE IN mRy/a.u. = |F|     Fx             Fy             Fz     with/without FOR in case.in2
:FOR001:   1.ATOM         83.845          0.000          0.000        -83.845 partial forces
       TOTAL FORCE WITH RESPECT TO GLOBAL CARTESIAN COORDINATES:
:FCA001:   1.ATOM                         0.000        -83.845          0.000 partial forces
       TOTAL FORCE WITH RESPECT TO THE GLOBAL COORDINATE SYSTEM:
:FGL001:   1.ATOM                 0.000000000   -83.845086890     0.000000000 partial forces
 Flat Integration
 New Mode for Coulomb Integral
 Consistent 3/8+Simpson combinations
 Extension of core to zero
 LDM version in phi
 Fifth-order quadrature in outwin


            ---------
:ITE003:  3. ITERATION
            ---------

:NATO :    1 INDEPENDENT AND    2 TOTAL ATOMS IN UNITCELL
       SUBSTANCE: aU                                                          

       LATTICE                      = CXY 
:POT  : POTENTIAL OPTION EX_LDA EC_LDA VX_LDA VC_LDA
:LAT  : LATTICE CONSTANTS=  6.02469 12.22562 10.55463    1.571    1.571    1.571
:VOL  : UNIT CELL VOLUME =     388.70398
       MODE OF CALCULATION IS       = RELA
       NON-SPINPOLARIZED CALCULATION
:IFFT  : FFT-parameters:   48   96   90 Factor: 2.00


   CONVERGENCE PARAMETER FOR PSEUDOCHARGE: NCON=  9
   MAXIMAL VALUE OF RMT(JATOM)*ABSK(NKK) : RK  =27.59258


:VKCOUL :  VK-COUL convergence: 0.132E-06
       ATOMNUMBER=  1 Pr1        VCOUL-ZERO =  0.26995E+00
:EFG001:                        EFG         =    -0.67134   *10**21  V / m**2
                               V20  TOT/SRF=    -0.58140    -0.04534
                               V22  TOT/SRF=     0.00496     0.00591
                               V22M TOT/SRF=     0.00000     0.00000
                               V21  TOT/SRF=     0.00000     0.00000
                               V21M TOT/SRF=     0.00000     0.00000

              0.34063    0.00000    0.00000        0.34063    0.00000    0.00000
              0.00000    0.33071    0.00000        0.00000    0.33071    0.00000
              0.00000    0.00000   -0.67134        0.00000    0.00000   -0.67134

         MAIN DIRECTIONS OF THE EFG   1.0000  0.0000  0.0000
                                      0.0000  1.0000  0.0000
                                      0.0000  0.0000  1.0000
:ANG001:  ANGLE WITH OLD X-AXIS =         0.0

:ETA001:                         ASYMM. ETA =     0.01478


     HELLMANN-FEYNMAN-FORCE IN mRy/a.u. = |F|  Fx       Fy             Fz
:FHF001:   1.ATOM    485.402984883332      0.000000000000      0.000000000000   -485.402984883332

:FIT001: LUSE= 13 SIGMA OF V-XC FIT FOR ATOM  1  0.5901077E-05
:FIT001: LUSE= 13 SIGMA OF V-XC FIT FOR ATOM  1  0.5901077E-05
:DEN  : DENSITY INTEGRAL  =        -14173.69720245   (Ry)
       ELS_POTENTIAL_AT Z=0 and Z=0.5:   0.82108   0.82108
       ELS_POTENTIAL_AT Y=0 and Y=0.5:   0.04190   0.04190
:VZERO:v0,v0c,v0x   0.18711   0.82108  -0.63397 v5,v5c,v5x   0.18711   0.82108  -0.63397
:VZERY:v0,v0c,v0x  -0.80149   0.04190  -0.84339 v5,v5c,v5x  -0.80149   0.04190  -0.84339
:VZERX:v0,v0c,v0x  -1.19541  -0.39196  -0.80346 v5,v5c,v5x  -1.19541  -0.39196  -0.80346
:LMAX-WF:   10   Non-Spherical LMAX:   4

          ATOMIC SPHERE DEPENDENT PARAMETERS FOR ATOM  Pr1       
:e__0001: OVERALL ENERGY PARAMETER IS    0.5953
          OVERALL BASIS SET ON ATOM IS LAPW
:E0_0001: E( 0)=    0.5953
             APW+lo
:E0_0001: E( 0)=   -1.8228   E(BOTTOM)=   -2.461   E(TOP)=   -1.184  4  5   202
             LOCAL ORBITAL
:E1_0001: E( 1)=    0.9953
             APW+lo
:E1_0001: E( 1)=   -0.3546   E(BOTTOM)=   -1.316   E(TOP)=    0.607  3  4   206
             LOCAL ORBITAL
:E3_0001: E( 3)=    0.6215   E(BOTTOM)=    0.621   E(TOP)= -200.000  0 -1    71
             APW+lo
:E2_0001: E( 2)=    0.5953   E(BOTTOM)=    0.421   E(TOP)= -200.000  2 -1    80
             APW+lo

       K=   0.06250   0.00000   0.06250            1
:RKM  : MATRIX SIZE   364LOs:  40  RKM= 8.48  WEIGHT= 4.00  PGR:    
       EIGENVALUES ARE:
:EIG00001:      -1.8125735   -1.7822397   -0.5773490   -0.4431660   -0.4136320
:EIG00006:      -0.4039214   -0.3931868   -0.3912178    0.5897330    0.6961449
:EIG00011:       0.8121165    0.8217015    0.8228104    0.8265333    0.8341112
:EIG00016:       0.8518817    0.8589822    0.8596640    0.8638129    0.8675242
:EIG00021:       0.8718322    0.8761306    0.8777721    0.8885687    0.9031355
:EIG00026:       0.9159683    1.0057694    1.0122000    1.0698935    1.0987067
:EIG00031:       1.1052595    1.2334301    1.2717567    1.3337471    1.6390758
:EIG00036:       1.6823419    1.7239174    1.7747786    1.9192073    1.9771518
:EIG00041:       2.1000579    2.1943230
       ********************************************************

:KPT   :      NUMBER OF K-POINTS:   288
:GAP (global)   :    0.0    Ry =     0.0   eV (metal)
         Bandranges (emin - emax) and occupancy:
:BAN00005:   5   -0.530990   -0.413632  2.00000000
:BAN00006:   6   -0.507492   -0.397076  2.00000000
:BAN00007:   7   -0.476920   -0.392262  2.00000000
:BAN00008:   8   -0.424699   -0.384960  2.00000000
:BAN00009:   9    0.583207    0.770857  2.00000000
:BAN00010:  10    0.685009    0.793437  2.00000000
:BAN00011:  11    0.714292    0.825977  2.00000000
:BAN00012:  12    0.773603    0.831073  2.00000000
:BAN00013:  13    0.796984    0.846985  1.55546064
:BAN00014:  14    0.816252    0.857548  0.44450339
:BAN00015:  15    0.831116    0.859139  0.00003596
:BAN00016:  16    0.840334    0.860571  0.00000000
:BAN00017:  17    0.847525    0.861289  0.00000000
:BAN00018:  18    0.852358    0.863288  0.00000000
:BAN00019:  19    0.857665    0.868437  0.00000000
:BAN00020:  20    0.861492    0.875464  0.00000000
        Energy to separate low and high energystates:    0.53321


:NOE  : NUMBER OF ELECTRONS          =   26.000

:FER  : F E R M I - ENERGY(TETRAH.M.)=   0.8311251485
:GMA  : POTENTIAL AND CHARGE CUT-OFF  12.00 Ry**.5

:POS001: ATOM   -1 X,Y,Z = 0.00000 0.89750 0.25000  MULT= 2  ZZ= 59.000  Pr1       

       LMMAX 16
       LM=   0 0  1 0  2 0  2 2  3 0  3 2  4 0  4 2  4 4  5 0  5 2  5 4  6 0  6 2  6 4  6 6

:CHA001: TOTAL VALENCE CHARGE INSIDE SPHERE   1 =   9.3520    (RMT=  2.3000 )
:PCS001: PARTIAL CHARGES SPHERE =  1 S,P,D,F,PX,PY,PZ,D-Z2,D-X2Y2,D-XY,D-XZ,D-YZ 
:QTL001: 1.9451 4.9990 0.7255 1.6817 1.6625 1.6625 1.6740 0.1392 0.1415 0.1450 0.1460 0.1538
        Q-s-low E-s-low   Q-p-low E-p-low   Q-d-low E-d-low   Q-f-low E-f-low
:EPL001:  1.8670 -1.7814    4.9101 -0.4681    0.0052 -0.5059    0.0015 -0.5163
        Q-s-hi  E-s-hi    Q-p-hi  E-p-hi    Q-d-hi  E-d-hi    Q-f-hi  E-f-hi 
:EPH001:  0.0781  0.7199    0.0889  0.7598    0.7203  0.7559    1.6802  0.8061

                      VXX         VYY         VZZ       UP TO R
:VZZ001:             2.54970     5.19953    -7.74923       2.300

:CHA  : TOTAL VALENCE CHARGE INSIDE UNIT CELL =      26.000000

:SUM  : SUM OF EIGENVALUES =          -5.083536829


        1.ATOM      Pr1                  14 CORE STATES
       CORE-FORCE in mRy/a.u. = |F|      Fx             Fy             Fz
:FCO001:   1.ATOM    409.276381559560      0.000000000000      0.000000000000    409.276381559560

:1S 001: 1S               -3066.744220805 Ry
:2S 001: 2S                -492.508995599 Ry
:2PP001: 2P*               -465.606739113 Ry
:2P 001: 2P                -430.209885767 Ry
:3S 001: 3S                -105.604543366 Ry
:3PP001: 3P*                -94.142125126 Ry
:3P 001: 3P                 -87.134460774 Ry
:3DD001: 3D*                -67.061309793 Ry
:3D 001: 3D                 -65.549813704 Ry
:4S 001: 4S                 -20.277205141 Ry
:4PP001: 4P*                -15.983525426 Ry
:4P 001: 4P                 -14.455428739 Ry
:4DD001: 4D*                 -7.387472320 Ry
:4D 001: 4D                  -7.117870694 Ry
:CINT001 Core Integral Atom   1   45.998482

       DENSITY AT NUCLEUS
        JATOM        VALENCE       SEMI-CORE          CORE           TOTAL
:RTO001:   1      649.137550        0.000000   656823.552465   657472.690015
     
       CHARGES OF NEW CHARGE DENSITY
:NTO   : INTERSTITIAL CHARGE =     7.295922
:NPC   : PW Pseudocharge     =    17.361959
:NTO001: CHARGE SPHERE  1    =    55.350521

:NEC01: NUCLEAR AND ELECTRONIC CHARGE    118.00000   117.99696
     
       CHARGES OF OLD CHARGE DENSITY
:OTO   : INTERSTITIAL CHARGE =     6.773927
:OPC   : PW Pseudocharge     =    17.977015
:OTO001: CHARGE SPHERE  1    =    55.613037

:NEC02: NUCLEAR AND ELECTRONIC CHARGE    118.00000   118.00000
     
       CONVERGENCE TEST
:DTO001: DIFFERENCE IN SPHERE  1 =  0.4460129

:DIS  :  CHARGE DISTANCE       ( 0.4460129 for atom    1 spin 1)      0.4460129
 PW Mixed is          404
 
******************************************************
* MULTISECANT MIXING VER9 RELEASE 10.4.0              *
* Standard Mode with controls                        *
* Fixed density scale                                *
* Regularization       1.000E-04                     *
* Trust Upper Limit    5.000E+00                     *
* Max Number of Memory Steps    8                    *
******************************************************
 
:PWTMP   2.8677E+02  1.9467E+02  3.8870E+02
:PLANE:  PW TOTAL      5.5921 DISTAN   4.59E-01  8.21E+00 %
:CHARG:  CLM/ATOM   1382.0410 DISTAN   7.75E-01  5.61E-02 %
 
Step History
        DMIX         DMIXT        Red     Pred      Trust     Lambda    MagRel    MagAbs     Beta
  1   3.5000E-02   3.5000E-02 -1.00E+00  1.00E+00 -1.00E+01  1.00E+00  3.50E-02  3.50E-02  1.00E+00
  2   2.5000E-02   2.5000E-02  7.28E-01  1.00E+00 -1.00E+01  1.00E+00  2.50E-02  3.94E-02  1.00E+00
  3   4.2274E-02   4.2274E-02 -1.00E+00  1.00E+00 -1.00E+01  1.00E+00  4.23E-02  4.84E-02  1.00E+00
:JACOBIANS    4.820E-01   2.525E-02
  
:NORMS:  1/Froebius, Min, Max, Used   0.7832E+00  0.4166E+00  0.8332E+00  0.7832E+00
:INFO :  Number of Memory Steps    2 Skipping    0
:INFO :  SLambda=    0.0154725912  Max    0.0154725912
:PREDicted Charge, CTotal, PW Trust    1.649E-02   3.297E-02   5.436E-01
:PREDicted DMix, Beta, BLim   7.0668E-02  9.5298E-01  8.6629E-01

Eigenvalues, unscaled except for SY+YY
   #     SY Real        SY Imag          SS             YY         SY+YY Real      SY+YY Imag
   1   1.307879E+00   0.000000E+00   1.226800E+00   1.999922E+00   2.020158E+00   0.000000E+00
   2  -5.773160E-15   0.000000E+00   0.000000E+00   7.820732E-05   7.842210E-05   0.000000E+00
 
:INFO :  Singular value  2.020E+00 Weight  1.000E+00 Projection  1.409E-03
:INFO :  Singular value  7.842E-05 Weight  1.333E-01 Projection -9.174E+00
:RANK :  ACTIVE   1.13/2  =  56.66 % ; YY RANK   1.13/2  =  56.63 %
 
:DLIM :  Beta Active  9.647E-01
:BLIM :  VZERO Control Off
:TRUST:  Step 2.96E-01  Charge 7.50E-02 (e) CTO  2.50E-01 (e) PW  3.85E-01 (e)
:DIRM :  MEMORY  2/8  SCALE   1.000 RED  0.79 PRED  1.00 NEXT  0.94 BETA  0.96
:TRAVE:  Charge 1.18E-02 (e) CTO  2.37E-02 (e) PW  3.77E-02 (e)
:DIRP :  |MSR1|= 5.724E-02 |PRATT|= 4.593E-01 ANGLE=  10.9 DEGREES
:DIRQ :  |MSR1|= 3.683E-02 |PRATT|= 7.750E-01 ANGLE=   5.6 DEGREES
:DIRT :  |MSR1|= 6.806E-02 |PRATT|= 9.009E-01 ANGLE=  27.8 DEGREES
:MIX  :   MSD1   REGULARIZATION:  2.00E-04 GREED: 0.05340  Newton 1.00  0.0755                
     
       CHARGES OF MIXED CHARGE DENSITY
:CTO   : INTERSTITIAL CHARGE =     6.797602
:CPC   : PW Pseudocharge     =    17.878132
:CTO001: CHARGE SPHERE  1    =    55.601199

:NEC03: NUCLEAR AND ELECTRONIC CHARGE    118.00000   118.00000

PW CHANGE     H    K    L      Current       Change    Residue
:PTO001:      0    0    0  6.34820722E-02 -1.935E-04 -2.130E-04
:PTO003:      0    2    0  1.66657035E-02 -8.583E-05 -1.441E-04
:PTO004:     -1    1    0  8.15028733E-02 -6.425E-04 -4.164E-03
:PTO005:      0    2   -1 -9.48343840E-02  8.255E-04  6.514E-03
:PTO006:      0    0   -2 -4.91952265E-02  4.381E-04  3.516E-03
:PTO007:     -1    1   -1 -1.02302553E-01  1.056E-03  8.917E-03
:PTO008:      0    2   -2 -1.64733923E-02  2.114E-04  1.757E-03
:PTO009:     -1    1   -2 -8.21993510E-02  1.088E-03  8.652E-03
:PTO011:     -1    3    0 -1.30343822E-02  2.130E-04  1.669E-03
:PTO012:     -1    3   -1 -5.81897582E-02  9.910E-04  7.459E-03
:PTO013:      0    4    0 -1.07170005E-02  2.132E-04  1.819E-03
:PTO014:      0    2   -3  2.42076495E-02 -4.543E-04 -3.460E-03

:ENE  : ********** TOTAL ENERGY IN Ry =       -36944.25082950

       TOTAL FORCE IN mRy/a.u. = |F|     Fx             Fy             Fz     with/without FOR in case.in2
:FOR001:   1.ATOM         76.127          0.000          0.000        -76.127 partial forces
       TOTAL FORCE WITH RESPECT TO GLOBAL CARTESIAN COORDINATES:
:FCA001:   1.ATOM                         0.000        -76.127          0.000 partial forces
       TOTAL FORCE WITH RESPECT TO THE GLOBAL COORDINATE SYSTEM:
:FGL001:   1.ATOM                 0.000000000   -76.126603324     0.000000000 partial forces
 Flat Integration
 New Mode for Coulomb Integral
 Consistent 3/8+Simpson combinations
 Extension of core to zero
 LDM version in phi
 Fifth-order quadrature in outwin


            ---------
:ITE004:  4. ITERATION
            ---------

:NATO :    1 INDEPENDENT AND    2 TOTAL ATOMS IN UNITCELL
       SUBSTANCE: aU                                                          

       LATTICE                      = CXY 
:POT  : POTENTIAL OPTION EX_LDA EC_LDA VX_LDA VC_LDA
:LAT  : LATTICE CONSTANTS=  6.02469 12.22562 10.55463    1.571    1.571    1.571
:VOL  : UNIT CELL VOLUME =     388.70398
       MODE OF CALCULATION IS       = RELA
       NON-SPINPOLARIZED CALCULATION
:IFFT  : FFT-parameters:   48   96   90 Factor: 2.00


   CONVERGENCE PARAMETER FOR PSEUDOCHARGE: NCON=  9
   MAXIMAL VALUE OF RMT(JATOM)*ABSK(NKK) : RK  =27.59258


:VKCOUL :  VK-COUL convergence: 0.133E-06
       ATOMNUMBER=  1 Pr1        VCOUL-ZERO =  0.26962E+00
:EFG001:                        EFG         =    -1.06476   *10**21  V / m**2
                               V20  TOT/SRF=    -0.92211    -0.04425
                               V22  TOT/SRF=    -0.00824     0.00493
                               V22M TOT/SRF=     0.00000     0.00000
                               V21  TOT/SRF=     0.00000     0.00000
                               V21M TOT/SRF=     0.00000     0.00000

              0.52414    0.00000    0.00000        0.52414    0.00000    0.00000
              0.00000    0.54062    0.00000        0.00000    0.54062    0.00000
              0.00000    0.00000   -1.06476        0.00000    0.00000   -1.06476

         MAIN DIRECTIONS OF THE EFG   1.0000  0.0000  0.0000
                                      0.0000  1.0000  0.0000
                                      0.0000  0.0000  1.0000
:ANG001:  ANGLE WITH OLD X-AXIS =         0.0

:ETA001:                         ASYMM. ETA =     0.01548


     HELLMANN-FEYNMAN-FORCE IN mRy/a.u. = |F|  Fx       Fy             Fz
:FHF001:   1.ATOM    503.657136065292      0.000000000000      0.000000000000   -503.657136065292

:FIT001: LUSE= 13 SIGMA OF V-XC FIT FOR ATOM  1  0.6490812E-05
:FIT001: LUSE= 13 SIGMA OF V-XC FIT FOR ATOM  1  0.6490812E-05
:DEN  : DENSITY INTEGRAL  =        -14171.19449536   (Ry)
       ELS_POTENTIAL_AT Z=0 and Z=0.5:   0.82303   0.82303
       ELS_POTENTIAL_AT Y=0 and Y=0.5:   0.04246   0.04246
:VZERO:v0,v0c,v0x   0.18827   0.82303  -0.63476 v5,v5c,v5x   0.18827   0.82303  -0.63476
:VZERY:v0,v0c,v0x  -0.80143   0.04246  -0.84389 v5,v5c,v5x  -0.80143   0.04246  -0.84389
:VZERX:v0,v0c,v0x  -1.19539  -0.39182  -0.80357 v5,v5c,v5x  -1.19539  -0.39182  -0.80357
:LMAX-WF:   10   Non-Spherical LMAX:   4

          ATOMIC SPHERE DEPENDENT PARAMETERS FOR ATOM  Pr1       
:e__0001: OVERALL ENERGY PARAMETER IS    0.6192
          OVERALL BASIS SET ON ATOM IS LAPW
:E0_0001: E( 0)=    0.6192
             APW+lo
:E0_0001: E( 0)=   -1.8318   E(BOTTOM)=   -2.469   E(TOP)=   -1.195  4  5   192
             LOCAL ORBITAL
:E1_0001: E( 1)=    1.0192
             APW+lo
:E1_0001: E( 1)=   -0.3626   E(BOTTOM)=   -1.322   E(TOP)=    0.597  3  4   200
             LOCAL ORBITAL
:E3_0001: E( 3)=    0.8147   E(BOTTOM)=    0.608   E(TOP)=    1.022  0  1   125
             APW+lo
:E2_0001: E( 2)=    0.6192   E(BOTTOM)=    0.416   E(TOP)= -200.000  2 -1   122
             APW+lo

       K=   0.06250   0.00000   0.06250            1
:RKM  : MATRIX SIZE   364LOs:  40  RKM= 8.48  WEIGHT= 4.00  PGR:    
       EIGENVALUES ARE:
:EIG00001:      -1.8208741   -1.7908520   -0.5824647   -0.4500546   -0.4207317
:EIG00006:      -0.4107006   -0.3998191   -0.3981431    0.5888278    0.6946730
:EIG00011:       0.8022170    0.8090164    0.8091662    0.8132686    0.8204134
:EIG00016:       0.8370216    0.8440833    0.8444667    0.8484559    0.8524027
:EIG00021:       0.8581353    0.8610715    0.8630090    0.8723870    0.8930531
:EIG00026:       0.9090492    1.0010857    1.0087781    1.0665504    1.0955375
:EIG00031:       1.1015829    1.2301967    1.2676088    1.3292187    1.6321810
:EIG00036:       1.6754125    1.7167558    1.7698865    1.9122438    1.9707577
:EIG00041:       2.0926215    2.1844084    2.2969137    2.3129095
       ********************************************************

:KPT   :      NUMBER OF K-POINTS:   288
:GAP (global)   :    0.0    Ry =     0.0   eV (metal)
         Bandranges (emin - emax) and occupancy:
:BAN00004:   4   -0.556797   -0.450055  2.00000000
:BAN00005:   5   -0.536838   -0.420732  2.00000000
:BAN00006:   6   -0.513545   -0.403919  2.00000000
:BAN00007:   7   -0.483289   -0.399157  2.00000000
:BAN00008:   8   -0.431232   -0.391938  2.00000000
:BAN00009:   9    0.582321    0.764833  2.00000000
:BAN00010:  10    0.683746    0.786186  2.00000000
:BAN00011:  11    0.712303    0.813116  2.00000000
:BAN00012:  12    0.768952    0.818319  1.99993719
:BAN00013:  13    0.788687    0.832138  1.52530941
:BAN00014:  14    0.804922    0.841784  0.47475340
:BAN00015:  15    0.818143    0.843848  0.00000000
:BAN00016:  16    0.826672    0.845080  0.00000000
:BAN00017:  17    0.832828    0.846851  0.00000000
:BAN00018:  18    0.837691    0.848722  0.00000000
:BAN00019:  19    0.842604    0.853728  0.00000000
        Energy to separate low and high energystates:    0.53232


:NOE  : NUMBER OF ELECTRONS          =   26.000

:FER  : F E R M I - ENERGY(TETRAH.M.)=   0.8180420682
:GMA  : POTENTIAL AND CHARGE CUT-OFF  12.00 Ry**.5

:POS001: ATOM   -1 X,Y,Z = 0.00000 0.89750 0.25000  MULT= 2  ZZ= 59.000  Pr1       

       LMMAX 16
       LM=   0 0  1 0  2 0  2 2  3 0  3 2  4 0  4 2  4 4  5 0  5 2  5 4  6 0  6 2  6 4  6 6

:CHA001: TOTAL VALENCE CHARGE INSIDE SPHERE   1 =   9.4706    (RMT=  2.3000 )
:PCS001: PARTIAL CHARGES SPHERE =  1 S,P,D,F,PX,PY,PZ,D-Z2,D-X2Y2,D-XY,D-XZ,D-YZ 
:QTL001: 1.9436 4.9983 0.6816 1.8464 1.6628 1.6623 1.6732 0.1301 0.1292 0.1388 0.1377 0.1458
        Q-s-low E-s-low   Q-p-low E-p-low   Q-d-low E-d-low   Q-f-low E-f-low
:EPL001:  1.8679 -1.7900    4.9173 -0.4744    0.0051 -0.5117    0.0015 -0.5223
        Q-s-hi  E-s-hi    Q-p-hi  E-p-hi    Q-d-hi  E-d-hi    Q-f-hi  E-f-hi 
:EPH001:  0.0757  0.7156    0.0810  0.7526    0.6765  0.7490    1.8449  0.7952

                      VXX         VYY         VZZ       UP TO R
:VZZ001:             1.84730     5.07617    -6.92348       2.300

:CHA  : TOTAL VALENCE CHARGE INSIDE UNIT CELL =      26.000000

:SUM  : SUM OF EIGENVALUES =          -5.255737034


        1.ATOM      Pr1                  14 CORE STATES
       CORE-FORCE in mRy/a.u. = |F|      Fx             Fy             Fz
:FCO001:   1.ATOM    439.859292484096      0.000000000000      0.000000000000    439.859292484096

:1S 001: 1S               -3066.773309669 Ry
:2S 001: 2S                -492.537432170 Ry
:2PP001: 2P*               -465.635241536 Ry
:2P 001: 2P                -430.238356121 Ry
:3S 001: 3S                -105.632177237 Ry
:3PP001: 3P*                -94.169826860 Ry
:3P 001: 3P                 -87.162049597 Ry
:3DD001: 3D*                -67.089082246 Ry
:3D 001: 3D                 -65.577557915 Ry
:4S 001: 4S                 -20.299398562 Ry
:4PP001: 4P*                -16.005380732 Ry
:4P 001: 4P                 -14.476760876 Ry
:4DD001: 4D*                 -7.407850327 Ry
:4D 001: 4D                  -7.138067274 Ry
:CINT001 Core Integral Atom   1   45.998497

       DENSITY AT NUCLEUS
        JATOM        VALENCE       SEMI-CORE          CORE           TOTAL
:RTO001:   1      649.236085        0.000000   656824.791753   657474.027838
     
       CHARGES OF NEW CHARGE DENSITY
:NTO   : INTERSTITIAL CHARGE =     7.058704
:NPC   : PW Pseudocharge     =    17.282528
:NTO001: CHARGE SPHERE  1    =    55.469144

:NEC01: NUCLEAR AND ELECTRONIC CHARGE    118.00000   117.99699
     
       CHARGES OF OLD CHARGE DENSITY
:OTO   : INTERSTITIAL CHARGE =     6.797602
:OPC   : PW Pseudocharge     =    17.878132
:OTO001: CHARGE SPHERE  1    =    55.601199

:NEC02: NUCLEAR AND ELECTRONIC CHARGE    118.00000   118.00000
     
       CONVERGENCE TEST
:DTO001: DIFFERENCE IN SPHERE  1 =  0.2249648

:DIS  :  CHARGE DISTANCE       ( 0.2249648 for atom    1 spin 1)      0.2249648
 PW Mixed is          404
 
******************************************************
* MULTISECANT MIXING VER9 RELEASE 10.4.0              *
* Standard Mode with controls                        *
* Fixed density scale                                *
* Regularization       1.000E-04                     *
* Trust Upper Limit    5.000E+00                     *
* Max Number of Memory Steps    8                    *
******************************************************
 
:PWTMP   2.8677E+02  1.9467E+02  3.8870E+02
:PLANE:  PW TOTAL      5.5459 DISTAN   4.01E-01  7.23E+00 %
:CHARG:  CLM/ATOM   1382.0342 DISTAN   5.56E-01  4.02E-02 %
 
Step History
        DMIX         DMIXT        Red     Pred      Trust     Lambda    MagRel    MagAbs     Beta
  1   3.5000E-02   3.5000E-02 -1.00E+00  1.00E+00 -1.00E+01  1.00E+00  3.50E-02  3.50E-02  1.00E+00
  2   2.5000E-02   2.5000E-02  7.28E-01  1.00E+00 -1.00E+01  1.00E+00  2.50E-02  3.94E-02  1.00E+00
  3   4.2274E-02   4.2274E-02  7.86E-01  1.00E+00 -1.00E+01  1.55E-02  4.23E-02  4.84E-02  1.00E+00
  4   5.3403E-02   5.3403E-02 -1.00E+00  9.44E-01  2.96E-01  1.00E+00  7.55E-02  6.81E-02  9.65E-01
:JACOBIANS    7.387E-01   5.557E-02
  
:NORMS:  1/Froebius, Min, Max, Used   0.5015E+00  0.3622E+00  0.9971E+00  0.5333E+00
:INFO :  Number of Memory Steps    3 Skipping    0
:INFO :  SLambda=    1.1487088961  Max    1.1487088961
:PREDicted Charge, CTotal, PW Trust    2.281E-02   4.563E-02   4.452E-01
:PREDicted DMix, Beta, BLim   3.1039E-01  3.6955E+00  5.1198E-01

Eigenvalues, unscaled except for SY+YY
   #     SY Real        SY Imag          SS             YY         SY+YY Real      SY+YY Imag
   1   8.314164E-01   0.000000E+00   7.374826E-01   2.592709E+00   3.332165E+00   0.000000E+00
   2  -5.208887E-16   0.000000E+00   1.705499E-02   4.072717E-01   1.990217E-05   0.000000E+00
   3   1.055196E-01   0.000000E+00   7.617211E-17   1.975470E-05   7.440817E-01   0.000000E+00
 
:INFO :  Singular value  3.332E+00 Weight  1.000E+00 Projection  4.246E-02
:INFO :  Singular value  7.440E-01 Weight  1.000E+00 Projection -7.845E-01
:INFO :  Singular value  1.990E-05 Weight  5.858E-03 Projection  5.479E-02
:RANK :  ACTIVE   2.01/3  =  66.86 % ; YY RANK   2.01/3  =  66.86 %
 
:BLIM :  VZERO Control Off
:TRUST:  Step 4.04E-01  Charge 7.50E-02 (e) CTO  2.50E-01 (e) PW  4.24E-01 (e)
:DTRUS:  Lambda    2.300E-01 Increment    7.276E-12 Iterations   102 DMIX    1.169E-01
:INFOA:  Angle SubSpace to MSR1      4.75
:DIRM :  MEMORY  3/8  SCALE   1.000 RED  0.76 PRED  0.94 NEXT  0.72 
:INFO :  Limited by Atoms F by Step T

:TRAVE:  Charge 1.18E-02 (e) CTO  2.37E-02 (e) PW  1.36E-01 (e)
:DIRP :  |MSR1|= 2.634E-01 |PRATT|= 4.011E-01 ANGLE=  11.7 DEGREES
:DIRQ :  |MSR1|= 8.577E-02 |PRATT|= 5.557E-01 ANGLE=  17.2 DEGREES
:DIRT :  |MSR1|= 2.770E-01 |PRATT|= 6.854E-01 ANGLE=  38.3 DEGREES
:MIX  :   MSE1   REGULARIZATION:  2.59E-04 GREED: 0.13351  LMStep 0.66  0.4042 Step           
     
       CHARGES OF MIXED CHARGE DENSITY
:CTO   : INTERSTITIAL CHARGE =     6.821310
:CPC   : PW Pseudocharge     =    17.387555
:CTO001: CHARGE SPHERE  1    =    55.589345

:NEC03: NUCLEAR AND ELECTRONIC CHARGE    118.00000   118.00000

PW CHANGE     H    K    L      Current       Change    Residue
:PTO001:      0    0    0  6.22809789E-02 -1.201E-03 -8.339E-04
:PTO003:      0    2    0  1.61880430E-02 -4.777E-04 -1.229E-04
:PTO004:     -1    1    0  7.84497049E-02 -3.053E-03 -3.577E-03
:PTO005:      0    2   -1 -9.10055160E-02  3.829E-03  5.651E-03
:PTO006:      0    0   -2 -4.71856561E-02  2.010E-03  3.041E-03
:PTO007:     -1    1   -1 -9.76053713E-02  4.697E-03  7.667E-03
:PTO008:      0    2   -2 -1.55218131E-02  9.516E-04  1.571E-03
:PTO009:     -1    1   -2 -7.72948716E-02  4.904E-03  7.386E-03
:PTO011:     -1    3    0 -1.20877593E-02  9.466E-04  1.432E-03
:PTO012:     -1    3   -1 -5.36613695E-02  4.528E-03  6.419E-03
:PTO013:      0    4    0 -9.74726393E-03  9.697E-04  1.581E-03
:PTO014:      0    2   -3  2.21000161E-02 -2.108E-03 -2.999E-03

:ENE  : ********** TOTAL ENERGY IN Ry =       -36944.24159506

       TOTAL FORCE IN mRy/a.u. = |F|     Fx             Fy             Fz     with/without FOR in case.in2
:FOR001:   1.ATOM         63.798          0.000          0.000        -63.798 partial forces
       TOTAL FORCE WITH RESPECT TO GLOBAL CARTESIAN COORDINATES:
:FCA001:   1.ATOM                         0.000        -63.798          0.000 partial forces
       TOTAL FORCE WITH RESPECT TO THE GLOBAL COORDINATE SYSTEM:
:FGL001:   1.ATOM                 0.000000000   -63.797843581     0.000000000 partial forces
 Flat Integration
 New Mode for Coulomb Integral
 Consistent 3/8+Simpson combinations
 Extension of core to zero
 LDM version in phi
 Fifth-order quadrature in outwin


            ---------
:ITE005:  5. ITERATION
            ---------

:NATO :    1 INDEPENDENT AND    2 TOTAL ATOMS IN UNITCELL
       SUBSTANCE: aU                                                          

       LATTICE                      = CXY 
:POT  : POTENTIAL OPTION EX_LDA EC_LDA VX_LDA VC_LDA
:LAT  : LATTICE CONSTANTS=  6.02469 12.22562 10.55463    1.571    1.571    1.571
:VOL  : UNIT CELL VOLUME =     388.70398
       MODE OF CALCULATION IS       = RELA
       NON-SPINPOLARIZED CALCULATION
:IFFT  : FFT-parameters:   48   96   90 Factor: 2.00


   CONVERGENCE PARAMETER FOR PSEUDOCHARGE: NCON=  9
   MAXIMAL VALUE OF RMT(JATOM)*ABSK(NKK) : RK  =27.59258


:VKCOUL :  VK-COUL convergence: 0.135E-06
       ATOMNUMBER=  1 Pr1        VCOUL-ZERO =  0.26781E+00
:EFG001:                        EFG         =    -2.09512   *10**21  V / m**2
                               V20  TOT/SRF=    -1.81443    -0.04122
                               V22  TOT/SRF=    -0.22307     0.00139
                               V22M TOT/SRF=     0.00000     0.00000
                               V21  TOT/SRF=     0.00000     0.00000
                               V21M TOT/SRF=     0.00000     0.00000

              0.82449    0.00000    0.00000        0.82449    0.00000    0.00000
              0.00000    1.27063    0.00000        0.00000    1.27063    0.00000
              0.00000    0.00000   -2.09512        0.00000    0.00000   -2.09512

         MAIN DIRECTIONS OF THE EFG   1.0000  0.0000  0.0000
                                      0.0000  1.0000  0.0000
                                      0.0000  0.0000  1.0000
:ANG001:  ANGLE WITH OLD X-AXIS =         0.0

:ETA001:                         ASYMM. ETA =     0.21294


     HELLMANN-FEYNMAN-FORCE IN mRy/a.u. = |F|  Fx       Fy             Fz
:FHF001:   1.ATOM    602.790799713836      0.000000000000      0.000000000000   -602.790799713836

:FIT001: LUSE= 13 SIGMA OF V-XC FIT FOR ATOM  1  0.1017037E-04
:FIT001: LUSE= 13 SIGMA OF V-XC FIT FOR ATOM  1  0.1017037E-04
:DEN  : DENSITY INTEGRAL  =        -14168.86161157   (Ry)
       ELS_POTENTIAL_AT Z=0 and Z=0.5:   0.82372   0.82372
       ELS_POTENTIAL_AT Y=0 and Y=0.5:   0.04399   0.04399
:VZERO:v0,v0c,v0x   0.18820   0.82372  -0.63552 v5,v5c,v5x   0.18820   0.82372  -0.63552
:VZERY:v0,v0c,v0x  -0.79989   0.04399  -0.84388 v5,v5c,v5x  -0.79989   0.04399  -0.84388
:VZERX:v0,v0c,v0x  -1.19054  -0.38912  -0.80142 v5,v5c,v5x  -1.19054  -0.38912  -0.80142
:LMAX-WF:   10   Non-Spherical LMAX:   4

          ATOMIC SPHERE DEPENDENT PARAMETERS FOR ATOM  Pr1       
:e__0001: OVERALL ENERGY PARAMETER IS    0.6184
          OVERALL BASIS SET ON ATOM IS LAPW
:E0_0001: E( 0)=    0.6184
             APW+lo
:E0_0001: E( 0)=   -1.8427   E(BOTTOM)=   -2.478   E(TOP)=   -1.207  4  5   193
             LOCAL ORBITAL
:E1_0001: E( 1)=    1.0184
             APW+lo
:E1_0001: E( 1)=   -0.3724   E(BOTTOM)=   -1.330   E(TOP)=    0.585  3  4   208
             LOCAL ORBITAL
:E3_0001: E( 3)=    0.7983   E(BOTTOM)=    0.593   E(TOP)=    1.003  0  1   122
             APW+lo
:E2_0001: E( 2)=    0.6184   E(BOTTOM)=    0.410   E(TOP)= -200.000  2 -1   118
             APW+lo

       K=   0.06250   0.00000   0.06250            1
:RKM  : MATRIX SIZE   364LOs:  40  RKM= 8.48  WEIGHT= 4.00  PGR:    
       EIGENVALUES ARE:
:EIG00001:      -1.8308868   -1.8012540   -0.5884476   -0.4594679   -0.4303397
:EIG00006:      -0.4192734   -0.4075771   -0.4069280    0.5861566    0.6912948
:EIG00011:       0.7905790    0.7949938    0.7952733    0.7990735    0.8060347
:EIG00016:       0.8219780    0.8286542    0.8288964    0.8328701    0.8360513
:EIG00021:       0.8433780    0.8450299    0.8462293    0.8561010    0.8833080
:EIG00026:       0.9020833    0.9956628    1.0036753    1.0615824    1.0909231
:EIG00031:       1.0960901    1.2258915    1.2623307    1.3238150    1.6279794
:EIG00036:       1.6711096    1.7128448    1.7653010    1.9088996    1.9685941
:EIG00041:       2.0896015    2.1814060    2.2927767    2.3100724
       ********************************************************

:KPT   :      NUMBER OF K-POINTS:   288
:GAP (global)   :    0.0    Ry =     0.0   eV (metal)
         Bandranges (emin - emax) and occupancy:
:BAN00004:   4   -0.564526   -0.459468  2.00000000
:BAN00005:   5   -0.543999   -0.430340  2.00000000
:BAN00006:   6   -0.521521   -0.412559  2.00000000
:BAN00007:   7   -0.491921   -0.407577  2.00000000
:BAN00008:   8   -0.439320   -0.400772  2.00000000
:BAN00009:   9    0.579661    0.757385  2.00000000
:BAN00010:  10    0.680582    0.776981  2.00000000
:BAN00011:  11    0.708166    0.799622  2.00000000
:BAN00012:  12    0.762546    0.805008  1.99729503
:BAN00013:  13    0.778178    0.816930  1.46609558
:BAN00014:  14    0.792370    0.824601  0.53660939
:BAN00015:  15    0.804863    0.828106  0.00000000
:BAN00016:  16    0.811639    0.829470  0.00000000
:BAN00017:  17    0.817431    0.832200  0.00000000
:BAN00018:  18    0.822540    0.834035  0.00000000
:BAN00019:  19    0.826963    0.838072  0.00000000
        Energy to separate low and high energystates:    0.52966


:NOE  : NUMBER OF ELECTRONS          =   26.000

:FER  : F E R M I - ENERGY(TETRAH.M.)=   0.8038247666
:GMA  : POTENTIAL AND CHARGE CUT-OFF  12.00 Ry**.5

:POS001: ATOM   -1 X,Y,Z = 0.00000 0.89750 0.25000  MULT= 2  ZZ= 59.000  Pr1       

       LMMAX 16
       LM=   0 0  1 0  2 0  2 2  3 0  3 2  4 0  4 2  4 4  5 0  5 2  5 4  6 0  6 2  6 4  6 6

:CHA001: TOTAL VALENCE CHARGE INSIDE SPHERE   1 =   9.5848    (RMT=  2.3000 )
:PCS001: PARTIAL CHARGES SPHERE =  1 S,P,D,F,PX,PY,PZ,D-Z2,D-X2Y2,D-XY,D-XZ,D-YZ 
:QTL001: 1.9420 4.9984 0.6390 2.0046 1.6633 1.6623 1.6728 0.1217 0.1167 0.1331 0.1292 0.1384
        Q-s-low E-s-low   Q-p-low E-p-low   Q-d-low E-d-low   Q-f-low E-f-low
:EPL001:  1.8687 -1.8004    4.9245 -0.4825    0.0050 -0.5181    0.0015 -0.5287
        Q-s-hi  E-s-hi    Q-p-hi  E-p-hi    Q-d-hi  E-d-hi    Q-f-hi  E-f-hi 
:EPH001:  0.0733  0.7096    0.0739  0.7440    0.6341  0.7407    2.0032  0.7832

                      VXX         VYY         VZZ       UP TO R
:VZZ001:             2.85486     5.15197    -8.00682       2.300

:CHA  : TOTAL VALENCE CHARGE INSIDE UNIT CELL =      26.000000

:SUM  : SUM OF EIGENVALUES =          -5.472998366


        1.ATOM      Pr1                  14 CORE STATES
       CORE-FORCE in mRy/a.u. = |F|      Fx             Fy             Fz
:FCO001:   1.ATOM    573.751123508527      0.000000000000      0.000000000000    573.751123508527

:1S 001: 1S               -3066.799441912 Ry
:2S 001: 2S                -492.561895302 Ry
:2PP001: 2P*               -465.659827052 Ry
:2P 001: 2P                -430.262874307 Ry
:3S 001: 3S                -105.656526090 Ry
:3PP001: 3P*                -94.194200113 Ry
:3P 001: 3P                 -87.186373024 Ry
:3DD001: 3D*                -67.113382993 Ry
:3D 001: 3D                 -65.601850727 Ry
:4S 001: 4S                 -20.320796088 Ry
:4PP001: 4P*                -16.026557853 Ry
:4P 001: 4P                 -14.497614887 Ry
:4DD001: 4D*                 -7.428012770 Ry
:4D 001: 4D                  -7.158108255 Ry
:CINT001 Core Integral Atom   1   45.998509

       DENSITY AT NUCLEUS
        JATOM        VALENCE       SEMI-CORE          CORE           TOTAL
:RTO001:   1      649.260705        0.000000   656825.689484   657474.950189
     
       CHARGES OF NEW CHARGE DENSITY
:NTO   : INTERSTITIAL CHARGE =     6.830394
:NPC   : PW Pseudocharge     =    17.208156
:NTO001: CHARGE SPHERE  1    =    55.583311

:NEC01: NUCLEAR AND ELECTRONIC CHARGE    118.00000   117.99702
     
       CHARGES OF OLD CHARGE DENSITY
:OTO   : INTERSTITIAL CHARGE =     6.821310
:OPC   : PW Pseudocharge     =    17.387555
:OTO001: CHARGE SPHERE  1    =    55.589345

:NEC02: NUCLEAR AND ELECTRONIC CHARGE    118.00000   118.00000
     
       CONVERGENCE TEST
:DTO001: DIFFERENCE IN SPHERE  1 =  0.0860031

:DIS  :  CHARGE DISTANCE       ( 0.0860031 for atom    1 spin 1)      0.0860031
 PW Mixed is          404
 
******************************************************
* MULTISECANT MIXING VER9 RELEASE 10.4.0              *
* Standard Mode with controls                        *
* Fixed density scale                                *
* Regularization       1.000E-04                     *
* Trust Upper Limit    5.000E+00                     *
* Max Number of Memory Steps    8                    *
******************************************************
 
:PWTMP   2.8677E+02  1.9467E+02  3.8870E+02
:PLANE:  PW TOTAL      5.3276 DISTAN   1.46E-01  2.75E+00 %
:CHARG:  CLM/ATOM   1382.0197 DISTAN   3.95E-01  2.85E-02 %
 
Step History
        DMIX         DMIXT        Red     Pred      Trust     Lambda    MagRel    MagAbs     Beta
  1   3.5000E-02   3.5000E-02 -1.00E+00  1.00E+00 -1.00E+01  1.00E+00  3.50E-02  3.50E-02  1.00E+00
  2   2.5000E-02   2.5000E-02  7.28E-01  1.00E+00 -1.00E+01  1.00E+00  2.50E-02  3.94E-02  1.00E+00
  3   4.2274E-02   4.2274E-02  7.86E-01  1.00E+00 -1.00E+01  1.55E-02  4.23E-02  4.84E-02  1.00E+00
  4   5.3403E-02   5.3403E-02  7.61E-01  9.44E-01  2.96E-01  1.15E+00  7.55E-02  6.81E-02  9.65E-01
  5   1.3351E-01   1.1686E-01 -1.00E+00  7.25E-01  4.04E-01  1.00E+00  4.04E-01  2.77E-01  1.00E+00
:JACOBIANS    8.754E-01   2.841E-01
  
:NORMS:  1/Froebius, Min, Max, Used   0.4854E+00  0.3936E+00  0.9991E+00  0.5238E+00
:INFO :  Number of Memory Steps    4 Skipping    0
:INFO :  SLambda=    0.9133731806  Max    0.9133731806
:PREDicted Charge, CTotal, PW Trust    1.836E-02   3.671E-02   3.257E-01
:PREDicted DMix, Beta, BLim   4.1360E-01  1.6032E+00  9.5869E-01

Eigenvalues, unscaled except for SY+YY
   #     SY Real        SY Imag          SS             YY         SY+YY Real      SY+YY Imag
   1   8.697658E-01   0.000000E+00   8.629458E-01   3.144942E+00   3.467426E+00   0.000000E+00
   2   2.778723E-01   0.000000E+00   7.902424E-02   8.505879E-01   1.576217E+00   0.000000E+00
   3  -3.156049E-16   0.000000E+00   4.015619E-04   4.456584E-03   1.423301E-05   0.000000E+00
   4   1.912428E-03   0.000000E+00   2.107860E-17   1.377876E-05   6.311588E-03   0.000000E+00
 
:INFO :  Singular value  3.468E+00 Weight  1.000E+00 Projection -6.207E-02
:INFO :  Singular value  1.576E+00 Weight  1.000E+00 Projection -1.858E-01
:INFO :  Singular value  6.312E-03 Weight  9.975E-01 Projection  4.619E+00
:INFO :  Singular value  1.423E-05 Weight  2.044E-03 Projection  5.410E-02
:RANK :  ACTIVE   3.00/4  =  74.99 % ; YY RANK   3.00/4  =  74.92 %
 
:BLIM :  VZERO Control Off
:TRUST:  Step 6.55E-01  Charge 7.50E-02 (e) CTO  2.50E-01 (e) PW  4.24E-01 (e)
:DIRM :  MEMORY  4/8  SCALE   1.000 RED  0.61 PRED  0.72 NEXT  0.67 
:TRAVE:  Charge 6.20E-03 (e) CTO  1.24E-02 (e) PW  1.19E-01 (e)
:DIRP :  |MSR1|= 1.318E-01 |PRATT|= 1.463E-01 ANGLE=  11.1 DEGREES
:DIRQ :  |MSR1|= 2.234E-01 |PRATT|= 3.945E-01 ANGLE=   9.0 DEGREES
:DIRT :  |MSR1|= 2.594E-01 |PRATT|= 4.208E-01 ANGLE=  13.8 DEGREES
:MIX  :   MSD1   REGULARIZATION:  3.14E-04 GREED: 0.25137  Newton 1.00  0.6165                
     
       CHARGES OF MIXED CHARGE DENSITY
:CTO   : INTERSTITIAL CHARGE =     6.820186
:CPC   : PW Pseudocharge     =    17.186143
:CTO001: CHARGE SPHERE  1    =    55.589907

:NEC03: NUCLEAR AND ELECTRONIC CHARGE    118.00000   118.00000

PW CHANGE     H    K    L      Current       Change    Residue
:PTO001:      0    0    0  6.17599257E-02 -5.211E-04 -4.111E-04
:PTO003:      0    2    0  1.60664005E-02 -1.216E-04  1.295E-04
:PTO004:     -1    1    0  7.73490361E-02 -1.101E-03 -7.032E-04
:PTO005:      0    2   -1 -8.92626953E-02  1.743E-03  1.740E-03
:PTO006:      0    0   -2 -4.62900452E-02  8.956E-04  9.268E-04
:PTO007:     -1    1   -1 -9.52977952E-02  2.308E-03  2.604E-03
:PTO008:      0    2   -2 -1.49095232E-02  6.123E-04  7.006E-04
:PTO009:     -1    1   -2 -7.51073989E-02  2.187E-03  2.219E-03
:PTO011:     -1    3    0 -1.17053530E-02  3.824E-04  4.015E-04
:PTO012:     -1    3   -1 -5.16225136E-02  2.039E-03  1.920E-03
:PTO013:      0    4    0 -9.22909229E-03  5.182E-04  5.801E-04
:PTO014:      0    2   -3  2.11922716E-02 -9.077E-04 -8.629E-04

:ENE  : ********** TOTAL ENERGY IN Ry =       -36944.23715921

       TOTAL FORCE IN mRy/a.u. = |F|     Fx             Fy             Fz     with/without FOR in case.in2
:FOR001:   1.ATOM         29.040          0.000          0.000        -29.040 partial forces
       TOTAL FORCE WITH RESPECT TO GLOBAL CARTESIAN COORDINATES:
:FCA001:   1.ATOM                         0.000        -29.040          0.000 partial forces
       TOTAL FORCE WITH RESPECT TO THE GLOBAL COORDINATE SYSTEM:
:FGL001:   1.ATOM                 0.000000000   -29.039676205     0.000000000 partial forces
 Flat Integration
 New Mode for Coulomb Integral
 Consistent 3/8+Simpson combinations
 Extension of core to zero
 LDM version in phi
 Fifth-order quadrature in outwin


            ---------
:ITE006:  6. ITERATION
            ---------

:NATO :    1 INDEPENDENT AND    2 TOTAL ATOMS IN UNITCELL
       SUBSTANCE: aU                                                          

       LATTICE                      = CXY 
:POT  : POTENTIAL OPTION EX_LDA EC_LDA VX_LDA VC_LDA
:LAT  : LATTICE CONSTANTS=  6.02469 12.22562 10.55463    1.571    1.571    1.571
:VOL  : UNIT CELL VOLUME =     388.70398
       MODE OF CALCULATION IS       = RELA
       NON-SPINPOLARIZED CALCULATION
:IFFT  : FFT-parameters:   48   96   90 Factor: 2.00


   CONVERGENCE PARAMETER FOR PSEUDOCHARGE: NCON=  9
   MAXIMAL VALUE OF RMT(JATOM)*ABSK(NKK) : RK  =27.59258


:VKCOUL :  VK-COUL convergence: 0.195E-06
       ATOMNUMBER=  1 Pr1        VCOUL-ZERO =  0.26810E+00
:EFG001:                        EFG         =    -6.43994   *10**21  V / m**2
                               V20  TOT/SRF=    -5.57715    -0.04106
                               V22  TOT/SRF=    -0.42912    -0.00350
                               V22M TOT/SRF=     0.00000     0.00000
                               V21  TOT/SRF=     0.00000     0.00000
                               V21M TOT/SRF=     0.00000     0.00000

              2.79085    0.00000    0.00000        2.79085    0.00000    0.00000
              0.00000    3.64909    0.00000        0.00000    3.64909    0.00000
              0.00000    0.00000   -6.43994        0.00000    0.00000   -6.43994

         MAIN DIRECTIONS OF THE EFG   1.0000  0.0000  0.0000
                                      0.0000  1.0000  0.0000
                                      0.0000  0.0000  1.0000
:ANG001:  ANGLE WITH OLD X-AXIS =         0.0

:ETA001:                         ASYMM. ETA =     0.13327


     HELLMANN-FEYNMAN-FORCE IN mRy/a.u. = |F|  Fx       Fy             Fz
:FHF001:   1.ATOM   1128.617874242640      0.000000000000      0.000000000000  -1128.617874242640

:FIT001: LUSE= 13 SIGMA OF V-XC FIT FOR ATOM  1  0.3508817E-04
:FIT001: LUSE= 13 SIGMA OF V-XC FIT FOR ATOM  1  0.3508817E-04
:DEN  : DENSITY INTEGRAL  =        -14169.01123682   (Ry)
       ELS_POTENTIAL_AT Z=0 and Z=0.5:   0.82369   0.82369
       ELS_POTENTIAL_AT Y=0 and Y=0.5:   0.04946   0.04946
:VZERO:v0,v0c,v0x   0.18870   0.82369  -0.63499 v5,v5c,v5x   0.18870   0.82369  -0.63499
:VZERY:v0,v0c,v0x  -0.79499   0.04946  -0.84445 v5,v5c,v5x  -0.79499   0.04946  -0.84445
:VZERX:v0,v0c,v0x  -1.18811  -0.38784  -0.80028 v5,v5c,v5x  -1.18811  -0.38784  -0.80028
:LMAX-WF:   10   Non-Spherical LMAX:   4

          ATOMIC SPHERE DEPENDENT PARAMETERS FOR ATOM  Pr1       
:e__0001: OVERALL ENERGY PARAMETER IS    0.6087
          OVERALL BASIS SET ON ATOM IS LAPW
:E0_0001: E( 0)=    0.6087
             APW+lo
:E0_0001: E( 0)=   -1.8459   E(BOTTOM)=   -2.481   E(TOP)=   -1.211  4  5   196
             LOCAL ORBITAL
:E1_0001: E( 1)=    1.0087
             APW+lo
:E1_0001: E( 1)=   -0.3754   E(BOTTOM)=   -1.333   E(TOP)=    0.582  3  4   205
             LOCAL ORBITAL
:E3_0001: E( 3)=    0.7959   E(BOTTOM)=    0.591   E(TOP)=    1.001  0  1   117
             APW+lo
:E2_0001: E( 2)=    0.6087   E(BOTTOM)=    0.407   E(TOP)= -200.000  2 -1   121
             APW+lo

       K=   0.06250   0.00000   0.06250            1
:RKM  : MATRIX SIZE   364LOs:  40  RKM= 8.48  WEIGHT= 4.00  PGR:    
       EIGENVALUES ARE:
:EIG00001:      -1.8338370   -1.8044574   -0.5897690   -0.4623374   -0.4331992
:EIG00006:      -0.4219813   -0.4101882   -0.4098014    0.5852679    0.6902620
:EIG00011:       0.7902440    0.7932427    0.7934506    0.7972439    0.8048971
:EIG00016:       0.8195383    0.8258587    0.8260829    0.8301450    0.8330993
:EIG00021:       0.8401190    0.8436126    0.8437294    0.8540764    0.8814820
:EIG00026:       0.9011839    0.9947633    1.0024523    1.0600932    1.0895656
:EIG00031:       1.0944761    1.2245492    1.2604384    1.3226520    1.6268243
:EIG00036:       1.6698225    1.7114445    1.7643007    1.9071611    1.9688730
:EIG00041:       2.0898292    2.1809511    2.2907600
       ********************************************************

:KPT   :      NUMBER OF K-POINTS:   288
:GAP (global)   :    0.0    Ry =     0.0   eV (metal)
         Bandranges (emin - emax) and occupancy:
:BAN00004:   4   -0.566822   -0.462337  2.00000000
:BAN00005:   5   -0.545406   -0.433199  2.00000000
:BAN00006:   6   -0.523880   -0.415281  2.00000000
:BAN00007:   7   -0.494605   -0.410188  2.00000000
:BAN00008:   8   -0.441756   -0.403658  2.00000000
:BAN00009:   9    0.578752    0.756399  2.00000000
:BAN00010:  10    0.679371    0.775384  2.00000000
:BAN00011:  11    0.706764    0.798545  2.00000000
:BAN00012:  12    0.761771    0.803542  1.99132305
:BAN00013:  13    0.776371    0.814947  1.42159269
:BAN00014:  14    0.790103    0.822098  0.58708425
:BAN00015:  15    0.803274    0.824846  0.00000000
:BAN00016:  16    0.808498    0.827574  0.00000000
:BAN00017:  17    0.816261    0.830394  0.00000000
:BAN00018:  18    0.820205    0.832135  0.00000000
:BAN00019:  19    0.824920    0.836443  0.00000000
        Energy to separate low and high energystates:    0.52875


:NOE  : NUMBER OF ELECTRONS          =   26.000

:FER  : F E R M I - ENERGY(TETRAH.M.)=   0.8015264799
:GMA  : POTENTIAL AND CHARGE CUT-OFF  12.00 Ry**.5

:POS001: ATOM   -1 X,Y,Z = 0.00000 0.89750 0.25000  MULT= 2  ZZ= 59.000  Pr1       

       LMMAX 16
       LM=   0 0  1 0  2 0  2 2  3 0  3 2  4 0  4 2  4 4  5 0  5 2  5 4  6 0  6 2  6 4  6 6

:CHA001: TOTAL VALENCE CHARGE INSIDE SPHERE   1 =   9.5950    (RMT=  2.3000 )
:PCS001: PARTIAL CHARGES SPHERE =  1 S,P,D,F,PX,PY,PZ,D-Z2,D-X2Y2,D-XY,D-XZ,D-YZ 
:QTL001: 1.9419 5.0005 0.6341 2.0178 1.6644 1.6628 1.6733 0.1209 0.1137 0.1336 0.1276 0.1383
        Q-s-low E-s-low   Q-p-low E-p-low   Q-d-low E-d-low   Q-f-low E-f-low
:EPL001:  1.8689 -1.8036    4.9268 -0.4849    0.0049 -0.5183    0.0014 -0.5286
        Q-s-hi  E-s-hi    Q-p-hi  E-p-hi    Q-d-hi  E-d-hi    Q-f-hi  E-f-hi 
:EPH001:  0.0729  0.7082    0.0737  0.7427    0.6292  0.7393    2.0164  0.7816

                      VXX         VYY         VZZ       UP TO R
:VZZ001:             2.47901     6.02760    -8.50661       2.300

:CHA  : TOTAL VALENCE CHARGE INSIDE UNIT CELL =      26.000000

:SUM  : SUM OF EIGENVALUES =          -5.527621592


        1.ATOM      Pr1                  14 CORE STATES
       CORE-FORCE in mRy/a.u. = |F|      Fx             Fy             Fz
:FCO001:   1.ATOM   1140.766566939659      0.000000000000      0.000000000000   1140.766566939659

:1S 001: 1S               -3066.798723644 Ry
:2S 001: 2S                -492.556522479 Ry
:2PP001: 2P*               -465.654800449 Ry
:2P 001: 2P                -430.257659617 Ry
:3S 001: 3S                -105.652259533 Ry
:3PP001: 3P*                -94.189869386 Ry
:3P 001: 3P                 -87.182144947 Ry
:3DD001: 3D*                -67.108655811 Ry
:3D 001: 3D                 -65.597161305 Ry
:4S 001: 4S                 -20.321224379 Ry
:4PP001: 4P*                -16.027211005 Ry
:4P 001: 4P                 -14.498659106 Ry
:4DD001: 4D*                 -7.429470445 Ry
:4D 001: 4D                  -7.159674502 Ry
:CINT001 Core Integral Atom   1   45.998507

       DENSITY AT NUCLEUS
        JATOM        VALENCE       SEMI-CORE          CORE           TOTAL
:RTO001:   1      649.419209        0.000000   656825.466714   657474.885923
     
       CHARGES OF NEW CHARGE DENSITY
:NTO   : INTERSTITIAL CHARGE =     6.810022
:NPC   : PW Pseudocharge     =    17.203823
:NTO001: CHARGE SPHERE  1    =    55.593496

:NEC01: NUCLEAR AND ELECTRONIC CHARGE    118.00000   117.99701
     
       CHARGES OF OLD CHARGE DENSITY
:OTO   : INTERSTITIAL CHARGE =     6.820186
:OPC   : PW Pseudocharge     =    17.186143
:OTO001: CHARGE SPHERE  1    =    55.589907

:NEC02: NUCLEAR AND ELECTRONIC CHARGE    118.00000   118.00000
     
       CONVERGENCE TEST
:DTO001: DIFFERENCE IN SPHERE  1 =  0.0353631

:DIS  :  CHARGE DISTANCE       ( 0.0353631 for atom    1 spin 1)      0.0353631
 PW Mixed is          404
 
******************************************************
* MULTISECANT MIXING VER9 RELEASE 10.4.0              *
* Standard Mode with controls                        *
* Fixed density scale                                *
* Regularization       1.000E-04                     *
* Trust Upper Limit    5.000E+00                     *
* Max Number of Memory Steps    8                    *
******************************************************
 
:PWTMP   2.8677E+02  1.9467E+02  3.8870E+02
:PLANE:  PW TOTAL      5.2318 DISTAN   2.72E-02  5.19E-01 %
:CHARG:  CLM/ATOM   1381.9836 DISTAN   1.56E-01  1.13E-02 %
 
Step History
        DMIX         DMIXT        Red     Pred      Trust     Lambda    MagRel    MagAbs     Beta
  1   3.5000E-02   3.5000E-02 -1.00E+00  1.00E+00 -1.00E+01  1.00E+00  3.50E-02  3.50E-02  1.00E+00
  2   2.5000E-02   2.5000E-02  7.28E-01  1.00E+00 -1.00E+01  1.00E+00  2.50E-02  3.94E-02  1.00E+00
  3   4.2274E-02   4.2274E-02  7.86E-01  1.00E+00 -1.00E+01  1.55E-02  4.23E-02  4.84E-02  1.00E+00
  4   5.3403E-02   5.3403E-02  7.61E-01  9.44E-01  2.96E-01  1.15E+00  7.55E-02  6.81E-02  9.65E-01
  5   1.3351E-01   1.1686E-01  6.14E-01  7.25E-01  4.04E-01  9.13E-01  4.04E-01  2.77E-01  1.00E+00
  6   2.5137E-01   2.5137E-01 -1.00E+00  6.69E-01  6.55E-01  1.00E+00  6.16E-01  2.59E-01  1.00E+00
:JACOBIANS    9.502E-01   6.818E-01
  
:NORMS:  1/Froebius, Min, Max, Used   0.6580E+00  0.4252E+00  0.9991E+00  0.7342E+00
:INFO :  Number of Memory Steps    5 Skipping    0
:INFO :  SLambda=    0.8701184202  Max    0.8701184202
:PREDicted Charge, CTotal, PW Trust    2.405E-03   4.809E-03   8.932E-02
:PREDicted DMix, Beta, BLim   4.4035E-01  1.2722E+00  1.4434E+00

Eigenvalues, unscaled except for SY+YY
   #     SY Real        SY Imag          SS             YY         SY+YY Real      SY+YY Imag
   1   1.891989E+00   0.000000E+00   1.824277E+00   3.384428E+00   4.696781E+00   0.000000E+00
   2   3.871726E-01   0.000000E+00   3.283245E-01   1.382423E+00   1.981226E+00   0.000000E+00
   3   1.081359E-01   0.000000E+00   1.215455E-02   2.316169E-01   3.976736E-01   0.000000E+00
   4  -5.111214E-16   0.000000E+00   6.014109E-05   1.519777E-03   1.266933E-05   0.000000E+00
   5   3.164438E-04   0.000000E+00   3.568751E-17   1.258010E-05   1.814489E-03   0.000000E+00
 
:INFO :  Singular value  4.702E+00 Weight  1.000E+00 Projection -5.066E-02
:INFO :  Singular value  1.979E+00 Weight  1.000E+00 Projection -3.814E-02
:INFO :  Singular value  3.976E-01 Weight  1.000E+00 Projection -1.949E-01
:INFO :  Singular value  1.815E-03 Weight  9.664E-01 Projection -7.563E-01
:INFO :  Singular value  1.267E-05 Weight  1.399E-03 Projection  7.280E-03
:RANK :  ACTIVE   3.97/5  =  79.36 % ; YY RANK   3.95/5  =  79.08 %
 
:BLIM :  VZERO Control Off
:TRUST:  Step 9.73E-01  Charge 6.00E-02 (e) CTO  2.00E-01 (e) PW  3.39E-01 (e)
:DIRM :  MEMORY  5/8  SCALE   1.000 RED  0.38 PRED  0.67 NEXT  0.61 
:TRAVE:  Charge 3.68E-03 (e) CTO  7.35E-03 (e) PW  6.44E-02 (e)
:DIRP :  |MSR1|= 2.049E-02 |PRATT|= 2.716E-02 ANGLE=  10.3 DEGREES
:DIRQ :  |MSR1|= 1.158E-01 |PRATT|= 1.559E-01 ANGLE=  14.5 DEGREES
:DIRT :  |MSR1|= 1.176E-01 |PRATT|= 1.583E-01 ANGLE=  14.4 DEGREES
:MIX  :   MSD1   REGULARIZATION:  3.38E-04 GREED: 0.30530  Newton 1.00  0.7427                
     
       CHARGES OF MIXED CHARGE DENSITY
:CTO   : INTERSTITIAL CHARGE =     6.817889
:CPC   : PW Pseudocharge     =    17.208723
:CTO001: CHARGE SPHERE  1    =    55.591056

:NEC03: NUCLEAR AND ELECTRONIC CHARGE    118.00000   118.00000

PW CHANGE     H    K    L      Current       Change    Residue
:PTO001:      0    0    0  6.18121065E-02  5.218E-05  4.643E-05
:PTO003:      0    2    0  1.60149852E-02 -5.142E-05 -1.565E-04
:PTO004:     -1    1    0  7.74943065E-02  1.453E-04  1.141E-04
:PTO005:      0    2   -1 -8.93752621E-02 -1.126E-04 -1.883E-04
:PTO006:      0    0   -2 -4.63219088E-02 -3.186E-05 -1.338E-05
:PTO007:     -1    1   -1 -9.53563727E-02 -5.858E-05 -1.372E-04
:PTO008:      0    2   -2 -1.47821967E-02  1.273E-04  1.788E-04
:PTO009:     -1    1   -2 -7.52092761E-02 -1.019E-04 -1.067E-04
:PTO011:     -1    3    0 -1.18222089E-02 -1.169E-04 -2.060E-04
:PTO012:     -1    3   -1 -5.16894299E-02 -6.692E-05 -7.863E-05
:PTO013:      0    4    0 -9.21009737E-03  1.899E-05  8.826E-06
:PTO014:      0    2   -3  2.12343967E-02  4.213E-05  2.264E-05

:ENE  : ********** TOTAL ENERGY IN Ry =       -36944.23605100

       TOTAL FORCE IN mRy/a.u. = |F|     Fx             Fy             Fz     with/without FOR in case.in2
:FOR001:   1.ATOM         12.149          0.000          0.000         12.149 partial forces
       TOTAL FORCE WITH RESPECT TO GLOBAL CARTESIAN COORDINATES:
:FCA001:   1.ATOM                         0.000         12.149          0.000 partial forces
       TOTAL FORCE WITH RESPECT TO THE GLOBAL COORDINATE SYSTEM:
:FGL001:   1.ATOM                 0.000000000    12.148692697     0.000000000 partial forces
 Flat Integration
 New Mode for Coulomb Integral
 Consistent 3/8+Simpson combinations
 Extension of core to zero
 LDM version in phi
 Fifth-order quadrature in outwin


            ---------
:ITE007:  7. ITERATION
            ---------

:NATO :    1 INDEPENDENT AND    2 TOTAL ATOMS IN UNITCELL
       SUBSTANCE: aU                                                          

       LATTICE                      = CXY 
:POT  : POTENTIAL OPTION EX_LDA EC_LDA VX_LDA VC_LDA
:LAT  : LATTICE CONSTANTS=  6.02469 12.22562 10.55463    1.571    1.571    1.571
:VOL  : UNIT CELL VOLUME =     388.70398
       MODE OF CALCULATION IS       = RELA
       NON-SPINPOLARIZED CALCULATION
:IFFT  : FFT-parameters:   48   96   90 Factor: 2.00


   CONVERGENCE PARAMETER FOR PSEUDOCHARGE: NCON=  9
   MAXIMAL VALUE OF RMT(JATOM)*ABSK(NKK) : RK  =27.59258


:VKCOUL :  VK-COUL convergence: 0.245E-06
       ATOMNUMBER=  1 Pr1        VCOUL-ZERO =  0.26854E+00
:EFG001:                        EFG         =    -8.65934   *10**21  V / m**2
                               V20  TOT/SRF=    -7.49921    -0.04125
                               V22  TOT/SRF=    -0.96926    -0.00521
                               V22M TOT/SRF=     0.00000     0.00000
                               V21  TOT/SRF=     0.00000     0.00000
                               V21M TOT/SRF=     0.00000     0.00000

              3.36041    0.00000    0.00000        3.36041    0.00000    0.00000
              0.00000    5.29894    0.00000        0.00000    5.29894    0.00000
              0.00000    0.00000   -8.65934        0.00000    0.00000   -8.65934

         MAIN DIRECTIONS OF THE EFG   1.0000  0.0000  0.0000
                                      0.0000  1.0000  0.0000
                                      0.0000  0.0000  1.0000
:ANG001:  ANGLE WITH OLD X-AXIS =         0.0

:ETA001:                         ASYMM. ETA =     0.22387


     HELLMANN-FEYNMAN-FORCE IN mRy/a.u. = |F|  Fx       Fy             Fz
:FHF001:   1.ATOM   1570.661610583757      0.000000000000      0.000000000000  -1570.661610583757

:FIT001: LUSE= 13 SIGMA OF V-XC FIT FOR ATOM  1  0.5374756E-04
:FIT001: LUSE= 13 SIGMA OF V-XC FIT FOR ATOM  1  0.5374756E-04
:DEN  : DENSITY INTEGRAL  =        -14169.18851592   (Ry)
       ELS_POTENTIAL_AT Z=0 and Z=0.5:   0.82420   0.82420
       ELS_POTENTIAL_AT Y=0 and Y=0.5:   0.04884   0.04884
:VZERO:v0,v0c,v0x   0.18958   0.82420  -0.63462 v5,v5c,v5x   0.18958   0.82420  -0.63462
:VZERY:v0,v0c,v0x  -0.79554   0.04884  -0.84438 v5,v5c,v5x  -0.79554   0.04884  -0.84438
:VZERX:v0,v0c,v0x  -1.18837  -0.38801  -0.80036 v5,v5c,v5x  -1.18837  -0.38801  -0.80036
:LMAX-WF:   10   Non-Spherical LMAX:   4

          ATOMIC SPHERE DEPENDENT PARAMETERS FOR ATOM  Pr1       
:e__0001: OVERALL ENERGY PARAMETER IS    0.6039
          OVERALL BASIS SET ON ATOM IS LAPW
:E0_0001: E( 0)=    0.6039
             APW+lo
:E0_0001: E( 0)=   -1.8467   E(BOTTOM)=   -2.482   E(TOP)=   -1.212  4  5   197
             LOCAL ORBITAL
:E1_0001: E( 1)=    1.0039
             APW+lo
:E1_0001: E( 1)=   -0.3762   E(BOTTOM)=   -1.333   E(TOP)=    0.581  3  4   202
             LOCAL ORBITAL
:E3_0001: E( 3)=    0.7959   E(BOTTOM)=    0.591   E(TOP)=    1.001  0  1   123
             APW+lo
:E2_0001: E( 2)=    0.6039   E(BOTTOM)=    0.407   E(TOP)= -200.000  2 -1   123
             APW+lo

       K=   0.06250   0.00000   0.06250            1
:RKM  : MATRIX SIZE   364LOs:  40  RKM= 8.48  WEIGHT= 4.00  PGR:    
       EIGENVALUES ARE:
:EIG00001:      -1.8345598   -1.8052200   -0.5897942   -0.4630720   -0.4340851
:EIG00006:      -0.4227969   -0.4106171   -0.4104327    0.5855534    0.6906118
:EIG00011:       0.7899732    0.7931504    0.7937522    0.7976267    0.8051066
:EIG00016:       0.8196972    0.8256138    0.8261090    0.8303334    0.8331572
:EIG00021:       0.8397766    0.8431809    0.8438682    0.8543177    0.8816514
:EIG00026:       0.9010866    0.9950708    1.0024462    1.0599855    1.0895318
:EIG00031:       1.0942713    1.2244944    1.2603548    1.3225902    1.6270073
:EIG00036:       1.6697079    1.7118273    1.7646906    1.9076371    1.9691587
:EIG00041:       2.0903843    2.1812322    2.2911916
       ********************************************************

:KPT   :      NUMBER OF K-POINTS:   288
:GAP (global)   :    0.0    Ry =     0.0   eV (metal)
         Bandranges (emin - emax) and occupancy:
:BAN00004:   4   -0.567231   -0.463072  2.00000000
:BAN00005:   5   -0.545481   -0.434085  2.00000000
:BAN00006:   6   -0.524345   -0.416109  2.00000000
:BAN00007:   7   -0.495402   -0.410617  2.00000000
:BAN00008:   8   -0.442264   -0.404481  2.00000000
:BAN00009:   9    0.579028    0.756540  2.00000000
:BAN00010:  10    0.679665    0.775465  2.00000000
:BAN00011:  11    0.706940    0.798885  2.00000000
:BAN00012:  12    0.761974    0.803799  1.98907729
:BAN00013:  13    0.776123    0.815306  1.40650294
:BAN00014:  14    0.790204    0.821982  0.60441976
:BAN00015:  15    0.803147    0.824633  0.00000000
:BAN00016:  16    0.808445    0.827726  0.00000000
:BAN00017:  17    0.816521    0.830708  0.00000000
:BAN00018:  18    0.820095    0.832648  0.00000000
:BAN00019:  19    0.824803    0.836592  0.00000000
        Energy to separate low and high energystates:    0.52903


:NOE  : NUMBER OF ELECTRONS          =   26.000

:FER  : F E R M I - ENERGY(TETRAH.M.)=   0.8015706692
:GMA  : POTENTIAL AND CHARGE CUT-OFF  12.00 Ry**.5

:POS001: ATOM   -1 X,Y,Z = 0.00000 0.89750 0.25000  MULT= 2  ZZ= 59.000  Pr1       

       LMMAX 16
       LM=   0 0  1 0  2 0  2 2  3 0  3 2  4 0  4 2  4 4  5 0  5 2  5 4  6 0  6 2  6 4  6 6

:CHA001: TOTAL VALENCE CHARGE INSIDE SPHERE   1 =   9.5963    (RMT=  2.3000 )
:PCS001: PARTIAL CHARGES SPHERE =  1 S,P,D,F,PX,PY,PZ,D-Z2,D-X2Y2,D-XY,D-XZ,D-YZ 
:QTL001: 1.9419 5.0013 0.6341 2.0182 1.6646 1.6630 1.6737 0.1209 0.1133 0.1339 0.1275 0.1386
        Q-s-low E-s-low   Q-p-low E-p-low   Q-d-low E-d-low   Q-f-low E-f-low
:EPL001:  1.8690 -1.8044    4.9277 -0.4855    0.0049 -0.5186    0.0014 -0.5284
        Q-s-hi  E-s-hi    Q-p-hi  E-p-hi    Q-d-hi  E-d-hi    Q-f-hi  E-f-hi 
:EPH001:  0.0729  0.7084    0.0737  0.7429    0.6293  0.7394    2.0168  0.7817

                      VXX         VYY         VZZ       UP TO R
:VZZ001:             3.35090     6.04752    -9.39842       2.300

:CHA  : TOTAL VALENCE CHARGE INSIDE UNIT CELL =      26.000000

:SUM  : SUM OF EIGENVALUES =          -5.535892851


        1.ATOM      Pr1                  14 CORE STATES
       CORE-FORCE in mRy/a.u. = |F|      Fx             Fy             Fz
:FCO001:   1.ATOM   1559.911063352196      0.000000000000      0.000000000000   1559.911063352196

:1S 001: 1S               -3066.798707544 Ry
[...]
:OTO001: CHARGE SPHERE  1    =    55.591913

:NEC02: NUCLEAR AND ELECTRONIC CHARGE    118.00000   118.00000
     
       CONVERGENCE TEST
:DTO001: DIFFERENCE IN SPHERE  1 =  0.0001673

:DIS  :  CHARGE DISTANCE       ( 0.0001673 for atom    1 spin 1)      0.0001673
 PW Mixed is          404
 
******************************************************
* MULTISECANT MIXING VER9 RELEASE 10.4.0              *
* Standard Mode with controls                        *
* Fixed density scale                                *
* Regularization       1.000E-04                     *
* Trust Upper Limit    5.000E+00                     *
* Max Number of Memory Steps    8                    *
******************************************************
 
:PWTMP   2.8677E+02  1.9467E+02  3.8870E+02
:PLANE:  PW TOTAL      5.2383 DISTAN   6.62E-05  1.26E-03 %
:CHARG:  CLM/ATOM   1381.9554 DISTAN   2.59E-04  1.88E-05 %
 
Step History
        DMIX         DMIXT        Red     Pred      Trust     Lambda    MagRel    MagAbs     Beta
  4   5.3403E-02   5.3403E-02  7.61E-01  9.44E-01  2.96E-01  1.15E+00  7.55E-02  6.81E-02  9.65E-01
  5   1.3351E-01   1.1686E-01  6.14E-01  7.25E-01  4.04E-01  9.13E-01  4.04E-01  2.77E-01  1.00E+00
  6   2.5137E-01   2.5137E-01  3.76E-01  6.69E-01  6.55E-01  8.70E-01  6.16E-01  2.59E-01  1.00E+00
  7   3.0530E-01   3.0530E-01  3.16E-01  6.14E-01  9.73E-01  6.66E-01  7.43E-01  1.18E-01  1.00E+00
  8   3.5000E-01   3.5000E-01  2.53E-01  6.50E-01  1.30E+00  1.00E+00  6.60E-01  3.30E-02  1.00E+00
  9   3.5000E-01   3.5000E-01  5.11E-01  4.58E-01  1.73E+00  1.50E+00  5.18E-01  6.56E-03  1.00E+00
 10   2.7196E-01   2.7196E-01  3.08E-01  4.05E-01  2.31E+00  1.73E+00  2.13E-01  1.38E-03  9.80E-01
 11   3.1207E-01   3.1207E-01  4.06E-01  5.53E-01  3.07E+00  1.66E+00  3.92E-01  7.80E-04  1.00E+00
 12   3.5000E-01   3.5000E-01 -1.00E+00  3.28E-01  4.10E+00  1.00E+00  6.31E-01  5.09E-04  1.00E+00
:JACOBIANS    1.120E+00   2.865E+00
  
:NORMS:  1/Froebius, Min, Max, Used   0.7553E+00  0.5299E+00  0.1003E+01  0.9579E+00
:INFO :  Number of Memory Steps    8 Skipping    3
:INFO :  SLambda=    1.5928366558  Max    1.5928366558
:PREDicted Charge, CTotal, PW Trust    5.935E-05   1.187E-04   8.934E-06
:PREDicted DMix, Beta, BLim   3.8295E-02  1.0156E+00  2.6706E+00

Eigenvalues, unscaled except for SY+YY
   #     SY Real        SY Imag          SS             YY         SY+YY Real      SY+YY Imag
   1   2.807297E+00   0.000000E+00   2.763545E+00   3.011744E+00   7.464395E+00   0.000000E+00
   2   1.354136E+00   0.000000E+00   9.943731E-01   2.348671E+00   4.461072E+00   0.000000E+00
   3   8.901531E-01   0.000000E+00   6.204615E-01   1.355277E+00   2.762595E+00   0.000000E+00
   4   1.959676E-01   0.000000E+00   1.475842E-01   5.418180E-01   8.179886E-01   0.000000E+00
   5   1.041633E-01   0.000000E+00   2.141641E-02   4.659645E-01   7.082378E-01   0.000000E+00
   6   2.797011E-03   0.000000E+00   1.084536E-02   2.062158E-01   1.707571E-02   0.000000E+00
   7   4.547031E-02   0.000000E+00   5.216243E-03   5.886419E-02   1.207876E-01   0.000000E+00
   8   2.223077E-02   0.000000E+00   5.595820E-04   1.144539E-02   2.845508E-01   0.000000E+00
 
:INFO :  Singular value  7.470E+00 Weight  1.000E+00 Projection  2.724E-05
:INFO :  Singular value  4.472E+00 Weight  1.000E+00 Projection -7.753E-05
:INFO :  Singular value  2.760E+00 Weight  1.000E+00 Projection -5.541E-05
:INFO :  Singular value  8.178E-01 Weight  1.000E+00 Projection  4.145E-05
:INFO :  Singular value  7.070E-01 Weight  1.000E+00 Projection -2.696E-05
:INFO :  Singular value  2.846E-01 Weight  1.000E+00 Projection -1.042E-04
:INFO :  Singular value  1.208E-01 Weight  1.000E+00 Projection -2.743E-04
:INFO :  Singular value  1.707E-02 Weight  9.997E-01 Projection  7.008E-04
:RANK :  ACTIVE   8.00/8  = 100.00 % ; YY RANK   8.00/8  =  99.99 %
 
:BLIM :  VZERO Control Off
:TRUST:  Step 5.47E+00  Charge 1.57E-02 (e) CTO  5.24E-02 (e) PW  1.11E-01 (e)
:DIRM :  MEMORY  8/8  SCALE   1.000 RED  0.33 PRED  0.33 NEXT  0.60 
:TRAVE:  Charge 1.01E-04 (e) CTO  2.02E-04 (e) PW  1.09E-03 (e)
:DIRP :  |MSR1|= 2.478E-05 |PRATT|= 6.623E-05 ANGLE=  32.7 DEGREES
:DIRQ :  |MSR1|= 8.063E-05 |PRATT|= 2.594E-04 ANGLE=  51.1 DEGREES
:DIRT :  |MSR1|= 8.436E-05 |PRATT|= 2.677E-04 ANGLE=  50.0 DEGREES
:MIX  :   MSE1   REGULARIZATION:  3.01E-04 GREED: 0.18277  Newton 1.00  0.3151                
     
       CHARGES OF MIXED CHARGE DENSITY
:CTO   : INTERSTITIAL CHARGE =     6.816183
:CPC   : PW Pseudocharge     =    17.216663
:CTO001: CHARGE SPHERE  1    =    55.591909

:NEC03: NUCLEAR AND ELECTRONIC CHARGE    118.00000   118.00000

PW CHANGE     H    K    L      Current       Change    Residue
:PTO001:      0    0    0  6.18281434E-02  1.091E-07  8.490E-07
:PTO003:      0    2    0  1.59883814E-02 -9.787E-08 -1.530E-07
:PTO004:     -1    1    0  7.74655349E-02  5.172E-08  4.554E-07
:PTO005:      0    2   -1 -8.94277262E-02 -1.132E-07 -4.692E-07
:PTO006:      0    0   -2 -4.63387637E-02  1.713E-08 -8.143E-08
:PTO007:     -1    1   -1 -9.54400289E-02 -1.394E-07 -4.421E-07
:PTO008:      0    2   -2 -1.47967379E-02  4.479E-08  2.297E-07
:PTO009:     -1    1   -2 -7.52896562E-02  2.615E-08 -7.148E-08
:PTO011:     -1    3    0 -1.18915346E-02 -2.190E-07 -5.391E-07
:PTO012:     -1    3   -1 -5.17172986E-02  3.758E-08 -2.660E-07
:PTO013:      0    4    0 -9.20536388E-03  2.968E-08  1.886E-08
:PTO014:      0    2   -3  2.12167102E-02 -1.054E-07 -5.590E-08

:ENE  : ********** TOTAL ENERGY IN Ry =       -36944.23596807

       TOTAL FORCE IN mRy/a.u. = |F|     Fx             Fy             Fz     with/without FOR in case.in2
:FOR001:   1.ATOM         18.865          0.000          0.000        -18.865 partial forces
       TOTAL FORCE WITH RESPECT TO GLOBAL CARTESIAN COORDINATES:
:FCA001:   1.ATOM                         0.000        -18.865          0.000 partial forces
       TOTAL FORCE WITH RESPECT TO THE GLOBAL COORDINATE SYSTEM:
:FGL001:   1.ATOM                 0.000000000   -18.865216695     0.000000000 partial forces
 Flat Integration
 New Mode for Coulomb Integral
 Consistent 3/8+Simpson combinations
 Extension of core to zero
 LDM version in phi
 Fifth-order quadrature in outwin


            ---------
:ITE013: 13. ITERATION
            ---------

:NATO :    1 INDEPENDENT AND    2 TOTAL ATOMS IN UNITCELL
       SUBSTANCE: aU                                                          

       LATTICE                      = CXY 
:POT  : POTENTIAL OPTION EX_LDA EC_LDA VX_LDA VC_LDA
:LAT  : LATTICE CONSTANTS=  6.02469 12.22562 10.55463    1.571    1.571    1.571
:VOL  : UNIT CELL VOLUME =     388.70398
       MODE OF CALCULATION IS       = RELA
       NON-SPINPOLARIZED CALCULATION
:IFFT  : FFT-parameters:   48   96   90 Factor: 2.00


   CONVERGENCE PARAMETER FOR PSEUDOCHARGE: NCON=  9
   MAXIMAL VALUE OF RMT(JATOM)*ABSK(NKK) : RK  =27.59258


:VKCOUL :  VK-COUL convergence: 0.255E-06
       ATOMNUMBER=  1 Pr1        VCOUL-ZERO =  0.26852E+00
:EFG001:                        EFG         =    -9.43253   *10**21  V / m**2
                               V20  TOT/SRF=    -8.16881    -0.04142
                               V22  TOT/SRF=    -1.24305    -0.00405
                               V22M TOT/SRF=     0.00000     0.00000
                               V21  TOT/SRF=     0.00000     0.00000
                               V21M TOT/SRF=     0.00000     0.00000

              3.47321    0.00000    0.00000        3.47321    0.00000    0.00000
              0.00000    5.95932    0.00000        0.00000    5.95932    0.00000
              0.00000    0.00000   -9.43253        0.00000    0.00000   -9.43253

         MAIN DIRECTIONS OF THE EFG   1.0000  0.0000  0.0000
                                      0.0000  1.0000  0.0000
                                      0.0000  0.0000  1.0000
:ANG001:  ANGLE WITH OLD X-AXIS =         0.0

:ETA001:                         ASYMM. ETA =     0.26357


     HELLMANN-FEYNMAN-FORCE IN mRy/a.u. = |F|  Fx       Fy             Fz
:FHF001:   1.ATOM   1604.007332403468      0.000000000000      0.000000000000  -1604.007332403468

:FIT001: LUSE= 13 SIGMA OF V-XC FIT FOR ATOM  1  0.5759493E-04
:FIT001: LUSE= 13 SIGMA OF V-XC FIT FOR ATOM  1  0.5759493E-04
:DEN  : DENSITY INTEGRAL  =        -14169.18814428   (Ry)
       ELS_POTENTIAL_AT Z=0 and Z=0.5:   0.82416   0.82416
       ELS_POTENTIAL_AT Y=0 and Y=0.5:   0.04841   0.04841
:VZERO:v0,v0c,v0x   0.18974   0.82416  -0.63442 v5,v5c,v5x   0.18974   0.82416  -0.63442
:VZERY:v0,v0c,v0x  -0.79596   0.04841  -0.84437 v5,v5c,v5x  -0.79596   0.04841  -0.84437
:VZERX:v0,v0c,v0x  -1.18857  -0.38822  -0.80035 v5,v5c,v5x  -1.18857  -0.38822  -0.80035
:LMAX-WF:   10   Non-Spherical LMAX:   4

          ATOMIC SPHERE DEPENDENT PARAMETERS FOR ATOM  Pr1       
:e__0001: OVERALL ENERGY PARAMETER IS    0.6020
          OVERALL BASIS SET ON ATOM IS LAPW
:E0_0001: E( 0)=    0.6020
             APW+lo
:E0_0001: E( 0)=   -1.8466   E(BOTTOM)=   -2.482   E(TOP)=   -1.212  4  5   198
             LOCAL ORBITAL
:E1_0001: E( 1)=    1.0020
             APW+lo
:E1_0001: E( 1)=   -0.3761   E(BOTTOM)=   -1.333   E(TOP)=    0.581  3  4   199
             LOCAL ORBITAL
:E3_0001: E( 3)=    0.7964   E(BOTTOM)=    0.591   E(TOP)=    1.002  0  1   122
             APW+lo
:E2_0001: E( 2)=    0.6020   E(BOTTOM)=    0.407   E(TOP)= -200.000  2 -1   119
             APW+lo

       K=   0.06250   0.00000   0.06250            1
:RKM  : MATRIX SIZE   364LOs:  40  RKM= 8.48  WEIGHT= 4.00  PGR:    
       EIGENVALUES ARE:
:EIG00001:      -1.8344315   -1.8050672   -0.5898530   -0.4629393   -0.4339672
:EIG00006:      -0.4226796   -0.4104845   -0.4103956    0.5857503    0.6907519
:EIG00011:       0.7901960    0.7935750    0.7941236    0.7980172    0.8053878
:EIG00016:       0.8202359    0.8262491    0.8267211    0.8309165    0.8337047
:EIG00021:       0.8404600    0.8436247    0.8441365    0.8547567    0.8818828
:EIG00026:       0.9012555    0.9951923    1.0025532    1.0601513    1.0896780
:EIG00031:       1.0944649    1.2246089    1.2604878    1.3225731    1.6272510
:EIG00036:       1.6698990    1.7120944    1.7647447    1.9079117    1.9691890
:EIG00041:       2.0904583    2.1814124    2.2915264
       ********************************************************

:KPT   :      NUMBER OF K-POINTS:   288
:GAP (global)   :    0.0    Ry =     0.0   eV (metal)
         Bandranges (emin - emax) and occupancy:
:BAN00004:   4   -0.567143   -0.462939  2.00000000
:BAN00005:   5   -0.545556   -0.433967  2.00000000
:BAN00006:   6   -0.524262   -0.415993  2.00000000
:BAN00007:   7   -0.495272   -0.410484  2.00000000
:BAN00008:   8   -0.442212   -0.404349  2.00000000
:BAN00009:   9    0.579230    0.756735  2.00000000
:BAN00010:  10    0.679829    0.775780  2.00000000
:BAN00011:  11    0.707136    0.799190  2.00000000
:BAN00012:  12    0.762137    0.804190  1.99003294
:BAN00013:  13    0.776447    0.815718  1.41449675
:BAN00014:  14    0.790654    0.822402  0.59547031
:BAN00015:  15    0.803604    0.825145  0.00000000
:BAN00016:  16    0.809005    0.828135  0.00000000
:BAN00017:  17    0.816882    0.831151  0.00000000
:BAN00018:  18    0.820731    0.833097  0.00000000
:BAN00019:  19    0.825178    0.836990  0.00000000
        Energy to separate low and high energystates:    0.52923


:NOE  : NUMBER OF ELECTRONS          =   26.000

:FER  : F E R M I - ENERGY(TETRAH.M.)=   0.8020161663
:GMA  : POTENTIAL AND CHARGE CUT-OFF  12.00 Ry**.5

:POS001: ATOM   -1 X,Y,Z = 0.00000 0.89750 0.25000  MULT= 2  ZZ= 59.000  Pr1       

       LMMAX 16
       LM=   0 0  1 0  2 0  2 2  3 0  3 2  4 0  4 2  4 4  5 0  5 2  5 4  6 0  6 2  6 4  6 6

:CHA001: TOTAL VALENCE CHARGE INSIDE SPHERE   1 =   9.5934    (RMT=  2.3000 )
:PCS001: PARTIAL CHARGES SPHERE =  1 S,P,D,F,PX,PY,PZ,D-Z2,D-X2Y2,D-XY,D-XZ,D-YZ 
:QTL001: 1.9419 5.0014 0.6358 2.0136 1.6646 1.6631 1.6737 0.1212 0.1139 0.1340 0.1279 0.1388
        Q-s-low E-s-low   Q-p-low E-p-low   Q-d-low E-d-low   Q-f-low E-f-low
:EPL001:  1.8690 -1.8042    4.9276 -0.4854    0.0049 -0.5188    0.0014 -0.5285
        Q-s-hi  E-s-hi    Q-p-hi  E-p-hi    Q-d-hi  E-d-hi    Q-f-hi  E-f-hi 
:EPH001:  0.0730  0.7087    0.0738  0.7431    0.6309  0.7397    2.0122  0.7821

                      VXX         VYY         VZZ       UP TO R
:VZZ001:             3.45067     5.93522    -9.38590       2.300

:CHA  : TOTAL VALENCE CHARGE INSIDE UNIT CELL =      26.000000

:SUM  : SUM OF EIGENVALUES =          -5.531839719


        1.ATOM      Pr1                  14 CORE STATES
       CORE-FORCE in mRy/a.u. = |F|      Fx             Fy             Fz
:FCO001:   1.ATOM   1585.130572620477      0.000000000000      0.000000000000   1585.130572620477

:1S 001: 1S               -3066.800848497 Ry
:2S 001: 2S                -492.554801912 Ry
:2PP001: 2P*               -465.653509630 Ry
:2P 001: 2P                -430.256170066 Ry
:3S 001: 3S                -105.649093598 Ry
:3PP001: 3P*                -94.186778756 Ry
:3P 001: 3P                 -87.179001143 Ry
:3DD001: 3D*                -67.105526742 Ry
:3D 001: 3D                 -65.594014296 Ry
:4S 001: 4S                 -20.319285419 Ry
:4PP001: 4P*                -16.025415553 Ry
:4P 001: 4P                 -14.497075562 Ry
:4DD001: 4D*                 -7.428174148 Ry
:4D 001: 4D                  -7.158441480 Ry
:CINT001 Core Integral Atom   1   45.998505

       DENSITY AT NUCLEUS
        JATOM        VALENCE       SEMI-CORE          CORE           TOTAL
:RTO001:   1      649.486112        0.000000   656825.818368   657475.304479
     
       CHARGES OF NEW CHARGE DENSITY
:NTO   : INTERSTITIAL CHARGE =     6.813169
:NPC   : PW Pseudocharge     =    17.209176
:NTO001: CHARGE SPHERE  1    =    55.591920

:NEC01: NUCLEAR AND ELECTRONIC CHARGE    118.00000   117.99701
     
       CHARGES OF OLD CHARGE DENSITY
:OTO   : INTERSTITIAL CHARGE =     6.816183
:OPC   : PW Pseudocharge     =    17.216663
:OTO001: CHARGE SPHERE  1    =    55.591909

:NEC02: NUCLEAR AND ELECTRONIC CHARGE    118.00000   118.00000
     
       CONVERGENCE TEST
:DTO001: DIFFERENCE IN SPHERE  1 =  0.0000689

:DIS  :  CHARGE DISTANCE       ( 0.0000689 for atom    1 spin 1)      0.0000689
 PW Mixed is          404
 
******************************************************
* MULTISECANT MIXING VER9 RELEASE 10.4.0              *
* Standard Mode with controls                        *
* Fixed density scale                                *
* Regularization       1.000E-04                     *
* Trust Upper Limit    5.000E+00                     *
* Max Number of Memory Steps    8                    *
******************************************************
 
:PWTMP   2.8677E+02  1.9467E+02  3.8870E+02
:PLANE:  PW TOTAL      5.2383 DISTAN   3.02E-05  5.76E-04 %
:CHARG:  CLM/ATOM   1381.9554 DISTAN   1.17E-04  8.45E-06 %
 
Step History
        DMIX         DMIXT        Red     Pred      Trust     Lambda    MagRel    MagAbs     Beta
  5   1.3351E-01   1.1686E-01  6.14E-01  7.25E-01  4.04E-01  9.13E-01  4.04E-01  2.77E-01  1.00E+00
  6   2.5137E-01   2.5137E-01  3.76E-01  6.69E-01  6.55E-01  8.70E-01  6.16E-01  2.59E-01  1.00E+00
  7   3.0530E-01   3.0530E-01  3.16E-01  6.14E-01  9.73E-01  6.66E-01  7.43E-01  1.18E-01  1.00E+00
  8   3.5000E-01   3.5000E-01  2.53E-01  6.50E-01  1.30E+00  1.00E+00  6.60E-01  3.30E-02  1.00E+00
  9   3.5000E-01   3.5000E-01  5.11E-01  4.58E-01  1.73E+00  1.50E+00  5.18E-01  6.56E-03  1.00E+00
 10   2.7196E-01   2.7196E-01  3.08E-01  4.05E-01  2.31E+00  1.73E+00  2.13E-01  1.38E-03  9.80E-01
 11   3.1207E-01   3.1207E-01  4.06E-01  5.53E-01  3.07E+00  1.66E+00  3.92E-01  7.80E-04  1.00E+00
 12   3.5000E-01   3.5000E-01  3.32E-01  3.28E-01  4.10E+00  1.59E+00  6.31E-01  5.09E-04  1.00E+00
 13   1.8277E-01   1.8277E-01 -1.00E+00  5.98E-01  5.47E+00  1.00E+00  3.15E-01  8.44E-05  1.00E+00
:JACOBIANS    1.078E+00   3.055E+00
  
:NORMS:  1/Froebius, Min, Max, Used   0.6841E+00  0.5351E+00  0.9842E+00  0.8533E+00
:INFO :  Number of Memory Steps    8 Skipping    4
:INFO :  SLambda=    1.7602251878  Max    1.7602251878
:PREDicted Charge, CTotal, PW Trust    6.047E-06   1.209E-05   8.337E-06
:PREDicted DMix, Beta, BLim   1.6276E-01  9.4724E-01  3.3186E+00

Eigenvalues, unscaled except for SY+YY
   #     SY Real        SY Imag          SS             YY         SY+YY Real      SY+YY Imag
   1   2.364799E+00   0.000000E+00   2.306299E+00   3.167105E+00   6.689824E+00   0.000000E+00
   2   1.322087E+00   0.000000E+00   8.807264E-01   2.516266E+00   5.362082E+00   0.000000E+00
   3   7.160323E-01   0.000000E+00   4.669516E-01   1.161786E+00   2.411835E+00   0.000000E+00
   4   1.092076E-01   0.000000E+00   4.941737E-02   5.289286E-01   3.176641E-02   0.000000E+00
   5   6.899363E-02   0.000000E+00   2.049496E-02   3.472578E-01   1.500510E-01   0.000000E+00
   6   5.484320E-02   0.000000E+00   9.909300E-03   1.811963E-01   2.849084E-01   0.000000E+00
   7   9.372966E-03   0.000000E+00   5.531714E-03   8.374165E-02   7.258067E-01   0.000000E+00
   8   2.783199E-02   0.000000E+00   4.280365E-03   1.371816E-02   5.695538E-01   0.000000E+00
 
:INFO :  Singular value  6.693E+00 Weight  1.000E+00 Projection -2.446E-06
:INFO :  Singular value  5.380E+00 Weight  1.000E+00 Projection -1.168E-05
:INFO :  Singular value  2.409E+00 Weight  1.000E+00 Projection -4.525E-06
:INFO :  Singular value  7.257E-01 Weight  1.000E+00 Projection  8.145E-06
:INFO :  Singular value  5.683E-01 Weight  1.000E+00 Projection -5.843E-06
:INFO :  Singular value  2.849E-01 Weight  1.000E+00 Projection -5.378E-05
:INFO :  Singular value  1.500E-01 Weight  1.000E+00 Projection  9.180E-05
:INFO :  Singular value  3.176E-02 Weight  9.999E-01 Projection -4.676E-04
:RANK :  ACTIVE   8.00/8  = 100.00 % ; YY RANK   8.00/8  =  99.99 %
 
:DLIM :  Beta Active  9.604E-01
:BLIM :  VZERO Control Off
:TRUST:  Step 7.29E+00  Charge 1.26E-02 (e) CTO  4.19E-02 (e) PW  8.88E-02 (e)
:DIRM :  MEMORY  8/8  SCALE   1.000 RED  0.45 PRED  0.60 NEXT  0.83 BETA  0.96
:TRAVE:  Charge 5.08E-05 (e) CTO  1.02E-04 (e) PW  5.45E-04 (e)
:DIRP :  |MSR1|= 1.296E-05 |PRATT|= 3.019E-05 ANGLE=  61.7 DEGREES
:DIRQ :  |MSR1|= 4.223E-05 |PRATT|= 1.168E-04 ANGLE=  20.1 DEGREES
:DIRT :  |MSR1|= 4.417E-05 |PRATT|= 1.206E-04 ANGLE=  25.3 DEGREES
:MIX  :   MSE1   REGULARIZATION:  3.17E-04 GREED: 0.20889  Newton 1.00  0.3661                
     
       CHARGES OF MIXED CHARGE DENSITY
:CTO   : INTERSTITIAL CHARGE =     6.816181
:CPC   : PW Pseudocharge     =    17.216661
:CTO001: CHARGE SPHERE  1    =    55.591909

:NEC03: NUCLEAR AND ELECTRONIC CHARGE    118.00000   118.00000

PW CHANGE     H    K    L      Current       Change    Residue
:PTO001:      0    0    0  6.18281345E-02 -8.848E-09  1.126E-07
:PTO003:      0    2    0  1.59883139E-02 -6.740E-08  8.915E-08
:PTO004:     -1    1    0  7.74655212E-02 -1.370E-08  3.972E-07
:PTO005:      0    2   -1 -8.94276748E-02  5.144E-08 -3.309E-07
:PTO006:      0    0   -2 -4.63387123E-02  5.142E-08 -1.381E-07
:PTO007:     -1    1   -1 -9.54399419E-02  8.705E-08 -3.333E-07
:PTO008:      0    2   -2 -1.47965662E-02  1.717E-07  1.792E-07
:PTO009:     -1    1   -2 -7.52894638E-02  1.923E-07 -2.062E-07
:PTO011:     -1    3    0 -1.18915831E-02 -4.855E-08 -2.544E-07
:PTO012:     -1    3   -1 -5.17171886E-02  1.100E-07 -3.400E-07
:PTO013:      0    4    0 -9.20533292E-03  3.096E-08 -3.959E-09
:PTO014:      0    2   -3  2.12166459E-02 -6.430E-08  3.935E-08

:ENE  : ********** TOTAL ENERGY IN Ry =       -36944.23596806

       TOTAL FORCE IN mRy/a.u. = |F|     Fx             Fy             Fz     with/without FOR in case.in2
:FOR001:   1.ATOM         18.877          0.000          0.000        -18.877 partial forces
       TOTAL FORCE WITH RESPECT TO GLOBAL CARTESIAN COORDINATES:
:FCA001:   1.ATOM                         0.000        -18.877          0.000 partial forces
       TOTAL FORCE WITH RESPECT TO THE GLOBAL COORDINATE SYSTEM:
:FGL001:   1.ATOM                 0.000000000   -18.876759783     0.000000000 partial forces
