
:LABEL1: Calculations in /home/ykent/GWIEN/example/Pr/aU/V13/case
:LABEL2: on didymium-2.cmpgroup.ameslab.gov at Fri Jul 10 13:23:19 CDT 2020
:LABEL3: using WIEN2k_19.1 (Release 25/6/2019) in /home/ykent/opt/src/WIEN2k_19.1
:LABEL4: using the command: run_lapw -cc 0.0001
 Flat Integration
 New Mode for Coulomb Integral
 Consistent 3/8+Simpson combinations
 Extension of core to zero
 LDM version in phi
 Fifth-order quadrature in outwin


            ---------
:ITE001:  1. ITERATION
            ---------

:NATO :    1 INDEPENDENT AND    2 TOTAL ATOMS IN UNITCELL
       SUBSTANCE: aU                                                          

       LATTICE                      = CXY 
:POT  : POTENTIAL OPTION EX_LDA EC_LDA VX_LDA VC_LDA
:LAT  : LATTICE CONSTANTS=  6.10723 12.39312 10.69923    1.571    1.571    1.571
:VOL  : UNIT CELL VOLUME =     404.89996
       MODE OF CALCULATION IS       = RELA
       NON-SPINPOLARIZED CALCULATION
:IFFT  : FFT-parameters:   48   96   90 Factor: 2.00


   CONVERGENCE PARAMETER FOR PSEUDOCHARGE: NCON=  9
   MAXIMAL VALUE OF RMT(JATOM)*ABSK(NKK) : RK  =27.59658


:VKCOUL :  VK-COUL convergence: 0.175E-06
       ATOMNUMBER=  1 Pr1        VCOUL-ZERO =  0.22005E+00
:EFG001:                        EFG         =    -0.03920   *10**21  V / m**2
                               V20  TOT/SRF=    -0.03395    -0.04264
                               V22  TOT/SRF=     0.00576     0.00689
                               V22M TOT/SRF=     0.00000     0.00000
                               V21  TOT/SRF=     0.00000     0.00000
                               V21M TOT/SRF=     0.00000     0.00000

              0.02536    0.00000    0.00000        0.02536    0.00000    0.00000
              0.00000    0.01384    0.00000        0.00000    0.01384    0.00000
              0.00000    0.00000   -0.03920        0.00000    0.00000   -0.03920

         MAIN DIRECTIONS OF THE EFG   1.0000  0.0000  0.0000
                                      0.0000  1.0000  0.0000
                                      0.0000  0.0000  1.0000
:ANG001:  ANGLE WITH OLD X-AXIS =         0.0

:ETA001:                         ASYMM. ETA =     0.29372


     HELLMANN-FEYNMAN-FORCE IN mRy/a.u. = |F|  Fx       Fy             Fz
:FHF001:   1.ATOM    442.398097490355      0.000000000000      0.000000000000   -442.398097490355

:FIT001: LUSE= 13 SIGMA OF V-XC FIT FOR ATOM  1  0.4634869E-05
:FIT001: LUSE= 13 SIGMA OF V-XC FIT FOR ATOM  1  0.4634869E-05
:DEN  : DENSITY INTEGRAL  =        -14173.49188721   (Ry)
       ELS_POTENTIAL_AT Z=0 and Z=0.5:   0.78532   0.78532
       ELS_POTENTIAL_AT Y=0 and Y=0.5:   0.03966   0.03966
:VZERO:v0,v0c,v0x   0.16530   0.78532  -0.62002 v5,v5c,v5x   0.16530   0.78532  -0.62002
:VZERY:v0,v0c,v0x  -0.78312   0.03966  -0.82278 v5,v5c,v5x  -0.78312   0.03966  -0.82278
:VZERX:v0,v0c,v0x  -1.15351  -0.37590  -0.77761 v5,v5c,v5x  -1.15351  -0.37590  -0.77761
:LMAX-WF:   10   Non-Spherical LMAX:   4

          ATOMIC SPHERE DEPENDENT PARAMETERS FOR ATOM  Pr1       
:e__0001: OVERALL ENERGY PARAMETER IS    0.3000
          OVERALL BASIS SET ON ATOM IS LAPW
:E0_0001: E( 0)=    0.3000
             APW+lo
:E0_0001: E( 0)=   -1.8552   E(BOTTOM)=   -2.497   E(TOP)=   -1.213  4  5   197
             LOCAL ORBITAL
:E1_0001: E( 1)=    0.7000
             APW+lo
:E1_0001: E( 1)=   -0.3890   E(BOTTOM)=   -1.355   E(TOP)=    0.577  3  4   203
             LOCAL ORBITAL
:E3_0001: E( 3)=    0.5999   E(BOTTOM)=    0.600   E(TOP)= -200.000  0 -1   101
             APW+lo
:E2_0001: E( 2)=    0.3813   E(BOTTOM)=    0.381   E(TOP)= -200.000  2 -1    85
             APW+lo

       K=   0.06250   0.00000   0.06250            1
:RKM  : MATRIX SIZE   385LOs:  40  RKM= 8.49  WEIGHT= 4.00  PGR:    
       EIGENVALUES ARE:
:EIG00001:      -1.8421931   -1.8152748   -0.6060106   -0.4818542   -0.4547304
:EIG00006:      -0.4459217   -0.4363477   -0.4342596    0.5389507    0.6547025
:EIG00011:       0.7841528    0.8004845    0.8041830    0.8063960    0.8146206
:EIG00016:       0.8340857    0.8403099    0.8408177    0.8433558    0.8457950
:EIG00021:       0.8502425    0.8558643    0.8568897    0.8700213    0.8774201
:EIG00026:       0.8841147    0.9625799    0.9668122    1.0188410    1.0437832
:EIG00031:       1.0561921    1.1732424    1.2160116    1.2749165    1.5756909
:EIG00036:       1.6146671    1.6601753    1.6974968    1.8477097    1.9031648
       ********************************************************

:KPT   :      NUMBER OF K-POINTS:   288
:GAP (global)   :    0.0    Ry =     0.0   eV (metal)
         Bandranges (emin - emax) and occupancy:
:BAN00004:   4   -0.580907   -0.481854  2.00000000
:BAN00005:   5   -0.562880   -0.454730  2.00000000
:BAN00006:   6   -0.541006   -0.439661  2.00000000
:BAN00007:   7   -0.512450   -0.435233  2.00000000
:BAN00008:   8   -0.464979   -0.428565  2.00000000
:BAN00009:   9    0.532705    0.738586  2.00000000
:BAN00010:  10    0.639563    0.757902  2.00000000
:BAN00011:  11    0.677429    0.796636  2.00000000
:BAN00012:  12    0.737851    0.804097  2.00000000
:BAN00013:  13    0.767897    0.829043  1.58859280
:BAN00014:  14    0.792431    0.833428  0.41140720
:BAN00015:  15    0.810233    0.841027  0.00000000
:BAN00016:  16    0.819459    0.841198  0.00000000
:BAN00017:  17    0.828549    0.842763  0.00000000
:BAN00018:  18    0.832850    0.844483  0.00000000
:BAN00019:  19    0.838502    0.848888  0.00000000
        Energy to separate low and high energystates:    0.48271


:NOE  : NUMBER OF ELECTRONS          =   26.000

:FER  : F E R M I - ENERGY(TETRAH.M.)=   0.8097457477
:GMA  : POTENTIAL AND CHARGE CUT-OFF  12.00 Ry**.5

:POS001: ATOM   -1 X,Y,Z = 0.00000 0.89750 0.25000  MULT= 2  ZZ= 59.000  Pr1       

       LMMAX 16
       LM=   0 0  1 0  2 0  2 2  3 0  3 2  4 0  4 2  4 4  5 0  5 2  5 4  6 0  6 2  6 4  6 6

:CHA001: TOTAL VALENCE CHARGE INSIDE SPHERE   1 =   9.0737    (RMT=  2.3000 )
:PCS001: PARTIAL CHARGES SPHERE =  1 S,P,D,F,PX,PY,PZ,D-Z2,D-X2Y2,D-XY,D-XZ,D-YZ 
:QTL001: 1.9475 5.0060 0.7928 1.3268 1.6632 1.6649 1.6779 0.1543 0.1656 0.1525 0.1561 0.1643
        Q-s-low E-s-low   Q-p-low E-p-low   Q-d-low E-d-low   Q-f-low E-f-low
:EPL001:  1.8654 -1.8146    4.9011 -0.5049    0.0044 -0.5410    0.0012 -0.5518
        Q-s-hi  E-s-hi    Q-p-hi  E-p-hi    Q-d-hi  E-d-hi    Q-f-hi  E-f-hi 
:EPH001:  0.0821  0.6792    0.1049  0.7275    0.7884  0.7260    1.3256  0.7814

                      VXX         VYY         VZZ       UP TO R
:VZZ001:             5.56005     5.47505   -11.03510       2.300

:CHA  : TOTAL VALENCE CHARGE INSIDE UNIT CELL =      26.000000

:SUM  : SUM OF EIGENVALUES =          -5.997717252


        1.ATOM      Pr1                  14 CORE STATES
       CORE-FORCE in mRy/a.u. = |F|      Fx             Fy             Fz
:FCO001:   1.ATOM    358.983138384723      0.000000000000      0.000000000000    358.983138384723

:1S 001: 1S               -3066.726945979 Ry
:2S 001: 2S                -492.492692762 Ry
:2PP001: 2P*               -465.590309350 Ry
:2P 001: 2P                -430.193512931 Ry
:3S 001: 3S                -105.590634209 Ry
:3PP001: 3P*                -94.128022617 Ry
:3P 001: 3P                 -87.120674642 Ry
:3DD001: 3D*                -67.046945742 Ry
:3D 001: 3D                 -65.535531558 Ry
:4S 001: 4S                 -20.278156397 Ry
:4PP001: 4P*                -15.985363755 Ry
:4P 001: 4P                 -14.458655269 Ry
:4DD001: 4D*                 -7.393132580 Ry
:4D 001: 4D                  -7.124001834 Ry
:CINT001 Core Integral Atom   1   45.998450

       DENSITY AT NUCLEUS
        JATOM        VALENCE       SEMI-CORE          CORE           TOTAL
:RTO001:   1      648.586942        0.000000   656820.325822   657468.912764
     
       CHARGES OF NEW CHARGE DENSITY
:NTO   : INTERSTITIAL CHARGE =     7.852504
:NPC   : PW Pseudocharge     =    17.458581
:NTO001: CHARGE SPHERE  1    =    55.072197

:NEC01: NUCLEAR AND ELECTRONIC CHARGE    118.00000   117.99690
     
       CHARGES OF OLD CHARGE DENSITY
:OTO   : INTERSTITIAL CHARGE =     6.762623
:OPC   : PW Pseudocharge     =    15.928027
:OTO001: CHARGE SPHERE  1    =    55.619328

:NEC02: NUCLEAR AND ELECTRONIC CHARGE    118.00000   118.00128
     
       CONVERGENCE TEST
:DTO001: DIFFERENCE IN SPHERE  1 =  0.9211310

:DIS  :  CHARGE DISTANCE       ( 0.9211310 for atom    1 spin 1)      0.9211310
 PW Mixed is          421
 
******************************************************
* MULTISECANT MIXING VER9 RELEASE 10.4.0              *
* Standard Mode with controls                        *
* Fixed density scale                                *
* Regularization       1.000E-04                     *
* Trust Upper Limit    5.000E+00                     *
* Max Number of Memory Steps    8                    *
******************************************************
 
:PWTMP   3.0297E+02  1.9467E+02  4.0490E+02
:PLANE:  PW TOTAL      4.6360 DISTAN   6.09E-01  1.31E+01 %
:CHARG:  CLM/ATOM   1382.0525 DISTAN   1.36E+00  9.87E-02 %
 
Step History
        DMIX         DMIXT        Red     Pred      Trust     Lambda    MagRel    MagAbs     Beta
  1   3.5000E-02   3.5000E-02 -1.00E+00  1.00E+00 -1.00E+01  1.00E+00  3.50E-02  3.50E-02  1.00E+00
:INFO :  Note, Pratt in use
:TRUST:  Step 3.75E-02  Charge 7.50E-02 (e) CTO  2.50E-01 (e) PW  3.50E-01 (e)
:DIRM :  MEMORY  0/ 8 SCALE   1.000
Performing Pseudo Compensation
Final Pseudo Compensation Rescaling     1.00000E+00
:MIX  :   PRATT  REGULARIZATION:  1.00E-04 GREED: 0.02500                  
     
       CHARGES OF MIXED CHARGE DENSITY
:CTO   : INTERSTITIAL CHARGE =     6.788701
:CPC   : PW Pseudocharge     =    16.837725
:CTO001: CHARGE SPHERE  1    =    55.605650

:NEC03: NUCLEAR AND ELECTRONIC CHARGE    118.00000   118.00000

PW CHANGE     H    K    L      Current       Change    Residue
:PTO001:      0    0    0  5.83512661E-02  2.322E-03  6.507E-03
:PTO003:      0    2    0  1.50876289E-02  1.044E-03  2.208E-03
:PTO004:     -1    1    0  7.37028054E-02  5.558E-03  8.101E-03
:PTO005:      0    2   -1 -8.57850098E-02 -6.558E-03 -8.018E-03
:PTO006:      0    0   -2 -4.45090281E-02 -3.406E-03 -4.011E-03
:PTO007:     -1    1   -1 -9.22738371E-02 -7.706E-03 -7.889E-03
:PTO008:      0    2   -2 -1.46883935E-02 -1.543E-03 -1.718E-03
:PTO009:     -1    1   -2 -7.28572619E-02 -8.342E-03 -9.592E-03
:PTO011:     -1    3    0 -1.13851664E-02 -1.598E-03 -1.793E-03
:PTO012:     -1    3   -1 -5.02854724E-02 -7.882E-03 -9.809E-03
:PTO013:      0    4    0 -9.15339570E-03 -1.624E-03 -1.727E-03
:PTO014:      0    2   -3  2.06196136E-02  3.698E-03  4.672E-03

:ENE  : ********** TOTAL ENERGY IN Ry =       -36944.27587475

       TOTAL FORCE IN mRy/a.u. = |F|     Fx             Fy             Fz     with/without FOR in case.in2
:FOR001:   1.ATOM         83.415          0.000          0.000        -83.415 partial forces
       TOTAL FORCE WITH RESPECT TO GLOBAL CARTESIAN COORDINATES:
:FCA001:   1.ATOM                         0.000        -83.415          0.000 partial forces
       TOTAL FORCE WITH RESPECT TO THE GLOBAL COORDINATE SYSTEM:
:FGL001:   1.ATOM                 0.000000000   -83.414959106     0.000000000 partial forces
 Flat Integration
 New Mode for Coulomb Integral
 Consistent 3/8+Simpson combinations
 Extension of core to zero
 LDM version in phi
 Fifth-order quadrature in outwin


            ---------
:ITE002:  2. ITERATION
            ---------

:NATO :    1 INDEPENDENT AND    2 TOTAL ATOMS IN UNITCELL
       SUBSTANCE: aU                                                          

       LATTICE                      = CXY 
:POT  : POTENTIAL OPTION EX_LDA EC_LDA VX_LDA VC_LDA
:LAT  : LATTICE CONSTANTS=  6.10723 12.39312 10.69923    1.571    1.571    1.571
:VOL  : UNIT CELL VOLUME =     404.89996
       MODE OF CALCULATION IS       = RELA
       NON-SPINPOLARIZED CALCULATION
:IFFT  : FFT-parameters:   48   96   90 Factor: 2.00


   CONVERGENCE PARAMETER FOR PSEUDOCHARGE: NCON=  9
   MAXIMAL VALUE OF RMT(JATOM)*ABSK(NKK) : RK  =27.59658


:VKCOUL :  VK-COUL convergence: 0.109E-06
       ATOMNUMBER=  1 Pr1        VCOUL-ZERO =  0.22413E+00
:EFG001:                        EFG         =    -0.31517   *10**21  V / m**2
                               V20  TOT/SRF=    -0.27294    -0.04236
                               V22  TOT/SRF=     0.00639     0.00624
                               V22M TOT/SRF=     0.00000     0.00000
                               V21  TOT/SRF=     0.00000     0.00000
                               V21M TOT/SRF=     0.00000     0.00000

              0.16398    0.00000    0.00000        0.16398    0.00000    0.00000
              0.00000    0.15119    0.00000        0.00000    0.15119    0.00000
              0.00000    0.00000   -0.31517        0.00000    0.00000   -0.31517

         MAIN DIRECTIONS OF THE EFG   1.0000  0.0000  0.0000
                                      0.0000  1.0000  0.0000
                                      0.0000  0.0000  1.0000
:ANG001:  ANGLE WITH OLD X-AXIS =         0.0

:ETA001:                         ASYMM. ETA =     0.04057


     HELLMANN-FEYNMAN-FORCE IN mRy/a.u. = |F|  Fx       Fy             Fz
:FHF001:   1.ATOM    445.924626977469      0.000000000000      0.000000000000   -445.924626977469

:FIT001: LUSE= 13 SIGMA OF V-XC FIT FOR ATOM  1  0.4736932E-05
:FIT001: LUSE= 13 SIGMA OF V-XC FIT FOR ATOM  1  0.4736932E-05
:DEN  : DENSITY INTEGRAL  =        -14171.13846629   (Ry)
       ELS_POTENTIAL_AT Z=0 and Z=0.5:   0.79197   0.79197
       ELS_POTENTIAL_AT Y=0 and Y=0.5:   0.04344   0.04344
:VZERO:v0,v0c,v0x   0.17111   0.79197  -0.62086 v5,v5c,v5x   0.17111   0.79197  -0.62086
:VZERY:v0,v0c,v0x  -0.78212   0.04344  -0.82555 v5,v5c,v5x  -0.78212   0.04344  -0.82555
:VZERX:v0,v0c,v0x  -1.16631  -0.38235  -0.78395 v5,v5c,v5x  -1.16631  -0.38235  -0.78395
:LMAX-WF:   10   Non-Spherical LMAX:   4

          ATOMIC SPHERE DEPENDENT PARAMETERS FOR ATOM  Pr1       
:e__0001: OVERALL ENERGY PARAMETER IS    0.5000
          OVERALL BASIS SET ON ATOM IS LAPW
:E0_0001: E( 0)=    0.5000
             APW+lo
:E0_0001: E( 0)=   -1.8608   E(BOTTOM)=   -2.501   E(TOP)=   -1.221  4  5   197
             LOCAL ORBITAL
:E1_0001: E( 1)=    0.9000
             APW+lo
:E1_0001: E( 1)=   -0.3935   E(BOTTOM)=   -1.357   E(TOP)=    0.570  3  4   207
             LOCAL ORBITAL
:E3_0001: E( 3)=    0.5891   E(BOTTOM)=    0.589   E(TOP)= -200.000  0 -1    78
             APW+lo
:E2_0001: E( 2)=    0.5000   E(BOTTOM)=    0.380   E(TOP)= -200.000  2 -1    79
             APW+lo

       K=   0.06250   0.00000   0.06250            1
:RKM  : MATRIX SIZE   385LOs:  40  RKM= 8.49  WEIGHT= 4.00  PGR:    
       EIGENVALUES ARE:
:EIG00001:      -1.8469781   -1.8203571   -0.6074795   -0.4847124   -0.4578070
:EIG00006:      -0.4490240   -0.4393739   -0.4374894    0.5426310    0.6578644
:EIG00011:       0.7798169    0.7914666    0.7936513    0.7970897    0.8040102
:EIG00016:       0.8219574    0.8283846    0.8292713    0.8333137    0.8353738
:EIG00021:       0.8389358    0.8444021    0.8454289    0.8566563    0.8675925
:EIG00026:       0.8767517    0.9612969    0.9674562    1.0197457    1.0448393
:EIG00031:       1.0568110    1.1741880    1.2162151    1.2747766    1.5775727
:EIG00036:       1.6161175    1.6624543    1.6985205    1.8505597    1.9062120
:EIG00041:       2.0178141    2.1148083
       ********************************************************

:KPT   :      NUMBER OF K-POINTS:   288
:GAP (global)   :    0.0    Ry =     0.0   eV (metal)
         Bandranges (emin - emax) and occupancy:
:BAN00004:   4   -0.582641   -0.484712  2.00000000
:BAN00005:   5   -0.565002   -0.457807  2.00000000
:BAN00006:   6   -0.543184   -0.442833  2.00000000
:BAN00007:   7   -0.514880   -0.438450  2.00000000
:BAN00008:   8   -0.467849   -0.431853  2.00000000
:BAN00009:   9    0.536408    0.737859  2.00000000
:BAN00010:  10    0.642844    0.757784  2.00000000
:BAN00011:  11    0.680155    0.793310  2.00000000
:BAN00012:  12    0.738387    0.798656  2.00000000
:BAN00013:  13    0.764638    0.817056  1.59097456
:BAN00014:  14    0.785377    0.825056  0.40902544
:BAN00015:  15    0.800551    0.828505  0.00000000
:BAN00016:  16    0.809756    0.829546  0.00000000
:BAN00017:  17    0.817078    0.830847  0.00000000
:BAN00018:  18    0.821819    0.832000  0.00000000
:BAN00019:  19    0.827287    0.836930  0.00000000
        Energy to separate low and high energystates:    0.48641


:NOE  : NUMBER OF ELECTRONS          =   26.000

:FER  : F E R M I - ENERGY(TETRAH.M.)=   0.8004062576
:GMA  : POTENTIAL AND CHARGE CUT-OFF  12.00 Ry**.5

:POS001: ATOM   -1 X,Y,Z = 0.00000 0.89750 0.25000  MULT= 2  ZZ= 59.000  Pr1       

       LMMAX 16
       LM=   0 0  1 0  2 0  2 2  3 0  3 2  4 0  4 2  4 4  5 0  5 2  5 4  6 0  6 2  6 4  6 6

:CHA001: TOTAL VALENCE CHARGE INSIDE SPHERE   1 =   9.2040    (RMT=  2.3000 )
:PCS001: PARTIAL CHARGES SPHERE =  1 S,P,D,F,PX,PY,PZ,D-Z2,D-X2Y2,D-XY,D-XZ,D-YZ 
:QTL001: 1.9462 5.0045 0.7442 1.5084 1.6635 1.6644 1.6766 0.1433 0.1502 0.1463 0.1479 0.1565
        Q-s-low E-s-low   Q-p-low E-p-low   Q-d-low E-d-low   Q-f-low E-f-low
:EPL001:  1.8664 -1.8198    4.9092 -0.5074    0.0043 -0.5434    0.0012 -0.5541
        Q-s-hi  E-s-hi    Q-p-hi  E-p-hi    Q-d-hi  E-d-hi    Q-f-hi  E-f-hi 
:EPH001:  0.0799  0.6792    0.0953  0.7239    0.7399  0.7229    1.5072  0.7749

                      VXX         VYY         VZZ       UP TO R
:VZZ001:             3.99740     5.29046    -9.28786       2.300

:CHA  : TOTAL VALENCE CHARGE INSIDE UNIT CELL =      26.000000

:SUM  : SUM OF EIGENVALUES =          -6.061115528


        1.ATOM      Pr1                  14 CORE STATES
       CORE-FORCE in mRy/a.u. = |F|      Fx             Fy             Fz
:FCO001:   1.ATOM    369.059193530555      0.000000000000      0.000000000000    369.059193530555

:1S 001: 1S               -3066.756060392 Ry
:2S 001: 2S                -492.521359745 Ry
:2PP001: 2P*               -465.619036408 Ry
:2P 001: 2P                -430.222213264 Ry
:3S 001: 3S                -105.618190572 Ry
:3PP001: 3P*                -94.155667548 Ry
:3P 001: 3P                 -87.148175978 Ry
:3DD001: 3D*                -67.074711910 Ry
:3D 001: 3D                 -65.563260323 Ry
:4S 001: 4S                 -20.299001907 Ry
:4PP001: 4P*                -16.005802340 Ry
:4P 001: 4P                 -14.478459932 Ry
:4DD001: 4D*                 -7.411805250 Ry
:4D 001: 4D                  -7.142456966 Ry
:CINT001 Core Integral Atom   1   45.998467

       DENSITY AT NUCLEUS
        JATOM        VALENCE       SEMI-CORE          CORE           TOTAL
:RTO001:   1      648.905426        0.000000   656821.794934   657470.700360
     
       CHARGES OF NEW CHARGE DENSITY
:NTO   : INTERSTITIAL CHARGE =     7.592075
:NPC   : PW Pseudocharge     =    17.371138
:NTO001: CHARGE SPHERE  1    =    55.202429

:NEC01: NUCLEAR AND ELECTRONIC CHARGE    118.00000   117.99693
     
       CHARGES OF OLD CHARGE DENSITY
:OTO   : INTERSTITIAL CHARGE =     6.788701
:OPC   : PW Pseudocharge     =    16.837725
:OTO001: CHARGE SPHERE  1    =    55.605650

:NEC02: NUCLEAR AND ELECTRONIC CHARGE    118.00000   118.00000
     
       CONVERGENCE TEST
:DTO001: DIFFERENCE IN SPHERE  1 =  0.6781237

:DIS  :  CHARGE DISTANCE       ( 0.6781237 for atom    1 spin 1)      0.6781237
 PW Mixed is          421
 
******************************************************
* MULTISECANT MIXING VER9 RELEASE 10.4.0              *
* Slow Mode, cautious                                *
* Fixed density scale                                *
* Regularization       1.000E-04                     *
* Step Trust Radius    0.75000                       *
* Trust Upper Limit    2.000E+00                     *
* Max Number of Memory Steps   12                    *
******************************************************
 
:PWTMP   3.0297E+02  1.9467E+02  4.0490E+02
:PLANE:  PW TOTAL      5.0078 DISTAN   2.05E-01  4.08E+00 %
:CHARG:  CLM/ATOM   1382.0472 DISTAN   1.05E+00  7.61E-02 %
 
Step History
        DMIX         DMIXT        Red     Pred      Trust     Lambda    MagRel    MagAbs     Beta
  1   3.5000E-02   3.5000E-02 -1.00E+00  1.00E+00 -1.00E+01  1.00E+00  3.50E-02  3.50E-02  1.00E+00
  2   2.5000E-02   2.5000E-02 -1.00E+00  1.00E+00 -1.00E+01  1.00E+00  2.50E-02  3.73E-02  1.00E+00
:JACOBIANS    3.093E-01   1.721E-02
  
:TRUST:  Step 4.11E-02  Charge 7.50E-02 (e) CTO  2.50E-01 (e) PW  3.50E-01 (e)
:DIRM :  MEMORY  1/12 SCALE   1.000
:MIX  :   PRATT  REGULARIZATION:  1.00E-04 GREED: 0.04111  Expand 1.64  0.0411                
     
       CHARGES OF MIXED CHARGE DENSITY
:CTO   : INTERSTITIAL CHARGE =     6.819111
:CPC   : PW Pseudocharge     =    17.852310
:CTO001: CHARGE SPHERE  1    =    55.590445

:NEC03: NUCLEAR AND ELECTRONIC CHARGE    118.00000   118.00000

PW CHANGE     H    K    L      Current       Change    Residue
:PTO001:      0    0    0  6.09321399E-02  2.581E-03  3.326E-03
:PTO003:      0    2    0  1.62478104E-02  1.160E-03  1.117E-03
:PTO004:     -1    1    0  7.98808800E-02  6.178E-03  2.512E-03
:PTO005:      0    2   -1 -9.30754594E-02 -7.290E-03 -1.424E-03
:PTO006:      0    0   -2 -4.82957386E-02 -3.787E-03 -6.003E-04
:PTO007:     -1    1   -1 -1.00840113E-01 -8.566E-03 -3.276E-04
:PTO008:      0    2   -2 -1.64031819E-02 -1.715E-03 -1.814E-04
:PTO009:     -1    1   -2 -8.21307932E-02 -9.274E-03 -1.440E-03
:PTO011:     -1    3    0 -1.31618972E-02 -1.777E-03 -2.256E-04
:PTO012:     -1    3   -1 -5.90471589E-02 -8.762E-03 -2.028E-03
:PTO013:      0    4    0 -1.09587444E-02 -1.805E-03 -1.071E-04
:PTO014:      0    2   -3  2.47299214E-02  4.110E-03  9.609E-04

:ENE  : ********** TOTAL ENERGY IN Ry =       -36944.25159561

       TOTAL FORCE IN mRy/a.u. = |F|     Fx             Fy             Fz     with/without FOR in case.in2
:FOR001:   1.ATOM         76.865          0.000          0.000        -76.865 partial forces
       TOTAL FORCE WITH RESPECT TO GLOBAL CARTESIAN COORDINATES:
:FCA001:   1.ATOM                         0.000        -76.865          0.000 partial forces
       TOTAL FORCE WITH RESPECT TO THE GLOBAL COORDINATE SYSTEM:
:FGL001:   1.ATOM                 0.000000000   -76.865433447     0.000000000 partial forces
 Flat Integration
 New Mode for Coulomb Integral
 Consistent 3/8+Simpson combinations
 Extension of core to zero
 LDM version in phi
 Fifth-order quadrature in outwin


            ---------
:ITE003:  3. ITERATION
            ---------

:NATO :    1 INDEPENDENT AND    2 TOTAL ATOMS IN UNITCELL
       SUBSTANCE: aU                                                          

       LATTICE                      = CXY 
:POT  : POTENTIAL OPTION EX_LDA EC_LDA VX_LDA VC_LDA
:LAT  : LATTICE CONSTANTS=  6.10723 12.39312 10.69923    1.571    1.571    1.571
:VOL  : UNIT CELL VOLUME =     404.89996
       MODE OF CALCULATION IS       = RELA
       NON-SPINPOLARIZED CALCULATION
:IFFT  : FFT-parameters:   48   96   90 Factor: 2.00


   CONVERGENCE PARAMETER FOR PSEUDOCHARGE: NCON=  9
   MAXIMAL VALUE OF RMT(JATOM)*ABSK(NKK) : RK  =27.59658


:VKCOUL :  VK-COUL convergence: 0.116E-06
       ATOMNUMBER=  1 Pr1        VCOUL-ZERO =  0.22868E+00
:EFG001:                        EFG         =    -0.62195   *10**21  V / m**2
                               V20  TOT/SRF=    -0.53862    -0.04206
                               V22  TOT/SRF=     0.00709     0.00551
                               V22M TOT/SRF=     0.00000     0.00000
                               V21  TOT/SRF=     0.00000     0.00000
                               V21M TOT/SRF=     0.00000     0.00000

              0.31807    0.00000    0.00000        0.31807    0.00000    0.00000
              0.00000    0.30388    0.00000        0.00000    0.30388    0.00000
              0.00000    0.00000   -0.62195        0.00000    0.00000   -0.62195

         MAIN DIRECTIONS OF THE EFG   1.0000  0.0000  0.0000
                                      0.0000  1.0000  0.0000
                                      0.0000  0.0000  1.0000
:ANG001:  ANGLE WITH OLD X-AXIS =         0.0

:ETA001:                         ASYMM. ETA =     0.02281


     HELLMANN-FEYNMAN-FORCE IN mRy/a.u. = |F|  Fx       Fy             Fz
:FHF001:   1.ATOM    449.795191499098      0.000000000000      0.000000000000   -449.795191499098

:FIT001: LUSE= 13 SIGMA OF V-XC FIT FOR ATOM  1  0.4949427E-05
:FIT001: LUSE= 13 SIGMA OF V-XC FIT FOR ATOM  1  0.4949427E-05
:DEN  : DENSITY INTEGRAL  =        -14168.52742827   (Ry)
       ELS_POTENTIAL_AT Z=0 and Z=0.5:   0.79953   0.79953
       ELS_POTENTIAL_AT Y=0 and Y=0.5:   0.04766   0.04766
:VZERO:v0,v0c,v0x   0.17766   0.79953  -0.62187 v5,v5c,v5x   0.17766   0.79953  -0.62187
:VZERY:v0,v0c,v0x  -0.78098   0.04766  -0.82864 v5,v5c,v5x  -0.78098   0.04766  -0.82864
:VZERX:v0,v0c,v0x  -1.18020  -0.38961  -0.79059 v5,v5c,v5x  -1.18020  -0.38961  -0.79059
:LMAX-WF:   10   Non-Spherical LMAX:   4

          ATOMIC SPHERE DEPENDENT PARAMETERS FOR ATOM  Pr1       
:e__0001: OVERALL ENERGY PARAMETER IS    0.5669
          OVERALL BASIS SET ON ATOM IS LAPW
:E0_0001: E( 0)=    0.5669
             APW+lo
:E0_0001: E( 0)=   -1.8670   E(BOTTOM)=   -2.505   E(TOP)=   -1.229  4  5   192
             LOCAL ORBITAL
:E1_0001: E( 1)=    0.9669
             APW+lo
:E1_0001: E( 1)=   -0.3984   E(BOTTOM)=   -1.359   E(TOP)=    0.562  3  4   204
             LOCAL ORBITAL
:E3_0001: E( 3)=    0.7857   E(BOTTOM)=    0.577   E(TOP)=    0.994  0  1   118
             APW+lo
:E2_0001: E( 2)=    0.5669   E(BOTTOM)=    0.379   E(TOP)= -200.000  2 -1    83
             APW+lo

       K=   0.06250   0.00000   0.06250            1
:RKM  : MATRIX SIZE   385LOs:  40  RKM= 8.49  WEIGHT= 4.00  PGR:    
       EIGENVALUES ARE:
:EIG00001:      -1.8522760   -1.8259830   -0.6090832   -0.4878514   -0.4611931
:EIG00006:      -0.4524316   -0.4426975   -0.4410435    0.5468427    0.6614180
:EIG00011:       0.7732475    0.7806959    0.7816087    0.7858527    0.7919752
:EIG00016:       0.8081925    0.8146475    0.8153805    0.8191127    0.8227959
:EIG00021:       0.8271546    0.8306477    0.8328334    0.8415073    0.8588518
:EIG00026:       0.8716822    0.9603532    0.9684428    1.0209141    1.0461391
:EIG00031:       1.0575846    1.1752402    1.2163102    1.2744351    1.5758180
:EIG00036:       1.6144989    1.6605271    1.6978398    1.8488906    1.9049208
:EIG00041:       2.0156139    2.1102487    2.2164967    2.2308814
       ********************************************************

:KPT   :      NUMBER OF K-POINTS:   288
:GAP (global)   :    0.0    Ry =     0.0   eV (metal)
         Bandranges (emin - emax) and occupancy:
:BAN00005:   5   -0.567316   -0.461193  2.00000000
:BAN00006:   6   -0.545569   -0.446315  2.00000000
:BAN00007:   7   -0.517546   -0.441985  2.00000000
:BAN00008:   8   -0.470971   -0.435471  2.00000000
:BAN00009:   9    0.540644    0.736092  2.00000000
:BAN00010:  10    0.646570    0.755667  2.00000000
:BAN00011:  11    0.683117    0.784640  2.00000000
:BAN00012:  12    0.738263    0.789291  2.00000000
:BAN00013:  13    0.759963    0.803486  1.56308414
:BAN00014:  14    0.776597    0.813014  0.43654280
:BAN00015:  15    0.789422    0.814901  0.00037306
:BAN00016:  16    0.798177    0.816213  0.00000000
:BAN00017:  17    0.803719    0.817250  0.00000000
:BAN00018:  18    0.808669    0.818502  0.00000000
:BAN00019:  19    0.813463    0.823045  0.00000000
:BAN00020:  20    0.816983    0.830209  0.00000000
        Energy to separate low and high energystates:    0.49064


:NOE  : NUMBER OF ELECTRONS          =   26.000

:FER  : F E R M I - ENERGY(TETRAH.M.)=   0.7894724872
:GMA  : POTENTIAL AND CHARGE CUT-OFF  12.00 Ry**.5

:POS001: ATOM   -1 X,Y,Z = 0.00000 0.89750 0.25000  MULT= 2  ZZ= 59.000  Pr1       

       LMMAX 16
       LM=   0 0  1 0  2 0  2 2  3 0  3 2  4 0  4 2  4 4  5 0  5 2  5 4  6 0  6 2  6 4  6 6

:CHA001: TOTAL VALENCE CHARGE INSIDE SPHERE   1 =   9.3574    (RMT=  2.3000 )
:PCS001: PARTIAL CHARGES SPHERE =  1 S,P,D,F,PX,PY,PZ,D-Z2,D-X2Y2,D-XY,D-XZ,D-YZ 
:QTL001: 1.9446 5.0030 0.6886 1.7204 1.6638 1.6641 1.6752 0.1313 0.1340 0.1388 0.1379 0.1466
        Q-s-low E-s-low   Q-p-low E-p-low   Q-d-low E-d-low   Q-f-low E-f-low
:EPL001:  1.8674 -1.8254    4.9181 -0.5102    0.0042 -0.5460    0.0012 -0.5567
        Q-s-hi  E-s-hi    Q-p-hi  E-p-hi    Q-d-hi  E-d-hi    Q-f-hi  E-f-hi 
:EPH001:  0.0772  0.6793    0.0849  0.7199    0.6844  0.7194    1.7192  0.7667

                      VXX         VYY         VZZ       UP TO R
:VZZ001:             2.46843     4.86941    -7.33784       2.300

:CHA  : TOTAL VALENCE CHARGE INSIDE UNIT CELL =      26.000000

:SUM  : SUM OF EIGENVALUES =          -6.137909880


        1.ATOM      Pr1                  14 CORE STATES
       CORE-FORCE in mRy/a.u. = |F|      Fx             Fy             Fz
:FCO001:   1.ATOM    380.230466054593      0.000000000000      0.000000000000    380.230466054593

:1S 001: 1S               -3066.788395744 Ry
:2S 001: 2S                -492.553197724 Ry
:2PP001: 2P*               -465.650941168 Ry
:2P 001: 2P                -430.254088316 Ry
:3S 001: 3S                -105.648793957 Ry
:3PP001: 3P*                -94.186369394 Ry
:3P 001: 3P                 -87.178718204 Ry
:3DD001: 3D*                -67.105548546 Ry
:3D 001: 3D                 -65.594055383 Ry
:4S 001: 4S                 -20.322147159 Ry
:4PP001: 4P*                -16.028495924 Ry
:4P 001: 4P                 -14.500449303 Ry
:4DD001: 4D*                 -7.432539575 Ry
:4D 001: 4D                  -7.162949777 Ry
:CINT001 Core Integral Atom   1   45.998485

       DENSITY AT NUCLEUS
        JATOM        VALENCE       SEMI-CORE          CORE           TOTAL
:RTO001:   1      649.167727        0.000000   656823.427400   657472.595127
     
       CHARGES OF NEW CHARGE DENSITY
:NTO   : INTERSTITIAL CHARGE =     7.285284
:NPC   : PW Pseudocharge     =    17.270523
:NTO001: CHARGE SPHERE  1    =    55.355843

:NEC01: NUCLEAR AND ELECTRONIC CHARGE    118.00000   117.99697
     
       CHARGES OF OLD CHARGE DENSITY
:OTO   : INTERSTITIAL CHARGE =     6.819111
:OPC   : PW Pseudocharge     =    17.852310
:OTO001: CHARGE SPHERE  1    =    55.590445

:NEC02: NUCLEAR AND ELECTRONIC CHARGE    118.00000   118.00000
     
       CONVERGENCE TEST
:DTO001: DIFFERENCE IN SPHERE  1 =  0.3881111

:DIS  :  CHARGE DISTANCE       ( 0.3881111 for atom    1 spin 1)      0.3881111
 PW Mixed is          421
 
******************************************************
* MULTISECANT MIXING VER9 RELEASE 10.4.0              *
* Standard Mode with controls                        *
* Fixed density scale                                *
* Regularization       1.000E-04                     *
* Trust Upper Limit    5.000E+00                     *
* Max Number of Memory Steps    8                    *
******************************************************
 
:PWTMP   3.0297E+02  1.9467E+02  4.0490E+02
:PLANE:  PW TOTAL      5.4353 DISTAN   4.20E-01  7.73E+00 %
:CHARG:  CLM/ATOM   1382.0413 DISTAN   7.24E-01  5.24E-02 %
 
Step History
        DMIX         DMIXT        Red     Pred      Trust     Lambda    MagRel    MagAbs     Beta
  1   3.5000E-02   3.5000E-02 -1.00E+00  1.00E+00 -1.00E+01  1.00E+00  3.50E-02  3.50E-02  1.00E+00
  2   2.5000E-02   2.5000E-02  7.18E-01  1.00E+00 -1.00E+01  1.00E+00  2.50E-02  3.73E-02  1.00E+00
  3   4.1107E-02   4.1107E-02 -1.00E+00  1.00E+00 -1.00E+01  1.00E+00  4.11E-02  4.41E-02  1.00E+00
:JACOBIANS    5.320E-01   1.983E-02
  
:NORMS:  1/Froebius, Min, Max, Used   0.7628E+00  0.4291E+00  0.8581E+00  0.7628E+00
:INFO :  Number of Memory Steps    2 Skipping    0
:INFO :  SLambda=    0.0220807970  Max    0.0220807970
:PREDicted Charge, CTotal, PW Trust    1.071E-02   2.141E-02   3.538E-01
:PREDicted DMix, Beta, BLim   3.8963E-02  6.8837E-01  7.8542E-01

Eigenvalues, unscaled except for SY+YY
   #     SY Real        SY Imag          SS             YY         SY+YY Real      SY+YY Imag
   1   1.244937E+00   0.000000E+00   1.163599E+00   1.999732E+00   2.027220E+00   0.000000E+00
   2  -7.438494E-15   0.000000E+00   0.000000E+00   2.682628E-04   2.696395E-04   0.000000E+00
 
:INFO :  Singular value  2.027E+00 Weight  1.000E+00 Projection  5.106E-03
:INFO :  Singular value  2.696E-04 Weight  6.452E-01 Projection -1.938E+01
:RANK :  ACTIVE   1.65/2  =  82.26 % ; YY RANK   1.64/2  =  82.14 %
 
:DLIM :  Beta Active  8.000E-01
:BLIM :  VZERO Control Off
:TRUST:  Step 2.96E-01  Charge 7.50E-02 (e) CTO  2.50E-01 (e) PW  3.54E-01 (e)
:DIRM :  MEMORY  2/8  SCALE   1.000 RED  0.78 PRED  1.00 NEXT  0.86 BETA  0.80
:TRAVE:  Charge 3.63E-03 (e) CTO  7.26E-03 (e) PW  1.28E-01 (e)
:DIRP :  |MSR1|= 1.399E-01 |PRATT|= 4.200E-01 ANGLE=  16.4 DEGREES
:DIRQ :  |MSR1|= 1.806E-02 |PRATT|= 7.242E-01 ANGLE=  41.8 DEGREES
:DIRT :  |MSR1|= 1.410E-01 |PRATT|= 8.372E-01 ANGLE=  56.0 DEGREES
:MIX  :   MSD1   REGULARIZATION:  2.00E-04 GREED: 0.03726  Newton 1.00  0.1685                
     
       CHARGES OF MIXED CHARGE DENSITY
:CTO   : INTERSTITIAL CHARGE =     6.826369
:CPC   : PW Pseudocharge     =    17.578294
:CTO001: CHARGE SPHERE  1    =    55.586815

:NEC03: NUCLEAR AND ELECTRONIC CHARGE    118.00000   118.00000

PW CHANGE     H    K    L      Current       Change    Residue
:PTO001:      0    0    0  6.02733156E-02 -6.588E-04 -2.603E-04
:PTO003:      0    2    0  1.59592506E-02 -2.886E-04 -8.719E-05
:PTO004:     -1    1    0  7.81989178E-02 -1.682E-03 -3.718E-03
:PTO005:      0    2   -1 -9.10603818E-02  2.015E-03  5.855E-03
:PTO006:      0    0   -2 -4.72428122E-02  1.053E-03  3.170E-03
:PTO007:     -1    1   -1 -9.84022477E-02  2.438E-03  8.084E-03
:PTO008:      0    2   -2 -1.59126984E-02  4.905E-04  1.544E-03
:PTO009:     -1    1   -2 -7.95295028E-02  2.601E-03  7.638E-03
:PTO011:     -1    3    0 -1.26546459E-02  5.073E-04  1.537E-03
:PTO012:     -1    3   -1 -5.66069589E-02  2.440E-03  6.649E-03
:PTO013:      0    4    0 -1.04537187E-02  5.050E-04  1.675E-03
:PTO014:      0    2   -3  2.35931585E-02 -1.137E-03 -3.154E-03

:ENE  : ********** TOTAL ENERGY IN Ry =       -36944.23351590

       TOTAL FORCE IN mRy/a.u. = |F|     Fx             Fy             Fz     with/without FOR in case.in2
:FOR001:   1.ATOM         69.565          0.000          0.000        -69.565 partial forces
       TOTAL FORCE WITH RESPECT TO GLOBAL CARTESIAN COORDINATES:
:FCA001:   1.ATOM                         0.000        -69.565          0.000 partial forces
       TOTAL FORCE WITH RESPECT TO THE GLOBAL COORDINATE SYSTEM:
:FGL001:   1.ATOM                 0.000000000   -69.564725445     0.000000000 partial forces
 Flat Integration
 New Mode for Coulomb Integral
 Consistent 3/8+Simpson combinations
 Extension of core to zero
 LDM version in phi
 Fifth-order quadrature in outwin


            ---------
:ITE004:  4. ITERATION
            ---------

:NATO :    1 INDEPENDENT AND    2 TOTAL ATOMS IN UNITCELL
       SUBSTANCE: aU                                                          

       LATTICE                      = CXY 
:POT  : POTENTIAL OPTION EX_LDA EC_LDA VX_LDA VC_LDA
:LAT  : LATTICE CONSTANTS=  6.10723 12.39312 10.69923    1.571    1.571    1.571
:VOL  : UNIT CELL VOLUME =     404.89996
       MODE OF CALCULATION IS       = RELA
       NON-SPINPOLARIZED CALCULATION
:IFFT  : FFT-parameters:   48   96   90 Factor: 2.00


   CONVERGENCE PARAMETER FOR PSEUDOCHARGE: NCON=  9
   MAXIMAL VALUE OF RMT(JATOM)*ABSK(NKK) : RK  =27.59658


:VKCOUL :  VK-COUL convergence: 0.118E-06
       ATOMNUMBER=  1 Pr1        VCOUL-ZERO =  0.22750E+00
:EFG001:                        EFG         =    -0.81780   *10**21  V / m**2
                               V20  TOT/SRF=    -0.70823    -0.04130
                               V22  TOT/SRF=     0.04691     0.00538
                               V22M TOT/SRF=     0.00000     0.00000
                               V21  TOT/SRF=     0.00000     0.00000
                               V21M TOT/SRF=     0.00000     0.00000

              0.45581    0.00000    0.00000        0.45581    0.00000    0.00000
              0.00000    0.36199    0.00000        0.00000    0.36199    0.00000
              0.00000    0.00000   -0.81780        0.00000    0.00000   -0.81780

         MAIN DIRECTIONS OF THE EFG   1.0000  0.0000  0.0000
                                      0.0000  1.0000  0.0000
                                      0.0000  0.0000  1.0000
:ANG001:  ANGLE WITH OLD X-AXIS =         0.0

:ETA001:                         ASYMM. ETA =     0.11472


     HELLMANN-FEYNMAN-FORCE IN mRy/a.u. = |F|  Fx       Fy             Fz
:FHF001:   1.ATOM    453.920102069060      0.000000000000      0.000000000000   -453.920102069060

:FIT001: LUSE= 13 SIGMA OF V-XC FIT FOR ATOM  1  0.5307448E-05
:FIT001: LUSE= 13 SIGMA OF V-XC FIT FOR ATOM  1  0.5307448E-05
:DEN  : DENSITY INTEGRAL  =        -14167.97687121   (Ry)
       ELS_POTENTIAL_AT Z=0 and Z=0.5:   0.79900   0.79900
       ELS_POTENTIAL_AT Y=0 and Y=0.5:   0.04725   0.04725
:VZERO:v0,v0c,v0x   0.17691   0.79900  -0.62210 v5,v5c,v5x   0.17691   0.79900  -0.62210
:VZERY:v0,v0c,v0x  -0.78107   0.04725  -0.82832 v5,v5c,v5x  -0.78107   0.04725  -0.82832
:VZERX:v0,v0c,v0x  -1.17728  -0.38797  -0.78931 v5,v5c,v5x  -1.17728  -0.38797  -0.78931
:LMAX-WF:   10   Non-Spherical LMAX:   4

          ATOMIC SPHERE DEPENDENT PARAMETERS FOR ATOM  Pr1       
:e__0001: OVERALL ENERGY PARAMETER IS    0.5820
          OVERALL BASIS SET ON ATOM IS LAPW
:E0_0001: E( 0)=    0.5820
             APW+lo
:E0_0001: E( 0)=   -1.8702   E(BOTTOM)=   -2.508   E(TOP)=   -1.233  4  5   200
             LOCAL ORBITAL
:E1_0001: E( 1)=    0.9820
             APW+lo
:E1_0001: E( 1)=   -0.4014   E(BOTTOM)=   -1.362   E(TOP)=    0.559  3  4   201
             LOCAL ORBITAL
:E3_0001: E( 3)=    0.7815   E(BOTTOM)=    0.573   E(TOP)=    0.990  0  1   118
             APW+lo
:E2_0001: E( 2)=    0.5820   E(BOTTOM)=    0.377   E(TOP)= -200.000  2 -1    82
             APW+lo

       K=   0.06250   0.00000   0.06250            1
:RKM  : MATRIX SIZE   385LOs:  40  RKM= 8.49  WEIGHT= 4.00  PGR:    
       EIGENVALUES ARE:
:EIG00001:      -1.8553005   -1.8290792   -0.6113587   -0.4906580   -0.4640363
:EIG00006:      -0.4550641   -0.4453449   -0.4437136    0.5456022    0.6599845
:EIG00011:       0.7703142    0.7772019    0.7778333    0.7820837    0.7881700
:EIG00016:       0.8042482    0.8107090    0.8113257    0.8150117    0.8186913
:EIG00021:       0.8234307    0.8266299    0.8287973    0.8372637    0.8558238
:EIG00026:       0.8693175    0.9583532    0.9665760    1.0191393    1.0443781
:EIG00031:       1.0556922    1.1735166    1.2143756    1.2724145    1.5743147
:EIG00036:       1.6128727    1.6590146    1.6961220    1.8475360    1.9037460
:EIG00041:       2.0142276    2.1088832    2.2148861    2.2294969
       ********************************************************

:KPT   :      NUMBER OF K-POINTS:   288
:GAP (global)   :    0.0    Ry =     0.0   eV (metal)
         Bandranges (emin - emax) and occupancy:
:BAN00005:   5   -0.569757   -0.464036  2.00000000
:BAN00006:   6   -0.548133   -0.448961  2.00000000
:BAN00007:   7   -0.520189   -0.444645  2.00000000
:BAN00008:   8   -0.473595   -0.438152  2.00000000
:BAN00009:   9    0.539408    0.733819  2.00000000
:BAN00010:  10    0.645239    0.753199  2.00000000
:BAN00011:  11    0.681563    0.781157  2.00000000
:BAN00012:  12    0.736267    0.785757  2.00000000
:BAN00013:  13    0.757183    0.799472  1.55526598
:BAN00014:  14    0.773240    0.809012  0.44461064
:BAN00015:  15    0.785783    0.810761  0.00012338
:BAN00016:  16    0.794323    0.812025  0.00000000
:BAN00017:  17    0.799856    0.813179  0.00000000
:BAN00018:  18    0.804729    0.814592  0.00000000
:BAN00019:  19    0.809463    0.818980  0.00000000
:BAN00020:  20    0.812854    0.826059  0.00000000
        Energy to separate low and high energystates:    0.48941


:NOE  : NUMBER OF ELECTRONS          =   26.000

:FER  : F E R M I - ENERGY(TETRAH.M.)=   0.7858096194
:GMA  : POTENTIAL AND CHARGE CUT-OFF  12.00 Ry**.5

:POS001: ATOM   -1 X,Y,Z = 0.00000 0.89750 0.25000  MULT= 2  ZZ= 59.000  Pr1       

       LMMAX 16
       LM=   0 0  1 0  2 0  2 2  3 0  3 2  4 0  4 2  4 4  5 0  5 2  5 4  6 0  6 2  6 4  6 6

:CHA001: TOTAL VALENCE CHARGE INSIDE SPHERE   1 =   9.3816    (RMT=  2.3000 )
:PCS001: PARTIAL CHARGES SPHERE =  1 S,P,D,F,PX,PY,PZ,D-Z2,D-X2Y2,D-XY,D-XZ,D-YZ 
:QTL001: 1.9444 5.0031 0.6800 1.7534 1.6639 1.6641 1.6751 0.1296 0.1313 0.1376 0.1363 0.1451
        Q-s-low E-s-low   Q-p-low E-p-low   Q-d-low E-d-low   Q-f-low E-f-low
:EPL001:  1.8676 -1.8285    4.9198 -0.5128    0.0042 -0.5483    0.0012 -0.5591
        Q-s-hi  E-s-hi    Q-p-hi  E-p-hi    Q-d-hi  E-d-hi    Q-f-hi  E-f-hi 
:EPH001:  0.0768  0.6774    0.0834  0.7173    0.6758  0.7170    1.7522  0.7635

                      VXX         VYY         VZZ       UP TO R
:VZZ001:             2.35561     4.92562    -7.28124       2.300

:CHA  : TOTAL VALENCE CHARGE INSIDE UNIT CELL =      26.000000

:SUM  : SUM OF EIGENVALUES =          -6.204285673


        1.ATOM      Pr1                  14 CORE STATES
       CORE-FORCE in mRy/a.u. = |F|      Fx             Fy             Fz
:FCO001:   1.ATOM    390.522743837419      0.000000000000      0.000000000000    390.522743837419

:1S 001: 1S               -3066.794267352 Ry
:2S 001: 2S                -492.558682737 Ry
:2PP001: 2P*               -465.656466677 Ry
:2P 001: 2P                -430.259594757 Ry
:3S 001: 3S                -105.654154627 Ry
:3PP001: 3P*                -94.191737989 Ry
:3P 001: 3P                 -87.184077880 Ry
:3DD001: 3D*                -67.110910447 Ry
:3D 001: 3D                 -65.599414966 Ry
:4S 001: 4S                 -20.327193588 Ry
:4PP001: 4P*                -16.033513782 Ry
:4P 001: 4P                 -14.505427014 Ry
:4DD001: 4D*                 -7.437413534 Ry
:4D 001: 4D                  -7.167806643 Ry
:CINT001 Core Integral Atom   1   45.998488

       DENSITY AT NUCLEUS
        JATOM        VALENCE       SEMI-CORE          CORE           TOTAL
:RTO001:   1      649.212871        0.000000   656823.570243   657472.783114
     
       CHARGES OF NEW CHARGE DENSITY
:NTO   : INTERSTITIAL CHARGE =     7.236869
:NPC   : PW Pseudocharge     =    17.256013
:NTO001: CHARGE SPHERE  1    =    55.380052

:NEC01: NUCLEAR AND ELECTRONIC CHARGE    118.00000   117.99697
     
       CHARGES OF OLD CHARGE DENSITY
:OTO   : INTERSTITIAL CHARGE =     6.826369
:OPC   : PW Pseudocharge     =    17.578294
:OTO001: CHARGE SPHERE  1    =    55.586815

:NEC02: NUCLEAR AND ELECTRONIC CHARGE    118.00000   118.00000
     
       CONVERGENCE TEST
:DTO001: DIFFERENCE IN SPHERE  1 =  0.3463116

:DIS  :  CHARGE DISTANCE       ( 0.3463116 for atom    1 spin 1)      0.3463116
 PW Mixed is          421
 
******************************************************
* MULTISECANT MIXING VER9 RELEASE 10.4.0              *
* Standard Mode with controls                        *
* Fixed density scale                                *
* Regularization       1.000E-04                     *
* Trust Upper Limit    5.000E+00                     *
* Max Number of Memory Steps    8                    *
******************************************************
 
:PWTMP   3.0297E+02  1.9467E+02  4.0490E+02
:PLANE:  PW TOTAL      5.3167 DISTAN   2.87E-01  5.40E+00 %
:CHARG:  CLM/ATOM   1382.0383 DISTAN   6.72E-01  4.87E-02 %
 
Step History
        DMIX         DMIXT        Red     Pred      Trust     Lambda    MagRel    MagAbs     Beta
  1   3.5000E-02   3.5000E-02 -1.00E+00  1.00E+00 -1.00E+01  1.00E+00  3.50E-02  3.50E-02  1.00E+00
  2   2.5000E-02   2.5000E-02  7.18E-01  1.00E+00 -1.00E+01  1.00E+00  2.50E-02  3.73E-02  1.00E+00
  3   4.1107E-02   4.1107E-02  7.81E-01  1.00E+00 -1.00E+01  2.21E-02  4.11E-02  4.41E-02  1.00E+00
  4   3.7259E-02   3.7259E-02 -1.00E+00  8.58E-01  2.96E-01  1.00E+00  1.68E-01  1.41E-01  8.00E-01
:JACOBIANS    7.626E-01   6.745E-02
  
:NORMS:  1/Froebius, Min, Max, Used   0.7516E+00  0.3922E+00  0.9954E+00  0.8816E+00
:INFO :  Number of Memory Steps    3 Skipping    0
:INFO :  SLambda=    1.5150600585  Max    1.5150600585
:PREDicted Charge, CTotal, PW Trust    3.470E-02   6.940E-02   3.840E-01
:PREDicted DMix, Beta, BLim   2.6014E-01  3.0689E+00  4.4540E-01

Eigenvalues, unscaled except for SY+YY
   #     SY Real        SY Imag          SS             YY         SY+YY Real      SY+YY Imag
   1   1.710425E+00   0.000000E+00   1.673144E+00   2.152965E+00   4.606822E+00   0.000000E+00
   2  -6.877377E-15   0.000000E+00   2.167961E-02   8.469164E-01   1.355730E-04   0.000000E+00
   3   8.312845E-02   0.000000E+00  -1.033905E-16   1.189959E-04   1.110383E+00   0.000000E+00
 
:INFO :  Singular value  4.608E+00 Weight  1.000E+00 Projection  1.239E-01
:INFO :  Singular value  1.110E+00 Weight  1.000E+00 Projection -6.664E-01
:INFO :  Singular value  1.356E-04 Weight  2.839E-01 Projection  4.642E+00
:RANK :  ACTIVE   2.28/3  =  76.13 % ; YY RANK   2.23/3  =  74.47 %
 
:BLIM :  VZERO Control Off
:TRUST:  Step 3.98E-01  Charge 7.50E-02 (e) CTO  2.50E-01 (e) PW  3.84E-01 (e)
:DTRUS:  Lambda    6.693E-02 Increment    3.638E-12 Iterations    97 DMIX    9.139E-02
:INFOA:  Angle SubSpace to MSR1      3.09
:DIRM :  MEMORY  3/8  SCALE   1.000 RED  0.87 PRED  0.86 NEXT  0.63 
:INFO :  Limited by Atoms F by Step T

:TRAVE:  Charge 1.47E-02 (e) CTO  2.94E-02 (e) PW  1.65E-01 (e)
:DIRP :  |MSR1|= 2.573E-01 |PRATT|= 2.868E-01 ANGLE=  19.2 DEGREES
:DIRQ :  |MSR1|= 1.356E-01 |PRATT|= 6.724E-01 ANGLE=  30.1 DEGREES
:DIRT :  |MSR1|= 2.909E-01 |PRATT|= 7.310E-01 ANGLE=  45.7 DEGREES
:MIX  :   MSE1   REGULARIZATION:  2.15E-04 GREED: 0.09315  LMStep 0.87  0.3979 Step           
     
       CHARGES OF MIXED CHARGE DENSITY
:CTO   : INTERSTITIAL CHARGE =     6.877887
:CPC   : PW Pseudocharge     =    17.106000
:CTO001: CHARGE SPHERE  1    =    55.561057

:NEC03: NUCLEAR AND ELECTRONIC CHARGE    118.00000   118.00000

PW CHANGE     H    K    L      Current       Change    Residue
:PTO001:      0    0    0  5.92341040E-02 -1.039E-03  2.432E-04
:PTO003:      0    2    0  1.55636264E-02 -3.956E-04  1.594E-04
:PTO004:     -1    1    0  7.53231752E-02 -2.876E-03 -2.055E-03
:PTO005:      0    2   -1 -8.74150423E-02  3.645E-03  3.825E-03
:PTO006:      0    0   -2 -4.53157746E-02  1.927E-03  2.103E-03
:PTO007:     -1    1   -1 -9.37691763E-02  4.633E-03  5.574E-03
:PTO008:      0    2   -2 -1.49678046E-02  9.449E-04  1.066E-03
:PTO009:     -1    1   -2 -7.47617785E-02  4.768E-03  4.990E-03
:PTO011:     -1    3    0 -1.17048882E-02  9.498E-04  1.011E-03
:PTO012:     -1    3   -1 -5.22008046E-02  4.406E-03  4.207E-03
:PTO013:      0    4    0 -9.50636008E-03  9.474E-04  1.163E-03
:PTO014:      0    2   -3  2.15487905E-02 -2.044E-03 -2.014E-03

:ENE  : ********** TOTAL ENERGY IN Ry =       -36944.23127225

       TOTAL FORCE IN mRy/a.u. = |F|     Fx             Fy             Fz     with/without FOR in case.in2
:FOR001:   1.ATOM         63.397          0.000          0.000        -63.397 partial forces
       TOTAL FORCE WITH RESPECT TO GLOBAL CARTESIAN COORDINATES:
:FCA001:   1.ATOM                         0.000        -63.397          0.000 partial forces
       TOTAL FORCE WITH RESPECT TO THE GLOBAL COORDINATE SYSTEM:
:FGL001:   1.ATOM                 0.000000000   -63.397358232     0.000000000 partial forces
 Flat Integration
 New Mode for Coulomb Integral
 Consistent 3/8+Simpson combinations
 Extension of core to zero
 LDM version in phi
 Fifth-order quadrature in outwin


            ---------
:ITE005:  5. ITERATION
            ---------

:NATO :    1 INDEPENDENT AND    2 TOTAL ATOMS IN UNITCELL
       SUBSTANCE: aU                                                          

       LATTICE                      = CXY 
:POT  : POTENTIAL OPTION EX_LDA EC_LDA VX_LDA VC_LDA
:LAT  : LATTICE CONSTANTS=  6.10723 12.39312 10.69923    1.571    1.571    1.571
:VOL  : UNIT CELL VOLUME =     404.89996
       MODE OF CALCULATION IS       = RELA
       NON-SPINPOLARIZED CALCULATION
:IFFT  : FFT-parameters:   48   96   90 Factor: 2.00


   CONVERGENCE PARAMETER FOR PSEUDOCHARGE: NCON=  9
   MAXIMAL VALUE OF RMT(JATOM)*ABSK(NKK) : RK  =27.59658


:VKCOUL :  VK-COUL convergence: 0.139E-06
       ATOMNUMBER=  1 Pr1        VCOUL-ZERO =  0.22580E+00
:EFG001:                        EFG         =    -2.31623   *10**21  V / m**2
                               V20  TOT/SRF=    -2.00591    -0.03660
                               V22  TOT/SRF=    -0.03395     0.00176
                               V22M TOT/SRF=     0.00000     0.00000
                               V21  TOT/SRF=     0.00000     0.00000
                               V21M TOT/SRF=     0.00000     0.00000

              1.12417    0.00000    0.00000        1.12417    0.00000    0.00000
              0.00000    1.19206    0.00000        0.00000    1.19206    0.00000
              0.00000    0.00000   -2.31623        0.00000    0.00000   -2.31623

         MAIN DIRECTIONS OF THE EFG   1.0000  0.0000  0.0000
                                      0.0000  1.0000  0.0000
                                      0.0000  0.0000  1.0000
:ANG001:  ANGLE WITH OLD X-AXIS =         0.0

:ETA001:                         ASYMM. ETA =     0.02931


     HELLMANN-FEYNMAN-FORCE IN mRy/a.u. = |F|  Fx       Fy             Fz
:FHF001:   1.ATOM    564.980759101901      0.000000000000      0.000000000000   -564.980759101901

:FIT001: LUSE= 13 SIGMA OF V-XC FIT FOR ATOM  1  0.1257582E-04
:FIT001: LUSE= 13 SIGMA OF V-XC FIT FOR ATOM  1  0.1257582E-04
:DEN  : DENSITY INTEGRAL  =        -14163.76715645   (Ry)
       ELS_POTENTIAL_AT Z=0 and Z=0.5:   0.80251   0.80251
       ELS_POTENTIAL_AT Y=0 and Y=0.5:   0.05004   0.05004
:VZERO:v0,v0c,v0x   0.17880   0.80251  -0.62371 v5,v5c,v5x   0.17880   0.80251  -0.62371
:VZERY:v0,v0c,v0x  -0.77928   0.05004  -0.82932 v5,v5c,v5x  -0.77928   0.05004  -0.82932
:VZERX:v0,v0c,v0x  -1.17419  -0.38597  -0.78822 v5,v5c,v5x  -1.17419  -0.38597  -0.78822
:LMAX-WF:   10   Non-Spherical LMAX:   4

          ATOMIC SPHERE DEPENDENT PARAMETERS FOR ATOM  Pr1       
:e__0001: OVERALL ENERGY PARAMETER IS    0.5845
          OVERALL BASIS SET ON ATOM IS LAPW
:E0_0001: E( 0)=    0.5845
             APW+lo
:E0_0001: E( 0)=   -1.8887   E(BOTTOM)=   -2.523   E(TOP)=   -1.254  4  5   192
             LOCAL ORBITAL
:E1_0001: E( 1)=    0.9845
             APW+lo
:E1_0001: E( 1)=   -0.4181   E(BOTTOM)=   -1.375   E(TOP)=    0.539  3  4   201
             LOCAL ORBITAL
:E3_0001: E( 3)=    0.7526   E(BOTTOM)=    0.548   E(TOP)=    0.957  0  1   125
             APW+lo
:E2_0001: E( 2)=    0.5845   E(BOTTOM)=    0.366   E(TOP)= -200.000  2 -1    81
             APW+lo

       K=   0.06250   0.00000   0.06250            1
:RKM  : MATRIX SIZE   385LOs:  40  RKM= 8.49  WEIGHT= 4.00  PGR:    
       EIGENVALUES ARE:
:EIG00001:      -1.8724352   -1.8468156   -0.6217257   -0.5058897   -0.4796145
:EIG00006:      -0.4692382   -0.4587285   -0.4582027    0.5431789    0.6560524
:EIG00011:       0.7499621    0.7527515    0.7534167    0.7570796    0.7630078
:EIG00016:       0.7775225    0.7835234    0.7837169    0.7874170    0.7902896
:EIG00021:       0.7968357    0.7992522    0.8000996    0.8084751    0.8401939
:EIG00026:       0.8588021    0.9501271    0.9593927    1.0124711    1.0378302
:EIG00031:       1.0479426    1.1673154    1.2065018    1.2640803    1.5693343
:EIG00036:       1.6071513    1.6544425    1.6899564    1.8440194    1.9017930
:EIG00041:       2.0106893    2.1055012    2.2098111    2.2260696
       ********************************************************

:KPT   :      NUMBER OF K-POINTS:   288
:GAP (global)   :    0.0    Ry =     0.0   eV (metal)
         Bandranges (emin - emax) and occupancy:
:BAN00004:   4   -0.599630   -0.505890  2.00000000
:BAN00005:   5   -0.581980   -0.479615  2.00000000
:BAN00006:   6   -0.561247   -0.463253  2.00000000
:BAN00007:   7   -0.534209   -0.458728  2.00000000
:BAN00008:   8   -0.487220   -0.452732  2.00000000
:BAN00009:   9    0.537017    0.720950  2.00000000
:BAN00010:  10    0.642072    0.738043  2.00000000
:BAN00011:  11    0.676262    0.757335  2.00000000
:BAN00012:  12    0.725980    0.762491  1.99656483
:BAN00013:  13    0.739573    0.772531  1.46388901
:BAN00014:  14    0.751316    0.779645  0.53954615
:BAN00015:  15    0.762133    0.782975  0.00000000
:BAN00016:  16    0.768293    0.784479  0.00000000
:BAN00017:  17    0.773571    0.787086  0.00000000
:BAN00018:  18    0.777836    0.788563  0.00000000
:BAN00019:  19    0.782007    0.792297  0.00000000
        Energy to separate low and high energystates:    0.48702


:NOE  : NUMBER OF ELECTRONS          =   26.000

:FER  : F E R M I - ENERGY(TETRAH.M.)=   0.7611165571
:GMA  : POTENTIAL AND CHARGE CUT-OFF  12.00 Ry**.5

:POS001: ATOM   -1 X,Y,Z = 0.00000 0.89750 0.25000  MULT= 2  ZZ= 59.000  Pr1       

       LMMAX 16
       LM=   0 0  1 0  2 0  2 2  3 0  3 2  4 0  4 2  4 4  5 0  5 2  5 4  6 0  6 2  6 4  6 6

:CHA001: TOTAL VALENCE CHARGE INSIDE SPHERE   1 =   9.6122    (RMT=  2.3000 )
:PCS001: PARTIAL CHARGES SPHERE =  1 S,P,D,F,PX,PY,PZ,D-Z2,D-X2Y2,D-XY,D-XZ,D-YZ 
:QTL001: 1.9416 5.0031 0.5976 2.0693 1.6649 1.6641 1.6741 0.1130 0.1080 0.1264 0.1201 0.1301
        Q-s-low E-s-low   Q-p-low E-p-low   Q-d-low E-d-low   Q-f-low E-f-low
:EPL001:  1.8692 -1.8463    4.9335 -0.5262    0.0040 -0.5594    0.0012 -0.5702
        Q-s-hi  E-s-hi    Q-p-hi  E-p-hi    Q-d-hi  E-d-hi    Q-f-hi  E-f-hi 
:EPH001:  0.0724  0.6687    0.0696  0.7032    0.5936  0.7033    2.0682  0.7428

                      VXX         VYY         VZZ       UP TO R
:VZZ001:             2.92912     4.92287    -7.85199       2.300

:CHA  : TOTAL VALENCE CHARGE INSIDE UNIT CELL =      26.000000

:SUM  : SUM OF EIGENVALUES =          -6.562473752


        1.ATOM      Pr1                  14 CORE STATES
       CORE-FORCE in mRy/a.u. = |F|      Fx             Fy             Fz
:FCO001:   1.ATOM    547.988382819916      0.000000000000      0.000000000000    547.988382819916

:1S 001: 1S               -3066.842785024 Ry
:2S 001: 2S                -492.604304837 Ry
:2PP001: 2P*               -465.702375429 Ry
:2P 001: 2P                -430.305364783 Ry
:3S 001: 3S                -105.698513619 Ry
:3PP001: 3P*                -94.236193728 Ry
:3P 001: 3P                 -87.228393124 Ry
:3DD001: 3D*                -67.155366766 Ry
:3D 001: 3D                 -65.643836792 Ry
:4S 001: 4S                 -20.365453254 Ry
:4PP001: 4P*                -16.071358661 Ry
:4P 001: 4P                 -14.542648877 Ry
:4DD001: 4D*                 -7.473347646 Ry
:4D 001: 4D                  -7.203509412 Ry
:CINT001 Core Integral Atom   1   45.998510

       DENSITY AT NUCLEUS
        JATOM        VALENCE       SEMI-CORE          CORE           TOTAL
:RTO001:   1      649.367659        0.000000   656825.364420   657474.732079
     
       CHARGES OF NEW CHARGE DENSITY
:NTO   : INTERSTITIAL CHARGE =     6.775648
:NPC   : PW Pseudocharge     =    17.112309
:NTO001: CHARGE SPHERE  1    =    55.610686

:NEC01: NUCLEAR AND ELECTRONIC CHARGE    118.00000   117.99702
     
       CHARGES OF OLD CHARGE DENSITY
:OTO   : INTERSTITIAL CHARGE =     6.877887
:OPC   : PW Pseudocharge     =    17.106000
:OTO001: CHARGE SPHERE  1    =    55.561057

:NEC02: NUCLEAR AND ELECTRONIC CHARGE    118.00000   118.00000
     
       CONVERGENCE TEST
:DTO001: DIFFERENCE IN SPHERE  1 =  0.1094444

:DIS  :  CHARGE DISTANCE       ( 0.1094444 for atom    1 spin 1)      0.1094444
 PW Mixed is          421
 
******************************************************
* MULTISECANT MIXING VER9 RELEASE 10.4.0              *
* Standard Mode with controls                        *
* Fixed density scale                                *
* Regularization       1.000E-04                     *
* Trust Upper Limit    5.000E+00                     *
* Max Number of Memory Steps    8                    *
******************************************************
 
:PWTMP   3.0297E+02  1.9467E+02  4.0490E+02
:PLANE:  PW TOTAL      5.1086 DISTAN   6.28E-02  1.23E+00 %
:CHARG:  CLM/ATOM   1382.0142 DISTAN   3.88E-01  2.81E-02 %
 
Step History
        DMIX         DMIXT        Red     Pred      Trust     Lambda    MagRel    MagAbs     Beta
  1   3.5000E-02   3.5000E-02 -1.00E+00  1.00E+00 -1.00E+01  1.00E+00  3.50E-02  3.50E-02  1.00E+00
  2   2.5000E-02   2.5000E-02  7.18E-01  1.00E+00 -1.00E+01  1.00E+00  2.50E-02  3.73E-02  1.00E+00
  3   4.1107E-02   4.1107E-02  7.81E-01  1.00E+00 -1.00E+01  2.21E-02  4.11E-02  4.41E-02  1.00E+00
  4   3.7259E-02   3.7259E-02  8.73E-01  8.58E-01  2.96E-01  1.52E+00  1.68E-01  1.41E-01  8.00E-01
  5   9.3146E-02   9.1393E-02 -1.00E+00  6.26E-01  3.98E-01  1.00E+00  3.98E-01  2.91E-01  1.00E+00
:JACOBIANS    8.781E-01   1.846E-01
  
:NORMS:  1/Froebius, Min, Max, Used   0.4121E+00  0.3802E+00  0.9973E+00  0.4121E+00
:INFO :  Number of Memory Steps    4 Skipping    0
:INFO :  SLambda=    1.2868440500  Max    1.2868440500
:PREDicted Charge, CTotal, PW Trust    1.810E-02   3.619E-02   2.325E-01
:PREDicted DMix, Beta, BLim   1.8465E-01  1.1861E+00  5.0599E-01

Eigenvalues, unscaled except for SY+YY
   #     SY Real        SY Imag          SS             YY         SY+YY Real      SY+YY Imag
   1   5.998031E-01   0.000000E+00   5.838770E-01   3.469685E+00   3.936240E+00   0.000000E+00
   2   2.610314E-01   0.000000E+00   9.542584E-02   5.296273E-01   1.170816E+00   0.000000E+00
   3  -2.275713E-15   0.000000E+00   2.693241E-05   6.451338E-04   5.021425E-05   0.000000E+00
   4   1.794464E-04   0.000000E+00   2.041129E-18   4.301894E-05   8.851620E-04   0.000000E+00
 
:INFO :  Singular value  3.937E+00 Weight  1.000E+00 Projection -2.941E-03
:INFO :  Singular value  1.171E+00 Weight  1.000E+00 Projection -9.209E-02
:INFO :  Singular value  8.852E-04 Weight  8.668E-01 Projection -9.870E+00
:INFO :  Singular value  5.021E-05 Weight  2.051E-02 Projection  6.233E-01
:RANK :  ACTIVE   2.89/4  =  72.18 % ; YY RANK   2.79/4  =  69.77 %
 
:BLIM :  VZERO Control Off
:TRUST:  Step 5.31E-01  Charge 7.50E-02 (e) CTO  2.50E-01 (e) PW  3.84E-01 (e)
:DIRM :  MEMORY  4/8  SCALE   1.000 RED  0.54 PRED  0.63 NEXT  0.77 
:TRAVE:  Charge 1.25E-02 (e) CTO  2.50E-02 (e) PW  9.77E-02 (e)
:DIRP :  |MSR1|= 3.475E-02 |PRATT|= 6.275E-02 ANGLE=  42.4 DEGREES
:DIRQ :  |MSR1|= 1.107E-01 |PRATT|= 3.883E-01 ANGLE=   9.3 DEGREES
:DIRT :  |MSR1|= 1.160E-01 |PRATT|= 3.933E-01 ANGLE=  15.3 DEGREES
:MIX  :   MSE1   REGULARIZATION:  3.47E-04 GREED: 0.12471  Newton 1.00  0.2949                
     
       CHARGES OF MIXED CHARGE DENSITY
:CTO   : INTERSTITIAL CHARGE =     6.857290
:CPC   : PW Pseudocharge     =    17.064062
:CTO001: CHARGE SPHERE  1    =    55.571355

:NEC03: NUCLEAR AND ELECTRONIC CHARGE    118.00000   118.00000

PW CHANGE     H    K    L      Current       Change    Residue
:PTO001:      0    0    0  5.90796597E-02 -1.544E-04 -2.110E-04
:PTO003:      0    2    0  1.55793837E-02  1.576E-05  2.582E-04
:PTO004:     -1    1    0  7.52012866E-02 -1.219E-04  5.708E-04
:PTO005:      0    2   -1 -8.70244543E-02  3.906E-04  5.733E-05
:PTO006:      0    0   -2 -4.51119291E-02  2.038E-04  4.558E-05
:PTO007:     -1    1   -1 -9.32445252E-02  5.247E-04  3.802E-04
:PTO008:      0    2   -2 -1.48152926E-02  1.525E-04  2.361E-04
:PTO009:     -1    1   -2 -7.43731701E-02  3.886E-04 -1.740E-04
:PTO011:     -1    3    0 -1.16418788E-02  6.301E-05 -4.237E-05
:PTO012:     -1    3   -1 -5.18341736E-02  3.666E-04 -1.724E-04
:PTO013:      0    4    0 -9.35898839E-03  1.474E-04  1.642E-04
:PTO014:      0    2   -3  2.13661722E-02 -1.826E-04  6.360E-05

:ENE  : ********** TOTAL ENERGY IN Ry =       -36944.22269243

       TOTAL FORCE IN mRy/a.u. = |F|     Fx             Fy             Fz     with/without FOR in case.in2
:FOR001:   1.ATOM         16.992          0.000          0.000        -16.992 partial forces
       TOTAL FORCE WITH RESPECT TO GLOBAL CARTESIAN COORDINATES:
:FCA001:   1.ATOM                         0.000        -16.992          0.000 partial forces
       TOTAL FORCE WITH RESPECT TO THE GLOBAL COORDINATE SYSTEM:
:FGL001:   1.ATOM                 0.000000000   -16.992376282     0.000000000 partial forces
 Flat Integration
 New Mode for Coulomb Integral
 Consistent 3/8+Simpson combinations
 Extension of core to zero
 LDM version in phi
 Fifth-order quadrature in outwin


            ---------
:ITE006:  6. ITERATION
            ---------

:NATO :    1 INDEPENDENT AND    2 TOTAL ATOMS IN UNITCELL
       SUBSTANCE: aU                                                          

       LATTICE                      = CXY 
:POT  : POTENTIAL OPTION EX_LDA EC_LDA VX_LDA VC_LDA
:LAT  : LATTICE CONSTANTS=  6.10723 12.39312 10.69923    1.571    1.571    1.571
:VOL  : UNIT CELL VOLUME =     404.89996
       MODE OF CALCULATION IS       = RELA
       NON-SPINPOLARIZED CALCULATION
:IFFT  : FFT-parameters:   48   96   90 Factor: 2.00


   CONVERGENCE PARAMETER FOR PSEUDOCHARGE: NCON=  9
   MAXIMAL VALUE OF RMT(JATOM)*ABSK(NKK) : RK  =27.59658


:VKCOUL :  VK-COUL convergence: 0.170E-06
       ATOMNUMBER=  1 Pr1        VCOUL-ZERO =  0.22623E+00
:EFG001:                        EFG         =    -4.22999   *10**21  V / m**2
                               V20  TOT/SRF=    -3.66328    -0.03626
                               V22  TOT/SRF=    -0.35048    -0.00234
                               V22M TOT/SRF=     0.00000     0.00000
                               V21  TOT/SRF=     0.00000     0.00000
                               V21M TOT/SRF=     0.00000     0.00000

              1.76451    0.00000    0.00000        1.76451    0.00000    0.00000
              0.00000    2.46547    0.00000        0.00000    2.46547    0.00000
              0.00000    0.00000   -4.22999        0.00000    0.00000   -4.22999

         MAIN DIRECTIONS OF THE EFG   1.0000  0.0000  0.0000
                                      0.0000  1.0000  0.0000
                                      0.0000  0.0000  1.0000
:ANG001:  ANGLE WITH OLD X-AXIS =         0.0

:ETA001:                         ASYMM. ETA =     0.16571


     HELLMANN-FEYNMAN-FORCE IN mRy/a.u. = |F|  Fx       Fy             Fz
:FHF001:   1.ATOM    842.397163326747      0.000000000000      0.000000000000   -842.397163326747

:FIT001: LUSE= 13 SIGMA OF V-XC FIT FOR ATOM  1  0.2303044E-04
:FIT001: LUSE= 13 SIGMA OF V-XC FIT FOR ATOM  1  0.2303044E-04
:DEN  : DENSITY INTEGRAL  =        -14165.14012113   (Ry)
       ELS_POTENTIAL_AT Z=0 and Z=0.5:   0.80145   0.80145
       ELS_POTENTIAL_AT Y=0 and Y=0.5:   0.05339   0.05339
:VZERO:v0,v0c,v0x   0.17850   0.80145  -0.62295 v5,v5c,v5x   0.17850   0.80145  -0.62295
:VZERY:v0,v0c,v0x  -0.77599   0.05339  -0.82937 v5,v5c,v5x  -0.77599   0.05339  -0.82937
:VZERX:v0,v0c,v0x  -1.17271  -0.38530  -0.78741 v5,v5c,v5x  -1.17271  -0.38530  -0.78741
:LMAX-WF:   10   Non-Spherical LMAX:   4

          ATOMIC SPHERE DEPENDENT PARAMETERS FOR ATOM  Pr1       
:e__0001: OVERALL ENERGY PARAMETER IS    0.5689
          OVERALL BASIS SET ON ATOM IS LAPW
:E0_0001: E( 0)=    0.5689
             APW+lo
:E0_0001: E( 0)=   -1.8847   E(BOTTOM)=   -2.520   E(TOP)=   -1.249  4  5   186
             LOCAL ORBITAL
:E1_0001: E( 1)=    0.9689
             APW+lo
:E1_0001: E( 1)=   -0.4145   E(BOTTOM)=   -1.372   E(TOP)=    0.543  3  4   196
             LOCAL ORBITAL
:E3_0001: E( 3)=    0.7605   E(BOTTOM)=    0.555   E(TOP)=    0.966  0  1   123
             APW+lo
:E2_0001: E( 2)=    0.5689   E(BOTTOM)=    0.368   E(TOP)= -200.000  2 -1    85
             APW+lo

       K=   0.06250   0.00000   0.06250            1
:RKM  : MATRIX SIZE   385LOs:  40  RKM= 8.49  WEIGHT= 4.00  PGR:    
       EIGENVALUES ARE:
:EIG00001:      -1.8686158   -1.8429781   -0.6183518   -0.5033912   -0.4770025
:EIG00006:      -0.4664443   -0.4554466   -0.4551330    0.5430349    0.6563295
:EIG00011:       0.7565770    0.7599583    0.7603197    0.7638953    0.7703993
:EIG00016:       0.7850864    0.7909257    0.7912453    0.7950847    0.7975405
:EIG00021:       0.8041841    0.8066279    0.8067977    0.8168560    0.8433203
:EIG00026:       0.8608134    0.9522321    0.9604765    1.0135215    1.0388442
:EIG00031:       1.0488575    1.1686562    1.2079695    1.2661735    1.5694984
:EIG00036:       1.6077427    1.6545825    1.6910633    1.8436251    1.9025716
:EIG00041:       2.0118148    2.1061734    2.2096965    2.2273535
       ********************************************************

:KPT   :      NUMBER OF K-POINTS:   288
:GAP (global)   :    0.0    Ry =     0.0   eV (metal)
         Bandranges (emin - emax) and occupancy:
:BAN00004:   4   -0.597206   -0.503391  2.00000000
:BAN00005:   5   -0.578504   -0.477003  2.00000000
:BAN00006:   6   -0.558582   -0.460433  2.00000000
:BAN00007:   7   -0.531824   -0.455447  2.00000000
:BAN00008:   8   -0.484044   -0.449948  2.00000000
:BAN00009:   9    0.536846    0.724383  2.00000000
:BAN00010:  10    0.642333    0.742350  2.00000000
:BAN00011:  11    0.676615    0.765133  2.00000000
:BAN00012:  12    0.729231    0.769079  1.99344649
:BAN00013:  13    0.743779    0.780438  1.44765697
:BAN00014:  14    0.757290    0.786877  0.55889654
:BAN00015:  15    0.769688    0.789876  0.00000000
:BAN00016:  16    0.774694    0.791995  0.00000000
:BAN00017:  17    0.781388    0.794515  0.00000000
:BAN00018:  18    0.784903    0.796722  0.00000000
:BAN00019:  19    0.789311    0.799577  0.00000000
        Energy to separate low and high energystates:    0.48685


:NOE  : NUMBER OF ELECTRONS          =   26.000

:FER  : F E R M I - ENERGY(TETRAH.M.)=   0.7676917848
:GMA  : POTENTIAL AND CHARGE CUT-OFF  12.00 Ry**.5

:POS001: ATOM   -1 X,Y,Z = 0.00000 0.89750 0.25000  MULT= 2  ZZ= 59.000  Pr1       

       LMMAX 16
       LM=   0 0  1 0  2 0  2 2  3 0  3 2  4 0  4 2  4 4  5 0  5 2  5 4  6 0  6 2  6 4  6 6

:CHA001: TOTAL VALENCE CHARGE INSIDE SPHERE   1 =   9.5361    (RMT=  2.3000 )
:PCS001: PARTIAL CHARGES SPHERE =  1 S,P,D,F,PX,PY,PZ,D-Z2,D-X2Y2,D-XY,D-XZ,D-YZ 
:QTL001: 1.9426 5.0047 0.6224 1.9659 1.6652 1.6644 1.6751 0.1186 0.1126 0.1306 0.1246 0.1359
        Q-s-low E-s-low   Q-p-low E-p-low   Q-d-low E-d-low   Q-f-low E-f-low
:EPL001:  1.8688 -1.8424    4.9303 -0.5234    0.0040 -0.5551    0.0012 -0.5657
        Q-s-hi  E-s-hi    Q-p-hi  E-p-hi    Q-d-hi  E-d-hi    Q-f-hi  E-f-hi 
:EPH001:  0.0738  0.6705    0.0744  0.7071    0.6184  0.7068    1.9647  0.7486

                      VXX         VYY         VZZ       UP TO R
:VZZ001:             4.56912     5.23872    -9.80784       2.300

:CHA  : TOTAL VALENCE CHARGE INSIDE UNIT CELL =      26.000000

:SUM  : SUM OF EIGENVALUES =          -6.479243148


        1.ATOM      Pr1                  14 CORE STATES
       CORE-FORCE in mRy/a.u. = |F|      Fx             Fy             Fz
:FCO001:   1.ATOM    848.332088127264      0.000000000000      0.000000000000    848.332088127264

:1S 001: 1S               -3066.828547294 Ry
:2S 001: 2S                -492.587825885 Ry
:2PP001: 2P*               -465.686068295 Ry
:2P 001: 2P                -430.288965304 Ry
:3S 001: 3S                -105.682625874 Ry
:3PP001: 3P*                -94.220264569 Ry
:3P 001: 3P                 -87.212537836 Ry
:3DD001: 3D*                -67.139238387 Ry
:3D 001: 3D                 -65.627731870 Ry
:4S 001: 4S                 -20.353573322 Ry
:4PP001: 4P*                -16.059728415 Ry
:4P 001: 4P                 -14.531414932 Ry
:4DD001: 4D*                 -7.462734451 Ry
:4D 001: 4D                  -7.193025088 Ry
:CINT001 Core Integral Atom   1   45.998502

       DENSITY AT NUCLEUS
        JATOM        VALENCE       SEMI-CORE          CORE           TOTAL
:RTO001:   1      649.465095        0.000000   656824.861528   657474.326623
     
       CHARGES OF NEW CHARGE DENSITY
:NTO   : INTERSTITIAL CHARGE =     6.927768
:NPC   : PW Pseudocharge     =    17.158287
:NTO001: CHARGE SPHERE  1    =    55.534618

:NEC01: NUCLEAR AND ELECTRONIC CHARGE    118.00000   117.99700
     
       CHARGES OF OLD CHARGE DENSITY
:OTO   : INTERSTITIAL CHARGE =     6.857290
:OPC   : PW Pseudocharge     =    17.064062
:OTO001: CHARGE SPHERE  1    =    55.571355

:NEC02: NUCLEAR AND ELECTRONIC CHARGE    118.00000   118.00000
     
       CONVERGENCE TEST
:DTO001: DIFFERENCE IN SPHERE  1 =  0.0751458

:DIS  :  CHARGE DISTANCE       ( 0.0751458 for atom    1 spin 1)      0.0751458
 PW Mixed is          421
 
******************************************************
* MULTISECANT MIXING VER9 RELEASE 10.4.0              *
* Standard Mode with controls                        *
* Fixed density scale                                *
* Regularization       1.000E-04                     *
* Trust Upper Limit    5.000E+00                     *
* Max Number of Memory Steps    8                    *
******************************************************
 
:PWTMP   3.0297E+02  1.9467E+02  4.0490E+02
:PLANE:  PW TOTAL      5.0877 DISTAN   4.76E-02  9.35E-01 %
:CHARG:  CLM/ATOM   1381.9973 DISTAN   2.57E-01  1.86E-02 %
 
Step History
        DMIX         DMIXT        Red     Pred      Trust     Lambda    MagRel    MagAbs     Beta
  1   3.5000E-02   3.5000E-02 -1.00E+00  1.00E+00 -1.00E+01  1.00E+00  3.50E-02  3.50E-02  1.00E+00
  2   2.5000E-02   2.5000E-02  7.18E-01  1.00E+00 -1.00E+01  1.00E+00  2.50E-02  3.73E-02  1.00E+00
  3   4.1107E-02   4.1107E-02  7.81E-01  1.00E+00 -1.00E+01  2.21E-02  4.11E-02  4.41E-02  1.00E+00
  4   3.7259E-02   3.7259E-02  8.73E-01  8.58E-01  2.96E-01  1.52E+00  1.68E-01  1.41E-01  8.00E-01
  5   9.3146E-02   9.1393E-02  5.38E-01  6.26E-01  3.98E-01  1.29E+00  3.98E-01  2.91E-01  1.00E+00
  6   1.2471E-01   1.2471E-01 -1.00E+00  7.65E-01  5.31E-01  1.00E+00  2.95E-01  1.16E-01  1.00E+00
:JACOBIANS    9.494E-01   5.130E-01
  
:NORMS:  1/Froebius, Min, Max, Used   0.5396E+00  0.4106E+00  0.9975E+00  0.5714E+00
:INFO :  Number of Memory Steps    5 Skipping    0
:INFO :  SLambda=    1.3542324254  Max    1.3542324254
:PREDicted Charge, CTotal, PW Trust    7.448E-03   1.490E-02   1.512E-02
:PREDicted DMix, Beta, BLim   3.8314E-01  2.2527E+00  8.1277E-01

Eigenvalues, unscaled except for SY+YY
   #     SY Real        SY Imag          SS             YY         SY+YY Real      SY+YY Imag
   1   1.152193E+00   0.000000E+00   1.119141E+00   3.428058E+00   4.202110E+00   0.000000E+00
   2   3.594180E-01   0.000000E+00   3.197176E-01   1.231252E+00   2.368711E+00   0.000000E+00
   3   1.792458E-01   0.000000E+00   1.685735E-02   3.403632E-01   7.186417E-01   0.000000E+00
   4   2.728507E-16   0.000000E+00   8.024300E-06   2.746765E-04   5.373449E-05   0.000000E+00
   5   4.391604E-05   0.000000E+00   7.734729E-17   5.159781E-05   3.559247E-04   0.000000E+00
 
:INFO :  Singular value  4.211E+00 Weight  1.000E+00 Projection -1.015E-01
:INFO :  Singular value  2.364E+00 Weight  1.000E+00 Projection -4.281E-02
:INFO :  Singular value  7.185E-01 Weight  1.000E+00 Projection -2.734E-01
:INFO :  Singular value  3.575E-04 Weight  5.210E-01 Projection  3.685E+00
:INFO :  Singular value  5.349E-05 Weight  2.377E-02 Projection  2.847E-01
:RANK :  ACTIVE   3.54/5  =  70.90 % ; YY RANK   3.41/5  =  68.26 %
 
:BLIM :  VZERO Control Off
:TRUST:  Step 7.07E-01  Charge 6.00E-02 (e) CTO  2.00E-01 (e) PW  3.84E-01 (e)
:DTRUS:  Lambda    5.017E-01 Increment    7.276E-12 Iterations   106 DMIX    2.328E-01
:INFOA:  Angle SubSpace to MSR1      1.64
:DIRM :  MEMORY  5/8  SCALE   1.000 RED  0.66 PRED  0.77 NEXT  0.62 
:INFO :  Limited by Atoms F by Step T

:TRAVE:  Charge 7.96E-03 (e) CTO  1.59E-02 (e) PW  6.55E-02 (e)
:DIRP :  |MSR1|= 3.284E-02 |PRATT|= 4.756E-02 ANGLE=  12.5 DEGREES
:DIRQ :  |MSR1|= 1.820E-01 |PRATT|= 2.570E-01 ANGLE=  18.2 DEGREES
:DIRT :  |MSR1|= 1.849E-01 |PRATT|= 2.614E-01 ANGLE=  18.1 DEGREES
:MIX  :   MSE1   REGULARIZATION:  3.43E-04 GREED: 0.23894  LMStep 0.85  0.7074 Step           
     
       CHARGES OF MIXED CHARGE DENSITY
:CTO   : INTERSTITIAL CHARGE =     6.864130
:CPC   : PW Pseudocharge     =    17.126620
:CTO001: CHARGE SPHERE  1    =    55.567935

:NEC03: NUCLEAR AND ELECTRONIC CHARGE    118.00000   118.00000

PW CHANGE     H    K    L      Current       Change    Residue
:PTO001:      0    0    0  5.92510549E-02  1.714E-04  4.325E-04
:PTO003:      0    2    0  1.55878728E-02  8.489E-06 -2.764E-05
:PTO004:     -1    1    0  7.56114712E-02  4.102E-04  5.026E-04
:PTO005:      0    2   -1 -8.73154720E-02 -2.910E-04 -3.783E-04
:PTO006:      0    0   -2 -4.52656289E-02 -1.537E-04 -2.029E-04
:PTO007:     -1    1   -1 -9.34781701E-02 -2.336E-04 -2.771E-04
:PTO008:      0    2   -2 -1.47326189E-02  8.267E-05  1.312E-04
:PTO009:     -1    1   -2 -7.48571647E-02 -4.840E-04 -5.964E-04
:PTO011:     -1    3    0 -1.18146834E-02 -1.728E-04 -2.439E-04
:PTO012:     -1    3   -1 -5.22140881E-02 -3.799E-04 -4.460E-04
:PTO013:      0    4    0 -9.35783939E-03  1.149E-06  9.604E-06
:PTO014:      0    2   -3  2.15657887E-02  1.996E-04  2.600E-04

:ENE  : ********** TOTAL ENERGY IN Ry =       -36944.22210967

       TOTAL FORCE IN mRy/a.u. = |F|     Fx             Fy             Fz     with/without FOR in case.in2
:FOR001:   1.ATOM          5.935          0.000          0.000          5.935 partial forces
       TOTAL FORCE WITH RESPECT TO GLOBAL CARTESIAN COORDINATES:
:FCA001:   1.ATOM                         0.000          5.935          0.000 partial forces
       TOTAL FORCE WITH RESPECT TO THE GLOBAL COORDINATE SYSTEM:
:FGL001:   1.ATOM                 0.000000000     5.934924801     0.000000000 partial forces
 Flat Integration
 New Mode for Coulomb Integral
 Consistent 3/8+Simpson combinations
 Extension of core to zero
 LDM version in phi
 Fifth-order quadrature in outwin


            ---------
:ITE007:  7. ITERATION
            ---------

:NATO :    1 INDEPENDENT AND    2 TOTAL ATOMS IN UNITCELL
       SUBSTANCE: aU                                                          

       LATTICE                      = CXY 
:POT  : POTENTIAL OPTION EX_LDA EC_LDA VX_LDA VC_LDA
:LAT  : LATTICE CONSTANTS=  6.10723 12.39312 10.69923    1.571    1.571    1.571
:VOL  : UNIT CELL VOLUME =     404.89996
       MODE OF CALCULATION IS       = RELA
       NON-SPINPOLARIZED CALCULATION
:IFFT  : FFT-parameters:   48   96   90 Factor: 2.00


   CONVERGENCE PARAMETER FOR PSEUDOCHARGE: NCON=  9
   MAXIMAL VALUE OF RMT(JATOM)*ABSK(NKK) : RK  =27.59658


:VKCOUL :  VK-COUL convergence: 0.237E-06
       ATOMNUMBER=  1 Pr1        VCOUL-ZERO =  0.22674E+00
:EFG001:                        EFG         =    -7.83123   *10**21  V / m**2
                               V20  TOT/SRF=    -6.78204    -0.03835
                               V22  TOT/SRF=    -0.54834    -0.00397
                               V22M TOT/SRF=     0.00000     0.00000
                               V21  TOT/SRF=     0.00000     0.00000
                               V21M TOT/SRF=     0.00000     0.00000

              3.36727    0.00000    0.00000        3.36727    0.00000    0.00000
              0.00000    4.46396    0.00000        0.00000    4.46396    0.00000
              0.00000    0.00000   -7.83123        0.00000    0.00000   -7.83123

         MAIN DIRECTIONS OF THE EFG   1.0000  0.0000  0.0000
                                      0.0000  1.0000  0.0000
                                      0.0000  0.0000  1.0000
:ANG001:  ANGLE WITH OLD X-AXIS =         0.0

:ETA001:                         ASYMM. ETA =     0.14004


     HELLMANN-FEYNMAN-FORCE IN mRy/a.u. = |F|  Fx       Fy             Fz
:FHF001:   1.ATOM   1442.035327610079      0.000000000000      0.000000000000  -1442.035327610079

:FIT001: LUSE= 13 SIGMA OF V-XC FIT FOR ATOM  1  0.4933135E-04
:FIT001: LUSE= 13 SIGMA OF V-XC FIT FOR ATOM  1  0.4933135E-04
:DEN  : DENSITY INTEGRAL  =        -14164.24238180   (Ry)
       ELS_POTENTIAL_AT Z=0 and Z=0.5:   0.80293   0.80293
       ELS_POTENTIAL_AT Y=0 and Y=0.5:   0.05408   0.05408
:VZERO:v0,v0c,v0x   0.18016   0.80293  -0.62277 v5,v5c,v5x   0.18016   0.80293  -0.62277
:VZERY:v0,v0c,v0x  -0.77566   0.05408  -0.82974 v5,v5c,v5x  -0.77566   0.05408  -0.82974
:VZERX:v0,v0c,v0x  -1.17404  -0.38607  -0.78797 v5,v5c,v5x  -1.17404  -0.38607  -0.78797
:LMAX-WF:   10   Non-Spherical LMAX:   4

          ATOMIC SPHERE DEPENDENT PARAMETERS FOR ATOM  Pr1       
:e__0001: OVERALL ENERGY PARAMETER IS    0.5681
          OVERALL BASIS SET ON ATOM IS LAPW
:E0_0001: E( 0)=    0.5681
             APW+lo
:E0_0001: E( 0)=   -1.8895   E(BOTTOM)=   -2.524   E(TOP)=   -1.255  4  5   192
             LOCAL ORBITAL
:E1_0001: E( 1)=    0.9681
             APW+lo
:E1_0001: E( 1)=   -0.4188   E(BOTTOM)=   -1.376   E(TOP)=    0.538  3  4   200
             LOCAL ORBITAL
:E3_0001: E( 3)=    0.7535   E(BOTTOM)=    0.548   E(TOP)=    0.959  0  1   113
             APW+lo
:E2_0001: E( 2)=    0.5681   E(BOTTOM)=    0.365   E(TOP)= -200.000  2 -1    89
             APW+lo

       K=   0.06250   0.00000   0.06250            1
:RKM  : MATRIX SIZE   385LOs:  40  RKM= 8.49  WEIGHT= 4.00  PGR:    
       EIGENVALUES ARE:
:EIG00001:      -1.8730616   -1.8475975   -0.6211958   -0.5066436   -0.4804322
:EIG00006:      -0.4700791   -0.4591358   -0.4590484    0.5433373    0.6563509
:EIG00011:       0.7518173    0.7542796    0.7544236    0.7582964    0.7647409
:EIG00016:       0.7784009    0.7837578    0.7841391    0.7880448    0.7907134
:EIG00021:       0.7964998    0.8005128    0.8011588    0.8098558    0.8404955
:EIG00026:       0.8591816    0.9509072    0.9595909    1.0124184    1.0377711
:EIG00031:       1.0477320    1.1671671    1.2061586    1.2644741    1.5691764
:EIG00036:       1.6068583    1.6544368    1.6904436    1.8435587    1.9026808
:EIG00041:       2.0121238    2.1060649    2.2094032    2.2271265
       ********************************************************

:KPT   :      NUMBER OF K-POINTS:   288
:GAP (global)   :    0.0    Ry =     0.0   eV (metal)
         Bandranges (emin - emax) and occupancy:
:BAN00004:   4   -0.600061   -0.506644  2.00000000
:BAN00005:   5   -0.581561   -0.480432  2.00000000
:BAN00006:   6   -0.561610   -0.464099  2.00000000
:BAN00007:   7   -0.535012   -0.459136  2.00000000
:BAN00008:   8   -0.487625   -0.453668  2.00000000
:BAN00009:   9    0.537140    0.721299  2.00000000
:BAN00010:  10    0.642454    0.738660  2.00000000
:BAN00011:  11    0.676191    0.759333  2.00000000
:BAN00012:  12    0.727052    0.763843  1.99019523
:BAN00013:  13    0.739947    0.774068  1.41067732
:BAN00014:  14    0.751847    0.780109  0.59912745
:BAN00015:  15    0.763305    0.782704  0.00000000
:BAN00016:  16    0.768271    0.785895  0.00000000
:BAN00017:  17    0.775343    0.788037  0.00000000
:BAN00018:  18    0.778715    0.790183  0.00000000
:BAN00019:  19    0.783133    0.793586  0.00000000
        Energy to separate low and high energystates:    0.48714


:NOE  : NUMBER OF ELECTRONS          =   26.000

:FER  : F E R M I - ENERGY(TETRAH.M.)=   0.7618275869
:GMA  : POTENTIAL AND CHARGE CUT-OFF  12.00 Ry**.5

:POS001: ATOM   -1 X,Y,Z = 0.00000 0.89750 0.25000  MULT= 2  ZZ= 59.000  Pr1       

       LMMAX 16
       LM=   0 0  1 0  2 0  2 2  3 0  3 2  4 0  4 2  4 4  5 0  5 2  5 4  6 0  6 2  6 4  6 6

:CHA001: TOTAL VALENCE CHARGE INSIDE SPHERE   1 =   9.6015    (RMT=  2.3000 )
:PCS001: PARTIAL CHARGES SPHERE =  1 S,P,D,F,PX,PY,PZ,D-Z2,D-X2Y2,D-XY,D-XZ,D-YZ 
:QTL001: 1.9418 5.0052 0.6000 2.0540 1.6658 1.6645 1.6748 0.1137 0.1068 0.1281 0.1199 0.1316
        Q-s-low E-s-low   Q-p-low E-p-low   Q-d-low E-d-low   Q-f-low E-f-low
:EPL001:  1.8692 -1.8470    4.9346 -0.5267    0.0039 -0.5580    0.0012 -0.5679
        Q-s-hi  E-s-hi    Q-p-hi  E-p-hi    Q-d-hi  E-d-hi    Q-f-hi  E-f-hi 
:EPH001:  0.0725  0.6690    0.0706  0.7040    0.5961  0.7039    2.0528  0.7438

                      VXX         VYY         VZZ       UP TO R
:VZZ001:             3.41077     5.95744    -9.36821       2.300

:CHA  : TOTAL VALENCE CHARGE INSIDE UNIT CELL =      26.000000

:SUM  : SUM OF EIGENVALUES =          -6.564476435


        1.ATOM      Pr1                  14 CORE STATES
[...]

:NEC02: NUCLEAR AND ELECTRONIC CHARGE    118.00000   118.00000
     
       CONVERGENCE TEST
:DTO001: DIFFERENCE IN SPHERE  1 =  0.0005727

:DIS  :  CHARGE DISTANCE       ( 0.0005727 for atom    1 spin 1)      0.0005727
 PW Mixed is          421
 
******************************************************
* MULTISECANT MIXING VER9 RELEASE 10.4.0              *
* Standard Mode with controls                        *
* Fixed density scale                                *
* Regularization       1.000E-04                     *
* Trust Upper Limit    5.000E+00                     *
* Max Number of Memory Steps    8                    *
******************************************************
 
:PWTMP   3.0297E+02  1.9467E+02  4.0490E+02
:PLANE:  PW TOTAL      5.1118 DISTAN   2.74E-04  5.35E-03 %
:CHARG:  CLM/ATOM   1381.9547 DISTAN   1.07E-03  7.75E-05 %
 
Step History
        DMIX         DMIXT        Red     Pred      Trust     Lambda    MagRel    MagAbs     Beta
  4   3.7259E-02   3.7259E-02  8.73E-01  8.58E-01  2.96E-01  1.52E+00  1.68E-01  1.41E-01  8.00E-01
  5   9.3146E-02   9.1393E-02  5.38E-01  6.26E-01  3.98E-01  1.29E+00  3.98E-01  2.91E-01  1.00E+00
  6   1.2471E-01   1.2471E-01  6.65E-01  7.65E-01  5.31E-01  1.35E+00  2.95E-01  1.16E-01  1.00E+00
  7   2.3894E-01   2.3281E-01  3.89E-01  6.24E-01  7.07E-01  1.59E+00  7.07E-01  1.85E-01  1.00E+00
  8   2.2171E-01   2.2171E-01  4.12E-01  5.88E-01  1.44E+00  1.78E+00  3.48E-01  3.53E-02  1.00E+00
  9   2.5577E-01   2.5577E-01  5.15E-01  7.07E-01  1.92E+00  1.67E+00  5.33E-01  2.23E-02  1.00E+00
 10   2.8795E-01   2.8795E-01  2.25E-01  2.92E-01  2.56E+00  1.25E+00  4.41E-01  9.52E-03  1.00E+00
 11   3.0513E-01   3.0513E-01  5.53E-01  4.60E-01  3.42E+00  1.73E+00  7.70E-01  3.73E-03  9.76E-01
 12   2.1673E-01   2.1673E-01 -1.00E+00  4.95E-01  4.56E+00  1.00E+00  3.45E-01  9.24E-04  7.81E-01
:JACOBIANS    1.111E+00   2.630E+00
  
:NORMS:  1/Froebius, Min, Max, Used   0.7040E+00  0.5290E+00  0.9888E+00  0.9117E+00
:INFO :  Number of Memory Steps    8 Skipping    3
:INFO :  SLambda=    1.7846545602  Max    1.7846545602
:PREDicted Charge, CTotal, PW Trust    1.702E-04   3.405E-04   1.870E-04
:PREDicted DMix, Beta, BLim   6.9528E-01  1.3884E+00  2.7870E+00

Eigenvalues, unscaled except for SY+YY
   #     SY Real        SY Imag          SS             YY         SY+YY Real      SY+YY Imag
   1   3.074549E+00   0.000000E+00   3.051248E+00   3.670735E+00   8.975772E+00   0.000000E+00
   2   1.077172E+00   0.000000E+00   6.845657E-01   1.978784E+00   3.805244E+00   0.000000E+00
   3   2.365940E-01   0.000000E+00   1.469296E-01   1.698968E+00   2.332922E+00   0.000000E+00
   4   1.108237E-01   0.000000E+00   4.895413E-02   3.304755E-01   5.299122E-01   0.000000E+00
   5   6.887828E-02   0.000000E+00   2.035488E-02   1.389850E-01   2.904414E-01   0.000000E+00
   6   3.210388E-03   0.000000E+00   6.609947E-03   1.093917E-01   1.580018E-02   0.000000E+00
   7   3.198718E-02   0.000000E+00   5.068986E-03   6.379509E-02   1.753206E-01   0.000000E+00
   8   2.571642E-02   0.000000E+00   8.324150E-04   8.866294E-03   1.356299E-01   0.000000E+00
 
:INFO :  Singular value  8.985E+00 Weight  1.000E+00 Projection  5.960E-05
:INFO :  Singular value  3.812E+00 Weight  1.000E+00 Projection  2.456E-04
:INFO :  Singular value  2.329E+00 Weight  1.000E+00 Projection -5.114E-04
:INFO :  Singular value  5.299E-01 Weight  1.000E+00 Projection -2.737E-04
:INFO :  Singular value  2.907E-01 Weight  1.000E+00 Projection -5.418E-04
:INFO :  Singular value  1.753E-01 Weight  1.000E+00 Projection -1.240E-03
:INFO :  Singular value  1.355E-01 Weight  1.000E+00 Projection -2.313E-03
:INFO :  Singular value  1.578E-02 Weight  9.995E-01 Projection  5.005E-03
:RANK :  ACTIVE   8.00/8  =  99.99 % ; YY RANK   8.00/8  =  99.98 %
 
:DLIM :  Beta Active  9.759E-01
:BLIM :  VZERO Control Off
:TRUST:  Step 6.08E+00  Charge 1.97E-02 (e) CTO  6.55E-02 (e) PW  1.26E-01 (e)
:DIRM :  MEMORY  8/8  SCALE   1.000 RED  0.41 PRED  0.49 NEXT  0.22 BETA  0.98
:TRAVE:  Charge 2.92E-04 (e) CTO  5.85E-04 (e) PW  1.30E-03 (e)
:DIRP :  |MSR1|= 2.185E-04 |PRATT|= 2.736E-04 ANGLE=  16.9 DEGREES
:DIRQ :  |MSR1|= 6.731E-04 |PRATT|= 1.071E-03 ANGLE=  30.4 DEGREES
:DIRT :  |MSR1|= 7.077E-04 |PRATT|= 1.105E-03 ANGLE=  29.7 DEGREES
:MIX  :   MSE1   REGULARIZATION:  3.67E-04 GREED: 0.27325  Newton 1.00  0.6404                
     
       CHARGES OF MIXED CHARGE DENSITY
:CTO   : INTERSTITIAL CHARGE =     6.853794
:CPC   : PW Pseudocharge     =    17.144914
:CTO001: CHARGE SPHERE  1    =    55.573103

:NEC03: NUCLEAR AND ELECTRONIC CHARGE    118.00000   118.00000

PW CHANGE     H    K    L      Current       Change    Residue
:PTO001:      0    0    0  5.92707091E-02  3.547E-07  1.911E-06
:PTO003:      0    2    0  1.55652020E-02 -6.244E-09 -2.641E-07
:PTO004:     -1    1    0  7.56422746E-02  7.807E-07  1.321E-06
:PTO005:      0    2   -1 -8.74548627E-02 -2.560E-06 -3.238E-06
:PTO006:      0    0   -2 -4.53137217E-02 -6.755E-08 -3.034E-07
:PTO007:     -1    1   -1 -9.36462164E-02 -3.378E-06 -4.514E-06
:PTO008:      0    2   -2 -1.47246372E-02  1.972E-07  9.520E-08
:PTO009:     -1    1   -2 -7.50495516E-02 -2.440E-07 -8.276E-07
:PTO011:     -1    3    0 -1.19229499E-02 -1.941E-06 -2.590E-06
:PTO012:     -1    3   -1 -5.23332313E-02 -2.867E-07 -8.145E-07
:PTO013:      0    4    0 -9.36516765E-03 -4.158E-07 -5.314E-07
:PTO014:      0    2   -3  2.15875748E-02 -7.440E-07 -5.808E-07

:ENE  : ********** TOTAL ENERGY IN Ry =       -36944.22173348

       TOTAL FORCE IN mRy/a.u. = |F|     Fx             Fy             Fz     with/without FOR in case.in2
:FOR001:   1.ATOM         21.415          0.000          0.000        -21.415 partial forces
       TOTAL FORCE WITH RESPECT TO GLOBAL CARTESIAN COORDINATES:
:FCA001:   1.ATOM                         0.000        -21.415          0.000 partial forces
       TOTAL FORCE WITH RESPECT TO THE GLOBAL COORDINATE SYSTEM:
:FGL001:   1.ATOM                 0.000000000   -21.414873270     0.000000000 partial forces
 Flat Integration
 New Mode for Coulomb Integral
 Consistent 3/8+Simpson combinations
 Extension of core to zero
 LDM version in phi
 Fifth-order quadrature in outwin


            ---------
:ITE013: 13. ITERATION
            ---------

:NATO :    1 INDEPENDENT AND    2 TOTAL ATOMS IN UNITCELL
       SUBSTANCE: aU                                                          

       LATTICE                      = CXY 
:POT  : POTENTIAL OPTION EX_LDA EC_LDA VX_LDA VC_LDA
:LAT  : LATTICE CONSTANTS=  6.10723 12.39312 10.69923    1.571    1.571    1.571
:VOL  : UNIT CELL VOLUME =     404.89996
       MODE OF CALCULATION IS       = RELA
       NON-SPINPOLARIZED CALCULATION
:IFFT  : FFT-parameters:   48   96   90 Factor: 2.00


   CONVERGENCE PARAMETER FOR PSEUDOCHARGE: NCON=  9
   MAXIMAL VALUE OF RMT(JATOM)*ABSK(NKK) : RK  =27.59658


:VKCOUL :  VK-COUL convergence: 0.260E-06
       ATOMNUMBER=  1 Pr1        VCOUL-ZERO =  0.22688E+00
:EFG001:                        EFG         =    -9.23238   *10**21  V / m**2
                               V20  TOT/SRF=    -7.99548    -0.03832
                               V22  TOT/SRF=    -0.94597    -0.00304
                               V22M TOT/SRF=     0.00000     0.00000
                               V21  TOT/SRF=     0.00000     0.00000
                               V21M TOT/SRF=     0.00000     0.00000

              3.67022    0.00000    0.00000        3.67022    0.00000    0.00000
              0.00000    5.56216    0.00000        0.00000    5.56216    0.00000
              0.00000    0.00000   -9.23238        0.00000    0.00000   -9.23238

         MAIN DIRECTIONS OF THE EFG   1.0000  0.0000  0.0000
                                      0.0000  1.0000  0.0000
                                      0.0000  0.0000  1.0000
:ANG001:  ANGLE WITH OLD X-AXIS =         0.0

:ETA001:                         ASYMM. ETA =     0.20492


     HELLMANN-FEYNMAN-FORCE IN mRy/a.u. = |F|  Fx       Fy             Fz
:FHF001:   1.ATOM   1567.296692867738      0.000000000000      0.000000000000  -1567.296692867738

:FIT001: LUSE= 13 SIGMA OF V-XC FIT FOR ATOM  1  0.5761543E-04
:FIT001: LUSE= 13 SIGMA OF V-XC FIT FOR ATOM  1  0.5761543E-04
:DEN  : DENSITY INTEGRAL  =        -14164.65321080   (Ry)
       ELS_POTENTIAL_AT Z=0 and Z=0.5:   0.80240   0.80240
       ELS_POTENTIAL_AT Y=0 and Y=0.5:   0.05380   0.05380
:VZERO:v0,v0c,v0x   0.18013   0.80240  -0.62227 v5,v5c,v5x   0.18013   0.80240  -0.62227
:VZERY:v0,v0c,v0x  -0.77581   0.05380  -0.82962 v5,v5c,v5x  -0.77581   0.05380  -0.82962
:VZERX:v0,v0c,v0x  -1.17396  -0.38614  -0.78782 v5,v5c,v5x  -1.17396  -0.38614  -0.78782
:LMAX-WF:   10   Non-Spherical LMAX:   4

          ATOMIC SPHERE DEPENDENT PARAMETERS FOR ATOM  Pr1       
:e__0001: OVERALL ENERGY PARAMETER IS    0.5645
          OVERALL BASIS SET ON ATOM IS LAPW
:E0_0001: E( 0)=    0.5645
             APW+lo
:E0_0001: E( 0)=   -1.8879   E(BOTTOM)=   -2.523   E(TOP)=   -1.253  4  5   193
             LOCAL ORBITAL
:E1_0001: E( 1)=    0.9645
             APW+lo
:E1_0001: E( 1)=   -0.4173   E(BOTTOM)=   -1.374   E(TOP)=    0.540  3  4   200
             LOCAL ORBITAL
:E3_0001: E( 3)=    0.7566   E(BOTTOM)=    0.551   E(TOP)=    0.962  0  1   119
             APW+lo
:E2_0001: E( 2)=    0.5645   E(BOTTOM)=    0.366   E(TOP)= -200.000  2 -1    79
             APW+lo

       K=   0.06250   0.00000   0.06250            1
:RKM  : MATRIX SIZE   385LOs:  40  RKM= 8.49  WEIGHT= 4.00  PGR:    
       EIGENVALUES ARE:
:EIG00001:      -1.8715300   -1.8460049   -0.6202707   -0.5053292   -0.4791183
:EIG00006:      -0.4689245   -0.4579510   -0.4578286    0.5435330    0.6566544
:EIG00011:       0.7540560    0.7570180    0.7571107    0.7608173    0.7674414
:EIG00016:       0.7812655    0.7868057    0.7871480    0.7910218    0.7938805
:EIG00021:       0.7997086    0.8033974    0.8036952    0.8130300    0.8418677
:EIG00026:       0.8601059    0.9516626    0.9601809    1.0129910    1.0383291
:EIG00031:       1.0483681    1.1677222    1.2068503    1.2651166    1.5696096
:EIG00036:       1.6072768    1.6548550    1.6909294    1.8439019    1.9027834
:EIG00041:       2.0124551    2.1063978    2.2099517    2.2274603
       ********************************************************

:KPT   :      NUMBER OF K-POINTS:   288
:GAP (global)   :    0.0    Ry =     0.0   eV (metal)
         Bandranges (emin - emax) and occupancy:
:BAN00004:   4   -0.599033   -0.505329  2.00000000
:BAN00005:   5   -0.580577   -0.479118  2.00000000
:BAN00006:   6   -0.560468   -0.462938  2.00000000
:BAN00007:   7   -0.533845   -0.457951  2.00000000
:BAN00008:   8   -0.486453   -0.452477  2.00000000
:BAN00009:   9    0.537337    0.722662  2.00000000
:BAN00010:  10    0.642703    0.740389  2.00000000
:BAN00011:  11    0.676664    0.762006  2.00000000
:BAN00012:  12    0.728177    0.766222  1.99180827
:BAN00013:  13    0.741731    0.776957  1.42685714
:BAN00014:  14    0.754260    0.782965  0.58133459
:BAN00015:  15    0.766144    0.785720  0.00000000
:BAN00016:  16    0.771156    0.788802  0.00000000
:BAN00017:  17    0.778092    0.790841  0.00000000
:BAN00018:  18    0.781643    0.793071  0.00000000
:BAN00019:  19    0.785941    0.796238  0.00000000
        Energy to separate low and high energystates:    0.48734


:NOE  : NUMBER OF ELECTRONS          =   26.000

:FER  : F E R M I - ENERGY(TETRAH.M.)=   0.7645007359
:GMA  : POTENTIAL AND CHARGE CUT-OFF  12.00 Ry**.5

:POS001: ATOM   -1 X,Y,Z = 0.00000 0.89750 0.25000  MULT= 2  ZZ= 59.000  Pr1       

       LMMAX 16
       LM=   0 0  1 0  2 0  2 2  3 0  3 2  4 0  4 2  4 4  5 0  5 2  5 4  6 0  6 2  6 4  6 6

:CHA001: TOTAL VALENCE CHARGE INSIDE SPHERE   1 =   9.5746    (RMT=  2.3000 )
:PCS001: PARTIAL CHARGES SPHERE =  1 S,P,D,F,PX,PY,PZ,D-Z2,D-X2Y2,D-XY,D-XZ,D-YZ 
:QTL001: 1.9421 5.0054 0.6098 2.0168 1.6658 1.6646 1.6750 0.1157 0.1093 0.1294 0.1219 0.1335
        Q-s-low E-s-low   Q-p-low E-p-low   Q-d-low E-d-low   Q-f-low E-f-low
:EPL001:  1.8691 -1.8455    4.9333 -0.5255    0.0039 -0.5571    0.0012 -0.5669
        Q-s-hi  E-s-hi    Q-p-hi  E-p-hi    Q-d-hi  E-d-hi    Q-f-hi  E-f-hi 
:EPH001:  0.0730  0.6699    0.0721  0.7055    0.6058  0.7053    2.0156  0.7460

                      VXX         VYY         VZZ       UP TO R
:VZZ001:             3.64745     5.54134    -9.18880       2.300

:CHA  : TOTAL VALENCE CHARGE INSIDE UNIT CELL =      26.000000

:SUM  : SUM OF EIGENVALUES =          -6.530761624


        1.ATOM      Pr1                  14 CORE STATES
       CORE-FORCE in mRy/a.u. = |F|      Fx             Fy             Fz
:FCO001:   1.ATOM   1545.902409874602      0.000000000000      0.000000000000   1545.902409874602

:1S 001: 1S               -3066.839594125 Ry
:2S 001: 2S                -492.593360143 Ry
:2PP001: 2P*               -465.692154549 Ry
:2P 001: 2P                -430.294784755 Ry
:3S 001: 3S                -105.686657111 Ry
:3PP001: 3P*                -94.224384820 Ry
:3P 001: 3P                 -87.216578690 Ry
:3DD001: 3D*                -67.143241102 Ry
:3D 001: 3D                 -65.631713807 Ry
:4S 001: 4S                 -20.357638084 Ry
:4PP001: 4P*                -16.063866786 Ry
:4P 001: 4P                 -14.535661438 Ry
:4DD001: 4D*                 -7.467033517 Ry
:4D 001: 4D                  -7.197348074 Ry
:CINT001 Core Integral Atom   1   45.998504

       DENSITY AT NUCLEUS
        JATOM        VALENCE       SEMI-CORE          CORE           TOTAL
:RTO001:   1      649.525826        0.000000   656825.704169   657475.229995
     
       CHARGES OF NEW CHARGE DENSITY
:NTO   : INTERSTITIAL CHARGE =     6.850764
:NPC   : PW Pseudocharge     =    17.137472
:NTO001: CHARGE SPHERE  1    =    55.573122

:NEC01: NUCLEAR AND ELECTRONIC CHARGE    118.00000   117.99701
     
       CHARGES OF OLD CHARGE DENSITY
:OTO   : INTERSTITIAL CHARGE =     6.853794
:OPC   : PW Pseudocharge     =    17.144914
:OTO001: CHARGE SPHERE  1    =    55.573103

:NEC02: NUCLEAR AND ELECTRONIC CHARGE    118.00000   118.00000
     
       CONVERGENCE TEST
:DTO001: DIFFERENCE IN SPHERE  1 =  0.0000694

:DIS  :  CHARGE DISTANCE       ( 0.0000694 for atom    1 spin 1)      0.0000694
 PW Mixed is          421
 
******************************************************
* MULTISECANT MIXING VER9 RELEASE 10.4.0              *
* Standard Mode with controls                        *
* Fixed density scale                                *
* Regularization       1.000E-04                     *
* Trust Upper Limit    5.000E+00                     *
* Max Number of Memory Steps    8                    *
******************************************************
 
:PWTMP   3.0297E+02  1.9467E+02  4.0490E+02
:PLANE:  PW TOTAL      5.1119 DISTAN   3.51E-05  6.87E-04 %
:CHARG:  CLM/ATOM   1381.9547 DISTAN   1.61E-04  1.17E-05 %
 
Step History
        DMIX         DMIXT        Red     Pred      Trust     Lambda    MagRel    MagAbs     Beta
  5   9.3146E-02   9.1393E-02  5.38E-01  6.26E-01  3.98E-01  1.29E+00  3.98E-01  2.91E-01  1.00E+00
  6   1.2471E-01   1.2471E-01  6.65E-01  7.65E-01  5.31E-01  1.35E+00  2.95E-01  1.16E-01  1.00E+00
  7   2.3894E-01   2.3281E-01  3.89E-01  6.24E-01  7.07E-01  1.59E+00  7.07E-01  1.85E-01  1.00E+00
  8   2.2171E-01   2.2171E-01  4.12E-01  5.88E-01  1.44E+00  1.78E+00  3.48E-01  3.53E-02  1.00E+00
  9   2.5577E-01   2.5577E-01  5.15E-01  7.07E-01  1.92E+00  1.67E+00  5.33E-01  2.23E-02  1.00E+00
 10   2.8795E-01   2.8795E-01  2.25E-01  2.92E-01  2.56E+00  1.25E+00  4.41E-01  9.52E-03  1.00E+00
 11   3.0513E-01   3.0513E-01  5.53E-01  4.60E-01  3.42E+00  1.73E+00  7.70E-01  3.73E-03  9.76E-01
 12   2.1673E-01   2.1673E-01  4.12E-01  4.95E-01  4.56E+00  1.78E+00  3.45E-01  9.24E-04  7.81E-01
 13   2.7325E-01   2.7325E-01 -1.00E+00  2.19E-01  6.08E+00  1.00E+00  6.40E-01  7.08E-04  9.76E-01
:JACOBIANS    8.174E-01   2.971E+00
  
:NORMS:  1/Froebius, Min, Max, Used   0.6964E+00  0.5122E+00  0.9693E+00  0.9210E+00
:INFO :  Number of Memory Steps    8 Skipping    4
:INFO :  SLambda=    1.0662982953  Max    1.0662982953
:PREDicted Charge, CTotal, PW Trust    1.222E-04   2.443E-04   9.793E-07
:PREDicted DMix, Beta, BLim   2.1899E-01  1.0437E+00  2.7404E+00

Eigenvalues, unscaled except for SY+YY
   #     SY Real        SY Imag          SS             YY         SY+YY Real      SY+YY Imag
   1   2.562621E+00   0.000000E+00   2.534357E+00   2.987482E+00   5.438286E+00   0.000000E+00
   2   1.325988E+00   0.000000E+00   9.299753E-01   2.645783E+00   4.154211E+00   0.000000E+00
   3   5.944654E-01   0.000000E+00   3.757914E-01   1.542507E+00   2.196990E+00   0.000000E+00
   4   1.059773E-01   0.000000E+00   1.814341E-02   4.642296E-01   7.090234E-01   0.000000E+00
   5   2.576968E-04   0.000000E+00   1.145319E-02   2.155104E-01   7.053897E-04   0.000000E+00
   6   1.144011E-02   0.000000E+00   6.621881E-03   1.042767E-01   5.350060E-02   0.000000E+00
   7   2.951251E-02   0.000000E+00   3.173716E-03   3.980981E-02   1.361582E-01   0.000000E+00
   8   4.474459E-02   0.000000E+00   1.455601E-04   4.009391E-04   2.960766E-01   0.000000E+00
 
:INFO :  Singular value  5.441E+00 Weight  1.000E+00 Projection -1.236E-05
:INFO :  Singular value  4.159E+00 Weight  1.000E+00 Projection  3.854E-06
:INFO :  Singular value  2.196E+00 Weight  1.000E+00 Projection -2.590E-05
:INFO :  Singular value  7.088E-01 Weight  1.000E+00 Projection -2.610E-05
:INFO :  Singular value  2.962E-01 Weight  1.000E+00 Projection -1.429E-04
:INFO :  Singular value  1.361E-01 Weight  1.000E+00 Projection -5.170E-05
:INFO :  Singular value  5.349E-02 Weight  1.000E+00 Projection  4.928E-05
:INFO :  Singular value  7.054E-04 Weight  8.479E-01 Projection -3.895E-03
:RANK :  ACTIVE   7.85/8  =  98.10 % ; YY RANK   7.64/8  =  95.54 %
 
:BLIM :  VZERO Control Off
:TRUST:  Step 8.10E+00  Charge 1.57E-02 (e) CTO  5.24E-02 (e) PW  1.01E-01 (e)
:DIRM :  MEMORY  8/8  SCALE   1.000 RED  0.15 PRED  0.22 NEXT  0.71 
:TRAVE:  Charge 1.51E-04 (e) CTO  3.01E-04 (e) PW  6.69E-04 (e)
:DIRP :  |MSR1|= 4.072E-05 |PRATT|= 3.512E-05 ANGLE=  73.0 DEGREES
:DIRQ :  |MSR1|= 8.382E-05 |PRATT|= 1.612E-04 ANGLE=  20.8 DEGREES
:DIRT :  |MSR1|= 9.319E-05 |PRATT|= 1.650E-04 ANGLE=  31.9 DEGREES
:MIX  :   MSE1   REGULARIZATION:  2.99E-04 GREED: 0.24000  Newton 1.00  0.5647                
     
       CHARGES OF MIXED CHARGE DENSITY
:CTO   : INTERSTITIAL CHARGE =     6.853776
:CPC   : PW Pseudocharge     =    17.144862
:CTO001: CHARGE SPHERE  1    =    55.573112

:NEC03: NUCLEAR AND ELECTRONIC CHARGE    118.00000   118.00000

PW CHANGE     H    K    L      Current       Change    Residue
:PTO001:      0    0    0  5.92705385E-02 -1.706E-07  1.849E-08
:PTO003:      0    2    0  1.55650696E-02 -1.325E-07 -3.770E-08
:PTO004:     -1    1    0  7.56419227E-02 -3.519E-07  2.464E-07
:PTO005:      0    2   -1 -8.74543003E-02  5.624E-07  1.177E-07
:PTO006:      0    0   -2 -4.53135149E-02  2.067E-07 -2.065E-07
:PTO007:     -1    1   -1 -9.36458135E-02  4.029E-07 -3.975E-07
:PTO008:      0    2   -2 -1.47244779E-02  1.592E-07  1.741E-08
:PTO009:     -1    1   -2 -7.50490851E-02  4.665E-07 -6.661E-07
:PTO011:     -1    3    0 -1.19229962E-02 -4.633E-08 -3.463E-07
:PTO012:     -1    3   -1 -5.23327403E-02  4.910E-07 -4.794E-07
:PTO013:      0    4    0 -9.36504620E-03  1.214E-07 -7.109E-10
:PTO014:      0    2   -3  2.15872900E-02 -2.849E-07  1.122E-07

:ENE  : ********** TOTAL ENERGY IN Ry =       -36944.22173348

       TOTAL FORCE IN mRy/a.u. = |F|     Fx             Fy             Fz     with/without FOR in case.in2
:FOR001:   1.ATOM         21.394          0.000          0.000        -21.394 partial forces
       TOTAL FORCE WITH RESPECT TO GLOBAL CARTESIAN COORDINATES:
:FCA001:   1.ATOM                         0.000        -21.394          0.000 partial forces
       TOTAL FORCE WITH RESPECT TO THE GLOBAL COORDINATE SYSTEM:
:FGL001:   1.ATOM                 0.000000000   -21.394282993     0.000000000 partial forces
