
------- alpha_Pu_7.scf0 --------


            ---------
:ITE078: 78. ITERATION
            ---------

:NATO :    8 INDEPENDENT AND   16 TOTAL ATOMS IN UNITCELL
       SUBSTANCE: alpha_Pu                                                    

       LATTICE                      = P   
:POT  : POTENTIAL OPTION    5
:LAT  : LATTICE CONSTANTS= 12.23907  9.54833 21.70820    1.571    1.777    1.571
:VOL  : UNIT CELL VOLUME =    2483.38658
       MODE OF CALCULATION IS       = RELA
       NON-SPINPOLARIZED CALCULATION
:IFFT  : FFT-parameters:   96   80  180 Factor: 2.00
       ATOMNUMBER=  1 Pu  0+     VCOUL-ZERO =  0.37944E+00
:EFG001:                        EFG         =    18.40834   *10**21  V / m**2
                               V20  TOT/SRF=    -1.02579    -0.05017
                               V22  TOT/SRF=     8.35279     0.05912
                               V22M TOT/SRF=   -15.73672    -0.03910
                               V21  TOT/SRF=     0.00000     0.00000
                               V21M TOT/SRF=     0.00000     0.00000

              8.94503  -15.73672    0.00000       18.40834    0.00000    0.00000
            -15.73672   -7.76055    0.00000        0.00000  -17.22386    0.00000
              0.00000    0.00000   -1.18448        0.00000    0.00000   -1.18448

         MAIN DIRECTIONS OF THE EFG   1.0000  0.6014  0.0000
                                     -0.6014  1.0000  0.0000
                                      0.0000  0.0000  1.0000
:ANG001:  ANGLE WITH OLD X-AXIS =        31.0

:ETA001:                         ASYMM. ETA =     0.87131


       ATOMNUMBER=  2 Pu  0+     VCOUL-ZERO =  0.37948E+00
:EFG002:                        EFG         =   -31.30662   *10**21  V / m**2
                               V20  TOT/SRF=     9.27591     0.01121
                               V22  TOT/SRF=   -20.35300    -0.04541
                               V22M TOT/SRF=    16.10028     0.03470
                               V21  TOT/SRF=     0.00000     0.00000
                               V21M TOT/SRF=     0.00000     0.00000

            -25.70845   16.10028    0.00000      -31.30662    0.00000    0.00000
             16.10028   14.99754    0.00000        0.00000   20.59572    0.00000
              0.00000    0.00000   10.71090        0.00000    0.00000   10.71090

         MAIN DIRECTIONS OF THE EFG   1.0000  0.3477  0.0000
                                     -0.3477  1.0000  0.0000
                                      0.0000  0.0000  1.0000
:ANG002:  ANGLE WITH OLD X-AXIS =        19.2

:ETA002:                         ASYMM. ETA =     0.31574


       ATOMNUMBER=  3 Pu  0+     VCOUL-ZERO =  0.38184E+00
:EFG003:                        EFG         =   -15.05275   *10**21  V / m**2
                               V20  TOT/SRF=     1.87819    -0.00022
                               V22  TOT/SRF=    -2.86681    -0.00283
                               V22M TOT/SRF=   -13.67103    -0.00279
                               V21  TOT/SRF=     0.00000     0.00000
                               V21M TOT/SRF=     0.00000     0.00000

             -3.95118  -13.67103    0.00000      -15.05275    0.00000    0.00000
            -13.67103    1.78243    0.00000        0.00000   12.88400    0.00000
              0.00000    0.00000    2.16875        0.00000    0.00000    2.16875

         MAIN DIRECTIONS OF THE EFG   1.0000 -0.8121  0.0000
                                      0.8121  1.0000  0.0000
                                      0.0000  0.0000  1.0000
:ANG003:  ANGLE WITH OLD X-AXIS =        39.1

:ETA003:                         ASYMM. ETA =     0.71185


       ATOMNUMBER=  4 Pu  0+     VCOUL-ZERO =  0.38104E+00
:EFG004:                        EFG         =    12.35068   *10**21  V / m**2
                               V20  TOT/SRF=    -0.45351    -0.01210
                               V22  TOT/SRF=    -2.02975     0.01036
                               V22M TOT/SRF=    11.91723     0.01434
                               V21  TOT/SRF=     0.00000     0.00000
                               V21M TOT/SRF=     0.00000     0.00000

             -1.76792   11.91723    0.00000      -11.82701    0.00000    0.00000
             11.91723    2.29159    0.00000        0.00000   12.35068    0.00000
              0.00000    0.00000   -0.52367        0.00000    0.00000   -0.52367

         MAIN DIRECTIONS OF THE EFG   1.0000  0.8441  0.0000
                                     -0.8441  1.0000  0.0000
                                      0.0000  0.0000  1.0000
:ANG004:  ANGLE WITH OLD X-AXIS =        40.2

:ETA004:                         ASYMM. ETA =     0.91520


       ATOMNUMBER=  5 Pu  0+     VCOUL-ZERO =  0.38227E+00
:EFG005:                        EFG         =   -40.95594   *10**21  V / m**2
                               V20  TOT/SRF=    10.00184     0.00821
                               V22  TOT/SRF=   -34.65701    -0.06371
                               V22M TOT/SRF=     6.05148     0.02689
                               V21  TOT/SRF=     0.00000     0.00000
                               V21M TOT/SRF=     0.00000     0.00000

            -40.43158    6.05148    0.00000      -40.95594    0.00000    0.00000
              6.05148   28.88245    0.00000        0.00000   29.40680    0.00000
              0.00000    0.00000   11.54913        0.00000    0.00000   11.54913

         MAIN DIRECTIONS OF THE EFG   1.0000  0.0866  0.0000
                                     -0.0866  1.0000  0.0000
                                      0.0000  0.0000  1.0000
:ANG005:  ANGLE WITH OLD X-AXIS =         5.0

:ETA005:                         ASYMM. ETA =     0.43602


       ATOMNUMBER=  6 Pu  0+     VCOUL-ZERO =  0.38030E+00
:EFG006:                        EFG         =   -13.78154   *10**21  V / m**2
                               V20  TOT/SRF=     5.52277     0.00096
                               V22  TOT/SRF=    -3.03491    -0.00149
                               V22M TOT/SRF=   -10.14890    -0.03714
                               V21  TOT/SRF=     0.00000     0.00000
                               V21M TOT/SRF=     0.00000     0.00000

             -6.22349  -10.14890    0.00000      -13.78154    0.00000    0.00000
            -10.14890   -0.15366    0.00000        0.00000    7.40439    0.00000
              0.00000    0.00000    6.37715        0.00000    0.00000    6.37715

         MAIN DIRECTIONS OF THE EFG   1.0000 -0.7447  0.0000
                                      0.7447  1.0000  0.0000
                                      0.0000  0.0000  1.0000
:ANG006:  ANGLE WITH OLD X-AXIS =        36.7

:ETA006:                         ASYMM. ETA =     0.07454


       ATOMNUMBER=  7 Pu  0+     VCOUL-ZERO =  0.38054E+00
:EFG007:                        EFG         =   -17.38151   *10**21  V / m**2
                               V20  TOT/SRF=     6.81784    -0.00462
                               V22  TOT/SRF=    10.69827     0.04472
                               V22M TOT/SRF=     8.14378     0.00681
                               V21  TOT/SRF=     0.00000     0.00000
                               V21M TOT/SRF=     0.00000     0.00000

              6.76199    8.14378    0.00000        9.50895    0.00000    0.00000
              8.14378  -14.63456    0.00000        0.00000  -17.38151    0.00000
              0.00000    0.00000    7.87256        0.00000    0.00000    7.87256

         MAIN DIRECTIONS OF THE EFG   1.0000 -0.3373  0.0000
                                      0.3373  1.0000  0.0000
                                      0.0000  0.0000  1.0000
:ANG007:  ANGLE WITH OLD X-AXIS =        18.6

:ETA007:                         ASYMM. ETA =     0.09414


       ATOMNUMBER=  8 Pu  0+     VCOUL-ZERO =  0.37638E+00
:EFG008:                        EFG         =   -40.59648   *10**21  V / m**2
                               V20  TOT/SRF=    11.59882     0.01771
                               V22  TOT/SRF=   -33.68022    -0.02677
                               V22M TOT/SRF=     3.85300    -0.00069
                               V21  TOT/SRF=     0.00000     0.00000
                               V21M TOT/SRF=     0.00000     0.00000

            -40.37680    3.85300    0.00000      -40.59648    0.00000    0.00000
              3.85300   26.98365    0.00000        0.00000   27.20332    0.00000
              0.00000    0.00000   13.39316        0.00000    0.00000   13.39316

         MAIN DIRECTIONS OF THE EFG   1.0000  0.0570  0.0000
                                     -0.0570  1.0000  0.0000
                                      0.0000  0.0000  1.0000
:ANG008:  ANGLE WITH OLD X-AXIS =         3.3

:ETA008:                         ASYMM. ETA =     0.34018


     HELLMANN-FEYNMAN-FORCE IN mRy/a.u. = |F|  Fx       Fy             Fz
:FHF001:   1.ATOM       3153.149       2926.959       1172.716          0.000

     HELLMANN-FEYNMAN-FORCE IN mRy/a.u. = |F|  Fx       Fy             Fz
:FHF002:   2.ATOM       1252.022       -155.869       1242.281          0.000

     HELLMANN-FEYNMAN-FORCE IN mRy/a.u. = |F|  Fx       Fy             Fz
:FHF003:   3.ATOM       5401.534       3975.879       3656.359          0.000

     HELLMANN-FEYNMAN-FORCE IN mRy/a.u. = |F|  Fx       Fy             Fz
:FHF004:   4.ATOM       2962.729      -2909.055       -561.396          0.000

     HELLMANN-FEYNMAN-FORCE IN mRy/a.u. = |F|  Fx       Fy             Fz
:FHF005:   5.ATOM       1880.088        933.803       1631.791          0.000

     HELLMANN-FEYNMAN-FORCE IN mRy/a.u. = |F|  Fx       Fy             Fz
:FHF006:   6.ATOM       5195.418       4283.259       2940.418          0.000

     HELLMANN-FEYNMAN-FORCE IN mRy/a.u. = |F|  Fx       Fy             Fz
:FHF007:   7.ATOM       4967.465      -3428.988       3594.127          0.000

     HELLMANN-FEYNMAN-FORCE IN mRy/a.u. = |F|  Fx       Fy             Fz
:FHF008:   8.ATOM        912.012        845.835        341.071          0.000

:FIT001: LUSE= 13 SIGMA OF V-XC FIT FOR ATOM  1  0.1188871E-03
:FIT001: LUSE= 13 SIGMA OF V-XC FIT FOR ATOM  1  0.1188871E-03
:FIT002: LUSE= 13 SIGMA OF V-XC FIT FOR ATOM  2  0.7078848E-04
:FIT002: LUSE= 13 SIGMA OF V-XC FIT FOR ATOM  2  0.7078848E-04
:FIT003: LUSE= 13 SIGMA OF V-XC FIT FOR ATOM  3  0.7405740E-04
:FIT003: LUSE= 13 SIGMA OF V-XC FIT FOR ATOM  3  0.7405740E-04
:FIT004: LUSE= 13 SIGMA OF V-XC FIT FOR ATOM  4  0.7757320E-04
:FIT004: LUSE= 13 SIGMA OF V-XC FIT FOR ATOM  4  0.7757320E-04
:FIT005: LUSE= 13 SIGMA OF V-XC FIT FOR ATOM  5  0.6348969E-04
:FIT005: LUSE= 13 SIGMA OF V-XC FIT FOR ATOM  5  0.6348969E-04
:FIT006: LUSE= 13 SIGMA OF V-XC FIT FOR ATOM  6  0.4690793E-04
:FIT006: LUSE= 13 SIGMA OF V-XC FIT FOR ATOM  6  0.4690793E-04
:FIT007: LUSE= 13 SIGMA OF V-XC FIT FOR ATOM  7  0.1251250E-03
:FIT007: LUSE= 13 SIGMA OF V-XC FIT FOR ATOM  7  0.1251250E-03
:FIT008: LUSE= 13 SIGMA OF V-XC FIT FOR ATOM  8  0.2833007E-04
:FIT008: LUSE= 13 SIGMA OF V-XC FIT FOR ATOM  8  0.2833007E-04
:DEN  : DENSITY INTEGRAL  =       -350274.93185456   (Ry)
       ELS_POTENTIAL_AT Z=0 and Z=0.5:   0.89196   0.43801
       ELS_POTENTIAL_AT Y=0 and Y=0.5:   1.10336   1.10336
:VZERO:v0,v0c,v0x   0.10124   0.89196  -0.79072 v5,v5c,v5x  -0.41104   0.43801  -0.84906
:VZERY:v0,v0c,v0x   0.35843   1.10336  -0.74493 v5,v5c,v5x   0.35843   1.10336  -0.74493
:VZERX:v0,v0c,v0x  -0.75366   0.13262  -0.88628 v5,v5c,v5x  -0.66989   0.20537  -0.87526

------- alpha_Pu_7.scf1 --------

          ATOMIC SPHERE DEPENDENT PARAMETERS FOR ATOM  Pu  0+    
:e__0001: OVERALL ENERGY PARAMETER IS    0.9976
          OVERALL BASIS SET ON ATOM IS LAPW
:E0_0001: E( 0)=    0.9976
             APW+lo
:E0_0001: E( 0)=   -2.2065   E(BOTTOM)=   -2.979   E(TOP)=   -1.434
             LOCAL ORBITAL
:E1_0001: E( 1)=   -1.2800   E(BOTTOM)=   -1.280   E(TOP)= -200.000
             APW+lo
:E1_0001: E( 1)=    0.9976
             LOCAL ORBITAL
:E3_0001: E( 3)=    0.9976   E(BOTTOM)=    0.758   E(TOP)= -200.000
             APW+lo
:E2_0001: E( 2)=    0.9976   E(BOTTOM)=    0.923   E(TOP)= -200.000
             APW+lo

          ATOMIC SPHERE DEPENDENT PARAMETERS FOR ATOM  Pu  0+    
:e__0002: OVERALL ENERGY PARAMETER IS    0.9976
          OVERALL BASIS SET ON ATOM IS LAPW
:E0_0002: E( 0)=    0.9976
             APW+lo
:E0_0002: E( 0)=   -2.2060   E(BOTTOM)=   -2.978   E(TOP)=   -1.434
             LOCAL ORBITAL
:E1_0002: E( 1)=   -1.2800   E(BOTTOM)=   -1.280   E(TOP)= -200.000
             APW+lo
:E1_0002: E( 1)=    0.9976
             LOCAL ORBITAL
:E3_0002: E( 3)=    0.9976   E(BOTTOM)=    0.758   E(TOP)= -200.000
             APW+lo
:E2_0002: E( 2)=    0.9976   E(BOTTOM)=    0.928   E(TOP)= -200.000
             APW+lo

          ATOMIC SPHERE DEPENDENT PARAMETERS FOR ATOM  Pu  0+    
:e__0003: OVERALL ENERGY PARAMETER IS    0.9976
          OVERALL BASIS SET ON ATOM IS LAPW
:E0_0003: E( 0)=    0.9976
             APW+lo
:E0_0003: E( 0)=   -2.2050   E(BOTTOM)=   -2.977   E(TOP)=   -1.433
             LOCAL ORBITAL
:E1_0003: E( 1)=   -1.2780   E(BOTTOM)=   -1.278   E(TOP)= -200.000
             APW+lo
:E1_0003: E( 1)=    0.9976
             LOCAL ORBITAL
:E3_0003: E( 3)=    0.9976   E(BOTTOM)=    0.763   E(TOP)= -200.000
             APW+lo
:E2_0003: E( 2)=    0.9976   E(BOTTOM)=    0.928   E(TOP)= -200.000
             APW+lo

          ATOMIC SPHERE DEPENDENT PARAMETERS FOR ATOM  Pu  0+    
:e__0004: OVERALL ENERGY PARAMETER IS    0.9976
          OVERALL BASIS SET ON ATOM IS LAPW
:E0_0004: E( 0)=    0.9976
             APW+lo
:E0_0004: E( 0)=   -2.2060   E(BOTTOM)=   -2.978   E(TOP)=   -1.434
             LOCAL ORBITAL
:E1_0004: E( 1)=   -1.2780   E(BOTTOM)=   -1.278   E(TOP)= -200.000
             APW+lo
:E1_0004: E( 1)=    0.9976
             LOCAL ORBITAL
:E3_0004: E( 3)=    0.9976   E(BOTTOM)=    0.763   E(TOP)= -200.000
             APW+lo
:E2_0004: E( 2)=    0.9976   E(BOTTOM)=    0.928   E(TOP)= -200.000
             APW+lo

          ATOMIC SPHERE DEPENDENT PARAMETERS FOR ATOM  Pu  0+    
:e__0005: OVERALL ENERGY PARAMETER IS    0.9976
          OVERALL BASIS SET ON ATOM IS LAPW
:E0_0005: E( 0)=    0.9976
             APW+lo
:E0_0005: E( 0)=   -2.2055   E(BOTTOM)=   -2.977   E(TOP)=   -1.434
             LOCAL ORBITAL
:E1_0005: E( 1)=   -1.2780   E(BOTTOM)=   -1.278   E(TOP)= -200.000
             APW+lo
:E1_0005: E( 1)=    0.9976
             LOCAL ORBITAL
:E3_0005: E( 3)=    0.9976   E(BOTTOM)=    0.763   E(TOP)= -200.000
             APW+lo
:E2_0005: E( 2)=    0.9976   E(BOTTOM)=    0.928   E(TOP)= -200.000
             APW+lo

          ATOMIC SPHERE DEPENDENT PARAMETERS FOR ATOM  Pu  0+    
:e__0006: OVERALL ENERGY PARAMETER IS    0.9976
          OVERALL BASIS SET ON ATOM IS LAPW
:E0_0006: E( 0)=    0.9976
             APW+lo
:E0_0006: E( 0)=   -2.2065   E(BOTTOM)=   -2.978   E(TOP)=   -1.435
             LOCAL ORBITAL
:E1_0006: E( 1)=   -1.2780   E(BOTTOM)=   -1.278   E(TOP)= -200.000
             APW+lo
:E1_0006: E( 1)=    0.9976
             LOCAL ORBITAL
:E3_0006: E( 3)=    0.9976   E(BOTTOM)=    0.763   E(TOP)= -200.000
             APW+lo
:E2_0006: E( 2)=    0.9976   E(BOTTOM)=    0.928   E(TOP)= -200.000
             APW+lo

          ATOMIC SPHERE DEPENDENT PARAMETERS FOR ATOM  Pu  0+    
:e__0007: OVERALL ENERGY PARAMETER IS    0.9976
          OVERALL BASIS SET ON ATOM IS LAPW
:E0_0007: E( 0)=    0.9976
             APW+lo
:E0_0007: E( 0)=   -2.2050   E(BOTTOM)=   -2.977   E(TOP)=   -1.433
             LOCAL ORBITAL
:E1_0007: E( 1)=   -1.2780   E(BOTTOM)=   -1.278   E(TOP)= -200.000
             APW+lo
:E1_0007: E( 1)=    0.9976
             LOCAL ORBITAL
:E3_0007: E( 3)=    0.9976   E(BOTTOM)=    0.763   E(TOP)= -200.000
             APW+lo
:E2_0007: E( 2)=    0.9976   E(BOTTOM)=    0.928   E(TOP)= -200.000
             APW+lo

          ATOMIC SPHERE DEPENDENT PARAMETERS FOR ATOM  Pu  0+    
:e__0008: OVERALL ENERGY PARAMETER IS    0.9976
          OVERALL BASIS SET ON ATOM IS LAPW
:E0_0008: E( 0)=    0.9976
             APW+lo
:E0_0008: E( 0)=   -2.2050   E(BOTTOM)=   -2.977   E(TOP)=   -1.433
             LOCAL ORBITAL
:E1_0008: E( 1)=   -1.2780   E(BOTTOM)=   -1.278   E(TOP)= -200.000
             APW+lo
:E1_0008: E( 1)=    0.9976
             LOCAL ORBITAL
:E3_0008: E( 3)=    0.9976   E(BOTTOM)=    0.763   E(TOP)= -200.000
             APW+lo
:E2_0008: E( 2)=    0.9976   E(BOTTOM)=    0.928   E(TOP)= -200.000
             APW+lo

       K=   0.00000   0.00000   0.00000            1
:RKM  : MATRIX SIZE 2895LOs: 320  RKM= 8.49  WEIGHT= 1.00  PGR:    
       EIGENVALUES ARE:
:EIG00001:      -2.2064593   -2.1948911   -2.1920808   -2.1823387   -2.1740529
:EIG00006:      -2.1717022   -2.1657090   -2.1622230   -2.1618582   -2.1534126
:EIG00011:      -2.1492238   -2.1476084   -2.1393056   -2.1387065   -2.1342573
:EIG00016:      -2.1288791   -0.3694917   -0.3671221   -0.3628936   -0.3414367
:EIG00021:      -0.3411373   -0.3311926   -0.3299195   -0.3276511   -0.3039969
:EIG00026:      -0.2964105   -0.2948259   -0.2814433   -0.2805885   -0.2687726
:EIG00031:      -0.2678314   -0.2675780   -0.2641534   -0.2613031   -0.2448024
:EIG00036:      -0.2412482   -0.2145482   -0.2141576   -0.1792105   -0.1700272
:EIG00041:      -0.1655628   -0.1537040   -0.1317524   -0.1287860   -0.1111274
:EIG00046:      -0.1103364   -0.1017574   -0.0944503   -0.0890773   -0.0864200
 
:EIG00051:      -0.0858563   -0.0817274   -0.0668907   -0.0639538   -0.0622200
:EIG00056:      -0.0611653   -0.0487566   -0.0456106   -0.0450602   -0.0447257
:EIG00061:      -0.0382864   -0.0330496   -0.0141658   -0.0113830    0.8641534
:EIG00066:       1.0178269    1.0197116    1.0339180    1.0378706    1.0438176
:EIG00071:       1.0444848    1.0448721    1.0605904    1.0615000    1.0806213
:EIG00076:       1.0832027    1.0863872    1.0944464    1.0984108    1.1013040
:EIG00081:       1.1101846    1.1140602    1.1289961    1.1358825    1.1428362
:EIG00086:       1.1446794    1.1478418    1.1565645    1.1577365    1.1598482
:EIG00091:       1.1625709    1.1666070    1.1667019    1.1720995    1.1728109
:EIG00096:       1.1729355    1.1743724    1.1765493    1.1771018    1.1809081
 
:EIG00101:       1.1812637    1.1815476    1.1816127    1.1834186    1.1835966
:EIG00106:       1.1845228    1.1854991    1.1897194    1.1897969    1.1919363
:EIG00111:       1.1942938    1.1953949    1.1967692    1.2025782    1.2026081
:EIG00116:       1.2061802    1.2072541    1.2087168    1.2093760    1.2136021
:EIG00121:       1.2160943    1.2186230    1.2210852    1.2222599    1.2274004
:EIG00126:       1.2309594    1.2312362    1.2325746    1.2345859    1.2412429
:EIG00131:       1.2485192    1.2508329    1.2567045    1.2575296    1.2587848
:EIG00136:       1.2599217    1.2619460    1.2633885    1.2644037    1.2669301
:EIG00141:       1.2678927    1.2704115    1.2705538    1.2712994    1.2721676
:EIG00146:       1.2746108    1.2778296    1.2800978    1.2823448    1.2824580
 
:EIG00151:       1.2838611    1.2876002    1.2897197    1.2901752    1.2926708
:EIG00156:       1.2948086    1.2956745    1.2958309    1.2973652    1.2984861
:EIG00161:       1.2989875    1.3009246    1.3041153    1.3043775    1.3052290
:EIG00166:       1.3052826    1.3061874    1.3072907    1.3097230    1.3105832
:EIG00171:       1.3138156    1.3159407    1.3160032    1.3161117    1.3168701
:EIG00176:       1.3204778    1.3223463    1.3232522    1.3241001    1.3241177
:EIG00181:       1.3245805    1.3248717    1.3309700    1.3345558    1.3352450
:EIG00186:       1.3379845    1.3379975    1.3384717    1.3386751    1.3445735
:EIG00191:       1.3452404    1.3459173    1.3465223    1.3480686    1.3523325
:EIG00196:       1.3572064    1.3761200    1.3816150    1.3881080    1.4011113
 
:EIG00201:       1.4033783    1.4202293    1.4214717    1.4250093    1.4275505
:EIG00206:       1.4342888    1.4397687    1.4552146    1.4555092    1.4588760
:EIG00211:       1.4638797    1.4690022    1.4709588    1.4720394    1.4964871
:EIG00216:       1.5046997    1.5091536    1.5369014    1.5531481    1.5646233
:EIG00221:       1.5823984    1.5903383    1.5947018    1.5955134    1.6123369
:EIG00226:       1.6214821    1.6217337    1.6296015    1.6514512    1.6538596
:EIG00231:       1.6739621    1.6810741    1.7137438    1.7276972    1.7283867
:EIG00236:       1.7397021    1.7424088    1.7451106    1.7577456    1.7813224
:EIG00241:       1.7895617    1.7896881    1.7908564    1.8207553    1.8287881
:EIG00246:       1.8418190    1.8468538    1.8690729    1.8699354    1.8779017
 
:EIG00251:       1.8861278    1.8887705    1.8941356    1.9063305    1.9170802
:EIG00256:       1.9207072    1.9447619    1.9598141    1.9632848    1.9674286
:EIG00261:       1.9962919    2.0087063    2.0484101    2.0493334    2.0856978
:EIG00266:       2.1281363    2.1411273    2.1622726    2.1971756    2.2036437
:EIG00271:       2.2061609    2.2068834    2.2194491    2.2258031    2.2324140
:EIG00276:       2.2487509    2.2591753    2.2664229    2.2757458    2.2953603
:EIG00281:       2.3121587    2.3349540    2.3447165    2.3693361    2.3721202
:EIG00286:       2.3826644    2.3941378    2.3946791    2.4209822    2.4406066
:EIG00291:       2.4489840    2.4593289    2.4649686    2.4754663    2.4975406
:EIG00296:       2.4991514    2.5388335    2.5571327    2.5617146    2.5726999
 
:EIG00301:       2.5727203    2.5813670    2.6039018    2.6068792    2.6284842
:EIG00306:       2.6427245    2.6496813    2.6583256    2.6760864    2.6856098
:EIG00311:       2.6870679    2.7010843    2.7074503    2.7129744    2.7331058
:EIG00316:       2.7336053    2.7446976    2.7474266    2.7557418    2.7894240
:EIG00321:       2.7996851    2.7998006    2.8099209    2.8170303    2.8279857
:EIG00326:       2.8307960    2.8369546    2.8511255    2.8557096    2.8571079
:EIG00331:       2.8778784    2.8787519    2.8981394    2.9037683    2.9229100
:EIG00336:       2.9238956    2.9434181    2.9444335    2.9628789    2.9773605
:EIG00341:       2.9799050    2.9859782    2.9874325    3.0061601    3.0117696
:EIG00346:       3.0300594    3.0367827    3.0451926    3.0541249    3.0678217
 
:EIG00351:       3.0776258    3.0797497    3.1065232    3.1085438    3.1238071
:EIG00356:       3.1466279    3.1529485    3.1597310    3.1671375    3.1697670
:EIG00361:       3.1825563    3.1858656    3.1946203    3.1958255    3.2128410
:EIG00366:       3.2193022    3.2224102    3.2410966    3.2636186    3.2689112
:EIG00371:       3.2780354    3.2786525    3.2959156    3.3016673    3.3204376
:EIG00376:       3.3407771    3.3441853    3.3589941    3.3590779    3.3642901
:EIG00381:       3.3655325    3.3762005    3.3775889    3.3876505    3.4253786
:EIG00386:       3.4312834    3.4472814    3.4558624    3.4641299    3.4663450
:EIG00391:       3.4673043    3.4717802    3.4835988    3.4967359    3.4981599
:EIG00396:       3.5133779    3.5460576    3.5520762    3.5542956    3.5579191
 
:EIG00401:       3.5632880    3.5638597    3.5927239    3.6057073    3.6088228
:EIG00406:       3.6094565    3.6197612    3.6324190    3.6452338    3.6462760
:EIG00411:       3.6607543    3.6652311    3.6695788    3.6874769    3.6932376
:EIG00416:       3.7040696    3.7101222    3.7156717    3.7344952    3.7404334
:EIG00421:       3.7503242    3.7540106    3.7683991    3.7848678    3.8001589
:EIG00426:       3.8030535    3.8136031    3.8157903    3.8160174    3.8226728
:EIG00431:       3.8284631    3.8491588    3.8510598    3.8620336    3.8712707
:EIG00436:       3.8731788    3.8738808    3.8774398    3.8859382    3.8988228
:EIG00441:       3.9067291    3.9068946    3.9130573    3.9180682    3.9272521
:EIG00446:       3.9434443    3.9503590    3.9550544    3.9614018    3.9639777
 
:EIG00451:       3.9674425    4.0005387    4.0038610    4.0040112    4.0122252
:EIG00456:       4.0151378    4.0187370    4.0205068    4.0279302    4.0516946
:EIG00461:       4.0672934    4.0821220    4.0852541    4.0991211    4.1065294
:EIG00466:       4.1139004    4.1223980    4.1457744    4.1469516    4.1593074
:EIG00471:       4.1633146    4.1663164    4.1814790    4.1858877    4.2072557
:EIG00476:       4.2116301    4.2241306    4.2320797    4.2437349    4.2439189
:EIG00481:       4.2518703    4.2550204    4.2556166    4.2622434    4.2758702
:EIG00486:       4.2843007    4.2885133    4.2901194    4.2935601    4.3114530
:EIG00491:       4.3218576    4.3240644    4.3324339    4.3396029    4.3435047
:EIG00496:       4.3459392    4.3587294    4.3604261    4.3606636    4.3736954
 
:EIG00501:       4.3742526    4.3751972    4.3769642    4.3792371    4.3906531
:EIG00506:       4.3988807    4.4033213    4.4035816    4.4093664    4.4139113
:EIG00511:       4.4259510    4.4327392    4.4442359    4.4556299    4.4607189
:EIG00516:       4.4643519    4.4752522    4.4758170    4.4806997    4.4853532
:EIG00521:       4.4855877    4.4879984    4.4912836    4.4944182    4.5036149
:EIG00526:       4.5072628    4.5282145    4.5334836    4.5541143    4.5578946
:EIG00531:       4.5583000    4.5681151    4.5698291    4.5941309    4.5982773
:EIG00536:       4.6164224    4.6231388    4.6371415    4.6417687    4.6544501
:EIG00541:       4.6597635    4.6636033    4.6736436    4.6784765    4.6885603
:EIG00546:       4.6997391    4.7099372    4.7113436    4.7155164    4.7220044
 
:EIG00551:       4.7293899    4.7324465    4.7329132    4.7432575    4.7490549
:EIG00556:       4.7527232    4.7543388    4.7688785    4.7883988    4.7919062
:EIG00561:       4.8023312    4.8044740    4.8119995    4.8123244    4.8154706
:EIG00566:       4.8191065    4.8194783    4.8309926    4.8311568    4.8387947
:EIG00571:       4.8534769    4.8591421    4.8719394    4.8731386    4.8808811
:EIG00576:       4.8845107    4.8910118    4.8923596    4.8986523    4.9052261
:EIG00581:       4.9166866    4.9262518    4.9306216    4.9347466    4.9451781
:EIG00586:       4.9477385    4.9581657    4.9586633    4.9662258    4.9745462
:EIG00591:       4.9815982    4.9828361    4.9951229    5.0014515    5.0029578
:EIG00596:       5.0035178    5.0192334    5.0362225    5.0429662    5.0470882
 
:EIG00601:       5.0513777    5.0557460    5.0635468    5.0752924    5.0853494
:EIG00606:       5.0864732    5.0884205    5.0917471    5.0948815    5.1053484
:EIG00611:       5.1061518    5.1092314    5.1152817    5.1282175    5.1342477
:EIG00616:       5.1513265    5.1533014    5.1547264    5.1590893    5.1668224
:EIG00621:       5.1876374    5.1989119    5.1989132    5.2048485    5.2076011
:EIG00626:       5.2219452    5.2226299    5.2461028    5.2531278    5.2594431
:EIG00631:       5.2630810    5.2723172    5.2737092    5.2867933    5.2894686
:EIG00636:       5.2901151    5.2961420    5.3073124    5.3116792    5.3141850
:EIG00641:       5.3192879    5.3341788    5.3354971    5.3413722    5.3544365
:EIG00646:       5.3582674    5.3592082    5.3660636    5.3743592    5.3754216
 
:EIG00651:       5.3902455    5.4098100    5.4147076    5.4187460    5.4268485
:EIG00656:       5.4320169    5.4341267    5.4383061    5.4449957    5.4532578
:EIG00661:       5.4572374    5.4629743    5.4742058    5.4788655    5.5010516
:EIG00666:       5.5090037    5.5094050    5.5199395    5.5268242    5.5351624
:EIG00671:       5.5435213    5.5588067    5.5685960    5.5738527    5.5862730
:EIG00676:       5.5926058    5.6028364    5.6187081    5.6288474    5.6357578
:EIG00681:       5.6370375    5.6507130    5.6508303    5.6512852    5.6746818
:EIG00686:       5.6782580    5.6825040    5.6986387    5.7023380    5.7140679
:EIG00691:       5.7161517    5.7186692    5.7230034    5.7338050    5.7349460
:EIG00696:       5.7551844    5.7556202    5.7585493    5.7615904    5.7732170
 
:EIG00701:       5.7869267    5.7965434    5.8067150    5.8178224    5.8324542
:EIG00706:       5.8344394    5.8369155    5.8389247    5.8404127    5.8539073
:EIG00711:       5.8641941    5.8717974    5.8727534    5.8753466    5.8897797
:EIG00716:       5.8900235    5.9058508    5.9303847    5.9339632    5.9377379
:EIG00721:       5.9430567    5.9442285    5.9567463    5.9600786    5.9614228
:EIG00726:       5.9674076    5.9719870    5.9748889    5.9763577    5.9841646
:EIG00731:       5.9852384    5.9899063    5.9902351    6.0088535    6.0131016
:EIG00736:       6.0216523    6.0232624    6.0413593    6.0526307    6.0549507
:EIG00741:       6.0594051    6.0607303    6.0706591    6.0724736    6.0762613
:EIG00746:       6.0798321    6.0957279    6.1046135    6.1139096    6.1206279
 
:EIG00751:       6.1236659    6.1281287    6.1308946    6.1452211    6.1464140
:EIG00756:       6.1540920    6.1609193    6.1728574    6.1786644    6.1831880
:EIG00761:       6.1874429    6.1894886    6.1983521    6.1989015    6.2166147
:EIG00766:       6.2283093    6.2347294    6.2447577    6.2521279    6.2625845
:EIG00771:       6.2708325    6.2718388    6.2814154    6.2854432    6.2880912
:EIG00776:       6.2982534    6.3052275    6.3078830    6.3154141    6.3187172
:EIG00781:       6.3383178    6.3389723    6.3405186    6.3433498    6.3598620
:EIG00786:       6.3656210    6.3669092    6.3712970    6.3807358    6.3848651
:EIG00791:       6.3933268    6.3967539    6.4110522    6.4173407    6.4228995
:EIG00796:       6.4255877    6.4286676    6.4339049    6.4376524    6.4605519
 
:EIG00801:       6.4636113    6.4652745    6.4734503    6.4756245    6.4881845
:EIG00806:       6.4909613    6.4922936    6.4995710    6.5015784    6.5142906
:EIG00811:       6.5247084    6.5270347    6.5413450    6.5428461    6.5450962
:EIG00816:       6.5558474    6.5598463    6.5629104    6.5767920    6.5827842
:EIG00821:       6.5832101    6.5998065    6.6077378    6.6104344    6.6133322
:EIG00826:       6.6176774    6.6274401    6.6301122    6.6399723    6.6419032
:EIG00831:       6.6520238    6.6555080    6.6558136    6.6575599    6.6749326
:EIG00836:       6.6775688    6.6835083    6.6928721    6.7154787    6.7166685
:EIG00841:       6.7246147    6.7281383    6.7342104    6.7345208    6.7372689
:EIG00846:       6.7403497    6.7554716    6.7603522    6.7618726    6.7682315
 
:EIG00851:       6.7709325    6.7827556    6.7851651    6.7890892    6.8018138
:EIG00856:       6.8179704    6.8254377    6.8392406    6.8400214    6.8497005
:EIG00861:       6.8497957    6.8516222    6.8599616    6.8658810    6.8693068
:EIG00866:       6.8764207    6.8777077    6.8946604    6.9067910    6.9079112
:EIG00871:       6.9127998    6.9164924    6.9165374    6.9327236    6.9351138
:EIG00876:       6.9362791    6.9374249    6.9378115    6.9466988    6.9540615
:EIG00881:       6.9675736    6.9716199    6.9912099    6.9948901    7.0010602
:EIG00886:       7.0054931    7.0074194    7.0257779    7.0356105    7.0356720
:EIG00891:       7.0358630    7.0407766    7.0589629    7.0648352    7.0657788
:EIG00896:       7.0664616    7.0768699    7.0781268    7.0870826    7.0872967
 
:EIG00901:       7.0941407    7.0951199    7.1040703    7.1190156    7.1214415
:EIG00906:       7.1231010    7.1277093    7.1371475    7.1393449    7.1394325
:EIG00911:       7.1489612    7.1491566    7.1581561    7.1730896    7.1769565
:EIG00916:       7.1856591    7.1878177    7.1924526    7.1928390    7.1967926
:EIG00921:       7.2023150    7.2141751    7.2162003    7.2168952    7.2222309
:EIG00926:       7.2338719    7.2368773    7.2505995    7.2555596    7.2556595
:EIG00931:       7.2719559    7.2745903    7.2759142    7.2766618    7.2887058
:EIG00936:       7.2909937    7.3046456    7.3053809    7.3096866    7.3130597
:EIG00941:       7.3264495    7.3279355    7.3313789    7.3334250    7.3400450
:EIG00946:       7.3493498    7.3528966    7.3611647    7.3650037    7.3732837
 
:EIG00951:       7.3763760    7.3913230    7.3994151    7.4020147    7.4051987
:EIG00956:       7.4087593    7.4252368    7.4290036    7.4384452    7.4448778
:EIG00961:       7.4460623    7.4542777    7.4570330    7.4663950    7.4666378
:EIG00966:       7.4824342    7.4830009    7.4841046    7.4972555
       ********************************************************

:KPT   :      NUMBER OF K-POINTS:    272

------- alpha_Pu_7.scfso --------
   0.0   0.0 angle (M,z), angle (M,x) deg
 
        SPIN-ORBIT EIGENVALUES:
     K=   0.00000   0.00000   0.00000            1
      MATRIX SIZE= 1938   WEIGHT= 1.00
     EIGENVALUES ARE:
          -2.2064647   -2.2064647   -2.1949026   -2.1949026   -2.1920934
          -2.1920934   -2.1823542   -2.1823542   -2.1740628   -2.1740628
          -2.1717172   -2.1717172   -2.1657210   -2.1657210   -2.1622335
          -2.1622335   -2.1618619   -2.1618619   -2.1534248   -2.1534248
          -2.1492413   -2.1492413   -2.1476207   -2.1476207   -2.1393181
          -2.1393181   -2.1387168   -2.1387168   -2.1342665   -2.1342665
          -2.1288912   -2.1288912   -0.6697441   -0.6697441   -0.6670927
          -0.6670927   -0.6550788   -0.6550788   -0.6540269   -0.6540269

          -0.6504751   -0.6504751   -0.6447326   -0.6447326   -0.6435910
          -0.6435910   -0.6292520   -0.6292520   -0.6225657   -0.6225657
          -0.6217214   -0.6217214   -0.6154367   -0.6154367   -0.6148960
          -0.6148960   -0.6074892   -0.6074892   -0.5725528   -0.5725528
          -0.5625668   -0.5625668   -0.5296810   -0.5296810   -0.1620633
          -0.1620633   -0.1413851   -0.1413851   -0.1345381   -0.1345381
          -0.1343071   -0.1343071   -0.1229415   -0.1229415   -0.1167899
          -0.1167899   -0.1092369   -0.1092369   -0.1031027   -0.1031027

          -0.0816354   -0.0816354   -0.0750640   -0.0750640   -0.0712148
          -0.0712148   -0.0658658   -0.0658658   -0.0477006   -0.0477006
          -0.0373517   -0.0373517   -0.0362624   -0.0362624   -0.0222851
          -0.0222851    0.0052372    0.0052372    0.0163673    0.0163673
           0.0300856    0.0300856    0.0526846    0.0526846    0.0593289
           0.0593289    0.0654721    0.0654721    0.0827663    0.0827663
           0.0962893    0.0962893    0.1039976    0.1039976    0.1059641
           0.1059641    0.1186520    0.1186520    0.1253158    0.1253158

           0.1374299    0.1374299    0.1546326    0.1546326    0.1596420
           0.1596420    0.1626328    0.1626328    0.8641570    0.8641570
           1.0186704    1.0186704    1.0187720    1.0187720    1.0311849
           1.0311849    1.0366584    1.0366584    1.0400242    1.0400242
           1.0419337    1.0419337    1.0471001    1.0471001    1.0589318
           1.0589318    1.0609240    1.0609240    1.0781052    1.0781052
           1.0805000    1.0805000    1.0849182    1.0849182    1.0894271
           1.0894271    1.0978279    1.0978279    1.1005172    1.1005172

           1.1084909    1.1084909    1.1128390    1.1128390    1.1213548
           1.1213548    1.1283799    1.1283799    1.1327197    1.1327197
           1.1353051    1.1353051    1.1465371    1.1465371    1.1467970
           1.1467970    1.1522464    1.1522464    1.1533571    1.1533571
           1.1537803    1.1537803    1.1570562    1.1570562    1.1600331
           1.1600331    1.1617094    1.1617094    1.1633843    1.1633843
           1.1654310    1.1654310    1.1659189    1.1659189    1.1681890
           1.1681890    1.1699042    1.1699042    1.1709082    1.1709082

           1.1709815    1.1709815    1.1732091    1.1732091    1.1744151
           1.1744151    1.1751762    1.1751762    1.1780992    1.1780992
           1.1788865    1.1788865    1.1796130    1.1796130    1.1810438
           1.1810438    1.1833389    1.1833389    1.1838755    1.1838755
           1.1856029    1.1856029    1.1865378    1.1865378    1.1911292
           1.1911292    1.1912090    1.1912090    1.1920837    1.1920837
           1.1945664    1.1945664    1.1954676    1.1954676    1.1968554
           1.1968554    1.1986100    1.1986100    1.1993327    1.1993327

           1.2039952    1.2039952    1.2055283    1.2055283    1.2082677
           1.2082677    1.2101048    1.2101048    1.2130777    1.2130777
           1.2134559    1.2134559    1.2144733    1.2144733    1.2181025
           1.2181025    1.2198136    1.2198136    1.2247640    1.2247640
           1.2268663    1.2268663    1.2323210    1.2323210    1.2340059
           1.2340059    1.2351617    1.2351617    1.2390695    1.2390695
           1.2429392    1.2429392    1.2492937    1.2492937    1.2565297
           1.2565297    1.2568809    1.2568809    1.2625604    1.2625604

           1.2680928    1.2680928    1.2736019    1.2736019    1.2746459
           1.2746459    1.2759749    1.2759749    1.2807345    1.2807345
           1.2831513    1.2831513    1.2834291    1.2834291    1.2850885
           1.2850885    1.2883875    1.2883875    1.2894216    1.2894216
           1.2931332    1.2931332    1.2935794    1.2935794    1.2958686
           1.2958686    1.2973760    1.2973760    1.2986843    1.2986843
           1.3016772    1.3016772    1.3024257    1.3024257    1.3034241
           1.3034241    1.3056424    1.3056424    1.3057549    1.3057549

           1.3076521    1.3076521    1.3094915    1.3094915    1.3106791
           1.3106791    1.3108572    1.3108572    1.3129482    1.3129482
           1.3142038    1.3142038    1.3159226    1.3159226    1.3170188
           1.3170188    1.3175667    1.3175667    1.3196233    1.3196233
           1.3215401    1.3215401    1.3244707    1.3244707    1.3254056
           1.3254056    1.3269887    1.3269887    1.3301365    1.3301365
           1.3301971    1.3301971    1.3323375    1.3323375    1.3330991
           1.3330991    1.3347069    1.3347069    1.3355950    1.3355950

           1.3369599    1.3369599    1.3381389    1.3381389    1.3386438
           1.3386438    1.3413135    1.3413135    1.3428100    1.3428100
           1.3445648    1.3445648    1.3448555    1.3448555    1.3498829
           1.3498829    1.3521305    1.3521305    1.3532894    1.3532894
           1.3532980    1.3532980    1.3555075    1.3555075    1.3580817
           1.3580817    1.3587754    1.3587754    1.3594678    1.3594678
           1.3719085    1.3719085    1.3830010    1.3830010    1.3925920
           1.3925920    1.3954534    1.3954534    1.3965500    1.3965500

           1.4142231    1.4142231    1.4207553    1.4207553    1.4243786
           1.4243786    1.4333779    1.4333779    1.4345409    1.4345409
           1.4387609    1.4387609    1.4459507    1.4459507    1.4547497
           1.4547497    1.4556380    1.4556380    1.4667690    1.4667690
           1.4690313    1.4690313    1.4726174    1.4726174    1.4750779
           1.4750779    1.4804398    1.4804398    1.4953518    1.4953518
           1.5142794    1.5142794    1.5153737    1.5153737    1.5390134
           1.5390134    1.5547622    1.5547622    1.5646412    1.5646412

           1.5767787    1.5767787    1.5884912    1.5884912    1.6002243
           1.6002243    1.6051494    1.6051494    1.6086308    1.6086308
           1.6219373    1.6219373    1.6270564    1.6270564    1.6322313
           1.6322313    1.6515060    1.6515060    1.6522147    1.6522147
           1.6782926    1.6782926    1.6795221    1.6795221    1.7132423
           1.7132423    1.7266359    1.7266359    1.7292474    1.7292474
           1.7393816    1.7393816    1.7395693    1.7395693    1.7458718
           1.7458718    1.7652247    1.7652247    1.7749417    1.7749417

           1.7817808    1.7817808    1.7871042    1.7871042    1.8004219
           1.8004219    1.8211470    1.8211470    1.8298877    1.8298877
           1.8377251    1.8377251    1.8474999    1.8474999    1.8648414
           1.8648414    1.8662782    1.8662782    1.8770448    1.8770448
           1.8810781    1.8810781    1.8869151    1.8869151    1.9011203
           1.9011203    1.9063108    1.9063108    1.9184517    1.9184517
           1.9298193    1.9298193    1.9428529    1.9428529    1.9617407
           1.9617407    1.9633313    1.9633313    1.9732485    1.9732485

           2.0000445    2.0000445    2.0084282    2.0084282    2.0479066
           2.0479066    2.0514435    2.0514435    2.0855791    2.0855791
           2.1186732    2.1186732    2.1349450    2.1349450    2.1492304
           2.1492304    2.1828562    2.1828562    2.1877703    2.1877703
           2.2002503    2.2002503    2.2031711    2.2031711    2.2185887
           2.2185887    2.2228796    2.2228796    2.2314078    2.2314078
           2.2551070    2.2551070    2.2635787    2.2635787    2.2836806
           2.2836806    2.3032228    2.3032228    2.3052222    2.3052222

           2.3270129    2.3270129    2.3372547    2.3372547    2.3430808
           2.3430808    2.3691175    2.3691175    2.3826705    2.3826705
           2.3884248    2.3884248    2.3982696    2.3982696    2.3985974
           2.3985974    2.4251969    2.4251969    2.4458545    2.4458545
           2.4518050    2.4518050    2.4613430    2.4613430    2.4663985
           2.4663985    2.4797836    2.4797836    2.4996560    2.4996560
           2.4999158    2.4999158    2.5370795    2.5370795    2.5563533
           2.5563533    2.5607582    2.5607582    2.5709001    2.5709001

           2.5732988    2.5732988    2.5840652    2.5840652    2.6063422
           2.6063422    2.6116468    2.6116468    2.6314290    2.6314290
           2.6454705    2.6454705    2.6532704    2.6532704    2.6572564
           2.6572564    2.6718430    2.6718430    2.6839333    2.6839333
           2.6948068    2.6948068    2.6948636    2.6948636    2.7089576
           2.7089576    2.7182306    2.7182306    2.7300499    2.7300499
           2.7367871    2.7367871    2.7400555    2.7400555    2.7584314
           2.7584314    2.7668582    2.7668582    2.7895740    2.7895740

           2.7989547    2.7989547    2.8023385    2.8023385    2.8087487
           2.8087487    2.8197669    2.8197669    2.8306680    2.8306680
           2.8325611    2.8325611    2.8378595    2.8378595    2.8519831
           2.8519831    2.8611867    2.8611867    2.8653807    2.8653807
           2.8784992    2.8784992    2.8811405    2.8811405    2.8983347
           2.8983347    2.9063219    2.9063219    2.9241010    2.9241010
           2.9249381    2.9249381    2.9412311    2.9412311    2.9491136
           2.9491136    2.9596172    2.9596172    2.9786621    2.9786621

           2.9787569    2.9787569    2.9887230    2.9887230    2.9898523
           2.9898523    3.0071079    3.0071079    3.0133439    3.0133439
           3.0306487    3.0306487    3.0375938    3.0375938    3.0472719
           3.0472719    3.0561016    3.0561016    3.0686660    3.0686660
           3.0756211    3.0756211    3.0827795    3.0827795    3.1055463
           3.1055463    3.1098546    3.1098546    3.1246127    3.1246127
           3.1451402    3.1451402    3.1499705    3.1499705    3.1616503
           3.1616503    3.1658366    3.1658366    3.1692361    3.1692361

           3.1796978    3.1796978    3.1846268    3.1846268    3.1958371
           3.1958371    3.1964995    3.1964995    3.2164400    3.2164400
           3.2167222    3.2167222    3.2241013    3.2241013    3.2427528
           3.2427528    3.2633269    3.2633269    3.2689121    3.2689121
           3.2711711    3.2711711    3.2795692    3.2795692    3.2955742
           3.2955742    3.3014336    3.3014336    3.3194646    3.3194646
           3.3364112    3.3364112    3.3442816    3.3442816    3.3461304
           3.3461304    3.3601846    3.3601846    3.3613755    3.3613755

           3.3685481    3.3685481    3.3746904    3.3746904    3.3831025
           3.3831025    3.3884532    3.3884532    3.4246023    3.4246023
           3.4307192    3.4307192    3.4360855    3.4360855    3.4503226
           3.4503226    3.4620958    3.4620958    3.4671335    3.4671335
           3.4685271    3.4685271    3.4808082    3.4808082    3.4808473
           3.4808473    3.4944745    3.4944745    3.4974731    3.4974731
           3.5152554    3.5152554    3.5296383    3.5296383    3.5469249
           3.5469249    3.5478092    3.5478092    3.5559242    3.5559242

           3.5703394    3.5703394    3.5771520    3.5771520    3.5984076
           3.5984076    3.5986180    3.5986180    3.6053724    3.6053724
           3.6127380    3.6127380    3.6237210    3.6237210    3.6301603
           3.6301603    3.6504518    3.6504518    3.6533358    3.6533358
           3.6574519    3.6574519    3.6692913    3.6692913    3.6707569
           3.6707569    3.6922369    3.6922369    3.6943836    3.6943836
           3.7064422    3.7064422    3.7144439    3.7144439    3.7177961
           3.7177961    3.7299011    3.7299011    3.7371914    3.7371914

           3.7558361    3.7558361    3.7597243    3.7597243    3.7656547
           3.7656547    3.7811110    3.7811110    3.7871752    3.7871752
           3.7977598    3.7977598    3.8076223    3.8076223    3.8176202
           3.8176202    3.8186406    3.8186406    3.8309737    3.8309737
           3.8321100    3.8321100    3.8429554    3.8429554    3.8504241
           3.8504241    3.8521348    3.8521348    3.8678417    3.8678417
           3.8763052    3.8763052    3.8812253    3.8812253    3.8875047
           3.8875047    3.8933293    3.8933293    3.9053315    3.9053315

           3.9068756    3.9068756    3.9159231    3.9159231    3.9175406
           3.9175406    3.9268804    3.9268804    3.9360646    3.9360646
           3.9500015    3.9500015    3.9514707    3.9514707    3.9589561
           3.9589561    3.9593196    3.9593196    3.9722854    3.9722854
           3.9736801    3.9736801    3.9970737    3.9970737    4.0030003
           4.0030003    4.0098062    4.0098062    4.0166787    4.0166787
           4.0178361    4.0178361    4.0289645    4.0289645    4.0306895
           4.0306895    4.0464526    4.0464526    4.0506808    4.0506808

           4.0663991    4.0663991    4.0871093    4.0871093    4.0919255
           4.0919255    4.1048863    4.1048863    4.1140640    4.1140640
           4.1162900    4.1162900    4.1182667    4.1182667    4.1490000
           4.1490000    4.1497205    4.1497205    4.1662936    4.1662936
           4.1676262    4.1676262    4.1693039    4.1693039    4.1839173
           4.1839173    4.1914190    4.1914190    4.2100934    4.2100934
           4.2113892    4.2113892    4.2278276    4.2278276    4.2343255
           4.2343255    4.2426267    4.2426267    4.2483633    4.2483633

           4.2527980    4.2527980    4.2552855    4.2552855    4.2623120
           4.2623120    4.2678958    4.2678958    4.2772518    4.2772518
           4.2858119    4.2858119    4.2913980    4.2913980    4.2951173
           4.2951173    4.2963462    4.2963462    4.3143525    4.3143525
           4.3234545    4.3234545    4.3246019    4.3246019    4.3332445
           4.3332445    4.3386731    4.3386731    4.3509583    4.3509583
           4.3518443    4.3518443    4.3580373    4.3580373    4.3609956
           4.3609956    4.3656710    4.3656710    4.3697769    4.3697769

           4.3766572    4.3766572    4.3767756    4.3767756    4.3811754
           4.3811754    4.3846356    4.3846356    4.3916111    4.3916111
           4.4016461    4.4016461    4.4017589    4.4017589    4.4087195
           4.4087195    4.4129716    4.4129716    4.4183455    4.4183455
           4.4283484    4.4283484    4.4358352    4.4358352    4.4464778
           4.4464778    4.4577748    4.4577748    4.4617359    4.4617359
           4.4619421    4.4619421    4.4765636    4.4765636    4.4767024
           4.4767024    4.4804039    4.4804039    4.4860875    4.4860875

           4.4889087    4.4889087    4.4900746    4.4900746    4.4950373
           4.4950373
       ********************************************************

------- alpha_Pu_7.scf2 --------
:GMA  : POTENTIAL AND CHARGE CUT-OFF  12.00 Ry**.5
         Bandranges (emin - emax) and occupancy:
:BAN00250: 250    1.210634    1.219846  1.00000000
:BAN00251: 251    1.211887    1.221196  1.00000000
:BAN00252: 252    1.211887    1.221196  1.00000000
:BAN00253: 253    1.214263    1.223467  0.93295663
:BAN00254: 254    1.214263    1.223467  0.93295663
:BAN00255: 255    1.217434    1.223980  0.70472494
:BAN00256: 256    1.217434    1.223980  0.70472494
:BAN00257: 257    1.218986    1.226323  0.35755552
:BAN00258: 258    1.218986    1.226323  0.35755552
:BAN00259: 259    1.221566    1.227369  0.00476291
:BAN00260: 260    1.221566    1.227369  0.00476291
:BAN00261: 261    1.224196    1.230203  0.00000000
:BAN00262: 262    1.224196    1.230203  0.00000000
:BAN00263: 263    1.227896    1.232425  0.00000000
:BAN00264: 264    1.227896    1.232425  0.00000000
:BAN00265: 265    1.229221    1.235370  0.00000000
        Energy to separate low and high energystates:    0.81416


:NLDA  : NUMBER OF ELECTRONS          = 256.000

:FLDA  : F E R M I - ENERGY           =   1.72191




:POS001: AT.NR.  -1 POSITION = 0.33900 0.25000 0.15650  MULTIPLICITY =  2

       LMMAX 28
       LM=   0 0  1 1 -1 1  2 0  2 2 -2 2  3 1 -3 1  3 3 -3 3  4 0  4 2 -4 2  4 4 -4 4  5 1 -5 1
         5 3 -5 3  5 5 -5 5  6 0  6 2 -6 2  6 4 -6 4  6 6 -6 6




:POS002: AT.NR.  -2 POSITION = 0.33900 0.25000 0.15650  MULTIPLICITY =  2

       LMMAX 28
       LM=   0 0  1 1 -1 1  2 0  2 2 -2 2  3 1 -3 1  3 3 -3 3  4 0  4 2 -4 2  4 4 -4 4  5 1 -5 1
         5 3 -5 3  5 5 -5 5  6 0  6 2 -6 2  6 4 -6 4  6 6 -6 6




:POS003: AT.NR.  -3 POSITION = 0.33900 0.25000 0.15650  MULTIPLICITY =  2

       LMMAX 28
       LM=   0 0  1 1 -1 1  2 0  2 2 -2 2  3 1 -3 1  3 3 -3 3  4 0  4 2 -4 2  4 4 -4 4  5 1 -5 1
         5 3 -5 3  5 5 -5 5  6 0  6 2 -6 2  6 4 -6 4  6 6 -6 6




:POS004: AT.NR.  -4 POSITION = 0.33900 0.25000 0.15650  MULTIPLICITY =  2

       LMMAX 28
       LM=   0 0  1 1 -1 1  2 0  2 2 -2 2  3 1 -3 1  3 3 -3 3  4 0  4 2 -4 2  4 4 -4 4  5 1 -5 1
         5 3 -5 3  5 5 -5 5  6 0  6 2 -6 2  6 4 -6 4  6 6 -6 6




:POS005: AT.NR.  -5 POSITION = 0.33900 0.25000 0.15650  MULTIPLICITY =  2

       LMMAX 28
       LM=   0 0  1 1 -1 1  2 0  2 2 -2 2  3 1 -3 1  3 3 -3 3  4 0  4 2 -4 2  4 4 -4 4  5 1 -5 1
         5 3 -5 3  5 5 -5 5  6 0  6 2 -6 2  6 4 -6 4  6 6 -6 6




:POS006: AT.NR.  -6 POSITION = 0.33900 0.25000 0.15650  MULTIPLICITY =  2

       LMMAX 28
       LM=   0 0  1 1 -1 1  2 0  2 2 -2 2  3 1 -3 1  3 3 -3 3  4 0  4 2 -4 2  4 4 -4 4  5 1 -5 1
         5 3 -5 3  5 5 -5 5  6 0  6 2 -6 2  6 4 -6 4  6 6 -6 6




:POS007: AT.NR.  -7 POSITION = 0.33900 0.25000 0.15650  MULTIPLICITY =  2

       LMMAX 28
       LM=   0 0  1 1 -1 1  2 0  2 2 -2 2  3 1 -3 1  3 3 -3 3  4 0  4 2 -4 2  4 4 -4 4  5 1 -5 1
         5 3 -5 3  5 5 -5 5  6 0  6 2 -6 2  6 4 -6 4  6 6 -6 6




:POS008: AT.NR.  -8 POSITION = 0.33900 0.25000 0.15650  MULTIPLICITY =  2

       LMMAX 28
       LM=   0 0  1 1 -1 1  2 0  2 2 -2 2  3 1 -3 1  3 3 -3 3  4 0  4 2 -4 2  4 4 -4 4  5 1 -5 1
         5 3 -5 3  5 5 -5 5  6 0  6 2 -6 2  6 4 -6 4  6 6 -6 6
:FER DMFT Fermi Energy   1.20522
:EORB    2.02917625
:SUM SUM OF DMFT BAND ENERGIES   57.08169507

:CHA001: TOTAL CHARGE INSIDE SPHERE   1 =    11.709544
:PCS001: PARTIAL CHARGES SPHERE =  1 S,P,D,F,PX,PY,PZ,D-Z2,D-X2Y2,D-XY,D-XZ,D-YZ 
:QTL001: 1.9453 4.5735 0.6195 4.5668 2.7541 2.6988 2.7001 0.1107 0.1270 0.1474 0.1424 0.1140
        Q-s-low E-s-low   Q-p-low E-p-low   Q-d-low E-d-low   Q-f-low E-f-low
:EPL001:  1.8788 -2.1500    4.4849 -0.2304    0.0243 -0.1159    0.0114 -0.1099
        Q-s-hi  E-s-hi    Q-p-hi  E-p-hi    Q-d-hi  E-d-hi    Q-f-hi  E-f-hi 
:EPH001:  0.0666  1.0658    0.0886  1.1000    0.5952  1.1011    4.5554  1.1806

                      QXX         QXY         QYY         QZZ       UP TO R

:VZZ001:             8.91888   -15.86182    -7.76515    -1.15373       2.150

:CHA002: TOTAL CHARGE INSIDE SPHERE   2 =    11.643055
:PCS002: PARTIAL CHARGES SPHERE =  2 S,P,D,F,PX,PY,PZ,D-Z2,D-X2Y2,D-XY,D-XZ,D-YZ 
:QTL002: 1.9495 4.5913 0.5449 4.5541 2.6916 2.7777 2.7536 0.1064 0.1097 0.1067 0.1092 0.1304
        Q-s-low E-s-low   Q-p-low E-p-low   Q-d-low E-d-low   Q-f-low E-f-low
:EPL002:  1.8772 -2.1525    4.4918 -0.2277    0.0168 -0.1026    0.0077 -0.0975
        Q-s-hi  E-s-hi    Q-p-hi  E-p-hi    Q-d-hi  E-d-hi    Q-f-hi  E-f-hi 
:EPH002:  0.0723  1.0611    0.0995  1.1012    0.5280  1.1044    4.5463  1.1840

                      QXX         QXY         QYY         QZZ       UP TO R

:VZZ002:           -25.80003    15.99433    15.17955    10.62049       2.150

:CHA003: TOTAL CHARGE INSIDE SPHERE   3 =    11.651353
:PCS003: PARTIAL CHARGES SPHERE =  3 S,P,D,F,PX,PY,PZ,D-Z2,D-X2Y2,D-XY,D-XZ,D-YZ 
:QTL003: 1.9483 4.5838 0.5612 4.5548 2.7329 2.7348 2.7433 0.1099 0.1211 0.1076 0.1254 0.1153
        Q-s-low E-s-low   Q-p-low E-p-low   Q-d-low E-d-low   Q-f-low E-f-low
:EPL003:  1.8773 -2.1507    4.4887 -0.2268    0.0177 -0.1007    0.0081 -0.0873
        Q-s-hi  E-s-hi    Q-p-hi  E-p-hi    Q-d-hi  E-d-hi    Q-f-hi  E-f-hi 
:EPH003:  0.0710  1.0575    0.0951  1.1048    0.5435  1.1044    4.5466  1.1805

                      QXX         QXY         QYY         QZZ       UP TO R

:VZZ003:            -3.92744   -13.79668     1.87256     2.05488       2.150

:CHA004: TOTAL CHARGE INSIDE SPHERE   4 =    11.636298
:PCS004: PARTIAL CHARGES SPHERE =  4 S,P,D,F,PX,PY,PZ,D-Z2,D-X2Y2,D-XY,D-XZ,D-YZ 
:QTL004: 1.9516 4.5913 0.5443 4.5460 2.7537 2.7442 2.7433 0.1085 0.1079 0.1124 0.1103 0.1215
        Q-s-low E-s-low   Q-p-low E-p-low   Q-d-low E-d-low   Q-f-low E-f-low
:EPL004:  1.8768 -2.1524    4.4868 -0.2280    0.0157 -0.1056    0.0072 -0.0937
        Q-s-hi  E-s-hi    Q-p-hi  E-p-hi    Q-d-hi  E-d-hi    Q-f-hi  E-f-hi 
:EPH004:  0.0748  1.0608    0.1045  1.1020    0.5286  1.1033    4.5388  1.1817

                      QXX         QXY         QYY         QZZ       UP TO R

:VZZ004:            -1.73930    11.77243     2.37371    -0.63441       2.150

:CHA005: TOTAL CHARGE INSIDE SPHERE   5 =    11.633579
:PCS005: PARTIAL CHARGES SPHERE =  5 S,P,D,F,PX,PY,PZ,D-Z2,D-X2Y2,D-XY,D-XZ,D-YZ 
:QTL005: 1.9493 4.5949 0.5451 4.5411 2.7028 2.7835 2.7551 0.1068 0.1075 0.1083 0.1085 0.1310
        Q-s-low E-s-low   Q-p-low E-p-low   Q-d-low E-d-low   Q-f-low E-f-low
:EPL005:  1.8770 -2.1521    4.4908 -0.2265    0.0158 -0.1024    0.0072 -0.0977
        Q-s-hi  E-s-hi    Q-p-hi  E-p-hi    Q-d-hi  E-d-hi    Q-f-hi  E-f-hi 
:EPH005:  0.0724  1.0595    0.1041  1.1021    0.5293  1.1046    4.5339  1.1867

                      QXX         QXY         QYY         QZZ       UP TO R

:VZZ005:           -40.14213     5.98553    28.66883    11.47331       2.150

:CHA006: TOTAL CHARGE INSIDE SPHERE   6 =    11.625132
:PCS006: PARTIAL CHARGES SPHERE =  6 S,P,D,F,PX,PY,PZ,D-Z2,D-X2Y2,D-XY,D-XZ,D-YZ 
:QTL006: 1.9495 4.5901 0.5288 4.5539 2.7332 2.7545 2.7494 0.0997 0.1036 0.1144 0.1107 0.1165
        Q-s-low E-s-low   Q-p-low E-p-low   Q-d-low E-d-low   Q-f-low E-f-low
:EPL006:  1.8765 -2.1534    4.4929 -0.2268    0.0144 -0.0962    0.0065 -0.0863
        Q-s-hi  E-s-hi    Q-p-hi  E-p-hi    Q-d-hi  E-d-hi    Q-f-hi  E-f-hi 
:EPH006:  0.0730  1.0514    0.0972  1.1008    0.5144  1.1041    4.5474  1.1871

                      QXX         QXY         QYY         QZZ       UP TO R

:VZZ006:            -6.49804   -10.13404     0.00117     6.49687       2.150

:CHA007: TOTAL CHARGE INSIDE SPHERE   7 =    11.657466
:PCS007: PARTIAL CHARGES SPHERE =  7 S,P,D,F,PX,PY,PZ,D-Z2,D-X2Y2,D-XY,D-XZ,D-YZ 
:QTL007: 1.9461 4.5896 0.5615 4.5566 2.7456 2.7206 2.7532 0.1121 0.0953 0.1264 0.1341 0.1126
        Q-s-low E-s-low   Q-p-low E-p-low   Q-d-low E-d-low   Q-f-low E-f-low
:EPL007:  1.8778 -2.1504    4.4920 -0.2264    0.0190 -0.1167    0.0090 -0.1074
        Q-s-hi  E-s-hi    Q-p-hi  E-p-hi    Q-d-hi  E-d-hi    Q-f-hi  E-f-hi 
:EPH007:  0.0683  1.0565    0.0976  1.0999    0.5425  1.1039    4.5476  1.1784

                      QXX         QXY         QYY         QZZ       UP TO R

:VZZ007:             6.72237     8.38679   -14.47448     7.75211       2.150

:CHA008: TOTAL CHARGE INSIDE SPHERE   8 =    11.572823
:PCS008: PARTIAL CHARGES SPHERE =  8 S,P,D,F,PX,PY,PZ,D-Z2,D-X2Y2,D-XY,D-XZ,D-YZ 
:QTL008: 1.9502 4.6135 0.4461 4.5611 2.7309 2.7868 2.7788 0.0942 0.0777 0.0889 0.0938 0.1033
        Q-s-low E-s-low   Q-p-low E-p-low   Q-d-low E-d-low   Q-f-low E-f-low
:EPL008:  1.8751 -2.1539    4.5018 -0.2232    0.0083 -0.0868    0.0037 -0.0863
        Q-s-hi  E-s-hi    Q-p-hi  E-p-hi    Q-d-hi  E-d-hi    Q-f-hi  E-f-hi 
:EPH008:  0.0751  1.0533    0.1118  1.0985    0.4378  1.1056    4.5574  1.1890

                      QXX         QXY         QYY         QZZ       UP TO R

:VZZ008:           -40.49306     3.97589    27.02144    13.47162       2.150

:CHA  : TOTAL CHARGE INSIDE UNIT CELL =     256.000000

:ESUM  : SUM OF EIGENVALUES =          59.232169472


------- alpha_Pu_7.scfc --------

        1.ATOM      Pu  0+               21 CORE STATES
       CORE-FORCE in mRy/a.u. = |F|      Fx             Fy             Fz
:FCO001:   1.ATOM       3065.932      -2834.340      -1168.955          0.000

:1S 001: 1S               -8966.530675904 Ry
:2S 001: 2S               -1687.203157763 Ry
:2PP001: 2P*              -1627.896800139 Ry
:2P 001: 2P               -1314.745345635 Ry
:3S 001: 3S                -427.744177336 Ry
:3PP001: 3P*               -400.819829189 Ry
:3P 001: 3P                -328.258437556 Ry
:3DD001: 3D*               -286.018476832 Ry
:3D 001: 3D                -271.476219201 Ry
:4S 001: 4S                -109.225307926 Ry
:4PP001: 4P*                -97.037476519 Ry
:4P 001: 4P                 -77.892141772 Ry
:4DD001: 4D*                -58.604736519 Ry
:4D 001: 4D                 -55.110163672 Ry
:5S 001: 5S                 -23.380764573 Ry
:5PP001: 5P*                -18.562903165 Ry
:5P 001: 5P                 -13.874064730 Ry
:4FF001: 4F*                -29.710069581 Ry
:4F 001: 4F                 -28.782005480 Ry
:5DD001: 5D*                 -6.838822034 Ry
:5D 001: 5D                  -6.139834716 Ry

        2.ATOM      Pu  0+               21 CORE STATES
       CORE-FORCE in mRy/a.u. = |F|      Fx             Fy             Fz
:FCO002:   2.ATOM       1191.916        100.726      -1187.652          0.000

:1S 002: 1S               -8966.526949510 Ry
:2S 002: 2S               -1687.199847873 Ry
:2PP002: 2P*              -1627.893510774 Ry
:2P 002: 2P               -1314.742041224 Ry
:3S 002: 3S                -427.739880135 Ry
:3PP002: 3P*               -400.815581894 Ry
:3P 002: 3P                -328.254131585 Ry
:3DD002: 3D*               -286.014338042 Ry
:3D 002: 3D                -271.472039236 Ry
:4S 002: 4S                -109.221372999 Ry
:4PP002: 4P*                -97.033542185 Ry
:4P 002: 4P                 -77.888306476 Ry
:4DD002: 4D*                -58.600908132 Ry
:4D 002: 4D                 -55.106360492 Ry
:5S 002: 5S                 -23.377716324 Ry
:5PP002: 5P*                -18.559975635 Ry
:5P 002: 5P                 -13.871546954 Ry
:4FF002: 4F*                -29.706118984 Ry
:4F 002: 4F                 -28.778070269 Ry
:5DD002: 5D*                 -6.836832172 Ry
:5D 002: 5D                  -6.138012956 Ry

        3.ATOM      Pu  0+               21 CORE STATES
       CORE-FORCE in mRy/a.u. = |F|      Fx             Fy             Fz
:FCO003:   3.ATOM       5291.537      -3895.522      -3581.239          0.000

:1S 003: 1S               -8966.526749518 Ry
:2S 003: 2S               -1687.199424136 Ry
:2PP003: 2P*              -1627.893111363 Ry
:2P 003: 2P               -1314.741616996 Ry
:3S 003: 3S                -427.739562441 Ry
:3PP003: 3P*               -400.815260977 Ry
:3P 003: 3P                -328.253813424 Ry
:3DD003: 3D*               -286.013991290 Ry
:3D 003: 3D                -271.471697337 Ry
:4S 003: 4S                -109.220970621 Ry
:4PP003: 4P*                -97.033140342 Ry
:4P 003: 4P                 -77.887882017 Ry
:4DD003: 4D*                -58.600480948 Ry
:4D 003: 4D                 -55.105927072 Ry
:5S 003: 5S                 -23.377091717 Ry
:5PP003: 5P*                -18.559325407 Ry
:5P 003: 5P                 -13.870808184 Ry
:4FF003: 4F*                -29.705708638 Ry
:4F 003: 4F                 -28.777656512 Ry
:5DD003: 5D*                 -6.835971210 Ry
:5D 003: 5D                  -6.137111964 Ry

        4.ATOM      Pu  0+               21 CORE STATES
       CORE-FORCE in mRy/a.u. = |F|      Fx             Fy             Fz
:FCO004:   4.ATOM       2898.290       2851.381        519.335          0.000

:1S 004: 1S               -8966.526654984 Ry
:2S 004: 2S               -1687.199773274 Ry
:2PP004: 2P*              -1627.893395485 Ry
:2P 004: 2P               -1314.741968740 Ry
:3S 004: 3S                -427.739966525 Ry
:3PP004: 3P*               -400.815657963 Ry
:3P 004: 3P                -328.254220903 Ry
:3DD004: 3D*               -286.014417669 Ry
:3D 004: 3D                -271.472124550 Ry
:4S 004: 4S                -109.221441936 Ry
:4PP004: 4P*                -97.033610652 Ry
:4P 004: 4P                 -77.888371323 Ry
:4DD004: 4D*                -58.600975793 Ry
:4D 004: 4D                 -55.106427833 Ry
:5S 004: 5S                 -23.377783842 Ry
:5PP004: 5P*                -18.560034080 Ry
:5P 004: 5P                 -13.871573544 Ry
:4FF004: 4F*                -29.706203062 Ry
:4F 004: 4F                 -28.778153679 Ry
:5DD004: 5D*                 -6.836803613 Ry
:5D 004: 5D                  -6.137964820 Ry

        5.ATOM      Pu  0+               21 CORE STATES
       CORE-FORCE in mRy/a.u. = |F|      Fx             Fy             Fz
:FCO005:   5.ATOM       1852.100       -898.776      -1619.407          0.000

:1S 005: 1S               -8966.527028802 Ry
:2S 005: 2S               -1687.200210394 Ry
:2PP005: 2P*              -1627.893804911 Ry
:2P 005: 2P               -1314.742401183 Ry
:3S 005: 3S                -427.740544089 Ry
:3PP005: 3P*               -400.816225770 Ry
:3P 005: 3P                -328.254800682 Ry
:3DD005: 3D*               -286.014981422 Ry
:3D 005: 3D                -271.472694055 Ry
:4S 005: 4S                -109.222013135 Ry
:4PP005: 4P*                -97.034180979 Ry
:4P 005: 4P                 -77.888937659 Ry
:4DD005: 4D*                -58.601542534 Ry
:4D 005: 4D                 -55.106993933 Ry
:5S 005: 5S                 -23.378320229 Ry
:5PP005: 5P*                -18.560556882 Ry
:5P 005: 5P                 -13.872048886 Ry
:4FF005: 4F*                -29.706783510 Ry
:4F 005: 4F                 -28.778733442 Ry
:5DD005: 5D*                 -6.837198686 Ry
:5D 005: 5D                  -6.138332477 Ry

        6.ATOM      Pu  0+               21 CORE STATES
       CORE-FORCE in mRy/a.u. = |F|      Fx             Fy             Fz
:FCO006:   6.ATOM       5096.798      -4207.127      -2877.052          0.000

:1S 006: 1S               -8966.526525460 Ry
:2S 006: 2S               -1687.199242812 Ry
:2PP006: 2P*              -1627.892967665 Ry
:2P 006: 2P               -1314.741438073 Ry
:3S 006: 3S                -427.738840087 Ry
:3PP006: 3P*               -400.814567789 Ry
:3P 006: 3P                -328.253085271 Ry
:3DD006: 3D*               -286.013343264 Ry
:3D 006: 3D                -271.471027337 Ry
:4S 006: 4S                -109.220412598 Ry
:4PP006: 4P*                -97.032583050 Ry
:4P 006: 4P                 -77.887369230 Ry
:4DD006: 4D*                -58.599969502 Ry
:4D 006: 4D                 -55.105426503 Ry
:5S 006: 5S                 -23.376908978 Ry
:5PP006: 5P*                -18.559199446 Ry
:5P 006: 5P                 -13.870874976 Ry
:4FF006: 4F*                -29.705132964 Ry
:4F 006: 4F                 -28.777087827 Ry
:5DD006: 5D*                 -6.836291292 Ry
:5D 006: 5D                  -6.137513130 Ry

        7.ATOM      Pu  0+               21 CORE STATES
       CORE-FORCE in mRy/a.u. = |F|      Fx             Fy             Fz
:FCO007:   7.ATOM       4869.984       3299.396      -3582.001          0.000

:1S 007: 1S               -8966.526470722 Ry
:2S 007: 2S               -1687.199222921 Ry
:2PP007: 2P*              -1627.892884087 Ry
:2P 007: 2P               -1314.741410731 Ry
:3S 007: 3S                -427.739440532 Ry
:3PP007: 3P*               -400.815132497 Ry
:3P 007: 3P                -328.253692765 Ry
:3DD007: 3D*               -286.013864862 Ry
:3D 007: 3D                -271.471574096 Ry
:4S 007: 4S                -109.220862183 Ry
:4PP007: 4P*                -97.033031031 Ry
:4P 007: 4P                 -77.887774865 Ry
:4DD007: 4D*                -58.600374401 Ry
:4D 007: 4D                 -55.105821443 Ry
:5S 007: 5S                 -23.377013806 Ry
:5PP007: 5P*                -18.559248096 Ry
:5P 007: 5P                 -13.870734795 Ry
:4FF007: 4F*                -29.705608405 Ry
:4F 007: 4F                 -28.777556537 Ry
:5DD007: 5D*                 -6.835911226 Ry
:5D 007: 5D                  -6.137057611 Ry

        8.ATOM      Pu  0+               21 CORE STATES
       CORE-FORCE in mRy/a.u. = |F|      Fx             Fy             Fz
:FCO008:   8.ATOM        863.285       -810.338       -297.679          0.000

:1S 008: 1S               -8966.517422873 Ry
:2S 008: 2S               -1687.190190109 Ry
:2PP008: 2P*              -1627.884024406 Ry
:2P 008: 2P               -1314.732386894 Ry
:3S 008: 3S                -427.728241616 Ry
:3PP008: 3P*               -400.804050948 Ry
:3P 008: 3P                -328.242472187 Ry
:3DD008: 3D*               -286.002952568 Ry
:3D 008: 3D                -271.460574915 Ry
:4S 008: 4S                -109.210353374 Ry
:4PP008: 4P*                -97.022524910 Ry
:4P 008: 4P                 -77.877455661 Ry
:4DD008: 4D*                -58.590057107 Ry
:4D 008: 4D                 -55.095550326 Ry
:5S 008: 5S                 -23.368128262 Ry
:5PP008: 5P*                -18.550614178 Ry
:5P 008: 5P                 -13.862960462 Ry
:4FF008: 4F*                -29.695033827 Ry
:4F 008: 4F                 -28.767011313 Ry
:5DD008: 5D*                 -6.829305970 Ry
:5D 008: 5D                  -6.130834010 Ry

------- alpha_Pu_7.scfm --------

       DENSITY AT NUCLEUS
        JATOM    VALENCE       SEMI-CORE            CORE           TOTAL
:RTO001:   1    23419.141956        0.000000 45141824.206028 45165243.347984
:RTO002:   2    23498.131473        0.000000 45141817.030878 45165315.162351
:RTO003:   3    23479.524606        0.000000 45141819.477567 45165299.002173
:RTO004:   4    23541.384370        0.000000 45141815.968773 45165357.353143
:RTO005:   5    23501.195807        0.000000 45141816.134644 45165317.330452
:RTO006:   6    23500.589886        0.000000 45141817.087028 45165317.676913
:RTO007:   7    23436.120031        0.000000 45141819.030500 45165255.150531
:RTO008:   8    23502.610625        0.000000 45141808.806100 45165311.416725
     
       CHARGES OF NEW CHARGE DENSITY
:NTO  : TOTAL   INTERSTITIAL CHARGE=   69.7414480
:NTO001: TOTAL   CHARGE IN SPHERE  1 =       89.7002874
:NTO002: TOTAL   CHARGE IN SPHERE  2 =       89.6338025
:NTO003: TOTAL   CHARGE IN SPHERE  3 =       89.6421035
:NTO004: TOTAL   CHARGE IN SPHERE  4 =       89.6270506
:NTO005: TOTAL   CHARGE IN SPHERE  5 =       89.6243379
:NTO006: TOTAL   CHARGE IN SPHERE  6 =       89.6158832
:NTO007: TOTAL   CHARGE IN SPHERE  7 =       89.6482127
:NTO008: TOTAL   CHARGE IN SPHERE  8 =       89.5635490

:NEC01: NUCLEAR AND ELECTRONIC CHARGE   1504.00000  1503.85190     1.00010
     
       CHARGES OF OLD CHARGE DENSITY
:OTO  : TOTAL   INTERSTITIAL CHARGE=   70.2381508
:OTO001: TOTAL   CHARGE IN SPHERE  1 =       89.6740657
:OTO002: TOTAL   CHARGE IN SPHERE  2 =       89.6118866
:OTO003: TOTAL   CHARGE IN SPHERE  3 =       89.6199758
:OTO004: TOTAL   CHARGE IN SPHERE  4 =       89.6070943
:OTO005: TOTAL   CHARGE IN SPHERE  5 =       89.6043789
:OTO006: TOTAL   CHARGE IN SPHERE  6 =       89.5934471
:OTO007: TOTAL   CHARGE IN SPHERE  7 =       89.6254678
:OTO008: TOTAL   CHARGE IN SPHERE  8 =       89.5446084

:NEC02: NUCLEAR AND ELECTRONIC CHARGE   1504.00000  1504.00000     1.00000
     
       CONVERGENCE TEST
:DTO001: TOTAL   DIFFERENCE CHARGE**2 IN SPHERE  1 =  0.0269992
:DTO002: TOTAL   DIFFERENCE CHARGE**2 IN SPHERE  2 =  0.0231970
:DTO003: TOTAL   DIFFERENCE CHARGE**2 IN SPHERE  3 =  0.0234667
:DTO004: TOTAL   DIFFERENCE CHARGE**2 IN SPHERE  4 =  0.0213977
:DTO005: TOTAL   DIFFERENCE CHARGE**2 IN SPHERE  5 =  0.0220133
:DTO006: TOTAL   DIFFERENCE CHARGE**2 IN SPHERE  6 =  0.0235034
:DTO007: TOTAL   DIFFERENCE CHARGE**2 IN SPHERE  7 =  0.0237089
:DTO008: TOTAL   DIFFERENCE CHARGE**2 IN SPHERE  8 =  0.0196818

:DIS  :  CHARGE DISTANCE       ( 0.0269992 for atom    1 spin 1)      0.0229960
:BIG check (qbig,qrms,qtot)    0.900D-02   0.163D-01   0.230D-01
 
******************************************************
* MULTISECANT MIXING VER4 OPTIONS                    *
* Unpredicted Step Limit   0.100000                  *
* Plane Wave Dynamic Rescaling                       *
* Dynamic Regularization active                      *
* Upper Cutoff Lambda  1.0E-01 Lower 3.5E-04         *
* SQRT Multiplicity/Degeneracy                       *
* Max Number of Memory Steps    8                    *
******************************************************
 
:PLANE:  INTERSTITIAL TOTAL      7.47681 DISTAN  1.312E-01 % 
:CHARG:  CLM CHARGE   /ATOM    356.61280 DISTAN  7.719E-03 % 
:MIX  :  PRATT  REGULARIZATION: 3.50E-04  GREED: 0.035
     
       CHARGES OF MIXED CHARGE DENSITY
:CTO  : TOTAL   INTERSTITIAL CHARGE=   70.2259497
:CTO001: TOTAL   CHARGE IN SPHERE  1 =       89.6749835
:CTO002: TOTAL   CHARGE IN SPHERE  2 =       89.6126537
:CTO003: TOTAL   CHARGE IN SPHERE  3 =       89.6207502
:CTO004: TOTAL   CHARGE IN SPHERE  4 =       89.6077928
:CTO005: TOTAL   CHARGE IN SPHERE  5 =       89.6050775
:CTO006: TOTAL   CHARGE IN SPHERE  6 =       89.5942324
:CTO007: TOTAL   CHARGE IN SPHERE  7 =       89.6262638
:CTO008: TOTAL   CHARGE IN SPHERE  8 =       89.5452713

:NEC03: NUCLEAR AND ELECTRONIC CHARGE   1504.00000  1504.00000     1.00000


:ENE  : ********** TOTAL ENERGY IN Ry =      -949675.82765476

       TOTAL FORCE IN mRy/a.u. = |F|     Fx             Fy             Fz     with/without FOR in case.in2
:FOR001:   1.ATOM         92.695         92.619          3.761          0.000 partial forces
:FOR002:   2.ATOM         77.621        -55.143         54.629          0.000 partial forces
:FOR003:   3.ATOM        110.001         80.357         75.120          0.000 partial forces
:FOR004:   4.ATOM         71.382        -57.674        -42.061          0.000 partial forces
:FOR005:   5.ATOM         37.152         35.027         12.384          0.000 partial forces
:FOR006:   6.ATOM         99.052         76.132         63.366          0.000 partial forces
:FOR007:   7.ATOM        130.158       -129.592         12.126          0.000 partial forces
:FOR008:   8.ATOM         56.062         35.497         43.392          0.000 partial forces

       TOTAL FORCE WITH RESPECT TO GLOBAL CARTESIAN COORDINATES:
:FCA001:   1.ATOM                         3.761          0.000         92.619 partial forces
:FCA002:   2.ATOM                        54.629          0.000        -55.143 partial forces
:FCA003:   3.ATOM                        75.120          0.000         80.357 partial forces
:FCA004:   4.ATOM                       -42.061          0.000        -57.674 partial forces
:FCA005:   5.ATOM                        12.384          0.000         35.027 partial forces
:FCA006:   6.ATOM                        63.366          0.000         76.132 partial forces
:FCA007:   7.ATOM                        12.126          0.000       -129.592 partial forces
:FCA008:   8.ATOM                        43.392          0.000         35.497 partial forces

       TOTAL FORCE WITH RESPECT TO THE GLOBAL COORDINATE SYSTEM:
:FGL001:   1.ATOM                 3.842013612     0.000000000    93.403823291 partial forces
:FGL002:   2.ATOM                55.805732953     0.000000000   -43.743342574 partial forces
:FGL003:   3.ATOM                76.738118205     0.000000000    96.032598415 partial forces
:FGL004:   4.ATOM               -42.967012644     0.000000000   -66.451041333 partial forces
:FGL005:   5.ATOM                12.650756867     0.000000000    37.611220058 partial forces
:FGL006:   6.ATOM                64.730931818     0.000000000    89.354843040 partial forces
:FGL007:   7.ATOM                12.387199432     0.000000000  -127.061617860 partial forces
:FGL008:   8.ATOM                44.326682976     0.000000000    44.551786560 partial forces

------- alpha_Pu_7.scf0 --------


            ---------
:ITE079: 79. ITERATION
            ---------

:NATO :    8 INDEPENDENT AND   16 TOTAL ATOMS IN UNITCELL
       SUBSTANCE: alpha_Pu                                                    

       LATTICE                      = P   
:POT  : POTENTIAL OPTION    5
:LAT  : LATTICE CONSTANTS= 12.23907  9.54833 21.70820    1.571    1.777    1.571
:VOL  : UNIT CELL VOLUME =    2483.38658
       MODE OF CALCULATION IS       = RELA
       NON-SPINPOLARIZED CALCULATION
:IFFT  : FFT-parameters:   96   80  180 Factor: 2.00
       ATOMNUMBER=  1 Pu  0+     VCOUL-ZERO =  0.37956E+00
:EFG001:                        EFG         =    18.41289   *10**21  V / m**2
                               V20  TOT/SRF=    -1.02708    -0.05018
                               V22  TOT/SRF=     8.35384     0.05911
                               V22M TOT/SRF=   -15.74047    -0.03915
                               V21  TOT/SRF=     0.00000     0.00000
                               V21M TOT/SRF=     0.00000     0.00000

              8.94682  -15.74047    0.00000       18.41289    0.00000    0.00000
            -15.74047   -7.76085    0.00000        0.00000  -17.22692    0.00000
              0.00000    0.00000   -1.18597        0.00000    0.00000   -1.18597

         MAIN DIRECTIONS OF THE EFG   1.0000  0.6014  0.0000
                                     -0.6014  1.0000  0.0000
                                      0.0000  0.0000  1.0000
:ANG001:  ANGLE WITH OLD X-AXIS =        31.0

:ETA001:                         ASYMM. ETA =     0.87118


       ATOMNUMBER=  2 Pu  0+     VCOUL-ZERO =  0.37951E+00
:EFG002:                        EFG         =   -31.30449   *10**21  V / m**2
                               V20  TOT/SRF=     9.27217     0.01123
                               V22  TOT/SRF=   -20.35660    -0.04545
                               V22M TOT/SRF=    16.09577     0.03475
                               V21  TOT/SRF=     0.00000     0.00000
                               V21M TOT/SRF=     0.00000     0.00000

            -25.70989   16.09577    0.00000      -31.30449    0.00000    0.00000
             16.09577   15.00331    0.00000        0.00000   20.59792    0.00000
              0.00000    0.00000   10.70657        0.00000    0.00000   10.70657

         MAIN DIRECTIONS OF THE EFG   1.0000  0.3476  0.0000
                                     -0.3476  1.0000  0.0000
                                      0.0000  0.0000  1.0000
:ANG002:  ANGLE WITH OLD X-AXIS =        19.2

:ETA002:                         ASYMM. ETA =     0.31597


       ATOMNUMBER=  3 Pu  0+     VCOUL-ZERO =  0.38182E+00
:EFG003:                        EFG         =   -15.05308   *10**21  V / m**2
                               V20  TOT/SRF=     1.87447    -0.00017
                               V22  TOT/SRF=    -2.86763    -0.00280
                               V22M TOT/SRF=   -13.67338    -0.00282
                               V21  TOT/SRF=     0.00000     0.00000
                               V21M TOT/SRF=     0.00000     0.00000

             -3.94985  -13.67338    0.00000      -15.05308    0.00000    0.00000
            -13.67338    1.78540    0.00000        0.00000   12.88862    0.00000
              0.00000    0.00000    2.16445        0.00000    0.00000    2.16445

         MAIN DIRECTIONS OF THE EFG   1.0000 -0.8120  0.0000
                                      0.8120  1.0000  0.0000
                                      0.0000  0.0000  1.0000
:ANG003:  ANGLE WITH OLD X-AXIS =        39.1

:ETA003:                         ASYMM. ETA =     0.71242


       ATOMNUMBER=  4 Pu  0+     VCOUL-ZERO =  0.38098E+00
:EFG004:                        EFG         =    12.34684   *10**21  V / m**2
                               V20  TOT/SRF=    -0.45741    -0.01210
                               V22  TOT/SRF=    -2.02987     0.01035
                               V22M TOT/SRF=    11.91103     0.01436
                               V21  TOT/SRF=     0.00000     0.00000
                               V21M TOT/SRF=     0.00000     0.00000

             -1.76578   11.91103    0.00000      -11.81867    0.00000    0.00000
             11.91103    2.29395    0.00000        0.00000   12.34684    0.00000
              0.00000    0.00000   -0.52817        0.00000    0.00000   -0.52817

         MAIN DIRECTIONS OF THE EFG   1.0000  0.8440  0.0000
                                     -0.8440  1.0000  0.0000
                                      0.0000  0.0000  1.0000
:ANG004:  ANGLE WITH OLD X-AXIS =        40.2

:ETA004:                         ASYMM. ETA =     0.91444


       ATOMNUMBER=  5 Pu  0+     VCOUL-ZERO =  0.38217E+00
:EFG005:                        EFG         =   -40.94231   *10**21  V / m**2
                               V20  TOT/SRF=     9.99831     0.00821
                               V22  TOT/SRF=   -34.64562    -0.06378
                               V22M TOT/SRF=     6.04938     0.02691
                               V21  TOT/SRF=     0.00000     0.00000
                               V21M TOT/SRF=     0.00000     0.00000

            -40.41815    6.04938    0.00000      -40.94231    0.00000    0.00000
              6.04938   28.87309    0.00000        0.00000   29.39726    0.00000
              0.00000    0.00000   11.54505        0.00000    0.00000   11.54505

         MAIN DIRECTIONS OF THE EFG   1.0000  0.0866  0.0000
                                     -0.0866  1.0000  0.0000
                                      0.0000  0.0000  1.0000
:ANG005:  ANGLE WITH OLD X-AXIS =         5.0

:ETA005:                         ASYMM. ETA =     0.43603


       ATOMNUMBER=  6 Pu  0+     VCOUL-ZERO =  0.38030E+00
:EFG006:                        EFG         =   -13.78471   *10**21  V / m**2
                               V20  TOT/SRF=     5.52548     0.00095
                               V22  TOT/SRF=    -3.04200    -0.00154
                               V22M TOT/SRF=   -10.14846    -0.03719
                               V21  TOT/SRF=     0.00000     0.00000
                               V21M TOT/SRF=     0.00000     0.00000

             -6.23214  -10.14846    0.00000      -13.78471    0.00000    0.00000
            -10.14846   -0.14814    0.00000        0.00000    7.40444    0.00000
              0.00000    0.00000    6.38027        0.00000    0.00000    6.38027

         MAIN DIRECTIONS OF THE EFG   1.0000 -0.7442  0.0000
                                      0.7442  1.0000  0.0000
                                      0.0000  0.0000  1.0000
:ANG006:  ANGLE WITH OLD X-AXIS =        36.7

:ETA006:                         ASYMM. ETA =     0.07430


       ATOMNUMBER=  7 Pu  0+     VCOUL-ZERO =  0.38062E+00
:EFG007:                        EFG         =   -17.38079   *10**21  V / m**2
                               V20  TOT/SRF=     6.81287    -0.00459
                               V22  TOT/SRF=    10.69527     0.04475
                               V22M TOT/SRF=     8.15126     0.00685
                               V21  TOT/SRF=     0.00000     0.00000
                               V21M TOT/SRF=     0.00000     0.00000

              6.76186    8.15126    0.00000        9.51396    0.00000    0.00000
              8.15126  -14.62868    0.00000        0.00000  -17.38079    0.00000
              0.00000    0.00000    7.86682        0.00000    0.00000    7.86682

         MAIN DIRECTIONS OF THE EFG   1.0000 -0.3376  0.0000
                                      0.3376  1.0000  0.0000
                                      0.0000  0.0000  1.0000
:ANG007:  ANGLE WITH OLD X-AXIS =        18.7

:ETA007:                         ASYMM. ETA =     0.09477


[...]

                      QXX         QXY         QYY         QZZ       UP TO R

:VZZ004:            -1.92168    11.72621     2.51116    -0.58948       2.150

:CHA005: TOTAL CHARGE INSIDE SPHERE   5 =    11.625565
:PCS005: PARTIAL CHARGES SPHERE =  5 S,P,D,F,PX,PY,PZ,D-Z2,D-X2Y2,D-XY,D-XZ,D-YZ 
:QTL005: 1.9488 4.5906 0.5427 4.5403 2.6990 2.7797 2.7511 0.1063 0.1069 0.1078 0.1080 0.1306
        Q-s-low E-s-low   Q-p-low E-p-low   Q-d-low E-d-low   Q-f-low E-f-low
:EPL005:  1.8766 -2.1469    4.4862 -0.2236    0.0159 -0.0996    0.0073 -0.0953
        Q-s-hi  E-s-hi    Q-p-hi  E-p-hi    Q-d-hi  E-d-hi    Q-f-hi  E-f-hi 
:EPH005:  0.0722  1.0605    0.1044  1.1041    0.5268  1.1065    4.5330  1.1914

                      QXX         QXY         QYY         QZZ       UP TO R

:VZZ005:           -39.71230     5.86067    28.31725    11.39505       2.150

:CHA006: TOTAL CHARGE INSIDE SPHERE   6 =    11.615331
:PCS006: PARTIAL CHARGES SPHERE =  6 S,P,D,F,PX,PY,PZ,D-Z2,D-X2Y2,D-XY,D-XZ,D-YZ 
:QTL006: 1.9490 4.5852 0.5254 4.5530 2.7290 2.7501 2.7451 0.0989 0.1029 0.1137 0.1100 0.1158
        Q-s-low E-s-low   Q-p-low E-p-low   Q-d-low E-d-low   Q-f-low E-f-low
:EPL006:  1.8761 -2.1476    4.4879 -0.2235    0.0145 -0.0939    0.0065 -0.0840
        Q-s-hi  E-s-hi    Q-p-hi  E-p-hi    Q-d-hi  E-d-hi    Q-f-hi  E-f-hi 
:EPH006:  0.0729  1.0523    0.0973  1.1027    0.5109  1.1060    4.5464  1.1915

                      QXX         QXY         QYY         QZZ       UP TO R

:VZZ006:            -6.57549    -9.94685     0.01351     6.56198       2.150

:CHA007: TOTAL CHARGE INSIDE SPHERE   7 =    11.647095
:PCS007: PARTIAL CHARGES SPHERE =  7 S,P,D,F,PX,PY,PZ,D-Z2,D-X2Y2,D-XY,D-XZ,D-YZ 
:QTL007: 1.9455 4.5850 0.5583 4.5546 2.7410 2.7168 2.7492 0.1113 0.0946 0.1258 0.1335 0.1120
        Q-s-low E-s-low   Q-p-low E-p-low   Q-d-low E-d-low   Q-f-low E-f-low
:EPL007:  1.8774 -2.1446    4.4871 -0.2229    0.0191 -0.1134    0.0090 -0.1044
        Q-s-hi  E-s-hi    Q-p-hi  E-p-hi    Q-d-hi  E-d-hi    Q-f-hi  E-f-hi 
:EPH007:  0.0681  1.0574    0.0979  1.1018    0.5391  1.1059    4.5456  1.1832

                      QXX         QXY         QYY         QZZ       UP TO R

:VZZ007:             6.33066     8.29168   -13.98986     7.65921       2.150

:CHA008: TOTAL CHARGE INSIDE SPHERE   8 =    11.565381
:PCS008: PARTIAL CHARGES SPHERE =  8 S,P,D,F,PX,PY,PZ,D-Z2,D-X2Y2,D-XY,D-XZ,D-YZ 
:QTL008: 1.9497 4.6093 0.4437 4.5608 2.7271 2.7831 2.7751 0.0936 0.0773 0.0884 0.0934 0.1028
        Q-s-low E-s-low   Q-p-low E-p-low   Q-d-low E-d-low   Q-f-low E-f-low
:EPL008:  1.8747 -2.1489    4.4973 -0.2203    0.0084 -0.0832    0.0037 -0.0830
        Q-s-hi  E-s-hi    Q-p-hi  E-p-hi    Q-d-hi  E-d-hi    Q-f-hi  E-f-hi 
:EPH008:  0.0750  1.0542    0.1121  1.1004    0.4353  1.1075    4.5571  1.1926

                      QXX         QXY         QYY         QZZ       UP TO R

:VZZ008:           -40.15346     4.02687    26.75505    13.39840       2.150

:CHA  : TOTAL CHARGE INSIDE UNIT CELL =     256.000000

:ESUM  : SUM OF EIGENVALUES =          60.222530859


------- alpha_Pu_7.scfc --------

        1.ATOM      Pu  0+               21 CORE STATES
       CORE-FORCE in mRy/a.u. = |F|      Fx             Fy             Fz
:FCO001:   1.ATOM       3005.157      -2784.547      -1130.162          0.000

:1S 001: 1S               -8966.518736742 Ry
:2S 001: 2S               -1687.190424862 Ry
:2PP001: 2P*              -1627.884265394 Ry
:2P 001: 2P               -1314.732616314 Ry
:3S 001: 3S                -427.730444400 Ry
:3PP001: 3P*               -400.806157441 Ry
:3P 001: 3P                -328.244694282 Ry
:3DD001: 3D*               -286.004821310 Ry
:3D 001: 3D                -271.462526976 Ry
:4S 001: 4S                -109.211833781 Ry
:4PP001: 4P*                -97.024004622 Ry
:4P 001: 4P                 -77.878737957 Ry
:4DD001: 4D*                -58.591320611 Ry
:4D 001: 4D                 -55.096763492 Ry
:5S 001: 5S                 -23.367833344 Ry
:5PP001: 5P*                -18.550085141 Ry
:5P 001: 5P                 -13.861638034 Ry
:4FF001: 4F*                -29.696542397 Ry
:4F 001: 4F                 -28.768489173 Ry
:5DD001: 5D*                 -6.826983178 Ry
:5D 001: 5D                  -6.128196770 Ry

        2.ATOM      Pu  0+               21 CORE STATES
       CORE-FORCE in mRy/a.u. = |F|      Fx             Fy             Fz
:FCO002:   2.ATOM       1150.584         79.579      -1147.829          0.000

:1S 002: 1S               -8966.516938630 Ry
:2S 002: 2S               -1687.189149496 Ry
:2PP002: 2P*              -1627.882984120 Ry
:2P 002: 2P               -1314.731346147 Ry
:3S 002: 3S                -427.728318789 Ry
:3PP002: 3P*               -400.804073468 Ry
:3P 002: 3P                -328.242561249 Ry
:3DD002: 3D*               -286.002843318 Ry
:3D 002: 3D                -271.460512825 Ry
:4S 002: 4S                -109.210032830 Ry
:4PP002: 4P*                -97.022204004 Ry
:4P 002: 4P                 -77.877026762 Ry
:4DD002: 4D*                -58.589617996 Ry
:4D 002: 4D                 -55.095083862 Ry
:5S 002: 5S                 -23.366844401 Ry
:5PP002: 5P*                -18.549201545 Ry
:5P 002: 5P                 -13.861111176 Ry
:4FF002: 4F*                -29.694733070 Ry
:4F 002: 4F                 -28.766693702 Ry
:5DD002: 5D*                 -6.826904877 Ry
:5D 002: 5D                  -6.128259442 Ry

        3.ATOM      Pu  0+               21 CORE STATES
       CORE-FORCE in mRy/a.u. = |F|      Fx             Fy             Fz
:FCO003:   3.ATOM       5194.087      -3832.378      -3505.912          0.000

:1S 003: 1S               -8966.516551193 Ry
:2S 003: 2S               -1687.188542117 Ry
:2PP003: 2P*              -1627.882401599 Ry
:2P 003: 2P               -1314.730738759 Ry
:3S 003: 3S                -427.727816281 Ry
:3PP003: 3P*               -400.803567603 Ry
:3P 003: 3P                -328.242059014 Ry
:3DD003: 3D*               -286.002311909 Ry
:3D 003: 3D                -271.459986361 Ry
:4S 003: 4S                -109.209459424 Ry
:4PP003: 4P*                -97.021631009 Ry
:4P 003: 4P                 -77.876434098 Ry
:4DD003: 4D*                -58.589022269 Ry
:4D 003: 4D                 -55.094482724 Ry
:5S 003: 5S                 -23.366072796 Ry
:5PP003: 5P*                -18.548406590 Ry
:5P 003: 5P                 -13.860235347 Ry
:4FF003: 4F*                -29.694153092 Ry
:4F 003: 4F                 -28.766110745 Ry
:5DD003: 5D*                 -6.825915971 Ry
:5D 003: 5D                  -6.127233535 Ry

        4.ATOM      Pu  0+               21 CORE STATES
       CORE-FORCE in mRy/a.u. = |F|      Fx             Fy             Fz
:FCO004:   4.ATOM       2855.657       2811.914        497.914          0.000

:1S 004: 1S               -8966.517554774 Ry
:2S 004: 2S               -1687.190052143 Ry
:2PP004: 2P*              -1627.883829135 Ry
:2P 004: 2P               -1314.732250770 Ry
:3S 004: 3S                -427.729479775 Ry
:3PP004: 3P*               -400.805217648 Ry
:3P 004: 3P                -328.243727835 Ry
:3DD004: 3D*               -286.003988811 Ry
:3D 004: 3D                -271.461668013 Ry
:4S 004: 4S                -109.211183799 Ry
:4PP004: 4P*                -97.023353958 Ry
:4P 004: 4P                 -77.878173539 Ry
:4DD004: 4D*                -58.590767735 Ry
:4D 004: 4D                 -55.096233775 Ry
:5S 004: 5S                 -23.368004278 Ry
:5PP004: 5P*                -18.550347375 Ry
:5P 004: 5P                 -13.862207333 Ry
:4FF004: 4F*                -29.695908065 Ry
:4F 004: 4F                 -28.767868026 Ry
:5DD004: 5D*                 -6.827911427 Ry
:5D 004: 5D                  -6.129234515 Ry

        5.ATOM      Pu  0+               21 CORE STATES
       CORE-FORCE in mRy/a.u. = |F|      Fx             Fy             Fz
:FCO005:   5.ATOM       1819.183       -871.398      -1596.901          0.000

:1S 005: 1S               -8966.517600733 Ry
:2S 005: 2S               -1687.190117355 Ry
:2PP005: 2P*              -1627.883878392 Ry
:2P 005: 2P               -1314.732311643 Ry
:3S 005: 3S                -427.729619243 Ry
:3PP005: 3P*               -400.805351865 Ry
:3P 005: 3P                -328.243867612 Ry
:3DD005: 3D*               -286.004120473 Ry
:3D 005: 3D                -271.461802662 Ry
:4S 005: 4S                -109.211308997 Ry
:4PP005: 4P*                -97.023478706 Ry
:4P 005: 4P                 -77.878293464 Ry
:4DD005: 4D*                -58.590888065 Ry
:4D 005: 4D                 -55.096352987 Ry
:5S 005: 5S                 -23.368084752 Ry
:5PP005: 5P*                -18.550417392 Ry
:5P 005: 5P                 -13.862241028 Ry
:4FF005: 4F*                -29.696036347 Ry
:4F 005: 4F                 -28.767995552 Ry
:5DD005: 5D*                 -6.827886470 Ry
:5D 005: 5D                  -6.129189569 Ry

        6.ATOM      Pu  0+               21 CORE STATES
       CORE-FORCE in mRy/a.u. = |F|      Fx             Fy             Fz
:FCO006:   6.ATOM       4975.315      -4114.540      -2797.199          0.000

:1S 006: 1S               -8966.516264380 Ry
:2S 006: 2S               -1687.188289257 Ry
:2PP006: 2P*              -1627.882189063 Ry
:2P 006: 2P               -1314.730488536 Ry
:3S 006: 3S                -427.727006487 Ry
:3PP006: 3P*               -400.802788300 Ry
:3P 006: 3P                -328.241242455 Ry
:3DD006: 3D*               -286.001578123 Ry
:3D 006: 3D                -271.459229800 Ry
:4S 006: 4S                -109.208801410 Ry
:4PP006: 4P*                -97.020973957 Ry
:4P 006: 4P                 -77.875819221 Ry
:4DD006: 4D*                -58.588409042 Ry
:4D 006: 4D                 -55.093879663 Ry
:5S 006: 5S                 -23.365771155 Ry
:5PP006: 5P*                -18.548161163 Ry
:5P 006: 5P                 -13.860181021 Ry
:4FF006: 4F*                -29.693475006 Ry
:4F 006: 4F                 -28.765439316 Ry
:5DD006: 5D*                 -6.826116076 Ry
:5D 006: 5D                  -6.127515307 Ry

        7.ATOM      Pu  0+               21 CORE STATES
       CORE-FORCE in mRy/a.u. = |F|      Fx             Fy             Fz
:FCO007:   7.ATOM       4785.678       3248.047      -3514.670          0.000

:1S 007: 1S               -8966.516232577 Ry
:2S 007: 2S               -1687.188308760 Ry
:2PP007: 2P*              -1627.882139766 Ry
:2P 007: 2P               -1314.730500231 Ry
:3S 007: 3S                -427.727676184 Ry
:3PP007: 3P*               -400.803420148 Ry
:3P 007: 3P                -328.241920172 Ry
:3DD007: 3D*               -286.002166026 Ry
:3D 007: 3D                -271.459844163 Ry
:4S 007: 4S                -109.209326935 Ry
:4PP007: 4P*                -97.021497655 Ry
:4P 007: 4P                 -77.876301739 Ry
:4DD007: 4D*                -58.588890738 Ry
:4D 007: 4D                 -55.094351862 Ry
:5S 007: 5S                 -23.365966585 Ry
:5PP007: 5P*                -18.548299995 Ry
:5P 007: 5P                 -13.860129217 Ry
:4FF007: 4F*                -29.694029777 Ry
:4F 007: 4F                 -28.765987516 Ry
:5DD007: 5D*                 -6.825817353 Ry
:5D 007: 5D                  -6.127138557 Ry

        8.ATOM      Pu  0+               21 CORE STATES
       CORE-FORCE in mRy/a.u. = |F|      Fx             Fy             Fz
:FCO008:   8.ATOM        859.374       -809.696       -287.952          0.000

:1S 008: 1S               -8966.508587706 Ry
:2S 008: 2S               -1687.180738309 Ry
:2PP008: 2P*              -1627.874726544 Ry
:2P 008: 2P               -1314.722938553 Ry
:3S 008: 3S                -427.718027131 Ry
:3PP008: 3P*               -400.793883673 Ry
:3P 008: 3P                -328.232249287 Ry
:3DD008: 3D*               -285.992796395 Ry
:3D 008: 3D                -271.450390635 Ry
:4S 008: 4S                -109.200322038 Ry
:4PP008: 4P*                -97.012495502 Ry
:4P 008: 4P                 -77.867475343 Ry
:4DD008: 4D*                -58.580067681 Ry
:4D 008: 4D                 -55.085572094 Ry
:5S 008: 5S                 -23.358487157 Ry
:5PP008: 5P*                -18.541057587 Ry
:5P 008: 5P                 -13.853696374 Ry
:4FF008: 4F*                -29.684960607 Ry
:4F 008: 4F                 -28.756945963 Ry
:5DD008: 5D*                 -6.820485090 Ry
:5D 008: 5D                  -6.122164808 Ry

------- alpha_Pu_7.scfm --------

       DENSITY AT NUCLEUS
        JATOM    VALENCE       SEMI-CORE            CORE           TOTAL
:RTO001:   1    23385.421239        0.000000 45141823.646503 45165209.067742
:RTO002:   2    23470.525783        0.000000 45141816.550484 45165287.076268
:RTO003:   3    23453.159590        0.000000 45141818.767290 45165271.926880
:RTO004:   4    23517.209733        0.000000 45141815.070343 45165332.280076
:RTO005:   5    23476.334177        0.000000 45141815.530269 45165291.864447
:RTO006:   6    23475.504842        0.000000 45141816.562580 45165292.067423
:RTO007:   7    23410.254860        0.000000 45141818.320383 45165228.575243
:RTO008:   8    23480.036145        0.000000 45141808.571601 45165288.607747
     
       CHARGES OF NEW CHARGE DENSITY
:NTO  : TOTAL   INTERSTITIAL CHARGE=   69.8923393
:NTO001: TOTAL   CHARGE IN SPHERE  1 =       89.6882126
:NTO002: TOTAL   CHARGE IN SPHERE  2 =       89.6243077
:NTO003: TOTAL   CHARGE IN SPHERE  3 =       89.6322864
:NTO004: TOTAL   CHARGE IN SPHERE  4 =       89.6184732
:NTO005: TOTAL   CHARGE IN SPHERE  5 =       89.6162896
:NTO006: TOTAL   CHARGE IN SPHERE  6 =       89.6060453
:NTO007: TOTAL   CHARGE IN SPHERE  7 =       89.6378051
:NTO008: TOTAL   CHARGE IN SPHERE  8 =       89.5560745

:NEC01: NUCLEAR AND ELECTRONIC CHARGE   1504.00000  1503.85133     1.00010
     
       CHARGES OF OLD CHARGE DENSITY
:OTO  : TOTAL   INTERSTITIAL CHARGE=   70.0428014
:OTO001: TOTAL   CHARGE IN SPHERE  1 =       89.6880587
:OTO002: TOTAL   CHARGE IN SPHERE  2 =       89.6241791
:OTO003: TOTAL   CHARGE IN SPHERE  3 =       89.6321780
:OTO004: TOTAL   CHARGE IN SPHERE  4 =       89.6184034
:OTO005: TOTAL   CHARGE IN SPHERE  5 =       89.6161766
:OTO006: TOTAL   CHARGE IN SPHERE  6 =       89.6059317
:OTO007: TOTAL   CHARGE IN SPHERE  7 =       89.6376914
:OTO008: TOTAL   CHARGE IN SPHERE  8 =       89.5559804

:NEC02: NUCLEAR AND ELECTRONIC CHARGE   1504.00000  1504.00000     1.00000
     
       CONVERGENCE TEST
:DTO001: TOTAL   DIFFERENCE CHARGE**2 IN SPHERE  1 =  0.0001578
:DTO002: TOTAL   DIFFERENCE CHARGE**2 IN SPHERE  2 =  0.0001294
:DTO003: TOTAL   DIFFERENCE CHARGE**2 IN SPHERE  3 =  0.0001125
:DTO004: TOTAL   DIFFERENCE CHARGE**2 IN SPHERE  4 =  0.0000752
:DTO005: TOTAL   DIFFERENCE CHARGE**2 IN SPHERE  5 =  0.0001124
:DTO006: TOTAL   DIFFERENCE CHARGE**2 IN SPHERE  6 =  0.0001172
:DTO007: TOTAL   DIFFERENCE CHARGE**2 IN SPHERE  7 =  0.0001188
:DTO008: TOTAL   DIFFERENCE CHARGE**2 IN SPHERE  8 =  0.0001037

:DIS  :  CHARGE DISTANCE       ( 0.0001578 for atom    1 spin 1)      0.0001159
:BIG check (qbig,qrms,qtot)    0.526D-04   0.834D-04   0.116D-03
 
******************************************************
* MULTISECANT MIXING VER4 OPTIONS                    *
* Unpredicted Step Limit   0.100000                  *
* Plane Wave Dynamic Rescaling                       *
* Dynamic Regularization active                      *
* Upper Cutoff Lambda  1.0E-01 Lower 3.5E-04         *
* SQRT Multiplicity/Degeneracy                       *
* Max Number of Memory Steps    8                    *
******************************************************
 
:PLANE:  INTERSTITIAL TOTAL      7.46850 DISTAN  6.762E-04 % 
:CHARG:  CLM CHARGE   /ATOM    356.61326 DISTAN  3.753E-05 % 
:INFO :  Dynamic rescale   2.086E+01  1.000E-01
:INFO :  Number of Memory Steps    8 Skipping   10
:INFO :  Singular value   1.805E+01 Weight   1.000E+00 Projections  -2.613E-04  5.983E-04
:INFO :  Singular value   1.253E+00 Weight   9.915E-01 Projections  -3.387E-04  1.632E-04
:INFO :  Singular value   5.725E-01 Weight   9.606E-01 Projections   2.057E-04 -3.861E-04
:INFO :  Singular value   2.124E-01 Weight   7.704E-01 Projections  -1.084E-04 -6.578E-05
:INFO :  Singular value   8.498E-02 Weight   3.494E-01 Projections  -1.515E-04 -3.931E-05
:INFO :  Singular value   6.881E-02 Weight   2.604E-01 Projections   1.964E-04 -6.024E-06
:INFO :  Singular value   2.939E-02 Weight   6.036E-02 Projections  -4.050E-04 -1.044E-05
:INFO :  Singular value   8.292E-03 Weight   5.087E-03 Projections   2.778E-04  1.220E-05
:INFO :  Bounds         0.989D-01  0.200D+00  0.335D+00  0.989D-01
:DIRM :  MEMORY 8/8 RESCALE  20.86 RED 1.876 PRED 0.539 NEXT 0.299 COND 2.25E+00
:DIRP :  |BROYD|= 1.597E-03 |PRATT|= 1.042E-04 ANGLE=  48.4 DEGREES
:DIRB :  |BROYD|= 1.769E-03 |PRATT|= 1.485E-04 ANGLE=  45.1 DEGREES
:MIX  :  MSR1   REGULARIZATION: 1.16E-01  GREED: 0.099
     
       CHARGES OF MIXED CHARGE DENSITY
:CTO  : TOTAL   INTERSTITIAL CHARGE=   70.0415407
:CTO001: TOTAL   CHARGE IN SPHERE  1 =       89.6881556
:CTO002: TOTAL   CHARGE IN SPHERE  2 =       89.6242614
:CTO003: TOTAL   CHARGE IN SPHERE  3 =       89.6322538
:CTO004: TOTAL   CHARGE IN SPHERE  4 =       89.6184643
:CTO005: TOTAL   CHARGE IN SPHERE  5 =       89.6162520
:CTO006: TOTAL   CHARGE IN SPHERE  6 =       89.6060135
:CTO007: TOTAL   CHARGE IN SPHERE  7 =       89.6377687
:CTO008: TOTAL   CHARGE IN SPHERE  8 =       89.5560604

:NEC03: NUCLEAR AND ELECTRONIC CHARGE   1504.00000  1504.00000     1.00000


:ENE  : ********** TOTAL ENERGY IN Ry =      -949675.81597725

       TOTAL FORCE IN mRy/a.u. = |F|     Fx             Fy             Fz     with/without FOR in case.in2
:FOR001:   1.ATOM         91.152         91.142          1.363          0.000 partial forces
:FOR002:   2.ATOM         75.314        -56.011         50.349          0.000 partial forces
:FOR003:   3.ATOM        104.984         76.861         71.512          0.000 partial forces
:FOR004:   4.ATOM         69.645        -55.923        -41.510          0.000 partial forces
:FOR005:   5.ATOM         36.097         34.265         11.353          0.000 partial forces
:FOR006:   6.ATOM         93.122         72.665         58.236          0.000 partial forces
:FOR007:   7.ATOM        129.318       -129.150          6.588          0.000 partial forces
:FOR008:   8.ATOM         54.272         35.586         40.977          0.000 partial forces

       TOTAL FORCE WITH RESPECT TO GLOBAL CARTESIAN COORDINATES:
:FCA001:   1.ATOM                         1.363          0.000         91.142 partial forces
:FCA002:   2.ATOM                        50.349          0.000        -56.011 partial forces
:FCA003:   3.ATOM                        71.512          0.000         76.861 partial forces
:FCA004:   4.ATOM                       -41.510          0.000        -55.923 partial forces
:FCA005:   5.ATOM                        11.353          0.000         34.265 partial forces
:FCA006:   6.ATOM                        58.236          0.000         72.665 partial forces
:FCA007:   7.ATOM                         6.588          0.000       -129.150 partial forces
:FCA008:   8.ATOM                        40.977          0.000         35.586 partial forces

       TOTAL FORCE WITH RESPECT TO THE GLOBAL COORDINATE SYSTEM:
:FGL001:   1.ATOM                 1.392359626     0.000000000    91.426422799 partial forces
:FGL002:   2.ATOM                51.433539850     0.000000000   -45.504467724 partial forces
:FGL003:   3.ATOM                73.052400281     0.000000000    91.783702261 partial forces
:FGL004:   4.ATOM               -42.404143859     0.000000000   -64.585061904 partial forces
:FGL005:   5.ATOM                11.597548669     0.000000000    36.634077061 partial forces
:FGL006:   6.ATOM                59.490429337     0.000000000    84.817344905 partial forces
:FGL007:   7.ATOM                 6.729908450     0.000000000  -127.775255027 partial forces
:FGL008:   8.ATOM                41.859662802     0.000000000    44.136838608 partial forces
