
------- alpha_Pu_4.scf0 --------


            ---------
:ITE082: 82. ITERATION
            ---------

:NATO :    8 INDEPENDENT AND   16 TOTAL ATOMS IN UNITCELL
       SUBSTANCE: alpha_Pu                                                    

       LATTICE                      = P   
:POT  : POTENTIAL OPTION    5
:LAT  : LATTICE CONSTANTS= 11.68196  9.11370 20.72007    1.571    1.777    1.571
:VOL  : UNIT CELL VOLUME =    2159.46658
       MODE OF CALCULATION IS       = RELA
       NON-SPINPOLARIZED CALCULATION
:IFFT  : FFT-parameters:   96   72  160 Factor: 2.00
       ATOMNUMBER=  1 Pu  0+     VCOUL-ZERO =  0.57431E+00
:EFG001:                        EFG         =   -18.35574   *10**21  V / m**2
                               V20  TOT/SRF=     3.40530    -0.07851
                               V22  TOT/SRF=     5.45492     0.08305
                               V22M TOT/SRF=   -15.45528    -0.06109
                               V21  TOT/SRF=     0.00000     0.00000
                               V21M TOT/SRF=     0.00000     0.00000

              3.48887  -15.45528    0.00000       14.42363    0.00000    0.00000
            -15.45528   -7.42098    0.00000        0.00000  -18.35574    0.00000
              0.00000    0.00000    3.93211        0.00000    0.00000    3.93211

         MAIN DIRECTIONS OF THE EFG   1.0000  0.7075  0.0000
                                     -0.7075  1.0000  0.0000
                                      0.0000  0.0000  1.0000
:ANG001:  ANGLE WITH OLD X-AXIS =        35.3

:ETA001:                         ASYMM. ETA =     0.57157


       ATOMNUMBER=  2 Pu  0+     VCOUL-ZERO =  0.57931E+00
:EFG002:                        EFG         =   -29.69187   *10**21  V / m**2
                               V20  TOT/SRF=     9.25049     0.01366
                               V22  TOT/SRF=   -19.92664    -0.07144
                               V22M TOT/SRF=    13.99659     0.05749
                               V21  TOT/SRF=     0.00000     0.00000
                               V21M TOT/SRF=     0.00000     0.00000

            -25.26742   13.99659    0.00000      -29.69187    0.00000    0.00000
             13.99659   14.58587    0.00000        0.00000   19.01032    0.00000
              0.00000    0.00000   10.68155        0.00000    0.00000   10.68155

         MAIN DIRECTIONS OF THE EFG   1.0000  0.3161  0.0000
                                     -0.3161  1.0000  0.0000
                                      0.0000  0.0000  1.0000
:ANG002:  ANGLE WITH OLD X-AXIS =        17.5

:ETA002:                         ASYMM. ETA =     0.28051


       ATOMNUMBER=  3 Pu  0+     VCOUL-ZERO =  0.58066E+00
:EFG003:                        EFG         =   -15.68808   *10**21  V / m**2
                               V20  TOT/SRF=     1.44913    -0.00102
                               V22  TOT/SRF=    -3.92846    -0.00126
                               V22M TOT/SRF=   -14.32243    -0.00577
                               V21  TOT/SRF=     0.00000     0.00000
                               V21M TOT/SRF=     0.00000     0.00000

             -4.76512  -14.32243    0.00000      -15.68808    0.00000    0.00000
            -14.32243    3.09180    0.00000        0.00000   14.01477    0.00000
              0.00000    0.00000    1.67332        0.00000    0.00000    1.67332

         MAIN DIRECTIONS OF THE EFG   1.0000 -0.7626  0.0000
                                      0.7626  1.0000  0.0000
                                      0.0000  0.0000  1.0000
:ANG003:  ANGLE WITH OLD X-AXIS =        37.3

:ETA003:                         ASYMM. ETA =     0.78668


       ATOMNUMBER=  4 Pu  0+     VCOUL-ZERO =  0.58079E+00
:EFG004:                        EFG         =   -14.35052   *10**21  V / m**2
                               V20  TOT/SRF=     0.69212    -0.01289
                               V22  TOT/SRF=    -2.26570     0.01310
                               V22M TOT/SRF=    13.76572     0.02179
                               V21  TOT/SRF=     0.00000     0.00000
                               V21M TOT/SRF=     0.00000     0.00000

             -2.66530   13.76572    0.00000      -14.35052    0.00000    0.00000
             13.76572    1.86610    0.00000        0.00000   13.55133    0.00000
              0.00000    0.00000    0.79919        0.00000    0.00000    0.79919

         MAIN DIRECTIONS OF THE EFG   1.0000  0.8489  0.0000
                                     -0.8489  1.0000  0.0000
                                      0.0000  0.0000  1.0000
:ANG004:  ANGLE WITH OLD X-AXIS =        40.3

:ETA004:                         ASYMM. ETA =     0.88862


       ATOMNUMBER=  5 Pu  0+     VCOUL-ZERO =  0.58374E+00
:EFG005:                        EFG         =   -42.24214   *10**21  V / m**2
                               V20  TOT/SRF=    11.69030     0.01341
                               V22  TOT/SRF=   -35.09544    -0.09500
                               V22M TOT/SRF=     5.29574     0.03690
                               V21  TOT/SRF=     0.00000     0.00000
                               V21M TOT/SRF=     0.00000     0.00000

            -41.84484    5.29574    0.00000      -42.24214    0.00000    0.00000
              5.29574   28.34604    0.00000        0.00000   28.74334    0.00000
              0.00000    0.00000   13.49880        0.00000    0.00000   13.49880

         MAIN DIRECTIONS OF THE EFG   1.0000  0.0750  0.0000
                                     -0.0750  1.0000  0.0000
                                      0.0000  0.0000  1.0000
:ANG005:  ANGLE WITH OLD X-AXIS =         4.3

:ETA005:                         ASYMM. ETA =     0.36088


       ATOMNUMBER=  6 Pu  0+     VCOUL-ZERO =  0.58285E+00
:EFG006:                        EFG         =   -16.56947   *10**21  V / m**2
                               V20  TOT/SRF=     8.81949     0.00024
                               V22  TOT/SRF=    -5.85631    -0.00573
                               V22M TOT/SRF=    -9.87105    -0.04935
                               V21  TOT/SRF=     0.00000     0.00000
                               V21M TOT/SRF=     0.00000     0.00000

            -10.94824   -9.87105    0.00000      -16.56947    0.00000    0.00000
             -9.87105    0.76437    0.00000        0.00000    6.38561    0.00000
              0.00000    0.00000   10.18387        0.00000    0.00000   10.18387

         MAIN DIRECTIONS OF THE EFG   1.0000 -0.5695  0.0000
                                      0.5695  1.0000  0.0000
                                      0.0000  0.0000  1.0000
:ANG006:  ANGLE WITH OLD X-AXIS =        29.7

:ETA006:                         ASYMM. ETA =     0.22923


       ATOMNUMBER=  7 Pu  0+     VCOUL-ZERO =  0.57928E+00
:EFG007:                        EFG         =   -19.63648   *10**21  V / m**2
                               V20  TOT/SRF=     9.72958    -0.00134
                               V22  TOT/SRF=     9.57950     0.07048
                               V22M TOT/SRF=    10.23564     0.01262
                               V21  TOT/SRF=     0.00000     0.00000
                               V21M TOT/SRF=     0.00000     0.00000

              3.96213   10.23564    0.00000        8.40173    0.00000    0.00000
             10.23564  -15.19688    0.00000        0.00000  -19.63648    0.00000
              0.00000    0.00000   11.23475        0.00000    0.00000   11.23475

         MAIN DIRECTIONS OF THE EFG   1.0000 -0.4337  0.0000
                                      0.4337  1.0000  0.0000
                                      0.0000  0.0000  1.0000
:ANG007:  ANGLE WITH OLD X-AXIS =        23.4

:ETA007:                         ASYMM. ETA =     0.14427


       ATOMNUMBER=  8 Pu  0+     VCOUL-ZERO =  0.58381E+00
:EFG008:                        EFG         =   -43.58351   *10**21  V / m**2
                               V20  TOT/SRF=    12.57924     0.03124
                               V22  TOT/SRF=   -35.92920    -0.03732
                               V22M TOT/SRF=     5.31970    -0.00257
                               V21  TOT/SRF=     0.00000     0.00000
                               V21M TOT/SRF=     0.00000     0.00000

            -43.19183    5.31970    0.00000      -43.58351    0.00000    0.00000
              5.31970   28.66658    0.00000        0.00000   29.05826    0.00000
              0.00000    0.00000   14.52525        0.00000    0.00000   14.52525

         MAIN DIRECTIONS OF THE EFG   1.0000  0.0736  0.0000
                                     -0.0736  1.0000  0.0000
                                      0.0000  0.0000  1.0000
:ANG008:  ANGLE WITH OLD X-AXIS =         4.2

:ETA008:                         ASYMM. ETA =     0.33345


     HELLMANN-FEYNMAN-FORCE IN mRy/a.u. = |F|  Fx       Fy             Fz
:FHF001:   1.ATOM       3182.892       3032.356        967.273          0.000

     HELLMANN-FEYNMAN-FORCE IN mRy/a.u. = |F|  Fx       Fy             Fz
:FHF002:   2.ATOM       1483.524       -283.949       1456.096          0.000

     HELLMANN-FEYNMAN-FORCE IN mRy/a.u. = |F|  Fx       Fy             Fz
:FHF003:   3.ATOM       5763.371       4306.574       3830.127          0.000

     HELLMANN-FEYNMAN-FORCE IN mRy/a.u. = |F|  Fx       Fy             Fz
:FHF004:   4.ATOM       3186.240      -3129.876       -596.656          0.000

     HELLMANN-FEYNMAN-FORCE IN mRy/a.u. = |F|  Fx       Fy             Fz
:FHF005:   5.ATOM       1953.588       1044.988       1650.608          0.000

     HELLMANN-FEYNMAN-FORCE IN mRy/a.u. = |F|  Fx       Fy             Fz
:FHF006:   6.ATOM       5465.129       4436.073       3192.005          0.000

     HELLMANN-FEYNMAN-FORCE IN mRy/a.u. = |F|  Fx       Fy             Fz
:FHF007:   7.ATOM       5409.490      -3720.576       3926.818          0.000

     HELLMANN-FEYNMAN-FORCE IN mRy/a.u. = |F|  Fx       Fy             Fz
:FHF008:   8.ATOM       1148.063       1063.915        431.433          0.000

:FIT001: LUSE= 13 SIGMA OF V-XC FIT FOR ATOM  1  0.3126296E-03
:FIT001: LUSE= 13 SIGMA OF V-XC FIT FOR ATOM  1  0.3126296E-03
:FIT002: LUSE= 13 SIGMA OF V-XC FIT FOR ATOM  2  0.1590772E-03
:FIT002: LUSE= 13 SIGMA OF V-XC FIT FOR ATOM  2  0.1590772E-03
:FIT003: LUSE= 13 SIGMA OF V-XC FIT FOR ATOM  3  0.1725757E-03
:FIT003: LUSE= 13 SIGMA OF V-XC FIT FOR ATOM  3  0.1725757E-03
:FIT004: LUSE= 13 SIGMA OF V-XC FIT FOR ATOM  4  0.1798289E-03
:FIT004: LUSE= 13 SIGMA OF V-XC FIT FOR ATOM  4  0.1798289E-03
:FIT005: LUSE= 13 SIGMA OF V-XC FIT FOR ATOM  5  0.1391112E-03
:FIT005: LUSE= 13 SIGMA OF V-XC FIT FOR ATOM  5  0.1391112E-03
:FIT006: LUSE= 13 SIGMA OF V-XC FIT FOR ATOM  6  0.1090779E-03
:FIT006: LUSE= 13 SIGMA OF V-XC FIT FOR ATOM  6  0.1090779E-03
:FIT007: LUSE= 13 SIGMA OF V-XC FIT FOR ATOM  7  0.3185142E-03
:FIT007: LUSE= 13 SIGMA OF V-XC FIT FOR ATOM  7  0.3185142E-03
:FIT008: LUSE= 13 SIGMA OF V-XC FIT FOR ATOM  8  0.7572053E-04
:FIT008: LUSE= 13 SIGMA OF V-XC FIT FOR ATOM  8  0.7572053E-04
:DEN  : DENSITY INTEGRAL  =       -350555.78616245   (Ry)
       ELS_POTENTIAL_AT Z=0 and Z=0.5:   0.96955   0.46826
       ELS_POTENTIAL_AT Y=0 and Y=0.5:   1.21349   1.21349
:VZERO:v0,v0c,v0x   0.12309   0.96955  -0.84645 v5,v5c,v5x  -0.43470   0.46826  -0.90296
:VZERY:v0,v0c,v0x   0.41138   1.21349  -0.80212 v5,v5c,v5x   0.41138   1.21349  -0.80212
:VZERX:v0,v0c,v0x  -0.79382   0.14857  -0.94239 v5,v5c,v5x  -0.69982   0.23258  -0.93240

------- alpha_Pu_4.scf1 --------

          ATOMIC SPHERE DEPENDENT PARAMETERS FOR ATOM  Pu  0+    
:e__0001: OVERALL ENERGY PARAMETER IS    1.1978
          OVERALL BASIS SET ON ATOM IS LAPW
:E0_0001: E( 0)=    1.1978
             APW+lo
:E0_0001: E( 0)=   -2.0115   E(BOTTOM)=   -2.785   E(TOP)=   -1.238
             LOCAL ORBITAL
:E1_0001: E( 1)=   -1.0880   E(BOTTOM)=   -1.088   E(TOP)= -200.000
             APW+lo
:E1_0001: E( 1)=    1.1978
             LOCAL ORBITAL
:E3_0001: E( 3)=    1.1978   E(BOTTOM)=    0.953   E(TOP)= -200.000
             APW+lo
:E2_0001: E( 2)=    1.1978   E(BOTTOM)=    1.113   E(TOP)= -200.000
             APW+lo

          ATOMIC SPHERE DEPENDENT PARAMETERS FOR ATOM  Pu  0+    
:e__0002: OVERALL ENERGY PARAMETER IS    1.1978
          OVERALL BASIS SET ON ATOM IS LAPW
:E0_0002: E( 0)=    1.1978
             APW+lo
:E0_0002: E( 0)=   -2.0110   E(BOTTOM)=   -2.783   E(TOP)=   -1.239
             LOCAL ORBITAL
:E1_0002: E( 1)=   -1.0840   E(BOTTOM)=   -1.084   E(TOP)= -200.000
             APW+lo
:E1_0002: E( 1)=    1.1978
             LOCAL ORBITAL
:E3_0002: E( 3)=    1.1978   E(BOTTOM)=    0.953   E(TOP)= -200.000
             APW+lo
:E2_0002: E( 2)=    1.1978   E(BOTTOM)=    1.118   E(TOP)= -200.000
             APW+lo

          ATOMIC SPHERE DEPENDENT PARAMETERS FOR ATOM  Pu  0+    
:e__0003: OVERALL ENERGY PARAMETER IS    1.1978
          OVERALL BASIS SET ON ATOM IS LAPW
:E0_0003: E( 0)=    1.1978
             APW+lo
:E0_0003: E( 0)=   -2.0085   E(BOTTOM)=   -2.781   E(TOP)=   -1.236
             LOCAL ORBITAL
:E1_0003: E( 1)=   -1.0820   E(BOTTOM)=   -1.082   E(TOP)= -200.000
             APW+lo
:E1_0003: E( 1)=    1.1978
             LOCAL ORBITAL
:E3_0003: E( 3)=    1.1978   E(BOTTOM)=    0.958   E(TOP)= -200.000
             APW+lo
:E2_0003: E( 2)=    1.1978   E(BOTTOM)=    1.123   E(TOP)= -200.000
             APW+lo

          ATOMIC SPHERE DEPENDENT PARAMETERS FOR ATOM  Pu  0+    
:e__0004: OVERALL ENERGY PARAMETER IS    1.1978
          OVERALL BASIS SET ON ATOM IS LAPW
:E0_0004: E( 0)=    1.1978
             APW+lo
:E0_0004: E( 0)=   -2.0095   E(BOTTOM)=   -2.781   E(TOP)=   -1.238
             LOCAL ORBITAL
:E1_0004: E( 1)=   -1.0820   E(BOTTOM)=   -1.082   E(TOP)= -200.000
             APW+lo
:E1_0004: E( 1)=    1.1978
             LOCAL ORBITAL
:E3_0004: E( 3)=    1.1978   E(BOTTOM)=    0.953   E(TOP)= -200.000
             APW+lo
:E2_0004: E( 2)=    1.1978   E(BOTTOM)=    1.123   E(TOP)= -200.000
             APW+lo

          ATOMIC SPHERE DEPENDENT PARAMETERS FOR ATOM  Pu  0+    
:e__0005: OVERALL ENERGY PARAMETER IS    1.1978
          OVERALL BASIS SET ON ATOM IS LAPW
:E0_0005: E( 0)=    1.1978
             APW+lo
:E0_0005: E( 0)=   -2.0085   E(BOTTOM)=   -2.780   E(TOP)=   -1.237
             LOCAL ORBITAL
:E1_0005: E( 1)=   -1.0800   E(BOTTOM)=   -1.080   E(TOP)= -200.000
             APW+lo
:E1_0005: E( 1)=    1.1978
             LOCAL ORBITAL
:E3_0005: E( 3)=    1.1978   E(BOTTOM)=    0.958   E(TOP)= -200.000
             APW+lo
:E2_0005: E( 2)=    1.1978   E(BOTTOM)=    1.123   E(TOP)= -200.000
             APW+lo

          ATOMIC SPHERE DEPENDENT PARAMETERS FOR ATOM  Pu  0+    
:e__0006: OVERALL ENERGY PARAMETER IS    1.1978
          OVERALL BASIS SET ON ATOM IS LAPW
:E0_0006: E( 0)=    1.1978
             APW+lo
:E0_0006: E( 0)=   -2.0085   E(BOTTOM)=   -2.780   E(TOP)=   -1.237
             LOCAL ORBITAL
:E1_0006: E( 1)=   -1.0800   E(BOTTOM)=   -1.080   E(TOP)= -200.000
             APW+lo
:E1_0006: E( 1)=    1.1978
             LOCAL ORBITAL
:E3_0006: E( 3)=    1.1978   E(BOTTOM)=    0.958   E(TOP)= -200.000
             APW+lo
:E2_0006: E( 2)=    1.1978   E(BOTTOM)=    1.123   E(TOP)= -200.000
             APW+lo

          ATOMIC SPHERE DEPENDENT PARAMETERS FOR ATOM  Pu  0+    
:e__0007: OVERALL ENERGY PARAMETER IS    1.1978
          OVERALL BASIS SET ON ATOM IS LAPW
:E0_0007: E( 0)=    1.1978
             APW+lo
:E0_0007: E( 0)=   -2.0085   E(BOTTOM)=   -2.781   E(TOP)=   -1.236
             LOCAL ORBITAL
:E1_0007: E( 1)=   -1.0820   E(BOTTOM)=   -1.082   E(TOP)= -200.000
             APW+lo
:E1_0007: E( 1)=    1.1978
             LOCAL ORBITAL
:E3_0007: E( 3)=    1.1978   E(BOTTOM)=    0.958   E(TOP)= -200.000
             APW+lo
:E2_0007: E( 2)=    1.1978   E(BOTTOM)=    1.123   E(TOP)= -200.000
             APW+lo

          ATOMIC SPHERE DEPENDENT PARAMETERS FOR ATOM  Pu  0+    
:e__0008: OVERALL ENERGY PARAMETER IS    1.1978
          OVERALL BASIS SET ON ATOM IS LAPW
:E0_0008: E( 0)=    1.1978
             APW+lo
:E0_0008: E( 0)=   -2.0055   E(BOTTOM)=   -2.777   E(TOP)=   -1.234
             LOCAL ORBITAL
:E1_0008: E( 1)=   -1.0760   E(BOTTOM)=   -1.076   E(TOP)= -200.000
             APW+lo
:E1_0008: E( 1)=    1.1978
             LOCAL ORBITAL
:E3_0008: E( 3)=    1.1978   E(BOTTOM)=    0.963   E(TOP)= -200.000
             APW+lo
:E2_0008: E( 2)=    1.1978   E(BOTTOM)=    1.128   E(TOP)= -200.000
             APW+lo

       K=   0.00000   0.00000   0.00000            1
:RKM  : MATRIX SIZE 2591LOs: 320  RKM= 8.50  WEIGHT= 1.00  PGR:    
       EIGENVALUES ARE:
:EIG00001:      -2.0370242   -2.0186709   -2.0147824   -1.9988580   -1.9860146
:EIG00006:      -1.9828664   -1.9734036   -1.9677477   -1.9663882   -1.9541309
:EIG00011:      -1.9485516   -1.9448925   -1.9329419   -1.9310653   -1.9255935
:EIG00016:      -1.9170082   -0.2295928   -0.2290412   -0.2273607   -0.1986982
:EIG00021:      -0.1975791   -0.1878527   -0.1832011   -0.1826246   -0.1467213
:EIG00026:      -0.1396362   -0.1382904   -0.1210363   -0.1198320   -0.1053041
:EIG00031:      -0.1035588   -0.1021387   -0.1009094   -0.0978413   -0.0749591
:EIG00036:      -0.0676993   -0.0340245   -0.0326621    0.0111750    0.0251003
:EIG00041:       0.0313486    0.0487625    0.0708711    0.0752672    0.1004627
:EIG00046:       0.1016570    0.1158501    0.1268790    0.1310912    0.1324122
 
:EIG00051:       0.1338634    0.1452280    0.1582365    0.1605798    0.1672563
:EIG00056:       0.1692520    0.1818741    0.1893527    0.1906528    0.1921600
:EIG00061:       0.2003099    0.2058411    0.2276716    0.2329468    1.0750007
:EIG00066:       1.1896139    1.2015532    1.2050655    1.2051715    1.2134863
:EIG00071:       1.2271908    1.2276554    1.2329087    1.2485925    1.2555417
:EIG00076:       1.2569825    1.2571343    1.2601670    1.2699000    1.2719632
:EIG00081:       1.2870698    1.2970089    1.3030812    1.3070209    1.3170598
:EIG00086:       1.3241901    1.3249897    1.3289364    1.3326706    1.3330106
:EIG00091:       1.3349491    1.3361493    1.3423355    1.3426156    1.3440858
:EIG00096:       1.3504628    1.3507273    1.3548059    1.3551083    1.3557043
 
:EIG00101:       1.3572404    1.3574952    1.3584826    1.3589853    1.3604880
:EIG00106:       1.3627143    1.3656602    1.3656685    1.3691278    1.3723082
:EIG00111:       1.3736019    1.3757823    1.3760038    1.3810340    1.3840474
:EIG00116:       1.3841114    1.3865654    1.3883385    1.3897632    1.3977283
:EIG00121:       1.4020317    1.4052305    1.4091460    1.4134520    1.4154144
:EIG00126:       1.4166093    1.4195867    1.4211258    1.4256808    1.4328231
:EIG00131:       1.4373636    1.4481709    1.4490633    1.4511872    1.4519938
:EIG00136:       1.4529693    1.4550069    1.4605378    1.4606051    1.4628514
:EIG00141:       1.4649727    1.4655667    1.4661834    1.4680355    1.4690519
:EIG00146:       1.4727062    1.4756918    1.4795975    1.4835221    1.4864339
 
:EIG00151:       1.4867637    1.4869956    1.4924215    1.4957131    1.4960093
:EIG00156:       1.4984801    1.5001324    1.5010804    1.5032348    1.5035627
:EIG00161:       1.5037770    1.5058004    1.5075138    1.5090149    1.5107251
:EIG00166:       1.5115678    1.5116765    1.5142757    1.5157827    1.5207195
:EIG00171:       1.5208109    1.5213821    1.5249763    1.5252659    1.5276810
:EIG00176:       1.5292385    1.5313427    1.5323997    1.5328621    1.5329021
:EIG00181:       1.5338868    1.5372939    1.5427140    1.5488452    1.5494869
:EIG00186:       1.5506362    1.5518283    1.5521867    1.5537998    1.5605557
:EIG00191:       1.5606649    1.5633919    1.5661323    1.5670309    1.5758951
:EIG00196:       1.5781947    1.5954158    1.6124394    1.6251581    1.6337869
 
:EIG00201:       1.6472759    1.6485069    1.6592094    1.6653972    1.6693250
:EIG00206:       1.6760221    1.6820935    1.6884551    1.6968281    1.7050685
:EIG00211:       1.7132323    1.7159292    1.7171211    1.7322591    1.7457588
:EIG00216:       1.7718936    1.7761429    1.7935901    1.8202492    1.8377456
:EIG00221:       1.8406488    1.8461704    1.8467075    1.8770074    1.8784111
:EIG00226:       1.8861828    1.8984695    1.8994413    1.9190050    1.9271728
:EIG00231:       1.9354752    1.9553604    1.9833757    1.9961719    1.9966308
:EIG00236:       2.0191525    2.0204431    2.0220677    2.0529765    2.0567979
:EIG00241:       2.0699780    2.0753019    2.0885853    2.1111926    2.1236632
:EIG00246:       2.1336208    2.1344848    2.1618572    2.1738438    2.1789788
 
:EIG00251:       2.1915698    2.1974791    2.2088273    2.2122853    2.2129957
:EIG00256:       2.2279512    2.2593663    2.2661195    2.2753250    2.2842348
:EIG00261:       2.3127066    2.3426337    2.3753375    2.3766704    2.4257999
:EIG00266:       2.4675903    2.4956219    2.5157636    2.5453633    2.5456971
:EIG00271:       2.5630797    2.5707948    2.5748468    2.5823650    2.5923291
:EIG00276:       2.6025169    2.6047707    2.6061070    2.6188157    2.6530537
:EIG00281:       2.6610044    2.6787056    2.6841162    2.7190939    2.7229166
:EIG00286:       2.7348108    2.7422688    2.7516482    2.7553598    2.7559893
:EIG00291:       2.8013226    2.8219135    2.8309250    2.8362521    2.8463150
:EIG00296:       2.8641501    2.8671551    2.9122084    2.9200043    2.9364153
 
:EIG00301:       2.9438267    2.9481682    2.9687755    2.9764134    2.9839732
:EIG00306:       3.0180164    3.0211995    3.0225412    3.0392161    3.0423372
:EIG00311:       3.0501865    3.0537935    3.0588008    3.0851252    3.0947726
:EIG00316:       3.1035220    3.1105392    3.1231066    3.1259088    3.1580972
:EIG00321:       3.1617881    3.1824733    3.1843498    3.1864500    3.1881708
:EIG00326:       3.2032024    3.2167721    3.2241629    3.2400729    3.2447847
:EIG00331:       3.2599086    3.2748300    3.2754073    3.2762361    3.2822477
:EIG00336:       3.3089351    3.3121817    3.3418647    3.3545473    3.3566521
:EIG00341:       3.3581152    3.3757726    3.3889260    3.3983757    3.4094621
:EIG00346:       3.4147569    3.4273447    3.4325628    3.4550269    3.4601583
 
:EIG00351:       3.4614440    3.4691345    3.4877809    3.4917245    3.5101398
:EIG00356:       3.5600528    3.5623258    3.5662789    3.5706038    3.5806090
:EIG00361:       3.5844427    3.5887505    3.6064270    3.6116918    3.6283793
:EIG00366:       3.6391009    3.6392828    3.6396773    3.6748317    3.6763268
:EIG00371:       3.6866618    3.6897521    3.7034084    3.7149003    3.7407494
:EIG00376:       3.7423889    3.7574365    3.7738911    3.7774204    3.7828012
:EIG00381:       3.7891540    3.8035754    3.8063055    3.8201038    3.8237589
:EIG00386:       3.8595755    3.8601135    3.8634583    3.8840634    3.8848436
:EIG00391:       3.8938307    3.9134870    3.9337549    3.9351580    3.9456517
:EIG00396:       3.9601321    3.9872699    3.9894262    3.9967729    3.9985044
 
:EIG00401:       4.0222353    4.0325680    4.0380866    4.0488258    4.0678664
:EIG00406:       4.0775295    4.0885015    4.0906878    4.1004626    4.1031436
:EIG00411:       4.1101238    4.1244264    4.1419011    4.1491397    4.1555499
:EIG00416:       4.1596486    4.1697894    4.1843501    4.1974942    4.2049831
:EIG00421:       4.2097811    4.2243866    4.2314211    4.2541582    4.2625475
:EIG00426:       4.2691965    4.2699892    4.2872039    4.2896265    4.3097886
:EIG00431:       4.3240753    4.3328301    4.3338201    4.3402209    4.3433574
:EIG00436:       4.3481127    4.3596622    4.3644318    4.3679107    4.3734912
:EIG00441:       4.3929912    4.3977348    4.3993232    4.4035640    4.4172825
:EIG00446:       4.4289315    4.4325469    4.4332848    4.4377418    4.4481677
 
:EIG00451:       4.4526678    4.4628282    4.4711358    4.4728447    4.4989718
:EIG00456:       4.5061865    4.5074788    4.5227406    4.5547713    4.5567699
:EIG00461:       4.5581934    4.5631397    4.5880543    4.5934444    4.6017915
:EIG00466:       4.6082314    4.6170612    4.6356559    4.6513594    4.6623384
:EIG00471:       4.6666853    4.6864554    4.6893272    4.7056812    4.7101803
:EIG00476:       4.7115293    4.7207920    4.7294130    4.7377118    4.7435463
:EIG00481:       4.7440688    4.7547639    4.7673799    4.7715600    4.7745367
:EIG00486:       4.7762292    4.7827023    4.7990866    4.8029322    4.8057088
:EIG00491:       4.8185770    4.8201615    4.8319301    4.8376490    4.8393538
:EIG00496:       4.8428864    4.8502163    4.8516076    4.8623846    4.8782830
 
:EIG00501:       4.8805502    4.8810499    4.8856982    4.8953682    4.8999791
:EIG00506:       4.9011266    4.9131559    4.9180980    4.9331383    4.9553810
:EIG00511:       4.9558094    4.9629679    4.9651152    4.9692670    4.9693922
:EIG00516:       4.9761242    4.9830807    4.9971146    4.9987397    5.0082178
:EIG00521:       5.0083760    5.0205059    5.0267668    5.0290689    5.0420196
:EIG00526:       5.0543854    5.0571127    5.0577386    5.0728255    5.0785326
:EIG00531:       5.0893887    5.1095805    5.1108588    5.1338757    5.1412779
:EIG00536:       5.1526293    5.1596688    5.1663500    5.1741586    5.1906427
:EIG00541:       5.1998902    5.2053199    5.2127113    5.2322489    5.2343341
:EIG00546:       5.2440203    5.2460356    5.2599200    5.2607558    5.2628372
 
:EIG00551:       5.2744432    5.2778813    5.2830142    5.2856477    5.2897626
:EIG00556:       5.2903535    5.3069568    5.3245657    5.3379597    5.3434956
:EIG00561:       5.3513818    5.3549755    5.3603673    5.3611424    5.3676582
:EIG00566:       5.3789340    5.3876047    5.3913329    5.4007701    5.4078986
:EIG00571:       5.4175561    5.4203541    5.4229923    5.4259705    5.4318386
:EIG00576:       5.4407789    5.4522811    5.4626709    5.4744124    5.4768624
:EIG00581:       5.4805381    5.4838846    5.4841900    5.5031454    5.5095868
:EIG00586:       5.5147353    5.5153267    5.5266066    5.5267810    5.5398246
:EIG00591:       5.5432125    5.5614905    5.5702796    5.5751187    5.5789098
:EIG00596:       5.5842845    5.5945644    5.5969140    5.6140004    5.6276456
 
:EIG00601:       5.6379302    5.6407632    5.6419107    5.6558520    5.6568715
:EIG00606:       5.6583501    5.6679310    5.6685561    5.6771824    5.6841400
:EIG00611:       5.6892573    5.7047044    5.7096029    5.7120208    5.7127109
:EIG00616:       5.7250126    5.7393088    5.7431940    5.7513766    5.7563756
:EIG00621:       5.7732667    5.7746983    5.7760508    5.7966246    5.8164936
:EIG00626:       5.8318185    5.8332166    5.8395115    5.8403107    5.8595309
:EIG00631:       5.8642122    5.8691052    5.8702669    5.8796976    5.8880724
:EIG00636:       5.8889746    5.8988159    5.9089180    5.9140723    5.9287335
:EIG00641:       5.9290776    5.9413523    5.9529477    5.9583703    5.9706329
:EIG00646:       5.9764144    5.9771024    5.9814324    5.9877148    6.0159925
 
:EIG00651:       6.0170161    6.0267801    6.0345879    6.0363659    6.0389629
:EIG00656:       6.0518935    6.0613639    6.0784148    6.0793810    6.0825446
:EIG00661:       6.0867540    6.1128846    6.1139361    6.1156726    6.1211852
:EIG00666:       6.1293065    6.1418561    6.1443859    6.1571777    6.1641374
:EIG00671:       6.1780832    6.1925448    6.2029475    6.2147524    6.2196440
:EIG00676:       6.2347616    6.2480138    6.2524030    6.2533205    6.2627502
:EIG00681:       6.2714947    6.2731905    6.2755803    6.3067651    6.3077440
:EIG00686:       6.3090292    6.3169387    6.3367819    6.3496699    6.3588605
:EIG00691:       6.3611960    6.3710153    6.3854087    6.3910655    6.3927559
:EIG00696:       6.4032806    6.4166894    6.4181995    6.4198717    6.4236107
 
:EIG00701:       6.4405440    6.4411978    6.4564765    6.4715746    6.4874506
:EIG00706:       6.4889854    6.4993591    6.5000327    6.5057448    6.5104757
:EIG00711:       6.5184081    6.5301290    6.5307148    6.5438653    6.5453444
:EIG00716:       6.5731605    6.5830087    6.5858578    6.6065354    6.6070121
:EIG00721:       6.6123600    6.6166349    6.6178271    6.6209831    6.6385763
:EIG00726:       6.6405424    6.6564972    6.6592076    6.6694383    6.6727546
:EIG00731:       6.6762461    6.6790189    6.6854649    6.6953452    6.7083293
:EIG00736:       6.7134901    6.7224935    6.7279216    6.7348586    6.7421978
:EIG00741:       6.7519338    6.7568089    6.7576829    6.7594353    6.7596898
:EIG00746:       6.7809927    6.7829667    6.8066079    6.8077645    6.8082935
 
:EIG00751:       6.8181288    6.8320661    6.8343122    6.8389552    6.8525591
:EIG00756:       6.8551397    6.8757546    6.8808120    6.8881188    6.8947471
:EIG00761:       6.8978229    6.9046432    6.9112597    6.9136657    6.9203760
:EIG00766:       6.9323877    6.9496704    6.9591757    6.9654019    6.9680297
:EIG00771:       6.9748749    6.9939726    6.9985048    6.9993332    7.0160057
:EIG00776:       7.0253576    7.0263954    7.0336832    7.0370562    7.0418063
:EIG00781:       7.0501379    7.0586958    7.0597417    7.0644020    7.0710721
:EIG00786:       7.0922749    7.0944942    7.0971184    7.1016736    7.1130800
:EIG00791:       7.1237707    7.1316841    7.1368469    7.1560784    7.1576688
:EIG00796:       7.1648334    7.1693670    7.1715417    7.1742571    7.1949683
 
:EIG00801:       7.1961679    7.2005208    7.2112136    7.2186974    7.2250720
:EIG00806:       7.2288947    7.2397976    7.2418138    7.2437565    7.2515104
:EIG00811:       7.2624961    7.2639595    7.2666476    7.2784427    7.2785581
:EIG00816:       7.2848899    7.3117805    7.3162456    7.3211879    7.3268428
:EIG00821:       7.3298086    7.3335098    7.3545260    7.3589124    7.3686766
:EIG00826:       7.3737597    7.3792995    7.3957923    7.4000242    7.4052691
:EIG00831:       7.4063440    7.4208359    7.4229044    7.4232286    7.4285334
:EIG00836:       7.4501776    7.4640975    7.4676235    7.4772376    7.4809833
:EIG00841:       7.4930912
       ********************************************************

:KPT   :      NUMBER OF K-POINTS:    272

------- alpha_Pu_4.scfso --------
   0.0   0.0 angle (M,z), angle (M,x) deg
 
        SPIN-ORBIT EIGENVALUES:
     K=   0.00000   0.00000   0.00000            1
      MATRIX SIZE= 1682   WEIGHT= 1.00
     EIGENVALUES ARE:
          -2.0370367   -2.0370367   -2.0186992   -2.0186992   -2.0148115
          -2.0148115   -1.9988943   -1.9988943   -1.9860388   -1.9860388
          -1.9829020   -1.9829020   -1.9734321   -1.9734321   -1.9677741
          -1.9677741   -1.9663978   -1.9663978   -1.9541603   -1.9541603
          -1.9485915   -1.9485915   -1.9449201   -1.9449201   -1.9329718
          -1.9329718   -1.9310894   -1.9310894   -1.9256147   -1.9256147
          -1.9170346   -1.9170346   -0.5001902   -0.5001902   -0.4985346
          -0.4985346   -0.4823692   -0.4823692   -0.4788593   -0.4788593

          -0.4766574   -0.4766574   -0.4670998   -0.4670998   -0.4664790
          -0.4664790   -0.4542296   -0.4542296   -0.4365020   -0.4365020
          -0.4363688   -0.4363688   -0.4307649   -0.4307649   -0.4307500
          -0.4307500   -0.4193175   -0.4193175   -0.3669636   -0.3669636
          -0.3527107   -0.3527107   -0.3039311   -0.3039311   -0.0099415
          -0.0099415    0.0150994    0.0150994    0.0206061    0.0206061
           0.0234750    0.0234750    0.0383414    0.0383414    0.0472095
           0.0472095    0.0538296    0.0538296    0.0663834    0.0663834

           0.0962441    0.0962441    0.1003233    0.1003233    0.1091397
           0.1091397    0.1098765    0.1098765    0.1348714    0.1348714
           0.1510836    0.1510836    0.1525326    0.1525326    0.1684487
           0.1684487    0.2031370    0.2031370    0.2178086    0.2178086
           0.2349830    0.2349830    0.2663329    0.2663329    0.2683806
           0.2683806    0.2759936    0.2759936    0.2965135    0.2965135
           0.3127974    0.3127974    0.3248959    0.3248959    0.3303093
           0.3303093    0.3443085    0.3443085    0.3558962    0.3558962

           0.3723320    0.3723320    0.3943697    0.3943697    0.3959681
           0.3959681    0.4063761    0.4063761    1.0750008    1.0750008
           1.1867947    1.1867947    1.2014032    1.2014032    1.2020572
           1.2020572    1.2038275    1.2038275    1.2089924    1.2089924
           1.2228009    1.2228009    1.2307964    1.2307964    1.2309268
           1.2309268    1.2463391    1.2463391    1.2514234    1.2514234
           1.2529035    1.2529035    1.2532731    1.2532731    1.2611035
           1.2611035    1.2693603    1.2693603    1.2739467    1.2739467

           1.2863727    1.2863727    1.2923671    1.2923671    1.2985672
           1.2985672    1.3013619    1.3013619    1.3081569    1.3081569
           1.3131399    1.3131399    1.3206592    1.3206592    1.3207664
           1.3207664    1.3254416    1.3254416    1.3268591    1.3268591
           1.3275907    1.3275907    1.3309430    1.3309430    1.3347054
           1.3347054    1.3373915    1.3373915    1.3403973    1.3403973
           1.3412048    1.3412048    1.3431418    1.3431418    1.3467853
           1.3467853    1.3472378    1.3472378    1.3484963    1.3484963

           1.3492171    1.3492171    1.3496230    1.3496230    1.3534427
           1.3534427    1.3537097    1.3537097    1.3565732    1.3565732
           1.3581978    1.3581978    1.3598800    1.3598800    1.3625564
           1.3625564    1.3629769    1.3629769    1.3643706    1.3643706
           1.3676531    1.3676531    1.3677072    1.3677072    1.3716697
           1.3716697    1.3728001    1.3728001    1.3735709    1.3735709
           1.3766868    1.3766868    1.3785465    1.3785465    1.3802491
           1.3802491    1.3832952    1.3832952    1.3839385    1.3839385

           1.3914011    1.3914011    1.3928159    1.3928159    1.3997120
           1.3997120    1.4002963    1.4002963    1.4019719    1.4019719
           1.4044490    1.4044490    1.4077095    1.4077095    1.4092659
           1.4092659    1.4139239    1.4139239    1.4185477    1.4185477
           1.4214307    1.4214307    1.4268125    1.4268125    1.4285462
           1.4285462    1.4325726    1.4325726    1.4330294    1.4330294
           1.4404738    1.4404738    1.4478057    1.4478057    1.4542875
           1.4542875    1.4589725    1.4589725    1.4597324    1.4597324

           1.4666939    1.4666939    1.4721259    1.4721259    1.4726024
           1.4726024    1.4759000    1.4759000    1.4769478    1.4769478
           1.4794104    1.4794104    1.4817245    1.4817245    1.4824800
           1.4824800    1.4880915    1.4880915    1.4900938    1.4900938
           1.4930342    1.4930342    1.4936637    1.4936637    1.4977052
           1.4977052    1.4994005    1.4994005    1.5020426    1.5020426
           1.5032610    1.5032610    1.5046338    1.5046338    1.5047098
           1.5047098    1.5087768    1.5087768    1.5090496    1.5090496

           1.5114997    1.5114997    1.5129041    1.5129041    1.5145852
           1.5145852    1.5154106    1.5154106    1.5174805    1.5174805
           1.5190970    1.5190970    1.5205324    1.5205324    1.5222425
           1.5222425    1.5226390    1.5226390    1.5242020    1.5242020
           1.5288812    1.5288812    1.5300808    1.5300808    1.5322817
           1.5322817    1.5322846    1.5322846    1.5355125    1.5355125
           1.5381971    1.5381971    1.5396735    1.5396735    1.5427611
           1.5427611    1.5437329    1.5437329    1.5444322    1.5444322

           1.5466195    1.5466195    1.5485691    1.5485691    1.5491630
           1.5491630    1.5516635    1.5516635    1.5550519    1.5550519
           1.5570040    1.5570040    1.5597399    1.5597399    1.5621809
           1.5621809    1.5651020    1.5651020    1.5669109    1.5669109
           1.5683374    1.5683374    1.5725707    1.5725707    1.5726275
           1.5726275    1.5763762    1.5763762    1.5784239    1.5784239
           1.5900612    1.5900612    1.6030477    1.6030477    1.6207980
           1.6207980    1.6290050    1.6290050    1.6296208    1.6296208

           1.6483248    1.6483248    1.6504654    1.6504654    1.6636484
           1.6636484    1.6717503    1.6717503    1.6741170    1.6741170
           1.6795338    1.6795338    1.6867104    1.6867104    1.6903928
           1.6903928    1.6969044    1.6969044    1.7142804    1.7142804
           1.7145515    1.7145515    1.7212308    1.7212308    1.7254713
           1.7254713    1.7395443    1.7395443    1.7463884    1.7463884
           1.7765856    1.7765856    1.7832528    1.7832528    1.7977729
           1.7977729    1.8212871    1.8212871    1.8317635    1.8317635

           1.8374696    1.8374696    1.8471073    1.8471073    1.8612825
           1.8612825    1.8727187    1.8727187    1.8799275    1.8799275
           1.8881197    1.8881197    1.9008614    1.9008614    1.9058146
           1.9058146    1.9213688    1.9213688    1.9215852    1.9215852
           1.9440314    1.9440314    1.9531564    1.9531564    1.9859696
           1.9859696    1.9966909    1.9966909    1.9986812    1.9986812
           2.0166524    2.0166524    2.0192701    2.0192701    2.0251367
           2.0251367    2.0513443    2.0513443    2.0570328    2.0570328

           2.0618806    2.0618806    2.0860677    2.0860677    2.0902811
           2.0902811    2.1142789    2.1142789    2.1208139    2.1208139
           2.1296895    2.1296895    2.1383050    2.1383050    2.1580112
           2.1580112    2.1674439    2.1674439    2.1745346    2.1745346
           2.1844866    2.1844866    2.2016468    2.2016468    2.2073712
           2.2073712    2.2123118    2.2123118    2.2184390    2.2184390
           2.2417529    2.2417529    2.2541152    2.2541152    2.2722066
           2.2722066    2.2794542    2.2794542    2.2871551    2.2871551

           2.3171351    2.3171351    2.3411823    2.3411823    2.3750146
           2.3750146    2.3801213    2.3801213    2.4258683    2.4258683
           2.4598333    2.4598333    2.4817995    2.4817995    2.4956765
           2.4956765    2.5314079    2.5314079    2.5402712    2.5402712
           2.5542354    2.5542354    2.5612353    2.5612353    2.5737941
           2.5737941    2.5821254    2.5821254    2.5887670    2.5887670
           2.6112711    2.6112711    2.6119865    2.6119865    2.6360353
           2.6360353    2.6459717    2.6459717    2.6520232    2.6520232

           2.6733934    2.6733934    2.6866258    2.6866258    2.6878146
           2.6878146    2.7189286    2.7189286    2.7199771    2.7199771
           2.7383751    2.7383751    2.7530716    2.7530716    2.7538285
           2.7538285    2.7644419    2.7644419    2.7664139    2.7664139
           2.8091565    2.8091565    2.8186502    2.8186502    2.8321723
           2.8321723    2.8362740    2.8362740    2.8554128    2.8554128
           2.8638610    2.8638610    2.8686688    2.8686688    2.9126970
           2.9126970    2.9191793    2.9191793    2.9319567    2.9319567

           2.9484703    2.9484703    2.9518611    2.9518611    2.9693320
           2.9693320    2.9793117    2.9793117    2.9862750    2.9862750
           3.0192558    3.0192558    3.0237520    3.0237520    3.0239456
           3.0239456    3.0360468    3.0360468    3.0443912    3.0443912
           3.0502546    3.0502546    3.0619375    3.0619375    3.0628167
           3.0628167    3.0850211    3.0850211    3.0959558    3.0959558
           3.1046329    3.1046329    3.1091130    3.1091130    3.1272194
           3.1272194    3.1406587    3.1406587    3.1590902    3.1590902

           3.1636240    3.1636240    3.1791757    3.1791757    3.1858609
           3.1858609    3.1882845    3.1882845    3.1938941    3.1938941
           3.2074151    3.2074151    3.2165227    3.2165227    3.2286232
           3.2286232    3.2434256    3.2434256    3.2494241    3.2494241
           3.2654510    3.2654510    3.2756458    3.2756458    3.2757524
           3.2757524    3.2807161    3.2807161    3.2831064    3.2831064
           3.3103099    3.3103099    3.3149237    3.3149237    3.3438988
           3.3438988    3.3518466    3.3518466    3.3544669    3.3544669

           3.3621178    3.3621178    3.3799414    3.3799414    3.3899168
           3.3899168    3.4021433    3.4021433    3.4078144    3.4078144
           3.4167957    3.4167957    3.4285601    3.4285601    3.4348022
           3.4348022    3.4556650    3.4556650    3.4587013    3.4587013
           3.4668519    3.4668519    3.4702556    3.4702556    3.4878364
           3.4878364    3.4938915    3.4938915    3.5125561    3.5125561
           3.5578280    3.5578280    3.5599868    3.5599868    3.5679306
           3.5679306    3.5691068    3.5691068    3.5821202    3.5821202

           3.5829958    3.5829958    3.5921421    3.5921421    3.6075697
           3.6075697    3.6081698    3.6081698    3.6304785    3.6304785
           3.6329506    3.6329506    3.6388847    3.6388847    3.6464733
           3.6464733    3.6747516    3.6747516    3.6750932    3.6750932
           3.6875569    3.6875569    3.6912811    3.6912811    3.7030468
           3.7030468    3.7159196    3.7159196    3.7411247    3.7411247
           3.7427295    3.7427295    3.7553874    3.7553874    3.7669468
           3.7669468    3.7792813    3.7792813    3.7831647    3.7831647

           3.7895195    3.7895195    3.8002569    3.8002569    3.8073644
           3.8073644    3.8140088    3.8140088    3.8253862    3.8253862
           3.8601465    3.8601465    3.8604259    3.8604259    3.8669145
           3.8669145    3.8675573    3.8675573    3.8860875    3.8860875
           3.8947835    3.8947835    3.9161147    3.9161147    3.9224922
           3.9224922    3.9354157    3.9354157    3.9523820    3.9523820
           3.9580858    3.9580858    3.9739108    3.9739108    3.9879658
           3.9879658    3.9968762    3.9968762    3.9977165    3.9977165

           4.0237122    4.0237122    4.0289136    4.0289136    4.0434017
           4.0434017    4.0517837    4.0517837    4.0551334    4.0551334
           4.0724678    4.0724678    4.0887141    4.0887141    4.0953102
           4.0953102    4.1034513    4.1034513    4.1088888    4.1088888
           4.1141482    4.1141482    4.1292007    4.1292007    4.1381552
           4.1381552    4.1519442    4.1519442    4.1560874    4.1560874
           4.1659062    4.1659062    4.1799850    4.1799850    4.1887347
           4.1887347    4.1935385    4.1935385    4.1960508    4.1960508

           4.2158329    4.2158329    4.2287077    4.2287077    4.2372735
           4.2372735    4.2503466    4.2503466    4.2506396    4.2506396
           4.2693348    4.2693348    4.2694156    4.2694156    4.2791957
           4.2791957    4.2962516    4.2962516    4.3025534    4.3025534
           4.3207475    4.3207475    4.3253367    4.3253367    4.3288279
           4.3288279    4.3354217    4.3354217    4.3461797    4.3461797
           4.3484818    4.3484818    4.3619541    4.3619541    4.3699926
           4.3699926    4.3731182    4.3731182    4.3813601    4.3813601

           4.3934010    4.3934010    4.4031617    4.4031617    4.4086887
           4.4086887    4.4119306    4.4119306    4.4214604    4.4214604
           4.4334681    4.4334681    4.4341997    4.4341997    4.4364653
           4.4364653    4.4453661    4.4453661    4.4532573    4.4532573
           4.4702637    4.4702637    4.4705735    4.4705735    4.4758577
           4.4758577    4.4794658    4.4794658    4.4951631    4.4951631

       ********************************************************

------- alpha_Pu_4.scf2 --------
:GMA  : POTENTIAL AND CHARGE CUT-OFF  12.00 Ry**.5
         Bandranges (emin - emax) and occupancy:
:BAN00248: 248    1.397836    1.410288  1.00000000
:BAN00249: 249    1.399612    1.412650  1.00000000
:BAN00250: 250    1.399612    1.412650  1.00000000
:BAN00251: 251    1.401769    1.413820  1.00000000
:BAN00252: 252    1.401769    1.413820  1.00000000
:BAN00253: 253    1.406461    1.417450  0.90847647
:BAN00254: 254    1.406461    1.417450  0.90847647
:BAN00255: 255    1.409266    1.418069  0.71335020
:BAN00256: 256    1.409266    1.418069  0.71335020
:BAN00257: 257    1.412459    1.421688  0.37817333
:BAN00258: 258    1.412459    1.421688  0.37817333
:BAN00259: 259    1.415542    1.423179  0.00000000
:BAN00260: 260    1.415542    1.423179  0.00000000
:BAN00261: 261    1.418722    1.425370  0.00000000
:BAN00262: 262    1.418722    1.425370  0.00000000
:BAN00263: 263    1.422697    1.428210  0.00000000
        Energy to separate low and high energystates:    1.02500


:NLDA  : NUMBER OF ELECTRONS          = 256.000

:FLDA  : F E R M I - ENERGY           =   1.91538




:POS001: AT.NR.  -1 POSITION = 0.33900 0.25000 0.15650  MULTIPLICITY =  2

       LMMAX 28
       LM=   0 0  1 1 -1 1  2 0  2 2 -2 2  3 1 -3 1  3 3 -3 3  4 0  4 2 -4 2  4 4 -4 4  5 1 -5 1
         5 3 -5 3  5 5 -5 5  6 0  6 2 -6 2  6 4 -6 4  6 6 -6 6




:POS002: AT.NR.  -2 POSITION = 0.33900 0.25000 0.15650  MULTIPLICITY =  2

       LMMAX 28
       LM=   0 0  1 1 -1 1  2 0  2 2 -2 2  3 1 -3 1  3 3 -3 3  4 0  4 2 -4 2  4 4 -4 4  5 1 -5 1
         5 3 -5 3  5 5 -5 5  6 0  6 2 -6 2  6 4 -6 4  6 6 -6 6




:POS003: AT.NR.  -3 POSITION = 0.33900 0.25000 0.15650  MULTIPLICITY =  2

       LMMAX 28
       LM=   0 0  1 1 -1 1  2 0  2 2 -2 2  3 1 -3 1  3 3 -3 3  4 0  4 2 -4 2  4 4 -4 4  5 1 -5 1
         5 3 -5 3  5 5 -5 5  6 0  6 2 -6 2  6 4 -6 4  6 6 -6 6




:POS004: AT.NR.  -4 POSITION = 0.33900 0.25000 0.15650  MULTIPLICITY =  2

       LMMAX 28
       LM=   0 0  1 1 -1 1  2 0  2 2 -2 2  3 1 -3 1  3 3 -3 3  4 0  4 2 -4 2  4 4 -4 4  5 1 -5 1
         5 3 -5 3  5 5 -5 5  6 0  6 2 -6 2  6 4 -6 4  6 6 -6 6




:POS005: AT.NR.  -5 POSITION = 0.33900 0.25000 0.15650  MULTIPLICITY =  2

       LMMAX 28
       LM=   0 0  1 1 -1 1  2 0  2 2 -2 2  3 1 -3 1  3 3 -3 3  4 0  4 2 -4 2  4 4 -4 4  5 1 -5 1
         5 3 -5 3  5 5 -5 5  6 0  6 2 -6 2  6 4 -6 4  6 6 -6 6




:POS006: AT.NR.  -6 POSITION = 0.33900 0.25000 0.15650  MULTIPLICITY =  2

       LMMAX 28
       LM=   0 0  1 1 -1 1  2 0  2 2 -2 2  3 1 -3 1  3 3 -3 3  4 0  4 2 -4 2  4 4 -4 4  5 1 -5 1
         5 3 -5 3  5 5 -5 5  6 0  6 2 -6 2  6 4 -6 4  6 6 -6 6




:POS007: AT.NR.  -7 POSITION = 0.33900 0.25000 0.15650  MULTIPLICITY =  2

       LMMAX 28
       LM=   0 0  1 1 -1 1  2 0  2 2 -2 2  3 1 -3 1  3 3 -3 3  4 0  4 2 -4 2  4 4 -4 4  5 1 -5 1
         5 3 -5 3  5 5 -5 5  6 0  6 2 -6 2  6 4 -6 4  6 6 -6 6




:POS008: AT.NR.  -8 POSITION = 0.33900 0.25000 0.15650  MULTIPLICITY =  2

       LMMAX 28
       LM=   0 0  1 1 -1 1  2 0  2 2 -2 2  3 1 -3 1  3 3 -3 3  4 0  4 2 -4 2  4 4 -4 4  5 1 -5 1
         5 3 -5 3  5 5 -5 5  6 0  6 2 -6 2  6 4 -6 4  6 6 -6 6
:FER DMFT Fermi Energy   1.40511
:EORB    1.66787742
:SUM SUM OF DMFT BAND ENERGIES  105.57199804

:CHA001: TOTAL CHARGE INSIDE SPHERE   1 =    11.827229
:PCS001: PARTIAL CHARGES SPHERE =  1 S,P,D,F,PX,PY,PZ,D-Z2,D-X2Y2,D-XY,D-XZ,D-YZ 
:QTL001: 1.9421 4.5709 0.7369 4.5693 2.7205 2.6467 2.6286 0.1375 0.1553 0.1711 0.1670 0.1393
        Q-s-low E-s-low   Q-p-low E-p-low   Q-d-low E-d-low   Q-f-low E-f-low
:EPL001:  1.8829 -1.9494    4.4736 -0.0385    0.0424  0.0647    0.0211  0.0837
        Q-s-hi  E-s-hi    Q-p-hi  E-p-hi    Q-d-hi  E-d-hi    Q-f-hi  E-f-hi 
:EPH001:  0.0592  1.2571    0.0973  1.2883    0.6944  1.2762    4.5482  1.3659

                      QXX         QXY         QYY         QZZ       UP TO R

:VZZ001:             3.45587   -15.37592    -7.33616     3.88029       2.150

:CHA002: TOTAL CHARGE INSIDE SPHERE   2 =    11.729088
:PCS002: PARTIAL CHARGES SPHERE =  2 S,P,D,F,PX,PY,PZ,D-Z2,D-X2Y2,D-XY,D-XZ,D-YZ 
:QTL002: 1.9482 4.5886 0.6510 4.5353 2.6263 2.7172 2.6908 0.1327 0.1329 0.1291 0.1309 0.1511
        Q-s-low E-s-low   Q-p-low E-p-low   Q-d-low E-d-low   Q-f-low E-f-low
:EPL002:  1.8804 -1.9528    4.4768 -0.0348    0.0300  0.0810    0.0146  0.0962
        Q-s-hi  E-s-hi    Q-p-hi  E-p-hi    Q-d-hi  E-d-hi    Q-f-hi  E-f-hi 
:EPH002:  0.0678  1.2500    0.1118  1.2871    0.6210  1.2798    4.5208  1.3676

                      QXX         QXY         QYY         QZZ       UP TO R

:VZZ002:           -25.23470    13.81713    14.64665    10.58806       2.150

:CHA003: TOTAL CHARGE INSIDE SPHERE   3 =    11.744627
:PCS003: PARTIAL CHARGES SPHERE =  3 S,P,D,F,PX,PY,PZ,D-Z2,D-X2Y2,D-XY,D-XZ,D-YZ 
:QTL003: 1.9476 4.5792 0.6670 4.5448 2.6754 2.6524 2.6876 0.1348 0.1442 0.1306 0.1469 0.1373
        Q-s-low E-s-low   Q-p-low E-p-low   Q-d-low E-d-low   Q-f-low E-f-low
:EPL003:  1.8806 -1.9500    4.4732 -0.0336    0.0316  0.0856    0.0154  0.1109
        Q-s-hi  E-s-hi    Q-p-hi  E-p-hi    Q-d-hi  E-d-hi    Q-f-hi  E-f-hi 
:EPH003:  0.0670  1.2473    0.1060  1.2911    0.6354  1.2802    4.5293  1.3630

                      QXX         QXY         QYY         QZZ       UP TO R

:VZZ003:            -4.76280   -14.30734     3.30332     1.45948       2.150

:CHA004: TOTAL CHARGE INSIDE SPHERE   4 =    11.724486
:PCS004: PARTIAL CHARGES SPHERE =  4 S,P,D,F,PX,PY,PZ,D-Z2,D-X2Y2,D-XY,D-XZ,D-YZ 
:QTL004: 1.9506 4.5897 0.6474 4.5312 2.6820 2.6745 2.6791 0.1316 0.1309 0.1353 0.1317 0.1426
        Q-s-low E-s-low   Q-p-low E-p-low   Q-d-low E-d-low   Q-f-low E-f-low
:EPL004:  1.8798 -1.9521    4.4695 -0.0350    0.0282  0.0777    0.0137  0.1023
        Q-s-hi  E-s-hi    Q-p-hi  E-p-hi    Q-d-hi  E-d-hi    Q-f-hi  E-f-hi 
:EPH004:  0.0708  1.2490    0.1202  1.2890    0.6192  1.2796    4.5175  1.3653

                      QXX         QXY         QYY         QZZ       UP TO R

:VZZ004:            -2.50367    13.47016     1.87309     0.63058       2.150

:CHA005: TOTAL CHARGE INSIDE SPHERE   5 =    11.716727
:PCS005: PARTIAL CHARGES SPHERE =  5 S,P,D,F,PX,PY,PZ,D-Z2,D-X2Y2,D-XY,D-XZ,D-YZ 
:QTL005: 1.9492 4.5922 0.6501 4.5197 2.6113 2.7343 2.6943 0.1326 0.1301 0.1314 0.1280 0.1530
        Q-s-low E-s-low   Q-p-low E-p-low   Q-d-low E-d-low   Q-f-low E-f-low
:EPL005:  1.8799 -1.9511    4.4745 -0.0324    0.0282  0.0798    0.0137  0.0971
        Q-s-hi  E-s-hi    Q-p-hi  E-p-hi    Q-d-hi  E-d-hi    Q-f-hi  E-f-hi 
:EPH005:  0.0692  1.2479    0.1177  1.2894    0.6218  1.2806    4.5060  1.3692

                      QXX         QXY         QYY         QZZ       UP TO R

:VZZ005:           -41.32100     5.22073    27.97690    13.34410       2.150

:CHA006: TOTAL CHARGE INSIDE SPHERE   6 =    11.701571
:PCS006: PARTIAL CHARGES SPHERE =  6 S,P,D,F,PX,PY,PZ,D-Z2,D-X2Y2,D-XY,D-XZ,D-YZ 
:QTL006: 1.9507 4.5831 0.6315 4.5313 2.6759 2.6690 2.6939 0.1241 0.1240 0.1372 0.1321 0.1378
        Q-s-low E-s-low   Q-p-low E-p-low   Q-d-low E-d-low   Q-f-low E-f-low
:EPL006:  1.8792 -1.9523    4.4770 -0.0321    0.0260  0.0869    0.0124  0.1110
        Q-s-hi  E-s-hi    Q-p-hi  E-p-hi    Q-d-hi  E-d-hi    Q-f-hi  E-f-hi 
:EPH006:  0.0715  1.2390    0.1061  1.2885    0.6055  1.2807    4.5188  1.3674

                      QXX         QXY         QYY         QZZ       UP TO R

:VZZ006:           -11.24062    -9.94598     0.97476    10.26586       2.150

:CHA007: TOTAL CHARGE INSIDE SPHERE   7 =    11.749797
:PCS007: PARTIAL CHARGES SPHERE =  7 S,P,D,F,PX,PY,PZ,D-Z2,D-X2Y2,D-XY,D-XZ,D-YZ 
:QTL007: 1.9463 4.5876 0.6654 4.5438 2.7191 2.6527 2.6857 0.1374 0.1206 0.1463 0.1571 0.1320
        Q-s-low E-s-low   Q-p-low E-p-low   Q-d-low E-d-low   Q-f-low E-f-low
:EPL007:  1.8812 -1.9493    4.4765 -0.0331    0.0334  0.0684    0.0167  0.0871
        Q-s-hi  E-s-hi    Q-p-hi  E-p-hi    Q-d-hi  E-d-hi    Q-f-hi  E-f-hi 
:EPH007:  0.0652  1.2437    0.1111  1.2850    0.6320  1.2792    4.5272  1.3614

                      QXX         QXY         QYY         QZZ       UP TO R

:VZZ007:             4.05911    10.54684   -15.04739    10.98828       2.150

:CHA008: TOTAL CHARGE INSIDE SPHERE   8 =    11.621270
:PCS008: PARTIAL CHARGES SPHERE =  8 S,P,D,F,PX,PY,PZ,D-Z2,D-X2Y2,D-XY,D-XZ,D-YZ 
:QTL008: 1.9515 4.6132 0.5367 4.5165 2.6545 2.7404 2.7486 0.1182 0.0971 0.1060 0.1085 0.1235
        Q-s-low E-s-low   Q-p-low E-p-low   Q-d-low E-d-low   Q-f-low E-f-low
:EPL008:  1.8768 -1.9523    4.4817 -0.0267    0.0153  0.0966    0.0071  0.1108
        Q-s-hi  E-s-hi    Q-p-hi  E-p-hi    Q-d-hi  E-d-hi    Q-f-hi  E-f-hi 
:EPH008:  0.0747  1.2395    0.1315  1.2832    0.5215  1.2818    4.5094  1.3619

                      QXX         QXY         QYY         QZZ       UP TO R

:VZZ008:           -43.19323     5.50305    28.44686    14.74636       2.150

:CHA  : TOTAL CHARGE INSIDE UNIT CELL =     256.000000

:ESUM  : SUM OF EIGENVALUES =         106.886939718


------- alpha_Pu_4.scfc --------

        1.ATOM      Pu  0+               21 CORE STATES
       CORE-FORCE in mRy/a.u. = |F|      Fx             Fy             Fz
:FCO001:   1.ATOM       3091.587      -2932.614       -978.612          0.000

:1S 001: 1S               -8966.342111364 Ry
:2S 001: 2S               -1687.015587930 Ry
:2PP001: 2P*              -1627.708829691 Ry
:2P 001: 2P               -1314.557758344 Ry
:3S 001: 3S                -427.559643582 Ry
:3PP001: 3P*               -400.635118103 Ry
:3P 001: 3P                -328.073941006 Ry
:3DD001: 3D*               -285.833610163 Ry
:3D 001: 3D                -271.291472159 Ry
:4S 001: 4S                -109.040066235 Ry
:4PP001: 4P*                -96.852226979 Ry
:4P 001: 4P                 -77.706698252 Ry
:4DD001: 4D*                -58.419301427 Ry
:4D 001: 4D                 -54.924683644 Ry
:5S 001: 5S                 -23.193949849 Ry
:5PP001: 5P*                -18.375809241 Ry
:5P 001: 5P                 -13.686028098 Ry
:4FF001: 4F*                -29.524973289 Ry
:4F 001: 4F                 -28.596877587 Ry
:5DD001: 5D*                 -6.649562449 Ry
:5D 001: 5D                  -5.950183141 Ry

        2.ATOM      Pu  0+               21 CORE STATES
       CORE-FORCE in mRy/a.u. = |F|      Fx             Fy             Fz
:FCO002:   2.ATOM       1442.417        210.805      -1426.930          0.000

:1S 002: 1S               -8966.339835624 Ry
:2S 002: 2S               -1687.013944292 Ry
:2PP002: 2P*              -1627.707175102 Ry
:2P 002: 2P               -1314.556123003 Ry
:3S 002: 3S                -427.557068056 Ry
:3PP002: 3P*               -400.632588768 Ry
:3P 002: 3P                -328.071356550 Ry
:3DD002: 3D*               -285.831200262 Ry
:3D 002: 3D                -271.289022052 Ry
:4S 002: 4S                -109.037817976 Ry
:4PP002: 4P*                -96.849979545 Ry
:4P 002: 4P                 -77.704542268 Ry
:4DD002: 4D*                -58.417156588 Ry
:4D 002: 4D                 -54.922562128 Ry
:5S 002: 5S                 -23.192518813 Ry
:5PP002: 5P*                -18.374478295 Ry
:5P 002: 5P                 -13.685031036 Ry
:4FF002: 4F*                -29.522713040 Ry
:4F 002: 4F                 -28.594631542 Ry
:5DD002: 5D*                 -6.648944819 Ry
:5D 002: 5D                  -5.949678905 Ry

        3.ATOM      Pu  0+               21 CORE STATES
       CORE-FORCE in mRy/a.u. = |F|      Fx             Fy             Fz
:FCO003:   3.ATOM       5696.275      -4258.290      -3783.453          0.000

:1S 003: 1S               -8966.337484910 Ry
:2S 003: 2S               -1687.011228833 Ry
:2PP003: 2P*              -1627.704521467 Ry
:2P 003: 2P               -1314.553408984 Ry
:3S 003: 3S                -427.554285548 Ry
:3PP003: 3P*               -400.629813378 Ry
:3P 003: 3P                -328.068573432 Ry
:3DD003: 3D*               -285.828401233 Ry
:3D 003: 3D                -271.286221871 Ry
:4S 003: 4S                -109.035023641 Ry
:4PP003: 4P*                -96.847185920 Ry
:4P 003: 4P                 -77.701744123 Ry
:4DD003: 4D*                -58.414352761 Ry
:4D 003: 4D                 -54.919756608 Ry
:5S 003: 5S                 -23.189658669 Ry
:5PP003: 5P*                -18.371619943 Ry
:5P 003: 5P                 -13.682178807 Ry
:4FF003: 4F*                -29.519905195 Ry
:4F 003: 4F                 -28.591823119 Ry
:5DD003: 5D*                 -6.646110980 Ry
:5D 003: 5D                  -5.946853350 Ry

        4.ATOM      Pu  0+               21 CORE STATES
       CORE-FORCE in mRy/a.u. = |F|      Fx             Fy             Fz
:FCO004:   4.ATOM       3133.893       3084.382        554.863          0.000

:1S 004: 1S               -8966.337778833 Ry
:2S 004: 2S               -1687.012110120 Ry
:2PP004: 2P*              -1627.705305239 Ry
:2P 004: 2P               -1314.554291141 Ry
:3S 004: 3S                -427.555331743 Ry
:3PP004: 3P*               -400.630844814 Ry
:3P 004: 3P                -328.069624262 Ry
:3DD004: 3D*               -285.829465273 Ry
:3D 004: 3D                -271.287290629 Ry
:4S 004: 4S                -109.036121614 Ry
:4PP004: 4P*                -96.848282381 Ry
:4P 004: 4P                 -77.702855345 Ry
:4DD004: 4D*                -58.415471605 Ry
:4D 004: 4D                 -54.920880590 Ry
:5S 004: 5S                 -23.190949364 Ry
:5PP004: 5P*                -18.372916730 Ry
:5P 004: 5P                 -13.683496140 Ry
:4FF004: 4F*                -29.521034646 Ry
:4F 004: 4F                 -28.592954590 Ry
:5DD004: 5D*                 -6.647437409 Ry
:5D 004: 5D                  -5.948180005 Ry

        5.ATOM      Pu  0+               21 CORE STATES
       CORE-FORCE in mRy/a.u. = |F|      Fx             Fy             Fz
:FCO005:   5.ATOM       1944.837      -1008.238      -1663.084          0.000

:1S 005: 1S               -8966.338347231 Ry
:2S 005: 2S               -1687.012807474 Ry
:2PP005: 2P*              -1627.705960043 Ry
:2P 005: 2P               -1314.554984993 Ry
:3S 005: 3S                -427.556263364 Ry
:3PP005: 3P*               -400.631761809 Ry
:3P 005: 3P                -328.070558255 Ry
:3DD005: 3D*               -285.830375213 Ry
:3D 005: 3D                -271.288209534 Ry
:4S 005: 4S                -109.036998551 Ry
:4PP005: 4P*                -96.849158607 Ry
:4P 005: 4P                 -77.703716204 Ry
:4DD005: 4D*                -58.416334386 Ry
:4D 005: 4D                 -54.921739841 Ry
:5S 005: 5S                 -23.191696450 Ry
:5PP005: 5P*                -18.373634883 Ry
:5P 005: 5P                 -13.684113490 Ry
:4FF005: 4F*                -29.521923317 Ry
:4F 005: 4F                 -28.593840813 Ry
:5DD005: 5D*                 -6.647895119 Ry
:5D 005: 5D                  -5.948582943 Ry

        6.ATOM      Pu  0+               21 CORE STATES
       CORE-FORCE in mRy/a.u. = |F|      Fx             Fy             Fz
:FCO006:   6.ATOM       5413.724      -4395.592      -3160.249          0.000

:1S 006: 1S               -8966.337405331 Ry
:2S 006: 2S               -1687.011290614 Ry
:2PP006: 2P*              -1627.704606700 Ry
:2P 006: 2P               -1314.553476379 Ry
:3S 006: 3S                -427.553875413 Ry
:3PP006: 3P*               -400.629428753 Ry
:3P 006: 3P                -328.068158387 Ry
:3DD006: 3D*               -285.828062515 Ry
:3D 006: 3D                -271.285863400 Ry
:4S 006: 4S                -109.034749023 Ry
:4PP006: 4P*                -96.846912231 Ry
:4P 006: 4P                 -77.701508303 Ry
:4DD006: 4D*                -58.414120090 Ry
:4D 006: 4D                 -54.919533229 Ry
:5S 006: 5S                 -23.189703729 Ry
:5PP006: 5P*                -18.371707274 Ry
:5P 006: 5P                 -13.682405840 Ry
:4FF006: 4F*                -29.519616833 Ry
:4F 006: 4F                 -28.591540715 Ry
:5DD006: 5D*                 -6.646490950 Ry
:5D 006: 5D                  -5.947278244 Ry

        7.ATOM      Pu  0+               21 CORE STATES
       CORE-FORCE in mRy/a.u. = |F|      Fx             Fy             Fz
:FCO007:   7.ATOM       5330.503       3574.268      -3954.601          0.000

:1S 007: 1S               -8966.336709265 Ry
:2S 007: 2S               -1687.010706604 Ry
:2PP007: 2P*              -1627.703939116 Ry
:2P 007: 2P               -1314.552881747 Ry
:3S 007: 3S                -427.553953245 Ry
:3PP007: 3P*               -400.629466721 Ry
:3P 007: 3P                -328.068244537 Ry
:3DD007: 3D*               -285.828061653 Ry
:3D 007: 3D                -271.285889384 Ry
:4S 007: 4S                -109.034705783 Ry
:4PP007: 4P*                -96.846866620 Ry
:4P 007: 4P                 -77.701427794 Ry
:4DD007: 4D*                -58.414039156 Ry
:4D 007: 4D                 -54.919444670 Ry
:5S 007: 5S                 -23.189407823 Ry
:5PP007: 5P*                -18.371368815 Ry
:5P 007: 5P                 -13.681929302 Ry
:4FF007: 4F*                -29.519608247 Ry
:4F 007: 4F                 -28.591526461 Ry
:5DD007: 5D*                 -6.645872188 Ry
:5D 007: 5D                  -5.946619352 Ry

        8.ATOM      Pu  0+               21 CORE STATES
       CORE-FORCE in mRy/a.u. = |F|      Fx             Fy             Fz
:FCO008:   8.ATOM       1095.144      -1027.255       -379.588          0.000

:1S 008: 1S               -8966.326715607 Ry
:2S 008: 2S               -1687.000980793 Ry
:2PP008: 2P*              -1627.694345578 Ry
:2P 008: 2P               -1314.543166005 Ry
:3S 008: 3S                -427.542143779 Ry
:3PP008: 3P*               -400.617766648 Ry
:3P 008: 3P                -328.056418281 Ry
:3DD008: 3D*               -285.816543969 Ry
:3D 008: 3D                -271.274287936 Ry
:4S 008: 4S                -109.023649946 Ry
:4PP008: 4P*                -96.835812511 Ry
:4P 008: 4P                 -77.690574911 Ry
:4DD008: 4D*                -58.403190856 Ry
:4D 008: 4D                 -54.908647205 Ry
:5S 008: 5S                 -23.180122322 Ry
:5PP008: 5P*                -18.362329194 Ry
:5P 008: 5P                 -13.673718141 Ry
:4FF008: 4F*                -29.508506565 Ry
:4F 008: 4F                 -28.580456276 Ry
:5DD008: 5D*                 -6.638698220 Ry
:5D 008: 5D                  -5.939775945 Ry

------- alpha_Pu_4.scfm --------

       DENSITY AT NUCLEUS
        JATOM    VALENCE       SEMI-CORE            CORE           TOTAL
:RTO001:   1    23364.046090        0.000000 45141829.219154 45165193.265244
:RTO002:   2    23488.730617        0.000000 45141821.914133 45165310.644751
:RTO003:   3    23475.758503        0.000000 45141823.669326 45165299.427829
:RTO004:   4    23533.350282        0.000000 45141819.852758 45165353.203041
:RTO005:   5    23512.239022        0.000000 45141820.407350 45165332.646372
:RTO006:   6    23538.383290        0.000000 45141821.291105 45165359.674395
:RTO007:   7    23449.937905        0.000000 45141822.123390 45165272.061295
:RTO008:   8    23548.906549        0.000000 45141810.138259 45165359.044808
     
       CHARGES OF NEW CHARGE DENSITY
:NTO  : TOTAL   INTERSTITIAL CHARGE=   68.3702975
:NTO001: TOTAL   CHARGE IN SPHERE  1 =       89.8179459
:NTO002: TOTAL   CHARGE IN SPHERE  2 =       89.7198328
:NTO003: TOTAL   CHARGE IN SPHERE  3 =       89.7353638
:NTO004: TOTAL   CHARGE IN SPHERE  4 =       89.7152314
:NTO005: TOTAL   CHARGE IN SPHERE  5 =       89.7074850
:NTO006: TOTAL   CHARGE IN SPHERE  6 =       89.6923222
:NTO007: TOTAL   CHARGE IN SPHERE  7 =       89.7405302
:NTO008: TOTAL   CHARGE IN SPHERE  8 =       89.6120126

:NEC01: NUCLEAR AND ELECTRONIC CHARGE   1504.00000  1503.85175     1.00010
     
       CHARGES OF OLD CHARGE DENSITY
:OTO  : TOTAL   INTERSTITIAL CHARGE=   68.8619695
:OTO001: TOTAL   CHARGE IN SPHERE  1 =       89.7885122
:OTO002: TOTAL   CHARGE IN SPHERE  2 =       89.6982132
:OTO003: TOTAL   CHARGE IN SPHERE  3 =       89.7120265
:OTO004: TOTAL   CHARGE IN SPHERE  4 =       89.6943081
:OTO005: TOTAL   CHARGE IN SPHERE  5 =       89.6887325
:OTO006: TOTAL   CHARGE IN SPHERE  6 =       89.6716868
:OTO007: TOTAL   CHARGE IN SPHERE  7 =       89.7183498
:OTO008: TOTAL   CHARGE IN SPHERE  8 =       89.5971861

:NEC02: NUCLEAR AND ELECTRONIC CHARGE   1504.00000  1504.00000     1.00000
     
       CONVERGENCE TEST
:DTO001: TOTAL   DIFFERENCE CHARGE**2 IN SPHERE  1 =  0.0300013
:DTO002: TOTAL   DIFFERENCE CHARGE**2 IN SPHERE  2 =  0.0238874
:DTO003: TOTAL   DIFFERENCE CHARGE**2 IN SPHERE  3 =  0.0250820
:DTO004: TOTAL   DIFFERENCE CHARGE**2 IN SPHERE  4 =  0.0232368
:DTO005: TOTAL   DIFFERENCE CHARGE**2 IN SPHERE  5 =  0.0220153
:DTO006: TOTAL   DIFFERENCE CHARGE**2 IN SPHERE  6 =  0.0235394
:DTO007: TOTAL   DIFFERENCE CHARGE**2 IN SPHERE  7 =  0.0242443
:DTO008: TOTAL   DIFFERENCE CHARGE**2 IN SPHERE  8 =  0.0178420

:DIS  :  CHARGE DISTANCE       ( 0.0300013 for atom    1 spin 1)      0.0237310
:BIG check (qbig,qrms,qtot)    0.100D-01   0.169D-01   0.237D-01
 
******************************************************
* MULTISECANT MIXING VER4 OPTIONS                    *
* Unpredicted Step Limit   0.100000                  *
* Plane Wave Dynamic Rescaling                       *
* Dynamic Regularization active                      *
* Upper Cutoff Lambda  1.0E-01 Lower 3.5E-04         *
* SQRT Multiplicity/Degeneracy                       *
* Max Number of Memory Steps    8                    *
******************************************************
 
:PLANE:  INTERSTITIAL TOTAL      7.61131 DISTAN  1.403E-01 % 
:CHARG:  CLM CHARGE   /ATOM    356.61311 DISTAN  7.897E-03 % 
:MIX  :  PRATT  REGULARIZATION: 3.50E-04  GREED: 0.035
     
       CHARGES OF MIXED CHARGE DENSITY
:CTO  : TOTAL   INTERSTITIAL CHARGE=   68.8499499
:CTO001: TOTAL   CHARGE IN SPHERE  1 =       89.7895424
:CTO002: TOTAL   CHARGE IN SPHERE  2 =       89.6989699
:CTO003: TOTAL   CHARGE IN SPHERE  3 =       89.7128433
:CTO004: TOTAL   CHARGE IN SPHERE  4 =       89.6950404
:CTO005: TOTAL   CHARGE IN SPHERE  5 =       89.6893888
:CTO006: TOTAL   CHARGE IN SPHERE  6 =       89.6724091
:CTO007: TOTAL   CHARGE IN SPHERE  7 =       89.7191261
:CTO008: TOTAL   CHARGE IN SPHERE  8 =       89.5977051

:NEC03: NUCLEAR AND ELECTRONIC CHARGE   1504.00000  1504.00000     1.00000


:ENE  : ********** TOTAL ENERGY IN Ry =      -949675.84706232

       TOTAL FORCE IN mRy/a.u. = |F|     Fx             Fy             Fz     with/without FOR in case.in2
:FOR001:   1.ATOM        100.384         99.742        -11.339          0.000 partial forces
:FOR002:   2.ATOM         78.745        -73.144         29.166          0.000 partial forces
:FOR003:   3.ATOM         67.155         48.284         46.674          0.000 partial forces
:FOR004:   4.ATOM         61.777        -45.494        -41.793          0.000 partial forces
:FOR005:   5.ATOM         38.810         36.750        -12.476          0.000 partial forces
:FOR006:   6.ATOM         51.451         40.481         31.756          0.000 partial forces
:FOR007:   7.ATOM        148.923       -146.308        -27.783          0.000 partial forces
:FOR008:   8.ATOM         63.497         36.660         51.845          0.000 partial forces

       TOTAL FORCE WITH RESPECT TO GLOBAL CARTESIAN COORDINATES:
:FCA001:   1.ATOM                       -11.339          0.000         99.742 partial forces
:FCA002:   2.ATOM                        29.166          0.000        -73.144 partial forces
:FCA003:   3.ATOM                        46.674          0.000         48.284 partial forces
:FCA004:   4.ATOM                       -41.793          0.000        -45.494 partial forces
:FCA005:   5.ATOM                       -12.476          0.000         36.750 partial forces
:FCA006:   6.ATOM                        31.756          0.000         40.481 partial forces
:FCA007:   7.ATOM                       -27.783          0.000       -146.308 partial forces
:FCA008:   8.ATOM                        51.845          0.000         36.660 partial forces

       TOTAL FORCE WITH RESPECT TO THE GLOBAL COORDINATE SYSTEM:
:FGL001:   1.ATOM               -11.583247102     0.000000000    97.375844377 partial forces
:FGL002:   2.ATOM                29.794248610     0.000000000   -67.057811190 partial forces
:FGL003:   3.ATOM                47.679378715     0.000000000    58.023654958 partial forces
:FGL004:   4.ATOM               -42.693239805     0.000000000   -54.215116674 partial forces
:FGL005:   5.ATOM               -12.744738588     0.000000000    34.146581925 partial forces
:FGL006:   6.ATOM                32.440038362     0.000000000    47.107654729 partial forces
:FGL007:   7.ATOM               -28.381458175     0.000000000  -152.105592529 partial forces
:FGL008:   8.ATOM                52.961764355     0.000000000    47.478708730 partial forces

------- alpha_Pu_4.scf0 --------


            ---------
:ITE083: 83. ITERATION
            ---------

:NATO :    8 INDEPENDENT AND   16 TOTAL ATOMS IN UNITCELL
       SUBSTANCE: alpha_Pu                                                    

       LATTICE                      = P   
:POT  : POTENTIAL OPTION    5
:LAT  : LATTICE CONSTANTS= 11.68196  9.11370 20.72007    1.571    1.777    1.571
:VOL  : UNIT CELL VOLUME =    2159.46658
       MODE OF CALCULATION IS       = RELA
       NON-SPINPOLARIZED CALCULATION
:IFFT  : FFT-parameters:   96   72  160 Factor: 2.00
       ATOMNUMBER=  1 Pu  0+     VCOUL-ZERO =  0.57445E+00
:EFG001:                        EFG         =   -18.35055   *10**21  V / m**2
                               V20  TOT/SRF=     3.39954    -0.07847
                               V22  TOT/SRF=     5.45581     0.08300
                               V22M TOT/SRF=   -15.45299    -0.06107
                               V21  TOT/SRF=     0.00000     0.00000
                               V21M TOT/SRF=     0.00000     0.00000

              3.49309  -15.45299    0.00000       14.42510    0.00000    0.00000
            -15.45299   -7.41854    0.00000        0.00000  -18.35055    0.00000
              0.00000    0.00000    3.92545        0.00000    0.00000    3.92545

         MAIN DIRECTIONS OF THE EFG   1.0000  0.7074  0.0000
                                     -0.7074  1.0000  0.0000
                                      0.0000  0.0000  1.0000
:ANG001:  ANGLE WITH OLD X-AXIS =        35.3

:ETA001:                         ASYMM. ETA =     0.57217


       ATOMNUMBER=  2 Pu  0+     VCOUL-ZERO =  0.57930E+00
:EFG002:                        EFG         =   -29.68696   *10**21  V / m**2
                               V20  TOT/SRF=     9.24683     0.01374
                               V22  TOT/SRF=   -19.92723    -0.07143
                               V22M TOT/SRF=    13.99090     0.05749
                               V21  TOT/SRF=     0.00000     0.00000
                               V21M TOT/SRF=     0.00000     0.00000

            -25.26589   13.99090    0.00000      -29.68696    0.00000    0.00000
             13.99090   14.58856    0.00000        0.00000   19.00963    0.00000
              0.00000    0.00000   10.67732        0.00000    0.00000   10.67732

         MAIN DIRECTIONS OF THE EFG   1.0000  0.3160  0.0000
                                     -0.3160  1.0000  0.0000
                                      0.0000  0.0000  1.0000
:ANG002:  ANGLE WITH OLD X-AXIS =        17.5

:ETA002:                         ASYMM. ETA =     0.28067


       ATOMNUMBER=  3 Pu  0+     VCOUL-ZERO =  0.58066E+00
:EFG003:                        EFG         =   -15.68266   *10**21  V / m**2
                               V20  TOT/SRF=     1.44247    -0.00097
                               V22  TOT/SRF=    -3.93153    -0.00127
                               V22M TOT/SRF=   -14.31996    -0.00578
                               V21  TOT/SRF=     0.00000     0.00000
                               V21M TOT/SRF=     0.00000     0.00000

             -4.76434  -14.31996    0.00000      -15.68266    0.00000    0.00000
            -14.31996    3.09872    0.00000        0.00000   14.01705    0.00000
              0.00000    0.00000    1.66562        0.00000    0.00000    1.66562

         MAIN DIRECTIONS OF THE EFG   1.0000 -0.7625  0.0000
                                      0.7625  1.0000  0.0000
                                      0.0000  0.0000  1.0000
:ANG003:  ANGLE WITH OLD X-AXIS =        37.3

:ETA003:                         ASYMM. ETA =     0.78758


       ATOMNUMBER=  4 Pu  0+     VCOUL-ZERO =  0.58073E+00
:EFG004:                        EFG         =   -14.33532   *10**21  V / m**2
                               V20  TOT/SRF=     0.68624    -0.01289
                               V22  TOT/SRF=    -2.26195     0.01314
                               V22M TOT/SRF=    13.75436     0.02181
                               V21  TOT/SRF=     0.00000     0.00000
                               V21M TOT/SRF=     0.00000     0.00000

             -2.65815   13.75436    0.00000      -14.33532    0.00000    0.00000
             13.75436    1.86575    0.00000        0.00000   13.54291    0.00000
              0.00000    0.00000    0.79241        0.00000    0.00000    0.79241

         MAIN DIRECTIONS OF THE EFG   1.0000  0.8490  0.0000
                                     -0.8490  1.0000  0.0000
                                      0.0000  0.0000  1.0000
:ANG004:  ANGLE WITH OLD X-AXIS =        40.3

:ETA004:                         ASYMM. ETA =     0.88945


       ATOMNUMBER=  5 Pu  0+     VCOUL-ZERO =  0.58362E+00
:EFG005:                        EFG         =   -42.22186   *10**21  V / m**2
                               V20  TOT/SRF=    11.68433     0.01338
                               V22  TOT/SRF=   -35.07869    -0.09507
                               V22M TOT/SRF=     5.29393     0.03694
                               V21  TOT/SRF=     0.00000     0.00000
                               V21M TOT/SRF=     0.00000     0.00000

            -41.82464    5.29393    0.00000      -42.22186    0.00000    0.00000
              5.29393   28.33274    0.00000        0.00000   28.72996    0.00000
              0.00000    0.00000   13.49190        0.00000    0.00000   13.49190

         MAIN DIRECTIONS OF THE EFG   1.0000  0.0750  0.0000
                                     -0.0750  1.0000  0.0000
                                      0.0000  0.0000  1.0000
:ANG005:  ANGLE WITH OLD X-AXIS =         4.3

:ETA005:                         ASYMM. ETA =     0.36090


       ATOMNUMBER=  6 Pu  0+     VCOUL-ZERO =  0.58280E+00
:EFG006:                        EFG         =   -16.57707   *10**21  V / m**2
                               V20  TOT/SRF=     8.82049     0.00022
                               V22  TOT/SRF=    -5.86440    -0.00579
                               V22M TOT/SRF=    -9.87440    -0.04942
                               V21  TOT/SRF=     0.00000     0.00000
                               V21M TOT/SRF=     0.00000     0.00000

            -10.95691   -9.87440    0.00000      -16.57707    0.00000    0.00000
             -9.87440    0.77189    0.00000        0.00000    6.39205    0.00000
              0.00000    0.00000   10.18502        0.00000    0.00000   10.18502

         MAIN DIRECTIONS OF THE EFG   1.0000 -0.5692  0.0000
                                      0.5692  1.0000  0.0000
                                      0.0000  0.0000  1.0000
:ANG006:  ANGLE WITH OLD X-AXIS =        29.6

:ETA006:                         ASYMM. ETA =     0.22881


       ATOMNUMBER=  7 Pu  0+     VCOUL-ZERO =  0.57931E+00
:EFG007:                        EFG         =   -19.63902   *10**21  V / m**2
                               V20  TOT/SRF=     9.72052    -0.00134
                               V22  TOT/SRF=     9.58042     0.07046
                               V22M TOT/SRF=    10.24542     0.01264
                               V21  TOT/SRF=     0.00000     0.00000
                               V21M TOT/SRF=     0.00000     0.00000

              3.96828   10.24542    0.00000        8.41473    0.00000    0.00000
             10.24542  -15.19257    0.00000        0.00000  -19.63902    0.00000
              0.00000    0.00000   11.22430        0.00000    0.00000   11.22430

         MAIN DIRECTIONS OF THE EFG   1.0000 -0.4340  0.0000
                                      0.4340  1.0000  0.0000
                                      0.0000  0.0000  1.0000
:ANG007:  ANGLE WITH OLD X-AXIS =        23.5

:ETA007:                         ASYMM. ETA =     0.14306


       ATOMNUMBER=  8 Pu  0+     VCOUL-ZERO =  0.58369E+00
:EFG008:                        EFG         =   -43.58015   *10**21  V / m**2
                               V20  TOT/SRF=    12.58530     0.03122
                               V22  TOT/SRF=   -35.92147    -0.03735
                               V22M TOT/SRF=     5.32512    -0.00256
                               V21  TOT/SRF=     0.00000     0.00000
                               V21M TOT/SRF=     0.00000     0.00000

            -43.18759    5.32512    0.00000      -43.58015    0.00000    0.00000
              5.32512   28.65534    0.00000        0.00000   29.04790    0.00000
              0.00000    0.00000   14.53225        0.00000    0.00000   14.53225

         MAIN DIRECTIONS OF THE EFG   1.0000  0.0737  0.0000
                                     -0.0737  1.0000  0.0000
                                      0.0000  0.0000  1.0000
:ANG008:  ANGLE WITH OLD X-AXIS =         4.2

:ETA008:                         ASYMM. ETA =     0.33308


     HELLMANN-FEYNMAN-FORCE IN mRy/a.u. = |F|  Fx       Fy             Fz
:FHF001:   1.ATOM       3182.130       3031.163        968.503          0.000

     HELLMANN-FEYNMAN-FORCE IN mRy/a.u. = |F|  Fx       Fy             Fz
:FHF002:   2.ATOM       1479.926       -284.345       1452.353          0.000

     HELLMANN-FEYNMAN-FORCE IN mRy/a.u. = |F|  Fx       Fy             Fz
:FHF003:   3.ATOM       5761.890       4304.001       3830.790          0.000

     HELLMANN-FEYNMAN-FORCE IN mRy/a.u. = |F|  Fx       Fy             Fz
:FHF004:   4.ATOM       3186.803      -3130.240       -597.756          0.000

     HELLMANN-FEYNMAN-FORCE IN mRy/a.u. = |F|  Fx       Fy             Fz
:FHF005:   5.ATOM       1952.182       1043.785       1649.705          0.000

     HELLMANN-FEYNMAN-FORCE IN mRy/a.u. = |F|  Fx       Fy             Fz
:FHF006:   6.ATOM       5463.981       4434.921       3191.639          0.000

     HELLMANN-FEYNMAN-FORCE IN mRy/a.u. = |F|  Fx       Fy             Fz
:FHF007:   7.ATOM       5409.312      -3718.002       3929.009          0.000

     HELLMANN-FEYNMAN-FORCE IN mRy/a.u. = |F|  Fx       Fy             Fz
:FHF008:   8.ATOM       1147.499       1064.382        428.773          0.000

:FIT001: LUSE= 13 SIGMA OF V-XC FIT FOR ATOM  1  0.3125173E-03
:FIT001: LUSE= 13 SIGMA OF V-XC FIT FOR ATOM  1  0.3125173E-03
:FIT002: LUSE= 13 SIGMA OF V-XC FIT FOR ATOM  2  0.1589251E-03
:FIT002: LUSE= 13 SIGMA OF V-XC FIT FOR ATOM  2  0.1589251E-03
:FIT003: LUSE= 13 SIGMA OF V-XC FIT FOR ATOM  3  0.1724345E-03
:FIT003: LUSE= 13 SIGMA OF V-XC FIT FOR ATOM  3  0.1724345E-03
:FIT004: LUSE= 13 SIGMA OF V-XC FIT FOR ATOM  4  0.1796683E-03
:FIT004: LUSE= 13 SIGMA OF V-XC FIT FOR ATOM  4  0.1796683E-03
:FIT005: LUSE= 13 SIGMA OF V-XC FIT FOR ATOM  5  0.1389550E-03
:FIT005: LUSE= 13 SIGMA OF V-XC FIT FOR ATOM  5  0.1389550E-03
:FIT006: LUSE= 13 SIGMA OF V-XC FIT FOR ATOM  6  0.1089866E-03
:FIT006: LUSE= 13 SIGMA OF V-XC FIT FOR ATOM  6  0.1089866E-03
:FIT007: LUSE= 13 SIGMA OF V-XC FIT FOR ATOM  7  0.3184593E-03
:FIT007: LUSE= 13 SIGMA OF V-XC FIT FOR ATOM  7  0.3184593E-03
:FIT008: LUSE= 13 SIGMA OF V-XC FIT FOR ATOM  8  0.7561533E-04
:FIT008: LUSE= 13 SIGMA OF V-XC FIT FOR ATOM  8  0.7561533E-04
:DEN  : DENSITY INTEGRAL  =       -350557.19540159   (Ry)
       ELS_POTENTIAL_AT Z=0 and Z=0.5:   0.96946   0.46817
       ELS_POTENTIAL_AT Y=0 and Y=0.5:   1.21334   1.21334
:VZERO:v0,v0c,v0x   0.12304   0.96946  -0.84642 v5,v5c,v5x  -0.43475   0.46817  -0.90292
:VZERY:v0,v0c,v0x   0.41127   1.21334  -0.80207 v5,v5c,v5x   0.41127   1.21334  -0.80207
:VZERX:v0,v0c,v0x  -0.79388   0.14847  -0.94235 v5,v5c,v5x  -0.69974   0.23263  -0.93237

------- alpha_Pu_4.scf1 --------

          ATOMIC SPHERE DEPENDENT PARAMETERS FOR ATOM  Pu  0+    
:e__0001: OVERALL ENERGY PARAMETER IS    1.1978
          OVERALL BASIS SET ON ATOM IS LAPW
:E0_0001: E( 0)=    1.1978
             APW+lo
:E0_0001: E( 0)=   -2.0105   E(BOTTOM)=   -2.784   E(TOP)=   -1.237
[...]

                      QXX         QXY         QYY         QZZ       UP TO R

:VZZ004:            -2.69504    13.37813     2.05375     0.64129       2.150

:CHA005: TOTAL CHARGE INSIDE SPHERE   5 =    11.709630
:PCS005: PARTIAL CHARGES SPHERE =  5 S,P,D,F,PX,PY,PZ,D-Z2,D-X2Y2,D-XY,D-XZ,D-YZ 
:QTL005: 1.9486 4.5879 0.6475 4.5200 2.6079 2.7306 2.6904 0.1320 0.1295 0.1309 0.1275 0.1525
        Q-s-low E-s-low   Q-p-low E-p-low   Q-d-low E-d-low   Q-f-low E-f-low
:EPL005:  1.8796 -1.9465    4.4701 -0.0300    0.0284  0.0827    0.0137  0.0996
        Q-s-hi  E-s-hi    Q-p-hi  E-p-hi    Q-d-hi  E-d-hi    Q-f-hi  E-f-hi 
:EPH005:  0.0690  1.2493    0.1178  1.2919    0.6191  1.2827    4.5062  1.3735

                      QXX         QXY         QYY         QZZ       UP TO R

:VZZ005:           -40.70103     5.03921    27.44447    13.25656       2.150

:CHA006: TOTAL CHARGE INSIDE SPHERE   6 =    11.693480
:PCS006: PARTIAL CHARGES SPHERE =  6 S,P,D,F,PX,PY,PZ,D-Z2,D-X2Y2,D-XY,D-XZ,D-YZ 
:QTL006: 1.9502 4.5783 0.6281 4.5318 2.6720 2.6647 2.6900 0.1232 0.1234 0.1365 0.1314 0.1372
        Q-s-low E-s-low   Q-p-low E-p-low   Q-d-low E-d-low   Q-f-low E-f-low
:EPL006:  1.8788 -1.9473    4.4722 -0.0294    0.0262  0.0894    0.0124  0.1132
        Q-s-hi  E-s-hi    Q-p-hi  E-p-hi    Q-d-hi  E-d-hi    Q-f-hi  E-f-hi 
:EPH006:  0.0714  1.2403    0.1061  1.2908    0.6020  1.2828    4.5194  1.3716

                      QXX         QXY         QYY         QZZ       UP TO R

:VZZ006:           -11.27553    -9.64045     0.89835    10.37718       2.150

:CHA007: TOTAL CHARGE INSIDE SPHERE   7 =    11.740227
:PCS007: PARTIAL CHARGES SPHERE =  7 S,P,D,F,PX,PY,PZ,D-Z2,D-X2Y2,D-XY,D-XZ,D-YZ 
:QTL007: 1.9457 4.5829 0.6618 4.5432 2.7146 2.6493 2.6817 0.1365 0.1197 0.1457 0.1564 0.1314
        Q-s-low E-s-low   Q-p-low E-p-low   Q-d-low E-d-low   Q-f-low E-f-low
:EPL007:  1.8808 -1.9438    4.4716 -0.0300    0.0336  0.0719    0.0167  0.0902
        Q-s-hi  E-s-hi    Q-p-hi  E-p-hi    Q-d-hi  E-d-hi    Q-f-hi  E-f-hi 
:EPH007:  0.0649  1.2450    0.1113  1.2873    0.6282  1.2813    4.5265  1.3658

                      QXX         QXY         QYY         QZZ       UP TO R

:VZZ007:             3.40634    10.42613   -14.29799    10.89165       2.150

:CHA008: TOTAL CHARGE INSIDE SPHERE   8 =    11.616199
:PCS008: PARTIAL CHARGES SPHERE =  8 S,P,D,F,PX,PY,PZ,D-Z2,D-X2Y2,D-XY,D-XZ,D-YZ 
:QTL008: 1.9511 4.6098 0.5353 4.5166 2.6522 2.7381 2.7457 0.1178 0.0968 0.1057 0.1083 0.1232
        Q-s-low E-s-low   Q-p-low E-p-low   Q-d-low E-d-low   Q-f-low E-f-low
:EPL008:  1.8766 -1.9490    4.4781 -0.0252    0.0154  0.1006    0.0071  0.1145
        Q-s-hi  E-s-hi    Q-p-hi  E-p-hi    Q-d-hi  E-d-hi    Q-f-hi  E-f-hi 
:EPH008:  0.0745  1.2407    0.1317  1.2855    0.5199  1.2838    4.5095  1.3658

                      QXX         QXY         QYY         QZZ       UP TO R

:VZZ008:           -42.76826     5.54495    28.26006    14.50820       2.150

:CHA  : TOTAL CHARGE INSIDE UNIT CELL =     256.000000

:ESUM  : SUM OF EIGENVALUES =         107.807938473


------- alpha_Pu_4.scfc --------

        1.ATOM      Pu  0+               21 CORE STATES
       CORE-FORCE in mRy/a.u. = |F|      Fx             Fy             Fz
:FCO001:   1.ATOM       3028.867      -2880.040       -937.767          0.000

:1S 001: 1S               -8966.328886444 Ry
:2S 001: 2S               -1687.001399651 Ry
:2PP001: 2P*              -1627.694882091 Ry
:2P 001: 2P               -1314.543574198 Ry
:3S 001: 3S                -427.544218198 Ry
:3PP001: 3P*               -400.619770227 Ry
:3P 001: 3P                -328.058497666 Ry
:3DD001: 3D*               -285.818283090 Ry
:3D 001: 3D                -271.276098380 Ry
:4S 001: 4S                -109.024854941 Ry
:4PP001: 4P*                -96.837019590 Ry
:4P 001: 4P                 -77.691551905 Ry
:4DD001: 4D*                -58.404143370 Ry
:4D 001: 4D                 -54.909538465 Ry
:5S 001: 5S                 -23.179215215 Ry
:5PP001: 5P*                -18.361196840 Ry
:5P 001: 5P                 -13.671837363 Ry
:4FF001: 4F*                -29.509684673 Ry
:4F 001: 4F                 -28.581599031 Ry
:5DD001: 5D*                 -6.636023824 Ry
:5D 001: 5D                  -5.936867821 Ry

        2.ATOM      Pu  0+               21 CORE STATES
       CORE-FORCE in mRy/a.u. = |F|      Fx             Fy             Fz
:FCO002:   2.ATOM       1414.216        201.868      -1399.734          0.000

:1S 002: 1S               -8966.330179016 Ry
:2S 002: 2S               -1687.003526092 Ry
:2PP002: 2P*              -1627.696947085 Ry
:2P 002: 2P               -1314.545708170 Ry
:3S 002: 3S                -427.545677084 Ry
:3PP002: 3P*               -400.621258597 Ry
:3P 002: 3P                -328.059951991 Ry
:3DD002: 3D*               -285.819886168 Ry
:3D 002: 3D                -271.277671370 Ry
:4S 002: 4S                -109.026606167 Ry
:4PP002: 4P*                -96.838770727 Ry
:4P 002: 4P                 -77.693384171 Ry
:4DD002: 4D*                -58.405988997 Ry
:4D 002: 4D                 -54.911405483 Ry
:5S 002: 5S                 -23.181712492 Ry
:5PP002: 5P*                -18.363771234 Ry
:5P 002: 5P                 -13.674665748 Ry
:4FF002: 4F*                -29.511442368 Ry
:4F 002: 4F                 -28.583369203 Ry
:5DD002: 5D*                 -6.639103233 Ry
:5D 002: 5D                  -5.940016511 Ry

        3.ATOM      Pu  0+               21 CORE STATES
       CORE-FORCE in mRy/a.u. = |F|      Fx             Fy             Fz
:FCO003:   3.ATOM       5598.254      -4191.164      -3711.414          0.000

:1S 003: 1S               -8966.327040936 Ry
:2S 003: 2S               -1686.999989165 Ry
:2PP003: 2P*              -1627.693481801 Ry
:2P 003: 2P               -1314.542173286 Ry
:3S 003: 3S                -427.542022318 Ry
:3PP003: 3P*               -400.617614219 Ry
:3P 003: 3P                -328.056295871 Ry
:3DD003: 3D*               -285.816219234 Ry
:3D 003: 3D                -271.274001320 Ry
:4S 003: 4S                -109.022946666 Ry
:4PP003: 4P*                -96.835112135 Ry
:4P 003: 4P                 -77.689723248 Ry
:4DD003: 4D*                -58.402322009 Ry
:4D 003: 4D                 -54.907737238 Ry
:5S 003: 5S                 -23.178003825 Ry
:5PP003: 5P*                -18.360069149 Ry
:5P 003: 5P                 -13.670986463 Ry
:4FF003: 4F*                -29.507766078 Ry
:4F 003: 4F                 -28.579692697 Ry
:5DD003: 5D*                 -6.635468830 Ry
:5D 003: 5D                  -5.936399441 Ry

        4.ATOM      Pu  0+               21 CORE STATES
       CORE-FORCE in mRy/a.u. = |F|      Fx             Fy             Fz
:FCO004:   4.ATOM       3103.573       3053.911        552.983          0.000

:1S 004: 1S               -8966.328446163 Ry
:2S 004: 2S               -1687.002032999 Ry
:2PP004: 2P*              -1627.695413888 Ry
:2P 004: 2P               -1314.544217568 Ry
:3S 004: 3S                -427.544313567 Ry
:3PP004: 3P*               -400.619885372 Ry
:3P 004: 3P                -328.058593527 Ry
:3DD004: 3D*               -285.818520747 Ry
:3D 004: 3D                -271.276310867 Ry
:4S 004: 4S                -109.025287175 Ry
:4PP004: 4P*                -96.837450765 Ry
:4P 004: 4P                 -77.692075249 Ry
:4DD004: 4D*                -58.404681951 Ry
:4D 004: 4D                 -54.910102254 Ry
:5S 004: 5S                 -23.180533260 Ry
:5PP004: 5P*                -18.362599347 Ry
:5P 004: 5P                 -13.673518330 Ry
:4FF004: 4F*                -29.510144828 Ry
:4F 004: 4F                 -28.582073211 Ry
:5DD004: 5D*                 -6.637975740 Ry
:5D 004: 5D                  -5.938894869 Ry

        5.ATOM      Pu  0+               21 CORE STATES
       CORE-FORCE in mRy/a.u. = |F|      Fx             Fy             Fz
:FCO005:   5.ATOM       1905.167       -966.874      -1641.589          0.000

:1S 005: 1S               -8966.329647342 Ry
:2S 005: 2S               -1687.003389928 Ry
:2PP005: 2P*              -1627.696722031 Ry
:2P 005: 2P               -1314.545570960 Ry
:3S 005: 3S                -427.545934794 Ry
:3PP005: 3P*               -400.621490082 Ry
:3P 005: 3P                -328.060217559 Ry
:3DD005: 3D*               -285.820118131 Ry
:3D 005: 3D                -271.277918331 Ry
:4S 005: 4S                -109.026848311 Ry
:4PP005: 4P*                -96.839011098 Ry
:4P 005: 4P                 -77.693618674 Ry
:4DD005: 4D*                -58.406227641 Ry
:4D 005: 4D                 -54.911644082 Ry
:5S 005: 5S                 -23.181951885 Ry
:5PP005: 5P*                -18.363985804 Ry
:5P 005: 5P                 -13.674792731 Ry
:4FF005: 4F*                -29.511719556 Ry
:4F 005: 4F                 -28.583645236 Ry
:5DD005: 5D*                 -6.639072864 Ry
:5D 005: 5D                  -5.939931140 Ry

        6.ATOM      Pu  0+               21 CORE STATES
       CORE-FORCE in mRy/a.u. = |F|      Fx             Fy             Fz
:FCO006:   6.ATOM       5294.226      -4307.617      -3077.867          0.000

:1S 006: 1S               -8966.327973180 Ry
:2S 006: 2S               -1687.001111214 Ry
:2PP006: 2P*              -1627.694616336 Ry
:2P 006: 2P               -1314.543301068 Ry
:3S 006: 3S                -427.542727987 Ry
:3PP006: 3P*               -400.618341817 Ry
:3P 006: 3P                -328.056997803 Ry
:3DD006: 3D*               -285.816992131 Ry
:3D 006: 3D                -271.274756611 Ry
:4S 006: 4S                -109.023785158 Ry
:4PP006: 4P*                -96.835951335 Ry
:4P 006: 4P                 -77.690599327 Ry
:4DD006: 4D*                -58.403201685 Ry
:4D 006: 4D                 -54.908626150 Ry
:5S 006: 5S                 -23.179159779 Ry
:5PP006: 5P*                -18.361263886 Ry
:5P 006: 5P                 -13.672308647 Ry
:4FF006: 4F*                -29.508595578 Ry
:4F 006: 4F                 -28.580527969 Ry
:5DD006: 5D*                 -6.636922581 Ry
:5D 006: 5D                  -5.937890703 Ry

        7.ATOM      Pu  0+               21 CORE STATES
       CORE-FORCE in mRy/a.u. = |F|      Fx             Fy             Fz
:FCO007:   7.ATOM       5247.866       3530.806      -3882.461          0.000

:1S 007: 1S               -8966.326797704 Ry
:2S 007: 2S               -1687.000046673 Ry
:2PP007: 2P*              -1627.693467217 Ry
:2P 007: 2P               -1314.542225593 Ry
:3S 007: 3S                -427.542334665 Ry
:3PP007: 3P*               -400.617907947 Ry
:3P 007: 3P                -328.056613143 Ry
:3DD007: 3D*               -285.816518775 Ry
:3D 007: 3D                -271.274310556 Ry
:4S 007: 4S                -109.023274138 Ry
:4PP007: 4P*                -96.835437854 Ry
:4P 007: 4P                 -77.690051568 Ry
:4DD007: 4D*                -58.402653353 Ry
:4D 007: 4D                 -54.908070413 Ry
:5S 007: 5S                 -23.178403445 Ry
:5PP007: 5P*                -18.360465203 Ry
:5P 007: 5P                 -13.671372454 Ry
:4FF007: 4F*                -29.508120362 Ry
:4F 007: 4F                 -28.580047176 Ry
:5DD007: 5D*                 -6.635843250 Ry
:5D 007: 5D                  -5.936770981 Ry

        8.ATOM      Pu  0+               21 CORE STATES
       CORE-FORCE in mRy/a.u. = |F|      Fx             Fy             Fz
:FCO008:   8.ATOM       1097.029      -1032.418       -370.927          0.000

:1S 008: 1S               -8966.320090103 Ry
:2S 008: 2S               -1686.993755011 Ry
:2PP008: 2P*              -1627.687269622 Ry
:2P 008: 2P               -1314.535943386 Ry
:3S 008: 3S                -427.534165012 Ry
:3PP008: 3P*               -400.609835123 Ry
:3P 008: 3P                -328.048429203 Ry
:3DD008: 3D*               -285.808623843 Ry
:3D 008: 3D                -271.266339556 Ry
:4S 008: 4S                -109.015811399 Ry
:4PP008: 4P*                -96.827976330 Ry
:4P 008: 4P                 -77.682778660 Ry
:4DD008: 4D*                -58.395387052 Ry
:4D 008: 4D                 -54.900852104 Ry
:5S 008: 5S                 -23.172609240 Ry
:5PP008: 5P*                -18.354894080 Ry
:5P 008: 5P                 -13.666552346 Ry
:4FF008: 4F*                -29.500623191 Ry
:4F 008: 4F                 -28.572579465 Ry
:5DD008: 5D*                 -6.631942128 Ry
:5D 008: 5D                  -5.933159935 Ry

------- alpha_Pu_4.scfm --------

       DENSITY AT NUCLEUS
        JATOM    VALENCE       SEMI-CORE            CORE           TOTAL
:RTO001:   1    23323.538245        0.000000 45141830.023014 45165153.561259
:RTO002:   2    23458.797532        0.000000 45141822.321920 45165281.119452
:RTO003:   3    23445.050485        0.000000 45141824.089304 45165269.139789
:RTO004:   4    23505.621086        0.000000 45141820.057495 45165325.678581
:RTO005:   5    23486.015900        0.000000 45141820.589359 45165306.605260
:RTO006:   6    23512.326926        0.000000 45141821.490622 45165333.817548
:RTO007:   7    23421.936268        0.000000 45141822.274715 45165244.210983
:RTO008:   8    23528.822306        0.000000 45141810.381925 45165339.204231
     
       CHARGES OF NEW CHARGE DENSITY
:NTO  : TOTAL   INTERSTITIAL CHARGE=   68.5109523
:NTO001: TOTAL   CHARGE IN SPHERE  1 =       89.8049981
:NTO002: TOTAL   CHARGE IN SPHERE  2 =       89.7108649
:NTO003: TOTAL   CHARGE IN SPHERE  3 =       89.7252985
:NTO004: TOTAL   CHARGE IN SPHERE  4 =       89.7065542
:NTO005: TOTAL   CHARGE IN SPHERE  5 =       89.7003531
:NTO006: TOTAL   CHARGE IN SPHERE  6 =       89.6841944
:NTO007: TOTAL   CHARGE IN SPHERE  7 =       89.7309219
:NTO008: TOTAL   CHARGE IN SPHERE  8 =       89.6069126

:NEC01: NUCLEAR AND ELECTRONIC CHARGE   1504.00000  1503.85115     1.00010
     
       CHARGES OF OLD CHARGE DENSITY
:OTO  : TOTAL   INTERSTITIAL CHARGE=   68.6660781
:OTO001: TOTAL   CHARGE IN SPHERE  1 =       89.8040809
:OTO002: TOTAL   CHARGE IN SPHERE  2 =       89.7104788
:OTO003: TOTAL   CHARGE IN SPHERE  3 =       89.7248239
:OTO004: TOTAL   CHARGE IN SPHERE  4 =       89.7063261
:OTO005: TOTAL   CHARGE IN SPHERE  5 =       89.7001123
:OTO006: TOTAL   CHARGE IN SPHERE  6 =       89.6837531
:OTO007: TOTAL   CHARGE IN SPHERE  7 =       89.7305724
:OTO008: TOTAL   CHARGE IN SPHERE  8 =       89.6068134

:NEC02: NUCLEAR AND ELECTRONIC CHARGE   1504.00000  1504.00000     1.00000
     
       CONVERGENCE TEST
:DTO001: TOTAL   DIFFERENCE CHARGE**2 IN SPHERE  1 =  0.0008274
:DTO002: TOTAL   DIFFERENCE CHARGE**2 IN SPHERE  2 =  0.0004155
:DTO003: TOTAL   DIFFERENCE CHARGE**2 IN SPHERE  3 =  0.0004791
:DTO004: TOTAL   DIFFERENCE CHARGE**2 IN SPHERE  4 =  0.0002967
:DTO005: TOTAL   DIFFERENCE CHARGE**2 IN SPHERE  5 =  0.0003122
:DTO006: TOTAL   DIFFERENCE CHARGE**2 IN SPHERE  6 =  0.0004690
:DTO007: TOTAL   DIFFERENCE CHARGE**2 IN SPHERE  7 =  0.0003880
:DTO008: TOTAL   DIFFERENCE CHARGE**2 IN SPHERE  8 =  0.0002170

:DIS  :  CHARGE DISTANCE       ( 0.0008274 for atom    1 spin 1)      0.0004256
:BIG check (qbig,qrms,qtot)    0.276D-03   0.325D-03   0.426D-03
 
******************************************************
* MULTISECANT MIXING VER4 OPTIONS                    *
* Unpredicted Step Limit   0.100000                  *
* Plane Wave Dynamic Rescaling                       *
* Dynamic Regularization active                      *
* Upper Cutoff Lambda  1.0E-01 Lower 3.5E-04         *
* SQRT Multiplicity/Degeneracy                       *
* Max Number of Memory Steps    8                    *
******************************************************
 
:PLANE:  INTERSTITIAL TOTAL      7.60083 DISTAN  2.526E-03 % 
:CHARG:  CLM CHARGE   /ATOM    356.61350 DISTAN  1.446E-04 % 
:INFO :  Dynamic rescale   2.071E+01  1.000E-01
:INFO :  Number of Memory Steps    8 Skipping   17
:INFO :  Singular value   7.297E+00 Weight   1.000E+00 Projections   3.112E-05  2.032E-03
:INFO :  Singular value   7.113E-02 Weight   1.000E+00 Projections   3.258E-05  1.676E-03
:INFO :  Singular value   7.244E-03 Weight   9.977E-01 Projections  -3.266E-04  9.328E-04
:INFO :  Singular value   1.864E-03 Weight   9.659E-01 Projections  -4.480E-04 -1.101E-03
:INFO :  Singular value   9.623E-04 Weight   8.832E-01 Projections   1.060E-03  2.757E-04
:INFO :  Singular value   5.445E-04 Weight   7.076E-01 Projections   1.907E-03  2.243E-03
:INFO :  Singular value   3.757E-04 Weight   5.354E-01 Projections   3.117E-03 -5.589E-04
:INFO :  Singular value   1.846E-04 Weight   2.176E-01 Projections   3.529E-04  6.862E-04
:INFO :  Bounds         0.235D-01  0.200D+00  0.385D+01  0.235D-01
:DIRM :  MEMORY 8/8 RESCALE  20.71 RED 1.607 PRED 0.039 NEXT 0.026 COND 8.07E-01
:DIRP :  |BROYD|= 5.732E-04 |PRATT|= 9.347E-05 ANGLE=  45.8 DEGREES
:DIRB :  |BROYD|= 6.304E-04 |PRATT|= 1.347E-04 ANGLE=  44.8 DEGREES
:MIX  :  MSR1   REGULARIZATION: 3.50E-04  GREED: 0.024
     
       CHARGES OF MIXED CHARGE DENSITY
:CTO  : TOTAL   INTERSTITIAL CHARGE=   68.6656797
:CTO001: TOTAL   CHARGE IN SPHERE  1 =       89.8041214
:CTO002: TOTAL   CHARGE IN SPHERE  2 =       89.7105034
:CTO003: TOTAL   CHARGE IN SPHERE  3 =       89.7248508
:CTO004: TOTAL   CHARGE IN SPHERE  4 =       89.7063468
:CTO005: TOTAL   CHARGE IN SPHERE  5 =       89.7001328
:CTO006: TOTAL   CHARGE IN SPHERE  6 =       89.6837795
:CTO007: TOTAL   CHARGE IN SPHERE  7 =       89.7305955
:CTO008: TOTAL   CHARGE IN SPHERE  8 =       89.6068299

:NEC03: NUCLEAR AND ELECTRONIC CHARGE   1504.00000  1504.00000     1.00000


:ENE  : ********** TOTAL ENERGY IN Ry =      -949675.83681640

       TOTAL FORCE IN mRy/a.u. = |F|     Fx             Fy             Fz     with/without FOR in case.in2
:FOR001:   1.ATOM         99.272         98.523        -12.173          0.000 partial forces
:FOR002:   2.ATOM         78.531        -74.595         24.549          0.000 partial forces
:FOR003:   3.ATOM         62.903         44.769         44.187          0.000 partial forces
:FOR004:   4.ATOM         61.471        -44.629        -42.272          0.000 partial forces
:FOR005:   5.ATOM         37.890         35.518        -13.197          0.000 partial forces
:FOR006:   6.ATOM         47.526         38.743         27.526          0.000 partial forces
:FOR007:   7.ATOM        150.676       -147.248        -31.956          0.000 partial forces
:FOR008:   8.ATOM         61.026         36.698         48.759          0.000 partial forces

       TOTAL FORCE WITH RESPECT TO GLOBAL CARTESIAN COORDINATES:
:FCA001:   1.ATOM                       -12.173          0.000         98.523 partial forces
:FCA002:   2.ATOM                        24.549          0.000        -74.595 partial forces
:FCA003:   3.ATOM                        44.187          0.000         44.769 partial forces
:FCA004:   4.ATOM                       -42.272          0.000        -44.629 partial forces
:FCA005:   5.ATOM                       -13.197          0.000         35.518 partial forces
:FCA006:   6.ATOM                        27.526          0.000         38.743 partial forces
:FCA007:   7.ATOM                       -31.956          0.000       -147.248 partial forces
:FCA008:   8.ATOM                        48.759          0.000         36.698 partial forces

       TOTAL FORCE WITH RESPECT TO THE GLOBAL COORDINATE SYSTEM:
:FGL001:   1.ATOM               -12.435211833     0.000000000    95.982810177 partial forces
:FGL002:   2.ATOM                25.077796377     0.000000000   -69.472259512 partial forces
:FGL003:   3.ATOM                45.138807630     0.000000000    53.989682470 partial forces
:FGL004:   4.ATOM               -43.182557678     0.000000000   -53.450071568 partial forces
:FGL005:   5.ATOM               -13.481269249     0.000000000    32.764127898 partial forces
:FGL006:   6.ATOM                28.118922281     0.000000000    44.486963285 partial forces
:FGL007:   7.ATOM               -32.644346451     0.000000000  -153.916389549 partial forces
:FGL008:   8.ATOM                49.809290543     0.000000000    46.872740457 partial forces
