
:LABEL1: Calculations in /home/ykent/GWIEN/example/Pr/aU/V11/case
:LABEL2: on didymium-2.cmpgroup.ameslab.gov at Fri Jul 10 14:12:04 CDT 2020
:LABEL3: using WIEN2k_19.1 (Release 25/6/2019) in /home/ykent/opt/src/WIEN2k_19.1
:LABEL4: using the command: run_lapw -so -i 70 -cc 0.0001

:LABEL1: Calculations in /home/ykent/GWIEN/example/Pr/aU/V11/case
:LABEL2: on didymium-2.cmpgroup.ameslab.gov at Fri Jul 10 14:18:54 CDT 2020
:LABEL3: using WIEN2k_19.1 (Release 25/6/2019) in /home/ykent/opt/src/WIEN2k_19.1
:LABEL4: using the command: run_lapw -so -i 70 -cc 0.0001
 Flat Integration
 New Mode for Coulomb Integral
 Consistent 3/8+Simpson combinations
 Extension of core to zero
 LDM version in phi
 Fifth-order quadrature in outwin


            ---------
:ITE014: 14. ITERATION
            ---------

:NATO :    1 INDEPENDENT AND    2 TOTAL ATOMS IN UNITCELL
       SUBSTANCE: aU                                                          

       LATTICE                      = CXY 
:POT  : POTENTIAL OPTION EX_LDA EC_LDA VX_LDA VC_LDA
:LAT  : LATTICE CONSTANTS=  5.93983 12.05341 10.40596    1.571    1.571    1.571
:VOL  : UNIT CELL VOLUME =     372.50797
       MODE OF CALCULATION IS       = RELA
       NON-SPINPOLARIZED CALCULATION
:IFFT  : FFT-parameters:   48   96   80 Factor: 2.00


   CONVERGENCE PARAMETER FOR PSEUDOCHARGE: NCON=  9
   MAXIMAL VALUE OF RMT(JATOM)*ABSK(NKK) : RK  =27.59363


:VKCOUL :  VK-COUL convergence: 0.123E-06
       ATOMNUMBER=  1 Pr1        VCOUL-ZERO =  0.31293E+00
:EFG001:                        EFG         =    -9.59498   *10**21  V / m**2
                               V20  TOT/SRF=    -8.30950    -0.04470
                               V22  TOT/SRF=    -1.56008    -0.00502
                               V22M TOT/SRF=     0.00000     0.00000
                               V21  TOT/SRF=     0.00000     0.00000
                               V21M TOT/SRF=     0.00000     0.00000

              3.23741    0.00000    0.00000        3.23741    0.00000    0.00000
              0.00000    6.35757    0.00000        0.00000    6.35757    0.00000
              0.00000    0.00000   -9.59498        0.00000    0.00000   -9.59498

         MAIN DIRECTIONS OF THE EFG   1.0000  0.0000  0.0000
                                      0.0000  1.0000  0.0000
                                      0.0000  0.0000  1.0000
:ANG001:  ANGLE WITH OLD X-AXIS =         0.0

:ETA001:                         ASYMM. ETA =     0.32519


     HELLMANN-FEYNMAN-FORCE IN mRy/a.u. = |F|  Fx       Fy             Fz
:FHF001:   1.ATOM   1638.472021334095      0.000000000000      0.000000000000  -1638.472021334095

:FIT001: LUSE= 13 SIGMA OF V-XC FIT FOR ATOM  1  0.5796858E-04
:FIT001: LUSE= 13 SIGMA OF V-XC FIT FOR ATOM  1  0.5796858E-04
:DEN  : DENSITY INTEGRAL  =        -14174.12956830   (Ry)
       ELS_POTENTIAL_AT Z=0 and Z=0.5:   0.84730   0.84730
       ELS_POTENTIAL_AT Y=0 and Y=0.5:   0.04231   0.04231
:VZERO:v0,v0c,v0x   0.19991   0.84730  -0.64739 v5,v5c,v5x   0.19991   0.84730  -0.64739
:VZERY:v0,v0c,v0x  -0.81757   0.04231  -0.85988 v5,v5c,v5x  -0.81757   0.04231  -0.85988
:VZERX:v0,v0c,v0x  -1.20379  -0.39017  -0.81362 v5,v5c,v5x  -1.20379  -0.39017  -0.81362
:LMAX-WF:   10   Non-Spherical LMAX:   4

          ATOMIC SPHERE DEPENDENT PARAMETERS FOR ATOM  Pr1       
:e__0001: OVERALL ENERGY PARAMETER IS    0.6427
          OVERALL BASIS SET ON ATOM IS LAPW
:E0_0001: E( 0)=    0.6427
             APW+lo
:E0_0001: E( 0)=   -1.8021   E(BOTTOM)=   -2.437   E(TOP)=   -1.167  4  5   201
             LOCAL ORBITAL
:E1_0001: E( 1)=    1.0427
             APW+lo
:E1_0001: E( 1)=   -0.3316   E(BOTTOM)=   -1.289   E(TOP)=    0.626  3  4   205
             LOCAL ORBITAL
:E3_0001: E( 3)=    0.8396   E(BOTTOM)=    0.634   E(TOP)=    1.045  0  1   119
             APW+lo
:E2_0001: E( 2)=    0.6427   E(BOTTOM)=    0.451   E(TOP)= -200.000  2 -1   122
             APW+lo

       K=   0.06250   0.00000   0.06250            1
:RKM  : MATRIX SIZE   352LOs:  40  RKM= 8.50  WEIGHT= 4.00  PGR:    
       EIGENVALUES ARE:
:EIG00001:      -1.7948672   -1.7609629   -0.5576549   -0.4171989   -0.3850736
:EIG00006:      -0.3725174   -0.3589387   -0.3589302    0.6323521    0.7276031
:EIG00011:       0.8291108    0.8329846    0.8337348    0.8382204    0.8466027
:EIG00016:       0.8623695    0.8687499    0.8694244    0.8737803    0.8768635
:EIG00021:       0.8841644    0.8871503    0.8876024    0.8996949    0.9254972
:EIG00026:       0.9461083    1.0421057    1.0483064    1.1100154    1.1441846
:EIG00031:       1.1462279    1.2870226    1.3184356    1.3847929    1.6893175
:EIG00036:       1.7351512    1.7738439    1.8468976    1.9768953    2.0412862
:EIG00041:       2.1747888    2.2622227    2.3791645    2.4004251    2.5468049
:EIG00046:       2.5538642    2.5732372    2.7030339    2.7255429    2.8532517
 
:EIG00051:       2.9145394    2.9919987    3.0044599    3.1240297    3.1789695
:EIG00056:       3.2048037    3.2477088    3.3601015    3.4101280    3.5251927
:EIG00061:       3.5288527    3.6363935    3.7264498    3.7410997    3.7838214
:EIG00066:       3.9407631    3.9562470    4.0536382    4.0540247    4.0969306
:EIG00071:       4.1028892    4.1632854    4.1946441    4.3088936    4.3183477
:EIG00076:       4.3605167    4.3829405    4.4345871    4.4486198    4.4903479
:EIG00081:       4.5078431    4.5518197    4.5630723    4.6343764    4.6595252
:EIG00086:       4.7605509    4.7809490    4.8551681    4.8893814    4.9232592
:EIG00091:       4.9331985    4.9730504    5.0161483    5.0546178    5.0560662
:EIG00096:       5.0725552    5.1493768    5.1556718    5.2113005    5.2577474
 
:EIG00101:       5.3491936    5.4625926    5.5063858    5.5821260    5.5865156
:EIG00106:       5.6401683    5.6739298    5.7344977    5.7735856    5.7996592
:EIG00111:       5.9076455    5.9468652    6.0581897    6.1179659    6.1496950
:EIG00116:       6.1525414    6.2398970    6.2653239    6.3344897    6.3367269
:EIG00121:       6.4231556    6.4373164    6.5007899    6.5420610    6.5799732
:EIG00126:       6.6671913    6.7371258    6.7435813    6.7744299    6.8423943
:EIG00131:       6.8934367    6.9220215    6.9369459    7.0028235    7.0648637
:EIG00136:       7.0968201    7.1236002    7.1906990    7.2205048    7.2219195
:EIG00141:       7.2743840    7.2853799    7.3353781    7.3714057    7.4227816
:EIG00146:       7.4306017    7.4642556    7.5594753    7.5690730    7.6323923
 
:EIG00151:       7.6466352    7.6750455    7.6961123    7.8608822    7.8895357
:EIG00156:       8.0225314    8.0620402    8.0632142    8.0918937    8.1937280
:EIG00161:       8.2682170    8.3377684
       ********************************************************

:KPT   :      NUMBER OF K-POINTS:   288
   0.0   0.0 angle (M,z), angle (M,x) deg
 
        SPIN-ORBIT EIGENVALUES:
     K=   0.06250   0.00000   0.06250            1
      MATRIX SIZE=  324   WEIGHT= 4.00
     EIGENVALUES ARE:
          -1.7948677   -1.7948677   -1.7609633   -1.7609633   -0.6169106
          -0.6169106   -0.5245294   -0.5245294   -0.4161334   -0.4161334
          -0.3119164   -0.3119164   -0.3082446   -0.3082446   -0.2925642
          -0.2925642    0.6324292    0.6324292    0.7274806    0.7274806
           0.8256516    0.8256516    0.8293594    0.8293594    0.8305910
           0.8305910    0.8352110    0.8352110    0.8423907    0.8423907
           0.8524303    0.8524303    0.8643006    0.8643006    0.8734287
           0.8734287    0.8797724    0.8797724    0.8807774    0.8807774

           0.8872581    0.8872581    0.8905881    0.8905881    0.8921153
           0.8921153    0.9033978    0.9033978    0.9267553    0.9267553
           0.9462896    0.9462896    1.0386233    1.0386233    1.0515920
           1.0515920    1.1104740    1.1104740    1.1428022    1.1428023
           1.1479592    1.1479593    1.2869604    1.2869604    1.3187050
           1.3187050    1.3849286    1.3849286    1.6896237    1.6896237
           1.7351876    1.7351876    1.7738253    1.7738253    1.8469122
           1.8469122    1.9766323    1.9766323    2.0407684    2.0407684

           2.1748658    2.1748658    2.2614970    2.2614970    2.3780694
           2.3780694    2.4008632    2.4008632    2.5470375    2.5470375
           2.5538139    2.5538139    2.5723333    2.5723333    2.7012995
           2.7012995    2.7274377    2.7274377    2.8533405    2.8533405
           2.9139387    2.9139387    2.9876955    2.9876955    3.0075293
           3.0075293    3.1238367    3.1238367    3.1790602    3.1790602
           3.2055439    3.2055439    3.2468234    3.2468234    3.3606192
           3.3606192    3.4112661    3.4112661    3.5234505    3.5234505

           3.5309382    3.5309382    3.6406738    3.6406738    3.7266845
           3.7266845    3.7409737    3.7409737    3.7840973    3.7840973
           3.9407501    3.9407501    3.9564916    3.9564916    4.0529254
           4.0529254    4.0546338    4.0546338    4.0969383    4.0969383
           4.1033199    4.1033199    4.1624017    4.1624017    4.1947497
           4.1947497    4.3070368    4.3070368    4.3203978    4.3203978
           4.3623433    4.3623433    4.3836567    4.3836567    4.4346756
           4.4346756    4.4491413    4.4491413    4.4907077    4.4907077

       ********************************************************
:GAP (global)   :    0.0    Ry =     0.0   eV (metal)
:GAP (this spin):    0.0    Ry =     0.0   eV (metal)
         Bandranges (emin - emax) and occupancy:
:BAN00018:  18    0.625512    0.792092  1.00000000
:BAN00019:  19    0.716457    0.811068  1.00000000
:BAN00020:  20    0.716457    0.811068  1.00000000
:BAN00021:  21    0.740032    0.835610  1.00000000
:BAN00022:  22    0.740032    0.835610  1.00000000
:BAN00023:  23    0.799145    0.840131  0.99695438
:BAN00024:  24    0.799145    0.840131  0.99695436
:BAN00025:  25    0.812809    0.850887  0.71762623
:BAN00026:  26    0.812809    0.850887  0.71762613
:BAN00027:  27    0.830535    0.853331  0.28541957
:BAN00028:  28    0.830535    0.853331  0.28541933
:BAN00029:  29    0.840512    0.856424  0.00000000
:BAN00030:  30    0.840512    0.856424  0.00000000
:BAN00031:  31    0.845515    0.865139  0.00000000
:BAN00032:  32    0.845515    0.865139  0.00000000
:BAN00033:  33    0.855575    0.873589  0.00000000
        Energy to separate low and high energystates:    0.57551


:NOE  : NUMBER OF ELECTRONS          =   26.000

:FER  : F E R M I - ENERGY(TETRAH.M.)=   0.8389841242
:GMA  : POTENTIAL AND CHARGE CUT-OFF  12.00 Ry**.5

:POS001: ATOM   -1 X,Y,Z = 0.00000 0.89750 0.25000  MULT= 2  ZZ= 59.000  Pr1       

       LMMAX 16
       LM=   0 0  1 0  2 0  2 2  3 0  3 2  4 0  4 2  4 4  5 0  5 2  5 4  6 0  6 2  6 4  6 6

:CHA001: TOTAL VALENCE CHARGE INSIDE SPHERE   1 =   9.6616    (RMT=  2.3000 )
:PCS001: PARTIAL CHARGES SPHERE =  1 S,P,D,F,PX,PY,PZ,D-Z2,D-X2Y2,D-XY,D-XZ,D-YZ 
:QTL001: 1.9406 4.9896 0.6466 2.0839 1.6611 1.6591 1.6694 0.1233 0.1149 0.1365 0.1308 0.1411
        Q-s-low E-s-low   Q-p-low E-p-low   Q-d-low E-d-low   Q-f-low E-f-low
:EPL001:  1.8690 -1.7596    4.9167 -0.4484    0.0063 -0.4563    0.0019 -0.4700
        Q-s-hi  E-s-hi    Q-p-hi  E-p-hi    Q-d-hi  E-d-hi    Q-f-hi  E-f-hi 
:EPH001:  0.0716  0.7497    0.0729  0.7815    0.6404  0.7750    2.0821  0.8185

                      VXX         VYY         VZZ       UP TO R
:VZZ001:             2.93750     5.80341    -8.74091       2.300

:CHA  : TOTAL VALENCE CHARGE INSIDE UNIT CELL =      26.000000

:SUM  : SUM OF EIGENVALUES =          -4.514053713


        1.ATOM      Pr1                  14 CORE STATES
       CORE-FORCE in mRy/a.u. = |F|      Fx             Fy             Fz
:FCO001:   1.ATOM   1622.069361984802      0.000000000000      0.000000000000   1622.069361984802

:1S 001: 1S               -3066.758588773 Ry
:2S 001: 2S                -492.512667642 Ry
:2PP001: 2P*               -465.611297716 Ry
:2P 001: 2P                -430.213984731 Ry
:3S 001: 3S                -105.607921943 Ry
:3PP001: 3P*                -94.145566438 Ry
:3P 001: 3P                 -87.137816096 Ry
:3DD001: 3D*                -67.064206277 Ry
:3D 001: 3D                 -65.552708237 Ry
:4S 001: 4S                 -20.277354280 Ry
:4PP001: 4P*                -15.983390987 Ry
:4P 001: 4P                 -14.454923224 Ry
:4DD001: 4D*                 -7.385764112 Ry
:4D 001: 4D                  -7.115987022 Ry
:CINT001 Core Integral Atom   1   45.998506

       DENSITY AT NUCLEUS
        JATOM        VALENCE       SEMI-CORE          CORE           TOTAL
:RTO001:   1      648.761649        0.000000   656825.932884   657474.694532
     
       CHARGES OF NEW CHARGE DENSITY
:NTO   : INTERSTITIAL CHARGE =     6.676852
:NPC   : PW Pseudocharge     =    17.236624
:NTO001: CHARGE SPHERE  1    =    55.660079

:NEC01: NUCLEAR AND ELECTRONIC CHARGE    118.00000   117.99701
     
       CHARGES OF OLD CHARGE DENSITY
:OTO   : INTERSTITIAL CHARGE =     6.772328
:OPC   : PW Pseudocharge     =    17.295174
:OTO001: CHARGE SPHERE  1    =    55.613836

:NEC02: NUCLEAR AND ELECTRONIC CHARGE    118.00000   118.00000
     
       CONVERGENCE TEST
:DTO001: DIFFERENCE IN SPHERE  1 =  0.0893919

:DIS  :  CHARGE DISTANCE       ( 0.0893919 for atom    1 spin 1)      0.0893919
 PW Mixed is          394
 
******************************************************
* MULTISECANT MIXING VER9 RELEASE 10.4.0              *
* Standard Mode with controls                        *
* Fixed density scale                                *
* Regularization       1.000E-04                     *
* Trust Upper Limit    5.000E+00                     *
* Max Number of Memory Steps    8                    *
******************************************************
 
:PWTMP   2.7058E+02  1.9467E+02  3.7251E+02
:PLANE:  PW TOTAL      5.3742 DISTAN   1.98E-02  3.68E-01 %
:CHARG:  CLM/ATOM   1381.9558 DISTAN   1.31E-01  9.46E-03 %
 
Step History
        DMIX         DMIXT        Red     Pred      Trust     Lambda    MagRel    MagAbs     Beta
  1   3.5000E-02   3.5000E-02 -1.00E+00  1.00E+00 -1.00E+01  1.00E+00  3.50E-02  3.50E-02  1.00E+00
:INFO :  Note, Pratt in use
:TRUST:  Step 3.75E-02  Charge 7.50E-02 (e) CTO  2.50E-01 (e) PW  3.50E-01 (e)
:DIRM :  MEMORY  0/ 8 SCALE   1.000
Performing Pseudo Compensation
Final Pseudo Compensation Rescaling     1.00000E+00
:MIX  :   PRATT  REGULARIZATION:  1.00E-04 GREED: 0.02500                  
     
       CHARGES OF MIXED CHARGE DENSITY
:CTO   : INTERSTITIAL CHARGE =     6.770016
:CPC   : PW Pseudocharge     =    17.279601
:CTO001: CHARGE SPHERE  1    =    55.614992

:NEC03: NUCLEAR AND ELECTRONIC CHARGE    118.00000   118.00000

PW CHANGE     H    K    L      Current       Change    Residue
:PTO001:      0    0    0  6.45613481E-02 -4.801E-05 -3.847E-04
:PTO003:      0    2    0  1.64163306E-02 -1.414E-05  1.502E-05
:PTO004:     -1    1    0  7.92939723E-02 -7.660E-05 -9.533E-05
:PTO005:      0    2   -1 -9.14026686E-02  8.878E-05  6.870E-05
:PTO006:      0    0   -2 -4.73613115E-02  4.634E-05  4.493E-05
:PTO007:     -1    1   -1 -9.71924685E-02  9.908E-05  9.586E-05
:PTO008:      0    2   -2 -1.48266663E-02  1.714E-05  3.749E-05
:PTO009:     -1    1   -2 -7.53507108E-02  8.242E-05  4.618E-05
:PTO011:     -1    3    0 -1.18429301E-02  1.392E-05  4.419E-05
:PTO012:     -1    3   -1 -5.09288326E-02  5.690E-05  2.577E-05
:PTO013:      0    4    0 -9.01955834E-03  1.032E-05  9.700E-06
:PTO014:      0    2   -3  2.07755024E-02 -2.345E-05 -3.169E-05

:ENE  : ********** TOTAL ENERGY IN Ry =       -36944.30867176

       TOTAL FORCE IN mRy/a.u. = |F|     Fx             Fy             Fz     with/without FOR in case.in2
:FOR001:   1.ATOM         16.403          0.000          0.000        -16.403 partial forces
       TOTAL FORCE WITH RESPECT TO GLOBAL CARTESIAN COORDINATES:
:FCA001:   1.ATOM                         0.000        -16.403          0.000 partial forces
       TOTAL FORCE WITH RESPECT TO THE GLOBAL COORDINATE SYSTEM:
:FGL001:   1.ATOM                 0.000000000   -16.402659349     0.000000000 partial forces
 Flat Integration
 New Mode for Coulomb Integral
 Consistent 3/8+Simpson combinations
 Extension of core to zero
 LDM version in phi
 Fifth-order quadrature in outwin


            ---------
:ITE015: 15. ITERATION
            ---------

:NATO :    1 INDEPENDENT AND    2 TOTAL ATOMS IN UNITCELL
       SUBSTANCE: aU                                                          

       LATTICE                      = CXY 
:POT  : POTENTIAL OPTION EX_LDA EC_LDA VX_LDA VC_LDA
:LAT  : LATTICE CONSTANTS=  5.93983 12.05341 10.40596    1.571    1.571    1.571
:VOL  : UNIT CELL VOLUME =     372.50797
       MODE OF CALCULATION IS       = RELA
       NON-SPINPOLARIZED CALCULATION
:IFFT  : FFT-parameters:   48   96   80 Factor: 2.00


   CONVERGENCE PARAMETER FOR PSEUDOCHARGE: NCON=  9
   MAXIMAL VALUE OF RMT(JATOM)*ABSK(NKK) : RK  =27.59363


:VKCOUL :  VK-COUL convergence: 0.123E-06
       ATOMNUMBER=  1 Pr1        VCOUL-ZERO =  0.31270E+00
:EFG001:                        EFG         =    -9.57492   *10**21  V / m**2
                               V20  TOT/SRF=    -8.29213    -0.04463
                               V22  TOT/SRF=    -1.55691    -0.00500
                               V22M TOT/SRF=     0.00000     0.00000
                               V21  TOT/SRF=     0.00000     0.00000
                               V21M TOT/SRF=     0.00000     0.00000

              3.23055    0.00000    0.00000        3.23055    0.00000    0.00000
              0.00000    6.34438    0.00000        0.00000    6.34438    0.00000
              0.00000    0.00000   -9.57492        0.00000    0.00000   -9.57492

         MAIN DIRECTIONS OF THE EFG   1.0000  0.0000  0.0000
                                      0.0000  1.0000  0.0000
                                      0.0000  0.0000  1.0000
:ANG001:  ANGLE WITH OLD X-AXIS =         0.0

:ETA001:                         ASYMM. ETA =     0.32521


     HELLMANN-FEYNMAN-FORCE IN mRy/a.u. = |F|  Fx       Fy             Fz
:FHF001:   1.ATOM   1637.321385035505      0.000000000000      0.000000000000  -1637.321385035505

:FIT001: LUSE= 13 SIGMA OF V-XC FIT FOR ATOM  1  0.5784577E-04
:FIT001: LUSE= 13 SIGMA OF V-XC FIT FOR ATOM  1  0.5784577E-04
:DEN  : DENSITY INTEGRAL  =        -14174.36450502   (Ry)
       ELS_POTENTIAL_AT Z=0 and Z=0.5:   0.84686   0.84686
       ELS_POTENTIAL_AT Y=0 and Y=0.5:   0.04226   0.04226
:VZERO:v0,v0c,v0x   0.19954   0.84686  -0.64732 v5,v5c,v5x   0.19954   0.84686  -0.64732
:VZERY:v0,v0c,v0x  -0.81748   0.04226  -0.85973 v5,v5c,v5x  -0.81748   0.04226  -0.85973
:VZERX:v0,v0c,v0x  -1.20338  -0.38991  -0.81346 v5,v5c,v5x  -1.20338  -0.38991  -0.81346
:LMAX-WF:   10   Non-Spherical LMAX:   4

          ATOMIC SPHERE DEPENDENT PARAMETERS FOR ATOM  Pr1       
:e__0001: OVERALL ENERGY PARAMETER IS    0.6402
          OVERALL BASIS SET ON ATOM IS LAPW
:E0_0001: E( 0)=    0.6402
             APW+lo
:E0_0001: E( 0)=   -1.8014   E(BOTTOM)=   -2.437   E(TOP)=   -1.166  4  5   198
             LOCAL ORBITAL
:E1_0001: E( 1)=    1.0402
             APW+lo
:E1_0001: E( 1)=   -0.3311   E(BOTTOM)=   -1.289   E(TOP)=    0.627  3  4   208
             LOCAL ORBITAL
:E3_0001: E( 3)=    0.8409   E(BOTTOM)=    0.636   E(TOP)=    1.046  0  1   120
             APW+lo
:E2_0001: E( 2)=    0.6402   E(BOTTOM)=    0.451   E(TOP)= -200.000  2 -1   118
             APW+lo

       K=   0.06250   0.00000   0.06250            1
:RKM  : MATRIX SIZE   352LOs:  40  RKM= 8.50  WEIGHT= 4.00  PGR:    
       EIGENVALUES ARE:
:EIG00001:      -1.7943018   -1.7603676   -0.5573750   -0.4168266   -0.3846778
:EIG00006:      -0.3720833   -0.3585128   -0.3584857    0.6321742    0.7274840
:EIG00011:       0.8301014    0.8341033    0.8348894    0.8393253    0.8477047
:EIG00016:       0.8636673    0.8700696    0.8707559    0.8751035    0.8781427
:EIG00021:       0.8855291    0.8883950    0.8887908    0.9010565    0.9260707
:EIG00026:       0.9464059    1.0422810    1.0483304    1.1100587    1.1442454
:EIG00031:       1.1462722    1.2870736    1.3185564    1.3849401    1.6892765
:EIG00036:       1.7351219    1.7737611    1.8469599    1.9767695    2.0411727
:EIG00041:       2.1747207    2.2621384    2.3790811    2.4003849    2.5467824
:EIG00046:       2.5537915    2.5730760    2.7029490    2.7254141    2.8531206
 
:EIG00051:       2.9144634    2.9919951    3.0043752    3.1240326    3.1789678
:EIG00056:       3.2046871    3.2476166    3.3602608    3.4100631    3.5251636
:EIG00061:       3.5287379    3.6364280    3.7262589    3.7410614    3.7837077
:EIG00066:       3.9407253    3.9560746    4.0534199    4.0538442    4.0968191
:EIG00071:       4.1028196    4.1632387    4.1944892    4.3087172    4.3181839
:EIG00076:       4.3603192    4.3828392    4.4344352    4.4484298    4.4901561
:EIG00081:       4.5076768    4.5516221    4.5629408    4.6342067    4.6592851
:EIG00086:       4.7603746    4.7807008    4.8549753    4.8892921    4.9231418
:EIG00091:       4.9329806    4.9728239    5.0161273    5.0544393    5.0560416
:EIG00096:       5.0723091    5.1491478    5.1554594    5.2111961    5.2575643
 
:EIG00101:       5.3490551    5.4624253    5.5062402    5.5819016    5.5862895
:EIG00106:       5.6400432    5.6737182    5.7342671    5.7733642    5.7995169
:EIG00111:       5.9074919    5.9466573    6.0581535    6.1177678    6.1496381
:EIG00116:       6.1523811    6.2398492    6.2652251    6.3344675    6.3365644
:EIG00121:       6.4230445    6.4372363    6.5007503    6.5418847    6.5798437
:EIG00126:       6.6670173    6.7369496    6.7434437    6.7743269    6.8422205
:EIG00131:       6.8933324    6.9218823    6.9367413    7.0028042    7.0648116
:EIG00136:       7.0966309    7.1234085    7.1906041    7.2203146    7.2217707
:EIG00141:       7.2742542    7.2851321    7.3351971    7.3712302    7.4227908
:EIG00146:       7.4304207    7.4641627    7.5593171    7.5688687    7.6321613
 
:EIG00151:       7.6467884    7.6749737    7.6958919    7.8608161    7.8893493
:EIG00156:       8.0224304    8.0618594    8.0630701    8.0917635    8.1935583
:EIG00161:       8.2680591    8.3376070
       ********************************************************

:KPT   :      NUMBER OF K-POINTS:   288
   0.0   0.0 angle (M,z), angle (M,x) deg
 
        SPIN-ORBIT EIGENVALUES:
     K=   0.06250   0.00000   0.06250            1
      MATRIX SIZE=  324   WEIGHT= 4.00
     EIGENVALUES ARE:
          -1.7943023   -1.7943023   -1.7603680   -1.7603680   -0.6165588
          -0.6165588   -0.5240718   -0.5240718   -0.4157916   -0.4157916
          -0.3115156   -0.3115156   -0.3078492   -0.3078492   -0.2921565
          -0.2921565    0.6322514    0.6322514    0.7273629    0.7273629
           0.8266934    0.8266934    0.8305101    0.8305101    0.8317521
           0.8317521    0.8363525    0.8363526    0.8435456    0.8435456
           0.8537635    0.8537635    0.8654860    0.8654860    0.8747143
           0.8747143    0.8810781    0.8810781    0.8820554    0.8820554

           0.8885048    0.8885048    0.8917789    0.8917789    0.8933854
           0.8933854    0.9047530    0.9047530    0.9273735    0.9273735
           0.9466117    0.9466117    1.0387830    1.0387830    1.0516418
           1.0516418    1.1105171    1.1105171    1.1428637    1.1428637
           1.1480043    1.1480044    1.2870121    1.2870121    1.3188253
           1.3188253    1.3850755    1.3850755    1.6895829    1.6895829
           1.7351585    1.7351585    1.7737426    1.7737426    1.8469741
           1.8469741    1.9765068    1.9765068    2.0406549    2.0406549

           2.1747978    2.1747978    2.2614132    2.2614132    2.3779895
           2.3779895    2.4008194    2.4008194    2.5470140    2.5470140
           2.5537411    2.5537411    2.5721738    2.5721738    2.7012104
           2.7012104    2.7273140    2.7273140    2.8532100    2.8532100
           2.9138625    2.9138625    2.9876775    2.9876775    3.0074587
           3.0074587    3.1238394    3.1238394    3.1790518    3.1790518
           3.2054305    3.2054305    3.2467329    3.2467329    3.3607766
           3.3607766    3.4112021    3.4112021    3.5233996    3.5233996

           3.5308491    3.5308491    3.6407027    3.6407027    3.7264953
           3.7264953    3.7409353    3.7409353    3.7839837    3.7839837
           3.9407111    3.9407111    3.9563200    3.9563200    4.0527195
           4.0527195    4.0544413    4.0544413    4.0968267    4.0968267
           4.1032503    4.1032503    4.1623527    4.1623527    4.1945950
           4.1945950    4.3068613    4.3068613    4.3202339    4.3202339
           4.3621492    4.3621492    4.3835525    4.3835525    4.4345233
           4.4345233    4.4489514    4.4489514    4.4905165    4.4905165

       ********************************************************
:GAP (global)   :    0.0    Ry =     0.0   eV (metal)
:GAP (this spin):    0.0    Ry =     0.0   eV (metal)
         Bandranges (emin - emax) and occupancy:
:BAN00018:  18    0.625332    0.792518  1.00000000
:BAN00019:  19    0.716307    0.811718  1.00000000
:BAN00020:  20    0.716307    0.811718  1.00000000
:BAN00021:  21    0.739964    0.836788  1.00000000
:BAN00022:  22    0.739964    0.836788  1.00000000
:BAN00023:  23    0.799556    0.841295  0.99691991
:BAN00024:  24    0.799556    0.841295  0.99691989
:BAN00025:  25    0.813482    0.852195  0.71894730
:BAN00026:  26    0.813482    0.852195  0.71894720
:BAN00027:  27    0.831442    0.854658  0.28413298
:BAN00028:  28    0.831442    0.854658  0.28413271
:BAN00029:  29    0.841720    0.857783  0.00000000
:BAN00030:  30    0.841720    0.857783  0.00000000
:BAN00031:  31    0.846692    0.866310  0.00000000
:BAN00032:  32    0.846692    0.866310  0.00000000
:BAN00033:  33    0.856843    0.874773  0.00000000
        Energy to separate low and high energystates:    0.57533


:NOE  : NUMBER OF ELECTRONS          =   26.000

:FER  : F E R M I - ENERGY(TETRAH.M.)=   0.8401226351
:GMA  : POTENTIAL AND CHARGE CUT-OFF  12.00 Ry**.5

:POS001: ATOM   -1 X,Y,Z = 0.00000 0.89750 0.25000  MULT= 2  ZZ= 59.000  Pr1       

       LMMAX 16
       LM=   0 0  1 0  2 0  2 2  3 0  3 2  4 0  4 2  4 4  5 0  5 2  5 4  6 0  6 2  6 4  6 6

:CHA001: TOTAL VALENCE CHARGE INSIDE SPHERE   1 =   9.6477    (RMT=  2.3000 )
:PCS001: PARTIAL CHARGES SPHERE =  1 S,P,D,F,PX,PY,PZ,D-Z2,D-X2Y2,D-XY,D-XZ,D-YZ 
:QTL001: 1.9408 4.9898 0.6517 2.0645 1.6611 1.6591 1.6696 0.1244 0.1160 0.1372 0.1319 0.1421
        Q-s-low E-s-low   Q-p-low E-p-low   Q-d-low E-d-low   Q-f-low E-f-low
:EPL001:  1.8689 -1.7590    4.9160 -0.4481    0.0063 -0.4559    0.0019 -0.4697
        Q-s-hi  E-s-hi    Q-p-hi  E-p-hi    Q-d-hi  E-d-hi    Q-f-hi  E-f-hi 
:EPH001:  0.0719  0.7499    0.0738  0.7820    0.6455  0.7755    2.0626  0.8195

                      VXX         VYY         VZZ       UP TO R
:VZZ001:             3.02497     5.89597    -8.92094       2.300

:CHA  : TOTAL VALENCE CHARGE INSIDE UNIT CELL =      26.000000

:SUM  : SUM OF EIGENVALUES =          -4.502538218


        1.ATOM      Pr1                  14 CORE STATES
       CORE-FORCE in mRy/a.u. = |F|      Fx             Fy             Fz
:FCO001:   1.ATOM   1621.066895291689      0.000000000000      0.000000000000   1621.066895291689

:1S 001: 1S               -3066.755813805 Ry
:2S 001: 2S                -492.509883386 Ry
:2PP001: 2P*               -465.608515382 Ry
:2P 001: 2P                -430.211201753 Ry
:3S 001: 3S                -105.605201835 Ry
:3PP001: 3P*                -94.142840088 Ry
:3P 001: 3P                 -87.135101532 Ry
:3DD001: 3D*                -67.061470393 Ry
:3D 001: 3D                 -65.549975232 Ry
:4S 001: 4S                 -20.275264259 Ry
:4PP001: 4P*                -15.981340588 Ry
:4P 001: 4P                 -14.452934191 Ry
:4DD001: 4D*                 -7.383883608 Ry
:4D 001: 4D                  -7.114127449 Ry
:CINT001 Core Integral Atom   1   45.998504

       DENSITY AT NUCLEUS
        JATOM        VALENCE       SEMI-CORE          CORE           TOTAL
:RTO001:   1      648.797299        0.000000   656825.803485   657474.600785
     
       CHARGES OF NEW CHARGE DENSITY
:NTO   : INTERSTITIAL CHARGE =     6.704681
:NPC   : PW Pseudocharge     =    17.246231
:NTO001: CHARGE SPHERE  1    =    55.646163

:NEC01: NUCLEAR AND ELECTRONIC CHARGE    118.00000   117.99701
     
       CHARGES OF OLD CHARGE DENSITY
:OTO   : INTERSTITIAL CHARGE =     6.770016
:OPC   : PW Pseudocharge     =    17.279601
:OTO001: CHARGE SPHERE  1    =    55.614992

:NEC02: NUCLEAR AND ELECTRONIC CHARGE    118.00000   118.00000
     
       CONVERGENCE TEST
:DTO001: DIFFERENCE IN SPHERE  1 =  0.0628500

:DIS  :  CHARGE DISTANCE       ( 0.0628500 for atom    1 spin 1)      0.0628500
 PW Mixed is          394
 
******************************************************
* MULTISECANT MIXING VER9 RELEASE 10.4.0              *
* Slow Mode, cautious                                *
* Fixed density scale                                *
* Regularization       1.000E-04                     *
* Step Trust Radius    0.75000                       *
* Trust Upper Limit    2.000E+00                     *
* Max Number of Memory Steps   12                    *
******************************************************
 
:PWTMP   2.7058E+02  1.9467E+02  3.7251E+02
:PLANE:  PW TOTAL      5.3693 DISTAN   1.21E-02  2.25E-01 %
:CHARG:  CLM/ATOM   1381.9560 DISTAN   9.41E-02  6.81E-03 %
 
Step History
        DMIX         DMIXT        Red     Pred      Trust     Lambda    MagRel    MagAbs     Beta
  1   3.5000E-02   3.5000E-02 -1.00E+00  1.00E+00 -1.00E+01  1.00E+00  3.50E-02  3.50E-02  1.00E+00
  2   2.5000E-02   2.5000E-02 -1.00E+00  1.00E+00 -1.00E+01  1.00E+00  2.50E-02  3.30E-03  1.00E+00
:JACOBIANS    1.172E-02   4.008E-02
  
:NORMS:  1/Froebius, Min, Max, Used   0.2352E-01  0.2352E-01  0.1033E+00  0.2352E-01
:INFO :  Number of Memory Steps    1 Skipping    0
:PREDicted Charge, CTotal, PW Trust    3.815E-03   7.630E-03   3.084E-02
:PREDicted DMix, Beta, BLim   1.0000E-02  3.2998E+00  4.2845E-01

Eigenvalues, unscaled except for SY+YY
   #     SY Real        SY Imag          SS             YY         SY+YY Real      SY+YY Imag
   1   1.033036E-01   0.000000E+00   2.351990E-02   1.000000E+00   1.103304E+00   0.000000E+00
 
:BLIM :  VZERO Control Off
:TRUST:  Step 4.28E-01  Charge 7.50E-02 (e) CTO  2.50E-01 (e) PW  3.50E-01 (e)
:DIRM :  MEMORY  1/12 SCALE   1.000 RED  0.72 PRED  1.00 NEXT  0.33 
:TRAVE:  Charge 2.59E-03 (e) CTO  5.18E-03 (e) PW  2.11E-02 (e)
:DIRP :  |MSR1|= 1.126E-02 |PRATT|= 1.210E-02 ANGLE=  62.9 DEGREES
:DIRQ :  |MSR1|= 7.707E-03 |PRATT|= 9.409E-02 ANGLE=   1.0 DEGREES
:DIRT :  |MSR1|= 1.364E-02 |PRATT|= 9.486E-02 ANGLE=  52.5 DEGREES
:MIX  :   MSR1   REGULARIZATION:  1.00E-04 GREED: 0.02000  Newton 1.00  0.1438                
     
       CHARGES OF MIXED CHARGE DENSITY
:CTO   : INTERSTITIAL CHARGE =     6.764838
:CPC   : PW Pseudocharge     =    17.244428
:CTO001: CHARGE SPHERE  1    =    55.617581

:NEC03: NUCLEAR AND ELECTRONIC CHARGE    118.00000   118.00000

PW CHANGE     H    K    L      Current       Change    Residue
:PTO001:      0    0    0  6.44530273E-02 -1.083E-04 -2.363E-04
:PTO003:      0    2    0  1.63843493E-02 -3.198E-05  1.879E-05
:PTO004:     -1    1    0  7.91209857E-02 -1.730E-04 -1.833E-05
:PTO005:      0    2   -1 -9.12025768E-02  2.001E-04 -1.404E-05
:PTO006:      0    0   -2 -4.72567854E-02  1.045E-04  4.461E-07
:PTO007:     -1    1   -1 -9.69684393E-02  2.240E-04  8.557E-06
:PTO008:      0    2   -2 -1.47877839E-02  3.888E-05  1.796E-05
:PTO009:     -1    1   -2 -7.51648815E-02  1.858E-04 -2.425E-05
:PTO011:     -1    3    0 -1.18112343E-02  3.170E-05  2.598E-05
:PTO012:     -1    3   -1 -5.08005773E-02  1.283E-04 -2.162E-05
:PTO013:      0    4    0 -8.99612039E-03  2.344E-05  2.269E-06
:PTO014:      0    2   -3  2.07226132E-02 -5.289E-05 -6.419E-06

:ENE  : ********** TOTAL ENERGY IN Ry =       -36944.30844460

       TOTAL FORCE IN mRy/a.u. = |F|     Fx             Fy             Fz     with/without FOR in case.in2
:FOR001:   1.ATOM         16.254          0.000          0.000        -16.254 partial forces
       TOTAL FORCE WITH RESPECT TO GLOBAL CARTESIAN COORDINATES:
:FCA001:   1.ATOM                         0.000        -16.254          0.000 partial forces
       TOTAL FORCE WITH RESPECT TO THE GLOBAL COORDINATE SYSTEM:
:FGL001:   1.ATOM                 0.000000000   -16.254489744     0.000000000 partial forces
 Flat Integration
 New Mode for Coulomb Integral
 Consistent 3/8+Simpson combinations
 Extension of core to zero
 LDM version in phi
 Fifth-order quadrature in outwin


            ---------
:ITE016: 16. ITERATION
            ---------

:NATO :    1 INDEPENDENT AND    2 TOTAL ATOMS IN UNITCELL
       SUBSTANCE: aU                                                          

       LATTICE                      = CXY 
:POT  : POTENTIAL OPTION EX_LDA EC_LDA VX_LDA VC_LDA
:LAT  : LATTICE CONSTANTS=  5.93983 12.05341 10.40596    1.571    1.571    1.571
:VOL  : UNIT CELL VOLUME =     372.50797
       MODE OF CALCULATION IS       = RELA
       NON-SPINPOLARIZED CALCULATION
:IFFT  : FFT-parameters:   48   96   80 Factor: 2.00


   CONVERGENCE PARAMETER FOR PSEUDOCHARGE: NCON=  9
   MAXIMAL VALUE OF RMT(JATOM)*ABSK(NKK) : RK  =27.59363


:VKCOUL :  VK-COUL convergence: 0.123E-06
       ATOMNUMBER=  1 Pr1        VCOUL-ZERO =  0.31218E+00
:EFG001:                        EFG         =    -9.52599   *10**21  V / m**2
                               V20  TOT/SRF=    -8.24975    -0.04447
                               V22  TOT/SRF=    -1.54746    -0.00494
                               V22M TOT/SRF=     0.00000     0.00000
                               V21  TOT/SRF=     0.00000     0.00000
                               V21M TOT/SRF=     0.00000     0.00000

              3.21553    0.00000    0.00000        3.21553    0.00000    0.00000
              0.00000    6.31046    0.00000        0.00000    6.31046    0.00000
              0.00000    0.00000   -9.52599        0.00000    0.00000   -9.52599

         MAIN DIRECTIONS OF THE EFG   1.0000  0.0000  0.0000
                                      0.0000  1.0000  0.0000
                                      0.0000  0.0000  1.0000
:ANG001:  ANGLE WITH OLD X-AXIS =         0.0

:ETA001:                         ASYMM. ETA =     0.32489


     HELLMANN-FEYNMAN-FORCE IN mRy/a.u. = |F|  Fx       Fy             Fz
:FHF001:   1.ATOM   1634.403915821096      0.000000000000      0.000000000000  -1634.403915821096

:FIT001: LUSE= 13 SIGMA OF V-XC FIT FOR ATOM  1  0.5749493E-04
:FIT001: LUSE= 13 SIGMA OF V-XC FIT FOR ATOM  1  0.5749493E-04
:DEN  : DENSITY INTEGRAL  =        -14174.90360830   (Ry)
       ELS_POTENTIAL_AT Z=0 and Z=0.5:   0.84585   0.84585
       ELS_POTENTIAL_AT Y=0 and Y=0.5:   0.04213   0.04213
:VZERO:v0,v0c,v0x   0.19871   0.84585  -0.64714 v5,v5c,v5x   0.19871   0.84585  -0.64714
:VZERY:v0,v0c,v0x  -0.81727   0.04213  -0.85940 v5,v5c,v5x  -0.81727   0.04213  -0.85940
:VZERX:v0,v0c,v0x  -1.20244  -0.38933  -0.81311 v5,v5c,v5x  -1.20244  -0.38933  -0.81311
:LMAX-WF:   10   Non-Spherical LMAX:   4

          ATOMIC SPHERE DEPENDENT PARAMETERS FOR ATOM  Pr1       
:e__0001: OVERALL ENERGY PARAMETER IS    0.6402
          OVERALL BASIS SET ON ATOM IS LAPW
:E0_0001: E( 0)=    0.6402
             APW+lo
:E0_0001: E( 0)=   -1.8000   E(BOTTOM)=   -2.436   E(TOP)=   -1.164  4  5   206
             LOCAL ORBITAL
:E1_0001: E( 1)=    1.0402
             APW+lo
:E1_0001: E( 1)=   -0.3298   E(BOTTOM)=   -1.288   E(TOP)=    0.629  3  4   208
             LOCAL ORBITAL
:E3_0001: E( 3)=    0.8441   E(BOTTOM)=    0.638   E(TOP)=    1.050  0  1   122
             APW+lo
:E2_0001: E( 2)=    0.6402   E(BOTTOM)=    0.451   E(TOP)= -200.000  2 -1   119
             APW+lo

       K=   0.06250   0.00000   0.06250            1
:RKM  : MATRIX SIZE   352LOs:  40  RKM= 8.50  WEIGHT= 4.00  PGR:    
       EIGENVALUES ARE:
:EIG00001:      -1.7929988   -1.7589959   -0.5567296   -0.4159675   -0.3837651
:EIG00006:      -0.3710778   -0.3575324   -0.3574561    0.6317795    0.7272181
:EIG00011:       0.8323552    0.8366753    0.8375389    0.8418598    0.8502287
:EIG00016:       0.8666580    0.8731094    0.8738235    0.8781491    0.8810810
:EIG00021:       0.8886696    0.8912455    0.8915014    0.9041880    0.9274549
:EIG00026:       0.9471419    1.0427036    1.0483961    1.1101711    1.1443969
:EIG00031:       1.1463854    1.2871994    1.3188408    1.3852794    1.6891993
:EIG00036:       1.7350685    1.7735835    1.8470998    1.9764953    2.0409211
:EIG00041:       2.1745721    2.2619495    2.3788842    2.4002874    2.5466857
:EIG00046:       2.5536077    2.5727007    2.7027429    2.7250947    2.8528040
 
:EIG00051:       2.9142503    2.9919488    3.0041415    3.1239633    3.1789159
:EIG00056:       3.2043750    3.2473924    3.3604694    3.4098837    3.5250743
:EIG00061:       3.5283842    3.6364273    3.7257739    3.7408607    3.7833769
:EIG00066:       3.9405070    3.9556122    4.0529085    4.0533737    4.0964884
:EIG00071:       4.1026103    4.1630621    4.1940906    4.3082904    4.3177625
:EIG00076:       4.3598342    4.3825147    4.4339903    4.4479516    4.4896977
:EIG00081:       4.5072307    4.5511339    4.5625771    4.6337498    4.6586855
:EIG00086:       4.7599300    4.7801037    4.8544896    4.8889225    4.9228248
:EIG00091:       4.9324142    4.9722586    5.0158756    5.0539739    5.0558013
:EIG00096:       5.0717155    5.1485861    5.1549109    5.2108355    5.2570788
 
:EIG00101:       5.3486322    5.4619301    5.5058312    5.5813103    5.5856998
:EIG00106:       5.6396457    5.6731541    5.7336673    5.7728027    5.7990794
:EIG00111:       5.9070180    5.9461081    6.0578256    6.1172080    6.1492709
:EIG00116:       6.1518775    6.2395646    6.2648134    6.3341241    6.3360312
:EIG00121:       6.4225621    6.4368398    6.5003613    6.5413676    6.5793834
:EIG00126:       6.6664668    6.7364214    6.7429830    6.7738994    6.8417013
:EIG00131:       6.8928885    6.9213801    6.9361768    7.0024992    7.0644420
:EIG00136:       7.0960651    7.1228297    7.1901444    7.2197542    7.2212588
:EIG00141:       7.2737646    7.2844644    7.3346117    7.3707139    7.4224111
:EIG00146:       7.4298503    7.4636799    7.5587674    7.5682546    7.6315265
 
:EIG00151:       7.6465363    7.6745067    7.6952673    7.8604100    7.8887718
:EIG00156:       8.0219721    8.0612672    8.0625357    8.0912600    8.1929945
:EIG00161:       8.2675050    8.3370822
       ********************************************************

:KPT   :      NUMBER OF K-POINTS:   288
   0.0   0.0 angle (M,z), angle (M,x) deg
 
        SPIN-ORBIT EIGENVALUES:
     K=   0.06250   0.00000   0.06250            1
      MATRIX SIZE=  324   WEIGHT= 4.00
     EIGENVALUES ARE:
          -1.7929994   -1.7929994   -1.7589963   -1.7589963   -0.6157486
          -0.6157486   -0.5230171   -0.5230171   -0.4150021   -0.4150021
          -0.3105884   -0.3105884   -0.3069349   -0.3069349   -0.2912161
          -0.2912161    0.6318569    0.6318569    0.7270998    0.7270998
           0.8290679    0.8290679    0.8331532    0.8331532    0.8344190
           0.8344190    0.8389705    0.8389705    0.8461884    0.8461884
           0.8568351    0.8568351    0.8682129    0.8682129    0.8776727
           0.8776727    0.8840827    0.8840827    0.8849909    0.8849909

           0.8913578    0.8913579    0.8944950    0.8944951    0.8963134
           0.8963134    0.9078701    0.9078701    0.9288619    0.9288619
           0.9474074    0.9474074    1.0391650    1.0391650    1.0517713
           1.0517713    1.1106290    1.1106290    1.1430161    1.1430162
           1.1481197    1.1481198    1.2871394    1.2871394    1.3191084
           1.3191084    1.3854141    1.3854142    1.6895063    1.6895063
           1.7351054    1.7351054    1.7735654    1.7735654    1.8471134
           1.8471134    1.9762334    1.9762334    2.0404030    2.0404030

           2.1746494    2.1746494    2.2612251    2.2612251    2.3778006
           2.3778006    2.4007137    2.4007137    2.5469156    2.5469156
           2.5535568    2.5535568    2.5718019    2.5718019    2.7009939
           2.7009939    2.7270059    2.7270059    2.8528946    2.8528946
           2.9136495    2.9136495    2.9875948    2.9875948    3.0072597
           3.0072597    3.1237697    3.1237697    3.1789857    3.1789857
           3.2051258    3.2051258    3.2465105    3.2465105    3.3609812
           3.3609812    3.4110248    3.4110248    3.5232345    3.5232345

           3.5305770    3.5305770    3.6406923    3.6406923    3.7260136
           3.7260136    3.7407342    3.7407342    3.7836533    3.7836533
           3.9404906    3.9404906    3.9558597    3.9558597    4.0522217
           4.0522217    4.0539580    4.0539580    4.0964962    4.0964962
           4.1030408    4.1030408    4.1621707    4.1621707    4.1941968
           4.1941968    4.3064332    4.3064332    4.3198152    4.3198152
           4.3616689    4.3616689    4.3832244    4.3832244    4.4340783
           4.4340783    4.4484731    4.4484731    4.4900598    4.4900598

       ********************************************************
:GAP (global)   :    0.0    Ry =     0.0   eV (metal)
:GAP (this spin):    0.0    Ry =     0.0   eV (metal)
         Bandranges (emin - emax) and occupancy:
:BAN00018:  18    0.624932    0.793468  1.00000000
:BAN00019:  19    0.715970    0.813183  1.00000000
:BAN00020:  20    0.715970    0.813183  1.00000000
:BAN00021:  21    0.739813    0.839487  1.00000000
:BAN00022:  22    0.739813    0.839487  1.00000000
:BAN00023:  23    0.800470    0.843959  0.99687884
:BAN00024:  24    0.800470    0.843959  0.99687883
:BAN00025:  25    0.815012    0.855202  0.72148508
:BAN00026:  26    0.815012    0.855202  0.72148491
:BAN00027:  27    0.833522    0.857740  0.28163626
:BAN00028:  28    0.833522    0.857740  0.28163608
:BAN00029:  29    0.844514    0.860913  0.00000000
:BAN00030:  30    0.844514    0.860913  0.00000000
:BAN00031:  31    0.849394    0.869008  0.00000000
:BAN00032:  32    0.849394    0.869008  0.00000000
:BAN00033:  33    0.859760    0.877482  0.00000000
        Energy to separate low and high energystates:    0.57493


:NOE  : NUMBER OF ELECTRONS          =   26.000

:FER  : F E R M I - ENERGY(TETRAH.M.)=   0.8427410151
:GMA  : POTENTIAL AND CHARGE CUT-OFF  12.00 Ry**.5

:POS001: ATOM   -1 X,Y,Z = 0.00000 0.89750 0.25000  MULT= 2  ZZ= 59.000  Pr1       

       LMMAX 16
       LM=   0 0  1 0  2 0  2 2  3 0  3 2  4 0  4 2  4 4  5 0  5 2  5 4  6 0  6 2  6 4  6 6

:CHA001: TOTAL VALENCE CHARGE INSIDE SPHERE   1 =   9.6162    (RMT=  2.3000 )
:PCS001: PARTIAL CHARGES SPHERE =  1 S,P,D,F,PX,PY,PZ,D-Z2,D-X2Y2,D-XY,D-XZ,D-YZ 
:QTL001: 1.9413 4.9902 0.6633 2.0205 1.6611 1.6592 1.6699 0.1270 0.1187 0.1389 0.1343 0.1444
        Q-s-low E-s-low   Q-p-low E-p-low   Q-d-low E-d-low   Q-f-low E-f-low
:EPL001:  1.8687 -1.7576    4.9143 -0.4472    0.0063 -0.4550    0.0019 -0.4689
        Q-s-hi  E-s-hi    Q-p-hi  E-p-hi    Q-d-hi  E-d-hi    Q-f-hi  E-f-hi 
:EPH001:  0.0727  0.7505    0.0759  0.7833    0.6570  0.7766    2.0186  0.8216

                      VXX         VYY         VZZ       UP TO R
:VZZ001:             3.21909     6.11186    -9.33094       2.300

:CHA  : TOTAL VALENCE CHARGE INSIDE UNIT CELL =      26.000000

:SUM  : SUM OF EIGENVALUES =          -4.476158426


        1.ATOM      Pr1                  14 CORE STATES
       CORE-FORCE in mRy/a.u. = |F|      Fx             Fy             Fz
:FCO001:   1.ATOM   1618.439636303117      0.000000000000      0.000000000000   1618.439636303117

:1S 001: 1S               -3066.749495266 Ry
:2S 001: 2S                -492.503526070 Ry
:2PP001: 2P*               -465.602166325 Ry
:2P 001: 2P                -430.204849775 Ry
:3S 001: 3S                -105.598960068 Ry
:3PP001: 3P*                -94.136585667 Ry
:3P 001: 3P                 -87.128872595 Ry
:3DD001: 3D*                -67.055196877 Ry
:3D 001: 3D                 -65.543707746 Ry
:4S 001: 4S                 -20.270451294 Ry
:4PP001: 4P*                -15.976618912 Ry
:4P 001: 4P                 -14.448353376 Ry
:4DD001: 4D*                 -7.379552880 Ry
:4D 001: 4D                  -7.109844825 Ry
:CINT001 Core Integral Atom   1   45.998501

       DENSITY AT NUCLEUS
        JATOM        VALENCE       SEMI-CORE          CORE           TOTAL
:RTO001:   1      648.864996        0.000000   656825.512874   657474.377871
     
       CHARGES OF NEW CHARGE DENSITY
:NTO   : INTERSTITIAL CHARGE =     6.767564
:NPC   : PW Pseudocharge     =    17.267936
:NTO001: CHARGE SPHERE  1    =    55.614718

:NEC01: NUCLEAR AND ELECTRONIC CHARGE    118.00000   117.99700
     
       CHARGES OF OLD CHARGE DENSITY
:OTO   : INTERSTITIAL CHARGE =     6.764838
:OPC   : PW Pseudocharge     =    17.244428
:OTO001: CHARGE SPHERE  1    =    55.617581

:NEC02: NUCLEAR AND ELECTRONIC CHARGE    118.00000   118.00000
     
       CONVERGENCE TEST
:DTO001: DIFFERENCE IN SPHERE  1 =  0.0074395

:DIS  :  CHARGE DISTANCE       ( 0.0074395 for atom    1 spin 1)      0.0074395
 PW Mixed is          394
 
******************************************************
* MULTISECANT MIXING VER9 RELEASE 10.4.0              *
* Slow Mode, cautious                                *
* Fixed density scale                                *
* Regularization       1.000E-04                     *
* Step Trust Radius    0.75000                       *
* Trust Upper Limit    2.000E+00                     *
* Max Number of Memory Steps   12                    *
******************************************************
 
:PWTMP   2.7058E+02  1.9467E+02  3.7251E+02
:PLANE:  PW TOTAL      5.3583 DISTAN   1.08E-02  2.01E-01 %
:CHARG:  CLM/ATOM   1381.9563 DISTAN   2.91E-02  2.10E-03 %
 
Step History
        DMIX         DMIXT        Red     Pred      Trust     Lambda    MagRel    MagAbs     Beta
  1   3.5000E-02   3.5000E-02 -1.00E+00  1.00E+00 -1.00E+01  1.00E+00  3.50E-02  3.50E-02  1.00E+00
  2   2.5000E-02   2.5000E-02  7.18E-01  1.00E+00 -1.00E+01  1.00E+00  2.50E-02  3.30E-03  1.00E+00
  3   2.0000E-02   2.0000E-02 -1.00E+00  3.34E-01  4.28E-01  1.00E+00  1.44E-01  1.36E-02  1.00E+00
:JACOBIANS    1.750E-02   6.114E-02
  
:NORMS:  1/Froebius, Min, Max, Used   0.1546E+00  0.1546E+00  0.5547E+00  0.1555E+00
:INFO :  Number of Memory Steps    2 Skipping    0
:INFO :  SLambda=    3.0000000000  Max    3.0000000000
:PREDicted Charge, CTotal, PW Trust    2.600E-03   5.199E-03   2.118E-02
:PREDicted DMix, Beta, BLim   3.4784E-03  1.0063E+00  3.1021E-01

Eigenvalues, unscaled except for SY+YY
   #     SY Real        SY Imag          SS             YY         SY+YY Real      SY+YY Imag
   1   2.672749E-06   0.000000E+00   4.781539E-02   1.999995E+00   1.315447E-05   0.000000E+00
   2   2.094330E-01   0.000000E+00   2.339884E-06   4.975228E-06   2.628294E+00   0.000000E+00
 
:INFO :  Singular value  2.628E+00 Weight  1.000E+00 Projection -2.753E-04
:INFO :  Singular value  1.315E-05 Weight  4.307E-03 Projection  6.288E-02
:RANK :  ACTIVE   1.00/2  =  50.22 % ; YY RANK   1.00/2  =  50.03 %
 
:BLIM :  VZERO Control Off
:TRUST:  Step 5.36E-01  Charge 7.50E-02 (e) CTO  2.50E-01 (e) PW  3.50E-01 (e)
:DIRM :  MEMORY  2/12 SCALE   1.000 RED  0.33 PRED  0.33 NEXT  1.00 
:TRAVE:  Charge 1.31E-03 (e) CTO  2.62E-03 (e) PW  1.06E-02 (e)
:DIRP :  |MSR1|= 1.152E-04 |PRATT|= 1.075E-02 ANGLE=   8.0 DEGREES
:DIRQ :  |MSR1|= 5.236E-04 |PRATT|= 2.906E-02 ANGLE=   4.1 DEGREES
:DIRT :  |MSR1|= 5.362E-04 |PRATT|= 3.099E-02 ANGLE=   9.1 DEGREES
:MIX  :   MSE1   REGULARIZATION:  2.00E-04 GREED: 0.01424  Newton 1.00  0.0173                
     
       CHARGES OF MIXED CHARGE DENSITY
:CTO   : INTERSTITIAL CHARGE =     6.764910
:CPC   : PW Pseudocharge     =    17.244738
:CTO001: CHARGE SPHERE  1    =    55.617545

:NEC03: NUCLEAR AND ELECTRONIC CHARGE    118.00000   118.00000

PW CHANGE     H    K    L      Current       Change    Residue
:PTO001:      0    0    0  6.44540515E-02  1.024E-06  9.903E-05
:PTO003:      0    2    0  1.63846243E-02  2.750E-07  2.828E-05
:PTO004:     -1    1    0  7.91225325E-02  1.547E-06  1.553E-04
:PTO005:      0    2   -1 -9.12047140E-02 -2.137E-06 -1.999E-04
:PTO006:      0    0   -2 -4.72578180E-02 -1.033E-06 -9.953E-05
:PTO007:     -1    1   -1 -9.69702337E-02 -1.794E-06 -1.893E-04
:PTO008:      0    2   -2 -1.47879798E-02 -1.959E-07 -2.609E-05
:PTO009:     -1    1   -2 -7.51668018E-02 -1.920E-06 -1.819E-04
:PTO011:     -1    3    0 -1.18112819E-02 -4.768E-08 -1.473E-05
:PTO012:     -1    3   -1 -5.08019484E-02 -1.371E-06 -1.283E-04
:PTO013:      0    4    0 -8.99621812E-03 -9.773E-08 -1.462E-05
:PTO014:      0    2   -3  2.07231253E-02  5.121E-07  4.969E-05

:ENE  : ********** TOTAL ENERGY IN Ry =       -36944.30821601

       TOTAL FORCE IN mRy/a.u. = |F|     Fx             Fy             Fz     with/without FOR in case.in2
:FOR001:   1.ATOM         15.964          0.000          0.000        -15.964 partial forces
       TOTAL FORCE WITH RESPECT TO GLOBAL CARTESIAN COORDINATES:
:FCA001:   1.ATOM                         0.000        -15.964          0.000 partial forces
       TOTAL FORCE WITH RESPECT TO THE GLOBAL COORDINATE SYSTEM:
:FGL001:   1.ATOM                 0.000000000   -15.964279518     0.000000000 partial forces
 Flat Integration
 New Mode for Coulomb Integral
 Consistent 3/8+Simpson combinations
 Extension of core to zero
 LDM version in phi
 Fifth-order quadrature in outwin


            ---------
:ITE017: 17. ITERATION
            ---------

:NATO :    1 INDEPENDENT AND    2 TOTAL ATOMS IN UNITCELL
       SUBSTANCE: aU                                                          

       LATTICE                      = CXY 
:POT  : POTENTIAL OPTION EX_LDA EC_LDA VX_LDA VC_LDA
:LAT  : LATTICE CONSTANTS=  5.93983 12.05341 10.40596    1.571    1.571    1.571
:VOL  : UNIT CELL VOLUME =     372.50797
       MODE OF CALCULATION IS       = RELA
       NON-SPINPOLARIZED CALCULATION
:IFFT  : FFT-parameters:   48   96   80 Factor: 2.00


   CONVERGENCE PARAMETER FOR PSEUDOCHARGE: NCON=  9
   MAXIMAL VALUE OF RMT(JATOM)*ABSK(NKK) : RK  =27.59363


:VKCOUL :  VK-COUL convergence: 0.122E-06
       ATOMNUMBER=  1 Pr1        VCOUL-ZERO =  0.31218E+00
:EFG001:                        EFG         =    -9.52325   *10**21  V / m**2
                               V20  TOT/SRF=    -8.24738    -0.04447
                               V22  TOT/SRF=    -1.54566    -0.00493
                               V22M TOT/SRF=     0.00000     0.00000
                               V21  TOT/SRF=     0.00000     0.00000
                               V21M TOT/SRF=     0.00000     0.00000

              3.21597    0.00000    0.00000        3.21597    0.00000    0.00000
              0.00000    6.30728    0.00000        0.00000    6.30728    0.00000
              0.00000    0.00000   -9.52325        0.00000    0.00000   -9.52325

         MAIN DIRECTIONS OF THE EFG   1.0000  0.0000  0.0000
                                      0.0000  1.0000  0.0000
                                      0.0000  0.0000  1.0000
:ANG001:  ANGLE WITH OLD X-AXIS =         0.0

:ETA001:                         ASYMM. ETA =     0.32461


     HELLMANN-FEYNMAN-FORCE IN mRy/a.u. = |F|  Fx       Fy             Fz
:FHF001:   1.ATOM   1634.109053929885      0.000000000000      0.000000000000  -1634.109053929885

:FIT001: LUSE= 13 SIGMA OF V-XC FIT FOR ATOM  1  0.5743420E-04
:FIT001: LUSE= 13 SIGMA OF V-XC FIT FOR ATOM  1  0.5743420E-04
:DEN  : DENSITY INTEGRAL  =        -14174.90738208   (Ry)
       ELS_POTENTIAL_AT Z=0 and Z=0.5:   0.84586   0.84586
       ELS_POTENTIAL_AT Y=0 and Y=0.5:   0.04213   0.04213
:VZERO:v0,v0c,v0x   0.19872   0.84586  -0.64714 v5,v5c,v5x   0.19872   0.84586  -0.64714
:VZERY:v0,v0c,v0x  -0.81727   0.04213  -0.85940 v5,v5c,v5x  -0.81727   0.04213  -0.85940
:VZERX:v0,v0c,v0x  -1.20245  -0.38934  -0.81312 v5,v5c,v5x  -1.20245  -0.38934  -0.81312
:LMAX-WF:   10   Non-Spherical LMAX:   4

          ATOMIC SPHERE DEPENDENT PARAMETERS FOR ATOM  Pr1       
:e__0001: OVERALL ENERGY PARAMETER IS    0.6419
          OVERALL BASIS SET ON ATOM IS LAPW
:E0_0001: E( 0)=    0.6419
             APW+lo
:E0_0001: E( 0)=   -1.7999   E(BOTTOM)=   -2.436   E(TOP)=   -1.164  4  5   203
             LOCAL ORBITAL
:E1_0001: E( 1)=    1.0419
             APW+lo
:E1_0001: E( 1)=   -0.3298   E(BOTTOM)=   -1.288   E(TOP)=    0.629  3  4   210
             LOCAL ORBITAL
:E3_0001: E( 3)=    0.8441   E(BOTTOM)=    0.638   E(TOP)=    1.050  0  1   117
             APW+lo
:E2_0001: E( 2)=    0.6419   E(BOTTOM)=    0.451   E(TOP)= -200.000  2 -1   118
             APW+lo

       K=   0.06250   0.00000   0.06250            1
:RKM  : MATRIX SIZE   352LOs:  40  RKM= 8.50  WEIGHT= 4.00  PGR:    
       EIGENVALUES ARE:
:EIG00001:      -1.7929836   -1.7589801   -0.5567206   -0.4159560   -0.3837533
:EIG00006:      -0.3710618   -0.3575215   -0.3574398    0.6317890    0.7272264
:EIG00011:       0.8323827    0.8367072    0.8375631    0.8418900    0.8502525
:EIG00016:       0.8666935    0.8731445    0.8738591    0.8781839    0.8811094
:EIG00021:       0.8887049    0.8912789    0.8915336    0.9042162    0.9274757
:EIG00026:       0.9471575    1.0427149    1.0484042    1.1101817    1.1444077
:EIG00031:       1.1463956    1.2872094    1.3188507    1.3852867    1.6892120
:EIG00036:       1.7350799    1.7735934    1.8471064    1.9765070    2.0409297
:EIG00041:       2.1745804    2.2619571    2.3788896    2.4002924    2.5466785
:EIG00046:       2.5536090    2.5727042    2.7027457    2.7250927    2.8528054
 
:EIG00051:       2.9142443    2.9919422    3.0041353    3.1239462    3.1789079
:EIG00056:       3.2043660    3.2473942    3.3604293    3.4098808    3.5250738
:EIG00061:       3.5283622    3.6364097    3.7257631    3.7408326    3.7833598
:EIG00066:       3.9404728    3.9555957    4.0529092    4.0533611    4.0964710
:EIG00071:       4.1026012    4.1630467    4.1940826    4.3082880    4.3177537
:EIG00076:       4.3598290    4.3824924    4.4339654    4.4479425    4.4896963
:EIG00081:       4.5072157    4.5511270    4.5625632    4.6337333    4.6586745
:EIG00086:       4.7599222    4.7800987    4.8544809    4.8888779    4.9228155
:EIG00091:       4.9323982    4.9722483    5.0158196    5.0539603    5.0557507
:EIG00096:       5.0717102    5.1485783    5.1548961    5.2108036    5.2570631
 
:EIG00101:       5.3486045    5.4619002    5.5058127    5.5812910    5.5856819
:EIG00106:       5.6396172    5.6731342    5.7336496    5.7727904    5.7990500
:EIG00111:       5.9069854    5.9460902    6.0577571    6.1171799    6.1492044
:EIG00116:       6.1518400    6.2395161    6.2647618    6.3340407    6.3359868
:EIG00121:       6.4224975    6.4367797    6.5002759    6.5413370    6.5793377
:EIG00126:       6.6664252    6.7363873    6.7429436    6.7738457    6.8416687
:EIG00131:       6.8928315    6.9213288    6.9361511    7.0024247    7.0643715
:EIG00136:       7.0960290    7.1227912    7.1900754    7.2197203    7.2212112
:EIG00141:       7.2737107    7.2844385    7.3345645    7.3706824    7.4222943
:EIG00146:       7.4298071    7.4636021    7.5587138    7.5682141    7.6314984
 
:EIG00151:       7.6463602    7.6744185    7.6952344    7.8603382    7.8887303
:EIG00156:       8.0219083    8.0612167    8.0624777    8.0912020    8.1929457
:EIG00161:       8.2674507    8.3370390
       ********************************************************

:KPT   :      NUMBER OF K-POINTS:   288
   0.0   0.0 angle (M,z), angle (M,x) deg
 
        SPIN-ORBIT EIGENVALUES:
     K=   0.06250   0.00000   0.06250            1
      MATRIX SIZE=  324   WEIGHT= 4.00
     EIGENVALUES ARE:
          -1.7929841   -1.7929841   -1.7589805   -1.7589805   -0.6157381
          -0.6157381   -0.5230039   -0.5230039   -0.4149906   -0.4149906
          -0.3105742   -0.3105742   -0.3069215   -0.3069215   -0.2912040
          -0.2912040    0.6318665    0.6318665    0.7271082    0.7271082
           0.8290965    0.8290965    0.8331842    0.8331842    0.8344452
           0.8344452    0.8390008    0.8390009    0.8462142    0.8462142
           0.8568703    0.8568703    0.8682443    0.8682443    0.8777072
           0.8777072    0.8841163    0.8841163    0.8850217    0.8850217

           0.8913908    0.8913908    0.8945261    0.8945262    0.8963473
           0.8963473    0.9078988    0.9078988    0.9288836    0.9288836
           0.9474235    0.9474235    1.0391754    1.0391754    1.0517805
           1.0517805    1.1106396    1.1106396    1.1430267    1.1430267
           1.1481301    1.1481302    1.2871492    1.2871492    1.3191184
           1.3191184    1.3854215    1.3854215    1.6895189    1.6895189
           1.7351168    1.7351168    1.7735753    1.7735753    1.8471200
           1.8471200    1.9762450    1.9762450    2.0404115    2.0404115

           2.1746576    2.1746576    2.2612326    2.2612326    2.3778059
           2.3778059    2.4007186    2.4007186    2.5469086    2.5469086
           2.5535582    2.5535582    2.5718052    2.5718052    2.7009963
           2.7009963    2.7270040    2.7270040    2.8528958    2.8528958
           2.9136437    2.9136437    2.9875875    2.9875875    3.0072539
           3.0072539    3.1237524    3.1237524    3.1789780    3.1789780
           3.2051170    3.2051170    3.2465118    3.2465118    3.3609413
           3.3609413    3.4110220    3.4110220    3.5232263    3.5232263

           3.5305617    3.5305617    3.6406756    3.6406756    3.7260028
           3.7260028    3.7407060    3.7407060    3.7836362    3.7836362
           3.9404566    3.9404566    3.9558431    3.9558431    4.0522184
           4.0522184    4.0539494    4.0539494    4.0964789    4.0964789
           4.1030316    4.1030316    4.1621552    4.1621552    4.1941887
           4.1941887    4.3064300    4.3064300    4.3198072    4.3198072
           4.3616628    4.3616628    4.3832030    4.3832030    4.4340536
           4.4340536    4.4484639    4.4484639    4.4900584    4.4900584

       ********************************************************
:GAP (global)   :    0.0    Ry =     0.0   eV (metal)
:GAP (this spin):    0.0    Ry =     0.0   eV (metal)
         Bandranges (emin - emax) and occupancy:
:BAN00018:  18    0.624942    0.793486  1.00000000
:BAN00019:  19    0.715978    0.813204  1.00000000
:BAN00020:  20    0.715978    0.813204  1.00000000
:BAN00021:  21    0.739823    0.839514  1.00000000
:BAN00022:  22    0.739823    0.839514  1.00000000
:BAN00023:  23    0.800487    0.843991  0.99687609
:BAN00024:  24    0.800487    0.843991  0.99687608
:BAN00025:  25    0.815035    0.855233  0.72150405
:BAN00026:  26    0.815035    0.855233  0.72150387
:BAN00027:  27    0.833548    0.857774  0.28162003
:BAN00028:  28    0.833548    0.857774  0.28161987
:BAN00029:  29    0.844544    0.860949  0.00000000
:BAN00030:  30    0.844544    0.860949  0.00000000
:BAN00031:  31    0.849423    0.869038  0.00000000
:BAN00032:  32    0.849423    0.869038  0.00000000
:BAN00033:  33    0.859792    0.877513  0.00000000
        Energy to separate low and high energystates:    0.57494


:NOE  : NUMBER OF ELECTRONS          =   26.000

:FER  : F E R M I - ENERGY(TETRAH.M.)=   0.8427703283
:GMA  : POTENTIAL AND CHARGE CUT-OFF  12.00 Ry**.5

:POS001: ATOM   -1 X,Y,Z = 0.00000 0.89750 0.25000  MULT= 2  ZZ= 59.000  Pr1       

       LMMAX 16
       LM=   0 0  1 0  2 0  2 2  3 0  3 2  4 0  4 2  4 4  5 0  5 2  5 4  6 0  6 2  6 4  6 6

:CHA001: TOTAL VALENCE CHARGE INSIDE SPHERE   1 =   9.6160    (RMT=  2.3000 )
:PCS001: PARTIAL CHARGES SPHERE =  1 S,P,D,F,PX,PY,PZ,D-Z2,D-X2Y2,D-XY,D-XZ,D-YZ 
:QTL001: 1.9413 4.9903 0.6634 2.0201 1.6611 1.6592 1.6699 0.1270 0.1187 0.1389 0.1343 0.1445
        Q-s-low E-s-low   Q-p-low E-p-low   Q-d-low E-d-low   Q-f-low E-f-low
:EPL001:  1.8687 -1.7576    4.9143 -0.4472    0.0063 -0.4550    0.0019 -0.4689
        Q-s-hi  E-s-hi    Q-p-hi  E-p-hi    Q-d-hi  E-d-hi    Q-f-hi  E-f-hi 
:EPH001:  0.0727  0.7505    0.0759  0.7833    0.6571  0.7766    2.0183  0.8216

                      VXX         VYY         VZZ       UP TO R
:VZZ001:             3.21534     6.12297    -9.33831       2.300

:CHA  : TOTAL VALENCE CHARGE INSIDE UNIT CELL =      26.000000

:SUM  : SUM OF EIGENVALUES =          -4.475771038


        1.ATOM      Pr1                  14 CORE STATES
       CORE-FORCE in mRy/a.u. = |F|      Fx             Fy             Fz
:FCO001:   1.ATOM   1618.107619283445      0.000000000000      0.000000000000   1618.107619283445

:1S 001: 1S               -3066.749492659 Ry
:2S 001: 2S                -492.503508483 Ry
:2PP001: 2P*               -465.602152035 Ry
:2P 001: 2P                -430.204834252 Ry
:3S 001: 3S                -105.598916587 Ry
:3PP001: 3P*                -94.136543509 Ry
:3P 001: 3P                 -87.128829292 Ry
:3DD001: 3D*                -67.055156933 Ry
:3D 001: 3D                 -65.543667357 Ry
:4S 001: 4S                 -20.270403065 Ry
:4PP001: 4P*                -15.976571595 Ry
:4P 001: 4P                 -14.448307041 Ry
:4DD001: 4D*                 -7.379509040 Ry
:4D 001: 4D                  -7.109801365 Ry
:CINT001 Core Integral Atom   1   45.998501

       DENSITY AT NUCLEUS
        JATOM        VALENCE       SEMI-CORE          CORE           TOTAL
:RTO001:   1      648.865002        0.000000   656825.516249   657474.381252
     
       CHARGES OF NEW CHARGE DENSITY
:NTO   : INTERSTITIAL CHARGE =     6.768003
:NPC   : PW Pseudocharge     =    17.268114
:NTO001: CHARGE SPHERE  1    =    55.614499

:NEC01: NUCLEAR AND ELECTRONIC CHARGE    118.00000   117.99700
     
       CHARGES OF OLD CHARGE DENSITY
:OTO   : INTERSTITIAL CHARGE =     6.764910
:OPC   : PW Pseudocharge     =    17.244738
:OTO001: CHARGE SPHERE  1    =    55.617545

:NEC02: NUCLEAR AND ELECTRONIC CHARGE    118.00000   118.00000
     
       CONVERGENCE TEST
:DTO001: DIFFERENCE IN SPHERE  1 =  0.0071748

:DIS  :  CHARGE DISTANCE       ( 0.0071748 for atom    1 spin 1)      0.0071748
 PW Mixed is          394
 
******************************************************
* MULTISECANT MIXING VER9 RELEASE 10.4.0              *
* Slow Mode, cautious                                *
* Fixed density scale                                *
* Regularization       1.000E-04                     *
* Step Trust Radius    0.75000                       *
* Trust Upper Limit    2.000E+00                     *
* Max Number of Memory Steps   12                    *
******************************************************
 
:PWTMP   2.7058E+02  1.9467E+02  3.7251E+02
:PLANE:  PW TOTAL      5.3584 DISTAN   1.07E-02  1.99E-01 %
:CHARG:  CLM/ATOM   1381.9562 DISTAN   2.84E-02  2.05E-03 %
 
Step History
        DMIX         DMIXT        Red     Pred      Trust     Lambda    MagRel    MagAbs     Beta
  1   3.5000E-02   3.5000E-02 -1.00E+00  1.00E+00 -1.00E+01  1.00E+00  3.50E-02  3.50E-02  1.00E+00
  2   2.5000E-02   2.5000E-02  7.18E-01  1.00E+00 -1.00E+01  1.00E+00  2.50E-02  3.30E-03  1.00E+00
  3   2.0000E-02   2.0000E-02  3.27E-01  3.34E-01  4.28E-01  3.00E+00  1.44E-01  1.36E-02  1.00E+00
  4   1.4239E-02   1.4239E-02 -1.00E+00  9.96E-01  5.36E-01  1.00E+00  1.73E-02  5.36E-04  1.00E+00
:JACOBIANS    5.426E-02   3.500E-01
  
:NORMS:  1/Froebius, Min, Max, Used   0.3300E+00  0.2952E+00  0.6143E+00  0.3301E+00
:INFO :  Number of Memory Steps    3 Skipping    0
:INFO :  SLambda=    1.2902293800  Max    1.2902293800
:PREDicted Charge, CTotal, PW Trust    2.267E-03   4.534E-03   1.460E-02
:PREDicted DMix, Beta, BLim   6.2141E-01  2.2641E+01  7.0659E-01

Eigenvalues, unscaled except for SY+YY
   #     SY Real        SY Imag          SS             YY         SY+YY Real      SY+YY Imag
   1   4.416531E-01   0.000000E+00   2.800734E-01   2.573070E+00   3.039375E+00   0.000000E+00
   2   3.268245E-08   0.000000E+00   4.671295E-02   4.269288E-01   1.041799E-06   0.000000E+00
   3   1.624797E-01   0.000000E+00   1.797266E-09   8.772038E-07   7.400941E-01   0.000000E+00
 
:INFO :  Singular value  3.039E+00 Weight  1.000E+00 Projection -8.048E-03
:INFO :  Singular value  7.401E-01 Weight  1.000E+00 Projection -4.388E-02
:INFO :  Singular value  1.042E-06 Weight  1.639E-05 Projection -4.422E-05
:RANK :  ACTIVE   2.00/3  =  66.67 % ; YY RANK   2.00/3  =  66.67 %
 
:BLIM :  VZERO Control Off
:TRUST:  Step 5.94E-01  Charge 7.50E-02 (e) CTO  2.50E-01 (e) PW  3.50E-01 (e)
:DTRUS:  Lambda    6.949E-02 Increment    3.638E-12 Iterations    98 DMIX    2.987E-02
:INFOA:  Angle SubSpace to MSR1      0.11
:DIRM :  MEMORY  3/12 SCALE   1.000 RED  0.98 PRED  1.00 NEXT  0.49 
:INFO :  Limited by Atoms F by Step T

:TRAVE:  Charge 1.58E-03 (e) CTO  3.16E-03 (e) PW  1.13E-02 (e)
:DIRP :  |MSR1|= 6.610E-03 |PRATT|= 1.067E-02 ANGLE=   0.5 DEGREES
:DIRQ :  |MSR1|= 1.675E-02 |PRATT|= 2.836E-02 ANGLE=   0.8 DEGREES
:DIRT :  |MSR1|= 1.801E-02 |PRATT|= 3.030E-02 ANGLE=   1.2 DEGREES
:MIX  :   MSE1   REGULARIZATION:  2.57E-04 GREED: 0.03560  LMStep 0.84  0.5943 Step           
     
       CHARGES OF MIXED CHARGE DENSITY
:CTO   : INTERSTITIAL CHARGE =     6.768599
:CPC   : PW Pseudocharge     =    17.264025
:CTO001: CHARGE SPHERE  1    =    55.615700

:NEC03: NUCLEAR AND ELECTRONIC CHARGE    118.00000   118.00000

PW CHANGE     H    K    L      Current       Change    Residue
:PTO001:      0    0    0  6.45157320E-02  6.168E-05  9.966E-05
:PTO003:      0    2    0  1.64023396E-02  1.772E-05  2.817E-05
:PTO004:     -1    1    0  7.92187413E-02  9.621E-05  1.543E-04
:PTO005:      0    2   -1 -9.13268702E-02 -1.222E-04 -1.975E-04
:PTO006:      0    0   -2 -4.73188365E-02 -6.102E-05 -9.842E-05
:PTO007:     -1    1   -1 -9.70872875E-02 -1.171E-04 -1.876E-04
:PTO008:      0    2   -2 -1.48043017E-02 -1.632E-05 -2.591E-05
:PTO009:     -1    1   -2 -7.52780783E-02 -1.113E-04 -1.797E-04
:PTO011:     -1    3    0 -1.18206202E-02 -9.338E-06 -1.459E-05
:PTO012:     -1    3   -1 -5.08803986E-02 -7.845E-05 -1.267E-04
:PTO013:      0    4    0 -9.00530933E-03 -9.091E-06 -1.441E-05
:PTO014:      0    2   -3  2.07535316E-02  3.041E-05  4.908E-05

:ENE  : ********** TOTAL ENERGY IN Ry =       -36944.30822198

       TOTAL FORCE IN mRy/a.u. = |F|     Fx             Fy             Fz     with/without FOR in case.in2
:FOR001:   1.ATOM         16.001          0.000          0.000        -16.001 partial forces
       TOTAL FORCE WITH RESPECT TO GLOBAL CARTESIAN COORDINATES:
:FCA001:   1.ATOM                         0.000        -16.001          0.000 partial forces
       TOTAL FORCE WITH RESPECT TO THE GLOBAL COORDINATE SYSTEM:
:FGL001:   1.ATOM                 0.000000000   -16.001434646     0.000000000 partial forces
 Flat Integration
 New Mode for Coulomb Integral
 Consistent 3/8+Simpson combinations
 Extension of core to zero
 LDM version in phi
 Fifth-order quadrature in outwin


            ---------
:ITE018: 18. ITERATION
            ---------

:NATO :    1 INDEPENDENT AND    2 TOTAL ATOMS IN UNITCELL
       SUBSTANCE: aU                                                          

       LATTICE                      = CXY 
:POT  : POTENTIAL OPTION EX_LDA EC_LDA VX_LDA VC_LDA
:LAT  : LATTICE CONSTANTS=  5.93983 12.05341 10.40596    1.571    1.571    1.571
:VOL  : UNIT CELL VOLUME =     372.50797
       MODE OF CALCULATION IS       = RELA
       NON-SPINPOLARIZED CALCULATION
:IFFT  : FFT-parameters:   48   96   80 Factor: 2.00


   CONVERGENCE PARAMETER FOR PSEUDOCHARGE: NCON=  9
   MAXIMAL VALUE OF RMT(JATOM)*ABSK(NKK) : RK  =27.59363


:VKCOUL :  VK-COUL convergence: 0.119E-06
       ATOMNUMBER=  1 Pr1        VCOUL-ZERO =  0.31246E+00
:EFG001:                        EFG         =    -9.44817   *10**21  V / m**2
                               V20  TOT/SRF=    -8.18236    -0.04436
                               V22  TOT/SRF=    -1.49575    -0.00464
                               V22M TOT/SRF=     0.00000     0.00000
                               V21  TOT/SRF=     0.00000     0.00000
                               V21M TOT/SRF=     0.00000     0.00000

              3.22833    0.00000    0.00000        3.22833    0.00000    0.00000
              0.00000    6.21984    0.00000        0.00000    6.21984    0.00000
              0.00000    0.00000   -9.44817        0.00000    0.00000   -9.44817

         MAIN DIRECTIONS OF THE EFG   1.0000  0.0000  0.0000
                                      0.0000  1.0000  0.0000
                                      0.0000  0.0000  1.0000
:ANG001:  ANGLE WITH OLD X-AXIS =         0.0

:ETA001:                         ASYMM. ETA =     0.31662


     HELLMANN-FEYNMAN-FORCE IN mRy/a.u. = |F|  Fx       Fy             Fz
:FHF001:   1.ATOM   1624.578198891106      0.000000000000      0.000000000000  -1624.578198891106

:FIT001: LUSE= 13 SIGMA OF V-XC FIT FOR ATOM  1  0.5550193E-04
:FIT001: LUSE= 13 SIGMA OF V-XC FIT FOR ATOM  1  0.5550193E-04
:DEN  : DENSITY INTEGRAL  =        -14174.90335866   (Ry)
       ELS_POTENTIAL_AT Z=0 and Z=0.5:   0.84641   0.84641
       ELS_POTENTIAL_AT Y=0 and Y=0.5:   0.04217   0.04217
:VZERO:v0,v0c,v0x   0.19915   0.84641  -0.64726 v5,v5c,v5x   0.19915   0.84641  -0.64726
:VZERY:v0,v0c,v0x  -0.81746   0.04217  -0.85963 v5,v5c,v5x  -0.81746   0.04217  -0.85963
:VZERX:v0,v0c,v0x  -1.20304  -0.38973  -0.81331 v5,v5c,v5x  -1.20304  -0.38973  -0.81331
:LMAX-WF:   10   Non-Spherical LMAX:   4

          ATOMIC SPHERE DEPENDENT PARAMETERS FOR ATOM  Pr1       
:e__0001: OVERALL ENERGY PARAMETER IS    0.6425
          OVERALL BASIS SET ON ATOM IS LAPW
:E0_0001: E( 0)=    0.6425
             APW+lo
:E0_0001: E( 0)=   -1.7997   E(BOTTOM)=   -2.435   E(TOP)=   -1.164  4  5   201
             LOCAL ORBITAL
:E1_0001: E( 1)=    1.0425
             APW+lo
:E1_0001: E( 1)=   -0.3296   E(BOTTOM)=   -1.288   E(TOP)=    0.629  3  4   210
             LOCAL ORBITAL
:E3_0001: E( 3)=    0.8445   E(BOTTOM)=    0.639   E(TOP)=    1.050  0  1   123
             APW+lo
:E2_0001: E( 2)=    0.6425   E(BOTTOM)=    0.452   E(TOP)= -200.000  2 -1   120
             APW+lo

       K=   0.06250   0.00000   0.06250            1
:RKM  : MATRIX SIZE   352LOs:  40  RKM= 8.50  WEIGHT= 4.00  PGR:    
       EIGENVALUES ARE:
:EIG00001:      -1.7927830   -1.7587792   -0.5565578   -0.4157655   -0.3835663
:EIG00006:      -0.3707823   -0.3573799   -0.3571569    0.6322122    0.7275818
:EIG00011:       0.8327560    0.8371432    0.8377619    0.8422891    0.8504649
:EIG00016:       0.8671498    0.8735847    0.8743073    0.8786115    0.8813674
:EIG00021:       0.8891305    0.8917019    0.8919449    0.9044295    0.9278222
:EIG00026:       0.9474906    1.0430088    1.0486814    1.1105262    1.1447497
:EIG00031:       1.1467288    1.2875400    1.3191604    1.3855224    1.6896655
:EIG00036:       1.7355031    1.7740037    1.8474400    1.9769983    2.0413399
:EIG00041:       2.1749481    2.2623622    2.3793222    2.4006668    2.5470333
:EIG00046:       2.5540140    2.5730965    2.7031311    2.7254723    2.8532221
 
:EIG00051:       2.9146134    2.9922225    3.0045085    3.1242678    3.1792499
:EIG00056:       3.2047048    3.2477677    3.3607199    3.4102752    3.5254276
:EIG00061:       3.5287600    3.6367342    3.7261232    3.7411675    3.7837082
:EIG00066:       3.9408206    3.9559441    4.0532950    4.0537447    4.0968424
:EIG00071:       4.1029764    4.1633936    4.1944722    4.3086611    4.3181559
:EIG00076:       4.3602214    4.3828790    4.4343351    4.4482957    4.4900719
:EIG00081:       4.5075953    4.5514894    4.5629447    4.6340913    4.6590713
:EIG00086:       4.7602734    4.7805084    4.8548692    4.8892603    4.9231855
:EIG00091:       4.9327966    4.9726359    5.0161625    5.0543095    5.0560911
:EIG00096:       5.0720969    5.1489435    5.1552734    5.2111729    5.2574424
 
:EIG00101:       5.3489592    5.4622616    5.5061634    5.5816866    5.5860675
:EIG00106:       5.6400022    5.6735308    5.7340416    5.7731872    5.7994155
:EIG00111:       5.9073641    5.9464913    6.0581148    6.1175552    6.1495715
:EIG00116:       6.1522086    6.2398562    6.2651185    6.3344030    6.3363631
:EIG00121:       6.4228883    6.4371309    6.5006380    6.5416935    6.5796807
:EIG00126:       6.6668248    6.7367393    6.7433236    6.7741961    6.8420436
:EIG00131:       6.8932207    6.9217015    6.9365026    7.0027362    7.0647412
:EIG00136:       7.0964174    7.1231711    7.1904441    7.2201012    7.2215914
:EIG00141:       7.2740795    7.2848714    7.3349604    7.3710063    7.4226393
:EIG00146:       7.4301979    7.4639593    7.5590553    7.5686017    7.6319063
 
:EIG00151:       7.6466898    7.6747879    7.6956140    7.8607239    7.8891206
:EIG00156:       8.0222848    8.0615773    8.0628465    8.0915746    8.1933360
:EIG00161:       8.2678198    8.3373940
       ********************************************************

:KPT   :      NUMBER OF K-POINTS:   288
   0.0   0.0 angle (M,z), angle (M,x) deg
 
        SPIN-ORBIT EIGENVALUES:
     K=   0.06250   0.00000   0.06250            1
      MATRIX SIZE=  324   WEIGHT= 4.00
     EIGENVALUES ARE:
          -1.7927835   -1.7927835   -1.7587796   -1.7587796   -0.6155616
          -0.6155616   -0.5228033   -0.5228033   -0.4147881   -0.4147881
          -0.3103265   -0.3103265   -0.3066908   -0.3066908   -0.2910168
          -0.2910168    0.6322896    0.6322896    0.7274635    0.7274635
           0.8294778    0.8294778    0.8335719    0.8335719    0.8347047
           0.8347047    0.8393857    0.8393857    0.8464595    0.8464595
           0.8573045    0.8573045    0.8686431    0.8686431    0.8781443
           0.8781443    0.8845129    0.8845129    0.8853570    0.8853570

           0.8918049    0.8918049    0.8949124    0.8949124    0.8967705
           0.8967705    0.9081319    0.9081319    0.9292345    0.9292345
           0.9477584    0.9477584    1.0394612    1.0394612    1.0520653
           1.0520653    1.1109836    1.1109837    1.1433657    1.1433657
           1.1484664    1.1484665    1.2874796    1.2874796    1.3194284
           1.3194284    1.3856574    1.3856574    1.6899723    1.6899723
           1.7355399    1.7355399    1.7739857    1.7739857    1.8474537
           1.8474537    1.9767362    1.9767362    2.0408218    2.0408218

           2.1750254    2.1750254    2.2616375    2.2616375    2.3782342
           2.3782342    2.4010970    2.4010970    2.5472635    2.5472635
           2.5539629    2.5539629    2.5721978    2.5721978    2.7013806
           2.7013806    2.7273844    2.7273844    2.8533119    2.8533119
           2.9140125    2.9140125    2.9878892    2.9878892    3.0076075
           3.0076075    3.1240741    3.1240741    3.1793202    3.1793202
           3.2054562    3.2054562    3.2468841    3.2468841    3.3612327
           3.3612327    3.4114157    3.4114157    3.5235930    3.5235930

           3.5309454    3.5309454    3.6410021    3.6410021    3.7263626
           3.7263626    3.7410411    3.7410411    3.7839844    3.7839844
           3.9408044    3.9408044    3.9561916    3.9561916    4.0526037
           4.0526037    4.0543336    4.0543336    4.0968504    4.0968504
           4.1034068    4.1034068    4.1625025    4.1625025    4.1945784
           4.1945784    4.3068077    4.3068077    4.3202039    4.3202039
           4.3620547    4.3620547    4.3835898    4.3835898    4.4344230
           4.4344230    4.4488177    4.4488177    4.4904341    4.4904341

       ********************************************************
:GAP (global)   :    0.0    Ry =     0.0   eV (metal)
:GAP (this spin):    0.0    Ry =     0.0   eV (metal)
         Bandranges (emin - emax) and occupancy:
:BAN00018:  18    0.625365    0.793873  1.00000000
:BAN00019:  19    0.716337    0.813563  1.00000000
:BAN00020:  20    0.716337    0.813563  1.00000000
:BAN00021:  21    0.740204    0.839773  1.00000000
:BAN00022:  22    0.740204    0.839773  1.00000000
:BAN00023:  23    0.800842    0.844392  0.99681002
:BAN00024:  24    0.800842    0.844392  0.99681002
:BAN00025:  25    0.815449    0.855555  0.72172881
:BAN00026:  26    0.815449    0.855555  0.72172866
:BAN00027:  27    0.833925    0.858167  0.28146136
:BAN00028:  28    0.833925    0.858167  0.28146112
:BAN00029:  29    0.844888    0.861395  0.00000000
:BAN00030:  30    0.844888    0.861395  0.00000000
:BAN00031:  31    0.849751    0.869393  0.00000000
:BAN00032:  32    0.849751    0.869393  0.00000000
:BAN00033:  33    0.860167    0.877893  0.00000000
        Energy to separate low and high energystates:    0.57537


:NOE  : NUMBER OF ELECTRONS          =   26.000

:FER  : F E R M I - ENERGY(TETRAH.M.)=   0.8431241360
:GMA  : POTENTIAL AND CHARGE CUT-OFF  12.00 Ry**.5

:POS001: ATOM   -1 X,Y,Z = 0.00000 0.89750 0.25000  MULT= 2  ZZ= 59.000  Pr1       

       LMMAX 16
       LM=   0 0  1 0  2 0  2 2  3 0  3 2  4 0  4 2  4 4  5 0  5 2  5 4  6 0  6 2  6 4  6 6

:CHA001: TOTAL VALENCE CHARGE INSIDE SPHERE   1 =   9.6162    (RMT=  2.3000 )
:PCS001: PARTIAL CHARGES SPHERE =  1 S,P,D,F,PX,PY,PZ,D-Z2,D-X2Y2,D-XY,D-XZ,D-YZ 
:QTL001: 1.9413 4.9903 0.6637 2.0200 1.6612 1.6592 1.6699 0.1271 0.1189 0.1389 0.1344 0.1445
        Q-s-low E-s-low   Q-p-low E-p-low   Q-d-low E-d-low   Q-f-low E-f-low
:EPL001:  1.8687 -1.7574    4.9145 -0.4470    0.0063 -0.4548    0.0019 -0.4687
        Q-s-hi  E-s-hi    Q-p-hi  E-p-hi    Q-d-hi  E-d-hi    Q-f-hi  E-f-hi 
:EPH001:  0.0727  0.7509    0.0759  0.7837    0.6574  0.7770    2.0181  0.8220

                      VXX         VYY         VZZ       UP TO R
:VZZ001:             3.06402     6.39874    -9.46276       2.300

:CHA  : TOTAL VALENCE CHARGE INSIDE UNIT CELL =      26.000000

:SUM  : SUM OF EIGENVALUES =          -4.468790577


        1.ATOM      Pr1                  14 CORE STATES
       CORE-FORCE in mRy/a.u. = |F|      Fx             Fy             Fz
:FCO001:   1.ATOM   1607.348335924500      0.000000000000      0.000000000000   1607.348335924500

:1S 001: 1S               -3066.750933627 Ry
:2S 001: 2S                -492.504459153 Ry
:2PP001: 2P*               -465.603210756 Ry
:2P 001: 2P                -430.205852497 Ry
:3S 001: 3S                -105.598973844 Ry
:3PP001: 3P*                -94.136648084 Ry
:3P 001: 3P                 -87.128889369 Ry
:3DD001: 3D*                -67.055340251 Ry
:3D 001: 3D                 -65.543834294 Ry
:4S 001: 4S                 -20.269952182 Ry
:4PP001: 4P*                -15.976129003 Ry
:4P 001: 4P                 -14.447862955 Ry
:4DD001: 4D*                 -7.379087568 Ry
:4D 001: 4D                  -7.109380923 Ry
:CINT001 Core Integral Atom   1   45.998501

       DENSITY AT NUCLEUS
        JATOM        VALENCE       SEMI-CORE          CORE           TOTAL
:RTO001:   1      648.858496        0.000000   656825.699797   657474.558293
     
       CHARGES OF NEW CHARGE DENSITY
:NTO   : INTERSTITIAL CHARGE =     6.767583
:NPC   : PW Pseudocharge     =    17.268993
:NTO001: CHARGE SPHERE  1    =    55.614708

:NEC01: NUCLEAR AND ELECTRONIC CHARGE    118.00000   117.99700
     
       CHARGES OF OLD CHARGE DENSITY
:OTO   : INTERSTITIAL CHARGE =     6.768599
:OPC   : PW Pseudocharge     =    17.264025
:OTO001: CHARGE SPHERE  1    =    55.615700

:NEC02: NUCLEAR AND ELECTRONIC CHARGE    118.00000   118.00000
     
       CONVERGENCE TEST
:DTO001: DIFFERENCE IN SPHERE  1 =  0.0020591

:DIS  :  CHARGE DISTANCE       ( 0.0020591 for atom    1 spin 1)      0.0020591
 PW Mixed is          394
 
******************************************************
* MULTISECANT MIXING VER9 RELEASE 10.4.0              *
* Standard Mode with controls                        *
* Fixed density scale                                *
* Regularization       1.000E-04                     *
* Trust Upper Limit    5.000E+00                     *
* Max Number of Memory Steps    8                    *
******************************************************
 
:PWTMP   2.7058E+02  1.9467E+02  3.7251E+02
:PLANE:  PW TOTAL      5.3648 DISTAN   4.32E-03  8.05E-02 %
[...]
:CTO001: CHARGE SPHERE  1    =    55.614753

:NEC03: NUCLEAR AND ELECTRONIC CHARGE    118.00000   118.00000

PW CHANGE     H    K    L      Current       Change    Residue
:PTO001:      0    0    0  6.45557912E-02 -5.788E-07 -9.203E-07
:PTO003:      0    2    0  1.64196491E-02 -5.542E-07 -8.460E-07
:PTO004:     -1    1    0  7.92888300E-02 -9.441E-07 -1.510E-06
:PTO005:      0    2   -1 -9.14083934E-02  1.088E-06  1.787E-06
:PTO006:      0    0   -2 -4.73604186E-02  6.087E-07  1.055E-06
:PTO007:     -1    1   -1 -9.71675114E-02  1.015E-06  1.705E-06
:PTO008:      0    2   -2 -1.48147772E-02  3.436E-07  5.084E-07
:PTO009:     -1    1   -2 -7.53403277E-02  1.786E-06  2.837E-06
:PTO011:     -1    3    0 -1.18244111E-02  1.416E-07  2.187E-07
:PTO012:     -1    3   -1 -5.09279112E-02  1.202E-06  1.854E-06
:PTO013:      0    4    0 -9.01076059E-03  1.817E-07  2.796E-07
:PTO014:      0    2   -3  2.07739747E-02 -3.756E-07 -6.474E-07

:ENE  : ********** TOTAL ENERGY IN Ry =       -36944.30822216

       TOTAL FORCE IN mRy/a.u. = |F|     Fx             Fy             Fz     with/without FOR in case.in2
:FOR001:   1.ATOM         17.012          0.000          0.000        -17.012 partial forces
       TOTAL FORCE WITH RESPECT TO GLOBAL CARTESIAN COORDINATES:
:FCA001:   1.ATOM                         0.000        -17.012          0.000 partial forces
       TOTAL FORCE WITH RESPECT TO THE GLOBAL COORDINATE SYSTEM:
:FGL001:   1.ATOM                 0.000000000   -17.012355819     0.000000000 partial forces
 Flat Integration
 New Mode for Coulomb Integral
 Consistent 3/8+Simpson combinations
 Extension of core to zero
 LDM version in phi
 Fifth-order quadrature in outwin


            ---------
:ITE026: 26. ITERATION
            ---------

:NATO :    1 INDEPENDENT AND    2 TOTAL ATOMS IN UNITCELL
       SUBSTANCE: aU                                                          

       LATTICE                      = CXY 
:POT  : POTENTIAL OPTION EX_LDA EC_LDA VX_LDA VC_LDA
:LAT  : LATTICE CONSTANTS=  5.93983 12.05341 10.40596    1.571    1.571    1.571
:VOL  : UNIT CELL VOLUME =     372.50797
       MODE OF CALCULATION IS       = RELA
       NON-SPINPOLARIZED CALCULATION
:IFFT  : FFT-parameters:   48   96   80 Factor: 2.00


   CONVERGENCE PARAMETER FOR PSEUDOCHARGE: NCON=  9
   MAXIMAL VALUE OF RMT(JATOM)*ABSK(NKK) : RK  =27.59363


:VKCOUL :  VK-COUL convergence: 0.117E-06
       ATOMNUMBER=  1 Pr1        VCOUL-ZERO =  0.31269E+00
:EFG001:                        EFG         =    -9.42636   *10**21  V / m**2
                               V20  TOT/SRF=    -8.16346    -0.04431
                               V22  TOT/SRF=    -1.51911    -0.00479
                               V22M TOT/SRF=     0.00000     0.00000
                               V21  TOT/SRF=     0.00000     0.00000
                               V21M TOT/SRF=     0.00000     0.00000

              3.19407    0.00000    0.00000        3.19407    0.00000    0.00000
              0.00000    6.23229    0.00000        0.00000    6.23229    0.00000
              0.00000    0.00000   -9.42636        0.00000    0.00000   -9.42636

         MAIN DIRECTIONS OF THE EFG   1.0000  0.0000  0.0000
                                      0.0000  1.0000  0.0000
                                      0.0000  0.0000  1.0000
:ANG001:  ANGLE WITH OLD X-AXIS =         0.0

:ETA001:                         ASYMM. ETA =     0.32231


     HELLMANN-FEYNMAN-FORCE IN mRy/a.u. = |F|  Fx       Fy             Fz
:FHF001:   1.ATOM   1618.423386235830      0.000000000000      0.000000000000  -1618.423386235830

:FIT001: LUSE= 13 SIGMA OF V-XC FIT FOR ATOM  1  0.5441311E-04
:FIT001: LUSE= 13 SIGMA OF V-XC FIT FOR ATOM  1  0.5441311E-04
:DEN  : DENSITY INTEGRAL  =        -14174.91480778   (Ry)
       ELS_POTENTIAL_AT Z=0 and Z=0.5:   0.84676   0.84676
       ELS_POTENTIAL_AT Y=0 and Y=0.5:   0.04236   0.04236
:VZERO:v0,v0c,v0x   0.19944   0.84676  -0.64732 v5,v5c,v5x   0.19944   0.84676  -0.64732
:VZERY:v0,v0c,v0x  -0.81744   0.04236  -0.85980 v5,v5c,v5x  -0.81744   0.04236  -0.85980
:VZERX:v0,v0c,v0x  -1.20335  -0.38992  -0.81343 v5,v5c,v5x  -1.20335  -0.38992  -0.81343
:LMAX-WF:   10   Non-Spherical LMAX:   4

          ATOMIC SPHERE DEPENDENT PARAMETERS FOR ATOM  Pr1       
:e__0001: OVERALL ENERGY PARAMETER IS    0.6434
          OVERALL BASIS SET ON ATOM IS LAPW
:E0_0001: E( 0)=    0.6434
             APW+lo
:E0_0001: E( 0)=   -1.7996   E(BOTTOM)=   -2.435   E(TOP)=   -1.164  4  5   198
             LOCAL ORBITAL
:E1_0001: E( 1)=    1.0434
             APW+lo
:E1_0001: E( 1)=   -0.3294   E(BOTTOM)=   -1.288   E(TOP)=    0.629  3  4   207
             LOCAL ORBITAL
:E3_0001: E( 3)=    0.8447   E(BOTTOM)=    0.639   E(TOP)=    1.051  0  1   122
             APW+lo
:E2_0001: E( 2)=    0.6434   E(BOTTOM)=    0.452   E(TOP)= -200.000  2 -1   121
             APW+lo

       K=   0.06250   0.00000   0.06250            1
:RKM  : MATRIX SIZE   352LOs:  40  RKM= 8.50  WEIGHT= 4.00  PGR:    
       EIGENVALUES ARE:
:EIG00001:      -1.7925986   -1.7585993   -0.5563209   -0.4155488   -0.3833486
:EIG00006:      -0.3706727   -0.3571582   -0.3570517    0.6324735    0.7278356
:EIG00011:       0.8329488    0.8373278    0.8380890    0.8425112    0.8507826
:EIG00016:       0.8673575    0.8738306    0.8745345    0.8788417    0.8816594
:EIG00021:       0.8893813    0.8919030    0.8921209    0.9047666    0.9280048
:EIG00026:       0.9476730    1.0432629    1.0489238    1.1107420    1.1449545
:EIG00031:       1.1469654    1.2877754    1.3193731    1.3857587    1.6899268
:EIG00036:       1.7357568    1.7742825    1.8476663    1.9772573    2.0416204
:EIG00041:       2.1752117    2.2626172    2.3795533    2.4009169    2.5472947
:EIG00046:       2.5542521    2.5733632    2.7033736    2.7257364    2.8534595
 
:EIG00051:       2.9148367    2.9924864    3.0047388    3.1245052    3.1794670
:EIG00056:       3.2049278    3.2480101    3.3609025    3.4104950    3.5256561
:EIG00061:       3.5290077    3.6369644    3.7263757    3.7413750    3.7839327
:EIG00066:       3.9410323    3.9562053    4.0535534    4.0539702    4.0970537
:EIG00071:       4.1031944    4.1636056    4.1946953    4.3088995    4.3183966
:EIG00076:       4.3604734    4.3830950    4.4345663    4.4485364    4.4903171
:EIG00081:       4.5078104    4.5517377    4.5631654    4.6343309    4.6593161
:EIG00086:       4.7605118    4.7807684    4.8551038    4.8894703    4.9234280
:EIG00091:       4.9330527    4.9728802    5.0163625    5.0545617    5.0562895
:EIG00096:       5.0723518    5.1492029    5.1555199    5.2114002    5.2576825
 
:EIG00101:       5.3491974    5.4625006    5.5064043    5.5819304    5.5863234
:EIG00106:       5.6402286    5.6737757    5.7343010    5.7734330    5.7996479
:EIG00111:       5.9076056    5.9467300    6.0583307    6.1177896    6.1497665
:EIG00116:       6.1524354    6.2400786    6.2653362    6.3345977    6.3366011
:EIG00121:       6.4230992    6.4373445    6.5008473    6.5419347    6.5799107
:EIG00126:       6.6670643    6.7369803    6.7435594    6.7744219    6.8422825
:EIG00131:       6.8934425    6.9219296    6.9367430    7.0029471    7.0649491
:EIG00136:       7.0966579    7.1234131    7.1906631    7.2203278    7.2218169
:EIG00141:       7.2743025    7.2851132    7.3351937    7.3712383    7.4228322
:EIG00146:       7.4304369    7.4641664    7.5592952    7.5688332    7.6321448
 
:EIG00151:       7.6468415    7.6749955    7.6958551    7.8609524    7.8893624
:EIG00156:       8.0225096    8.0618139    8.0630755    8.0917977    8.1935500
:EIG00161:       8.2680344    8.3376254
       ********************************************************

:KPT   :      NUMBER OF K-POINTS:   288
   0.0   0.0 angle (M,z), angle (M,x) deg
 
        SPIN-ORBIT EIGENVALUES:
     K=   0.06250   0.00000   0.06250            1
      MATRIX SIZE=  324   WEIGHT= 4.00
     EIGENVALUES ARE:
          -1.7925991   -1.7925991   -1.7585997   -1.7585997   -0.6153445
          -0.6153445   -0.5226211   -0.5226211   -0.4145840   -0.4145840
          -0.3101789   -0.3101789   -0.3065223   -0.3065223   -0.2908284
          -0.2908284    0.6325509    0.6325509    0.7277173    0.7277174
           0.8296728    0.8296728    0.8337876    0.8337876    0.8349966
           0.8349966    0.8396181    0.8396181    0.8467634    0.8467634
           0.8575267    0.8575267    0.8688907    0.8688907    0.8783703
           0.8783703    0.8847502    0.8847502    0.8856183    0.8856183

           0.8920221    0.8920221    0.8951248    0.8951248    0.8969908
           0.8969908    0.9084595    0.9084595    0.9294178    0.9294178
           0.9479410    0.9479410    1.0397118    1.0397118    1.0523111
           1.0523111    1.1111997    1.1111998    1.1435790    1.1435790
           1.1486943    1.1486944    1.2877150    1.2877150    1.3196411
           1.3196411    1.3858937    1.3858937    1.6902336    1.6902336
           1.7357935    1.7357935    1.7742644    1.7742644    1.8476801
           1.8476801    1.9769952    1.9769952    2.0411022    2.0411022

           2.1752889    2.1752889    2.2618923    2.2618923    2.3784665
           2.3784665    2.4013460    2.4013460    2.5475250    2.5475250
           2.5542012    2.5542012    2.5724638    2.5724638    2.7016256
           2.7016256    2.7276462    2.7276462    2.8535493    2.8535493
           2.9142364    2.9142364    2.9881448    2.9881448    3.0078452
           3.0078452    3.1243113    3.1243113    3.1795379    3.1795379
           3.2056794    3.2056794    3.2471258    3.2471258    3.3614159
           3.3614159    3.4116354    3.4116354    3.5238270    3.5238270

           3.5311870    3.5311870    3.6412327    3.6412327    3.7266149
           3.7266149    3.7412487    3.7412487    3.7842089    3.7842089
           3.9410166    3.9410166    3.9564524    3.9564524    4.0528516
           4.0528516    4.0545694    4.0545694    4.0970620    4.0970620
           4.1036249    4.1036249    4.1627146    4.1627146    4.1948014
           4.1948014    4.3070472    4.3070472    4.3204436    4.3204436
           4.3623052    4.3623052    4.3838068    4.3838068    4.4346543
           4.4346543    4.4490583    4.4490583    4.4906792    4.4906792

       ********************************************************
:GAP (global)   :    0.0    Ry =     0.0   eV (metal)
:GAP (this spin):    0.0    Ry =     0.0   eV (metal)
         Bandranges (emin - emax) and occupancy:
:BAN00018:  18    0.625628    0.794112  1.00000000
:BAN00019:  19    0.716588    0.813829  1.00000000
:BAN00020:  20    0.716588    0.813829  1.00000000
:BAN00021:  21    0.740440    0.840064  1.00000000
:BAN00022:  22    0.740440    0.840064  1.00000000
:BAN00023:  23    0.801048    0.844595  0.99689763
:BAN00024:  24    0.801048    0.844595  0.99689763
:BAN00025:  25    0.815653    0.855820  0.72194053
:BAN00026:  26    0.815653    0.855820  0.72194038
:BAN00027:  27    0.834170    0.858404  0.28116204
:BAN00028:  28    0.834170    0.858404  0.28116179
:BAN00029:  29    0.845147    0.861616  0.00000000
:BAN00030:  30    0.845147    0.861616  0.00000000
:BAN00031:  31    0.850031    0.869641  0.00000000
:BAN00032:  32    0.850031    0.869641  0.00000000
:BAN00033:  33    0.860396    0.878139  0.00000000
        Energy to separate low and high energystates:    0.57563


:NOE  : NUMBER OF ELECTRONS          =   26.000

:FER  : F E R M I - ENERGY(TETRAH.M.)=   0.8433735240
:GMA  : POTENTIAL AND CHARGE CUT-OFF  12.00 Ry**.5

:POS001: ATOM   -1 X,Y,Z = 0.00000 0.89750 0.25000  MULT= 2  ZZ= 59.000  Pr1       

       LMMAX 16
       LM=   0 0  1 0  2 0  2 2  3 0  3 2  4 0  4 2  4 4  5 0  5 2  5 4  6 0  6 2  6 4  6 6

:CHA001: TOTAL VALENCE CHARGE INSIDE SPHERE   1 =   9.6163    (RMT=  2.3000 )
:PCS001: PARTIAL CHARGES SPHERE =  1 S,P,D,F,PX,PY,PZ,D-Z2,D-X2Y2,D-XY,D-XZ,D-YZ 
:QTL001: 1.9413 4.9904 0.6638 2.0199 1.6612 1.6593 1.6699 0.1271 0.1189 0.1389 0.1344 0.1445
        Q-s-low E-s-low   Q-p-low E-p-low   Q-d-low E-d-low   Q-f-low E-f-low
:EPL001:  1.8687 -1.7572    4.9145 -0.4468    0.0063 -0.4546    0.0019 -0.4685
        Q-s-hi  E-s-hi    Q-p-hi  E-p-hi    Q-d-hi  E-d-hi    Q-f-hi  E-f-hi 
:EPH001:  0.0727  0.7511    0.0759  0.7840    0.6575  0.7772    2.0180  0.8222

                      VXX         VYY         VZZ       UP TO R
:VZZ001:             3.16836     6.20382    -9.37218       2.300

:CHA  : TOTAL VALENCE CHARGE INSIDE UNIT CELL =      26.000000

:SUM  : SUM OF EIGENVALUES =          -4.463374564


        1.ATOM      Pr1                  14 CORE STATES
       CORE-FORCE in mRy/a.u. = |F|      Fx             Fy             Fz
:FCO001:   1.ATOM   1601.276339926966      0.000000000000      0.000000000000   1601.276339926966

:1S 001: 1S               -3066.751228365 Ry
:2S 001: 2S                -492.504651699 Ry
:2PP001: 2P*               -465.603427181 Ry
:2P 001: 2P                -430.206059972 Ry
:3S 001: 3S                -105.598924953 Ry
:3PP001: 3P*                -94.136612726 Ry
:3P 001: 3P                 -87.128840206 Ry
:3DD001: 3D*                -67.055329095 Ry
:3D 001: 3D                 -65.543818339 Ry
:4S 001: 4S                 -20.269686855 Ry
:4PP001: 4P*                -15.975864809 Ry
:4P 001: 4P                 -14.447595104 Ry
:4DD001: 4D*                 -7.378825964 Ry
:4D 001: 4D                  -7.109119008 Ry
:CINT001 Core Integral Atom   1   45.998501

       DENSITY AT NUCLEUS
        JATOM        VALENCE       SEMI-CORE          CORE           TOTAL
:RTO001:   1      648.854992        0.000000   656825.755383   657474.610374
     
       CHARGES OF NEW CHARGE DENSITY
:NTO   : INTERSTITIAL CHARGE =     6.767463
:NPC   : PW Pseudocharge     =    17.269241
:NTO001: CHARGE SPHERE  1    =    55.614768

:NEC01: NUCLEAR AND ELECTRONIC CHARGE    118.00000   117.99700
     
       CHARGES OF OLD CHARGE DENSITY
:OTO   : INTERSTITIAL CHARGE =     6.770494
:OPC   : PW Pseudocharge     =    17.277053
:OTO001: CHARGE SPHERE  1    =    55.614753

:NEC02: NUCLEAR AND ELECTRONIC CHARGE    118.00000   118.00000
     
       CONVERGENCE TEST
:DTO001: DIFFERENCE IN SPHERE  1 =  0.0000215

:DIS  :  CHARGE DISTANCE       ( 0.0000215 for atom    1 spin 1)      0.0000215
 PW Mixed is          394
 
******************************************************
* MULTISECANT MIXING VER9 RELEASE 10.4.0              *
* Standard Mode with controls                        *
* Fixed density scale                                *
* Regularization       1.000E-04                     *
* Trust Upper Limit    5.000E+00                     *
* Max Number of Memory Steps    8                    *
******************************************************
 
:PWTMP   2.7058E+02  1.9467E+02  3.7251E+02
:PLANE:  PW TOTAL      5.3690 DISTAN   5.70E-05  1.06E-03 %
:CHARG:  CLM/ATOM   1381.9532 DISTAN   6.47E-05  4.68E-06 %
 
Step History
        DMIX         DMIXT        Red     Pred      Trust     Lambda    MagRel    MagAbs     Beta
  5   3.5598E-02   2.9872E-02  4.44E-01  4.90E-01  5.94E-01  4.92E-01  5.94E-01  1.80E-02  1.00E+00
  6   2.6304E-02   2.6304E-02  8.78E-01  9.77E-01  7.92E-01  3.78E-01  2.82E-01  3.79E-03  1.00E+00
  7   6.5761E-02   6.5761E-02  3.29E-01  3.71E-01  9.02E-01  1.31E-01  4.92E-01  5.82E-03  1.00E+00
  8   2.6304E-02   2.6304E-02  9.56E-01  9.99E-01  1.20E+00  1.00E+00  3.12E-02  1.22E-04  9.91E-01
  9   6.5761E-02   6.5761E-02  1.89E-01  2.48E-01  1.26E+00  4.47E-01  6.59E-01  2.45E-03  1.00E+00
 10   2.6304E-02   2.6304E-02  9.15E-01  9.98E-01  1.68E+00  3.05E-01  5.85E-02  4.12E-05  1.00E+00
 11   6.5761E-02   6.5761E-02  4.38E-01  4.93E-01  1.84E+00  5.02E-01  3.06E-01  1.97E-04  1.00E+00
 12   3.8791E-02   3.8791E-02  9.19E-01  9.95E-01  2.45E+00  8.81E-01  8.80E-02  2.48E-05  1.00E+00
 13   9.6978E-02   9.6978E-02 -1.00E+00  3.50E-01  2.66E+00  1.00E+00  6.19E-01  1.61E-04  1.00E+00
:JACOBIANS    2.764E-01   2.290E+00
  
:NORMS:  1/Froebius, Min, Max, Used   0.6696E+00  0.3514E+00  0.9686E+00  0.8194E+00
:INFO :  Number of Memory Steps    8 Skipping    4
:INFO :  SLambda=    0.4209235465  Max    0.4209235465
:PREDicted Charge, CTotal, PW Trust    8.309E-06   1.662E-05   1.326E-04
:PREDicted DMix, Beta, BLim   3.9401E-04  1.0449E+00  2.0105E+00

Eigenvalues, unscaled except for SY+YY
   #     SY Real        SY Imag          SS             YY         SY+YY Real      SY+YY Imag
   1   2.462776E+00   0.000000E+00   2.118206E+00   3.154527E+00   4.176374E+00   0.000000E+00
   2   1.448903E+00   0.000000E+00   1.077344E+00   2.332077E+00   2.947426E+00   0.000000E+00
   3   5.734646E-01   0.000000E+00   3.359742E-01   1.370391E+00   1.607605E+00   0.000000E+00
   4   2.339209E-01   0.000000E+00   5.175829E-02   1.088359E+00   1.195819E+00   0.000000E+00
   5   1.706591E-02   0.000000E+00   3.704568E-03   4.996603E-02   6.161580E-02   0.000000E+00
   6   4.830939E-04   0.000000E+00   7.264505E-05   4.673521E-03   4.905157E-03   0.000000E+00
   7   8.939285E-10   0.000000E+00   8.312239E-07   7.194381E-06   8.155986E-09   0.000000E+00
   8   1.047119E-06   0.000000E+00   3.812226E-11   8.202031E-09   7.437852E-06   0.000000E+00
 
:INFO :  Singular value  4.176E+00 Weight  1.000E+00 Projection  1.062E-06
:INFO :  Singular value  2.948E+00 Weight  1.000E+00 Projection -9.735E-06
:INFO :  Singular value  1.608E+00 Weight  1.000E+00 Projection -3.185E-07
:INFO :  Singular value  1.196E+00 Weight  1.000E+00 Projection  4.235E-06
:INFO :  Singular value  6.162E-02 Weight  1.000E+00 Projection  4.019E-05
:INFO :  Singular value  4.905E-03 Weight  9.959E-01 Projection  4.041E-04
:INFO :  Singular value  7.438E-06 Weight  5.556E-04 Projection -6.723E-06
:INFO :  Singular value  8.156E-09 Weight  6.685E-10 Projection  2.694E-10
:RANK :  ACTIVE   6.00/8  =  74.96 % ; YY RANK   6.00/8  =  74.95 %
 
:BLIM :  VZERO Control Off
:TRUST:  Step 3.55E+00  Charge 1.04E-02 (e) CTO  3.46E-02 (e) PW  4.84E-02 (e)
:DIRM :  MEMORY  8/8  SCALE   1.000 RED  0.33 PRED  0.35 NEXT  0.94 
:TRAVE:  Charge 9.75E-06 (e) CTO  1.95E-05 (e) PW  1.02E-04 (e)
:DIRP :  |MSR1|= 1.286E-05 |PRATT|= 5.697E-05 ANGLE=  24.6 DEGREES
:DIRQ :  |MSR1|= 1.008E-05 |PRATT|= 6.466E-05 ANGLE=  72.5 DEGREES
:DIRT :  |MSR1|= 1.634E-05 |PRATT|= 8.618E-05 ANGLE=  52.3 DEGREES
:MIX  :   MSD1   REGULARIZATION:  3.15E-04 GREED: 0.03879  Newton 1.00  0.1896                
     
       CHARGES OF MIXED CHARGE DENSITY
:CTO   : INTERSTITIAL CHARGE =     6.770490
:CPC   : PW Pseudocharge     =    17.277014
:CTO001: CHARGE SPHERE  1    =    55.614755

:NEC03: NUCLEAR AND ELECTRONIC CHARGE    118.00000   118.00000

PW CHANGE     H    K    L      Current       Change    Residue
:PTO001:      0    0    0  6.45556758E-02 -1.154E-07 -5.011E-07
:PTO003:      0    2    0  1.64195972E-02 -5.187E-08  3.134E-07
:PTO004:     -1    1    0  7.92886450E-02 -1.849E-07 -5.254E-07
:PTO005:      0    2   -1 -9.14081620E-02  2.313E-07  1.136E-06
:PTO006:      0    0   -2 -4.73603011E-02  1.175E-07  4.357E-07
:PTO007:     -1    1   -1 -9.71672796E-02  2.318E-07  1.231E-06
:PTO008:      0    2   -2 -1.48147375E-02  3.977E-08 -8.627E-08
:PTO009:     -1    1   -2 -7.53400833E-02  2.444E-07  9.638E-07
:PTO011:     -1    3    0 -1.18243791E-02  3.205E-08  3.889E-07
:PTO012:     -1    3   -1 -5.09277382E-02  1.730E-07  6.765E-07
:PTO013:      0    4    0 -9.01073145E-03  2.914E-08  2.080E-07
:PTO014:      0    2   -3  2.07739089E-02 -6.585E-08 -2.950E-07

:ENE  : ********** TOTAL ENERGY IN Ry =       -36944.30821959

       TOTAL FORCE IN mRy/a.u. = |F|     Fx             Fy             Fz     with/without FOR in case.in2
:FOR001:   1.ATOM         17.147          0.000          0.000        -17.147 partial forces
       TOTAL FORCE WITH RESPECT TO GLOBAL CARTESIAN COORDINATES:
:FCA001:   1.ATOM                         0.000        -17.147          0.000 partial forces
       TOTAL FORCE WITH RESPECT TO THE GLOBAL COORDINATE SYSTEM:
:FGL001:   1.ATOM                 0.000000000   -17.147046309     0.000000000 partial forces
