
:LABEL1: Calculations in /home/ykent/GWIEN/example/Pr/aU/V5/case
:LABEL2: on didymium-2.cmpgroup.ameslab.gov at Fri Jul 10 13:18:39 CDT 2020
:LABEL3: using WIEN2k_19.1 (Release 25/6/2019) in /home/ykent/opt/src/WIEN2k_19.1
:LABEL4: using the command: run_lapw -cc 0.0001
 Flat Integration
 New Mode for Coulomb Integral
 Consistent 3/8+Simpson combinations
 Extension of core to zero
 LDM version in phi
 Fifth-order quadrature in outwin


            ---------
:ITE001:  1. ITERATION
            ---------

:NATO :    1 INDEPENDENT AND    2 TOTAL ATOMS IN UNITCELL
       SUBSTANCE: aU                                                          

       LATTICE                      = CXY 
:POT  : POTENTIAL OPTION EX_LDA EC_LDA VX_LDA VC_LDA
:LAT  : LATTICE CONSTANTS=  5.37049 10.89808  9.40854    1.571    1.571    1.571
:VOL  : UNIT CELL VOLUME =     275.33200
       MODE OF CALCULATION IS       = RELA
       NON-SPINPOLARIZED CALCULATION
:IFFT  : FFT-parameters:   48   90   72 Factor: 2.00


   CONVERGENCE PARAMETER FOR PSEUDOCHARGE: NCON=  9
   MAXIMAL VALUE OF RMT(JATOM)*ABSK(NKK) : RK  =27.59804


:VKCOUL :  VK-COUL convergence: 0.248E-06
       ATOMNUMBER=  1 Pr1        VCOUL-ZERO =  0.63034E+00
:EFG001:                        EFG         =    -0.07864   *10**21  V / m**2
                               V20  TOT/SRF=    -0.06810    -0.08203
                               V22  TOT/SRF=     0.01040     0.01263
                               V22M TOT/SRF=     0.00000     0.00000
                               V21  TOT/SRF=     0.00000     0.00000
                               V21M TOT/SRF=     0.00000     0.00000

              0.04972    0.00000    0.00000        0.04972    0.00000    0.00000
              0.00000    0.02892    0.00000        0.00000    0.02892    0.00000
              0.00000    0.00000   -0.07864        0.00000    0.00000   -0.07864

         MAIN DIRECTIONS OF THE EFG   1.0000  0.0000  0.0000
                                      0.0000  1.0000  0.0000
                                      0.0000  0.0000  1.0000
:ANG001:  ANGLE WITH OLD X-AXIS =         0.0

:ETA001:                         ASYMM. ETA =     0.26451


     HELLMANN-FEYNMAN-FORCE IN mRy/a.u. = |F|  Fx       Fy             Fz
:FHF001:   1.ATOM    860.110543383929      0.000000000000      0.000000000000   -860.110543383929

:FIT001: LUSE= 13 SIGMA OF V-XC FIT FOR ATOM  1  0.3805255E-04
:FIT001: LUSE= 13 SIGMA OF V-XC FIT FOR ATOM  1  0.3805255E-04
:DEN  : DENSITY INTEGRAL  =        -14233.52183116   (Ry)
       ELS_POTENTIAL_AT Z=0 and Z=0.5:   0.99176   0.99176
       ELS_POTENTIAL_AT Y=0 and Y=0.5:  -0.03281  -0.03281
:VZERO:v0,v0c,v0x   0.24707   0.99176  -0.74469 v5,v5c,v5x   0.24707   0.99176  -0.74469
:VZERY:v0,v0c,v0x  -0.99384  -0.03281  -0.96104 v5,v5c,v5x  -0.99384  -0.03281  -0.96104
:VZERX:v0,v0c,v0x  -1.28121  -0.38397  -0.89725 v5,v5c,v5x  -1.28121  -0.38397  -0.89725
:LMAX-WF:   10   Non-Spherical LMAX:   4

          ATOMIC SPHERE DEPENDENT PARAMETERS FOR ATOM  Pr1       
:e__0001: OVERALL ENERGY PARAMETER IS    0.3000
          OVERALL BASIS SET ON ATOM IS LAPW
:E0_0001: E( 0)=    0.3000
             APW+lo
:E0_0001: E( 0)=   -1.3808   E(BOTTOM)=   -2.037   E(TOP)=   -0.725  4  5   239
             LOCAL ORBITAL
:E1_0001: E( 1)=    0.7000
             APW+lo
:E1_0001: E( 1)=   -0.9055   E(BOTTOM)=   -0.906   E(TOP)= -200.000  3 -1   197
             LOCAL ORBITAL
:E3_0001: E( 3)=    1.0885   E(BOTTOM)=    1.089   E(TOP)= -200.000  0 -1   128
             APW+lo
:E2_0001: E( 2)=    0.8192   E(BOTTOM)=    0.819   E(TOP)= -200.000  2 -1   111
             APW+lo

       K=   0.06250   0.00000   0.06250            1
:RKM  : MATRIX SIZE   279LOs:  40  RKM= 8.50  WEIGHT= 4.00  PGR:    
       EIGENVALUES ARE:
:EIG00001:      -1.4434261   -1.3489379   -0.2973744    0.0003430    0.0682742
:EIG00006:       0.0895724    0.1126637    0.1202879    1.0300994    1.0524251
:EIG00011:       1.1905758    1.2352511    1.2379071    1.2412023    1.2716189
:EIG00016:       1.3138624    1.3150134    1.3269396    1.3280406    1.3405364
:EIG00021:       1.3451299    1.3506557    1.3633377    1.3971009    1.3985333
:EIG00026:       1.4127162    1.4488590    1.4679750    1.5339224    1.5778211
:EIG00031:       1.6371342    1.8210680    1.8536337    1.9265960
       ********************************************************

:KPT   :      NUMBER OF K-POINTS:   288
:GAP (global)   :    0.0    Ry =     0.0   eV (metal)
         Bandranges (emin - emax) and occupancy:
:BAN00005:   5   -0.191000    0.068274  2.00000000
:BAN00006:   6   -0.152284    0.106328  2.00000000
:BAN00007:   7   -0.089021    0.118014  2.00000000
:BAN00008:   8    0.029332    0.136271  2.00000000
:BAN00009:   9    0.927199    1.141866  2.00000000
:BAN00010:  10    0.982384    1.168110  2.00000000
:BAN00011:  11    1.034922    1.256886  2.00000000
:BAN00012:  12    1.114724    1.271827  1.98399105
:BAN00013:  13    1.170141    1.311603  1.41651929
:BAN00014:  14    1.221664    1.316558  0.57755866
:BAN00015:  15    1.256296    1.332496  0.02193100
:BAN00016:  16    1.275950    1.335686  0.00000000
:BAN00017:  17    1.308298    1.346558  0.00000000
:BAN00018:  18    1.316907    1.347518  0.00000000
:BAN00019:  19    1.324956    1.358391  0.00000000
:BAN00020:  20    1.331325    1.365059  0.00000000
        Energy to separate low and high energystates:    0.87720


:NOE  : NUMBER OF ELECTRONS          =   26.000

:FER  : F E R M I - ENERGY(TETRAH.M.)=   1.2639782606
:GMA  : POTENTIAL AND CHARGE CUT-OFF  12.00 Ry**.5

:POS001: ATOM   -1 X,Y,Z = 0.00000 0.89750 0.25000  MULT= 2  ZZ= 59.000  Pr1       

       LMMAX 16
       LM=   0 0  1 0  2 0  2 2  3 0  3 2  4 0  4 2  4 4  5 0  5 2  5 4  6 0  6 2  6 4  6 6

:CHA001: TOTAL VALENCE CHARGE INSIDE SPHERE   1 =   9.3281    (RMT=  2.3000 )
:PCS001: PARTIAL CHARGES SPHERE =  1 S,P,D,F,PX,PY,PZ,D-Z2,D-X2Y2,D-XY,D-XZ,D-YZ 
:QTL001: 1.9455 4.9577 1.1537 1.2667 1.6508 1.6468 1.6600 0.2304 0.2313 0.2215 0.2361 0.2344
        Q-s-low E-s-low   Q-p-low E-p-low   Q-d-low E-d-low   Q-f-low E-f-low
:EPL001:  1.8624 -1.3397    4.8127 -0.0592    0.0289 -0.1138    0.0088 -0.1165
        Q-s-hi  E-s-hi    Q-p-hi  E-p-hi    Q-d-hi  E-d-hi    Q-f-hi  E-f-hi 
:EPH001:  0.0831  1.1275    0.1450  1.1499    1.1248  1.1186    1.2579  1.2038

                      VXX         VYY         VZZ       UP TO R
:VZZ001:             1.40721     9.02322   -10.43043       2.300

:CHA  : TOTAL VALENCE CHARGE INSIDE UNIT CELL =      26.000000

:SUM  : SUM OF EIGENVALUES =           5.219274047


        1.ATOM      Pr1                  14 CORE STATES
       CORE-FORCE in mRy/a.u. = |F|      Fx             Fy             Fz
:FCO001:   1.ATOM    692.039627356100      0.000000000000      0.000000000000    692.039627356100

:1S 001: 1S               -3066.192569163 Ry
:2S 001: 2S                -491.958588868 Ry
:2PP001: 2P*               -465.056128570 Ry
:2P 001: 2P                -429.659360965 Ry
:3S 001: 3S                -105.058177976 Ry
:3PP001: 3P*                -93.595448961 Ry
:3P 001: 3P                 -86.588272927 Ry
:3DD001: 3D*                -66.514173554 Ry
:3D 001: 3D                 -65.002807692 Ry
:4S 001: 4S                 -19.753865033 Ry
:4PP001: 4P*                -15.461776496 Ry
:4P 001: 4P                 -13.936079151 Ry
:4DD001: 4D*                 -6.872951424 Ry
:4D 001: 4D                  -6.604240629 Ry
:CINT001 Core Integral Atom   1   45.998363

       DENSITY AT NUCLEUS
        JATOM        VALENCE       SEMI-CORE          CORE           TOTAL
:RTO001:   1      641.359362        0.000000   656818.277819   657459.637181
     
       CHARGES OF NEW CHARGE DENSITY
:NTO   : INTERSTITIAL CHARGE =     7.343738
:NPC   : PW Pseudocharge     =    18.213239
:NTO001: CHARGE SPHERE  1    =    55.326492

:NEC01: NUCLEAR AND ELECTRONIC CHARGE    118.00000   117.99672
     
       CHARGES OF OLD CHARGE DENSITY
:OTO   : INTERSTITIAL CHARGE =     6.104721
:OPC   : PW Pseudocharge     =    16.585141
:OTO001: CHARGE SPHERE  1    =    55.948283

:NEC02: NUCLEAR AND ELECTRONIC CHARGE    118.00000   118.00129
     
       CONVERGENCE TEST
:DTO001: DIFFERENCE IN SPHERE  1 =  1.1785692

:DIS  :  CHARGE DISTANCE       ( 1.1785692 for atom    1 spin 1)      1.1785692
 PW Mixed is          294
 
******************************************************
* MULTISECANT MIXING VER9 RELEASE 10.4.0              *
* Standard Mode with controls                        *
* Fixed density scale                                *
* Regularization       1.000E-04                     *
* Trust Upper Limit    5.000E+00                     *
* Max Number of Memory Steps    8                    *
******************************************************
 
:PWTMP   1.7340E+02  1.9467E+02  2.7533E+02
:PLANE:  PW TOTAL      5.4899 DISTAN   6.67E-01  1.21E+01 %
:CHARG:  CLM/ATOM   1382.0577 DISTAN   1.70E+00  1.23E-01 %
INFO: Reducing dbase  2.50000E-02 1.17857E+00 2.30283E-02
 
Step History
        DMIX         DMIXT        Red     Pred      Trust     Lambda    MagRel    MagAbs     Beta
  1   3.5000E-02   3.5000E-02 -1.00E+00  1.00E+00 -1.00E+01  1.00E+00  3.50E-02  3.50E-02  1.00E+00
:INFO :  Note, Pratt in use
INFO: Reducing dbase  2.30283E-02 1.17857E+00 2.12122E-02
:TRUST:  Step 3.75E-02  Charge 7.50E-02 (e) CTO  2.50E-01 (e) PW  3.50E-01 (e)
:DIRM :  MEMORY  0/ 8 SCALE   1.000
Performing Pseudo Compensation
Final Pseudo Compensation Rescaling     1.00000E+00
:MIX  :   PRATT  REGULARIZATION:  1.00E-04 GREED: 0.02500                  
     
       CHARGES OF MIXED CHARGE DENSITY
:CTO   : INTERSTITIAL CHARGE =     6.134524
:CPC   : PW Pseudocharge     =    17.350179
:CTO001: CHARGE SPHERE  1    =    55.932738

:NEC03: NUCLEAR AND ELECTRONIC CHARGE    118.00000   118.00000

PW CHANGE     H    K    L      Current       Change    Residue
:PTO001:      0    0    0  8.52959450E-02  2.904E-03  1.047E-02
:PTO003:      0    2    0  1.85259440E-02  1.184E-03  2.778E-03
:PTO004:     -1    1    0  8.71302231E-02  6.131E-03  9.188E-03
:PTO005:      0    2   -1 -1.00611878E-01 -7.184E-03 -8.402E-03
:PTO006:      0    0   -2 -5.21538169E-02 -3.727E-03 -4.098E-03
:PTO007:     -1    1   -1 -1.03910546E-01 -8.221E-03 -7.023E-03
:PTO008:      0    2   -2 -1.46711178E-02 -1.529E-03 -7.874E-04
:PTO009:     -1    1   -2 -6.91364809E-02 -8.116E-03 -6.271E-03
:PTO011:     -1    3    0 -9.40284939E-03 -1.476E-03 -1.520E-03
:PTO012:     -1    3   -1 -3.81663826E-02 -7.045E-03 -7.628E-03
:PTO013:      0    4    0 -6.21404147E-03 -1.407E-03 -1.582E-03
:PTO014:      0    2   -3  1.39242368E-02  3.205E-03  4.507E-03

:ENE  : ********** TOTAL ENERGY IN Ry =       -36944.46006140

       TOTAL FORCE IN mRy/a.u. = |F|     Fx             Fy             Fz     with/without FOR in case.in2
:FOR001:   1.ATOM        168.071          0.000          0.000       -168.071 partial forces
       TOTAL FORCE WITH RESPECT TO GLOBAL CARTESIAN COORDINATES:
:FCA001:   1.ATOM                         0.000       -168.071          0.000 partial forces
       TOTAL FORCE WITH RESPECT TO THE GLOBAL COORDINATE SYSTEM:
:FGL001:   1.ATOM                 0.000000000  -168.070916028     0.000000000 partial forces

:LABEL1: Calculations in /home/ykent/GWIEN/example/Pr/aU/V5/case
:LABEL2: on didymium-2.cmpgroup.ameslab.gov at Fri Jul 10 13:19:10 CDT 2020
:LABEL3: using WIEN2k_19.1 (Release 25/6/2019) in /home/ykent/opt/src/WIEN2k_19.1
:LABEL4: using the command: run_lapw -cc 0.0001
 Flat Integration
 New Mode for Coulomb Integral
 Consistent 3/8+Simpson combinations
 Extension of core to zero
 LDM version in phi
 Fifth-order quadrature in outwin


            ---------
:ITE002:  2. ITERATION
            ---------

:NATO :    1 INDEPENDENT AND    2 TOTAL ATOMS IN UNITCELL
       SUBSTANCE: aU                                                          

       LATTICE                      = CXY 
:POT  : POTENTIAL OPTION EX_LDA EC_LDA VX_LDA VC_LDA
:LAT  : LATTICE CONSTANTS=  5.37049 10.89808  9.40854    1.571    1.571    1.571
:VOL  : UNIT CELL VOLUME =     275.33200
       MODE OF CALCULATION IS       = RELA
       NON-SPINPOLARIZED CALCULATION
:IFFT  : FFT-parameters:   48   90   72 Factor: 2.00


   CONVERGENCE PARAMETER FOR PSEUDOCHARGE: NCON=  9
   MAXIMAL VALUE OF RMT(JATOM)*ABSK(NKK) : RK  =27.59804


:VKCOUL :  VK-COUL convergence: 0.150E-06
       ATOMNUMBER=  1 Pr1        VCOUL-ZERO =  0.63834E+00
:EFG001:                        EFG         =    -0.33997   *10**21  V / m**2
                               V20  TOT/SRF=    -0.29442    -0.08173
                               V22  TOT/SRF=    -0.08522     0.01176
                               V22M TOT/SRF=     0.00000     0.00000
                               V21  TOT/SRF=     0.00000     0.00000
                               V21M TOT/SRF=     0.00000     0.00000

              0.08476    0.00000    0.00000        0.08476    0.00000    0.00000
              0.00000    0.25521    0.00000        0.00000    0.25521    0.00000
              0.00000    0.00000   -0.33997        0.00000    0.00000   -0.33997

         MAIN DIRECTIONS OF THE EFG   1.0000  0.0000  0.0000
                                      0.0000  1.0000  0.0000
                                      0.0000  0.0000  1.0000
:ANG001:  ANGLE WITH OLD X-AXIS =         0.0

:ETA001:                         ASYMM. ETA =     0.50136


     HELLMANN-FEYNMAN-FORCE IN mRy/a.u. = |F|  Fx       Fy             Fz
:FHF001:   1.ATOM    857.063263922874      0.000000000000      0.000000000000   -857.063263922874

:FIT001: LUSE= 13 SIGMA OF V-XC FIT FOR ATOM  1  0.3901510E-04
:FIT001: LUSE= 13 SIGMA OF V-XC FIT FOR ATOM  1  0.3901510E-04
:DEN  : DENSITY INTEGRAL  =        -14230.85979631   (Ry)
       ELS_POTENTIAL_AT Z=0 and Z=0.5:   1.00168   1.00168
       ELS_POTENTIAL_AT Y=0 and Y=0.5:  -0.02931  -0.02931
:VZERO:v0,v0c,v0x   0.25583   1.00168  -0.74584 v5,v5c,v5x   0.25583   1.00168  -0.74584
:VZERY:v0,v0c,v0x  -0.99515  -0.02931  -0.96583 v5,v5c,v5x  -0.99515  -0.02931  -0.96583
:VZERX:v0,v0c,v0x  -1.29511  -0.39096  -0.90415 v5,v5c,v5x  -1.29511  -0.39096  -0.90415
:LMAX-WF:   10   Non-Spherical LMAX:   4

          ATOMIC SPHERE DEPENDENT PARAMETERS FOR ATOM  Pr1       
:e__0001: OVERALL ENERGY PARAMETER IS    0.5000
          OVERALL BASIS SET ON ATOM IS LAPW
:E0_0001: E( 0)=    0.5000
             APW+lo
:E0_0001: E( 0)=   -1.3850   E(BOTTOM)=   -2.039   E(TOP)=   -0.731  4  5   240
             LOCAL ORBITAL
:E1_0001: E( 1)=    0.9000
             APW+lo
:E1_0001: E( 1)=   -0.9053   E(BOTTOM)=   -0.905   E(TOP)= -200.000  3 -1   200
             LOCAL ORBITAL
:E3_0001: E( 3)=    1.0781   E(BOTTOM)=    1.078   E(TOP)= -200.000  0 -1   110
             APW+lo
:E2_0001: E( 2)=    0.8207   E(BOTTOM)=    0.821   E(TOP)= -200.000  2 -1    90
             APW+lo

       K=   0.06250   0.00000   0.06250            1
:RKM  : MATRIX SIZE   279LOs:  40  RKM= 8.50  WEIGHT= 4.00  PGR:    
       EIGENVALUES ARE:
:EIG00001:      -1.4459432   -1.3523867   -0.2958425   -0.0006801    0.0667530
:EIG00006:       0.0880510    0.1111475    0.1184698    1.0353401    1.0573424
:EIG00011:       1.1906665    1.2293130    1.2329705    1.2330286    1.2632398
:EIG00016:       1.3036760    1.3101768    1.3166853    1.3173434    1.3282159
:EIG00021:       1.3339143    1.3397397    1.3511718    1.3825750    1.3857024
:EIG00026:       1.4008134    1.4483957    1.4642444    1.5343341    1.5787106
:EIG00031:       1.6379297    1.8220801    1.8559773    1.9271633
       ********************************************************

:KPT   :      NUMBER OF K-POINTS:   288
:GAP (global)   :    0.0    Ry =     0.0   eV (metal)
         Bandranges (emin - emax) and occupancy:
:BAN00005:   5   -0.190428    0.066753  2.00000000
:BAN00006:   6   -0.151888    0.104648  2.00000000
:BAN00007:   7   -0.089167    0.116222  2.00000000
:BAN00008:   8    0.028904    0.134298  2.00000000
:BAN00009:   9    0.933176    1.143613  2.00000000
:BAN00010:  10    0.987999    1.168975  2.00000000
:BAN00011:  11    1.040001    1.249121  2.00000000
:BAN00012:  12    1.117561    1.262453  1.98212735
:BAN00013:  13    1.170944    1.299710  1.40741893
:BAN00014:  14    1.217785    1.309590  0.58920025
:BAN00015:  15    1.248739    1.321064  0.02125346
:BAN00016:  16    1.268073    1.323183  0.00000000
:BAN00017:  17    1.297931    1.334428  0.00000000
:BAN00018:  18    1.306713    1.335034  0.00000000
:BAN00019:  19    1.312887    1.345044  0.00000000
:BAN00020:  20    1.320336    1.351746  0.00000000
        Energy to separate low and high energystates:    0.88318


:NOE  : NUMBER OF ELECTRONS          =   26.000

:FER  : F E R M I - ENERGY(TETRAH.M.)=   1.2566638081
:GMA  : POTENTIAL AND CHARGE CUT-OFF  12.00 Ry**.5

:POS001: ATOM   -1 X,Y,Z = 0.00000 0.89750 0.25000  MULT= 2  ZZ= 59.000  Pr1       

       LMMAX 16
       LM=   0 0  1 0  2 0  2 2  3 0  3 2  4 0  4 2  4 4  5 0  5 2  5 4  6 0  6 2  6 4  6 6

:CHA001: TOTAL VALENCE CHARGE INSIDE SPHERE   1 =   9.4038    (RMT=  2.3000 )
:PCS001: PARTIAL CHARGES SPHERE =  1 S,P,D,F,PX,PY,PZ,D-Z2,D-X2Y2,D-XY,D-XZ,D-YZ 
:QTL001: 1.9436 4.9584 1.1165 1.3808 1.6514 1.6472 1.6598 0.2226 0.2203 0.2157 0.2299 0.2280
        Q-s-low E-s-low   Q-p-low E-p-low   Q-d-low E-d-low   Q-f-low E-f-low
:EPL001:  1.8635 -1.3434    4.8224 -0.0595    0.0285 -0.1142    0.0087 -0.1169
        Q-s-hi  E-s-hi    Q-p-hi  E-p-hi    Q-d-hi  E-d-hi    Q-f-hi  E-f-hi 
:EPH001:  0.0800  1.1277    0.1360  1.1487    1.0880  1.1179    1.3721  1.2004

                      VXX         VYY         VZZ       UP TO R
:VZZ001:             0.55759     8.97430    -9.53189       2.300

:CHA  : TOTAL VALENCE CHARGE INSIDE UNIT CELL =      26.000000

:SUM  : SUM OF EIGENVALUES =           5.210299517


        1.ATOM      Pr1                  14 CORE STATES
       CORE-FORCE in mRy/a.u. = |F|      Fx             Fy             Fz
:FCO001:   1.ATOM    697.520241841743      0.000000000000      0.000000000000    697.520241841743

:1S 001: 1S               -3066.226737155 Ry
:2S 001: 2S                -491.992118707 Ry
:2PP001: 2P*               -465.089746987 Ry
:2P 001: 2P                -429.692941108 Ry
:3S 001: 3S                -105.090280506 Ry
:3PP001: 3P*                -93.627665550 Ry
:3P 001: 3P                 -86.620306799 Ry
:3DD001: 3D*                -66.546541183 Ry
:3D 001: 3D                 -65.035127713 Ry
:4S 001: 4S                 -19.777479563 Ry
:4PP001: 4P*                -15.484874483 Ry
:4P 001: 4P                 -13.958373834 Ry
:4DD001: 4D*                 -6.893800134 Ry
:4D 001: 4D                  -6.624812604 Ry
:CINT001 Core Integral Atom   1   45.998385

       DENSITY AT NUCLEUS
        JATOM        VALENCE       SEMI-CORE          CORE           TOTAL
:RTO001:   1      641.625651        0.000000   656820.146398   657461.772049
     
       CHARGES OF NEW CHARGE DENSITY
:NTO   : INTERSTITIAL CHARGE =     7.192323
:NPC   : PW Pseudocharge     =    18.134342
:NTO001: CHARGE SPHERE  1    =    55.402222

:NEC01: NUCLEAR AND ELECTRONIC CHARGE    118.00000   117.99677
     
       CHARGES OF OLD CHARGE DENSITY
:OTO   : INTERSTITIAL CHARGE =     6.134524
:OPC   : PW Pseudocharge     =    17.350179
:OTO001: CHARGE SPHERE  1    =    55.932738

:NEC02: NUCLEAR AND ELECTRONIC CHARGE    118.00000   118.00000
     
       CONVERGENCE TEST
:DTO001: DIFFERENCE IN SPHERE  1 =  1.0039951

:DIS  :  CHARGE DISTANCE       ( 1.0039951 for atom    1 spin 1)      1.0039951
 PW Mixed is          294
 
******************************************************
* MULTISECANT MIXING VER9 RELEASE 10.4.0              *
* Standard Mode with controls                        *
* Fixed density scale                                *
* Regularization       1.000E-04                     *
* Trust Upper Limit    5.000E+00                     *
* Max Number of Memory Steps    8                    *
******************************************************
 
:PWTMP   1.7340E+02  1.9467E+02  2.7533E+02
:PLANE:  PW TOTAL      5.8303 DISTAN   3.44E-01  5.89E+00 %
:CHARG:  CLM/ATOM   1382.0509 DISTAN   1.46E+00  1.05E-01 %
INFO: Reducing dbase  2.50000E-02 1.00400E+00 2.49502E-02
 
Step History
        DMIX         DMIXT        Red     Pred      Trust     Lambda    MagRel    MagAbs     Beta
  1   3.5000E-02   3.5000E-02 -1.00E+00  1.00E+00 -1.00E+01  1.00E+00  3.50E-02  3.50E-02  1.00E+00
:INFO :  Note, Pratt in use
INFO: Reducing dbase  2.49502E-02 1.00400E+00 2.49005E-02
:TRUST:  Step 3.75E-02  Charge 7.50E-02 (e) CTO  2.50E-01 (e) PW  3.50E-01 (e)
:DIRM :  MEMORY  0/ 8 SCALE   1.000
Performing Pseudo Compensation
Final Pseudo Compensation Rescaling     1.00000E+00
:MIX  :   PRATT  REGULARIZATION:  1.00E-04 GREED: 0.02500                  
     
       CHARGES OF MIXED CHARGE DENSITY
:CTO   : INTERSTITIAL CHARGE =     6.161050
:CPC   : PW Pseudocharge     =    17.577648
:CTO001: CHARGE SPHERE  1    =    55.919475

:NEC03: NUCLEAR AND ELECTRONIC CHARGE    118.00000   118.00000

PW CHANGE     H    K    L      Current       Change    Residue
:PTO001:      0    0    0  8.62184492E-02  9.225E-04  6.731E-03
:PTO003:      0    2    0  1.88352427E-02  3.093E-04  1.604E-03
:PTO004:     -1    1    0  8.85585722E-02  1.428E-03  3.163E-03
:PTO005:      0    2   -1 -1.02218855E-01 -1.607E-03 -1.223E-03
:PTO006:      0    0   -2 -5.29818711E-02 -8.281E-04 -3.917E-04
:PTO007:     -1    1   -1 -1.05598586E-01 -1.688E-03  1.025E-03
:PTO008:      0    2   -2 -1.49212429E-02 -2.501E-04  7.537E-04
:PTO009:     -1    1   -2 -7.04020741E-02 -1.266E-03  1.701E-03
:PTO011:     -1    3    0 -9.59277840E-03 -1.899E-04 -7.667E-05
:PTO012:     -1    3   -1 -3.89565551E-02 -7.902E-04 -6.599E-04
:PTO013:      0    4    0 -6.34362851E-03 -1.296E-04 -1.665E-04
:PTO014:      0    2   -3  1.42364361E-02  3.122E-04  1.276E-03

:ENE  : ********** TOTAL ENERGY IN Ry =       -36944.42009687

       TOTAL FORCE IN mRy/a.u. = |F|     Fx             Fy             Fz     with/without FOR in case.in2
:FOR001:   1.ATOM        159.543          0.000          0.000       -159.543 partial forces
       TOTAL FORCE WITH RESPECT TO GLOBAL CARTESIAN COORDINATES:
:FCA001:   1.ATOM                         0.000       -159.543          0.000 partial forces
       TOTAL FORCE WITH RESPECT TO THE GLOBAL COORDINATE SYSTEM:
:FGL001:   1.ATOM                 0.000000000  -159.543022081     0.000000000 partial forces
 Flat Integration
 New Mode for Coulomb Integral
 Consistent 3/8+Simpson combinations
 Extension of core to zero
 LDM version in phi
 Fifth-order quadrature in outwin


            ---------
:ITE003:  3. ITERATION
            ---------

:NATO :    1 INDEPENDENT AND    2 TOTAL ATOMS IN UNITCELL
       SUBSTANCE: aU                                                          

       LATTICE                      = CXY 
:POT  : POTENTIAL OPTION EX_LDA EC_LDA VX_LDA VC_LDA
:LAT  : LATTICE CONSTANTS=  5.37049 10.89808  9.40854    1.571    1.571    1.571
:VOL  : UNIT CELL VOLUME =     275.33200
       MODE OF CALCULATION IS       = RELA
       NON-SPINPOLARIZED CALCULATION
:IFFT  : FFT-parameters:   48   90   72 Factor: 2.00


   CONVERGENCE PARAMETER FOR PSEUDOCHARGE: NCON=  9
   MAXIMAL VALUE OF RMT(JATOM)*ABSK(NKK) : RK  =27.59804


:VKCOUL :  VK-COUL convergence: 0.151E-06
       ATOMNUMBER=  1 Pr1        VCOUL-ZERO =  0.64386E+00
:EFG001:                        EFG         =    -0.57228   *10**21  V / m**2
                               V20  TOT/SRF=    -0.49561    -0.08141
                               V22  TOT/SRF=    -0.18852     0.01082
                               V22M TOT/SRF=     0.00000     0.00000
                               V21  TOT/SRF=     0.00000     0.00000
                               V21M TOT/SRF=     0.00000     0.00000

              0.09762    0.00000    0.00000        0.09762    0.00000    0.00000
              0.00000    0.47466    0.00000        0.00000    0.47466    0.00000
              0.00000    0.00000   -0.57228        0.00000    0.00000   -0.57228

         MAIN DIRECTIONS OF THE EFG   1.0000  0.0000  0.0000
                                      0.0000  1.0000  0.0000
                                      0.0000  0.0000  1.0000
:ANG001:  ANGLE WITH OLD X-AXIS =         0.0

:ETA001:                         ASYMM. ETA =     0.65884


     HELLMANN-FEYNMAN-FORCE IN mRy/a.u. = |F|  Fx       Fy             Fz
:FHF001:   1.ATOM    855.156590247880      0.000000000000      0.000000000000   -855.156590247880

:FIT001: LUSE= 13 SIGMA OF V-XC FIT FOR ATOM  1  0.3996828E-04
:FIT001: LUSE= 13 SIGMA OF V-XC FIT FOR ATOM  1  0.3996828E-04
:DEN  : DENSITY INTEGRAL  =        -14228.44406842   (Ry)
       ELS_POTENTIAL_AT Z=0 and Z=0.5:   1.00889   1.00889
       ELS_POTENTIAL_AT Y=0 and Y=0.5:  -0.02758  -0.02758
:VZERO:v0,v0c,v0x   0.26206   1.00889  -0.74683 v5,v5c,v5x   0.26206   1.00889  -0.74683
:VZERY:v0,v0c,v0x  -0.99612  -0.02758  -0.96854 v5,v5c,v5x  -0.99612  -0.02758  -0.96854
:VZERX:v0,v0c,v0x  -1.30133  -0.39485  -0.90648 v5,v5c,v5x  -1.30133  -0.39485  -0.90648
:LMAX-WF:   10   Non-Spherical LMAX:   4

          ATOMIC SPHERE DEPENDENT PARAMETERS FOR ATOM  Pr1       
:e__0001: OVERALL ENERGY PARAMETER IS    0.7000
          OVERALL BASIS SET ON ATOM IS LAPW
:E0_0001: E( 0)=    0.7000
             APW+lo
:E0_0001: E( 0)=   -1.3899   E(BOTTOM)=   -2.041   E(TOP)=   -0.738  4  5   245
             LOCAL ORBITAL
:E1_0001: E( 1)=    1.1000
             APW+lo
:E1_0001: E( 1)=    0.0712   E(BOTTOM)=   -0.907   E(TOP)=    1.049  3  4   249
             LOCAL ORBITAL
:E3_0001: E( 3)=    1.2872   E(BOTTOM)=    1.068   E(TOP)=    1.507  0  1   160
             APW+lo
:E2_0001: E( 2)=    0.8207   E(BOTTOM)=    0.821   E(TOP)= -200.000  2 -1   114
             APW+lo

       K=   0.06250   0.00000   0.06250            1
:RKM  : MATRIX SIZE   279LOs:  40  RKM= 8.50  WEIGHT= 4.00  PGR:    
       EIGENVALUES ARE:
:EIG00001:      -1.4494438   -1.3566849   -0.2958277   -0.0028835    0.0640716
:EIG00006:       0.0854775    0.1085965    0.1155917    1.0384801    1.0602308
:EIG00011:       1.1888415    1.2221716    1.2243970    1.2267922    1.2544973
:EIG00016:       1.2923148    1.3031289    1.3059472    1.3085385    1.3160243
:EIG00021:       1.3224681    1.3289522    1.3388776    1.3683064    1.3728549
:EIG00026:       1.3895650    1.4471654    1.4599529    1.5333336    1.5778700
:EIG00031:       1.6368246    1.8203847    1.8559303    1.9243669    2.2138576
:EIG00036:       2.2604141    2.2975678
       ********************************************************

:KPT   :      NUMBER OF K-POINTS:   288
:GAP (global)   :    0.0    Ry =     0.0   eV (metal)
         Bandranges (emin - emax) and occupancy:
:BAN00005:   5   -0.191148    0.064072  2.00000000
:BAN00006:   6   -0.152872    0.101956  2.00000000
:BAN00007:   7   -0.090616    0.113418  2.00000000
:BAN00008:   8    0.027248    0.131298  2.00000000
:BAN00009:   9    0.936966    1.143426  2.00000000
:BAN00010:  10    0.991452    1.167982  2.00000000
:BAN00011:  11    1.042973    1.240651  2.00000000
:BAN00012:  12    1.118433    1.252900  1.98211443
:BAN00013:  13    1.169912    1.287985  1.39412260
:BAN00014:  14    1.212521    1.300999  0.60505159
:BAN00015:  15    1.240609    1.309262  0.01871138
:BAN00016:  16    1.259511    1.311135  0.00000000
:BAN00017:  17    1.287543    1.322336  0.00000000
:BAN00018:  18    1.296364    1.322713  0.00000000
:BAN00019:  19    1.302847    1.332325  0.00000000
:BAN00020:  20    1.309456    1.338524  0.00000000
        Energy to separate low and high energystates:    0.88697


:NOE  : NUMBER OF ELECTRONS          =   26.000

:FER  : F E R M I - ENERGY(TETRAH.M.)=   1.2485193496
:GMA  : POTENTIAL AND CHARGE CUT-OFF  12.00 Ry**.5

:POS001: ATOM   -1 X,Y,Z = 0.00000 0.89750 0.25000  MULT= 2  ZZ= 59.000  Pr1       

       LMMAX 16
       LM=   0 0  1 0  2 0  2 2  3 0  3 2  4 0  4 2  4 4  5 0  5 2  5 4  6 0  6 2  6 4  6 6

:CHA001: TOTAL VALENCE CHARGE INSIDE SPHERE   1 =   9.4728    (RMT=  2.3000 )
:PCS001: PARTIAL CHARGES SPHERE =  1 S,P,D,F,PX,PY,PZ,D-Z2,D-X2Y2,D-XY,D-XZ,D-YZ 
:QTL001: 1.9419 4.9590 1.0830 1.4846 1.6519 1.6474 1.6596 0.2155 0.2110 0.2103 0.2239 0.2223
        Q-s-low E-s-low   Q-p-low E-p-low   Q-d-low E-d-low   Q-f-low E-f-low
:EPL001:  1.8645 -1.3478    4.8307 -0.0611    0.0281 -0.1158    0.0089 -0.1188
        Q-s-hi  E-s-hi    Q-p-hi  E-p-hi    Q-d-hi  E-d-hi    Q-f-hi  E-f-hi 
:EPH001:  0.0773  1.1265    0.1283  1.1461    1.0549  1.1160    1.4756  1.1956

                      VXX         VYY         VZZ       UP TO R
:VZZ001:            -0.04434     8.89221    -8.84787       2.300

:CHA  : TOTAL VALENCE CHARGE INSIDE UNIT CELL =      26.000000

:SUM  : SUM OF EIGENVALUES =           5.164821518


        1.ATOM      Pr1                  14 CORE STATES
       CORE-FORCE in mRy/a.u. = |F|      Fx             Fy             Fz
:FCO001:   1.ATOM    704.125438102147      0.000000000000      0.000000000000    704.125438102147

:1S 001: 1S               -3066.256980266 Ry
:2S 001: 2S                -492.021809187 Ry
:2PP001: 2P*               -465.119508304 Ry
:2P 001: 2P                -429.722671050 Ry
:3S 001: 3S                -105.118842568 Ry
:3PP001: 3P*                -93.656320082 Ry
:3P 001: 3P                 -86.648810856 Ry
:3DD001: 3D*                -66.575313303 Ry
:3D 001: 3D                 -65.063861132 Ry
:4S 001: 4S                 -19.798928116 Ry
:4PP001: 4P*                -15.505886783 Ry
:4P 001: 4P                 -13.978708702 Ry
:4DD001: 4D*                 -6.912912420 Ry
:4D 001: 4D                  -6.643691183 Ry
:CINT001 Core Integral Atom   1   45.998405

       DENSITY AT NUCLEUS
        JATOM        VALENCE       SEMI-CORE          CORE           TOTAL
:RTO001:   1      641.800244        0.000000   656821.714893   657463.515138
     
       CHARGES OF NEW CHARGE DENSITY
:NTO   : INTERSTITIAL CHARGE =     7.054461
:NPC   : PW Pseudocharge     =    18.063429
:NTO001: CHARGE SPHERE  1    =    55.471171

:NEC01: NUCLEAR AND ELECTRONIC CHARGE    118.00000   117.99680
     
       CHARGES OF OLD CHARGE DENSITY
:OTO   : INTERSTITIAL CHARGE =     6.161050
:OPC   : PW Pseudocharge     =    17.577648
:OTO001: CHARGE SPHERE  1    =    55.919475

:NEC02: NUCLEAR AND ELECTRONIC CHARGE    118.00000   118.00000
     
       CONVERGENCE TEST
:DTO001: DIFFERENCE IN SPHERE  1 =  0.8450525

:DIS  :  CHARGE DISTANCE       ( 0.8450525 for atom    1 spin 1)      0.8450525
 PW Mixed is          294
 
******************************************************
* MULTISECANT MIXING VER9 RELEASE 10.4.0              *
* Slow Mode, cautious                                *
* Fixed density scale                                *
* Regularization       1.000E-04                     *
* Step Trust Radius    0.75000                       *
* Trust Upper Limit    2.000E+00                     *
* Max Number of Memory Steps   12                    *
******************************************************
 
:PWTMP   1.7340E+02  1.9467E+02  2.7533E+02
:PLANE:  PW TOTAL      5.9119 DISTAN   2.65E-01  4.49E+00 %
:CHARG:  CLM/ATOM   1382.0449 DISTAN   1.24E+00  8.98E-02 %
 
Step History
        DMIX         DMIXT        Red     Pred      Trust     Lambda    MagRel    MagAbs     Beta
  1   3.5000E-02   3.5000E-02 -1.00E+00  1.00E+00 -1.00E+01  1.00E+00  3.50E-02  3.50E-02  1.00E+00
  2   2.5000E-02   2.5000E-02 -1.00E+00  1.00E+00 -1.00E+01  1.00E+00  2.50E-02  3.74E-02  1.00E+00
:JACOBIANS    6.824E-02   6.362E-02
  
:TRUST:  Step 5.30E-02  Charge 7.50E-02 (e) CTO  2.50E-01 (e) PW  3.50E-01 (e)
:DIRM :  MEMORY  1/12 SCALE   1.000
:MIX  :   PRATT  REGULARIZATION:  1.00E-04 GREED: 0.05300  Expand 2.12  0.0530 PW             
     
       CHARGES OF MIXED CHARGE DENSITY
:CTO   : INTERSTITIAL CHARGE =     6.217608
:CPC   : PW Pseudocharge     =    18.062658
:CTO001: CHARGE SPHERE  1    =    55.891196

:NEC03: NUCLEAR AND ELECTRONIC CHARGE    118.00000   118.00000

PW CHANGE     H    K    L      Current       Change    Residue
:PTO001:      0    0    0  8.81854140E-02  1.967E-03  5.051E-03
:PTO003:      0    2    0  1.94947298E-02  6.595E-04  1.309E-03
:PTO004:     -1    1    0  9.16041004E-02  3.046E-03  1.814E-03
:PTO005:      0    2   -1 -1.05645255E-01 -3.426E-03  3.605E-04
:PTO006:      0    0   -2 -5.47474498E-02 -1.766E-03  3.960E-04
:PTO007:     -1    1   -1 -1.09197827E-01 -3.599E-03  2.562E-03
:PTO008:      0    2   -2 -1.54545599E-02 -5.333E-04  1.005E-03
:PTO009:     -1    1   -2 -7.31005740E-02 -2.698E-03  2.822E-03
:PTO011:     -1    3    0 -9.99774533E-03 -4.050E-04  8.294E-05
:PTO012:     -1    3   -1 -4.06413624E-02 -1.685E-03  4.572E-05
:PTO013:      0    4    0 -6.61993421E-03 -2.763E-04 -3.122E-05
:PTO014:      0    2   -3  1.49021079E-02  6.657E-04  9.447E-04

:ENE  : ********** TOTAL ENERGY IN Ry =       -36944.39030655

       TOTAL FORCE IN mRy/a.u. = |F|     Fx             Fy             Fz     with/without FOR in case.in2
:FOR001:   1.ATOM        151.031          0.000          0.000       -151.031 partial forces
       TOTAL FORCE WITH RESPECT TO GLOBAL CARTESIAN COORDINATES:
:FCA001:   1.ATOM                         0.000       -151.031          0.000 partial forces
       TOTAL FORCE WITH RESPECT TO THE GLOBAL COORDINATE SYSTEM:
:FGL001:   1.ATOM                 0.000000000  -151.031152146     0.000000000 partial forces
 Flat Integration
 New Mode for Coulomb Integral
 Consistent 3/8+Simpson combinations
 Extension of core to zero
 LDM version in phi
 Fifth-order quadrature in outwin


            ---------
:ITE004:  4. ITERATION
            ---------

:NATO :    1 INDEPENDENT AND    2 TOTAL ATOMS IN UNITCELL
       SUBSTANCE: aU                                                          

       LATTICE                      = CXY 
:POT  : POTENTIAL OPTION EX_LDA EC_LDA VX_LDA VC_LDA
:LAT  : LATTICE CONSTANTS=  5.37049 10.89808  9.40854    1.571    1.571    1.571
:VOL  : UNIT CELL VOLUME =     275.33200
       MODE OF CALCULATION IS       = RELA
       NON-SPINPOLARIZED CALCULATION
:IFFT  : FFT-parameters:   48   90   72 Factor: 2.00


   CONVERGENCE PARAMETER FOR PSEUDOCHARGE: NCON=  9
   MAXIMAL VALUE OF RMT(JATOM)*ABSK(NKK) : RK  =27.59804


:VKCOUL :  VK-COUL convergence: 0.153E-06
       ATOMNUMBER=  1 Pr1        VCOUL-ZERO =  0.65563E+00
:EFG001:                        EFG         =    -1.06763   *10**21  V / m**2
                               V20  TOT/SRF=    -0.92459    -0.08071
                               V22  TOT/SRF=    -0.40878     0.00882
                               V22M TOT/SRF=     0.00000     0.00000
                               V21  TOT/SRF=     0.00000     0.00000
                               V21M TOT/SRF=     0.00000     0.00000

              0.12504    0.00000    0.00000        0.12504    0.00000    0.00000
              0.00000    0.94259    0.00000        0.00000    0.94259    0.00000
              0.00000    0.00000   -1.06763        0.00000    0.00000   -1.06763

         MAIN DIRECTIONS OF THE EFG   1.0000  0.0000  0.0000
                                      0.0000  1.0000  0.0000
                                      0.0000  0.0000  1.0000
:ANG001:  ANGLE WITH OLD X-AXIS =         0.0

:ETA001:                         ASYMM. ETA =     0.76576


     HELLMANN-FEYNMAN-FORCE IN mRy/a.u. = |F|  Fx       Fy             Fz
:FHF001:   1.ATOM    851.091177479912      0.000000000000      0.000000000000   -851.091177479912

:FIT001: LUSE= 13 SIGMA OF V-XC FIT FOR ATOM  1  0.4221931E-04
:FIT001: LUSE= 13 SIGMA OF V-XC FIT FOR ATOM  1  0.4221931E-04
:DEN  : DENSITY INTEGRAL  =        -14223.29603749   (Ry)
       ELS_POTENTIAL_AT Z=0 and Z=0.5:   1.02428   1.02428
       ELS_POTENTIAL_AT Y=0 and Y=0.5:  -0.02387  -0.02387
:VZERO:v0,v0c,v0x   0.27535   1.02428  -0.74893 v5,v5c,v5x   0.27535   1.02428  -0.74893
:VZERY:v0,v0c,v0x  -0.99812  -0.02387  -0.97425 v5,v5c,v5x  -0.99812  -0.02387  -0.97425
:VZERX:v0,v0c,v0x  -1.31453  -0.40314  -0.91139 v5,v5c,v5x  -1.31453  -0.40314  -0.91139
:LMAX-WF:   10   Non-Spherical LMAX:   4

          ATOMIC SPHERE DEPENDENT PARAMETERS FOR ATOM  Pr1       
:e__0001: OVERALL ENERGY PARAMETER IS    0.9000
          OVERALL BASIS SET ON ATOM IS LAPW
:E0_0001: E( 0)=    0.9000
             APW+lo
:E0_0001: E( 0)=   -1.4004   E(BOTTOM)=   -2.047   E(TOP)=   -0.754  4  5   238
             LOCAL ORBITAL
:E1_0001: E( 1)=    1.3000
             APW+lo
:E1_0001: E( 1)=    0.0632   E(BOTTOM)=   -0.909   E(TOP)=    1.036  3  4   247
             LOCAL ORBITAL
:E3_0001: E( 3)=    1.2592   E(BOTTOM)=    1.046   E(TOP)=    1.473  0  1   134
             APW+lo
:E2_0001: E( 2)=    0.9000   E(BOTTOM)=    0.821   E(TOP)= -200.000  2 -1   112
             APW+lo

       K=   0.06250   0.00000   0.06250            1
:RKM  : MATRIX SIZE   279LOs:  40  RKM= 8.50  WEIGHT= 4.00  PGR:    
       EIGENVALUES ARE:
:EIG00001:      -1.4570131   -1.3659406   -0.2959020   -0.0077762    0.0582839
:EIG00006:       0.0797487    0.1029655    0.1093195    1.0450008    1.0663897
:EIG00011:       1.1825590    1.2051140    1.2052966    1.2115549    1.2354570
:EIG00016:       1.2678281    1.2796023    1.2819884    1.2902113    1.2954038
:EIG00021:       1.2979073    1.3068258    1.3127354    1.3388697    1.3473572
:EIG00026:       1.3700443    1.4467258    1.4536629    1.5329775    1.5776664
:EIG00031:       1.6364567    1.8197835    1.8577299    1.9228813    2.2154760
:EIG00036:       2.2623095    2.3007157    2.5487787    2.5556197
       ********************************************************

:KPT   :      NUMBER OF K-POINTS:   288
:GAP (global)   :    0.0    Ry =     0.0   eV (metal)
         Bandranges (emin - emax) and occupancy:
:BAN00005:   5   -0.192934    0.058284  2.00000000
:BAN00006:   6   -0.155143    0.095942  2.00000000
:BAN00007:   7   -0.093889    0.107199  2.00000000
:BAN00008:   8    0.023521    0.124749  2.00000000
:BAN00009:   9    0.944984    1.141522  2.00000000
:BAN00010:  10    0.998701    1.164291  2.00000000
:BAN00011:  11    1.049094    1.225508  2.00000000
:BAN00012:  12    1.119319    1.232257  1.98630460
:BAN00013:  13    1.166212    1.262874  1.34900783
:BAN00014:  14    1.199293    1.279912  0.65132200
:BAN00015:  15    1.222633    1.283341  0.01336557
:BAN00016:  16    1.240197    1.286513  0.00000000
:BAN00017:  17    1.265021    1.296446  0.00000000
:BAN00018:  18    1.274082    1.296543  0.00000000
:BAN00019:  19    1.285688    1.304799  0.00000000
:BAN00020:  20    1.290873    1.312135  0.00000000
        Energy to separate low and high energystates:    0.89498


:NOE  : NUMBER OF ELECTRONS          =   26.000

:FER  : F E R M I - ENERGY(TETRAH.M.)=   1.2300839995
:GMA  : POTENTIAL AND CHARGE CUT-OFF  12.00 Ry**.5

:POS001: ATOM   -1 X,Y,Z = 0.00000 0.89750 0.25000  MULT= 2  ZZ= 59.000  Pr1       

       LMMAX 16
       LM=   0 0  1 0  2 0  2 2  3 0  3 2  4 0  4 2  4 4  5 0  5 2  5 4  6 0  6 2  6 4  6 6

:CHA001: TOTAL VALENCE CHARGE INSIDE SPHERE   1 =   9.6353    (RMT=  2.3000 )
:PCS001: PARTIAL CHARGES SPHERE =  1 S,P,D,F,PX,PY,PZ,D-Z2,D-X2Y2,D-XY,D-XZ,D-YZ 
:QTL001: 1.9366 4.9591 1.0040 1.7314 1.6527 1.6478 1.6586 0.1973 0.1902 0.1981 0.2092 0.2091
        Q-s-low E-s-low   Q-p-low E-p-low   Q-d-low E-d-low   Q-f-low E-f-low
:EPL001:  1.8666 -1.3574    4.8481 -0.0647    0.0274 -0.1194    0.0088 -0.1224
        Q-s-hi  E-s-hi    Q-p-hi  E-p-hi    Q-d-hi  E-d-hi    Q-f-hi  E-f-hi 
:EPH001:  0.0701  1.1218    0.1110  1.1395    0.9766  1.1109    1.7227  1.1839

                      VXX         VYY         VZZ       UP TO R
:VZZ001:            -1.91580     8.54212    -6.62632       2.300

:CHA  : TOTAL VALENCE CHARGE INSIDE UNIT CELL =      26.000000

:SUM  : SUM OF EIGENVALUES =           5.052829687


        1.ATOM      Pr1                  14 CORE STATES
       CORE-FORCE in mRy/a.u. = |F|      Fx             Fy             Fz
:FCO001:   1.ATOM    718.231614952572      0.000000000000      0.000000000000    718.231614952572

:1S 001: 1S               -3066.321464676 Ry
:2S 001: 2S                -492.085115277 Ry
:2PP001: 2P*               -465.182965434 Ry
:2P 001: 2P                -429.786061280 Ry
:3S 001: 3S                -105.179742623 Ry
:3PP001: 3P*                -93.717417322 Ry
:3P 001: 3P                 -86.709587265 Ry
:3DD001: 3D*                -66.636661329 Ry
:3D 001: 3D                 -65.125126648 Ry
:4S 001: 4S                 -19.844666539 Ry
:4PP001: 4P*                -15.550697254 Ry
:4P 001: 4P                 -14.022076284 Ry
:4DD001: 4D*                 -6.953684154 Ry
:4D 001: 4D                  -6.683965628 Ry
:CINT001 Core Integral Atom   1   45.998444

       DENSITY AT NUCLEUS
        JATOM        VALENCE       SEMI-CORE          CORE           TOTAL
:RTO001:   1      641.327838        0.000000   656825.057180   657466.385018
     
       CHARGES OF NEW CHARGE DENSITY
:NTO   : INTERSTITIAL CHARGE =     6.729489
:NPC   : PW Pseudocharge     =    17.893295
:NTO001: CHARGE SPHERE  1    =    55.633697

:NEC01: NUCLEAR AND ELECTRONIC CHARGE    118.00000   117.99688
     
       CHARGES OF OLD CHARGE DENSITY
:OTO   : INTERSTITIAL CHARGE =     6.217608
:OPC   : PW Pseudocharge     =    18.062658
:OTO001: CHARGE SPHERE  1    =    55.891196

:NEC02: NUCLEAR AND ELECTRONIC CHARGE    118.00000   118.00000
     
       CONVERGENCE TEST
:DTO001: DIFFERENCE IN SPHERE  1 =  0.4847033

:DIS  :  CHARGE DISTANCE       ( 0.4847033 for atom    1 spin 1)      0.4847033
 PW Mixed is          294
 
******************************************************
* MULTISECANT MIXING VER9 RELEASE 10.4.0              *
* Standard Mode with controls                        *
* Fixed density scale                                *
* Regularization       1.000E-04                     *
* Trust Upper Limit    5.000E+00                     *
* Max Number of Memory Steps    8                    *
******************************************************
 
:PWTMP   1.7340E+02  1.9467E+02  2.7533E+02
:PLANE:  PW TOTAL      6.0862 DISTAN   2.09E-01  3.44E+00 %
:CHARG:  CLM/ATOM   1382.0323 DISTAN   7.76E-01  5.62E-02 %
 
Step History
        DMIX         DMIXT        Red     Pred      Trust     Lambda    MagRel    MagAbs     Beta
  1   3.5000E-02   3.5000E-02 -1.00E+00  1.00E+00 -1.00E+01  1.00E+00  3.50E-02  3.50E-02  1.00E+00
  2   2.5000E-02   2.5000E-02  8.48E-01  1.00E+00 -1.00E+01  1.00E+00  2.50E-02  3.74E-02  1.00E+00
  3   5.2998E-02   5.2998E-02 -1.00E+00  1.00E+00 -1.00E+01  1.00E+00  5.30E-02  6.73E-02  1.00E+00
:JACOBIANS    1.211E-01   9.271E-02
  
:NORMS:  1/Froebius, Min, Max, Used   0.3482E+00  0.1958E+00  0.3916E+00  0.3482E+00
:INFO :  Number of Memory Steps    2 Skipping    0
:INFO :  SLambda=    2.8956480370  Max    2.8956480370
:PREDicted Charge, CTotal, PW Trust    4.865E-02   9.730E-02   5.868E-01
:PREDicted DMix, Beta, BLim   1.1840E-01  1.3958E+00  1.1413E+00

Eigenvalues, unscaled except for SY+YY
   #     SY Real        SY Imag          SS             YY         SY+YY Real      SY+YY Imag
   1   4.805448E-01   0.000000E+00   2.424574E-01   1.999864E+00   3.391318E+00   0.000000E+00
   2  -2.303713E-15   0.000000E+00   0.000000E+00   1.357318E-04   1.708000E-04   0.000000E+00
 
:INFO :  Singular value  3.391E+00 Weight  1.000E+00 Projection -3.037E-01
:INFO :  Singular value  1.708E-04 Weight  4.218E-01 Projection -4.773E+00
:RANK :  ACTIVE   1.42/2  =  71.09 % ; YY RANK   1.32/2  =  65.77 %
 
Increasing PW by   1.619
:BLIM :  VZERO Control Off
:TRUST:  Step 3.75E-01  Charge 7.50E-02 (e) CTO  2.50E-01 (e) PW  5.87E-01 (e)
:DIRM :  MEMORY  2/8  SCALE   1.000 RED  0.63 PRED  1.00 NEXT  0.75 
:TRAVE:  Charge 2.66E-02 (e) CTO  5.31E-02 (e) PW  1.95E-01 (e)
:DIRP :  |MSR1|= 9.547E-02 |PRATT|= 2.092E-01 ANGLE= 115.1 DEGREES
:DIRQ :  |MSR1|= 8.319E-02 |PRATT|= 7.761E-01 ANGLE=   4.6 DEGREES
:DIRT :  |MSR1|= 1.266E-01 |PRATT|= 8.038E-01 ANGLE=  56.7 DEGREES
:MIX  :   MSE1   REGULARIZATION:  2.00E-04 GREED: 0.07995  Newton 1.00  0.1575                
     
       CHARGES OF MIXED CHARGE DENSITY
:CTO   : INTERSTITIAL CHARGE =     6.270728
:CPC   : PW Pseudocharge     =    18.318701
:CTO001: CHARGE SPHERE  1    =    55.864636

:NEC03: NUCLEAR AND ELECTRONIC CHARGE    118.00000   118.00000

PW CHANGE     H    K    L      Current       Change    Residue
:PTO001:      0    0    0  8.93082875E-02  1.123E-03  1.285E-03
:PTO003:      0    2    0  1.99494870E-02  4.548E-04  7.460E-04
:PTO004:     -1    1    0  9.32930671E-02  1.689E-03 -1.038E-03
:PTO005:      0    2   -1 -1.07312139E-01 -1.667E-03  3.795E-03
:PTO006:      0    0   -2 -5.55884868E-02 -8.410E-04  2.139E-03
:PTO007:     -1    1   -1 -1.10815875E-01 -1.618E-03  5.875E-03
:PTO008:      0    2   -2 -1.56331898E-02 -1.786E-04  1.563E-03
:PTO009:     -1    1   -2 -7.42355152E-02 -1.135E-03  5.295E-03
:PTO011:     -1    3    0 -1.01863272E-02 -1.886E-04  4.774E-04
:PTO012:     -1    3   -1 -4.14972086E-02 -8.558E-04  1.559E-03
:PTO013:      0    4    0 -6.75357299E-03 -1.336E-04  2.748E-04
:PTO014:      0    2   -3  1.52911082E-02  3.890E-04  1.927E-04

:ENE  : ********** TOTAL ENERGY IN Ry =       -36944.34515411

       TOTAL FORCE IN mRy/a.u. = |F|     Fx             Fy             Fz     with/without FOR in case.in2
:FOR001:   1.ATOM        132.860          0.000          0.000       -132.860 partial forces
       TOTAL FORCE WITH RESPECT TO GLOBAL CARTESIAN COORDINATES:
:FCA001:   1.ATOM                         0.000       -132.860          0.000 partial forces
       TOTAL FORCE WITH RESPECT TO THE GLOBAL COORDINATE SYSTEM:
:FGL001:   1.ATOM                 0.000000000  -132.859562527     0.000000000 partial forces
 Flat Integration
 New Mode for Coulomb Integral
 Consistent 3/8+Simpson combinations
 Extension of core to zero
 LDM version in phi
 Fifth-order quadrature in outwin


            ---------
:ITE005:  5. ITERATION
            ---------

:NATO :    1 INDEPENDENT AND    2 TOTAL ATOMS IN UNITCELL
       SUBSTANCE: aU                                                          

       LATTICE                      = CXY 
:POT  : POTENTIAL OPTION EX_LDA EC_LDA VX_LDA VC_LDA
:LAT  : LATTICE CONSTANTS=  5.37049 10.89808  9.40854    1.571    1.571    1.571
:VOL  : UNIT CELL VOLUME =     275.33200
       MODE OF CALCULATION IS       = RELA
       NON-SPINPOLARIZED CALCULATION
:IFFT  : FFT-parameters:   48   90   72 Factor: 2.00


   CONVERGENCE PARAMETER FOR PSEUDOCHARGE: NCON=  9
   MAXIMAL VALUE OF RMT(JATOM)*ABSK(NKK) : RK  =27.59804


:VKCOUL :  VK-COUL convergence: 0.152E-06
       ATOMNUMBER=  1 Pr1        VCOUL-ZERO =  0.66332E+00
:EFG001:                        EFG         =     1.78334   *10**21  V / m**2
                               V20  TOT/SRF=    -1.37317    -0.07807
                               V22  TOT/SRF=    -0.99053     0.00342
                               V22M TOT/SRF=     0.00000     0.00000
                               V21  TOT/SRF=     0.00000     0.00000
                               V21M TOT/SRF=     0.00000     0.00000

             -0.19773    0.00000    0.00000       -0.19773    0.00000    0.00000
              0.00000    1.78334    0.00000        0.00000    1.78334    0.00000
              0.00000    0.00000   -1.58561        0.00000    0.00000   -1.58561

         MAIN DIRECTIONS OF THE EFG   1.0000  0.0000  0.0000
                                      0.0000  1.0000  0.0000
                                      0.0000  0.0000  1.0000
:ANG001:  ANGLE WITH OLD X-AXIS =         0.0

:ETA001:                         ASYMM. ETA =     0.77825


     HELLMANN-FEYNMAN-FORCE IN mRy/a.u. = |F|  Fx       Fy             Fz
:FHF001:   1.ATOM    821.134672099841      0.000000000000      0.000000000000   -821.134672099841

:FIT001: LUSE= 13 SIGMA OF V-XC FIT FOR ATOM  1  0.4771466E-04
:FIT001: LUSE= 13 SIGMA OF V-XC FIT FOR ATOM  1  0.4771466E-04
:DEN  : DENSITY INTEGRAL  =        -14218.21177460   (Ry)
       ELS_POTENTIAL_AT Z=0 and Z=0.5:   1.03556   1.03556
       ELS_POTENTIAL_AT Y=0 and Y=0.5:  -0.01954  -0.01954
:VZERO:v0,v0c,v0x   0.28460   1.03556  -0.75096 v5,v5c,v5x   0.28460   1.03556  -0.75096
:VZERY:v0,v0c,v0x  -0.99771  -0.01954  -0.97817 v5,v5c,v5x  -0.99771  -0.01954  -0.97817
:VZERX:v0,v0c,v0x  -1.32240  -0.40782  -0.91458 v5,v5c,v5x  -1.32240  -0.40782  -0.91458
:LMAX-WF:   10   Non-Spherical LMAX:   4

          ATOMIC SPHERE DEPENDENT PARAMETERS FOR ATOM  Pr1       
:e__0001: OVERALL ENERGY PARAMETER IS    0.9867
          OVERALL BASIS SET ON ATOM IS LAPW
:E0_0001: E( 0)=    0.9867
             APW+lo
:E0_0001: E( 0)=   -1.4145   E(BOTTOM)=   -2.057   E(TOP)=   -0.772  4  5   242
             LOCAL ORBITAL
:E1_0001: E( 1)=    1.3867
             APW+lo
:E1_0001: E( 1)=    0.0517   E(BOTTOM)=   -0.916   E(TOP)=    1.019  3  4   251
             LOCAL ORBITAL
:E3_0001: E( 3)=    1.2290   E(BOTTOM)=    1.020   E(TOP)=    1.438  0  1   115
             APW+lo
:E2_0001: E( 2)=    0.9867   E(BOTTOM)=    0.817   E(TOP)= -200.000  2 -1   126
             APW+lo

       K=   0.06250   0.00000   0.06250            1
:RKM  : MATRIX SIZE   279LOs:  40  RKM= 8.50  WEIGHT= 4.00  PGR:    
       EIGENVALUES ARE:
:EIG00001:      -1.4682018   -1.3788910   -0.2990115   -0.0171931    0.0480215
:EIG00006:       0.0702419    0.0942535    0.0991593    1.0469194    1.0681577
:EIG00011:       1.1697160    1.1825800    1.1834612    1.1916475    1.2132005
:EIG00016:       1.2407858    1.2519759    1.2548477    1.2618881    1.2694248
:EIG00021:       1.2760573    1.2813082    1.2837259    1.3074150    1.3220524
:EIG00026:       1.3535556    1.4434702    1.4464149    1.5293363    1.5737647
:EIG00031:       1.6330824    1.8157884    1.8560805    1.9182998    2.2133399
:EIG00036:       2.2605133    2.2997962    2.5483606    2.5566907    2.6852039
       ********************************************************

:KPT   :      NUMBER OF K-POINTS:   288
:GAP (global)   :    0.0    Ry =     0.0   eV (metal)
         Bandranges (emin - emax) and occupancy:
:BAN00005:   5   -0.197490    0.048021  2.00000000
:BAN00006:   6   -0.161530    0.086172  2.00000000
:BAN00007:   7   -0.101451    0.097179  2.00000000
:BAN00008:   8    0.016277    0.114336  2.00000000
:BAN00009:   9    0.948829    1.134050  2.00000000
:BAN00010:  10    1.001379    1.154987  2.00000000
:BAN00011:  11    1.050453    1.206931  2.00000000
:BAN00012:  12    1.115080    1.211395  1.98142089
:BAN00013:  13    1.156905    1.237646  1.30362276
:BAN00014:  14    1.181165    1.252158  0.70392892
:BAN00015:  15    1.201414    1.255672  0.01103183
:BAN00016:  16    1.216601    1.257993  0.00000000
:BAN00017:  17    1.239798    1.268124  0.00000000
:BAN00018:  18    1.248096    1.270298  0.00000000
:BAN00019:  19    1.258483    1.279290  0.00000000
:BAN00020:  20    1.262367    1.284734  0.00000000
        Energy to separate low and high energystates:    0.89883


:NOE  : NUMBER OF ELECTRONS          =   26.000

:FER  : F E R M I - ENERGY(TETRAH.M.)=   1.2079976892
:GMA  : POTENTIAL AND CHARGE CUT-OFF  12.00 Ry**.5

:POS001: ATOM   -1 X,Y,Z = 0.00000 0.89750 0.25000  MULT= 2  ZZ= 59.000  Pr1       

       LMMAX 16
       LM=   0 0  1 0  2 0  2 2  3 0  3 2  4 0  4 2  4 4  5 0  5 2  5 4  6 0  6 2  6 4  6 6

:CHA001: TOTAL VALENCE CHARGE INSIDE SPHERE   1 =   9.7992    (RMT=  2.3000 )
:PCS001: PARTIAL CHARGES SPHERE =  1 S,P,D,F,PX,PY,PZ,D-Z2,D-X2Y2,D-XY,D-XZ,D-YZ 
:QTL001: 1.9315 4.9594 0.9248 1.9797 1.6535 1.6482 1.6577 0.1808 0.1700 0.1859 0.1927 0.1953
        Q-s-low E-s-low   Q-p-low E-p-low   Q-d-low E-d-low   Q-f-low E-f-low
:EPL001:  1.8685 -1.3706    4.8646 -0.0722    0.0266 -0.1259    0.0086 -0.1290
        Q-s-hi  E-s-hi    Q-p-hi  E-p-hi    Q-d-hi  E-d-hi    Q-f-hi  E-f-hi 
:EPH001:  0.0630  1.1132    0.0947  1.1283    0.8982  1.1018    1.9711  1.1671

                      VXX         VYY         VZZ       UP TO R
:VZZ001:            -2.51126     8.05021    -5.53895       2.300

:CHA  : TOTAL VALENCE CHARGE INSIDE UNIT CELL =      26.000004

:SUM  : SUM OF EIGENVALUES =           4.827937912


        1.ATOM      Pr1                  14 CORE STATES
       CORE-FORCE in mRy/a.u. = |F|      Fx             Fy             Fz
:FCO001:   1.ATOM    729.295679031106      0.000000000000      0.000000000000    729.295679031106

:1S 001: 1S               -3066.382492738 Ry
:2S 001: 2S                -492.144561375 Ry
:2PP001: 2P*               -465.242541619 Ry
:2P 001: 2P                -429.845570260 Ry
:3S 001: 3S                -105.237939356 Ry
:3PP001: 3P*                -93.775742969 Ry
:3P 001: 3P                 -86.767680618 Ry
:3DD001: 3D*                -66.695071332 Ry
:3D 001: 3D                 -65.183482912 Ry
:4S 001: 4S                 -19.890612044 Ry
:4PP001: 4P*                -15.595845322 Ry
:4P 001: 4P                 -14.066003741 Ry
:4DD001: 4D*                 -6.995331980 Ry
:4D 001: 4D                  -6.725185169 Ry
:CINT001 Core Integral Atom   1   45.998480

       DENSITY AT NUCLEUS
        JATOM        VALENCE       SEMI-CORE          CORE           TOTAL
:RTO001:   1      640.813365        0.000000   656827.861934   657468.675299
     
       CHARGES OF NEW CHARGE DENSITY
:NTO   : INTERSTITIAL CHARGE =     6.401658
:NPC   : PW Pseudocharge     =    17.722420
:NTO001: CHARGE SPHERE  1    =    55.797651

:NEC01: NUCLEAR AND ELECTRONIC CHARGE    118.00000   117.99696
     
       CHARGES OF OLD CHARGE DENSITY
:OTO   : INTERSTITIAL CHARGE =     6.270728
:OPC   : PW Pseudocharge     =    18.318701
:OTO001: CHARGE SPHERE  1    =    55.864636

:NEC02: NUCLEAR AND ELECTRONIC CHARGE    118.00000   118.00000
     
       CONVERGENCE TEST
:DTO001: DIFFERENCE IN SPHERE  1 =  0.1734042

:DIS  :  CHARGE DISTANCE       ( 0.1734042 for atom    1 spin 1)      0.1734042
 PW Mixed is          294
 
******************************************************
* MULTISECANT MIXING VER9 RELEASE 10.4.0              *
* Standard Mode with controls                        *
* Fixed density scale                                *
* Regularization       1.000E-04                     *
* Trust Upper Limit    5.000E+00                     *
* Max Number of Memory Steps    8                    *
******************************************************
 
:PWTMP   1.7340E+02  1.9467E+02  2.7533E+02
:PLANE:  PW TOTAL      6.1774 DISTAN   2.67E-01  4.32E+00 %
:CHARG:  CLM/ATOM   1382.0167 DISTAN   4.26E-01  3.08E-02 %
 
Step History
        DMIX         DMIXT        Red     Pred      Trust     Lambda    MagRel    MagAbs     Beta
  1   3.5000E-02   3.5000E-02 -1.00E+00  1.00E+00 -1.00E+01  1.00E+00  3.50E-02  3.50E-02  1.00E+00
  2   2.5000E-02   2.5000E-02  8.48E-01  1.00E+00 -1.00E+01  1.00E+00  2.50E-02  3.74E-02  1.00E+00
  3   5.2998E-02   5.2998E-02  6.33E-01  1.00E+00 -1.00E+01  2.90E+00  5.30E-02  6.73E-02  1.00E+00
  4   7.9949E-02   7.9949E-02 -1.00E+00  7.53E-01  3.75E-01  1.00E+00  1.58E-01  1.27E-01  1.00E+00
:JACOBIANS    3.788E-01   1.728E-01
  
:NORMS:  1/Froebius, Min, Max, Used   0.2740E+00  0.2727E+00  0.8523E+00  0.2862E+00
:INFO :  Number of Memory Steps    3 Skipping    0
:INFO :  SLambda=    3.0000000000  Max    3.0000000000
:PREDicted Charge, CTotal, PW Trust    2.946E-02   5.892E-02   3.441E-01
:PREDicted DMix, Beta, BLim   2.1704E-01  2.5282E-01  7.4513E-01

Eigenvalues, unscaled except for SY+YY
   #     SY Real        SY Imag          SS             YY         SY+YY Real      SY+YY Imag
   1   5.614804E-01   0.000000E+00   2.225142E-01   2.991433E+00   4.673424E+00   0.000000E+00
   2  -5.925115E-16   0.000000E+00   2.656961E-03   8.525657E-03   5.111859E-05   0.000000E+00
   3   4.693984E-03   0.000000E+00  -7.396473E-18   4.138388E-05   2.504827E-02   0.000000E+00
 
:INFO :  Singular value  4.674E+00 Weight  1.000E+00 Projection -8.642E-03
:INFO :  Singular value  2.505E-02 Weight  9.999E-01 Projection -4.818E+00
:INFO :  Singular value  5.112E-05 Weight  2.837E-02 Projection  1.384E-01
:RANK :  ACTIVE   2.03/3  =  67.61 % ; YY RANK   2.02/3  =  67.25 %
 
:DLIM :  Beta Active  8.000E-01
:BLIM :  VZERO Control Off
:TRUST:  Step 5.60E-01  Charge 7.50E-02 (e) CTO  2.50E-01 (e) PW  5.87E-01 (e)
:DIRM :  MEMORY  3/8  SCALE   1.000 RED  0.63 PRED  0.75 NEXT  0.60 BETA  0.80
:TRAVE:  Charge 1.37E-02 (e) CTO  2.73E-02 (e) PW  2.90E-01 (e)
:DIRP :  |MSR1|= 2.438E-01 |PRATT|= 2.670E-01 ANGLE=  15.5 DEGREES
:DIRQ :  |MSR1|= 1.341E-01 |PRATT|= 4.257E-01 ANGLE=  25.2 DEGREES
:DIRT :  |MSR1|= 2.783E-01 |PRATT|= 5.025E-01 ANGLE=  35.1 DEGREES
:MIX  :   MSE1   REGULARIZATION:  2.99E-04 GREED: 0.13888  Newton 1.00  0.5538                
     
       CHARGES OF MIXED CHARGE DENSITY
:CTO   : INTERSTITIAL CHARGE =     6.272248
:CPC   : PW Pseudocharge     =    17.704525
:CTO001: CHARGE SPHERE  1    =    55.863876

:NEC03: NUCLEAR AND ELECTRONIC CHARGE    118.00000   118.00000

PW CHANGE     H    K    L      Current       Change    Residue
:PTO001:      0    0    0  8.70831323E-02 -2.225E-03 -1.649E-03
:PTO003:      0    2    0  1.94830474E-02 -4.664E-04  2.271E-04
:PTO004:     -1    1    0  8.97379398E-02 -3.555E-03 -2.756E-03
:PTO005:      0    2   -1 -1.02558712E-01  4.753E-03  5.342E-03
:PTO006:      0    0   -2 -5.31188801E-02  2.470E-03  2.820E-03
:PTO007:     -1    1   -1 -1.05215625E-01  5.600E-03  7.149E-03
:PTO008:      0    2   -2 -1.44999836E-02  1.133E-03  1.805E-03
:PTO009:     -1    1   -2 -6.97273879E-02  4.508E-03  6.130E-03
:PTO011:     -1    3    0 -9.59427100E-03  5.921E-04  6.419E-04
:PTO012:     -1    3   -1 -3.91767006E-02  2.321E-03  2.397E-03
:PTO013:      0    4    0 -6.37030845E-03  3.833E-04  4.214E-04
:PTO014:      0    2   -3  1.46357075E-02 -6.554E-04 -2.739E-04

:ENE  : ********** TOTAL ENERGY IN Ry =       -36944.32405880

       TOTAL FORCE IN mRy/a.u. = |F|     Fx             Fy             Fz     with/without FOR in case.in2
:FOR001:   1.ATOM         91.839          0.000          0.000        -91.839 partial forces
       TOTAL FORCE WITH RESPECT TO GLOBAL CARTESIAN COORDINATES:
:FCA001:   1.ATOM                         0.000        -91.839          0.000 partial forces
       TOTAL FORCE WITH RESPECT TO THE GLOBAL COORDINATE SYSTEM:
:FGL001:   1.ATOM                 0.000000000   -91.838993069     0.000000000 partial forces
 Flat Integration
 New Mode for Coulomb Integral
 Consistent 3/8+Simpson combinations
 Extension of core to zero
 LDM version in phi
 Fifth-order quadrature in outwin


            ---------
:ITE006:  6. ITERATION
            ---------

:NATO :    1 INDEPENDENT AND    2 TOTAL ATOMS IN UNITCELL
       SUBSTANCE: aU                                                          

       LATTICE                      = CXY 
:POT  : POTENTIAL OPTION EX_LDA EC_LDA VX_LDA VC_LDA
:LAT  : LATTICE CONSTANTS=  5.37049 10.89808  9.40854    1.571    1.571    1.571
:VOL  : UNIT CELL VOLUME =     275.33200
       MODE OF CALCULATION IS       = RELA
       NON-SPINPOLARIZED CALCULATION
:IFFT  : FFT-parameters:   48   90   72 Factor: 2.00


   CONVERGENCE PARAMETER FOR PSEUDOCHARGE: NCON=  9
   MAXIMAL VALUE OF RMT(JATOM)*ABSK(NKK) : RK  =27.59804


:VKCOUL :  VK-COUL convergence: 0.140E-06
       ATOMNUMBER=  1 Pr1        VCOUL-ZERO =  0.65352E+00
:EFG001:                        EFG         =     3.66922   *10**21  V / m**2
                               V20  TOT/SRF=    -2.41332    -0.07124
                               V22  TOT/SRF=    -2.27588    -0.00588
                               V22M TOT/SRF=     0.00000     0.00000
                               V21  TOT/SRF=     0.00000     0.00000
                               V21M TOT/SRF=     0.00000     0.00000

             -0.88255    0.00000    0.00000       -0.88255    0.00000    0.00000
              0.00000    3.66922    0.00000        0.00000    3.66922    0.00000
              0.00000    0.00000   -2.78666        0.00000    0.00000   -2.78666

         MAIN DIRECTIONS OF THE EFG   1.0000  0.0000  0.0000
                                      0.0000  1.0000  0.0000
                                      0.0000  0.0000  1.0000
:ANG001:  ANGLE WITH OLD X-AXIS =         0.0

:ETA001:                         ASYMM. ETA =     0.51894


     HELLMANN-FEYNMAN-FORCE IN mRy/a.u. = |F|  Fx       Fy             Fz
:FHF001:   1.ATOM    869.110116860619      0.000000000000      0.000000000000   -869.110116860619

:FIT001: LUSE= 13 SIGMA OF V-XC FIT FOR ATOM  1  0.6352867E-04
:FIT001: LUSE= 13 SIGMA OF V-XC FIT FOR ATOM  1  0.6352867E-04
:DEN  : DENSITY INTEGRAL  =        -14217.62759840   (Ry)
       ELS_POTENTIAL_AT Z=0 and Z=0.5:   1.02518   1.02518
       ELS_POTENTIAL_AT Y=0 and Y=0.5:  -0.01545  -0.01545
:VZERO:v0,v0c,v0x   0.27443   1.02518  -0.75075 v5,v5c,v5x   0.27443   1.02518  -0.75075
:VZERY:v0,v0c,v0x  -0.98957  -0.01545  -0.97412 v5,v5c,v5x  -0.98957  -0.01545  -0.97412
:VZERX:v0,v0c,v0x  -1.30846  -0.39792  -0.91054 v5,v5c,v5x  -1.30846  -0.39792  -0.91054
:LMAX-WF:   10   Non-Spherical LMAX:   4

          ATOMIC SPHERE DEPENDENT PARAMETERS FOR ATOM  Pr1       
:e__0001: OVERALL ENERGY PARAMETER IS    1.0009
          OVERALL BASIS SET ON ATOM IS LAPW
:E0_0001: E( 0)=    1.0009
             APW+lo
:E0_0001: E( 0)=   -1.4283   E(BOTTOM)=   -2.071   E(TOP)=   -0.786  4  5   242
             LOCAL ORBITAL
:E1_0001: E( 1)=    1.4009
             APW+lo
:E1_0001: E( 1)=    0.0382   E(BOTTOM)=   -0.929   E(TOP)=    1.005  3  4   242
             LOCAL ORBITAL
:E3_0001: E( 3)=    1.2170   E(BOTTOM)=    1.008   E(TOP)=    1.426  0  1   119
             APW+lo
:E2_0001: E( 2)=    1.0009   E(BOTTOM)=    0.804   E(TOP)= -200.000  2 -1   119
             APW+lo

       K=   0.06250   0.00000   0.06250            1
:RKM  : MATRIX SIZE   279LOs:  40  RKM= 8.50  WEIGHT= 4.00  PGR:    
       EIGENVALUES ARE:
:EIG00001:      -1.4813540   -1.3927773   -0.3087962   -0.0325262    0.0326395
:EIG00006:       0.0571245    0.0826165    0.0855348    1.0343970    1.0555587
:EIG00011:       1.1593078    1.1693716    1.1717501    1.1818699    1.2017625
:EIG00016:       1.2294861    1.2402333    1.2437631    1.2503562    1.2557740
:EIG00021:       1.2652275    1.2668614    1.2705657    1.2955648    1.3095110
:EIG00026:       1.3423004    1.4303130    1.4356711    1.5160429    1.5601662
:EIG00031:       1.6213614    1.8035671    1.8445313    1.9070894    2.2005171
:EIG00036:       2.2479352    2.2863131    2.5374159    2.5438021    2.6742396
       ********************************************************

:KPT   :      NUMBER OF K-POINTS:   288
:GAP (global)   :    0.0    Ry =     0.0   eV (metal)
         Bandranges (emin - emax) and occupancy:
:BAN00005:   5   -0.207177    0.032639  2.00000000
:BAN00006:   6   -0.175002    0.073050  2.00000000
:BAN00007:   7   -0.115530    0.083848  2.00000000
:BAN00008:   8    0.003690    0.100706  2.00000000
:BAN00009:   9    0.937498    1.123715  2.00000000
:BAN00010:  10    0.989042    1.143578  2.00000000
:BAN00011:  11    1.037730    1.195556  2.00000000
:BAN00012:  12    1.104423    1.201489  1.96952400
:BAN00013:  13    1.145685    1.224288  1.28658210
:BAN00014:  14    1.170734    1.238179  0.72893121
:BAN00015:  15    1.188497    1.241650  0.01496270
:BAN00016:  16    1.203241    1.246214  0.00000000
:BAN00017:  17    1.227750    1.256914  0.00000000
:BAN00018:  18    1.235613    1.259249  0.00000000
:BAN00019:  19    1.245814    1.268151  0.00000000
:BAN00020:  20    1.249400    1.270981  0.00000000
        Energy to separate low and high energystates:    0.88750


:NOE  : NUMBER OF ELECTRONS          =   26.000

:FER  : F E R M I - ENERGY(TETRAH.M.)=   1.1958901401
:GMA  : POTENTIAL AND CHARGE CUT-OFF  12.00 Ry**.5

:POS001: ATOM   -1 X,Y,Z = 0.00000 0.89750 0.25000  MULT= 2  ZZ= 59.000  Pr1       

       LMMAX 16
       LM=   0 0  1 0  2 0  2 2  3 0  3 2  4 0  4 2  4 4  5 0  5 2  5 4  6 0  6 2  6 4  6 6

:CHA001: TOTAL VALENCE CHARGE INSIDE SPHERE   1 =   9.7941    (RMT=  2.3000 )
:PCS001: PARTIAL CHARGES SPHERE =  1 S,P,D,F,PX,PY,PZ,D-Z2,D-X2Y2,D-XY,D-XZ,D-YZ 
:QTL001: 1.9320 4.9621 0.9252 1.9710 1.6543 1.6487 1.6591 0.1819 0.1673 0.1869 0.1924 0.1967
        Q-s-low E-s-low   Q-p-low E-p-low   Q-d-low E-d-low   Q-f-low E-f-low
:EPL001:  1.8686 -1.3843    4.8664 -0.0852    0.0263 -0.1358    0.0085 -0.1392
        Q-s-hi  E-s-hi    Q-p-hi  E-p-hi    Q-d-hi  E-d-hi    Q-f-hi  E-f-hi 
:EPH001:  0.0633  1.1012    0.0957  1.1166    0.8989  1.0901    1.9625  1.1555

                      VXX         VYY         VZZ       UP TO R
:VZZ001:            -0.52190     8.85751    -8.33561       2.300

:CHA  : TOTAL VALENCE CHARGE INSIDE UNIT CELL =      26.000000

:SUM  : SUM OF EIGENVALUES =           4.500414944


        1.ATOM      Pr1                  14 CORE STATES
       CORE-FORCE in mRy/a.u. = |F|      Fx             Fy             Fz
:FCO001:   1.ATOM    859.877956765356      0.000000000000      0.000000000000    859.877956765356

:1S 001: 1S               -3066.381038968 Ry
:2S 001: 2S                -492.140361379 Ry
:2PP001: 2P*               -465.238390451 Ry
:2P 001: 2P                -429.841358603 Ry
:3S 001: 3S                -105.237666484 Ry
:3PP001: 3P*                -93.775248287 Ry
:3P 001: 3P                 -86.767470463 Ry
:3DD001: 3D*                -66.693934496 Ry
:3D 001: 3D                 -65.182442897 Ry
:4S 001: 4S                 -19.899196764 Ry
:4PP001: 4P*                -15.604765472 Ry
:4P 001: 4P                 -14.075537469 Ry
:4DD001: 4D*                 -7.005538565 Ry
:4D 001: 4D                  -6.735564685 Ry
:CINT001 Core Integral Atom   1   45.998476

       DENSITY AT NUCLEUS
        JATOM        VALENCE       SEMI-CORE          CORE           TOTAL
:RTO001:   1      641.300791        0.000000   656826.492049   657467.792841
     
       CHARGES OF NEW CHARGE DENSITY
:NTO   : INTERSTITIAL CHARGE =     6.411857
:NPC   : PW Pseudocharge     =    17.725382
:NTO001: CHARGE SPHERE  1    =    55.792545

:NEC01: NUCLEAR AND ELECTRONIC CHARGE    118.00000   117.99695
     
       CHARGES OF OLD CHARGE DENSITY
:OTO   : INTERSTITIAL CHARGE =     6.272248
:OPC   : PW Pseudocharge     =    17.704525
:OTO001: CHARGE SPHERE  1    =    55.863876

:NEC02: NUCLEAR AND ELECTRONIC CHARGE    118.00000   118.00000
     
       CONVERGENCE TEST
:DTO001: DIFFERENCE IN SPHERE  1 =  0.1463827

:DIS  :  CHARGE DISTANCE       ( 0.1463827 for atom    1 spin 1)      0.1463827
 PW Mixed is          294
 
******************************************************
* MULTISECANT MIXING VER9 RELEASE 10.4.0              *
* Standard Mode with controls                        *
* Fixed density scale                                *
* Regularization       1.000E-04                     *
* Trust Upper Limit    5.000E+00                     *
* Max Number of Memory Steps    8                    *
******************************************************
 
:PWTMP   1.7340E+02  1.9467E+02  2.7533E+02
:PLANE:  PW TOTAL      5.9531 DISTAN   6.19E-02  1.04E+00 %
:CHARG:  CLM/ATOM   1381.9962 DISTAN   2.79E-01  2.02E-02 %
 
Step History
        DMIX         DMIXT        Red     Pred      Trust     Lambda    MagRel    MagAbs     Beta
  1   3.5000E-02   3.5000E-02 -1.00E+00  1.00E+00 -1.00E+01  1.00E+00  3.50E-02  3.50E-02  1.00E+00
  2   2.5000E-02   2.5000E-02  8.48E-01  1.00E+00 -1.00E+01  1.00E+00  2.50E-02  3.74E-02  1.00E+00
  3   5.2998E-02   5.2998E-02  6.33E-01  1.00E+00 -1.00E+01  2.90E+00  5.30E-02  6.73E-02  1.00E+00
  4   7.9949E-02   7.9949E-02  6.25E-01  7.53E-01  3.75E-01  3.00E+00  1.58E-01  1.27E-01  1.00E+00
  5   1.3888E-01   1.3888E-01 -1.00E+00  5.99E-01  5.60E-01  1.00E+00  5.54E-01  2.78E-01  8.00E-01
:JACOBIANS    5.186E-01   4.602E-01
  
:NORMS:  1/Froebius, Min, Max, Used   0.5048E+00  0.4079E+00  0.8772E+00  0.5555E+00
:INFO :  Number of Memory Steps    4 Skipping    0
:INFO :  SLambda=    2.1226827348  Max    2.1226827348
:PREDicted Charge, CTotal, PW Trust    2.777E-02   5.554E-02   3.807E-01
:PREDicted DMix, Beta, BLim   3.6858E-01  1.3938E+00  2.4291E+00

Eigenvalues, unscaled except for SY+YY
   #     SY Real        SY Imag          SS             YY         SY+YY Real      SY+YY Imag
   1   9.507936E-01   0.000000E+00   8.864749E-01   2.873246E+00   4.033124E+00   0.000000E+00
   2   4.410283E-01   0.000000E+00   1.327686E-01   1.125932E+00   2.920274E+00   0.000000E+00
   3  -8.634016E-16   0.000000E+00   7.863419E-05   7.747193E-04   5.589616E-05   0.000000E+00
   4   2.747242E-04   0.000000E+00  -4.824700E-18   4.679409E-05   1.525027E-03   0.000000E+00
 
:INFO :  Singular value  4.091E+00 Weight  1.000E+00 Projection -1.646E-01
:INFO :  Singular value  2.879E+00 Weight  1.000E+00 Projection -1.605E-02
:INFO :  Singular value  1.525E-03 Weight  9.657E-01 Projection  5.611E+00
:INFO :  Singular value  5.589E-05 Weight  3.646E-02 Projection -2.863E-02
:RANK :  ACTIVE   3.00/4  =  75.05 % ; YY RANK   2.90/4  =  72.62 %
 
:BLIM :  VZERO Control Off
:TRUST:  Step 1.45E+00  Charge 7.50E-02 (e) CTO  2.00E-01 (e) PW  5.87E-01 (e)
:DIRM :  MEMORY  4/8  SCALE   1.000 RED  0.57 PRED  0.60 NEXT  0.40 
:TRAVE:  Charge 1.76E-02 (e) CTO  3.51E-02 (e) PW  1.49E-01 (e)
:DIRP :  |MSR1|= 4.717E-02 |PRATT|= 6.187E-02 ANGLE=  35.6 DEGREES
:DIRQ :  |MSR1|= 1.782E-01 |PRATT|= 2.790E-01 ANGLE=  25.5 DEGREES
:DIRT :  |MSR1|= 1.844E-01 |PRATT|= 2.857E-01 ANGLE=  26.3 DEGREES
:MIX  :   MSE1   REGULARIZATION:  2.87E-04 GREED: 0.23419  Newton 1.00  0.6452                
     
       CHARGES OF MIXED CHARGE DENSITY
:CTO   : INTERSTITIAL CHARGE =     6.315183
:CPC   : PW Pseudocharge     =    17.649026
:CTO001: CHARGE SPHERE  1    =    55.842409

:NEC03: NUCLEAR AND ELECTRONIC CHARGE    118.00000   118.00000

PW CHANGE     H    K    L      Current       Change    Residue
:PTO001:      0    0    0  8.70375010E-02 -4.563E-05  6.245E-04
:PTO003:      0    2    0  1.95602652E-02  7.722E-05  1.091E-04
:PTO004:     -1    1    0  8.98145770E-02  7.664E-05  4.293E-04
:PTO005:      0    2   -1 -1.01844422E-01  7.143E-04  4.884E-04
:PTO006:      0    0   -2 -5.27853596E-02  3.335E-04  1.902E-04
:PTO007:     -1    1   -1 -1.04119990E-01  1.096E-03  1.017E-03
:PTO008:      0    2   -2 -1.38817116E-02  6.183E-04  7.456E-04
:PTO009:     -1    1   -2 -6.84781271E-02  1.249E-03  1.315E-03
:PTO011:     -1    3    0 -9.62521677E-03 -3.095E-05 -1.284E-04
:PTO012:     -1    3   -1 -3.88833994E-02  2.933E-04  2.074E-04
:PTO013:      0    4    0 -6.31007929E-03  6.023E-05  3.093E-05
:PTO014:      0    2   -3  1.48368016E-02  2.011E-04  3.945E-04

:ENE  : ********** TOTAL ENERGY IN Ry =       -36944.32066243

       TOTAL FORCE IN mRy/a.u. = |F|     Fx             Fy             Fz     with/without FOR in case.in2
:FOR001:   1.ATOM          9.232          0.000          0.000         -9.232 partial forces
       TOTAL FORCE WITH RESPECT TO GLOBAL CARTESIAN COORDINATES:
:FCA001:   1.ATOM                         0.000         -9.232          0.000 partial forces
       TOTAL FORCE WITH RESPECT TO THE GLOBAL COORDINATE SYSTEM:
:FGL001:   1.ATOM                 0.000000000    -9.232160095     0.000000000 partial forces
 Flat Integration
 New Mode for Coulomb Integral
 Consistent 3/8+Simpson combinations
 Extension of core to zero
 LDM version in phi
 Fifth-order quadrature in outwin


            ---------
:ITE007:  7. ITERATION
            ---------

:NATO :    1 INDEPENDENT AND    2 TOTAL ATOMS IN UNITCELL
       SUBSTANCE: aU                                                          

       LATTICE                      = CXY 
:POT  : POTENTIAL OPTION EX_LDA EC_LDA VX_LDA VC_LDA
:LAT  : LATTICE CONSTANTS=  5.37049 10.89808  9.40854    1.571    1.571    1.571
:VOL  : UNIT CELL VOLUME =     275.33200
       MODE OF CALCULATION IS       = RELA
       NON-SPINPOLARIZED CALCULATION
:IFFT  : FFT-parameters:   48   90   72 Factor: 2.00


   CONVERGENCE PARAMETER FOR PSEUDOCHARGE: NCON=  9
   MAXIMAL VALUE OF RMT(JATOM)*ABSK(NKK) : RK  =27.59804


:VKCOUL :  VK-COUL convergence: 0.152E-06
       ATOMNUMBER=  1 Pr1        VCOUL-ZERO =  0.65596E+00
:EFG001:                        EFG         =     7.38907   *10**21  V / m**2
                               V20  TOT/SRF=    -5.42597    -0.06954
                               V22  TOT/SRF=    -4.25638    -0.01788
                               V22M TOT/SRF=     0.00000     0.00000
                               V21  TOT/SRF=     0.00000     0.00000
                               V21M TOT/SRF=     0.00000     0.00000

             -1.12370    0.00000    0.00000       -1.12370    0.00000    0.00000
              0.00000    7.38907    0.00000        0.00000    7.38907    0.00000
              0.00000    0.00000   -6.26537        0.00000    0.00000   -6.26537

         MAIN DIRECTIONS OF THE EFG   1.0000  0.0000  0.0000
                                      0.0000  1.0000  0.0000
                                      0.0000  0.0000  1.0000
:ANG001:  ANGLE WITH OLD X-AXIS =         0.0

:ETA001:                         ASYMM. ETA =     0.69585


     HELLMANN-FEYNMAN-FORCE IN mRy/a.u. = |F|  Fx       Fy             Fz
:FHF001:   1.ATOM   1274.997679554517      0.000000000000      0.000000000000  -1274.997679554517

:FIT001: LUSE= 13 SIGMA OF V-XC FIT FOR ATOM  1  0.9387580E-04
:FIT001: LUSE= 13 SIGMA OF V-XC FIT FOR ATOM  1  0.9387580E-04
:DEN  : DENSITY INTEGRAL  =        -14213.70541250   (Ry)
       ELS_POTENTIAL_AT Z=0 and Z=0.5:   1.02905   1.02905
       ELS_POTENTIAL_AT Y=0 and Y=0.5:  -0.01079  -0.01079
:VZERO:v0,v0c,v0x   0.27739   1.02905  -0.75166 v5,v5c,v5x   0.27739   1.02905  -0.75166
:VZERY:v0,v0c,v0x  -0.98602  -0.01079  -0.97522 v5,v5c,v5x  -0.98602  -0.01079  -0.97522
:VZERX:v0,v0c,v0x  -1.30830  -0.39709  -0.91120 v5,v5c,v5x  -1.30830  -0.39709  -0.91120
:LMAX-WF:   10   Non-Spherical LMAX:   4

          ATOMIC SPHERE DEPENDENT PARAMETERS FOR ATOM  Pr1       
:e__0001: OVERALL ENERGY PARAMETER IS    0.9976
          OVERALL BASIS SET ON ATOM IS LAPW
:E0_0001: E( 0)=    0.9976
             APW+lo
:E0_0001: E( 0)=   -1.4475   E(BOTTOM)=   -2.086   E(TOP)=   -0.809  4  5   232
             LOCAL ORBITAL
:E1_0001: E( 1)=    1.3976
             APW+lo
:E1_0001: E( 1)=    0.0213   E(BOTTOM)=   -0.941   E(TOP)=    0.984  3  4   242
             LOCAL ORBITAL
:E3_0001: E( 3)=    1.1866   E(BOTTOM)=    0.981   E(TOP)=    1.392  0  1   120
             APW+lo
:E2_0001: E( 2)=    0.9976   E(BOTTOM)=    0.794   E(TOP)= -200.000  2 -1   123
             APW+lo

       K=   0.06250   0.00000   0.06250            1
:RKM  : MATRIX SIZE   279LOs:  40  RKM= 8.50  WEIGHT= 4.00  PGR:    
       EIGENVALUES ARE:
:EIG00001:      -1.4978812   -1.4111473   -0.3167843   -0.0478091    0.0164344
:EIG00006:       0.0417529    0.0686736    0.0694680    1.0302743    1.0510544
:EIG00011:       1.1392590    1.1437674    1.1476001    1.1602548    1.1793498
:EIG00016:       1.2015869    1.2111681    1.2148160    1.2223097    1.2258915
:EIG00021:       1.2377778    1.2388421    1.2417228    1.2648391    1.2869806
:EIG00026:       1.3272481    1.4224849    1.4256298    1.5072010    1.5509250
:EIG00031:       1.6127109    1.7941440    1.8371748    1.8982745    2.1934926
:EIG00036:       2.2410573    2.2797069    2.5322150    2.5389822    2.6695209
       ********************************************************

:KPT   :      NUMBER OF K-POINTS:   288
:GAP (global)   :    0.0    Ry =     0.0   eV (metal)
         Bandranges (emin - emax) and occupancy:
:BAN00005:   5   -0.218001    0.016434  2.00000000
:BAN00006:   6   -0.187203    0.057451  2.00000000
:BAN00007:   7   -0.129391    0.068674  2.00000000
:BAN00008:   8   -0.009357    0.084413  2.00000000
:BAN00009:   9    0.934552    1.110937  2.00000000
:BAN00010:  10    0.985227    1.130538  2.00000000
:BAN00011:  11    1.032430    1.171306  1.99999903
:BAN00012:  12    1.094417    1.178275  1.95142174
:BAN00013:  13    1.131109    1.196311  1.25263782
:BAN00014:  14    1.148801    1.208686  0.76339650
:BAN00015:  15    1.164381    1.213460  0.03254491
:BAN00016:  16    1.176815    1.217366  0.00000000
:BAN00017:  17    1.199562    1.227194  0.00000000
:BAN00018:  18    1.207398    1.229960  0.00000000
:BAN00019:  19    1.215684    1.238561  0.00000000
:BAN00020:  20    1.217459    1.240896  0.00000000
        Energy to separate low and high energystates:    0.88455


:NOE  : NUMBER OF ELECTRONS          =   26.000

:FER  : F E R M I - ENERGY(TETRAH.M.)=   1.1712027562
:GMA  : POTENTIAL AND CHARGE CUT-OFF  12.00 Ry**.5

:POS001: ATOM   -1 X,Y,Z = 0.00000 0.89750 0.25000  MULT= 2  ZZ= 59.000  Pr1       

       LMMAX 16
       LM=   0 0  1 0  2 0  2 2  3 0  3 2  4 0  4 2  4 4  5 0  5 2  5 4  6 0  6 2  6 4  6 6

:CHA001: TOTAL VALENCE CHARGE INSIDE SPHERE   1 =   9.9379    (RMT=  2.3000 )
:PCS001: PARTIAL CHARGES SPHERE =  1 S,P,D,F,PX,PY,PZ,D-Z2,D-X2Y2,D-XY,D-XZ,D-YZ 
:QTL001: 1.9278 4.9642 0.8559 2.1865 1.6554 1.6496 1.6591 0.1674 0.1500 0.1773 0.1765 0.1846
        Q-s-low E-s-low   Q-p-low E-p-low   Q-d-low E-d-low   Q-f-low E-f-low
:EPL001:  1.8703 -1.4028    4.8814 -0.0984    0.0256 -0.1467    0.0084 -0.1500
        Q-s-hi  E-s-hi    Q-p-hi  E-p-hi    Q-d-hi  E-d-hi    Q-f-hi  E-f-hi 
:EPH001:  0.0574  1.0883    0.0827  1.1009    0.8303  1.0765    2.1781  1.1350

                      VXX         VYY         VZZ       UP TO R
:VZZ001:             0.51586     8.80423    -9.32009       2.300

:CHA  : TOTAL VALENCE CHARGE INSIDE UNIT CELL =      26.000000

:SUM  : SUM OF EIGENVALUES =           4.132616351


        1.ATOM      Pr1                  14 CORE STATES
       CORE-FORCE in mRy/a.u. = |F|      Fx             Fy             Fz
:FCO001:   1.ATOM   1323.339116231569      0.000000000000      0.000000000000   1323.339116231569

:1S 001: 1S               -3066.422235575 Ry
:2S 001: 2S                -492.177223974 Ry
:2PP001: 2P*               -465.275405779 Ry
:2P 001: 2P                -429.878253012 Ry
:3S 001: 3S                -105.277720665 Ry
:3PP001: 3P*                -93.815172209 Ry
:3P 001: 3P                 -86.807502231 Ry
:3DD001: 3D*                -66.733237728 Ry
:3D 001: 3D                 -65.221804888 Ry
:4S 001: 4S                 -19.938516785 Ry
:4PP001: 4P*                -15.643795333 Ry
:4P 001: 4P                 -14.114227505 Ry
:4DD001: 4D*                 -7.043103757 Ry
:4D 001: 4D                  -6.772967171 Ry
:CINT001 Core Integral Atom   1   45.998501

       DENSITY AT NUCLEUS
        JATOM        VALENCE       SEMI-CORE          CORE           TOTAL
:RTO001:   1      641.106864        0.000000   656827.357116   657468.463980
     
       CHARGES OF NEW CHARGE DENSITY
:NTO   : INTERSTITIAL CHARGE =     6.124283
:NPC   : PW Pseudocharge     =    17.581053
:NTO001: CHARGE SPHERE  1    =    55.936357

:NEC01: NUCLEAR AND ELECTRONIC CHARGE    118.00000   117.99700
     
       CHARGES OF OLD CHARGE DENSITY
:OTO   : INTERSTITIAL CHARGE =     6.315183
:OPC   : PW Pseudocharge     =    17.649026
:OTO001: CHARGE SPHERE  1    =    55.842409

:NEC02: NUCLEAR AND ELECTRONIC CHARGE    118.00000   118.00000
     
       CONVERGENCE TEST
:DTO001: DIFFERENCE IN SPHERE  1 =  0.1844412

:DIS  :  CHARGE DISTANCE       ( 0.1844412 for atom    1 spin 1)      0.1844412
 PW Mixed is          294
 
******************************************************
* MULTISECANT MIXING VER9 RELEASE 10.4.0              *
* Standard Mode with controls                        *
* Fixed density scale                                *
* Regularization       1.000E-04                     *
* Trust Upper Limit    5.000E+00                     *
* Max Number of Memory Steps    8                    *
******************************************************
 
:PWTMP   1.7340E+02  1.9467E+02  2.7533E+02
:PLANE:  PW TOTAL      5.9323 DISTAN   4.95E-02  8.34E-01 %
:CHARG:  CLM/ATOM   1381.9598 DISTAN   2.77E-01  2.00E-02 %
 
Step History
        DMIX         DMIXT        Red     Pred      Trust     Lambda    MagRel    MagAbs     Beta
  1   3.5000E-02   3.5000E-02 -1.00E+00  1.00E+00 -1.00E+01  1.00E+00  3.50E-02  3.50E-02  1.00E+00
[...]
:OTO   : INTERSTITIAL CHARGE =     6.285416
:OPC   : PW Pseudocharge     =    17.673551
:OTO001: CHARGE SPHERE  1    =    55.857292

:NEC02: NUCLEAR AND ELECTRONIC CHARGE    118.00000   118.00000
     
       CONVERGENCE TEST
:DTO001: DIFFERENCE IN SPHERE  1 =  0.0005481

:DIS  :  CHARGE DISTANCE       ( 0.0005481 for atom    1 spin 1)      0.0005481
 PW Mixed is          294
 
******************************************************
* MULTISECANT MIXING VER9 RELEASE 10.4.0              *
* Standard Mode with controls                        *
* Fixed density scale                                *
* Regularization       1.000E-04                     *
* Trust Upper Limit    5.000E+00                     *
* Max Number of Memory Steps    8                    *
******************************************************
 
:PWTMP   1.7340E+02  1.9467E+02  2.7533E+02
:PLANE:  PW TOTAL      5.9435 DISTAN   2.83E-04  4.75E-03 %
:CHARG:  CLM/ATOM   1381.9447 DISTAN   1.37E-03  9.95E-05 %
 
Step History
        DMIX         DMIXT        Red     Pred      Trust     Lambda    MagRel    MagAbs     Beta
  3   5.2998E-02   5.2998E-02  6.33E-01  1.00E+00 -1.00E+01  2.90E+00  5.30E-02  6.73E-02  1.00E+00
  4   7.9949E-02   7.9949E-02  6.25E-01  7.53E-01  3.75E-01  3.00E+00  1.58E-01  1.27E-01  1.00E+00
  5   1.3888E-01   1.3888E-01  5.69E-01  5.99E-01  5.60E-01  2.12E+00  5.54E-01  2.78E-01  8.00E-01
  6   2.3419E-01   2.3419E-01  9.84E-01  4.05E-01  1.45E+00  2.43E+00  6.45E-01  1.84E-01  1.00E+00
  7   2.1876E-01   2.1876E-01  2.12E-01  2.58E-01  1.87E+00  1.95E+00  2.23E-01  6.28E-02  9.45E-01
  8   1.6539E-01   1.6539E-01  6.50E-01  5.07E-01  2.55E+00  1.90E+00  3.56E-01  2.12E-02  8.75E-01
  9   3.0611E-01   3.0611E-01  7.43E-01  3.80E-01  3.41E+00  2.01E+00  5.89E-01  2.28E-02  1.00E+00
 10   2.6371E-01   2.6371E-01  2.82E-01  1.10E-01  4.54E+00  1.89E+00  2.23E-01  6.42E-03  9.38E-01
 11   2.3112E-01   2.3112E-01 -1.00E+00  1.68E-01  6.06E+00  1.00E+00  2.95E-01  2.40E-03  1.00E+00
:JACOBIANS    1.038E+00   2.376E+00
  
:NORMS:  1/Froebius, Min, Max, Used   0.5623E+00  0.5486E+00  0.9773E+00  0.5704E+00
:INFO :  Number of Memory Steps    8 Skipping    2
:INFO :  SLambda=    1.8228070625  Max    1.8228070625
:PREDicted Charge, CTotal, PW Trust    3.099E-04   6.199E-04   1.064E-03
:PREDicted DMix, Beta, BLim   4.8122E-01  1.3551E+00  3.6792E+00

Eigenvalues, unscaled except for SY+YY
   #     SY Real        SY Imag          SS             YY         SY+YY Real      SY+YY Imag
   1   2.188511E+00   0.000000E+00   1.881914E+00   5.783469E+00   9.311238E+00   0.000000E+00
   2   5.993962E-01   0.000000E+00   3.091339E-01   1.183659E+00   2.696669E+00   0.000000E+00
   3   3.811508E-01   0.000000E+00   2.079971E-01   6.320443E-01   1.313578E+00   0.000000E+00
   4   1.362803E-01   0.000000E+00   1.161824E-01   2.525396E-01   4.493041E-01   0.000000E+00
   5   7.441672E-02   0.000000E+00   1.382516E-02   1.466808E-01   3.881662E-01   0.000000E+00
   6   6.394895E-04   0.000000E+00   4.645335E-04   8.623423E-04   2.078346E-03   0.000000E+00
   7   1.809459E-04   0.000000E+00   4.591492E-05   6.852170E-04   1.043106E-03   0.000000E+00
   8   1.738025E-05   0.000000E+00   4.898028E-06   6.035956E-05   9.188087E-05   0.000000E+00
 
:INFO :  Singular value  9.321E+00 Weight  1.000E+00 Projection -3.190E-04
:INFO :  Singular value  2.706E+00 Weight  1.000E+00 Projection  3.796E-04
:INFO :  Singular value  1.310E+00 Weight  1.000E+00 Projection -1.587E-05
:INFO :  Singular value  4.493E-01 Weight  1.000E+00 Projection -7.630E-04
:INFO :  Singular value  3.875E-01 Weight  1.000E+00 Projection  4.166E-04
:INFO :  Singular value  2.083E-03 Weight  9.284E-01 Projection  3.073E-02
:INFO :  Singular value  1.041E-03 Weight  7.641E-01 Projection -1.442E-03
:INFO :  Singular value  9.184E-05 Weight  2.460E-02 Projection  3.720E-05
:RANK :  ACTIVE   6.72/8  =  83.96 % ; YY RANK   6.28/8  =  78.56 %
 
:BLIM :  VZERO Control Off
:TRUST:  Step 8.07E+00  Charge 2.43E-02 (e) CTO  5.24E-02 (e) PW  1.92E-01 (e)
:DIRM :  MEMORY  8/8  SCALE   1.000 RED  0.17 PRED  0.17 NEXT  0.20 
:TRAVE:  Charge 7.50E-04 (e) CTO  1.50E-03 (e) PW  4.11E-03 (e)
:DIRP :  |MSR1|= 2.383E-04 |PRATT|= 2.826E-04 ANGLE=  18.6 DEGREES
:DIRQ :  |MSR1|= 1.006E-03 |PRATT|= 1.375E-03 ANGLE=  20.9 DEGREES
:DIRT :  |MSR1|= 1.034E-03 |PRATT|= 1.404E-03 ANGLE=  20.8 DEGREES
:MIX  :   MSE1   REGULARIZATION:  5.78E-04 GREED: 0.35000  Newton 1.00  0.7367                
     
       CHARGES OF MIXED CHARGE DENSITY
:CTO   : INTERSTITIAL CHARGE =     6.285356
:CPC   : PW Pseudocharge     =    17.673733
:CTO001: CHARGE SPHERE  1    =    55.857322

:NEC03: NUCLEAR AND ELECTRONIC CHARGE    118.00000   118.00000

PW CHANGE     H    K    L      Current       Change    Residue
:PTO001:      0    0    0  8.70189037E-02  4.421E-07 -1.359E-06
:PTO003:      0    2    0  1.94450751E-02  8.143E-07  9.557E-07
:PTO004:     -1    1    0  8.99758993E-02  4.131E-07  4.996E-07
:PTO005:      0    2   -1 -1.02282425E-01 -5.944E-06 -6.624E-06
:PTO006:      0    0   -2 -5.30364040E-02  1.316E-06  1.791E-06
:PTO007:     -1    1   -1 -1.04646681E-01  2.765E-07  8.923E-07
:PTO008:      0    2   -2 -1.38471420E-02  3.816E-07  1.017E-06
:PTO009:     -1    1   -2 -6.87531733E-02  1.938E-06  2.800E-06
:PTO011:     -1    3    0 -9.84227318E-03  1.411E-08  2.505E-07
:PTO012:     -1    3   -1 -3.90344581E-02  2.127E-06  2.801E-06
:PTO013:      0    4    0 -6.36028168E-03 -1.673E-06 -1.894E-06
:PTO014:      0    2   -3  1.49486768E-02 -2.295E-06 -2.724E-06

:ENE  : ********** TOTAL ENERGY IN Ry =       -36944.31829370

       TOTAL FORCE IN mRy/a.u. = |F|     Fx             Fy             Fz     with/without FOR in case.in2
:FOR001:   1.ATOM         10.445          0.000          0.000         10.445 partial forces
       TOTAL FORCE WITH RESPECT TO GLOBAL CARTESIAN COORDINATES:
:FCA001:   1.ATOM                         0.000         10.445          0.000 partial forces
       TOTAL FORCE WITH RESPECT TO THE GLOBAL COORDINATE SYSTEM:
:FGL001:   1.ATOM                 0.000000000    10.445280090     0.000000000 partial forces
 Flat Integration
 New Mode for Coulomb Integral
 Consistent 3/8+Simpson combinations
 Extension of core to zero
 LDM version in phi
 Fifth-order quadrature in outwin


            ---------
:ITE013: 13. ITERATION
            ---------

:NATO :    1 INDEPENDENT AND    2 TOTAL ATOMS IN UNITCELL
       SUBSTANCE: aU                                                          

       LATTICE                      = CXY 
:POT  : POTENTIAL OPTION EX_LDA EC_LDA VX_LDA VC_LDA
:LAT  : LATTICE CONSTANTS=  5.37049 10.89808  9.40854    1.571    1.571    1.571
:VOL  : UNIT CELL VOLUME =     275.33200
       MODE OF CALCULATION IS       = RELA
       NON-SPINPOLARIZED CALCULATION
:IFFT  : FFT-parameters:   48   90   72 Factor: 2.00


   CONVERGENCE PARAMETER FOR PSEUDOCHARGE: NCON=  9
   MAXIMAL VALUE OF RMT(JATOM)*ABSK(NKK) : RK  =27.59804


:VKCOUL :  VK-COUL convergence: 0.166E-06
       ATOMNUMBER=  1 Pr1        VCOUL-ZERO =  0.65508E+00
:EFG001:                        EFG         =     9.20627   *10**21  V / m**2
                               V20  TOT/SRF=    -7.39292    -0.07173
                               V22  TOT/SRF=    -4.93796    -0.01318
                               V22M TOT/SRF=     0.00000     0.00000
                               V21  TOT/SRF=     0.00000     0.00000
                               V21M TOT/SRF=     0.00000     0.00000

             -0.66966    0.00000    0.00000       -0.66966    0.00000    0.00000
              0.00000    9.20627    0.00000        0.00000    9.20627    0.00000
              0.00000    0.00000   -8.53661        0.00000    0.00000   -8.53661

         MAIN DIRECTIONS OF THE EFG   1.0000  0.0000  0.0000
                                      0.0000  1.0000  0.0000
                                      0.0000  0.0000  1.0000
:ANG001:  ANGLE WITH OLD X-AXIS =         0.0

:ETA001:                         ASYMM. ETA =     0.85452


     HELLMANN-FEYNMAN-FORCE IN mRy/a.u. = |F|  Fx       Fy             Fz
:FHF001:   1.ATOM   1584.839648953445      0.000000000000      0.000000000000  -1584.839648953445

:FIT001: LUSE= 13 SIGMA OF V-XC FIT FOR ATOM  1  0.9386383E-04
:FIT001: LUSE= 13 SIGMA OF V-XC FIT FOR ATOM  1  0.9386383E-04
:DEN  : DENSITY INTEGRAL  =        -14216.11536587   (Ry)
       ELS_POTENTIAL_AT Z=0 and Z=0.5:   1.02476   1.02476
       ELS_POTENTIAL_AT Y=0 and Y=0.5:  -0.01238  -0.01238
:VZERO:v0,v0c,v0x   0.27491   1.02476  -0.74985 v5,v5c,v5x   0.27491   1.02476  -0.74985
:VZERY:v0,v0c,v0x  -0.98668  -0.01238  -0.97430 v5,v5c,v5x  -0.98668  -0.01238  -0.97430
:VZERX:v0,v0c,v0x  -1.30715  -0.39659  -0.91056 v5,v5c,v5x  -1.30715  -0.39659  -0.91056
:LMAX-WF:   10   Non-Spherical LMAX:   4

          ATOMIC SPHERE DEPENDENT PARAMETERS FOR ATOM  Pr1       
:e__0001: OVERALL ENERGY PARAMETER IS    0.9832
          OVERALL BASIS SET ON ATOM IS LAPW
:E0_0001: E( 0)=    0.9832
             APW+lo
:E0_0001: E( 0)=   -1.4401   E(BOTTOM)=   -2.081   E(TOP)=   -0.800  4  5   234
             LOCAL ORBITAL
:E1_0001: E( 1)=    1.3832
             APW+lo
:E1_0001: E( 1)=    0.0277   E(BOTTOM)=   -0.937   E(TOP)=    0.993  3  4   238
             LOCAL ORBITAL
:E3_0001: E( 3)=    1.2016   E(BOTTOM)=    0.994   E(TOP)=    1.409  0  1   120
             APW+lo
:E2_0001: E( 2)=    0.9832   E(BOTTOM)=    0.797   E(TOP)= -200.000  2 -1   123
             APW+lo

       K=   0.06250   0.00000   0.06250            1
:RKM  : MATRIX SIZE   279LOs:  40  RKM= 8.50  WEIGHT= 4.00  PGR:    
       EIGENVALUES ARE:
:EIG00001:      -1.4916298   -1.4040971   -0.3145427   -0.0416946    0.0228028
:EIG00006:       0.0473642    0.0731493    0.0754417    1.0315455    1.0521455
:EIG00011:       1.1496037    1.1565977    1.1595521    1.1706852    1.1906485
:EIG00016:       1.2149474    1.2252149    1.2287665    1.2357259    1.2405222
:EIG00021:       1.2521347    1.2532885    1.2541991    1.2802796    1.2977100
:EIG00026:       1.3340955    1.4252464    1.4295415    1.5104019    1.5544162
:EIG00031:       1.6151150    1.7970406    1.8389971    1.9013323    2.1964552
:EIG00036:       2.2436921    2.2818498    2.5339663    2.5402727    2.6711023
       ********************************************************

:KPT   :      NUMBER OF K-POINTS:   288
:GAP (global)   :    0.0    Ry =     0.0   eV (metal)
         Bandranges (emin - emax) and occupancy:
:BAN00005:   5   -0.214928    0.022803  2.00000000
:BAN00006:   6   -0.182708    0.063161  2.00000000
:BAN00007:   7   -0.124296    0.073824  2.00000000
:BAN00008:   8   -0.005342    0.090477  2.00000000
:BAN00009:   9    0.934359    1.117030  2.00000000
:BAN00010:  10    0.986009    1.135802  2.00000000
:BAN00011:  11    1.033852    1.183401  1.99999916
:BAN00012:  12    1.098802    1.189725  1.96038453
:BAN00013:  13    1.138168    1.210217  1.26609938
:BAN00014:  14    1.159844    1.222120  0.75079972
:BAN00015:  15    1.175803    1.227177  0.02271720
:BAN00016:  16    1.189457    1.231844  0.00000000
:BAN00017:  17    1.213022    1.241850  0.00000000
:BAN00018:  18    1.221298    1.243939  0.00000000
:BAN00019:  19    1.230645    1.253299  0.00000000
:BAN00020:  20    1.233588    1.255210  0.00000000
        Energy to separate low and high energystates:    0.88436


:NOE  : NUMBER OF ELECTRONS          =   26.000

:FER  : F E R M I - ENERGY(TETRAH.M.)=   1.1832920352
:GMA  : POTENTIAL AND CHARGE CUT-OFF  12.00 Ry**.5

:POS001: ATOM   -1 X,Y,Z = 0.00000 0.89750 0.25000  MULT= 2  ZZ= 59.000  Pr1       

       LMMAX 16
       LM=   0 0  1 0  2 0  2 2  3 0  3 2  4 0  4 2  4 4  5 0  5 2  5 4  6 0  6 2  6 4  6 6

:CHA001: TOTAL VALENCE CHARGE INSIDE SPHERE   1 =   9.8588    (RMT=  2.3000 )
:PCS001: PARTIAL CHARGES SPHERE =  1 S,P,D,F,PX,PY,PZ,D-Z2,D-X2Y2,D-XY,D-XZ,D-YZ 
:QTL001: 1.9303 4.9646 0.8946 2.0657 1.6555 1.6496 1.6596 0.1754 0.1590 0.1834 0.1853 0.1916
        Q-s-low E-s-low   Q-p-low E-p-low   Q-d-low E-d-low   Q-f-low E-f-low
:EPL001:  1.8696 -1.3957    4.8748 -0.0937    0.0259 -0.1427    0.0084 -0.1457
        Q-s-hi  E-s-hi    Q-p-hi  E-p-hi    Q-d-hi  E-d-hi    Q-f-hi  E-f-hi 
:EPH001:  0.0608  1.0942    0.0899  1.1081    0.8687  1.0826    2.0572  1.1449

                      VXX         VYY         VZZ       UP TO R
:VZZ001:            -0.71830     9.14905    -8.43075       2.300

:CHA  : TOTAL VALENCE CHARGE INSIDE UNIT CELL =      26.000000

:SUM  : SUM OF EIGENVALUES =           4.279581411


        1.ATOM      Pr1                  14 CORE STATES
       CORE-FORCE in mRy/a.u. = |F|      Fx             Fy             Fz
:FCO001:   1.ATOM   1595.255699145568      0.000000000000      0.000000000000   1595.255699145568

:1S 001: 1S               -3066.398285029 Ry
:2S 001: 2S                -492.150773266 Ry
:2PP001: 2P*               -465.249315391 Ry
:2P 001: 2P                -429.852011316 Ry
:3S 001: 3S                -105.249922184 Ry
:3PP001: 3P*                -93.787422308 Ry
:3P 001: 3P                 -86.779764206 Ry
:3DD001: 3D*                -66.705500015 Ry
:3D 001: 3D                 -65.194060482 Ry
:4S 001: 4S                 -19.916065044 Ry
:4PP001: 4P*                -15.621776761 Ry
:4P 001: 4P                 -14.092855014 Ry
:4DD001: 4D*                 -7.022875171 Ry
:4D 001: 4D                  -6.752958128 Ry
:CINT001 Core Integral Atom   1   45.998485

       DENSITY AT NUCLEUS
        JATOM        VALENCE       SEMI-CORE          CORE           TOTAL
:RTO001:   1      641.545583        0.000000   656826.624224   657468.169806
     
       CHARGES OF NEW CHARGE DENSITY
:NTO   : INTERSTITIAL CHARGE =     6.282354
:NPC   : PW Pseudocharge     =    17.665208
:NTO001: CHARGE SPHERE  1    =    55.857305

:NEC01: NUCLEAR AND ELECTRONIC CHARGE    118.00000   117.99696
     
       CHARGES OF OLD CHARGE DENSITY
:OTO   : INTERSTITIAL CHARGE =     6.285356
:OPC   : PW Pseudocharge     =    17.673733
:OTO001: CHARGE SPHERE  1    =    55.857322

:NEC02: NUCLEAR AND ELECTRONIC CHARGE    118.00000   118.00000
     
       CONVERGENCE TEST
:DTO001: DIFFERENCE IN SPHERE  1 =  0.0000498

:DIS  :  CHARGE DISTANCE       ( 0.0000498 for atom    1 spin 1)      0.0000498
 PW Mixed is          294
 
******************************************************
* MULTISECANT MIXING VER9 RELEASE 10.4.0              *
* Standard Mode with controls                        *
* Fixed density scale                                *
* Regularization       1.000E-04                     *
* Trust Upper Limit    5.000E+00                     *
* Max Number of Memory Steps    8                    *
******************************************************
 
:PWTMP   1.7340E+02  1.9467E+02  2.7533E+02
:PLANE:  PW TOTAL      5.9436 DISTAN   4.64E-05  7.80E-04 %
:CHARG:  CLM/ATOM   1381.9449 DISTAN   1.90E-04  1.37E-05 %
 
Step History
        DMIX         DMIXT        Red     Pred      Trust     Lambda    MagRel    MagAbs     Beta
  4   7.9949E-02   7.9949E-02  6.25E-01  7.53E-01  3.75E-01  3.00E+00  1.58E-01  1.27E-01  1.00E+00
  5   1.3888E-01   1.3888E-01  5.69E-01  5.99E-01  5.60E-01  2.12E+00  5.54E-01  2.78E-01  8.00E-01
  6   2.3419E-01   2.3419E-01  9.84E-01  4.05E-01  1.45E+00  2.43E+00  6.45E-01  1.84E-01  1.00E+00
  7   2.1876E-01   2.1876E-01  2.12E-01  2.58E-01  1.87E+00  1.95E+00  2.23E-01  6.28E-02  9.45E-01
  8   1.6539E-01   1.6539E-01  6.50E-01  5.07E-01  2.55E+00  1.90E+00  3.56E-01  2.12E-02  8.75E-01
  9   3.0611E-01   3.0611E-01  7.43E-01  3.80E-01  3.41E+00  2.01E+00  5.89E-01  2.28E-02  1.00E+00
 10   2.6371E-01   2.6371E-01  2.82E-01  1.10E-01  4.54E+00  1.89E+00  2.23E-01  6.42E-03  9.38E-01
 11   2.3112E-01   2.3112E-01  1.73E-01  1.68E-01  6.06E+00  1.82E+00  2.95E-01  2.40E-03  1.00E+00
 12   3.5000E-01   3.5000E-01 -1.00E+00  2.00E-01  8.07E+00  1.00E+00  7.37E-01  1.03E-03  1.00E+00
:JACOBIANS    1.056E+00   2.637E+00
  
:NORMS:  1/Froebius, Min, Max, Used   0.5935E+00  0.5545E+00  0.1001E+01  0.5961E+00
:INFO :  Number of Memory Steps    8 Skipping    3
:INFO :  SLambda=    1.8033759875  Max    1.8033759875
:PREDicted Charge, CTotal, PW Trust    2.749E-05   5.497E-05   7.661E-05
:PREDicted DMix, Beta, BLim   1.2096E-01  1.0142E+00  1.8237E+00

Eigenvalues, unscaled except for SY+YY
   #     SY Real        SY Imag          SS             YY         SY+YY Real      SY+YY Imag
   1   2.058402E+00   0.000000E+00   1.675240E+00   5.448158E+00   8.828989E+00   0.000000E+00
   2   9.102054E-01   0.000000E+00   6.318016E-01   1.228345E+00   3.053093E+00   0.000000E+00
   3   3.973441E-01   0.000000E+00   2.964190E-01   5.610282E-01   1.246851E+00   0.000000E+00
   4   2.125250E-01   0.000000E+00   1.293561E-01   4.860242E-01   1.027065E+00   0.000000E+00
   5   1.351322E-01   0.000000E+00   7.724799E-02   1.611349E-01   3.985967E-01   0.000000E+00
   6   3.912491E-02   0.000000E+00   7.681405E-03   1.152205E-01   2.129059E-01   0.000000E+00
   7   1.811570E-05   0.000000E+00   6.739530E-06   6.451690E-05   9.751820E-05   0.000000E+00
   8   1.232732E-05   0.000000E+00   5.105843E-06   2.463807E-05   4.725760E-05   0.000000E+00
 
:INFO :  Singular value  8.846E+00 Weight  1.000E+00 Projection  4.551E-05
:INFO :  Singular value  3.058E+00 Weight  1.000E+00 Projection -3.074E-06
:INFO :  Singular value  1.270E+00 Weight  1.000E+00 Projection  1.941E-05
:INFO :  Singular value  1.008E+00 Weight  1.000E+00 Projection -4.745E-05
:INFO :  Singular value  3.982E-01 Weight  1.000E+00 Projection  7.367E-05
:INFO :  Singular value  2.125E-01 Weight  1.000E+00 Projection -2.506E-04
:INFO :  Singular value  9.758E-05 Weight  3.108E-02 Projection  8.759E-05
:INFO :  Singular value  4.723E-05 Weight  7.458E-03 Projection -1.512E-04
:RANK :  ACTIVE   6.04/8  =  75.48 % ; YY RANK   6.02/8  =  75.20 %
 
:BLIM :  VZERO Control Off
:TRUST:  Step 1.08E+01  Charge 1.94E-02 (e) CTO  4.19E-02 (e) PW  1.54E-01 (e)
:DIRM :  MEMORY  8/8  SCALE   1.000 RED  0.14 PRED  0.20 NEXT  0.70 
:TRAVE:  Charge 3.76E-04 (e) CTO  7.52E-04 (e) PW  2.06E-03 (e)
:DIRP :  |MSR1|= 2.104E-05 |PRATT|= 4.636E-05 ANGLE=  39.0 DEGREES
:DIRQ :  |MSR1|= 6.877E-05 |PRATT|= 1.898E-04 ANGLE=  34.4 DEGREES
:DIRT :  |MSR1|= 7.192E-05 |PRATT|= 1.954E-04 ANGLE=  34.8 DEGREES
:MIX  :   MSE1   REGULARIZATION:  5.45E-04 GREED: 0.20852  Newton 1.00  0.3680                
     
       CHARGES OF MIXED CHARGE DENSITY
:CTO   : INTERSTITIAL CHARGE =     6.285360
:CPC   : PW Pseudocharge     =    17.673718
:CTO001: CHARGE SPHERE  1    =    55.857320

:NEC03: NUCLEAR AND ELECTRONIC CHARGE    118.00000   118.00000

PW CHANGE     H    K    L      Current       Change    Residue
:PTO001:      0    0    0  8.70188647E-02 -3.893E-08  1.566E-07
:PTO003:      0    2    0  1.94450226E-02 -5.252E-08 -3.948E-07
:PTO004:     -1    1    0  8.99759851E-02  8.582E-08  5.724E-07
:PTO005:      0    2   -1 -1.02282341E-01  8.394E-08  6.956E-07
:PTO006:      0    0   -2 -5.30362488E-02  1.552E-07 -1.153E-07
:PTO007:     -1    1   -1 -1.04646406E-01  2.742E-07 -6.283E-08
:PTO008:      0    2   -2 -1.38468969E-02  2.451E-07  4.770E-07
:PTO009:     -1    1   -2 -6.87525995E-02  5.738E-07  7.837E-07
:PTO011:     -1    3    0 -9.84225170E-03  2.149E-08  5.470E-08
:PTO012:     -1    3   -1 -3.90340380E-02  4.200E-07  1.053E-06
:PTO013:      0    4    0 -6.36034557E-03 -6.389E-08 -1.454E-08
:PTO014:      0    2   -3  1.49485434E-02 -1.333E-07 -1.459E-07

:ENE  : ********** TOTAL ENERGY IN Ry =       -36944.31829349

       TOTAL FORCE IN mRy/a.u. = |F|     Fx             Fy             Fz     with/without FOR in case.in2
:FOR001:   1.ATOM         10.416          0.000          0.000         10.416 partial forces
       TOTAL FORCE WITH RESPECT TO GLOBAL CARTESIAN COORDINATES:
:FCA001:   1.ATOM                         0.000         10.416          0.000 partial forces
       TOTAL FORCE WITH RESPECT TO THE GLOBAL COORDINATE SYSTEM:
:FGL001:   1.ATOM                 0.000000000    10.416050192     0.000000000 partial forces
