
------- alpha_Pu_5.scf0 --------


            ---------
:ITE084: 84. ITERATION
            ---------

:NATO :    8 INDEPENDENT AND   16 TOTAL ATOMS IN UNITCELL
       SUBSTANCE: alpha_Pu                                                    

       LATTICE                      = P   
:POT  : POTENTIAL OPTION    5
:LAT  : LATTICE CONSTANTS= 11.87350  9.26314 21.05981    1.571    1.777    1.571
:VOL  : UNIT CELL VOLUME =    2267.43993
       MODE OF CALCULATION IS       = RELA
       NON-SPINPOLARIZED CALCULATION
:IFFT  : FFT-parameters:   96   72  180 Factor: 2.00
       ATOMNUMBER=  1 Pu  0+     VCOUL-ZERO =  0.50455E+00
:EFG001:                        EFG         =   -18.06210   *10**21  V / m**2
                               V20  TOT/SRF=     1.67411    -0.06783
                               V22  TOT/SRF=     6.56573     0.07349
                               V22M TOT/SRF=   -15.78446    -0.05255
                               V21  TOT/SRF=     0.00000     0.00000
                               V21M TOT/SRF=     0.00000     0.00000

              5.59919  -15.78446    0.00000       16.12901    0.00000    0.00000
            -15.78446   -7.53228    0.00000        0.00000  -18.06210    0.00000
              0.00000    0.00000    1.93309        0.00000    0.00000    1.93309

         MAIN DIRECTIONS OF THE EFG   1.0000  0.6671  0.0000
                                     -0.6671  1.0000  0.0000
                                      0.0000  0.0000  1.0000
:ANG001:  ANGLE WITH OLD X-AXIS =        33.7

:ETA001:                         ASYMM. ETA =     0.78595


       ATOMNUMBER=  2 Pu  0+     VCOUL-ZERO =  0.50751E+00
:EFG002:                        EFG         =   -30.65689   *10**21  V / m**2
                               V20  TOT/SRF=     9.32365     0.01280
                               V22  TOT/SRF=   -20.38757    -0.06134
                               V22M TOT/SRF=    14.93707     0.04849
                               V21  TOT/SRF=     0.00000     0.00000
                               V21M TOT/SRF=     0.00000     0.00000

            -25.77058   14.93707    0.00000      -30.65689    0.00000    0.00000
             14.93707   15.00456    0.00000        0.00000   19.89087    0.00000
              0.00000    0.00000   10.76602        0.00000    0.00000   10.76602

         MAIN DIRECTIONS OF THE EFG   1.0000  0.3271  0.0000
                                     -0.3271  1.0000  0.0000
                                      0.0000  0.0000  1.0000
:ANG002:  ANGLE WITH OLD X-AXIS =        18.1

:ETA002:                         ASYMM. ETA =     0.29764


       ATOMNUMBER=  3 Pu  0+     VCOUL-ZERO =  0.50937E+00
:EFG003:                        EFG         =   -15.32073   *10**21  V / m**2
                               V20  TOT/SRF=     1.40547    -0.00080
                               V22  TOT/SRF=    -3.49183    -0.00198
                               V22M TOT/SRF=   -14.08284    -0.00466
                               V21  TOT/SRF=     0.00000     0.00000
                               V21M TOT/SRF=     0.00000     0.00000

             -4.30328  -14.08284    0.00000      -15.32073    0.00000    0.00000
            -14.08284    2.68038    0.00000        0.00000   13.69783    0.00000
              0.00000    0.00000    1.62290        0.00000    0.00000    1.62290

         MAIN DIRECTIONS OF THE EFG   1.0000 -0.7823  0.0000
                                      0.7823  1.0000  0.0000
                                      0.0000  0.0000  1.0000
:ANG003:  ANGLE WITH OLD X-AXIS =        38.0

:ETA003:                         ASYMM. ETA =     0.78814


       ATOMNUMBER=  4 Pu  0+     VCOUL-ZERO =  0.50908E+00
:EFG004:                        EFG         =   -13.35813   *10**21  V / m**2
                               V20  TOT/SRF=     0.23977    -0.01244
                               V22  TOT/SRF=    -2.37390     0.01226
                               V22M TOT/SRF=    13.00481     0.01874
                               V21  TOT/SRF=     0.00000     0.00000
                               V21M TOT/SRF=     0.00000     0.00000

             -2.51233   13.00481    0.00000      -13.35813    0.00000    0.00000
             13.00481    2.23547    0.00000        0.00000   13.08127    0.00000
              0.00000    0.00000    0.27686        0.00000    0.00000    0.27686

         MAIN DIRECTIONS OF THE EFG   1.0000  0.8340  0.0000
                                     -0.8340  1.0000  0.0000
                                      0.0000  0.0000  1.0000
:ANG004:  ANGLE WITH OLD X-AXIS =        39.8

:ETA004:                         ASYMM. ETA =     0.95855


       ATOMNUMBER=  5 Pu  0+     VCOUL-ZERO =  0.51149E+00
:EFG005:                        EFG         =   -42.23339   *10**21  V / m**2
                               V20  TOT/SRF=    11.22080     0.01143
                               V22  TOT/SRF=   -35.29123    -0.08315
                               V22M TOT/SRF=     5.74049     0.03308
                               V21  TOT/SRF=     0.00000     0.00000
                               V21M TOT/SRF=     0.00000     0.00000

            -41.76956    5.74049    0.00000      -42.23339    0.00000    0.00000
              5.74049   28.81290    0.00000        0.00000   29.27673    0.00000
              0.00000    0.00000   12.95666        0.00000    0.00000   12.95666

         MAIN DIRECTIONS OF THE EFG   1.0000  0.0808  0.0000
                                     -0.0808  1.0000  0.0000
                                      0.0000  0.0000  1.0000
:ANG005:  ANGLE WITH OLD X-AXIS =         4.6

:ETA005:                         ASYMM. ETA =     0.38643


       ATOMNUMBER=  6 Pu  0+     VCOUL-ZERO =  0.51015E+00
:EFG006:                        EFG         =   -15.80461   *10**21  V / m**2
                               V20  TOT/SRF=     7.82013     0.00047
                               V22  TOT/SRF=    -5.12350    -0.00427
                               V22M TOT/SRF=   -10.06012    -0.04493
                               V21  TOT/SRF=     0.00000     0.00000
                               V21M TOT/SRF=     0.00000     0.00000

             -9.63846  -10.06012    0.00000      -15.80461    0.00000    0.00000
            -10.06012    0.60855    0.00000        0.00000    6.77470    0.00000
              0.00000    0.00000    9.02991        0.00000    0.00000    9.02991

         MAIN DIRECTIONS OF THE EFG   1.0000 -0.6129  0.0000
                                      0.6129  1.0000  0.0000
                                      0.0000  0.0000  1.0000
:ANG006:  ANGLE WITH OLD X-AXIS =        31.5

:ETA006:                         ASYMM. ETA =     0.14269


       ATOMNUMBER=  7 Pu  0+     VCOUL-ZERO =  0.50793E+00
:EFG007:                        EFG         =   -18.87749   *10**21  V / m**2
                               V20  TOT/SRF=     8.72112    -0.00261
                               V22  TOT/SRF=    10.04522     0.06031
                               V22M TOT/SRF=     9.52386     0.01013
                               V21  TOT/SRF=     0.00000     0.00000
                               V21M TOT/SRF=     0.00000     0.00000

              5.01008    9.52386    0.00000        8.80720    0.00000    0.00000
              9.52386  -15.08037    0.00000        0.00000  -18.87749    0.00000
              0.00000    0.00000   10.07029        0.00000    0.00000   10.07029

         MAIN DIRECTIONS OF THE EFG   1.0000 -0.3987  0.0000
                                      0.3987  1.0000  0.0000
                                      0.0000  0.0000  1.0000
:ANG007:  ANGLE WITH OLD X-AXIS =        21.7

:ETA007:                         ASYMM. ETA =     0.06691


       ATOMNUMBER=  8 Pu  0+     VCOUL-ZERO =  0.50904E+00
:EFG008:                        EFG         =   -42.75482   *10**21  V / m**2
                               V20  TOT/SRF=    12.47103     0.02614
                               V22  TOT/SRF=   -35.22087    -0.03294
                               V22M TOT/SRF=     4.86048    -0.00198
                               V21  TOT/SRF=     0.00000     0.00000
                               V21M TOT/SRF=     0.00000     0.00000

            -42.42103    4.86048    0.00000      -42.75482    0.00000    0.00000
              4.86048   28.02072    0.00000        0.00000   28.35451    0.00000
              0.00000    0.00000   14.40031        0.00000    0.00000   14.40031

         MAIN DIRECTIONS OF THE EFG   1.0000  0.0687  0.0000
                                     -0.0687  1.0000  0.0000
                                      0.0000  0.0000  1.0000
:ANG008:  ANGLE WITH OLD X-AXIS =         3.9

:ETA008:                         ASYMM. ETA =     0.32638


     HELLMANN-FEYNMAN-FORCE IN mRy/a.u. = |F|  Fx       Fy             Fz
:FHF001:   1.ATOM       3179.536       3002.089       1047.335          0.000

     HELLMANN-FEYNMAN-FORCE IN mRy/a.u. = |F|  Fx       Fy             Fz
:FHF002:   2.ATOM       1396.275       -248.678       1373.952          0.000

     HELLMANN-FEYNMAN-FORCE IN mRy/a.u. = |F|  Fx       Fy             Fz
:FHF003:   3.ATOM       5655.777       4186.446       3802.826          0.000

     HELLMANN-FEYNMAN-FORCE IN mRy/a.u. = |F|  Fx       Fy             Fz
:FHF004:   4.ATOM       3117.727      -3058.741       -603.595          0.000

     HELLMANN-FEYNMAN-FORCE IN mRy/a.u. = |F|  Fx       Fy             Fz
:FHF005:   5.ATOM       1916.673       1002.897       1633.350          0.000

     HELLMANN-FEYNMAN-FORCE IN mRy/a.u. = |F|  Fx       Fy             Fz
:FHF006:   6.ATOM       5385.640       4388.068       3122.496          0.000

     HELLMANN-FEYNMAN-FORCE IN mRy/a.u. = |F|  Fx       Fy             Fz
:FHF007:   7.ATOM       5277.709      -3629.871       3831.221          0.000

     HELLMANN-FEYNMAN-FORCE IN mRy/a.u. = |F|  Fx       Fy             Fz
:FHF008:   8.ATOM       1052.688        976.026        394.367          0.000

:FIT001: LUSE= 13 SIGMA OF V-XC FIT FOR ATOM  1  0.2264795E-03
:FIT001: LUSE= 13 SIGMA OF V-XC FIT FOR ATOM  1  0.2264795E-03
:FIT002: LUSE= 13 SIGMA OF V-XC FIT FOR ATOM  2  0.1189101E-03
:FIT002: LUSE= 13 SIGMA OF V-XC FIT FOR ATOM  2  0.1189101E-03
:FIT003: LUSE= 13 SIGMA OF V-XC FIT FOR ATOM  3  0.1288446E-03
:FIT003: LUSE= 13 SIGMA OF V-XC FIT FOR ATOM  3  0.1288446E-03
:FIT004: LUSE= 13 SIGMA OF V-XC FIT FOR ATOM  4  0.1332255E-03
:FIT004: LUSE= 13 SIGMA OF V-XC FIT FOR ATOM  4  0.1332255E-03
:FIT005: LUSE= 13 SIGMA OF V-XC FIT FOR ATOM  5  0.1036380E-03
:FIT005: LUSE= 13 SIGMA OF V-XC FIT FOR ATOM  5  0.1036380E-03
:FIT006: LUSE= 13 SIGMA OF V-XC FIT FOR ATOM  6  0.8010658E-04
:FIT006: LUSE= 13 SIGMA OF V-XC FIT FOR ATOM  6  0.8010658E-04
:FIT007: LUSE= 13 SIGMA OF V-XC FIT FOR ATOM  7  0.2348617E-03
:FIT007: LUSE= 13 SIGMA OF V-XC FIT FOR ATOM  7  0.2348617E-03
:FIT008: LUSE= 13 SIGMA OF V-XC FIT FOR ATOM  8  0.5389761E-04
:FIT008: LUSE= 13 SIGMA OF V-XC FIT FOR ATOM  8  0.5389761E-04
:DEN  : DENSITY INTEGRAL  =       -350452.81733995   (Ry)
       ELS_POTENTIAL_AT Z=0 and Z=0.5:   0.94200   0.45759
       ELS_POTENTIAL_AT Y=0 and Y=0.5:   1.17423   1.17423
:VZERO:v0,v0c,v0x   0.11532   0.94200  -0.82668 v5,v5c,v5x  -0.42622   0.45759  -0.88381
:VZERY:v0,v0c,v0x   0.39254   1.17423  -0.78168 v5,v5c,v5x   0.39254   1.17423  -0.78168
:VZERX:v0,v0c,v0x  -0.77959   0.14294  -0.92252 v5,v5c,v5x  -0.68925   0.22289  -0.91215

------- alpha_Pu_5.scf1 --------

          ATOMIC SPHERE DEPENDENT PARAMETERS FOR ATOM  Pu  0+    
:e__0001: OVERALL ENERGY PARAMETER IS    1.1246
          OVERALL BASIS SET ON ATOM IS LAPW
:E0_0001: E( 0)=    1.1246
             APW+lo
:E0_0001: E( 0)=   -2.0820   E(BOTTOM)=   -2.855   E(TOP)=   -1.309
             LOCAL ORBITAL
:E1_0001: E( 1)=   -1.1580   E(BOTTOM)=   -1.158   E(TOP)= -200.000
             APW+lo
:E1_0001: E( 1)=    1.1246
             LOCAL ORBITAL
:E3_0001: E( 3)=    1.1246   E(BOTTOM)=    0.880   E(TOP)= -200.000
             APW+lo
:E2_0001: E( 2)=    1.1246   E(BOTTOM)=    1.045   E(TOP)= -200.000
             APW+lo

          ATOMIC SPHERE DEPENDENT PARAMETERS FOR ATOM  Pu  0+    
:e__0002: OVERALL ENERGY PARAMETER IS    1.1246
          OVERALL BASIS SET ON ATOM IS LAPW
:E0_0002: E( 0)=    1.1246
             APW+lo
:E0_0002: E( 0)=   -2.0820   E(BOTTOM)=   -2.854   E(TOP)=   -1.310
             LOCAL ORBITAL
:E1_0002: E( 1)=   -1.1540   E(BOTTOM)=   -1.154   E(TOP)= -200.000
             APW+lo
:E1_0002: E( 1)=    1.1246
             LOCAL ORBITAL
:E3_0002: E( 3)=    1.1246   E(BOTTOM)=    0.885   E(TOP)= -200.000
             APW+lo
:E2_0002: E( 2)=    1.1246   E(BOTTOM)=    1.050   E(TOP)= -200.000
             APW+lo

          ATOMIC SPHERE DEPENDENT PARAMETERS FOR ATOM  Pu  0+    
:e__0003: OVERALL ENERGY PARAMETER IS    1.1246
          OVERALL BASIS SET ON ATOM IS LAPW
:E0_0003: E( 0)=    1.1246
             APW+lo
:E0_0003: E( 0)=   -2.0800   E(BOTTOM)=   -2.852   E(TOP)=   -1.308
             LOCAL ORBITAL
:E1_0003: E( 1)=   -1.1520   E(BOTTOM)=   -1.152   E(TOP)= -200.000
             APW+lo
:E1_0003: E( 1)=    1.1246
             LOCAL ORBITAL
:E3_0003: E( 3)=    1.1246   E(BOTTOM)=    0.885   E(TOP)= -200.000
             APW+lo
:E2_0003: E( 2)=    1.1246   E(BOTTOM)=    1.050   E(TOP)= -200.000
             APW+lo

          ATOMIC SPHERE DEPENDENT PARAMETERS FOR ATOM  Pu  0+    
:e__0004: OVERALL ENERGY PARAMETER IS    1.1246
          OVERALL BASIS SET ON ATOM IS LAPW
:E0_0004: E( 0)=    1.1246
             APW+lo
:E0_0004: E( 0)=   -2.0810   E(BOTTOM)=   -2.853   E(TOP)=   -1.309
             LOCAL ORBITAL
:E1_0004: E( 1)=   -1.1540   E(BOTTOM)=   -1.154   E(TOP)= -200.000
             APW+lo
:E1_0004: E( 1)=    1.1246
             LOCAL ORBITAL
:E3_0004: E( 3)=    1.1246   E(BOTTOM)=    0.885   E(TOP)= -200.000
             APW+lo
:E2_0004: E( 2)=    1.1246   E(BOTTOM)=    1.050   E(TOP)= -200.000
             APW+lo

          ATOMIC SPHERE DEPENDENT PARAMETERS FOR ATOM  Pu  0+    
:e__0005: OVERALL ENERGY PARAMETER IS    1.1246
          OVERALL BASIS SET ON ATOM IS LAPW
:E0_0005: E( 0)=    1.1246
             APW+lo
:E0_0005: E( 0)=   -2.0805   E(BOTTOM)=   -2.852   E(TOP)=   -1.309
             LOCAL ORBITAL
:E1_0005: E( 1)=   -1.1520   E(BOTTOM)=   -1.152   E(TOP)= -200.000
             APW+lo
:E1_0005: E( 1)=    1.1246
             LOCAL ORBITAL
:E3_0005: E( 3)=    1.1246   E(BOTTOM)=    0.885   E(TOP)= -200.000
             APW+lo
:E2_0005: E( 2)=    1.1246   E(BOTTOM)=    1.055   E(TOP)= -200.000
             APW+lo

          ATOMIC SPHERE DEPENDENT PARAMETERS FOR ATOM  Pu  0+    
:e__0006: OVERALL ENERGY PARAMETER IS    1.1246
          OVERALL BASIS SET ON ATOM IS LAPW
:E0_0006: E( 0)=    1.1246
             APW+lo
:E0_0006: E( 0)=   -2.0805   E(BOTTOM)=   -2.852   E(TOP)=   -1.309
             LOCAL ORBITAL
:E1_0006: E( 1)=   -1.1520   E(BOTTOM)=   -1.152   E(TOP)= -200.000
             APW+lo
:E1_0006: E( 1)=    1.1246
             LOCAL ORBITAL
:E3_0006: E( 3)=    1.1246   E(BOTTOM)=    0.885   E(TOP)= -200.000
             APW+lo
:E2_0006: E( 2)=    1.1246   E(BOTTOM)=    1.055   E(TOP)= -200.000
             APW+lo

          ATOMIC SPHERE DEPENDENT PARAMETERS FOR ATOM  Pu  0+    
:e__0007: OVERALL ENERGY PARAMETER IS    1.1246
          OVERALL BASIS SET ON ATOM IS LAPW
:E0_0007: E( 0)=    1.1246
             APW+lo
:E0_0007: E( 0)=   -2.0800   E(BOTTOM)=   -2.852   E(TOP)=   -1.308
             LOCAL ORBITAL
:E1_0007: E( 1)=   -1.1540   E(BOTTOM)=   -1.154   E(TOP)= -200.000
             APW+lo
:E1_0007: E( 1)=    1.1246
             LOCAL ORBITAL
:E3_0007: E( 3)=    1.1246   E(BOTTOM)=    0.885   E(TOP)= -200.000
             APW+lo
:E2_0007: E( 2)=    1.1246   E(BOTTOM)=    1.050   E(TOP)= -200.000
             APW+lo

          ATOMIC SPHERE DEPENDENT PARAMETERS FOR ATOM  Pu  0+    
:e__0008: OVERALL ENERGY PARAMETER IS    1.1246
          OVERALL BASIS SET ON ATOM IS LAPW
:E0_0008: E( 0)=    1.1246
             APW+lo
:E0_0008: E( 0)=   -2.0785   E(BOTTOM)=   -2.850   E(TOP)=   -1.307
             LOCAL ORBITAL
:E1_0008: E( 1)=   -1.1500   E(BOTTOM)=   -1.150   E(TOP)= -200.000
             APW+lo
:E1_0008: E( 1)=    1.1246
             LOCAL ORBITAL
:E3_0008: E( 3)=    1.1246   E(BOTTOM)=    0.890   E(TOP)= -200.000
             APW+lo
:E2_0008: E( 2)=    1.1246   E(BOTTOM)=    1.055   E(TOP)= -200.000
             APW+lo

       K=   0.00000   0.00000   0.00000            1
:RKM  : MATRIX SIZE 2689LOs: 320  RKM= 8.49  WEIGHT= 1.00  PGR:    
       EIGENVALUES ARE:
:EIG00001:      -2.0979081   -2.0821682   -2.0787484   -2.0653308   -2.0541947
:EIG00006:      -2.0513158   -2.0431803   -2.0384643   -2.0374464   -2.0267327
:EIG00011:      -2.0216470   -2.0188955   -2.0082901   -2.0069150   -2.0018914
:EIG00016:      -1.9946036   -0.2797924   -0.2777890   -0.2773929   -0.2500755
:EIG00021:      -0.2492611   -0.2393826   -0.2361604   -0.2347850   -0.2036804
:EIG00026:      -0.1962677   -0.1947971   -0.1789065   -0.1778179   -0.1642453
:EIG00031:      -0.1628480   -0.1619546   -0.1597531   -0.1568856   -0.1363408
:EIG00036:      -0.1305111   -0.0994704   -0.0983951   -0.0579204   -0.0457155
:EIG00041:      -0.0402106   -0.0248732   -0.0024663    0.0013032    0.0236256
:EIG00046:       0.0246029    0.0366105    0.0461455    0.0522346    0.0525808
 
:EIG00051:       0.0532669    0.0623747    0.0762699    0.0791164    0.0839501
:EIG00056:       0.0848654    0.0980723    0.1036968    0.1046572    0.1056161
:EIG00061:       0.1131587    0.1186193    0.1394353    0.1437136    0.9973655
:EIG00066:       1.1328991    1.1359709    1.1445900    1.1463440    1.1493330
:EIG00071:       1.1561740    1.1669157    1.1707895    1.1781671    1.1922944
:EIG00076:       1.1934609    1.1938980    1.1976912    1.2076655    1.2096133
:EIG00081:       1.2243397    1.2301318    1.2421416    1.2429147    1.2527922
:EIG00086:       1.2594574    1.2606486    1.2667191    1.2693101    1.2706674
:EIG00091:       1.2708852    1.2738741    1.2786315    1.2807487    1.2823211
:EIG00096:       1.2860908    1.2876118    1.2879931    1.2909850    1.2919119
 
:EIG00101:       1.2927276    1.2932572    1.2946229    1.2946693    1.2950090
:EIG00106:       1.2974499    1.3015730    1.3024625    1.3032803    1.3052925
:EIG00111:       1.3086728    1.3093038    1.3095122    1.3158509    1.3190401
:EIG00116:       1.3194207    1.3200424    1.3229236    1.3235864    1.3324007
:EIG00121:       1.3336726    1.3363651    1.3394437    1.3428764    1.3463082
:EIG00126:       1.3494016    1.3508051    1.3514822    1.3555780    1.3625816
:EIG00131:       1.3684496    1.3782445    1.3787332    1.3791982    1.3810576
:EIG00136:       1.3826310    1.3853838    1.3874636    1.3889356    1.3911182
:EIG00141:       1.3937885    1.3941610    1.3952227    1.3964678    1.3973576
:EIG00146:       1.3979230    1.4035324    1.4067712    1.4101513    1.4116693
 
:EIG00151:       1.4124484    1.4141809    1.4178996    1.4216404    1.4225079
:EIG00156:       1.4227070    1.4258164    1.4259399    1.4272718    1.4286636
:EIG00161:       1.4292022    1.4306144    1.4332918    1.4336559    1.4357729
:EIG00166:       1.4361302    1.4364538    1.4389521    1.4404243    1.4444685
:EIG00171:       1.4453123    1.4463580    1.4483264    1.4486582    1.4516615
:EIG00176:       1.4519506    1.4545830    1.4561881    1.4565187    1.4565220
:EIG00181:       1.4572099    1.4593813    1.4654048    1.4705485    1.4710496
:EIG00186:       1.4719775    1.4737833    1.4741369    1.4754003    1.4819887
:EIG00191:       1.4822203    1.4846788    1.4859570    1.4861585    1.4931186
:EIG00196:       1.4972243    1.5152464    1.5281796    1.5386632    1.5497495
 
:EIG00201:       1.5576419    1.5650102    1.5731713    1.5762044    1.5818810
:EIG00206:       1.5871049    1.5925772    1.6028323    1.6098224    1.6131059
:EIG00211:       1.6221657    1.6255812    1.6259859    1.6361709    1.6544926
:EIG00216:       1.6756592    1.6769040    1.6996993    1.7225759    1.7384042
:EIG00221:       1.7496917    1.7501037    1.7536860    1.7767184    1.7803131
:EIG00226:       1.7925024    1.7968639    1.7978255    1.8200018    1.8262237
:EIG00231:       1.8398263    1.8545156    1.8850042    1.8985480    1.8992964
:EIG00236:       1.9172235    1.9185815    1.9209779    1.9471478    1.9540383
:EIG00241:       1.9675453    1.9715042    1.9825873    2.0079598    2.0126939
:EIG00246:       2.0263073    2.0296817    2.0552073    2.0625901    2.0691937
 
:EIG00251:       2.0768590    2.0863089    2.0918589    2.1009661    2.1047454
:EIG00256:       2.1155974    2.1444404    2.1558211    2.1600713    2.1683219
:EIG00261:       2.1971967    2.2206545    2.2561547    2.2576839    2.3015103
:EIG00266:       2.3438082    2.3665196    2.3874023    2.4189398    2.4230991
:EIG00271:       2.4319873    2.4383303    2.4476424    2.4502736    2.4612864
:EIG00276:       2.4741060    2.4802695    2.4821308    2.4947183    2.5281412
:EIG00281:       2.5324468    2.5574754    2.5585646    2.5989525    2.6050355
:EIG00286:       2.6051865    2.6069154    2.6144698    2.6333023    2.6448106
:EIG00291:       2.6708924    2.6967135    2.7031034    2.7040363    2.7105960
:EIG00296:       2.7292154    2.7484299    2.7882522    2.7895698    2.7993752
 
:EIG00301:       2.8119726    2.8127445    2.8424041    2.8455704    2.8464517
:EIG00306:       2.8847198    2.8849973    2.8895725    2.9090298    2.9107090
:EIG00311:       2.9187820    2.9238882    2.9314510    2.9500925    2.9646347
:EIG00316:       2.9781043    2.9787372    2.9816626    2.9881501    3.0290154
:EIG00321:       3.0342887    3.0402600    3.0470573    3.0562117    3.0601719
:EIG00326:       3.0629227    3.0761642    3.0886179    3.1011619    3.1128879
:EIG00331:       3.1134336    3.1308279    3.1389455    3.1407885    3.1523486
:EIG00336:       3.1710036    3.1773982    3.1966754    3.2130299    3.2185724
:EIG00341:       3.2229961    3.2329006    3.2422784    3.2586806    3.2667185
:EIG00346:       3.2746138    3.2828141    3.2927585    3.3088902    3.3219482
 
:EIG00351:       3.3227805    3.3240641    3.3494896    3.3531881    3.3695107
:EIG00356:       3.4116680    3.4138622    3.4188861    3.4300476    3.4309986
:EIG00361:       3.4378268    3.4430005    3.4573998    3.4595186    3.4769732
:EIG00366:       3.4865751    3.4880207    3.4958495    3.5250971    3.5347125
:EIG00371:       3.5374016    3.5398603    3.5533786    3.5641462    3.5910020
:EIG00376:       3.5978946    3.6060511    3.6266581    3.6275733    3.6282537
:EIG00381:       3.6344457    3.6501690    3.6550426    3.6583267    3.6810018
:EIG00386:       3.7070100    3.7159583    3.7205318    3.7305837    3.7331214
:EIG00391:       3.7355090    3.7523821    3.7654334    3.7768816    3.7851421
:EIG00396:       3.7975929    3.8294331    3.8328176    3.8373080    3.8389289
 
:EIG00401:       3.8550892    3.8617455    3.8824544    3.8835829    3.9025029
:EIG00406:       3.9076903    3.9139004    3.9280748    3.9320126    3.9382074
:EIG00411:       3.9497679    3.9594167    3.9802992    3.9807899    3.9834450
:EIG00416:       3.9921873    4.0076909    4.0212144    4.0217756    4.0360020
:EIG00421:       4.0468278    4.0524710    4.0643452    4.0925781    4.0935469
:EIG00426:       4.0975593    4.1026258    4.1179325    4.1188560    4.1310100
:EIG00431:       4.1424240    4.1562472    4.1613949    4.1621847    4.1712799
:EIG00436:       4.1782756    4.1850765    4.1905293    4.1933887    4.1997781
:EIG00441:       4.2140510    4.2229153    4.2255426    4.2262923    4.2379595
:EIG00446:       4.2564113    4.2572591    4.2618124    4.2659832    4.2685938
 
:EIG00451:       4.2789551    4.2837258    4.3035697    4.3045877    4.3235221
:EIG00456:       4.3270134    4.3291773    4.3379169    4.3645762    4.3707790
:EIG00461:       4.3850442    4.3888790    4.4086049    4.4160645    4.4162128
:EIG00466:       4.4261035    4.4383609    4.4672193    4.4695080    4.4761932
:EIG00471:       4.4844740    4.5011471    4.5029268    4.5176274    4.5258007
:EIG00476:       4.5367548    4.5399727    4.5543671    4.5618504    4.5629312
:EIG00481:       4.5686127    4.5721684    4.5873568    4.5901234    4.5922610
:EIG00486:       4.5959859    4.5983998    4.6142071    4.6174621    4.6321752
:EIG00491:       4.6352833    4.6464061    4.6474171    4.6583713    4.6647971
:EIG00496:       4.6691396    4.6702370    4.6754550    4.6811442    4.6971905
 
:EIG00501:       4.6980564    4.6996687    4.7032152    4.7056120    4.7070264
:EIG00506:       4.7198713    4.7248544    4.7287889    4.7476177    4.7614720
:EIG00511:       4.7719065    4.7762094    4.7783457    4.7804186    4.7831696
:EIG00516:       4.7943309    4.7945110    4.8089904    4.8133480    4.8165105
:EIG00521:       4.8168937    4.8261620    4.8293044    4.8321726    4.8465179
:EIG00526:       4.8555616    4.8634116    4.8753301    4.8772920    4.8922368
:EIG00531:       4.9011093    4.9074811    4.9138072    4.9450115    4.9507225
:EIG00536:       4.9539244    4.9715527    4.9725424    4.9765696    5.0018085
:EIG00541:       5.0050799    5.0106394    5.0127116    5.0283187    5.0353551
:EIG00546:       5.0524087    5.0525014    5.0654534    5.0704692    5.0716592
 
:EIG00551:       5.0730589    5.0742030    5.0801991    5.0878992    5.0953846
:EIG00556:       5.1029916    5.1033939    5.1233827    5.1285170    5.1514830
:EIG00561:       5.1545543    5.1579259    5.1587459    5.1620896    5.1632664
:EIG00566:       5.1734926    5.1822824    5.1889053    5.1963706    5.1992527
:EIG00571:       5.2148720    5.2215541    5.2241858    5.2282427    5.2332214
:EIG00576:       5.2382013    5.2524280    5.2580837    5.2654258    5.2703032
:EIG00581:       5.2749291    5.2776412    5.2817965    5.2904577    5.3070986
:EIG00586:       5.3074289    5.3148075    5.3160066    5.3289783    5.3332364
:EIG00591:       5.3351072    5.3569414    5.3574750    5.3673965    5.3752216
:EIG00596:       5.3766151    5.3803242    5.3966946    5.4076478    5.4171315
 
:EIG00601:       5.4260738    5.4293812    5.4340418    5.4423105    5.4545600
:EIG00606:       5.4560418    5.4583589    5.4598296    5.4605429    5.4668536
:EIG00611:       5.4788922    5.4915467    5.4963830    5.4988832    5.5068891
:EIG00616:       5.5096864    5.5292890    5.5318716    5.5377074    5.5401573
:EIG00621:       5.5612524    5.5648964    5.5673424    5.5804088    5.5953173
:EIG00626:       5.6156057    5.6161396    5.6233056    5.6339893    5.6397921
:EIG00631:       5.6432559    5.6501561    5.6579861    5.6668394    5.6705210
:EIG00636:       5.6756374    5.6812433    5.6813377    5.6968324    5.7071311
:EIG00641:       5.7144809    5.7168741    5.7304408    5.7413955    5.7482473
:EIG00646:       5.7533416    5.7550562    5.7562575    5.7565145    5.7835642
 
:EIG00651:       5.8027129    5.8051760    5.8089586    5.8118481    5.8143336
:EIG00656:       5.8225843    5.8377050    5.8461745    5.8474383    5.8543505
:EIG00661:       5.8564449    5.8789432    5.8828251    5.8858422    5.8936915
:EIG00666:       5.9034728    5.9147497    5.9168543    5.9310697    5.9351679
:EIG00671:       5.9425817    5.9728699    5.9778352    5.9872023    5.9875936
:EIG00676:       5.9928953    6.0067367    6.0205998    6.0299512    6.0362720
:EIG00681:       6.0393746    6.0467313    6.0498419    6.0685083    6.0794489
:EIG00686:       6.0800889    6.0862637    6.1142534    6.1161570    6.1183366
:EIG00691:       6.1239881    6.1423738    6.1442281    6.1482773    6.1524299
:EIG00696:       6.1689126    6.1750197    6.1805667    6.1820442    6.1827672
 
:EIG00701:       6.2018613    6.2086246    6.2202398    6.2420950    6.2451169
:EIG00706:       6.2515672    6.2602476    6.2628128    6.2694723    6.2769261
:EIG00711:       6.2770041    6.2844672    6.2952905    6.2985056    6.3008593
:EIG00716:       6.3313803    6.3400237    6.3494332    6.3522040    6.3649424
:EIG00721:       6.3743119    6.3743486    6.3766057    6.3843644    6.3930832
:EIG00726:       6.3990741    6.4100129    6.4149667    6.4203121    6.4217655
:EIG00731:       6.4218550    6.4256413    6.4267316    6.4439318    6.4622517
:EIG00736:       6.4625855    6.4649284    6.4825890    6.4868210    6.4945486
:EIG00741:       6.5007172    6.5028086    6.5033221    6.5073290    6.5123903
:EIG00746:       6.5272782    6.5355071    6.5484864    6.5563436    6.5576786
 
:EIG00751:       6.5680790    6.5779612    6.5866931    6.5887080    6.5927287
:EIG00756:       6.6043006    6.6048473    6.6264821    6.6321829    6.6333659
:EIG00761:       6.6450497    6.6466262    6.6520607    6.6553386    6.6567129
:EIG00766:       6.6819469    6.6870498    6.6939452    6.7070662    6.7101174
:EIG00771:       6.7165478    6.7342375    6.7384766    6.7403321    6.7540246
:EIG00776:       6.7643949    6.7723517    6.7768507    6.7773053    6.7792046
:EIG00781:       6.7807868    6.7950537    6.7996037    6.8043788    6.8172930
:EIG00786:       6.8289047    6.8308112    6.8335034    6.8392738    6.8413997
:EIG00791:       6.8572200    6.8678792    6.8734048    6.8920452    6.8923610
:EIG00796:       6.8924825    6.9012537    6.9035731    6.9046679    6.9313271
 
:EIG00801:       6.9321686    6.9344225    6.9431898    6.9484415    6.9616186
:EIG00806:       6.9640454    6.9643805    6.9697087    6.9740189    6.9864300
:EIG00811:       6.9942349    7.0031198    7.0072446    7.0098888    7.0163108
:EIG00816:       7.0164813    7.0387771    7.0454147    7.0495583    7.0546690
:EIG00821:       7.0597033    7.0692939    7.0812818    7.0836282    7.1020726
:EIG00826:       7.1063288    7.1065983    7.1146860    7.1255446    7.1256595
:EIG00831:       7.1307500    7.1383060    7.1449706    7.1528213    7.1561721
:EIG00836:       7.1689208    7.1745036    7.1776277    7.1981613    7.2080899
:EIG00841:       7.2237008    7.2255754    7.2276646    7.2284321    7.2290158
:EIG00846:       7.2357314    7.2425914    7.2464544    7.2549624    7.2614897
 
:EIG00851:       7.2634025    7.2765591    7.2841471    7.2865867    7.3049188
:EIG00856:       7.3214833    7.3287416    7.3296824    7.3389002    7.3496938
:EIG00861:       7.3499434    7.3508204    7.3652665    7.3669728    7.3681877
:EIG00866:       7.3861263    7.3896175    7.3899771    7.3978520    7.4053392
:EIG00871:       7.4120055    7.4214776    7.4248916    7.4255475    7.4296476
:EIG00876:       7.4369035    7.4424558    7.4584155    7.4645446    7.4687881
:EIG00881:       7.4816360    7.4822153    7.4972108    7.4979110
       ********************************************************

:KPT   :      NUMBER OF K-POINTS:    272

------- alpha_Pu_5.scfso --------
   0.0   0.0 angle (M,z), angle (M,x) deg
 
        SPIN-ORBIT EIGENVALUES:
     K=   0.00000   0.00000   0.00000            1
      MATRIX SIZE= 1768   WEIGHT= 1.00
     EIGENVALUES ARE:
          -2.0979176   -2.0979176   -2.0821891   -2.0821891   -2.0787703
          -2.0787703   -2.0653580   -2.0653580   -2.0542126   -2.0542126
          -2.0513423   -2.0513423   -2.0432015   -2.0432015   -2.0384836
          -2.0384836   -2.0374533   -2.0374533   -2.0267545   -2.0267545
          -2.0216770   -2.0216770   -2.0189163   -2.0189163   -2.0083123
          -2.0083123   -2.0069330   -2.0069330   -2.0019072   -2.0019072
          -1.9946237   -1.9946237   -0.5612142   -0.5612142   -0.5593676
          -0.5593676   -0.5444509   -0.5444509   -0.5422180   -0.5422180

          -0.5395928   -0.5395928   -0.5307109   -0.5307109   -0.5300025
          -0.5300025   -0.5167964   -0.5167964   -0.5036043   -0.5036043
          -0.5032226   -0.5032226   -0.4975653   -0.4975653   -0.4973567
          -0.4973567   -0.4877175   -0.4877175   -0.4414107   -0.4414107
          -0.4286985   -0.4286985   -0.3860561   -0.3860561   -0.0650843
          -0.0650843   -0.0415391   -0.0415391   -0.0355207   -0.0355207
          -0.0337928   -0.0337928   -0.0200637   -0.0200637   -0.0123129
          -0.0123129   -0.0051920   -0.0051920    0.0045657    0.0045657

           0.0310921    0.0310921    0.0362979    0.0362979    0.0435063
           0.0435063    0.0455808    0.0455808    0.0686021    0.0686021
           0.0827068    0.0827068    0.0828949    0.0828949    0.0989807
           0.0989807    0.1311637    0.1311637    0.1442674    0.1442674
           0.1604921    0.1604921    0.1883439    0.1883439    0.1924037
           0.1924037    0.1991798    0.1991798    0.2189309    0.2189309
           0.2343052    0.2343052    0.2447665    0.2447665    0.2485860
           0.2485860    0.2623630    0.2623630    0.2719071    0.2719071

           0.2866228    0.2866228    0.3069833    0.3069833    0.3100459
           0.3100459    0.3175103    0.3175103    0.9973689    0.9973689
           1.1291087    1.1291087    1.1367192    1.1367192    1.1431308
           1.1431308    1.1433481    1.1433481    1.1470594    1.1470594
           1.1527281    1.1527281    1.1679042    1.1679042    1.1688914
           1.1688914    1.1779560    1.1779560    1.1885539    1.1885539
           1.1888665    1.1888665    1.1931249    1.1931249    1.1955838
           1.1955838    1.2069279    1.2069279    1.2104755    1.2104755

           1.2233591    1.2233591    1.2273731    1.2273731    1.2345660
           1.2345660    1.2375868    1.2375868    1.2445144    1.2445144
           1.2476014    1.2476014    1.2574458    1.2574458    1.2576232
           1.2576232    1.2625514    1.2625514    1.2639327    1.2639327
           1.2648104    1.2648104    1.2668413    1.2668413    1.2714717
           1.2714717    1.2744912    1.2744912    1.2755041    1.2755041
           1.2780309    1.2780309    1.2789044    1.2789044    1.2815684
           1.2815684    1.2825199    1.2825199    1.2836199    1.2836199

           1.2839781    1.2839781    1.2848939    1.2848939    1.2884883
           1.2884883    1.2887663    1.2887663    1.2916296    1.2916296
           1.2933232    1.2933232    1.2942658    1.2942658    1.2965342
           1.2965342    1.2977070    1.2977070    1.2977776    1.2977776
           1.3007917    1.3007917    1.3014141    1.3014141    1.3060256
           1.3060256    1.3066374    1.3066374    1.3073432    1.3073432
           1.3107313    1.3107313    1.3116269    1.3116269    1.3127682
           1.3127682    1.3161162    1.3161162    1.3164336    1.3164336

           1.3234938    1.3234938    1.3240840    1.3240840    1.3296616
           1.3296616    1.3308257    1.3308257    1.3329949    1.3329949
           1.3342176    1.3342176    1.3366733    1.3366733    1.3391770
           1.3391770    1.3429364    1.3429364    1.3471936    1.3471936
           1.3507199    1.3507199    1.3559458    1.3559458    1.3574766
           1.3574766    1.3598264    1.3598264    1.3622279    1.3622279
           1.3678854    1.3678854    1.3752139    1.3752139    1.3822682
           1.3822682    1.3851221    1.3851221    1.3878549    1.3878549

           1.3949151    1.3949151    1.3997557    1.3997557    1.4005389
           1.4005389    1.4032235    1.4032235    1.4052909    1.4052909
           1.4080726    1.4080726    1.4088987    1.4088987    1.4096568
           1.4096568    1.4153552    1.4153552    1.4162946    1.4162946
           1.4198352    1.4198352    1.4208180    1.4208180    1.4236767
           1.4236767    1.4256527    1.4256527    1.4276792    1.4276792
           1.4295265    1.4295265    1.4306972    1.4306972    1.4310392
           1.4310392    1.4344435    1.4344435    1.4347558    1.4347558

           1.4368604    1.4368604    1.4383184    1.4383184    1.4400291
           1.4400291    1.4407021    1.4407021    1.4425489    1.4425489
           1.4442044    1.4442044    1.4456752    1.4456752    1.4472868
           1.4472868    1.4476561    1.4476561    1.4491195    1.4491195
           1.4529301    1.4529301    1.4553498    1.4553498    1.4560519
           1.4560519    1.4572698    1.4572698    1.4604781    1.4604781
           1.4618024    1.4618024    1.4639869    1.4639869    1.4657831
           1.4657831    1.4674565    1.4674565    1.4681935    1.4681935

           1.4698728    1.4698728    1.4716634    1.4716634    1.4718437
           1.4718437    1.4744793    1.4744793    1.4777750    1.4777750
           1.4791921    1.4791921    1.4813414    1.4813414    1.4841977
           1.4841977    1.4873311    1.4873311    1.4887377    1.4887377
           1.4897157    1.4897157    1.4930551    1.4930551    1.4936280
           1.4936280    1.4969787    1.4969787    1.4974655    1.4974655
           1.5101900    1.5101900    1.5228657    1.5228657    1.5374943
           1.5374943    1.5435976    1.5435976    1.5439937    1.5439937

           1.5629741    1.5629741    1.5665386    1.5665386    1.5769610
           1.5769610    1.5847530    1.5847530    1.5861132    1.5861132
           1.5907368    1.5907368    1.5979943    1.5979943    1.6041147
           1.6041147    1.6087250    1.6087250    1.6225951    1.6225951
           1.6244946    1.6244946    1.6301214    1.6301214    1.6333985
           1.6333985    1.6438497    1.6438497    1.6543622    1.6543622
           1.6805081    1.6805081    1.6852907    1.6852907    1.7030135
           1.7030135    1.7237784    1.7237784    1.7358377    1.7358377

           1.7425363    1.7425363    1.7523208    1.7523208    1.7660977
           1.7660977    1.7764857    1.7764857    1.7789478    1.7789478
           1.7925356    1.7925356    1.8014461    1.8014461    1.8040729
           1.8040729    1.8214044    1.8214044    1.8221415    1.8221415
           1.8463142    1.8463142    1.8526102    1.8526102    1.8862716
           1.8862716    1.8981605    1.8981605    1.9012906    1.9012906
           1.9154431    1.9154431    1.9171159    1.9171159    1.9228951
           1.9228951    1.9511206    1.9511206    1.9530740    1.9530740

           1.9560651    1.9560651    1.9818222    1.9818222    1.9825926
           1.9825926    2.0107172    2.0107172    2.0114244    2.0114244
           2.0213297    2.0213297    2.0319422    2.0319422    2.0509616
           2.0509616    2.0566924    2.0566924    2.0655906    2.0655906
           2.0729736    2.0729736    2.0873243    2.0873243    2.0948976
           2.0948976    2.1006079    2.1006079    2.1081416    2.1081416
           2.1273101    2.1273101    2.1408347    2.1408347    2.1589283
           2.1589283    2.1639911    2.1639911    2.1720438    2.1720438

           2.2013323    2.2013323    2.2196278    2.2196278    2.2561136
           2.2561136    2.2603002    2.2603002    2.3015114    2.3015114
           2.3356734    2.3356734    2.3551939    2.3551939    2.3698195
           2.3698195    2.4051208    2.4051208    2.4120130    2.4120130
           2.4253351    2.4253351    2.4312944    2.4312944    2.4443036
           2.4443036    2.4528833    2.4528833    2.4571901    2.4571901
           2.4827809    2.4827809    2.4851287    2.4851287    2.5094844
           2.5094844    2.5219212    2.5219212    2.5272563    2.5272563

           2.5497810    2.5497810    2.5608575    2.5608575    2.5622586
           2.5622586    2.5968525    2.5968525    2.5969102    2.5969102
           2.6122371    2.6122371    2.6227972    2.6227972    2.6230811
           2.6230811    2.6395092    2.6395092    2.6483025    2.6483025
           2.6786192    2.6786192    2.6955951    2.6955951    2.7020467
           2.7020467    2.7028918    2.7028918    2.7208507    2.7208507
           2.7301936    2.7301936    2.7486593    2.7486593    2.7883039
           2.7883039    2.7887655    2.7887655    2.7969021    2.7969021

           2.8137976    2.8137976    2.8158276    2.8158276    2.8427458
           2.8427458    2.8449752    2.8449752    2.8543925    2.8543925
           2.8870274    2.8870274    2.8871405    2.8871405    2.8909615
           2.8909615    2.9036578    2.9036578    2.9127458    2.9127458
           2.9217929    2.9217929    2.9273560    2.9273560    2.9346016
           2.9346016    2.9520312    2.9520312    2.9654386    2.9654386
           2.9697978    2.9697978    2.9813546    2.9813546    2.9871961
           2.9871961    3.0056841    3.0056841    3.0292794    3.0292794

           3.0343388    3.0343388    3.0398036    3.0398036    3.0509915
           3.0509915    3.0562643    3.0562643    3.0611500    3.0611500
           3.0679720    3.0679720    3.0773262    3.0773262    3.0913954
           3.0913954    3.1059546    3.1059546    3.1152123    3.1152123
           3.1210448    3.1210448    3.1320714    3.1320714    3.1382055
           3.1382055    3.1448748    3.1448748    3.1529203    3.1529203
           3.1729117    3.1729117    3.1787534    3.1787534    3.1988745
           3.1988745    3.2094304    3.2094304    3.2182559    3.2182559

           3.2252859    3.2252859    3.2367359    3.2367359    3.2441639
           3.2441639    3.2612448    3.2612448    3.2644815    3.2644815
           3.2774541    3.2774541    3.2838409    3.2838409    3.2948800
           3.2948800    3.3112841    3.3112841    3.3192254    3.3192254
           3.3251344    3.3251344    3.3272083    3.3272083    3.3491151
           3.3491151    3.3549449    3.3549449    3.3713372    3.3713372
           3.4093450    3.4093450    3.4114043    3.4114043    3.4207551
           3.4207551    3.4266927    3.4266927    3.4333834    3.4333834

           3.4368361    3.4368361    3.4443227    3.4443227    3.4569613
           3.4569613    3.4583274    3.4583274    3.4803572    3.4803572
           3.4826415    3.4826415    3.4885401    3.4885401    3.4996493
           3.4996493    3.5251842    3.5251842    3.5299964    3.5299964
           3.5392628    3.5392628    3.5413703    3.5413703    3.5531172
           3.5531172    3.5648186    3.5648186    3.5909911    3.5909911
           3.5969298    3.5969298    3.6044921    3.6044921    3.6152853
           3.6152853    3.6288221    3.6288221    3.6291737    3.6291737

           3.6354869    3.6354869    3.6467921    3.6467921    3.6562501
           3.6562501    3.6567524    3.6567524    3.6820151    3.6820151
           3.7100786    3.7100786    3.7102443    3.7102443    3.7203354
           3.7203354    3.7205378    3.7205378    3.7271251    3.7271251
           3.7402507    3.7402507    3.7575018    3.7575018    3.7607561
           3.7607561    3.7771773    3.7771773    3.7866021    3.7866021
           3.7963648    3.7963648    3.8127118    3.8127118    3.8302662
           3.8302662    3.8348541    3.8348541    3.8370881    3.8370881

           3.8619119    3.8619119    3.8679314    3.8679314    3.8794817
           3.8794817    3.8866225    3.8866225    3.8924240    3.8924240
           3.9042702    3.9042702    3.9195303    3.9195303    3.9271111
           3.9271111    3.9378313    3.9378313    3.9470328    3.9470328
           3.9496155    3.9496155    3.9645927    3.9645927    3.9709925
           3.9709925    3.9868576    3.9868576    3.9879823    3.9879823
           3.9975653    3.9975653    4.0151547    4.0151547    4.0177601
           4.0177601    4.0248145    4.0248145    4.0296286    4.0296286

           4.0517536    4.0517536    4.0582952    4.0582952    4.0669035
           4.0669035    4.0816359    4.0816359    4.0852539    4.0852539
           4.0976916    4.0976916    4.1008202    4.1008202    4.1117886
           4.1117886    4.1235612    4.1235612    4.1302224    4.1302224
           4.1422446    4.1422446    4.1501504    4.1501504    4.1562074
           4.1562074    4.1569788    4.1569788    4.1732121    4.1732121
           4.1750892    4.1750892    4.1888207    4.1888207    4.1993261
           4.1993261    4.2008888    4.2008888    4.2060328    4.2060328

           4.2167905    4.2167905    4.2294148    4.2294148    4.2301540
           4.2301540    4.2351411    4.2351411    4.2449342    4.2449342
           4.2586120    4.2586120    4.2615202    4.2615202    4.2660262
           4.2660262    4.2680907    4.2680907    4.2829872    4.2829872
           4.2876614    4.2876614    4.2914019    4.2914019    4.3018096
           4.3018096    4.3099834    4.3099834    4.3198599    4.3198599
           4.3289879    4.3289879    4.3432070    4.3432070    4.3614075
           4.3614075    4.3697944    4.3697944    4.3717633    4.3717633

           4.3822874    4.3822874    4.4016021    4.4016021    4.4134375
           4.4134375    4.4200246    4.4200246    4.4258688    4.4258688
           4.4299220    4.4299220    4.4400114    4.4400114    4.4719279
           4.4719279    4.4748401    4.4748401    4.4767539    4.4767539
           4.4936328    4.4936328
       ********************************************************

------- alpha_Pu_5.scf2 --------
:GMA  : POTENTIAL AND CHARGE CUT-OFF  12.00 Ry**.5
         Bandranges (emin - emax) and occupancy:
:BAN00250: 250    1.330482    1.342235  1.00000000
:BAN00251: 251    1.332118    1.343191  1.00000000
:BAN00252: 252    1.332118    1.343191  1.00000000
:BAN00253: 253    1.335959    1.346507  0.91541106
:BAN00254: 254    1.335959    1.346507  0.91541106
:BAN00255: 255    1.339177    1.347146  0.71524364
:BAN00256: 256    1.339177    1.347146  0.71524364
:BAN00257: 257    1.341284    1.350415  0.36808440
:BAN00258: 258    1.341284    1.350415  0.36808440
:BAN00259: 259    1.344506    1.351670  0.00126090
:BAN00260: 260    1.344506    1.351670  0.00126090
:BAN00261: 261    1.347608    1.353983  0.00000000
:BAN00262: 262    1.347608    1.353983  0.00000000
:BAN00263: 263    1.351830    1.356314  0.00000000
:BAN00264: 264    1.351830    1.356314  0.00000000
:BAN00265: 265    1.354314    1.360762  0.00000000
        Energy to separate low and high energystates:    0.94737


:NLDA  : NUMBER OF ELECTRONS          = 256.000

:FLDA  : F E R M I - ENERGY           =   1.84472




:POS001: AT.NR.  -1 POSITION = 0.33900 0.25000 0.15650  MULTIPLICITY =  2

       LMMAX 28
       LM=   0 0  1 1 -1 1  2 0  2 2 -2 2  3 1 -3 1  3 3 -3 3  4 0  4 2 -4 2  4 4 -4 4  5 1 -5 1
         5 3 -5 3  5 5 -5 5  6 0  6 2 -6 2  6 4 -6 4  6 6 -6 6




:POS002: AT.NR.  -2 POSITION = 0.33900 0.25000 0.15650  MULTIPLICITY =  2

       LMMAX 28
       LM=   0 0  1 1 -1 1  2 0  2 2 -2 2  3 1 -3 1  3 3 -3 3  4 0  4 2 -4 2  4 4 -4 4  5 1 -5 1
         5 3 -5 3  5 5 -5 5  6 0  6 2 -6 2  6 4 -6 4  6 6 -6 6




:POS003: AT.NR.  -3 POSITION = 0.33900 0.25000 0.15650  MULTIPLICITY =  2

       LMMAX 28
       LM=   0 0  1 1 -1 1  2 0  2 2 -2 2  3 1 -3 1  3 3 -3 3  4 0  4 2 -4 2  4 4 -4 4  5 1 -5 1
         5 3 -5 3  5 5 -5 5  6 0  6 2 -6 2  6 4 -6 4  6 6 -6 6




:POS004: AT.NR.  -4 POSITION = 0.33900 0.25000 0.15650  MULTIPLICITY =  2

       LMMAX 28
       LM=   0 0  1 1 -1 1  2 0  2 2 -2 2  3 1 -3 1  3 3 -3 3  4 0  4 2 -4 2  4 4 -4 4  5 1 -5 1
         5 3 -5 3  5 5 -5 5  6 0  6 2 -6 2  6 4 -6 4  6 6 -6 6




:POS005: AT.NR.  -5 POSITION = 0.33900 0.25000 0.15650  MULTIPLICITY =  2

       LMMAX 28
       LM=   0 0  1 1 -1 1  2 0  2 2 -2 2  3 1 -3 1  3 3 -3 3  4 0  4 2 -4 2  4 4 -4 4  5 1 -5 1
         5 3 -5 3  5 5 -5 5  6 0  6 2 -6 2  6 4 -6 4  6 6 -6 6




:POS006: AT.NR.  -6 POSITION = 0.33900 0.25000 0.15650  MULTIPLICITY =  2

       LMMAX 28
       LM=   0 0  1 1 -1 1  2 0  2 2 -2 2  3 1 -3 1  3 3 -3 3  4 0  4 2 -4 2  4 4 -4 4  5 1 -5 1
         5 3 -5 3  5 5 -5 5  6 0  6 2 -6 2  6 4 -6 4  6 6 -6 6




:POS007: AT.NR.  -7 POSITION = 0.33900 0.25000 0.15650  MULTIPLICITY =  2

       LMMAX 28
       LM=   0 0  1 1 -1 1  2 0  2 2 -2 2  3 1 -3 1  3 3 -3 3  4 0  4 2 -4 2  4 4 -4 4  5 1 -5 1
         5 3 -5 3  5 5 -5 5  6 0  6 2 -6 2  6 4 -6 4  6 6 -6 6




:POS008: AT.NR.  -8 POSITION = 0.33900 0.25000 0.15650  MULTIPLICITY =  2

       LMMAX 28
       LM=   0 0  1 1 -1 1  2 0  2 2 -2 2  3 1 -3 1  3 3 -3 3  4 0  4 2 -4 2  4 4 -4 4  5 1 -5 1
         5 3 -5 3  5 5 -5 5  6 0  6 2 -6 2  6 4 -6 4  6 6 -6 6
:FER DMFT Fermi Energy   1.33210
:EORB    1.80057449
:SUM SUM OF DMFT BAND ENERGIES   87.95712666

:CHA001: TOTAL CHARGE INSIDE SPHERE   1 =    11.779454
:PCS001: PARTIAL CHARGES SPHERE =  1 S,P,D,F,PX,PY,PZ,D-Z2,D-X2Y2,D-XY,D-XZ,D-YZ 
:QTL001: 1.9432 4.5717 0.6941 4.5639 2.7236 2.6679 2.6583 0.1276 0.1448 0.1623 0.1580 0.1302
        Q-s-low E-s-low   Q-p-low E-p-low   Q-d-low E-d-low   Q-f-low E-f-low
:EPL001:  1.8813 -2.0226    4.4778 -0.1081    0.0350 -0.0014    0.0170  0.0131
        Q-s-hi  E-s-hi    Q-p-hi  E-p-hi    Q-d-hi  E-d-hi    Q-f-hi  E-f-hi 
:EPH001:  0.0619  1.1878    0.0939  1.2202    0.6591  1.2126    4.5468  1.2989

                      QXX         QXY         QYY         QZZ       UP TO R

:VZZ001:             5.59478   -15.78210    -7.49668     1.90190       2.150

:CHA002: TOTAL CHARGE INSIDE SPHERE   2 =    11.693557
:PCS002: PARTIAL CHARGES SPHERE =  2 S,P,D,F,PX,PY,PZ,D-Z2,D-X2Y2,D-XY,D-XZ,D-YZ 
:QTL002: 1.9488 4.5896 0.6125 4.5378 2.6549 2.7439 2.7182 0.1230 0.1243 0.1210 0.1230 0.1435
        Q-s-low E-s-low   Q-p-low E-p-low   Q-d-low E-d-low   Q-f-low E-f-low
:EPL002:  1.8792 -2.0257    4.4826 -0.1049    0.0246  0.0135    0.0117  0.0258
        Q-s-hi  E-s-hi    Q-p-hi  E-p-hi    Q-d-hi  E-d-hi    Q-f-hi  E-f-hi 
:EPH002:  0.0696  1.1818    0.1070  1.2201    0.5879  1.2162    4.5261  1.3010

                      QXX         QXY         QYY         QZZ       UP TO R

:VZZ002:           -25.79473    14.82171    15.10274    10.69199       2.150

:CHA003: TOTAL CHARGE INSIDE SPHERE   3 =    11.706457
:PCS003: PARTIAL CHARGES SPHERE =  3 S,P,D,F,PX,PY,PZ,D-Z2,D-X2Y2,D-XY,D-XZ,D-YZ 
:QTL003: 1.9480 4.5805 0.6286 4.5445 2.6983 2.6741 2.7128 0.1257 0.1356 0.1221 0.1391 0.1292
        Q-s-low E-s-low   Q-p-low E-p-low   Q-d-low E-d-low   Q-f-low E-f-low
:EPL003:  1.8793 -2.0231    4.4790 -0.1036    0.0258  0.0172    0.0124  0.0387
        Q-s-hi  E-s-hi    Q-p-hi  E-p-hi    Q-d-hi  E-d-hi    Q-f-hi  E-f-hi 
:EPH003:  0.0687  1.1785    0.1015  1.2240    0.6028  1.2164    4.5322  1.2965

                      QXX         QXY         QYY         QZZ       UP TO R

:VZZ003:            -4.28418   -14.11015     2.85160     1.43259       2.150

:CHA004: TOTAL CHARGE INSIDE SPHERE   4 =    11.687952
:PCS004: PARTIAL CHARGES SPHERE =  4 S,P,D,F,PX,PY,PZ,D-Z2,D-X2Y2,D-XY,D-XZ,D-YZ 
:QTL004: 1.9509 4.5902 0.6099 4.5324 2.7074 2.7027 2.7065 0.1232 0.1223 0.1269 0.1237 0.1351
        Q-s-low E-s-low   Q-p-low E-p-low   Q-d-low E-d-low   Q-f-low E-f-low
:EPL004:  1.8786 -2.0251    4.4759 -0.1049    0.0230  0.0105    0.0110  0.0310
        Q-s-hi  E-s-hi    Q-p-hi  E-p-hi    Q-d-hi  E-d-hi    Q-f-hi  E-f-hi 
:EPH004:  0.0723  1.1809    0.1142  1.2213    0.5869  1.2156    4.5214  1.2983

                      QXX         QXY         QYY         QZZ       UP TO R

:VZZ004:            -2.39418    12.77747     2.25958     0.13460       2.150

:CHA005: TOTAL CHARGE INSIDE SPHERE   5 =    11.682004
:PCS005: PARTIAL CHARGES SPHERE =  5 S,P,D,F,PX,PY,PZ,D-Z2,D-X2Y2,D-XY,D-XZ,D-YZ 
:QTL005: 1.9493 4.5933 0.6121 4.5228 2.6503 2.7574 2.7200 0.1230 0.1218 0.1230 0.1210 0.1450
        Q-s-low E-s-low   Q-p-low E-p-low   Q-d-low E-d-low   Q-f-low E-f-low
:EPL005:  1.8788 -2.0244    4.4807 -0.1028    0.0231  0.0130    0.0110  0.0262
        Q-s-hi  E-s-hi    Q-p-hi  E-p-hi    Q-d-hi  E-d-hi    Q-f-hi  E-f-hi 
:EPH005:  0.0705  1.1796    0.1125  1.2218    0.5890  1.2168    4.5118  1.3028

                      QXX         QXY         QYY         QZZ       UP TO R

:VZZ005:           -41.31961     5.68520    28.48889    12.83073       2.150

:CHA006: TOTAL CHARGE INSIDE SPHERE   6 =    11.669832
:PCS006: PARTIAL CHARGES SPHERE =  6 S,P,D,F,PX,PY,PZ,D-Z2,D-X2Y2,D-XY,D-XZ,D-YZ 
:QTL006: 1.9504 4.5855 0.5944 4.5354 2.7086 2.6983 2.7172 0.1150 0.1166 0.1290 0.1243 0.1301
        Q-s-low E-s-low   Q-p-low E-p-low   Q-d-low E-d-low   Q-f-low E-f-low
:EPL006:  1.8782 -2.0256    4.4830 -0.1028    0.0212  0.0196    0.0099  0.0393
        Q-s-hi  E-s-hi    Q-p-hi  E-p-hi    Q-d-hi  E-d-hi    Q-f-hi  E-f-hi 
:EPH006:  0.0723  1.1711    0.1025  1.2207    0.5732  1.2167    4.5255  1.3015

                      QXX         QXY         QYY         QZZ       UP TO R

:VZZ006:            -9.93531   -10.11637     0.76858     9.16673       2.150

:CHA007: TOTAL CHARGE INSIDE SPHERE   7 =    11.711894
:PCS007: PARTIAL CHARGES SPHERE =  7 S,P,D,F,PX,PY,PZ,D-Z2,D-X2Y2,D-XY,D-XZ,D-YZ 
:QTL007: 1.9463 4.5883 0.6275 4.5443 2.7317 2.6901 2.7168 0.1282 0.1110 0.1390 0.1485 0.1250
        Q-s-low E-s-low   Q-p-low E-p-low   Q-d-low E-d-low   Q-f-low E-f-low
:EPL007:  1.8799 -2.0227    4.4824 -0.1033    0.0275  0.0006    0.0135  0.0164
        Q-s-hi  E-s-hi    Q-p-hi  E-p-hi    Q-d-hi  E-d-hi    Q-f-hi  E-f-hi 
:EPH007:  0.0664  1.1758    0.1059  1.2181    0.6000  1.2157    4.5309  1.2947

                      QXX         QXY         QYY         QZZ       UP TO R

:VZZ007:             5.08213     9.82051   -14.93654     9.85441       2.150

:CHA008: TOTAL CHARGE INSIDE SPHERE   8 =    11.600499
:PCS008: PARTIAL CHARGES SPHERE =  8 S,P,D,F,PX,PY,PZ,D-Z2,D-X2Y2,D-XY,D-XZ,D-YZ 
:QTL008: 1.9511 4.6134 0.5039 4.5293 2.6917 2.7620 2.7677 0.1093 0.0900 0.0999 0.1032 0.1161
        Q-s-low E-s-low   Q-p-low E-p-low   Q-d-low E-d-low   Q-f-low E-f-low
:EPL008:  1.8762 -2.0258    4.4894 -0.0981    0.0124  0.0291    0.0056  0.0390
        Q-s-hi  E-s-hi    Q-p-hi  E-p-hi    Q-d-hi  E-d-hi    Q-f-hi  E-f-hi 
:EPH008:  0.0749  1.1722    0.1240  1.2164    0.4916  1.2181    4.5237  1.2984

                      QXX         QXY         QYY         QZZ       UP TO R

:VZZ008:           -42.45782     5.02993    27.86102    14.59680       2.150

:CHA  : TOTAL CHARGE INSIDE UNIT CELL =     256.000000

:ESUM  : SUM OF EIGENVALUES =          89.574977687


------- alpha_Pu_5.scfc --------

        1.ATOM      Pu  0+               21 CORE STATES
       CORE-FORCE in mRy/a.u. = |F|      Fx             Fy             Fz
:FCO001:   1.ATOM       3091.727      -2906.479      -1054.114          0.000

:1S 001: 1S               -8966.411455666 Ry
:2S 001: 2S               -1687.084612336 Ry
:2PP001: 2P*              -1627.777988082 Ry
:2P 001: 2P               -1314.626788763 Ry
:3S 001: 3S                -427.627630644 Ry
:3PP001: 3P*               -400.703165576 Ry
:3P 001: 3P                -328.141915388 Ry
:3DD001: 3D*               -285.901712343 Ry
:3D 001: 3D                -271.359533371 Ry
:4S 001: 4S                -109.108295214 Ry
:4PP001: 4P*                -96.920458633 Ry
:4P 001: 4P                 -77.774995611 Ry
:4DD001: 4D*                -58.487595896 Ry
:4D 001: 4D                 -54.992993558 Ry
:5S 001: 5S                 -23.262695550 Ry
:5PP001: 5P*                -18.444644698 Ry
:5P 001: 5P                 -13.755164356 Ry
:4FF001: 4F*                -29.593151640 Ry
:4F 001: 4F                 -28.665066782 Ry
:5DD001: 5D*                 -6.719075589 Ry
:5D 001: 5D                  -6.019815459 Ry

        2.ATOM      Pu  0+               21 CORE STATES
       CORE-FORCE in mRy/a.u. = |F|      Fx             Fy             Fz
:FCO002:   2.ATOM       1348.224        181.607      -1335.937          0.000

:1S 002: 1S               -8966.408629761 Ry
:2S 002: 2S               -1687.082365918 Ry
:2PP002: 2P*              -1627.775737327 Ry
:2P 002: 2P               -1314.624549768 Ry
:3S 002: 3S                -427.624451036 Ry
:3PP002: 3P*               -400.700032088 Ry
:3P 002: 3P                -328.138727700 Ry
:3DD002: 3D*               -285.898694846 Ry
:3D 002: 3D                -271.356476095 Ry
:4S 002: 4S                -109.105463712 Ry
:4PP002: 4P*                -96.917627714 Ry
:4P 002: 4P                 -77.772260907 Ry
:4DD002: 4D*                -58.484870853 Ry
:4D 002: 4D                 -54.990293262 Ry
:5S 002: 5S                 -23.260732996 Ry
:5PP002: 5P*                -18.442791750 Ry
:5P 002: 5P                 -13.753679777 Ry
:4FF002: 4F*                -29.590310187 Ry
:4F 002: 4F                 -28.662240257 Ry
:5DD002: 5D*                 -6.718032086 Ry
:5D 002: 5D                  -6.018907864 Ry

        3.ATOM      Pu  0+               21 CORE STATES
       CORE-FORCE in mRy/a.u. = |F|      Fx             Fy             Fz
:FCO003:   3.ATOM       5574.374      -4129.381      -3744.578          0.000

:1S 003: 1S               -8966.406941544 Ry
:2S 003: 2S               -1687.080338234 Ry
:2PP003: 2P*              -1627.773763707 Ry
:2P 003: 2P               -1314.622523044 Ry
:3S 003: 3S                -427.622396409 Ry
:3PP003: 3P*               -400.697982439 Ry
:3P 003: 3P                -328.136671993 Ry
:3DD003: 3D*               -285.896620410 Ry
:3D 003: 3D                -271.354401810 Ry
:4S 003: 4S                -109.103368891 Ry
:4PP003: 4P*                -96.915533676 Ry
:4P 003: 4P                 -77.770155317 Ry
:4DD003: 4D*                -58.482760356 Ry
:4D 003: 4D                 -54.988179228 Ry
:5S 003: 5S                 -23.258505264 Ry
:5PP003: 5P*                -18.440555909 Ry
:5P 003: 5P                 -13.751415957 Ry
:4FF003: 4F*                -29.588201182 Ry
:4F 003: 4F                 -28.660129589 Ry
:5DD003: 5D*                 -6.715737600 Ry
:5D 003: 5D                  -6.016604833 Ry

        4.ATOM      Pu  0+               21 CORE STATES
       CORE-FORCE in mRy/a.u. = |F|      Fx             Fy             Fz
:FCO004:   4.ATOM       3062.838       3011.044        560.886          0.000

:1S 004: 1S               -8966.406991951 Ry
:2S 004: 2S               -1687.080926644 Ry
:2PP004: 2P*              -1627.774265570 Ry
:2P 004: 2P               -1314.623112714 Ry
:3S 004: 3S                -427.623110372 Ry
:3PP004: 3P*               -400.698684218 Ry
:3P 004: 3P                -328.137390341 Ry
:3DD004: 3D*               -285.897353937 Ry
:3D 004: 3D                -271.355138714 Ry
:4S 004: 4S                -109.104145547 Ry
:4PP004: 4P*                -96.916308930 Ry
:4P 004: 4P                 -77.770948091 Ry
:4DD004: 4D*                -58.483559946 Ry
:4D 004: 4D                 -54.988984579 Ry
:5S 004: 5S                 -23.259497333 Ry
:5PP004: 5P*                -18.441559214 Ry
:5P 004: 5P                 -13.752457584 Ry
:4FF004: 4F*                -29.589007085 Ry
:4F 004: 4F                 -28.660937958 Ry
:5DD004: 5D*                 -6.716815659 Ry
:5D 004: 5D                  -6.017692630 Ry

        5.ATOM      Pu  0+               21 CORE STATES
       CORE-FORCE in mRy/a.u. = |F|      Fx             Fy             Fz
:FCO005:   5.ATOM       1902.827       -966.850      -1638.887          0.000

:1S 005: 1S               -8966.407572007 Ry
:2S 005: 2S               -1687.081635949 Ry
:2PP005: 2P*              -1627.774932104 Ry
:2P 005: 2P               -1314.623817972 Ry
:3S 005: 3S                -427.624044473 Ry
:3PP005: 3P*               -400.699603914 Ry
:3P 005: 3P                -328.138327005 Ry
:3DD005: 3D*               -285.898267641 Ry
:3D 005: 3D                -271.356061099 Ry
:4S 005: 4S                -109.105037004 Ry
:4PP005: 4P*                -96.917199556 Ry
:4P 005: 4P                 -77.771826214 Ry
:4DD005: 4D*                -58.484439836 Ry
:4D 005: 4D                 -54.989861714 Ry
:5S 005: 5S                 -23.260286766 Ry
:5PP005: 5P*                -18.442323375 Ry
:5P 005: 5P                 -13.753133715 Ry
:4FF005: 4F*                -29.589911159 Ry
:4F 005: 4F                 -28.661840020 Ry
:5DD005: 5D*                 -6.717350871 Ry
:5D 005: 5D                  -6.018179546 Ry

        6.ATOM      Pu  0+               21 CORE STATES
       CORE-FORCE in mRy/a.u. = |F|      Fx             Fy             Fz
:FCO006:   6.ATOM       5319.840      -4338.312      -3078.919          0.000

:1S 006: 1S               -8966.406752436 Ry
:2S 006: 2S               -1687.080275548 Ry
:2PP006: 2P*              -1627.773725112 Ry
:2P 006: 2P               -1314.622464716 Ry
:3S 006: 3S                -427.621854675 Ry
:3PP006: 3P*               -400.697466238 Ry
:3P 006: 3P                -328.136125566 Ry
:3DD006: 3D*               -285.896150137 Ry
:3D 006: 3D                -271.353911695 Ry
:4S 006: 4S                -109.102977139 Ry
:4PP006: 4P*                -96.915142655 Ry
:4P 006: 4P                 -77.769805580 Ry
:4DD006: 4D*                -58.482413246 Ry
:4D 006: 4D                 -54.987842378 Ry
:5S 006: 5S                 -23.258468807 Ry
:5PP006: 5P*                -18.440567804 Ry
:5P 006: 5P                 -13.751589575 Ry
:4FF006: 4F*                -29.587796846 Ry
:4F 006: 4F                 -28.659731728 Ry
:5DD006: 5D*                 -6.716102916 Ry
:5D 006: 5D                  -6.017029043 Ry

        7.ATOM      Pu  0+               21 CORE STATES
       CORE-FORCE in mRy/a.u. = |F|      Fx             Fy             Fz
:FCO007:   7.ATOM       5192.783       3490.551      -3844.613          0.000

:1S 007: 1S               -8966.406311453 Ry
:2S 007: 2S               -1687.079917521 Ry
:2PP007: 2P*              -1627.773291101 Ry
:2P 007: 2P               -1314.622097084 Ry
:3S 007: 3S                -427.622136981 Ry
:3PP007: 3P*               -400.697710545 Ry
:3P 007: 3P                -328.136415527 Ry
:3DD007: 3D*               -285.896354527 Ry
:3D 007: 3D                -271.354142041 Ry
:4S 007: 4S                -109.103127369 Ry
:4PP007: 4P*                -96.915290812 Ry
:4P 007: 4P                 -77.769916136 Ry
:4DD007: 4D*                -58.482523309 Ry
:4D 007: 4D                 -54.987943938 Ry
:5S 007: 5S                 -23.258331714 Ry
:5PP007: 5P*                -18.440383382 Ry
:5P 007: 5P                 -13.751249295 Ry
:4FF007: 4F*                -29.587977937 Ry
:4F 007: 4F                 -28.659906767 Ry
:5DD007: 5D*                 -6.715586497 Ry
:5D 007: 5D                  -6.016460126 Ry

        8.ATOM      Pu  0+               21 CORE STATES
       CORE-FORCE in mRy/a.u. = |F|      Fx             Fy             Fz
:FCO008:   8.ATOM       1001.232       -939.843       -345.195          0.000

:1S 008: 1S               -8966.396529910 Ry
:2S 008: 2S               -1687.070306477 Ry
:2PP008: 2P*              -1627.763828417 Ry
:2P 008: 2P               -1314.612495700 Ry
:3S 008: 3S                -427.610407044 Ry
:3PP008: 3P*               -400.686093130 Ry
:3P 008: 3P                -328.124667208 Ry
:3DD008: 3D*               -285.884914763 Ry
:3D 008: 3D                -271.342617248 Ry
:4S 008: 4S                -109.092134623 Ry
:4PP008: 4P*                -96.904300106 Ry
:4P 008: 4P                 -77.759123157 Ry
:4DD008: 4D*                -58.471733357 Ry
:4D 008: 4D                 -54.977204007 Ry
:5S 008: 5S                 -23.249074722 Ry
:5PP008: 5P*                -18.431376809 Ry
:5P 008: 5P                 -13.743091763 Ry
:4FF008: 4F*                -29.576932776 Ry
:4F 008: 4F                 -28.648892590 Ry
:5DD008: 5D*                 -6.708527015 Ry
:5D 008: 5D                  -6.009754438 Ry

------- alpha_Pu_5.scfm --------

       DENSITY AT NUCLEUS
        JATOM    VALENCE       SEMI-CORE            CORE           TOTAL
:RTO001:   1    23384.384942        0.000000 45141827.684932 45165212.069875
:RTO002:   2    23496.348740        0.000000 45141820.086844 45165316.435584
:RTO003:   3    23481.113009        0.000000 45141822.286047 45165303.399055
:RTO004:   4    23537.834356        0.000000 45141818.478456 45165356.312812
:RTO005:   5    23511.483367        0.000000 45141818.835408 45165330.318776
:RTO006:   6    23529.857139        0.000000 45141819.685168 45165349.542307
:RTO007:   7    23448.541615        0.000000 45141820.948349 45165269.489964
:RTO008:   8    23535.274488        0.000000 45141809.470986 45165344.745474
     
       CHARGES OF NEW CHARGE DENSITY
:NTO  : TOTAL   INTERSTITIAL CHARGE=   68.9366170
:NTO001: TOTAL   CHARGE IN SPHERE  1 =       89.7701863
:NTO002: TOTAL   CHARGE IN SPHERE  2 =       89.6843092
:NTO003: TOTAL   CHARGE IN SPHERE  3 =       89.6972048
:NTO004: TOTAL   CHARGE IN SPHERE  4 =       89.6787049
:NTO005: TOTAL   CHARGE IN SPHERE  5 =       89.6727685
:NTO006: TOTAL   CHARGE IN SPHERE  6 =       89.6605892
:NTO007: TOTAL   CHARGE IN SPHERE  7 =       89.7026370
:NTO008: TOTAL   CHARGE IN SPHERE  8 =       89.5912399

:NEC01: NUCLEAR AND ELECTRONIC CHARGE   1504.00000  1503.85190     1.00010
     
       CHARGES OF OLD CHARGE DENSITY
:OTO  : TOTAL   INTERSTITIAL CHARGE=   69.4276043
:OTO001: TOTAL   CHARGE IN SPHERE  1 =       89.7422800
:OTO002: TOTAL   CHARGE IN SPHERE  2 =       89.6625801
:OTO003: TOTAL   CHARGE IN SPHERE  3 =       89.6743558
:OTO004: TOTAL   CHARGE IN SPHERE  4 =       89.6586760
:OTO005: TOTAL   CHARGE IN SPHERE  5 =       89.6539171
:OTO006: TOTAL   CHARGE IN SPHERE  6 =       89.6391999
:OTO007: TOTAL   CHARGE IN SPHERE  7 =       89.6803445
:OTO008: TOTAL   CHARGE IN SPHERE  8 =       89.5748444

:NEC02: NUCLEAR AND ELECTRONIC CHARGE   1504.00000  1504.00000     1.00000
     
       CONVERGENCE TEST
:DTO001: TOTAL   DIFFERENCE CHARGE**2 IN SPHERE  1 =  0.0286812
:DTO002: TOTAL   DIFFERENCE CHARGE**2 IN SPHERE  2 =  0.0236590
:DTO003: TOTAL   DIFFERENCE CHARGE**2 IN SPHERE  3 =  0.0244569
:DTO004: TOTAL   DIFFERENCE CHARGE**2 IN SPHERE  4 =  0.0221113
:DTO005: TOTAL   DIFFERENCE CHARGE**2 IN SPHERE  5 =  0.0217066
:DTO006: TOTAL   DIFFERENCE CHARGE**2 IN SPHERE  6 =  0.0235475
:DTO007: TOTAL   DIFFERENCE CHARGE**2 IN SPHERE  7 =  0.0239619
:DTO008: TOTAL   DIFFERENCE CHARGE**2 IN SPHERE  8 =  0.0184071

:DIS  :  CHARGE DISTANCE       ( 0.0286812 for atom    1 spin 1)      0.0233164
:BIG check (qbig,qrms,qtot)    0.956D-02   0.166D-01   0.233D-01
 
******************************************************
* MULTISECANT MIXING VER4 OPTIONS                    *
* Unpredicted Step Limit   0.100000                  *
* Plane Wave Dynamic Rescaling                       *
* Dynamic Regularization active                      *
* Upper Cutoff Lambda  1.0E-01 Lower 3.5E-04         *
* SQRT Multiplicity/Degeneracy                       *
* Max Number of Memory Steps    8                    *
******************************************************
 
:PLANE:  INTERSTITIAL TOTAL      7.55637 DISTAN  1.359E-01 % 
:CHARG:  CLM CHARGE   /ATOM    356.61290 DISTAN  7.807E-03 % 
:MIX  :  PRATT  REGULARIZATION: 3.50E-04  GREED: 0.035
     
       CHARGES OF MIXED CHARGE DENSITY
:CTO  : TOTAL   INTERSTITIAL CHARGE=   69.4156034
:CTO001: TOTAL   CHARGE IN SPHERE  1 =       89.7432568
:CTO002: TOTAL   CHARGE IN SPHERE  2 =       89.6633406
:CTO003: TOTAL   CHARGE IN SPHERE  3 =       89.6751555
:CTO004: TOTAL   CHARGE IN SPHERE  4 =       89.6593770
:CTO005: TOTAL   CHARGE IN SPHERE  5 =       89.6545769
:CTO006: TOTAL   CHARGE IN SPHERE  6 =       89.6399486
:CTO007: TOTAL   CHARGE IN SPHERE  7 =       89.6811247
:CTO008: TOTAL   CHARGE IN SPHERE  8 =       89.5754182

:NEC03: NUCLEAR AND ELECTRONIC CHARGE   1504.00000  1504.00000     1.00000


:ENE  : ********** TOTAL ENERGY IN Ry =      -949675.86444592

       TOTAL FORCE IN mRy/a.u. = |F|     Fx             Fy             Fz     with/without FOR in case.in2
:FOR001:   1.ATOM         95.850         95.610         -6.779          0.000 partial forces
:FOR002:   2.ATOM         77.095        -67.071         38.015          0.000 partial forces
:FOR003:   3.ATOM         81.543         57.065         58.248          0.000 partial forces
:FOR004:   4.ATOM         64.024        -47.697        -42.709          0.000 partial forces
:FOR005:   5.ATOM         36.470         36.047         -5.537          0.000 partial forces
:FOR006:   6.ATOM         66.141         49.756         43.577          0.000 partial forces
:FOR007:   7.ATOM        139.962       -139.320        -13.392          0.000 partial forces
:FOR008:   8.ATOM         61.050         36.183         49.172          0.000 partial forces

       TOTAL FORCE WITH RESPECT TO GLOBAL CARTESIAN COORDINATES:
:FCA001:   1.ATOM                        -6.779          0.000         95.610 partial forces
:FCA002:   2.ATOM                        38.015          0.000        -67.071 partial forces
:FCA003:   3.ATOM                        58.248          0.000         57.065 partial forces
:FCA004:   4.ATOM                       -42.709          0.000        -47.697 partial forces
:FCA005:   5.ATOM                        -5.537          0.000         36.047 partial forces
:FCA006:   6.ATOM                        43.577          0.000         49.756 partial forces
:FCA007:   7.ATOM                       -13.392          0.000       -139.320 partial forces
:FCA008:   8.ATOM                        49.172          0.000         36.183 partial forces

       TOTAL FORCE WITH RESPECT TO THE GLOBAL COORDINATE SYSTEM:
:FGL001:   1.ATOM                -6.925022675     0.000000000    94.195398274 partial forces
:FGL002:   2.ATOM                38.833860005     0.000000000   -59.138254077 partial forces
:FGL003:   3.ATOM                59.502687822     0.000000000    69.219848995 partial forces
:FGL004:   4.ATOM               -43.628970852     0.000000000   -56.609262150 partial forces
:FGL005:   5.ATOM                -5.656269442     0.000000000    34.891571507 partial forces
:FGL006:   6.ATOM                44.515667958     0.000000000    58.849391269 partial forces
:FGL007:   7.ATOM               -13.680469635     0.000000000  -142.114563551 partial forces
:FGL008:   8.ATOM                50.231186746     0.000000000    46.443922860 partial forces

------- alpha_Pu_5.scf0 --------


            ---------
:ITE085: 85. ITERATION
            ---------

:NATO :    8 INDEPENDENT AND   16 TOTAL ATOMS IN UNITCELL
       SUBSTANCE: alpha_Pu                                                    

       LATTICE                      = P   
:POT  : POTENTIAL OPTION    5
:LAT  : LATTICE CONSTANTS= 11.87350  9.26314 21.05981    1.571    1.777    1.571
:VOL  : UNIT CELL VOLUME =    2267.43993
       MODE OF CALCULATION IS       = RELA
       NON-SPINPOLARIZED CALCULATION
:IFFT  : FFT-parameters:   96   72  180 Factor: 2.00
       ATOMNUMBER=  1 Pu  0+     VCOUL-ZERO =  0.50467E+00
:EFG001:                        EFG         =   -18.06014   *10**21  V / m**2
                               V20  TOT/SRF=     1.66972    -0.06781
                               V22  TOT/SRF=     6.56738     0.07346
                               V22M TOT/SRF=   -15.78440    -0.05256
                               V21  TOT/SRF=     0.00000     0.00000
                               V21M TOT/SRF=     0.00000     0.00000

              5.60337  -15.78440    0.00000       16.13212    0.00000    0.00000
            -15.78440   -7.53139    0.00000        0.00000  -18.06014    0.00000
              0.00000    0.00000    1.92802        0.00000    0.00000    1.92802

         MAIN DIRECTIONS OF THE EFG   1.0000  0.6670  0.0000
                                     -0.6670  1.0000  0.0000
                                      0.0000  0.0000  1.0000
:ANG001:  ANGLE WITH OLD X-AXIS =        33.7

:ETA001:                         ASYMM. ETA =     0.78649


       ATOMNUMBER=  2 Pu  0+     VCOUL-ZERO =  0.50752E+00
:EFG002:                        EFG         =   -30.65407   *10**21  V / m**2
                               V20  TOT/SRF=     9.32049     0.01286
                               V22  TOT/SRF=   -20.38927    -0.06135
                               V22M TOT/SRF=    14.93305     0.04852
                               V21  TOT/SRF=     0.00000     0.00000
                               V21M TOT/SRF=     0.00000     0.00000

            -25.77046   14.93305    0.00000      -30.65407    0.00000    0.00000
             14.93305   15.00808    0.00000        0.00000   19.89169    0.00000
              0.00000    0.00000   10.76238        0.00000    0.00000   10.76238

         MAIN DIRECTIONS OF THE EFG   1.0000  0.3270  0.0000
                                     -0.3270  1.0000  0.0000
                                      0.0000  0.0000  1.0000
:ANG002:  ANGLE WITH OLD X-AXIS =        18.1

:ETA002:                         ASYMM. ETA =     0.29782


       ATOMNUMBER=  3 Pu  0+     VCOUL-ZERO =  0.50936E+00
:EFG003:                        EFG         =   -15.31683   *10**21  V / m**2
                               V20  TOT/SRF=     1.39952    -0.00075
                               V22  TOT/SRF=    -3.49401    -0.00197
                               V22M TOT/SRF=   -14.08182    -0.00468
                               V21  TOT/SRF=     0.00000     0.00000
                               V21M TOT/SRF=     0.00000     0.00000

             -4.30202  -14.08182    0.00000      -15.31683    0.00000    0.00000
            -14.08182    2.68600    0.00000        0.00000   13.70080    0.00000
              0.00000    0.00000    1.61602        0.00000    0.00000    1.61602

         MAIN DIRECTIONS OF THE EFG   1.0000 -0.7822  0.0000
                                      0.7822  1.0000  0.0000
                                      0.0000  0.0000  1.0000
:ANG003:  ANGLE WITH OLD X-AXIS =        38.0

:ETA003:                         ASYMM. ETA =     0.78899


       ATOMNUMBER=  4 Pu  0+     VCOUL-ZERO =  0.50901E+00
:EFG004:                        EFG         =   -13.34591   *10**21  V / m**2
                               V20  TOT/SRF=     0.23478    -0.01243
                               V22  TOT/SRF=    -2.37125     0.01228
                               V22M TOT/SRF=    12.99580     0.01876
                               V21  TOT/SRF=     0.00000     0.00000
                               V21M TOT/SRF=     0.00000     0.00000

             -2.50680   12.99580    0.00000      -13.34591    0.00000    0.00000
             12.99580    2.23570    0.00000        0.00000   13.07481    0.00000
              0.00000    0.00000    0.27110        0.00000    0.00000    0.27110

         MAIN DIRECTIONS OF THE EFG   1.0000  0.8340  0.0000
                                     -0.8340  1.0000  0.0000
                                      0.0000  0.0000  1.0000
:ANG004:  ANGLE WITH OLD X-AXIS =        39.8

:ETA004:                         ASYMM. ETA =     0.95937


       ATOMNUMBER=  5 Pu  0+     VCOUL-ZERO =  0.51137E+00
:EFG005:                        EFG         =   -42.21514   *10**21  V / m**2
                               V20  TOT/SRF=    11.21569     0.01141
                               V22  TOT/SRF=   -35.27595    -0.08323
                               V22M TOT/SRF=     5.73912     0.03311
                               V21  TOT/SRF=     0.00000     0.00000
                               V21M TOT/SRF=     0.00000     0.00000

            -41.75133    5.73912    0.00000      -42.21514    0.00000    0.00000
              5.73912   28.80057    0.00000        0.00000   29.26438    0.00000
              0.00000    0.00000   12.95076        0.00000    0.00000   12.95076

         MAIN DIRECTIONS OF THE EFG   1.0000  0.0808  0.0000
                                     -0.0808  1.0000  0.0000
                                      0.0000  0.0000  1.0000
:ANG005:  ANGLE WITH OLD X-AXIS =         4.6

:ETA005:                         ASYMM. ETA =     0.38644


       ATOMNUMBER=  6 Pu  0+     VCOUL-ZERO =  0.51011E+00
:EFG006:                        EFG         =   -15.81177   *10**21  V / m**2
                               V20  TOT/SRF=     7.82296     0.00045
                               V22  TOT/SRF=    -5.13085    -0.00432
                               V22M TOT/SRF=   -10.06258    -0.04501
                               V21  TOT/SRF=     0.00000     0.00000
                               V21M TOT/SRF=     0.00000     0.00000

             -9.64744  -10.06258    0.00000      -15.81177    0.00000    0.00000
            -10.06258    0.61426    0.00000        0.00000    6.77859    0.00000
              0.00000    0.00000    9.03318        0.00000    0.00000    9.03318

         MAIN DIRECTIONS OF THE EFG   1.0000 -0.6126  0.0000
                                      0.6126  1.0000  0.0000
                                      0.0000  0.0000  1.0000
:ANG006:  ANGLE WITH OLD X-AXIS =        31.5

:ETA006:                         ASYMM. ETA =     0.14259


       ATOMNUMBER=  7 Pu  0+     VCOUL-ZERO =  0.50798E+00
:EFG007:                        EFG         =   -18.87927   *10**21  V / m**2
                               V20  TOT/SRF=     8.71308    -0.00260
                               V22  TOT/SRF=    10.04528     0.06032
                               V22M TOT/SRF=     9.53314     0.01016
                               V21  TOT/SRF=     0.00000     0.00000
                               V21M TOT/SRF=     0.00000     0.00000

              5.01478    9.53314    0.00000        8.81827    0.00000    0.00000
              9.53314  -15.07578    0.00000        0.00000  -18.87927    0.00000
              0.00000    0.00000   10.06100        0.00000    0.00000   10.06100

         MAIN DIRECTIONS OF THE EFG   1.0000 -0.3990  0.0000
                                      0.3990  1.0000  0.0000
                                      0.0000  0.0000  1.0000
:ANG007:  ANGLE WITH OLD X-AXIS =        21.8

:ETA007:                         ASYMM. ETA =     0.06582


       ATOMNUMBER=  8 Pu  0+     VCOUL-ZERO =  0.50898E+00
:EFG008:                        EFG         =   -42.75233   *10**21  V / m**2
                               V20  TOT/SRF=    12.47613     0.02613
                               V22  TOT/SRF=   -35.21470    -0.03298
                               V22M TOT/SRF=     4.86552    -0.00197
                               V21  TOT/SRF=     0.00000     0.00000
                               V21M TOT/SRF=     0.00000     0.00000

            -42.41780    4.86552    0.00000      -42.75233    0.00000    0.00000
              4.86552   28.01160    0.00000        0.00000   28.34614    0.00000
              0.00000    0.00000   14.40619        0.00000    0.00000   14.40619

         MAIN DIRECTIONS OF THE EFG   1.0000  0.0688  0.0000
                                     -0.0688  1.0000  0.0000
                                      0.0000  0.0000  1.0000
:ANG008:  ANGLE WITH OLD X-AXIS =         3.9

:ETA008:                         ASYMM. ETA =     0.32606


     HELLMANN-FEYNMAN-FORCE IN mRy/a.u. = |F|  Fx       Fy             Fz
:FHF001:   1.ATOM       3178.685       3000.820       1048.389          0.000

     HELLMANN-FEYNMAN-FORCE IN mRy/a.u. = |F|  Fx       Fy             Fz
:FHF002:   2.ATOM       1392.910       -249.364       1370.407          0.000

     HELLMANN-FEYNMAN-FORCE IN mRy/a.u. = |F|  Fx       Fy             Fz
:FHF003:   3.ATOM       5654.146       4183.697       3803.426          0.000

     HELLMANN-FEYNMAN-FORCE IN mRy/a.u. = |F|  Fx       Fy             Fz
:FHF004:   4.ATOM       3118.556      -3059.356       -604.759          0.000

     HELLMANN-FEYNMAN-FORCE IN mRy/a.u. = |F|  Fx       Fy             Fz
:FHF005:   5.ATOM       1916.199       1002.653       1632.943          0.000

     HELLMANN-FEYNMAN-FORCE IN mRy/a.u. = |F|  Fx       Fy             Fz
:FHF006:   6.ATOM       5385.510       4388.067       3122.273          0.000

     HELLMANN-FEYNMAN-FORCE IN mRy/a.u. = |F|  Fx       Fy             Fz
:FHF007:   7.ATOM       5277.672      -3627.849       3833.084          0.000

     HELLMANN-FEYNMAN-FORCE IN mRy/a.u. = |F|  Fx       Fy             Fz
:FHF008:   8.ATOM       1052.477        976.718        392.084          0.000

:FIT001: LUSE= 13 SIGMA OF V-XC FIT FOR ATOM  1  0.2263615E-03
:FIT001: LUSE= 13 SIGMA OF V-XC FIT FOR ATOM  1  0.2263615E-03
:FIT002: LUSE= 13 SIGMA OF V-XC FIT FOR ATOM  2  0.1187551E-03
:FIT002: LUSE= 13 SIGMA OF V-XC FIT FOR ATOM  2  0.1187551E-03
:FIT003: LUSE= 13 SIGMA OF V-XC FIT FOR ATOM  3  0.1287036E-03
:FIT003: LUSE= 13 SIGMA OF V-XC FIT FOR ATOM  3  0.1287036E-03
:FIT004: LUSE= 13 SIGMA OF V-XC FIT FOR ATOM  4  0.1330733E-03
:FIT004: LUSE= 13 SIGMA OF V-XC FIT FOR ATOM  4  0.1330733E-03
:FIT005: LUSE= 13 SIGMA OF V-XC FIT FOR ATOM  5  0.1034875E-03
:FIT005: LUSE= 13 SIGMA OF V-XC FIT FOR ATOM  5  0.1034875E-03
[...]

                      QXX         QXY         QYY         QZZ       UP TO R

:VZZ003:            -4.42534   -13.81019     3.00942     1.41592       2.150

:CHA004: TOTAL CHARGE INSIDE SPHERE   4 =    11.679573
:PCS004: PARTIAL CHARGES SPHERE =  4 S,P,D,F,PX,PY,PZ,D-Z2,D-X2Y2,D-XY,D-XZ,D-YZ 
:QTL004: 1.9503 4.5860 0.6073 4.5314 2.7032 2.6989 2.7023 0.1228 0.1217 0.1263 0.1232 0.1346
        Q-s-low E-s-low   Q-p-low E-p-low   Q-d-low E-d-low   Q-f-low E-f-low
:EPL004:  1.8783 -2.0202    4.4715 -0.1023    0.0232  0.0131    0.0110  0.0333
        Q-s-hi  E-s-hi    Q-p-hi  E-p-hi    Q-d-hi  E-d-hi    Q-f-hi  E-f-hi 
:EPH004:  0.0721  1.1822    0.1145  1.2236    0.5842  1.2176    4.5204  1.3027

                      QXX         QXY         QYY         QZZ       UP TO R

:VZZ004:            -2.60140    12.69461     2.45391     0.14749       2.150

:CHA005: TOTAL CHARGE INSIDE SPHERE   5 =    11.674654
:PCS005: PARTIAL CHARGES SPHERE =  5 S,P,D,F,PX,PY,PZ,D-Z2,D-X2Y2,D-XY,D-XZ,D-YZ 
:QTL005: 1.9487 4.5891 0.6098 4.5224 2.6469 2.7538 2.7163 0.1225 0.1213 0.1226 0.1205 0.1446
        Q-s-low E-s-low   Q-p-low E-p-low   Q-d-low E-d-low   Q-f-low E-f-low
:EPL005:  1.8784 -2.0197    4.4764 -0.1003    0.0233  0.0158    0.0110  0.0286
        Q-s-hi  E-s-hi    Q-p-hi  E-p-hi    Q-d-hi  E-d-hi    Q-f-hi  E-f-hi 
:EPH005:  0.0703  1.1809    0.1127  1.2241    0.5866  1.2188    4.5114  1.3072

                      QXX         QXY         QYY         QZZ       UP TO R

:VZZ005:           -40.77763     5.53170    28.03086    12.74677       2.150

:CHA006: TOTAL CHARGE INSIDE SPHERE   6 =    11.661007
:PCS006: PARTIAL CHARGES SPHERE =  6 S,P,D,F,PX,PY,PZ,D-Z2,D-X2Y2,D-XY,D-XZ,D-YZ 
:QTL006: 1.9499 4.5807 0.5910 4.5353 2.7047 2.6941 2.7133 0.1142 0.1160 0.1284 0.1236 0.1295
        Q-s-low E-s-low   Q-p-low E-p-low   Q-d-low E-d-low   Q-f-low E-f-low
:EPL006:  1.8778 -2.0203    4.4781 -0.0998    0.0213  0.0219    0.0099  0.0414
        Q-s-hi  E-s-hi    Q-p-hi  E-p-hi    Q-d-hi  E-d-hi    Q-f-hi  E-f-hi 
:EPH006:  0.0721  1.1722    0.1026  1.2229    0.5697  1.2186    4.5253  1.3057

                      QXX         QXY         QYY         QZZ       UP TO R

:VZZ006:            -9.99899    -9.83617     0.73523     9.26375       2.150

:CHA007: TOTAL CHARGE INSIDE SPHERE   7 =    11.701992
:PCS007: PARTIAL CHARGES SPHERE =  7 S,P,D,F,PX,PY,PZ,D-Z2,D-X2Y2,D-XY,D-XZ,D-YZ 
:QTL007: 1.9457 4.5837 0.6241 4.5429 2.7269 2.6863 2.7125 0.1273 0.1102 0.1384 0.1479 0.1244
        Q-s-low E-s-low   Q-p-low E-p-low   Q-d-low E-d-low   Q-f-low E-f-low
:EPL007:  1.8795 -2.0171    4.4776 -0.1001    0.0277  0.0040    0.0135  0.0193
        Q-s-hi  E-s-hi    Q-p-hi  E-p-hi    Q-d-hi  E-d-hi    Q-f-hi  E-f-hi 
:EPH007:  0.0662  1.1769    0.1061  1.2202    0.5965  1.2178    4.5295  1.2993

                      QXX         QXY         QYY         QZZ       UP TO R

:VZZ007:             4.49278     9.71331   -14.26854     9.77576       2.150

:CHA008: TOTAL CHARGE INSIDE SPHERE   8 =    11.594499
:PCS008: PARTIAL CHARGES SPHERE =  8 S,P,D,F,PX,PY,PZ,D-Z2,D-X2Y2,D-XY,D-XZ,D-YZ 
:QTL008: 1.9507 4.6098 0.5021 4.5292 2.6885 2.7592 2.7644 0.1089 0.0897 0.0995 0.1028 0.1157
        Q-s-low E-s-low   Q-p-low E-p-low   Q-d-low E-d-low   Q-f-low E-f-low
:EPL008:  1.8759 -2.0219    4.4855 -0.0961    0.0125  0.0329    0.0057  0.0425
        Q-s-hi  E-s-hi    Q-p-hi  E-p-hi    Q-d-hi  E-d-hi    Q-f-hi  E-f-hi 
:EPH008:  0.0748  1.1733    0.1242  1.2185    0.4896  1.2200    4.5236  1.3020

                      QXX         QXY         QYY         QZZ       UP TO R

:VZZ008:           -42.07304     5.05726    27.65867    14.41437       2.150

:CHA  : TOTAL CHARGE INSIDE UNIT CELL =     256.000000

:ESUM  : SUM OF EIGENVALUES =          90.506294849


------- alpha_Pu_5.scfc --------

        1.ATOM      Pu  0+               21 CORE STATES
       CORE-FORCE in mRy/a.u. = |F|      Fx             Fy             Fz
:FCO001:   1.ATOM       3029.804      -2854.600      -1015.366          0.000

:1S 001: 1S               -8966.398939112 Ry
:2S 001: 2S               -1687.071204153 Ry
:2PP001: 2P*              -1627.764802586 Ry
:2P 001: 2P               -1314.613384434 Ry
:3S 001: 3S                -427.613081979 Ry
:3PP001: 3P*               -400.688688048 Ry
:3P 001: 3P                -328.127351054 Ry
:3DD001: 3D*               -285.887253838 Ry
:3D 001: 3D                -271.345032033 Ry
:4S 001: 4S                -109.093962100 Ry
:4PP001: 4P*                -96.906128946 Ry
:4P 001: 4P                 -77.760726357 Ry
:4DD001: 4D*                -58.473314942 Ry
:4D 001: 4D                 -54.978726105 Ry
:5S 001: 5S                 -23.248843595 Ry
:5PP001: 5P*                -18.430909490 Ry
:5P 001: 5P                 -13.741833148 Ry
:4FF001: 4F*                -29.578749749 Ry
:4F 001: 4F                 -28.650674798 Ry
:5DD001: 5D*                 -6.706363603 Ry
:5D 001: 5D                  -6.007315591 Ry

        2.ATOM      Pu  0+               21 CORE STATES
       CORE-FORCE in mRy/a.u. = |F|      Fx             Fy             Fz
:FCO002:   2.ATOM       1315.266        168.146      -1304.474          0.000

:1S 002: 1S               -8966.398953997 Ry
:2S 002: 2S               -1687.071959200 Ry
:2PP002: 2P*              -1627.765513174 Ry
:2P 002: 2P               -1314.614146352 Ry
:3S 002: 3S                -427.613113936 Ry
:3PP002: 3P*               -400.688752935 Ry
:3P 002: 3P                -328.127378224 Ry
:3DD002: 3D*               -285.887430929 Ry
:3D 002: 3D                -271.345177340 Ry
:4S 002: 4S                -109.094310251 Ry
:4PP002: 4P*                -96.906476993 Ry
:4P 002: 4P                 -77.761161396 Ry
:4DD002: 4D*                -58.473761558 Ry
:4D 002: 4D                 -54.979195557 Ry
:5S 002: 5S                 -23.249992788 Ry
:5PP002: 5P*                -18.432148920 Ry
:5P 002: 5P                 -13.743373682 Ry
:4FF002: 4F*                -29.579101910 Ry
:4F 002: 4F                 -28.651040356 Ry
:5DD002: 5D*                 -6.708239215 Ry
:5D 002: 5D                  -6.009290707 Ry

        3.ATOM      Pu  0+               21 CORE STATES
       CORE-FORCE in mRy/a.u. = |F|      Fx             Fy             Fz
:FCO003:   3.ATOM       5475.045      -4063.115      -3669.770          0.000

:1S 003: 1S               -8966.396720078 Ry
:2S 003: 2S               -1687.069365575 Ry
:2PP003: 2P*              -1627.762980062 Ry
:2P 003: 2P               -1314.611554260 Ry
:3S 003: 3S                -427.610460150 Ry
:3PP003: 3P*               -400.686106256 Ry
:3P 003: 3P                -328.124722984 Ry
:3DD003: 3D*               -285.884760270 Ry
:3D 003: 3D                -271.342505557 Ry
:4S 003: 4S                -109.091622686 Ry
:4PP003: 4P*                -96.903790336 Ry
:4P 003: 4P                 -77.758465085 Ry
:4DD003: 4D*                -58.471060000 Ry
:4D 003: 4D                 -54.976490959 Ry
:5S 003: 5S                 -23.247188250 Ry
:5PP003: 5P*                -18.429339926 Ry
:5P 003: 5P                 -13.740549309 Ry
:4FF003: 4F*                -29.576398371 Ry
:4F 003: 4F                 -28.648335460 Ry
:5DD003: 5D*                 -6.705403394 Ry
:5D 003: 5D                  -6.006452891 Ry

        4.ATOM      Pu  0+               21 CORE STATES
       CORE-FORCE in mRy/a.u. = |F|      Fx             Fy             Fz
:FCO004:   4.ATOM       3029.652       2979.214        550.525          0.000

:1S 004: 1S               -8966.398082337 Ry
:2S 004: 2S               -1687.071332233 Ry
:2PP004: 2P*              -1627.764841872 Ry
:2P 004: 2P               -1314.613521596 Ry
:3S 004: 3S                -427.612655841 Ry
:3PP004: 3P*               -400.688283111 Ry
:3P 004: 3P                -328.126925095 Ry
:3DD004: 3D*               -285.886966218 Ry
:3D 004: 3D                -271.344718990 Ry
:4S 004: 4S                -109.093874338 Ry
:4PP004: 4P*                -96.906040150 Ry
:4P 004: 4P                 -77.760729807 Ry
:4DD004: 4D*                -58.473332135 Ry
:4D 004: 4D                 -54.978768431 Ry
:5S 004: 5S                 -23.249641084 Ry
:5PP004: 5P*                -18.431796353 Ry
:5P 004: 5P                 -13.743017219 Ry
:4FF004: 4F*                -29.578687167 Ry
:4F 004: 4F                 -28.650626268 Ry
:5DD004: 5D*                 -6.707861756 Ry
:5D 004: 5D                  -6.008905198 Ry

        5.ATOM      Pu  0+               21 CORE STATES
       CORE-FORCE in mRy/a.u. = |F|      Fx             Fy             Fz
:FCO005:   5.ATOM       1864.433       -928.736      -1616.651          0.000

:1S 005: 1S               -8966.398875354 Ry
:2S 005: 2S               -1687.072255016 Ry
:2PP005: 2P*              -1627.765722461 Ry
:2P 005: 2P               -1314.614440486 Ry
:3S 005: 3S                -427.613797643 Ry
:3PP005: 3P*               -400.689410923 Ry
:3P 005: 3P                -328.128069237 Ry
:3DD005: 3D*               -285.888088443 Ry
:3D 005: 3D                -271.345849617 Ry
:4S 005: 4S                -109.094971202 Ry
:4PP005: 4P*                -96.907136239 Ry
:4P 005: 4P                 -77.761812935 Ry
:4DD005: 4D*                -58.474417154 Ry
:4D 005: 4D                 -54.979850512 Ry
:5S 005: 5S                 -23.250630502 Ry
:5PP005: 5P*                -18.432760174 Ry
:5P 005: 5P                 -13.743891923 Ry
:4FF005: 4F*                -29.579795885 Ry
:4F 005: 4F                 -28.651732907 Ry
:5DD005: 5D*                 -6.708594629 Ry
:5D 005: 5D                  -6.009589426 Ry

        6.ATOM      Pu  0+               21 CORE STATES
       CORE-FORCE in mRy/a.u. = |F|      Fx             Fy             Fz
:FCO006:   6.ATOM       5197.735      -4248.258      -2994.787          0.000

:1S 006: 1S               -8966.397090172 Ry
:2S 006: 2S               -1687.069888034 Ry
:2PP006: 2P*              -1627.763521033 Ry
:2P 006: 2P               -1314.612081246 Ry
:3S 006: 3S                -427.610531351 Ry
:3PP006: 3P*               -400.686201264 Ry
:3P 006: 3P                -328.124789965 Ry
:3DD006: 3D*               -285.884900968 Ry
:3D 006: 3D                -271.342627447 Ry
:4S 006: 4S                -109.091839788 Ry
:4PP006: 4P*                -96.904008091 Ry
:4P 006: 4P                 -77.758723026 Ry
:4DD006: 4D*                -58.471320896 Ry
:4D 006: 4D                 -54.976761891 Ry
:5S 006: 5S                 -23.247753736 Ry
:5PP006: 5P*                -18.429951533 Ry
:5P 006: 5P                 -13.741314920 Ry
:4FF006: 4F*                -29.576604926 Ry
:4F 006: 4F                 -28.648548306 Ry
:5DD006: 5D*                 -6.706348753 Ry
:5D 006: 5D                  -6.007453013 Ry

        7.ATOM      Pu  0+               21 CORE STATES
       CORE-FORCE in mRy/a.u. = |F|      Fx             Fy             Fz
:FCO007:   7.ATOM       5107.267       3446.795      -3768.791          0.000

:1S 007: 1S               -8966.396447952 Ry
:2S 007: 2S               -1687.069339932 Ry
:2PP007: 2P*              -1627.762892944 Ry
:2P 007: 2P               -1314.611523173 Ry
:3S 007: 3S                -427.610648227 Ry
:3PP007: 3P*               -400.686278432 Ry
:3P 007: 3P                -328.124915214 Ry
:3DD007: 3D*               -285.884937362 Ry
:3D 007: 3D                -271.342690863 Ry
:4S 007: 4S                -109.091828533 Ry
:4PP007: 4P*                -96.903994592 Ry
:4P 007: 4P                 -77.758672530 Ry
:4DD007: 4D*                -58.471269835 Ry
:4D 007: 4D                 -54.976702610 Ry
:5S 007: 5S                 -23.247464103 Ry
:5PP007: 5P*                -18.429613968 Ry
:5P 007: 5P                 -13.740819177 Ry
:4FF007: 4F*                -29.576627103 Ry
:4F 007: 4F                 -28.648564511 Ry
:5DD007: 5D*                 -6.705670270 Ry
:5D 007: 5D                  -6.006719791 Ry

        8.ATOM      Pu  0+               21 CORE STATES
       CORE-FORCE in mRy/a.u. = |F|      Fx             Fy             Fz
:FCO008:   8.ATOM        999.571       -941.737       -335.073          0.000

:1S 008: 1S               -8966.389189843 Ry
:2S 008: 2S               -1687.062363175 Ry
:2PP008: 2P*              -1627.756035765 Ry
:2P 008: 2P               -1314.604555657 Ry
:3S 008: 3S                -427.601708501 Ry
:3PP008: 3P*               -400.677441924 Ry
:3P 008: 3P                -328.115958532 Ry
:3DD008: 3D*               -285.876274891 Ry
:3D 008: 3D                -271.333949088 Ry
:4S 008: 4S                -109.083580277 Ry
:4PP008: 4P*                -96.895748089 Ry
:4P 008: 4P                 -77.750611769 Ry
:4DD008: 4D*                -58.463213703 Ry
:4D 008: 4D                 -54.968693756 Ry
:5S 008: 5S                 -23.240849167 Ry
:5PP008: 5P*                -18.423229959 Ry
:5P 008: 5P                 -13.735217026 Ry
:4FF008: 4F*                -29.568333501 Ry
:4F 008: 4F                 -28.640299979 Ry
:5DD008: 5D*                 -6.701067663 Ry
:5D 008: 5D                  -6.002437314 Ry

------- alpha_Pu_5.scfm --------

       DENSITY AT NUCLEUS
        JATOM    VALENCE       SEMI-CORE            CORE           TOTAL
:RTO001:   1    23346.700610        0.000000 45141828.100772 45165174.801383
:RTO002:   2    23467.493794        0.000000 45141820.270986 45165287.764779
:RTO003:   3    23452.273796        0.000000 45141822.422633 45165274.696429
:RTO004:   4    23512.211796        0.000000 45141818.412661 45165330.624457
:RTO005:   5    23486.525941        0.000000 45141818.811662 45165305.337603
:RTO006:   6    23504.339461        0.000000 45141819.743101 45165324.082561
:RTO007:   7    23421.726897        0.000000 45141820.889335 45165242.616231
:RTO008:   8    23514.568000        0.000000 45141809.680689 45165324.248689
     
       CHARGES OF NEW CHARGE DENSITY
:NTO  : TOTAL   INTERSTITIAL CHARGE=   69.0810215
:NTO001: TOTAL   CHARGE IN SPHERE  1 =       89.7576216
:NTO002: TOTAL   CHARGE IN SPHERE  2 =       89.6750576
:NTO003: TOTAL   CHARGE IN SPHERE  3 =       89.6871576
:NTO004: TOTAL   CHARGE IN SPHERE  4 =       89.6702920
:NTO005: TOTAL   CHARGE IN SPHERE  5 =       89.6653840
:NTO006: TOTAL   CHARGE IN SPHERE  6 =       89.6517267
:NTO007: TOTAL   CHARGE IN SPHERE  7 =       89.6926985
:NTO008: TOTAL   CHARGE IN SPHERE  8 =       89.5852096

:NEC01: NUCLEAR AND ELECTRONIC CHARGE   1504.00000  1503.85132     1.00010
     
       CHARGES OF OLD CHARGE DENSITY
:OTO  : TOTAL   INTERSTITIAL CHARGE=   69.2345018
:OTO001: TOTAL   CHARGE IN SPHERE  1 =       89.7570554
:OTO002: TOTAL   CHARGE IN SPHERE  2 =       89.6747593
:OTO003: TOTAL   CHARGE IN SPHERE  3 =       89.6868261
:OTO004: TOTAL   CHARGE IN SPHERE  4 =       89.6701466
:OTO005: TOTAL   CHARGE IN SPHERE  5 =       89.6651711
:OTO006: TOTAL   CHARGE IN SPHERE  6 =       89.6513635
:OTO007: TOTAL   CHARGE IN SPHERE  7 =       89.6924085
:OTO008: TOTAL   CHARGE IN SPHERE  8 =       89.5850186

:NEC02: NUCLEAR AND ELECTRONIC CHARGE   1504.00000  1504.00000     1.00000
     
       CONVERGENCE TEST
:DTO001: TOTAL   DIFFERENCE CHARGE**2 IN SPHERE  1 =  0.0005305
:DTO002: TOTAL   DIFFERENCE CHARGE**2 IN SPHERE  2 =  0.0003165
:DTO003: TOTAL   DIFFERENCE CHARGE**2 IN SPHERE  3 =  0.0003378
:DTO004: TOTAL   DIFFERENCE CHARGE**2 IN SPHERE  4 =  0.0001933
:DTO005: TOTAL   DIFFERENCE CHARGE**2 IN SPHERE  5 =  0.0002475
:DTO006: TOTAL   DIFFERENCE CHARGE**2 IN SPHERE  6 =  0.0003699
:DTO007: TOTAL   DIFFERENCE CHARGE**2 IN SPHERE  7 =  0.0003107
:DTO008: TOTAL   DIFFERENCE CHARGE**2 IN SPHERE  8 =  0.0002338

:DIS  :  CHARGE DISTANCE       ( 0.0005305 for atom    1 spin 1)      0.0003175
:BIG check (qbig,qrms,qtot)    0.177D-03   0.235D-03   0.317D-03
 
******************************************************
* MULTISECANT MIXING VER4 OPTIONS                    *
* Unpredicted Step Limit   0.100000                  *
* Plane Wave Dynamic Rescaling                       *
* Dynamic Regularization active                      *
* Upper Cutoff Lambda  1.0E-01 Lower 3.5E-04         *
* SQRT Multiplicity/Degeneracy                       *
* Max Number of Memory Steps    8                    *
******************************************************
 
:PLANE:  INTERSTITIAL TOTAL      7.54696 DISTAN  1.858E-03 % 
:CHARG:  CLM CHARGE   /ATOM    356.61330 DISTAN  1.045E-04 % 
:INFO :  Dynamic rescale   2.158E+01  1.000E-01
:INFO :  Number of Memory Steps    1 Skipping    0
:INFO :  Bounds         0.265D-01  0.200D+00  0.567D+00  0.265D-01
:DIRM :  MEMORY 1/8 RESCALE  21.58 RED 1.319 PRED 1.000 NEXT 0.176 COND 1.00E+00
:DIRP :  |BROYD|= 3.159E-04 |PRATT|= 8.029E-05 ANGLE= 179.1 DEGREES
:DIRB :  |BROYD|= 4.451E-04 |PRATT|= 1.127E-04 ANGLE= 179.2 DEGREES
:MIX  :  MSR1   REGULARIZATION: 3.50E-04  GREED: 0.027
     
       CHARGES OF MIXED CHARGE DENSITY
:CTO  : TOTAL   INTERSTITIAL CHARGE=   69.2350051
:CTO001: TOTAL   CHARGE IN SPHERE  1 =       89.7569952
:CTO002: TOTAL   CHARGE IN SPHERE  2 =       89.6747280
:CTO003: TOTAL   CHARGE IN SPHERE  3 =       89.6867912
:CTO004: TOTAL   CHARGE IN SPHERE  4 =       89.6701317
:CTO005: TOTAL   CHARGE IN SPHERE  5 =       89.6651489
:CTO006: TOTAL   CHARGE IN SPHERE  6 =       89.6513253
:CTO007: TOTAL   CHARGE IN SPHERE  7 =       89.6923782
:CTO008: TOTAL   CHARGE IN SPHERE  8 =       89.5849990

:NEC03: NUCLEAR AND ELECTRONIC CHARGE   1504.00000  1504.00000     1.00000


:ENE  : ********** TOTAL ENERGY IN Ry =      -949675.85337638

       TOTAL FORCE IN mRy/a.u. = |F|     Fx             Fy             Fz     with/without FOR in case.in2
:FOR001:   1.ATOM         94.555         94.213         -8.040          0.000 partial forces
:FOR002:   2.ATOM         76.026        -68.227         33.541          0.000 partial forces
:FOR003:   3.ATOM         76.833         53.413         55.230          0.000 partial forces
:FOR004:   4.ATOM         63.401        -46.674        -42.910          0.000 partial forces
:FOR005:   5.ATOM         35.300         34.729         -6.326          0.000 partial forces
:FOR006:   6.ATOM         61.320         47.315         39.005          0.000 partial forces
:FOR007:   7.ATOM        140.991       -139.798        -18.305          0.000 partial forces
:FOR008:   8.ATOM         58.765         36.156         46.326          0.000 partial forces

       TOTAL FORCE WITH RESPECT TO GLOBAL CARTESIAN COORDINATES:
:FCA001:   1.ATOM                        -8.040          0.000         94.213 partial forces
:FCA002:   2.ATOM                        33.541          0.000        -68.227 partial forces
:FCA003:   3.ATOM                        55.230          0.000         53.413 partial forces
:FCA004:   4.ATOM                       -42.910          0.000        -46.674 partial forces
:FCA005:   5.ATOM                        -6.326          0.000         34.729 partial forces
:FCA006:   6.ATOM                        39.005          0.000         47.315 partial forces
:FCA007:   7.ATOM                       -18.305          0.000       -139.798 partial forces
:FCA008:   8.ATOM                        46.326          0.000         36.156 partial forces

       TOTAL FORCE WITH RESPECT TO THE GLOBAL COORDINATE SYSTEM:
:FGL001:   1.ATOM                -8.213185175     0.000000000    92.535260234 partial forces
:FGL002:   2.ATOM                34.263488055     0.000000000   -61.227862002 partial forces
:FGL003:   3.ATOM                56.419678760     0.000000000    64.938070560 partial forces
:FGL004:   4.ATOM               -43.834300482     0.000000000   -55.628205644 partial forces
:FGL005:   5.ATOM                -6.462264853     0.000000000    33.408927641 partial forces
:FGL006:   6.ATOM                39.845185045     0.000000000    55.454333282 partial forces
:FGL007:   7.ATOM               -18.699297840     0.000000000  -143.617779406 partial forces
:FGL008:   8.ATOM                47.323882641     0.000000000    45.823036371 partial forces
