
------- epsilon_Pu_10.scf0 --------


            ---------
:ITE099: 99. ITERATION
            ---------

:NATO :    1 INDEPENDENT AND    1 TOTAL ATOMS IN UNITCELL
       SUBSTANCE: cubic body-centered  (epsilon Pu)                           

       LATTICE                      = B   
:POT  : POTENTIAL OPTION    5
:LAT  : LATTICE CONSTANTS=  6.91509  6.91509  6.91509    1.571    1.571    1.571
:VOL  : UNIT CELL VOLUME =     165.33422
       MODE OF CALCULATION IS       = RELA
       NON-SPINPOLARIZED CALCULATION
:IFFT  : FFT-parameters:   60   60   60 Factor: 2.00
       ATOMNUMBER=  1 Pu  0+     VCOUL-ZERO =  0.31693E+00
:FIT001: LUSE= 13 SIGMA OF V-XC FIT FOR ATOM  1  0.1311690E-05
:FIT001: LUSE= 13 SIGMA OF V-XC FIT FOR ATOM  1  0.1311690E-05
:DEN  : DENSITY INTEGRAL  =        -21888.75742806   (Ry)
       ELS_POTENTIAL_AT Z=0 and Z=0.5:  -2.47877  -2.47877
       ELS_POTENTIAL_AT Y=0 and Y=0.5:   0.00000   0.00000
:VZERO:v0,v0c,v0x  -3.49270  -2.47877  -1.01393 v5,v5c,v5x  -3.49270  -2.47877  -1.01393
:VZERY:v0,v0c,v0x  -0.88747   0.00000  -0.88747 v5,v5c,v5x  -0.88747   0.00000  -0.88747
:VZERX:v0,v0c,v0x  -0.88747   0.00000  -0.88747 v5,v5c,v5x  -0.88747   0.00000  -0.88747

------- epsilon_Pu_10.scf1 --------

          ATOMIC SPHERE DEPENDENT PARAMETERS FOR ATOM  Pu  0+    
:e__0001: OVERALL ENERGY PARAMETER IS    0.9420
          OVERALL BASIS SET ON ATOM IS LAPW
:E0_0001: E( 0)=    0.9420
             APW+lo
:E0_0001: E( 0)=   -2.2565   E(BOTTOM)=   -3.030   E(TOP)=   -1.483
             LOCAL ORBITAL
:E1_0001: E( 1)=   -1.3320   E(BOTTOM)=   -1.332   E(TOP)= -200.000
             APW+lo
:E1_0001: E( 1)=    0.9420
             LOCAL ORBITAL
:E3_0001: E( 3)=    0.9420   E(BOTTOM)=    0.712   E(TOP)= -200.000
             APW+lo
:E2_0001: E( 2)=    0.9420   E(BOTTOM)=    0.872   E(TOP)= -200.000
             APW+lo

       K=   0.00000   0.00000   0.00000            1
:RKM  : MATRIX SIZE  197LOs:  20  RKM= 8.29  WEIGHT= 1.00  PGR:    
       EIGENVALUES ARE:
:EIG00001:      -2.2331984   -0.1326653   -0.1326653   -0.1326653    0.7704071
:EIG00006:       1.1400091    1.1400091    1.1400091    1.2604980    1.2604980
:EIG00011:       1.2604980    1.2969896    1.3306502    1.3306502    1.3306502
:EIG00016:       1.5825026    1.5825026    2.2373185    2.2373185    2.2373185
:EIG00021:       2.9182839    2.9182839    3.2533263    3.2533263    3.2533263
:EIG00026:       3.2837663    4.0818631    4.0818631    4.0818631    4.5333646
:EIG00031:       4.5333646    4.5333646    4.7028734    4.7028734    4.7028734
:EIG00036:       4.8155619    4.8155619    4.8155619    4.8730778    4.8772717
:EIG00041:       4.8772717    5.0728506    5.0728506    5.3576408    5.3576408
:EIG00046:       5.3576408    5.4058715    5.4058715    5.4058715    5.5730581
 
:EIG00051:       5.9716264    5.9716264    6.3807688    6.3807688    6.3807688
:EIG00056:       6.6051080    6.6051080    6.6051080    6.7230982    7.1659493
:EIG00061:       7.1659493    7.1659493
       ********************************************************

:KPT   :      NUMBER OF K-POINTS:   286

------- epsilon_Pu_10.scfso --------
   0.0   0.0 angle (M,z), angle (M,x) deg
 
        SPIN-ORBIT EIGENVALUES:
     K=   0.00000   0.00000   0.00000            1
      MATRIX SIZE=  124   WEIGHT= 1.00
     EIGENVALUES ARE:
          -2.2331984   -2.2331984   -0.6027530   -0.6027530    0.0712949
           0.0712949    0.0712949    0.0712949    0.7704071    0.7704071
           1.1222127    1.1222127    1.1329096    1.1329096    1.1329096
           1.1329096    1.2539003    1.2539003    1.2539003    1.2539003
           1.2955607    1.2955607    1.3044850    1.3044850    1.3150640
           1.3150640    1.3150640    1.3150640    1.3535817    1.3535817
           1.5850040    1.5850040    1.5850040    1.5850040    2.2334053
           2.2334053    2.2401731    2.2401731    2.2401731    2.2401731

           2.9174955    2.9174955    2.9174955    2.9174955    3.1096256
           3.1096256    3.2837663    3.2837663    3.3202601    3.3202601
           3.3202601    3.3202601    4.0627715    4.0627715    4.0627715
           4.0627715    4.1209570    4.1209570    4.3663321    4.3663321

       ********************************************************

------- epsilon_Pu_10.scf2 --------
:GMA  : POTENTIAL AND CHARGE CUT-OFF  12.00 Ry**.5
         Bandranges (emin - emax) and occupancy:
:BAN00008:   8   -0.119785    0.071295  1.00000000
:BAN00009:   9    0.770407    1.157619  1.00000000
:BAN00010:  10    0.770407    1.157619  1.00000000
:BAN00011:  11    0.939552    1.171647  1.00000000
:BAN00012:  12    0.939552    1.171647  1.00000000
:BAN00013:  13    1.096623    1.171905  1.00000000
:BAN00014:  14    1.096623    1.171905  1.00000000
:BAN00015:  15    1.132910    1.180686  0.97347114
:BAN00016:  16    1.132910    1.180686  0.97347114
:BAN00017:  17    1.169772    1.253900  0.02652886
:BAN00018:  18    1.169772    1.253900  0.02652886
:BAN00019:  19    1.186730    1.254993  0.00000000
:BAN00020:  20    1.186730    1.254993  0.00000000
:BAN00021:  21    1.247724    1.295561  0.00000000
:BAN00022:  22    1.247724    1.295561  0.00000000
:BAN00023:  23    1.254340    1.304485  0.00000000
        Energy to separate low and high energystates:    0.72041


:NLDA  : NUMBER OF ELECTRONS          =  16.000

:FLDA  : F E R M I - ENERGY           =   1.67722




:POS001: AT.NR.   1 POSITION = 0.00000 0.00000 0.00000  MULTIPLICITY =  1

       LMMAX  5
       LM=   0 0  4 0  4 4  6 0  6 4
:FER DMFT Fermi Energy   1.14530
:EORB    0.19266587
:SUM SUM OF DMFT BAND ENERGIES    2.70969834

:CHA001: TOTAL CHARGE INSIDE SPHERE   1 =    11.560089
:PCS001: PARTIAL CHARGES SPHERE =  1 S,P,D,F,      D-EG,D-T2G 
:QTL001: 1.9613 4.5855 0.4379 4.5743 0.0000 0.0000 0.0000 0.2017 0.2463 0.0000 0.0000 0.0000
        Q-s-low E-s-low   Q-p-low E-p-low   Q-d-low E-d-low   Q-f-low E-f-low
:EPL001:  1.8732 -2.2073    4.4808 -0.2814    0.0059 -0.1108    0.0023 -0.1268
        Q-s-hi  E-s-hi    Q-p-hi  E-p-hi    Q-d-hi  E-d-hi    Q-f-hi  E-f-hi 
:EPH001:  0.0881  0.9930    0.1048  1.0505    0.4320  1.0561    4.5720  1.1438

:CHA  : TOTAL CHARGE INSIDE UNIT CELL =      16.000000

:ESUM  : SUM OF EIGENVALUES =           2.938402207


------- epsilon_Pu_10.scfc --------

        1.ATOM      Pu  0+               21 CORE STATES
:1S 001: 1S               -8966.562089419 Ry
:2S 001: 2S               -1687.233738682 Ry
:2PP001: 2P*              -1627.927900778 Ry
:2P 001: 2P               -1314.775964725 Ry
:3S 001: 3S                -427.770305470 Ry
:3PP001: 3P*               -400.846210128 Ry
:3P 001: 3P                -328.284526005 Ry
:3DD001: 3D*               -286.045130857 Ry
:3D 001: 3D                -271.502698452 Ry
:4S 001: 4S                -109.252803682 Ry
:4PP001: 4P*                -97.064980105 Ry
:4P 001: 4P                 -77.920013983 Ry
:4DD001: 4D*                -58.632596824 Ry
:4D 001: 4D                 -55.138114031 Ry
:5S 001: 5S                 -23.411407230 Ry
:5PP001: 5P*                -18.594063684 Ry
:5P 001: 5P                 -13.906997346 Ry
:4FF001: 4F*                -29.737409036 Ry
:4F 001: 4F                 -28.809402974 Ry
:5DD001: 5D*                 -6.874207508 Ry
:5D 001: 5D                  -6.176028118 Ry

------- epsilon_Pu_10.scfm --------

       DENSITY AT NUCLEUS
        JATOM    VALENCE       SEMI-CORE            CORE           TOTAL
:RTO001:   1    23683.954850        0.000000 45141806.435360 45165490.390210
     
       CHARGES OF NEW CHARGE DENSITY
:NTO  : TOTAL   INTERSTITIAL CHARGE=    4.4399089
:NTO001: TOTAL   CHARGE IN SPHERE  1 =       89.5507672

:NEC01: NUCLEAR AND ELECTRONIC CHARGE     94.00000    93.99068     1.00010
     
       CHARGES OF OLD CHARGE DENSITY
:OTO  : TOTAL   INTERSTITIAL CHARGE=    4.4429384
:OTO001: TOTAL   CHARGE IN SPHERE  1 =       89.5570616

:NEC02: NUCLEAR AND ELECTRONIC CHARGE     94.00000    94.00000     1.00000
     
       CONVERGENCE TEST
:DTO001: TOTAL   DIFFERENCE CHARGE**2 IN SPHERE  1 =  0.0062202

:DIS  :  CHARGE DISTANCE       ( 0.0062202 for atom    1 spin 1)      0.0062202
:BIG check (qbig,qrms,qtot)    0.207D-02   0.440D-02   0.622D-02
 
******************************************************
* MULTISECANT MIXING VER4 OPTIONS                    *
* Unpredicted Step Limit   0.100000                  *
* Plane Wave Dynamic Rescaling                       *
* Dynamic Regularization active                      *
* Upper Cutoff Lambda  1.0E-01 Lower 3.5E-04         *
* SQRT Multiplicity/Degeneracy                       *
* Max Number of Memory Steps    8                    *
******************************************************
 
:PLANE:  INTERSTITIAL TOTAL      1.87195 DISTAN  4.176E-02 % 
:CHARG:  CLM CHARGE   /ATOM    713.22770 DISTAN  2.720E-03 % 
:MIX  :  PRATT  REGULARIZATION: 3.50E-04  GREED: 0.035
     
       CHARGES OF MIXED CHARGE DENSITY
:CTO  : TOTAL   INTERSTITIAL CHARGE=    4.4431587
:CTO001: TOTAL   CHARGE IN SPHERE  1 =       89.5568413

:NEC03: NUCLEAR AND ELECTRONIC CHARGE     94.00000    94.00000     1.00000


:ENE  : ********** TOTAL ENERGY IN Ry =       -59354.74053281


------- epsilon_Pu_10.scf0 --------


            ---------
:ITE100:100. ITERATION
            ---------

:NATO :    1 INDEPENDENT AND    1 TOTAL ATOMS IN UNITCELL
       SUBSTANCE: cubic body-centered  (epsilon Pu)                           

       LATTICE                      = B   
:POT  : POTENTIAL OPTION    5
:LAT  : LATTICE CONSTANTS=  6.91509  6.91509  6.91509    1.571    1.571    1.571
:VOL  : UNIT CELL VOLUME =     165.33422
       MODE OF CALCULATION IS       = RELA
       NON-SPINPOLARIZED CALCULATION
:IFFT  : FFT-parameters:   60   60   60 Factor: 2.00
       ATOMNUMBER=  1 Pu  0+     VCOUL-ZERO =  0.31692E+00
:FIT001: LUSE= 13 SIGMA OF V-XC FIT FOR ATOM  1  0.1318311E-05
:FIT001: LUSE= 13 SIGMA OF V-XC FIT FOR ATOM  1  0.1318311E-05
:DEN  : DENSITY INTEGRAL  =        -21888.73100912   (Ry)
       ELS_POTENTIAL_AT Z=0 and Z=0.5:  -2.47883  -2.47883
       ELS_POTENTIAL_AT Y=0 and Y=0.5:   0.00000   0.00000
:VZERO:v0,v0c,v0x  -3.49277  -2.47883  -1.01394 v5,v5c,v5x  -3.49277  -2.47883  -1.01394
:VZERY:v0,v0c,v0x  -0.88748   0.00000  -0.88748 v5,v5c,v5x  -0.88748   0.00000  -0.88748
:VZERX:v0,v0c,v0x  -0.88748   0.00000  -0.88748 v5,v5c,v5x  -0.88748   0.00000  -0.88748

------- epsilon_Pu_10.scf1 --------

          ATOMIC SPHERE DEPENDENT PARAMETERS FOR ATOM  Pu  0+    
:e__0001: OVERALL ENERGY PARAMETER IS    0.9420
          OVERALL BASIS SET ON ATOM IS LAPW
:E0_0001: E( 0)=    0.9420
             APW+lo
:E0_0001: E( 0)=   -2.2565   E(BOTTOM)=   -3.030   E(TOP)=   -1.483
             LOCAL ORBITAL
:E1_0001: E( 1)=   -1.3320   E(BOTTOM)=   -1.332   E(TOP)= -200.000
             APW+lo
:E1_0001: E( 1)=    0.9420
             LOCAL ORBITAL
:E3_0001: E( 3)=    0.9420   E(BOTTOM)=    0.712   E(TOP)= -200.000
             APW+lo
:E2_0001: E( 2)=    0.9420   E(BOTTOM)=    0.872   E(TOP)= -200.000
             APW+lo

       K=   0.00000   0.00000   0.00000            1
:RKM  : MATRIX SIZE  197LOs:  20  RKM= 8.29  WEIGHT= 1.00  PGR:    
       EIGENVALUES ARE:
:EIG00001:      -2.2333173   -0.1327492   -0.1327492   -0.1327492    0.7704078
:EIG00006:       1.1398918    1.1398918    1.1398918    1.2603428    1.2603428
:EIG00011:       1.2603428    1.2968353    1.3306328    1.3306328    1.3306328
:EIG00016:       1.5824852    1.5824852    2.2372839    2.2372839    2.2372839
:EIG00021:       2.9182734    2.9182734    3.2533030    3.2533030    3.2533030
:EIG00026:       3.2837719    4.0818214    4.0818214    4.0818214    4.5333345
:EIG00031:       4.5333345    4.5333345    4.7028668    4.7028668    4.7028668
:EIG00036:       4.8155574    4.8155574    4.8155574    4.8730474    4.8772663
:EIG00041:       4.8772663    5.0728661    5.0728661    5.3576160    5.3576160
:EIG00046:       5.3576160    5.4058662    5.4058662    5.4058662    5.5729653
 
:EIG00051:       5.9716077    5.9716077    6.3807667    6.3807667    6.3807667
:EIG00056:       6.6051098    6.6051098    6.6051098    6.7231011    7.1659252
:EIG00061:       7.1659252    7.1659252
       ********************************************************

:KPT   :      NUMBER OF K-POINTS:   286

------- epsilon_Pu_10.scfso --------
   0.0   0.0 angle (M,z), angle (M,x) deg
 
        SPIN-ORBIT EIGENVALUES:
     K=   0.00000   0.00000   0.00000            1
      MATRIX SIZE=  124   WEIGHT= 1.00
     EIGENVALUES ARE:
          -2.2333173   -2.2333173   -0.6028506   -0.6028506    0.0712175
           0.0712175    0.0712175    0.0712175    0.7704078    0.7704078
           1.1220910    1.1220910    1.1327870    1.1327870    1.1327870
           1.1327870    1.2537500    1.2537500    1.2537500    1.2537500
           1.2954081    1.2954081    1.3043341    1.3043341    1.3150456
           1.3150456    1.3150456    1.3150456    1.3535653    1.3535653
           1.5849869    1.5849869    1.5849869    1.5849869    2.2333713
           2.2333713    2.2401380    2.2401380    2.2401380    2.2401380

           2.9174850    2.9174850    2.9174850    2.9174850    3.1096012
           3.1096012    3.2837719    3.2837719    3.3202374    3.3202374
           3.3202375    3.3202375    4.0627295    4.0627295    4.0627295
           4.0627295    4.1209161    4.1209161    4.3663030    4.3663030

       ********************************************************

------- epsilon_Pu_10.scf2 --------
:GMA  : POTENTIAL AND CHARGE CUT-OFF  12.00 Ry**.5
         Bandranges (emin - emax) and occupancy:
:BAN00008:   8   -0.119846    0.071217  1.00000000
:BAN00009:   9    0.770408    1.157509  1.00000000
:BAN00010:  10    0.770408    1.157509  1.00000000
:BAN00011:  11    0.939554    1.171504  1.00000000
:BAN00012:  12    0.939554    1.171504  1.00000000
:BAN00013:  13    1.096565    1.171764  1.00000000
:BAN00014:  14    1.096565    1.171764  1.00000000
:BAN00015:  15    1.132787    1.180583  0.97334497
:BAN00016:  16    1.132787    1.180583  0.97334497
:BAN00017:  17    1.169652    1.253750  0.02665503
:BAN00018:  18    1.169652    1.253750  0.02665503
:BAN00019:  19    1.186639    1.254856  0.00000000
:BAN00020:  20    1.186639    1.254856  0.00000000
:BAN00021:  21    1.247598    1.295408  0.00000000
:BAN00022:  22    1.247598    1.295408  0.00000000
:BAN00023:  23    1.254200    1.304334  0.00000000
        Energy to separate low and high energystates:    0.72041


:NLDA  : NUMBER OF ELECTRONS          =  16.000

:FLDA  : F E R M I - ENERGY           =   1.67709




:POS001: AT.NR.   1 POSITION = 0.00000 0.00000 0.00000  MULTIPLICITY =  1

       LMMAX  5
       LM=   0 0  4 0  4 4  6 0  6 4
:FER DMFT Fermi Energy   1.14529
:EORB    0.19199346
:SUM SUM OF DMFT BAND ENERGIES    2.70893838

:CHA001: TOTAL CHARGE INSIDE SPHERE   1 =    11.560493
:PCS001: PARTIAL CHARGES SPHERE =  1 S,P,D,F,      D-EG,D-T2G 
:QTL001: 1.9613 4.5856 0.4378 4.5746 0.0000 0.0000 0.0000 0.2017 0.2462 0.0000 0.0000 0.0000
        Q-s-low E-s-low   Q-p-low E-p-low   Q-d-low E-d-low   Q-f-low E-f-low
:EPL001:  1.8732 -2.2074    4.4809 -0.2815    0.0059 -0.1108    0.0023 -0.1268
        Q-s-hi  E-s-hi    Q-p-hi  E-p-hi    Q-d-hi  E-d-hi    Q-f-hi  E-f-hi 
:EPH001:  0.0881  0.9929    0.1048  1.0505    0.4320  1.0560    4.5723  1.1437

:CHA  : TOTAL CHARGE INSIDE UNIT CELL =      16.000000

:ESUM  : SUM OF EIGENVALUES =           2.936989328


------- epsilon_Pu_10.scfc --------

        1.ATOM      Pu  0+               21 CORE STATES
:1S 001: 1S               -8966.562465140 Ry
:2S 001: 2S               -1687.234112777 Ry
:2PP001: 2P*              -1627.928275332 Ry
:2P 001: 2P               -1314.776338788 Ry
:3S 001: 3S                -427.770669614 Ry
:3PP001: 3P*               -400.846575605 Ry
:3P 001: 3P                -328.284888098 Ry
:3DD001: 3D*               -286.045496716 Ry
:3D 001: 3D                -271.503063453 Ry
:4S 001: 4S                -109.253131581 Ry
:4PP001: 4P*                -97.065308459 Ry
:4P 001: 4P                 -77.920334972 Ry
:4DD001: 4D*                -58.632918885 Ry
:4D 001: 4D                 -55.138433993 Ry
:5S 001: 5S                 -23.411676936 Ry
:5PP001: 5P*                -18.594328816 Ry
:5P 001: 5P                 -13.907247057 Ry
:4FF001: 4F*                -29.737732708 Ry
:4F 001: 4F                 -28.809725577 Ry
:5DD001: 5D*                 -6.874440405 Ry
:5D 001: 5D                  -6.176255353 Ry

------- epsilon_Pu_10.scfm --------

       DENSITY AT NUCLEUS
        JATOM    VALENCE       SEMI-CORE            CORE           TOTAL
:RTO001:   1    23684.466954        0.000000 45141806.920624 45165491.387578
     
       CHARGES OF NEW CHARGE DENSITY
:NTO  : TOTAL   INTERSTITIAL CHARGE=    4.4395050
:NTO001: TOTAL   CHARGE IN SPHERE  1 =       89.5511720

:NEC01: NUCLEAR AND ELECTRONIC CHARGE     94.00000    93.99068     1.00010
     
       CHARGES OF OLD CHARGE DENSITY
:OTO  : TOTAL   INTERSTITIAL CHARGE=    4.4431587
:OTO001: TOTAL   CHARGE IN SPHERE  1 =       89.5568413

:NEC02: NUCLEAR AND ELECTRONIC CHARGE     94.00000    94.00000     1.00000
     
       CONVERGENCE TEST
:DTO001: TOTAL   DIFFERENCE CHARGE**2 IN SPHERE  1 =  0.0055800

:DIS  :  CHARGE DISTANCE       ( 0.0055800 for atom    1 spin 1)      0.0055800
:BIG check (qbig,qrms,qtot)    0.186D-02   0.395D-02   0.558D-02
 
******************************************************
* MULTISECANT MIXING VER4 OPTIONS                    *
* Unpredicted Step Limit   0.100000                  *
* Plane Wave Dynamic Rescaling                       *
* Dynamic Regularization active                      *
* Upper Cutoff Lambda  1.0E-01 Lower 3.5E-04         *
* SQRT Multiplicity/Degeneracy                       *
* Max Number of Memory Steps    8                    *
******************************************************
 
:PLANE:  INTERSTITIAL TOTAL      1.87194 DISTAN  3.790E-02 % 
:CHARG:  CLM CHARGE   /ATOM    713.22760 DISTAN  2.504E-03 % 
:INFO :  Dynamic rescale   2.499E+01  1.000E-01
:INFO :  Number of Memory Steps    1 Skipping    0
:INFO :  Bounds         0.383D-01  0.200D+00  0.262D+00  0.383D-01
:DIRM :  MEMORY 1/8 RESCALE  24.99 RED 0.914 PRED 1.000 NEXT 0.382 COND 1.00E+00
:DIRP :  |BROYD|= 6.317E-03 |PRATT|= 6.789E-04 ANGLE=   0.2 DEGREES
:DIRB :  |BROYD|= 8.973E-03 |PRATT|= 9.636E-04 ANGLE=   0.2 DEGREES
:MIX  :  MSR1   REGULARIZATION: 3.50E-04  GREED: 0.038
     
       CHARGES OF MIXED CHARGE DENSITY
:CTO  : TOTAL   INTERSTITIAL CHARGE=    4.4451768
:CTO001: TOTAL   CHARGE IN SPHERE  1 =       89.5548232

:NEC03: NUCLEAR AND ELECTRONIC CHARGE     94.00000    94.00000     1.00000


:ENE  : ********** TOTAL ENERGY IN Ry =       -59354.74054314


------- epsilon_Pu_10.scf0 --------


            ---------
:ITE101:101. ITERATION
            ---------

:NATO :    1 INDEPENDENT AND    1 TOTAL ATOMS IN UNITCELL
       SUBSTANCE: cubic body-centered  (epsilon Pu)                           

       LATTICE                      = B   
:POT  : POTENTIAL OPTION    5
:LAT  : LATTICE CONSTANTS=  6.91509  6.91509  6.91509    1.571    1.571    1.571
:VOL  : UNIT CELL VOLUME =     165.33422
       MODE OF CALCULATION IS       = RELA
       NON-SPINPOLARIZED CALCULATION
:IFFT  : FFT-parameters:   60   60   60 Factor: 2.00
       ATOMNUMBER=  1 Pu  0+     VCOUL-ZERO =  0.31686E+00
:FIT001: LUSE= 13 SIGMA OF V-XC FIT FOR ATOM  1  0.1382723E-05
:FIT001: LUSE= 13 SIGMA OF V-XC FIT FOR ATOM  1  0.1382723E-05
:DEN  : DENSITY INTEGRAL  =        -21888.49499074   (Ry)
       ELS_POTENTIAL_AT Z=0 and Z=0.5:  -2.47943  -2.47943
       ELS_POTENTIAL_AT Y=0 and Y=0.5:   0.00000   0.00000
:VZERO:v0,v0c,v0x  -3.49341  -2.47943  -1.01397 v5,v5c,v5x  -3.49341  -2.47943  -1.01397
:VZERY:v0,v0c,v0x  -0.88756   0.00000  -0.88756 v5,v5c,v5x  -0.88756   0.00000  -0.88756
:VZERX:v0,v0c,v0x  -0.88756   0.00000  -0.88756 v5,v5c,v5x  -0.88756   0.00000  -0.88756

------- epsilon_Pu_10.scf1 --------

          ATOMIC SPHERE DEPENDENT PARAMETERS FOR ATOM  Pu  0+    
:e__0001: OVERALL ENERGY PARAMETER IS    0.9420
          OVERALL BASIS SET ON ATOM IS LAPW
:E0_0001: E( 0)=    0.9420
             APW+lo
:E0_0001: E( 0)=   -2.2575   E(BOTTOM)=   -3.031   E(TOP)=   -1.484
             LOCAL ORBITAL
:E1_0001: E( 1)=   -1.3340   E(BOTTOM)=   -1.334   E(TOP)= -200.000
             APW+lo
:E1_0001: E( 1)=    0.9420
             LOCAL ORBITAL
:E3_0001: E( 3)=    0.9420   E(BOTTOM)=    0.712   E(TOP)= -200.000
             APW+lo
:E2_0001: E( 2)=    0.9420   E(BOTTOM)=    0.872   E(TOP)= -200.000
             APW+lo

       K=   0.00000   0.00000   0.00000            1
:RKM  : MATRIX SIZE  197LOs:  20  RKM= 8.29  WEIGHT= 1.00  PGR:    
       EIGENVALUES ARE:
:EIG00001:      -2.2343952   -0.1335109   -0.1335109   -0.1335109    0.7704158
:EIG00006:       1.1388305    1.1388305    1.1388305    1.2589368    1.2589368
:EIG00011:       1.2589368    1.2954430    1.3304755    1.3304755    1.3304755
:EIG00016:       1.5823266    1.5823266    2.2369735    2.2369735    2.2369735
:EIG00021:       2.9181789    2.9181789    3.2530933    3.2530933    3.2530933
:EIG00026:       3.2838242    4.0814443    4.0814443    4.0814443    4.5330649
:EIG00031:       4.5330649    4.5330649    4.7028067    4.7028067    4.7028067
:EIG00036:       4.8155184    4.8155184    4.8155184    4.8727728    4.8772179
:EIG00041:       4.8772179    5.0730079    5.0730079    5.3573925    5.3573925
:EIG00046:       5.3573925    5.4058204    5.4058204    5.4058204    5.5721277
 
:EIG00051:       5.9714373    5.9714373    6.3807487    6.3807487    6.3807487
:EIG00056:       6.6051314    6.6051314    6.6051314    6.7231285    7.1657081
:EIG00061:       7.1657081    7.1657081
       ********************************************************

:KPT   :      NUMBER OF K-POINTS:   286

------- epsilon_Pu_10.scfso --------
   0.0   0.0 angle (M,z), angle (M,x) deg
 
        SPIN-ORBIT EIGENVALUES:
     K=   0.00000   0.00000   0.00000            1
      MATRIX SIZE=  124   WEIGHT= 1.00
     EIGENVALUES ARE:
          -2.2343952   -2.2343952   -0.6037360   -0.6037360    0.0705146
           0.0705146    0.0705146    0.0705146    0.7704158    0.7704158
           1.1209888    1.1209888    1.1316771    1.1316771    1.1316771
           1.1316771    1.2523886    1.2523886    1.2523886    1.2523886
           1.2940249    1.2940249    1.3029718    1.3029718    1.3148799
           1.3148799    1.3148799    1.3148799    1.3534173    1.3534173
           1.5848311    1.5848311    1.5848311    1.5848311    2.2330659
           2.2330659    2.2398232    2.2398232    2.2398232    2.2398232

           2.9173903    2.9173903    2.9173903    2.9173903    3.1093833
           3.1093833    3.2838242    3.2838242    3.3200333    3.3200333
           3.3200334    3.3200334    4.0623496    4.0623496    4.0623496
           4.0623496    4.1205473    4.1205473    4.3660456    4.3660456

       ********************************************************

------- epsilon_Pu_10.scf2 --------
:GMA  : POTENTIAL AND CHARGE CUT-OFF  12.00 Ry**.5
         Bandranges (emin - emax) and occupancy:
:BAN00008:   8   -0.120398    0.070515  1.00000000
:BAN00009:   9    0.770416    1.156506  1.00000000
:BAN00010:  10    0.770416    1.156506  1.00000000
:BAN00011:  11    0.939571    1.170210  1.00000000
:BAN00012:  12    0.939571    1.170210  1.00000000
:BAN00013:  13    1.096028    1.170485  1.00000000
:BAN00014:  14    1.096028    1.170485  1.00000000
:BAN00015:  15    1.131677    1.179656  0.97226678
:BAN00016:  16    1.131677    1.179656  0.97226678
:BAN00017:  17    1.168569    1.252389  0.02773322
:BAN00018:  18    1.168569    1.252389  0.02773322
:BAN00019:  19    1.185733    1.253616  0.00000000
:BAN00020:  20    1.185733    1.253616  0.00000000
:BAN00021:  21    1.246456    1.294025  0.00000000
:BAN00022:  22    1.246456    1.294025  0.00000000
:BAN00023:  23    1.252936    1.302972  0.00000000
        Energy to separate low and high energystates:    0.72042


:NLDA  : NUMBER OF ELECTRONS          =  16.000

:FLDA  : F E R M I - ENERGY           =   1.67594




:POS001: AT.NR.   1 POSITION = 0.00000 0.00000 0.00000  MULTIPLICITY =  1

       LMMAX  5
       LM=   0 0  4 0  4 4  6 0  6 4
:FER DMFT Fermi Energy   1.14503
:EORB    0.18680055
:SUM SUM OF DMFT BAND ENERGIES    2.70106388

:CHA001: TOTAL CHARGE INSIDE SPHERE   1 =    11.565403
:PCS001: PARTIAL CHARGES SPHERE =  1 S,P,D,F,      D-EG,D-T2G 
:QTL001: 1.9613 4.5864 0.4373 4.5793 0.0000 0.0000 0.0000 0.2016 0.2458 0.0000 0.0000 0.0000
        Q-s-low E-s-low   Q-p-low E-p-low   Q-d-low E-d-low   Q-f-low E-f-low
:EPL001:  1.8733 -2.2085    4.4818 -0.2821    0.0059 -0.1114    0.0023 -0.1274
        Q-s-hi  E-s-hi    Q-p-hi  E-p-hi    Q-d-hi  E-d-hi    Q-f-hi  E-f-hi 
:EPH001:  0.0881  0.9927    0.1046  1.0500    0.4315  1.0555    4.5770  1.1427

:CHA  : TOTAL CHARGE INSIDE UNIT CELL =      15.999994

:ESUM  : SUM OF EIGENVALUES =           2.924261813


------- epsilon_Pu_10.scfc --------

        1.ATOM      Pu  0+               21 CORE STATES
:1S 001: 1S               -8966.565785523 Ry
:2S 001: 2S               -1687.237425997 Ry
:2PP001: 2P*              -1627.931590812 Ry
:2P 001: 2P               -1314.779651701 Ry
:3S 001: 3S                -427.773906878 Ry
:3PP001: 3P*               -400.849823619 Ry
:3P 001: 3P                -328.288108154 Ry
:3DD001: 3D*               -286.048747839 Ry
:3D 001: 3D                -271.506307635 Ry
:4S 001: 4S                -109.256060783 Ry
:4PP001: 4P*                -97.068241467 Ry
:4P 001: 4P                 -77.923205016 Ry
:4DD001: 4D*                -58.635798028 Ry
:4D 001: 4D                 -55.141295205 Ry
:5S 001: 5S                 -23.414104065 Ry
:5PP001: 5P*                -18.596715635 Ry
:5P 001: 5P                 -13.909497962 Ry
:4FF001: 4F*                -29.740626201 Ry
:4F 001: 4F                 -28.812609909 Ry
:5DD001: 5D*                 -6.876541835 Ry
:5D 001: 5D                  -6.178306436 Ry

------- epsilon_Pu_10.scfm --------

       DENSITY AT NUCLEUS
        JATOM    VALENCE       SEMI-CORE            CORE           TOTAL
:RTO001:   1    23688.648386        0.000000 45141811.068074 45165499.716460
     
       CHARGES OF NEW CHARGE DENSITY
:NTO  : TOTAL   INTERSTITIAL CHARGE=    4.4345891
:NTO001: TOTAL   CHARGE IN SPHERE  1 =       89.5560897

:NEC01: NUCLEAR AND ELECTRONIC CHARGE     94.00000    93.99068     1.00010
     
       CHARGES OF OLD CHARGE DENSITY
:OTO  : TOTAL   INTERSTITIAL CHARGE=    4.4451768
:OTO001: TOTAL   CHARGE IN SPHERE  1 =       89.5548232

:NEC02: NUCLEAR AND ELECTRONIC CHARGE     94.00000    94.00000     1.00000
     
       CONVERGENCE TEST
:DTO001: TOTAL   DIFFERENCE CHARGE**2 IN SPHERE  1 =  0.0017568

:DIS  :  CHARGE DISTANCE       ( 0.0017568 for atom    1 spin 1)      0.0017568
:BIG check (qbig,qrms,qtot)    0.586D-03   0.124D-02   0.176D-02
 
******************************************************
* MULTISECANT MIXING VER4 OPTIONS                    *
* Unpredicted Step Limit   0.100000                  *
* Plane Wave Dynamic Rescaling                       *
* Dynamic Regularization active                      *
* Upper Cutoff Lambda  1.0E-01 Lower 3.5E-04         *
* SQRT Multiplicity/Degeneracy                       *
* Max Number of Memory Steps    8                    *
******************************************************
 
:PLANE:  INTERSTITIAL TOTAL      1.87190 DISTAN  1.284E-02 % 
:CHARG:  CLM CHARGE   /ATOM    713.22673 DISTAN  1.095E-03 % 
:INFO :  Dynamic rescale   2.728E+01  1.000E-01
:INFO :  Number of Memory Steps    2 Skipping    0
:INFO :  Singular value   2.629E+00 Weight   1.000E+00 Projections   1.801E-03 -1.763E-03
:INFO :  Singular value   3.627E-05 Weight   1.062E-02 Projections   6.919E-04 -7.846E-04
:INFO :  Bounds         0.766D-01  0.200D+00  0.106D+00  0.766D-01
:DIRM :  MEMORY 2/8 RESCALE  27.28 RED 0.387 PRED 0.382 NEXT 0.947 COND 1.31E+00
:DIRP :  |BROYD|= 7.210E-04 |PRATT|= 5.019E-04 ANGLE=  42.0 DEGREES
:DIRB :  |BROYD|= 9.566E-04 |PRATT|= 7.808E-04 ANGLE=  44.0 DEGREES
:MIX  :  MSR1   REGULARIZATION: 3.50E-04  GREED: 0.077
     
       CHARGES OF MIXED CHARGE DENSITY
:CTO  : TOTAL   INTERSTITIAL CHARGE=    4.4449452
:CTO001: TOTAL   CHARGE IN SPHERE  1 =       89.5550548

:NEC03: NUCLEAR AND ELECTRONIC CHARGE     94.00000    94.00000     1.00000


:ENE  : ********** TOTAL ENERGY IN Ry =       -59354.74073014


------- epsilon_Pu_10.scf0 --------


            ---------
:ITE102:102. ITERATION
            ---------

:NATO :    1 INDEPENDENT AND    1 TOTAL ATOMS IN UNITCELL
       SUBSTANCE: cubic body-centered  (epsilon Pu)                           

       LATTICE                      = B   
:POT  : POTENTIAL OPTION    5
:LAT  : LATTICE CONSTANTS=  6.91509  6.91509  6.91509    1.571    1.571    1.571
:VOL  : UNIT CELL VOLUME =     165.33422
       MODE OF CALCULATION IS       = RELA
       NON-SPINPOLARIZED CALCULATION
:IFFT  : FFT-parameters:   60   60   60 Factor: 2.00
       ATOMNUMBER=  1 Pu  0+     VCOUL-ZERO =  0.31687E+00
:FIT001: LUSE= 13 SIGMA OF V-XC FIT FOR ATOM  1  0.1382008E-05
:FIT001: LUSE= 13 SIGMA OF V-XC FIT FOR ATOM  1  0.1382008E-05
:DEN  : DENSITY INTEGRAL  =        -21888.53163524   (Ry)
       ELS_POTENTIAL_AT Z=0 and Z=0.5:  -2.47937  -2.47937
       ELS_POTENTIAL_AT Y=0 and Y=0.5:   0.00000   0.00000
:VZERO:v0,v0c,v0x  -3.49334  -2.47937  -1.01397 v5,v5c,v5x  -3.49334  -2.47937  -1.01397
:VZERY:v0,v0c,v0x  -0.88755   0.00000  -0.88755 v5,v5c,v5x  -0.88755   0.00000  -0.88755
:VZERX:v0,v0c,v0x  -0.88755   0.00000  -0.88755 v5,v5c,v5x  -0.88755   0.00000  -0.88755

------- epsilon_Pu_10.scf1 --------

          ATOMIC SPHERE DEPENDENT PARAMETERS FOR ATOM  Pu  0+    
:e__0001: OVERALL ENERGY PARAMETER IS    0.9420
          OVERALL BASIS SET ON ATOM IS LAPW
:E0_0001: E( 0)=    0.9420
             APW+lo
:E0_0001: E( 0)=   -2.2575   E(BOTTOM)=   -3.031   E(TOP)=   -1.484
             LOCAL ORBITAL
:E1_0001: E( 1)=   -1.3340   E(BOTTOM)=   -1.334   E(TOP)= -200.000
             APW+lo
:E1_0001: E( 1)=    0.9420
             LOCAL ORBITAL
:E3_0001: E( 3)=    0.9420   E(BOTTOM)=    0.712   E(TOP)= -200.000
             APW+lo
:E2_0001: E( 2)=    0.9420   E(BOTTOM)=    0.872   E(TOP)= -200.000
             APW+lo

       K=   0.00000   0.00000   0.00000            1
:RKM  : MATRIX SIZE  197LOs:  20  RKM= 8.29  WEIGHT= 1.00  PGR:    
       EIGENVALUES ARE:
:EIG00001:      -2.2342537   -0.1334122   -0.1334122   -0.1334122    0.7704165
:EIG00006:       1.1389739    1.1389739    1.1389739    1.2591220    1.2591220
:EIG00011:       1.2591220    1.2956389    1.3304984    1.3304984    1.3304984
:EIG00016:       1.5823446    1.5823446    2.2370182    2.2370182    2.2370182
:EIG00021:       2.9181914    2.9181914    3.2531221    3.2531221    3.2531221
:EIG00026:       3.2838183    4.0814963    4.0814963    4.0814963    4.5331029
:EIG00031:       4.5331029    4.5331029    4.7028127    4.7028127    4.7028127
:EIG00036:       4.8155253    4.8155253    4.8155253    4.8728078    4.8772231
:EIG00041:       4.8772231    5.0729912    5.0729912    5.3574228    5.3574228
:EIG00046:       5.3574228    5.4058289    5.4058289    5.4058289    5.5722456
 
:EIG00051:       5.9714575    5.9714575    6.3807527    6.3807527    6.3807527
:EIG00056:       6.6051305    6.6051305    6.6051305    6.7231244    7.1657381
:EIG00061:       7.1657381    7.1657381
       ********************************************************

:KPT   :      NUMBER OF K-POINTS:   286

------- epsilon_Pu_10.scfso --------
   0.0   0.0 angle (M,z), angle (M,x) deg
 
        SPIN-ORBIT EIGENVALUES:
     K=   0.00000   0.00000   0.00000            1
      MATRIX SIZE=  124   WEIGHT= 1.00
     EIGENVALUES ARE:
          -2.2342537   -2.2342537   -0.6036208   -0.6036208    0.0706056
           0.0706056    0.0706056    0.0706056    0.7704165    0.7704165
           1.1211382    1.1211382    1.1318267    1.1318267    1.1318267
           1.1318267    1.2525682    1.2525682    1.2525682    1.2525682
           1.2942068    1.2942068    1.3031632    1.3031632    1.3149037
           1.3149037    1.3149037    1.3149037    1.3534390    1.3534390
           1.5848489    1.5848489    1.5848489    1.5848489    2.2331100
           2.2331100    2.2398685    2.2398685    2.2398685    2.2398685

           2.9174027    2.9174027    2.9174027    2.9174027    3.1094133
           3.1094133    3.2838183    3.2838183    3.3200614    3.3200614
           3.3200614    3.3200614    4.0624021    4.0624021    4.0624021
           4.0624021    4.1205982    4.1205982    4.3660827    4.3660827

       ********************************************************

------- epsilon_Pu_10.scf2 --------
:GMA  : POTENTIAL AND CHARGE CUT-OFF  12.00 Ry**.5
         Bandranges (emin - emax) and occupancy:
:BAN00008:   8   -0.120326    0.070606  1.00000000
:BAN00009:   9    0.770416    1.156647  1.00000000
:BAN00010:  10    0.770416    1.156647  1.00000000
:BAN00011:  11    0.939568    1.170382  1.00000000
:BAN00012:  12    0.939568    1.170382  1.00000000
:BAN00013:  13    1.096099    1.170656  1.00000000
:BAN00014:  14    1.096099    1.170656  1.00000000
:BAN00015:  15    1.131827    1.179783  0.97238553
:BAN00016:  16    1.131827    1.179783  0.97238553
:BAN00017:  17    1.168716    1.252568  0.02761446
:BAN00018:  18    1.168716    1.252568  0.02761446
:BAN00019:  19    1.185866    1.253783  0.00000000
:BAN00020:  20    1.185866    1.253783  0.00000000
:BAN00021:  21    1.246608    1.294207  0.00000000
:BAN00022:  22    1.246608    1.294207  0.00000000
:BAN00023:  23    1.253106    1.303163  0.00000000
        Energy to separate low and high energystates:    0.72042


:NLDA  : NUMBER OF ELECTRONS          =  16.000

:FLDA  : F E R M I - ENERGY           =   1.67610




:POS001: AT.NR.   1 POSITION = 0.00000 0.00000 0.00000  MULTIPLICITY =  1

       LMMAX  5
       LM=   0 0  4 0  4 4  6 0  6 4
:FER DMFT Fermi Energy   1.14503
:EORB    0.18787083
:SUM SUM OF DMFT BAND ENERGIES    2.70176138

:CHA001: TOTAL CHARGE INSIDE SPHERE   1 =    11.565202
:PCS001: PARTIAL CHARGES SPHERE =  1 S,P,D,F,      D-EG,D-T2G 
:QTL001: 1.9613 4.5862 0.4372 4.5793 0.0000 0.0000 0.0000 0.2016 0.2457 0.0000 0.0000 0.0000
        Q-s-low E-s-low   Q-p-low E-p-low   Q-d-low E-d-low   Q-f-low E-f-low
:EPL001:  1.8733 -2.2084    4.4817 -0.2820    0.0059 -0.1114    0.0023 -0.1273
        Q-s-hi  E-s-hi    Q-p-hi  E-p-hi    Q-d-hi  E-d-hi    Q-f-hi  E-f-hi 
:EPH001:  0.0881  0.9927    0.1046  1.0500    0.4314  1.0556    4.5770  1.1429

:CHA  : TOTAL CHARGE INSIDE UNIT CELL =      16.000000

:ESUM  : SUM OF EIGENVALUES =           2.925978457


------- epsilon_Pu_10.scfc --------

        1.ATOM      Pu  0+               21 CORE STATES
:1S 001: 1S               -8966.565211628 Ry
:2S 001: 2S               -1687.236865094 Ry
:2PP001: 2P*              -1627.931026603 Ry
:2P 001: 2P               -1314.779090823 Ry
:3S 001: 3S                -427.773378395 Ry
:3PP001: 3P*               -400.849291608 Ry
:3P 001: 3P                -328.287584142 Ry
:3DD001: 3D*               -286.048214880 Ry
:3D 001: 3D                -271.505776909 Ry
:4S 001: 4S                -109.255605721 Ry
:4PP001: 4P*                -97.067785398 Ry
:4P 001: 4P                 -77.922763314 Ry
:4DD001: 4D*                -58.635354154 Ry
:4D 001: 4D                 -55.140855425 Ry
:5S 001: 5S                 -23.413755620 Ry
:5PP001: 5P*                -18.596374350 Ry
:5P 001: 5P                 -13.909180694 Ry
:4FF001: 4F*                -29.740179970 Ry
:4F 001: 4F                 -28.812165738 Ry
:5DD001: 5D*                 -6.876248936 Ry
:5D 001: 5D                  -6.178021710 Ry

------- epsilon_Pu_10.scfm --------

       DENSITY AT NUCLEUS
        JATOM    VALENCE       SEMI-CORE            CORE           TOTAL
:RTO001:   1    23687.999650        0.000000 45141810.122375 45165498.122026
     
       CHARGES OF NEW CHARGE DENSITY
:NTO  : TOTAL   INTERSTITIAL CHARGE=    4.4347959
:NTO001: TOTAL   CHARGE IN SPHERE  1 =       89.5558879

:NEC01: NUCLEAR AND ELECTRONIC CHARGE     94.00000    93.99068     1.00010
     
       CHARGES OF OLD CHARGE DENSITY
:OTO  : TOTAL   INTERSTITIAL CHARGE=    4.4449452
:OTO001: TOTAL   CHARGE IN SPHERE  1 =       89.5550548

:NEC02: NUCLEAR AND ELECTRONIC CHARGE     94.00000    94.00000     1.00000
     
       CONVERGENCE TEST
:DTO001: TOTAL   DIFFERENCE CHARGE**2 IN SPHERE  1 =  0.0012447

:DIS  :  CHARGE DISTANCE       ( 0.0012447 for atom    1 spin 1)      0.0012447
:BIG check (qbig,qrms,qtot)    0.415D-03   0.880D-03   0.124D-02
 
******************************************************
* MULTISECANT MIXING VER4 OPTIONS                    *
* Unpredicted Step Limit   0.100000                  *
* Plane Wave Dynamic Rescaling                       *
* Dynamic Regularization active                      *
* Upper Cutoff Lambda  1.0E-01 Lower 3.5E-04         *
* SQRT Multiplicity/Degeneracy                       *
* Max Number of Memory Steps    8                    *
******************************************************
 
:PLANE:  INTERSTITIAL TOTAL      1.87191 DISTAN  1.076E-02 % 
:CHARG:  CLM CHARGE   /ATOM    713.22692 DISTAN  9.954E-04 % 
:INFO :  Dynamic rescale   2.909E+01  1.000E-01
:INFO :  Number of Memory Steps    3 Skipping    0
:INFO :  Singular value   3.715E+00 Weight   1.000E+00 Projections  -1.154E-02 -1.009E-03
:INFO :  Singular value   2.768E-01 Weight   1.000E+00 Projections  -1.319E-05  1.647E-02
:INFO :  Singular value   2.579E-05 Weight   5.398E-03 Projections  -1.447E-02 -8.390E-03
:INFO :  Bounds         0.872D-01  0.200D+00  0.118D+00  0.872D-01
:DIRM :  MEMORY 3/8 RESCALE  29.09 RED 0.878 PRED 0.947 NEXT 0.847 COND 1.24E+00
:DIRP :  |BROYD|= 3.214E-03 |PRATT|= 5.108E-04 ANGLE=  12.7 DEGREES
:DIRB :  |BROYD|= 4.898E-03 |PRATT|= 8.027E-04 ANGLE=  10.8 DEGREES
:MIX  :  MSR1   REGULARIZATION: 3.50E-04  GREED: 0.087
     
       CHARGES OF MIXED CHARGE DENSITY
:CTO  : TOTAL   INTERSTITIAL CHARGE=    4.4442884
:CTO001: TOTAL   CHARGE IN SPHERE  1 =       89.5557116

:NEC03: NUCLEAR AND ELECTRONIC CHARGE     94.00000    94.00000     1.00000


:ENE  : ********** TOTAL ENERGY IN Ry =       -59354.74066962


------- epsilon_Pu_10.scf0 --------


            ---------
:ITE103:103. ITERATION
            ---------

:NATO :    1 INDEPENDENT AND    1 TOTAL ATOMS IN UNITCELL
       SUBSTANCE: cubic body-centered  (epsilon Pu)                           

       LATTICE                      = B   
:POT  : POTENTIAL OPTION    5
:LAT  : LATTICE CONSTANTS=  6.91509  6.91509  6.91509    1.571    1.571    1.571
:VOL  : UNIT CELL VOLUME =     165.33422
       MODE OF CALCULATION IS       = RELA
       NON-SPINPOLARIZED CALCULATION
:IFFT  : FFT-parameters:   60   60   60 Factor: 2.00
       ATOMNUMBER=  1 Pu  0+     VCOUL-ZERO =  0.31686E+00
:FIT001: LUSE= 13 SIGMA OF V-XC FIT FOR ATOM  1  0.1404805E-05
:FIT001: LUSE= 13 SIGMA OF V-XC FIT FOR ATOM  1  0.1404805E-05
:DEN  : DENSITY INTEGRAL  =        -21888.66175592   (Ry)
       ELS_POTENTIAL_AT Z=0 and Z=0.5:  -2.47923  -2.47923
       ELS_POTENTIAL_AT Y=0 and Y=0.5:   0.00000   0.00000
:VZERO:v0,v0c,v0x  -3.49317  -2.47923  -1.01394 v5,v5c,v5x  -3.49317  -2.47923  -1.01394
:VZERY:v0,v0c,v0x  -0.88752   0.00000  -0.88752 v5,v5c,v5x  -0.88752   0.00000  -0.88752
:VZERX:v0,v0c,v0x  -0.88752   0.00000  -0.88752 v5,v5c,v5x  -0.88752   0.00000  -0.88752

------- epsilon_Pu_10.scf1 --------

          ATOMIC SPHERE DEPENDENT PARAMETERS FOR ATOM  Pu  0+    
:e__0001: OVERALL ENERGY PARAMETER IS    0.9420
          OVERALL BASIS SET ON ATOM IS LAPW
:E0_0001: E( 0)=    0.9420
             APW+lo
:E0_0001: E( 0)=   -2.2575   E(BOTTOM)=   -3.031   E(TOP)=   -1.484
             LOCAL ORBITAL
:E1_0001: E( 1)=   -1.3340   E(BOTTOM)=   -1.334   E(TOP)= -200.000
             APW+lo
:E1_0001: E( 1)=    0.9420
             LOCAL ORBITAL
:E3_0001: E( 3)=    0.9420   E(BOTTOM)=    0.712   E(TOP)= -200.000
             APW+lo
:E2_0001: E( 2)=    0.9420   E(BOTTOM)=    0.872   E(TOP)= -200.000
             APW+lo

       K=   0.00000   0.00000   0.00000            1
:RKM  : MATRIX SIZE  197LOs:  20  RKM= 8.29  WEIGHT= 1.00  PGR:    
       EIGENVALUES ARE:
:EIG00001:      -2.2338022   -0.1331014   -0.1331014   -0.1331014    0.7704202
:EIG00006:       1.1394425    1.1394425    1.1394425    1.2597109    1.2597109
:EIG00011:       1.2597109    1.2963069    1.3305770    1.3305770    1.3305770
:EIG00016:       1.5823889    1.5823889    2.2371696    2.2371696    2.2371696
:EIG00021:       2.9182275    2.9182275    3.2532136    3.2532136    3.2532136
:EIG00026:       3.2837993    4.0816693    4.0816693    4.0816693    4.5332274
:EIG00031:       4.5332274    4.5332274    4.7028242    4.7028242    4.7028242
:EIG00036:       4.8155519    4.8155519    4.8155519    4.8729120    4.8772315
:EIG00041:       4.8772315    5.0729415    5.0729415    5.3575179    5.3575179
:EIG00046:       5.3575179    5.4058594    5.4058594    5.4058594    5.5726431
 
:EIG00051:       5.9715132    5.9715132    6.3807682    6.3807682    6.3807682
:EIG00056:       6.6051290    6.6051290    6.6051290    6.7231061    7.1658346
:EIG00061:       7.1658346    7.1658346
       ********************************************************

:KPT   :      NUMBER OF K-POINTS:   286

------- epsilon_Pu_10.scfso --------
   0.0   0.0 angle (M,z), angle (M,x) deg
 
        SPIN-ORBIT EIGENVALUES:
     K=   0.00000   0.00000   0.00000            1
      MATRIX SIZE=  124   WEIGHT= 1.00
     EIGENVALUES ARE:
          -2.2338022   -2.2338022   -0.6032566   -0.6032566    0.0708913
           0.0708913    0.0708913    0.0708913    0.7704202    0.7704202
           1.1216279    1.1216279    1.1323141    1.1323141    1.1323141
           1.1323141    1.2531407    1.2531407    1.2531407    1.2531407
           1.2947845    1.2947845    1.3038151    1.3038151    1.3149853
           1.3149853    1.3149853    1.3149853    1.3535140    1.3535140
           1.5848925    1.5848925    1.5848925    1.5848925    2.2332592
           2.2332592    2.2400217    2.2400217    2.2400217    2.2400217

           2.9174390    2.9174390    2.9174390    2.9174390    3.1095084
           3.1095084    3.2837993    3.2837993    3.3201509    3.3201509
           3.3201510    3.3201510    4.0625764    4.0625764    4.0625764
           4.0625764    4.1207672    4.1207672    4.3662050    4.3662050

       ********************************************************

------- epsilon_Pu_10.scf2 --------
:GMA  : POTENTIAL AND CHARGE CUT-OFF  12.00 Ry**.5
         Bandranges (emin - emax) and occupancy:
:BAN00008:   8   -0.120098    0.070891  1.00000000
:BAN00009:   9    0.770420    1.157116  1.00000000
:BAN00010:  10    0.770420    1.157116  1.00000000
:BAN00011:  11    0.939552    1.170933  1.00000000
:BAN00012:  12    0.939552    1.170933  1.00000000
:BAN00013:  13    1.096326    1.171202  1.00000000
:BAN00014:  14    1.096326    1.171202  1.00000000
:BAN00015:  15    1.132314    1.180208  0.97277998
:BAN00016:  16    1.132314    1.180208  0.97277998
:BAN00017:  17    1.169202    1.253141  0.02722002
:BAN00018:  18    1.169202    1.253141  0.02722002
:BAN00019:  19    1.186271    1.254323  0.00000000
:BAN00020:  20    1.186271    1.254323  0.00000000
:BAN00021:  21    1.247102    1.294785  0.00000000
:BAN00022:  22    1.247102    1.294785  0.00000000
:BAN00023:  23    1.253655    1.303815  0.00000000
        Energy to separate low and high energystates:    0.72042


:NLDA  : NUMBER OF ELECTRONS          =  16.000

:FLDA  : F E R M I - ENERGY           =   1.67661




:POS001: AT.NR.   1 POSITION = 0.00000 0.00000 0.00000  MULTIPLICITY =  1

       LMMAX  5
       LM=   0 0  4 0  4 4  6 0  6 4
:FER DMFT Fermi Energy   1.14514
:EORB    0.19010113
:SUM SUM OF DMFT BAND ENERGIES    2.70507010

:CHA001: TOTAL CHARGE INSIDE SPHERE   1 =    11.563129
:PCS001: PARTIAL CHARGES SPHERE =  1 S,P,D,F,      D-EG,D-T2G 
:QTL001: 1.9613 4.5859 0.4375 4.5773 0.0000 0.0000 0.0000 0.2016 0.2459 0.0000 0.0000 0.0000
        Q-s-low E-s-low   Q-p-low E-p-low   Q-d-low E-d-low   Q-f-low E-f-low
:EPL001:  1.8732 -2.2079    4.4813 -0.2818    0.0059 -0.1111    0.0023 -0.1270
        Q-s-hi  E-s-hi    Q-p-hi  E-p-hi    Q-d-hi  E-d-hi    Q-f-hi  E-f-hi 
:EPH001:  0.0881  0.9928    0.1046  1.0502    0.4316  1.0558    4.5750  1.1433

:CHA  : TOTAL CHARGE INSIDE UNIT CELL =      16.000000

:ESUM  : SUM OF EIGENVALUES =           2.931410954


------- epsilon_Pu_10.scfc --------

        1.ATOM      Pu  0+               21 CORE STATES
:1S 001: 1S               -8966.563065976 Ry
:2S 001: 2S               -1687.234788218 Ry
:2PP001: 2P*              -1627.928932474 Ry
:2P 001: 2P               -1314.777013991 Ry
:3S 001: 3S                -427.771453639 Ry
:3PP001: 3P*               -400.847350981 Ry
:3P 001: 3P                -328.285678473 Ry
:3DD001: 3D*               -286.046270160 Ry
:3D 001: 3D                -271.503842180 Ry
:4S 001: 4S                -109.253987791 Ry
:4PP001: 4P*                -97.066163149 Ry
:4P 001: 4P                 -77.921200509 Ry
:4DD001: 4D*                -58.633782296 Ry
:4D 001: 4D                 -55.139300519 Ry
:5S 001: 5S                 -23.412570339 Ry
:5PP001: 5P*                -18.595216293 Ry
:5P 001: 5P                 -13.908113771 Ry
:4FF001: 4F*                -29.738599531 Ry
:4F 001: 4F                 -28.810593781 Ry
:5DD001: 5D*                 -6.875271190 Ry
:5D 001: 5D                  -6.177073805 Ry

------- epsilon_Pu_10.scfm --------

       DENSITY AT NUCLEUS
        JATOM    VALENCE       SEMI-CORE            CORE           TOTAL
:RTO001:   1    23686.009779        0.000000 45141806.202994 45165492.212773
     
       CHARGES OF NEW CHARGE DENSITY
:NTO  : TOTAL   INTERSTITIAL CHARGE=    4.4368688
:NTO001: TOTAL   CHARGE IN SPHERE  1 =       89.5538110

:NEC01: NUCLEAR AND ELECTRONIC CHARGE     94.00000    93.99068     1.00010
     
       CHARGES OF OLD CHARGE DENSITY
:OTO  : TOTAL   INTERSTITIAL CHARGE=    4.4442884
:OTO001: TOTAL   CHARGE IN SPHERE  1 =       89.5557116

:NEC02: NUCLEAR AND ELECTRONIC CHARGE     94.00000    94.00000     1.00000
     
       CONVERGENCE TEST
:DTO001: TOTAL   DIFFERENCE CHARGE**2 IN SPHERE  1 =  0.0018973

:DIS  :  CHARGE DISTANCE       ( 0.0018973 for atom    1 spin 1)      0.0018973
:BIG check (qbig,qrms,qtot)    0.632D-03   0.134D-02   0.190D-02
 
******************************************************
* MULTISECANT MIXING VER4 OPTIONS                    *
* Unpredicted Step Limit   0.100000                  *
* Plane Wave Dynamic Rescaling                       *
* Dynamic Regularization active                      *
* Upper Cutoff Lambda  1.0E-01 Lower 3.5E-04         *
* SQRT Multiplicity/Degeneracy                       *
* Max Number of Memory Steps    8                    *
******************************************************
 
:PLANE:  INTERSTITIAL TOTAL      1.87189 DISTAN  1.183E-02 % 
:CHARG:  CLM CHARGE   /ATOM    713.22767 DISTAN  7.958E-04 % 
:INFO :  Dynamic rescale   2.835E+01  1.000E-01
:INFO :  Number of Memory Steps    4 Skipping    0
:INFO :  Singular value   3.896E+00 Weight   1.000E+00 Projections  -3.720E-03  4.758E-03
:INFO :  Singular value   1.762E+00 Weight   1.000E+00 Projections  -3.516E-03  2.384E-03
:INFO :  Singular value   3.113E-03 Weight   9.875E-01 Projections   1.967E-03 -1.321E-03
:INFO :  Singular value   9.031E-06 Weight   6.653E-04 Projections  -5.805E-05  6.685E-05
:INFO :  Bounds         0.939D-01  0.200D+00  0.775D+00  0.939D-01
:DIRM :  MEMORY 4/8 RESCALE  28.35 RED 0.929 PRED 0.847 NEXT 0.129 COND 9.74E-01
:DIRP :  |BROYD|= 2.623E-03 |PRATT|= 5.894E-04 ANGLE=  25.9 DEGREES
:DIRB :  |BROYD|= 3.794E-03 |PRATT|= 7.945E-04 ANGLE=  28.5 DEGREES
:MIX  :  MSR1   REGULARIZATION: 3.50E-04  GREED: 0.094
     
       CHARGES OF MIXED CHARGE DENSITY
:CTO  : TOTAL   INTERSTITIAL CHARGE=    4.4448585
:CTO001: TOTAL   CHARGE IN SPHERE  1 =       89.5551415

:NEC03: NUCLEAR AND ELECTRONIC CHARGE     94.00000    94.00000     1.00000


:ENE  : ********** TOTAL ENERGY IN Ry =       -59354.74061043


------- epsilon_Pu_10.scf0 --------


            ---------
:ITE104:104. ITERATION
            ---------

:NATO :    1 INDEPENDENT AND    1 TOTAL ATOMS IN UNITCELL
       SUBSTANCE: cubic body-centered  (epsilon Pu)                           

       LATTICE                      = B   
:POT  : POTENTIAL OPTION    5
:LAT  : LATTICE CONSTANTS=  6.91509  6.91509  6.91509    1.571    1.571    1.571
:VOL  : UNIT CELL VOLUME =     165.33422
       MODE OF CALCULATION IS       = RELA
       NON-SPINPOLARIZED CALCULATION
:IFFT  : FFT-parameters:   60   60   60 Factor: 2.00
       ATOMNUMBER=  1 Pu  0+     VCOUL-ZERO =  0.31684E+00
:FIT001: LUSE= 13 SIGMA OF V-XC FIT FOR ATOM  1  0.1434356E-05
:FIT001: LUSE= 13 SIGMA OF V-XC FIT FOR ATOM  1  0.1434356E-05
:DEN  : DENSITY INTEGRAL  =        -21888.60634404   (Ry)
       ELS_POTENTIAL_AT Z=0 and Z=0.5:  -2.47941  -2.47941
       ELS_POTENTIAL_AT Y=0 and Y=0.5:   0.00000   0.00000
:VZERO:v0,v0c,v0x  -3.49336  -2.47941  -1.01394 v5,v5c,v5x  -3.49336  -2.47941  -1.01394
:VZERY:v0,v0c,v0x  -0.88755   0.00000  -0.88755 v5,v5c,v5x  -0.88755   0.00000  -0.88755
:VZERX:v0,v0c,v0x  -0.88755   0.00000  -0.88755 v5,v5c,v5x  -0.88755   0.00000  -0.88755

------- epsilon_Pu_10.scf1 --------

          ATOMIC SPHERE DEPENDENT PARAMETERS FOR ATOM  Pu  0+    
:e__0001: OVERALL ENERGY PARAMETER IS    0.9420
          OVERALL BASIS SET ON ATOM IS LAPW
:E0_0001: E( 0)=    0.9420
             APW+lo
:E0_0001: E( 0)=   -2.2575   E(BOTTOM)=   -3.031   E(TOP)=   -1.484
             LOCAL ORBITAL
:E1_0001: E( 1)=   -1.3340   E(BOTTOM)=   -1.334   E(TOP)= -200.000
             APW+lo
:E1_0001: E( 1)=    0.9420
             LOCAL ORBITAL
:E3_0001: E( 3)=    0.9420   E(BOTTOM)=    0.712   E(TOP)= -200.000
             APW+lo
:E2_0001: E( 2)=    0.9420   E(BOTTOM)=    0.872   E(TOP)= -200.000
             APW+lo

       K=   0.00000   0.00000   0.00000            1
:RKM  : MATRIX SIZE  197LOs:  20  RKM= 8.29  WEIGHT= 1.00  PGR:    
       EIGENVALUES ARE:
:EIG00001:      -2.2340836   -0.1333022   -0.1333022   -0.1333022    0.7704236
:EIG00006:       1.1391710    1.1391710    1.1391710    1.2593431    1.2593431
:EIG00011:       1.2593431    1.2959644    1.3305391    1.3305391    1.3305391
:EIG00016:       1.5823417    1.5823417    2.2370932    2.2370932    2.2370932
:EIG00021:       2.9182016    2.9182016    3.2531591    3.2531591    3.2531591
:EIG00026:       3.2838134    4.0815744    4.0815744    4.0815744    4.5331586
:EIG00031:       4.5331586    4.5331586    4.7028050    4.7028050    4.7028050
:EIG00036:       4.8155442    4.8155442    4.8155442    4.8728369    4.8772154
:EIG00041:       4.8772154    5.0729808    5.0729808    5.3574594    5.3574594
:EIG00046:       5.3574594    5.4058497    5.4058497    5.4058497    5.5724352
 
:EIG00051:       5.9714648    5.9714648    6.3807653    6.3807653    6.3807653
:EIG00056:       6.6051348    6.6051348    6.6051348    6.7231112    7.1657788
:EIG00061:       7.1657788    7.1657788
       ********************************************************

:KPT   :      NUMBER OF K-POINTS:   286

------- epsilon_Pu_10.scfso --------
   0.0   0.0 angle (M,z), angle (M,x) deg
 
        SPIN-ORBIT EIGENVALUES:
     K=   0.00000   0.00000   0.00000            1
      MATRIX SIZE=  124   WEIGHT= 1.00
     EIGENVALUES ARE:
          -2.2340836   -2.2340836   -0.6034893   -0.6034893    0.0707055
           0.0707055    0.0707055    0.0707055    0.7704236    0.7704236
           1.1213467    1.1213467    1.1320295    1.1320295    1.1320295
           1.1320295    1.2527852    1.2527852    1.2527852    1.2527852
           1.2944224    1.2944224    1.3034796    1.3034796    1.3149450
           1.3149450    1.3149450    1.3149450    1.3534785    1.3534785
           1.5848462    1.5848462    1.5848462    1.5848462    2.2331841
           2.2331841    2.2399441    2.2399441    2.2399441    2.2399441

           2.9174130    2.9174130    2.9174130    2.9174130    3.1094509
           3.1094509    3.2838134    3.2838134    3.3200982    3.3200982
           3.3200982    3.3200982    4.0624808    4.0624808    4.0624808
           4.0624808    4.1206744    4.1206744    4.3661387    4.3661387

       ********************************************************

------- epsilon_Pu_10.scf2 --------
:GMA  : POTENTIAL AND CHARGE CUT-OFF  12.00 Ry**.5
         Bandranges (emin - emax) and occupancy:
:BAN00008:   8   -0.120243    0.070705  1.00000000
:BAN00009:   9    0.770424    1.156866  1.00000000
:BAN00010:  10    0.770424    1.156866  1.00000000
:BAN00011:  11    0.939554    1.170597  1.00000000
:BAN00012:  12    0.939554    1.170597  1.00000000
:BAN00013:  13    1.096186    1.170869  1.00000000
:BAN00014:  14    1.096186    1.170869  1.00000000
:BAN00015:  15    1.132029    1.179976  0.97248324
:BAN00016:  16    1.132029    1.179976  0.97248324
:BAN00017:  17    1.168927    1.252785  0.02751676
:BAN00018:  18    1.168927    1.252785  0.02751676
:BAN00019:  19    1.186055    1.254004  0.00000000
:BAN00020:  20    1.186055    1.254004  0.00000000
:BAN00021:  21    1.246808    1.294422  0.00000000
:BAN00022:  22    1.246808    1.294422  0.00000000
:BAN00023:  23    1.253329    1.303480  0.00000000
        Energy to separate low and high energystates:    0.72042


:NLDA  : NUMBER OF ELECTRONS          =  16.000

:FLDA  : F E R M I - ENERGY           =   1.67632




:POS001: AT.NR.   1 POSITION = 0.00000 0.00000 0.00000  MULTIPLICITY =  1

       LMMAX  5
       LM=   0 0  4 0  4 4  6 0  6 4
:FER DMFT Fermi Energy   1.14506
:EORB    0.18890393
:SUM SUM OF DMFT BAND ENERGIES    2.70288786

:CHA001: TOTAL CHARGE INSIDE SPHERE   1 =    11.564561
:PCS001: PARTIAL CHARGES SPHERE =  1 S,P,D,F,      D-EG,D-T2G 
:QTL001: 1.9613 4.5861 0.4373 4.5788 0.0000 0.0000 0.0000 0.2016 0.2457 0.0000 0.0000 0.0000
        Q-s-low E-s-low   Q-p-low E-p-low   Q-d-low E-d-low   Q-f-low E-f-low
:EPL001:  1.8733 -2.2082    4.4815 -0.2819    0.0059 -0.1113    0.0023 -0.1272
        Q-s-hi  E-s-hi    Q-p-hi  E-p-hi    Q-d-hi  E-d-hi    Q-f-hi  E-f-hi 
:EPH001:  0.0881  0.9928    0.1046  1.0501    0.4314  1.0556    4.5765  1.1430

:CHA  : TOTAL CHARGE INSIDE UNIT CELL =      16.000000

:ESUM  : SUM OF EIGENVALUES =           2.928113770


------- epsilon_Pu_10.scfc --------

        1.ATOM      Pu  0+               21 CORE STATES
:1S 001: 1S               -8966.563788637 Ry
:2S 001: 2S               -1687.235521941 Ry
:2PP001: 2P*              -1627.929663643 Ry
:2P 001: 2P               -1314.777747606 Ry
:3S 001: 3S                -427.772189108 Ry
:3PP001: 3P*               -400.848087255 Ry
:3P 001: 3P                -328.286411464 Ry
:3DD001: 3D*               -286.047006823 Ry
:3D 001: 3D                -271.504578268 Ry
:4S 001: 4S                -109.254673080 Ry
:4PP001: 4P*                -97.066848972 Ry
:4P 001: 4P                 -77.921875754 Ry
:4DD001: 4D*                -58.634459068 Ry
:4D 001: 4D                 -55.139974307 Ry
:5S 001: 5S                 -23.413167295 Ry
:5PP001: 5P*                -18.595804908 Ry
:5P 001: 5P                 -13.908674101 Ry
:4FF001: 4F*                -29.739279813 Ry
:4F 001: 4F                 -28.811272498 Ry
:5DD001: 5D*                 -6.875798215 Ry
:5D 001: 5D                  -6.177589566 Ry

------- epsilon_Pu_10.scfm --------

       DENSITY AT NUCLEUS
        JATOM    VALENCE       SEMI-CORE            CORE           TOTAL
:RTO001:   1    23687.093537        0.000000 45141806.875264 45165493.968801
     
       CHARGES OF NEW CHARGE DENSITY
:NTO  : TOTAL   INTERSTITIAL CHARGE=    4.4354365
:NTO001: TOTAL   CHARGE IN SPHERE  1 =       89.5552452

:NEC01: NUCLEAR AND ELECTRONIC CHARGE     94.00000    93.99068     1.00010
     
       CHARGES OF OLD CHARGE DENSITY
:OTO  : TOTAL   INTERSTITIAL CHARGE=    4.4448585
:OTO001: TOTAL   CHARGE IN SPHERE  1 =       89.5551415

:NEC02: NUCLEAR AND ELECTRONIC CHARGE     94.00000    94.00000     1.00000
     
       CONVERGENCE TEST
:DTO001: TOTAL   DIFFERENCE CHARGE**2 IN SPHERE  1 =  0.0002085

:DIS  :  CHARGE DISTANCE       ( 0.0002085 for atom    1 spin 1)      0.0002085
:BIG check (qbig,qrms,qtot)    0.695D-04   0.147D-03   0.208D-03
 
******************************************************
* MULTISECANT MIXING VER4 OPTIONS                    *
* Unpredicted Step Limit   0.100000                  *
* Plane Wave Dynamic Rescaling                       *
* Dynamic Regularization active                      *
* Upper Cutoff Lambda  1.0E-01 Lower 3.5E-04         *
* SQRT Multiplicity/Degeneracy                       *
* Max Number of Memory Steps    8                    *
******************************************************
 
:PLANE:  INTERSTITIAL TOTAL      1.87188 DISTAN  9.459E-04 % 
:CHARG:  CLM CHARGE   /ATOM    713.22752 DISTAN  1.257E-04 % 
:INFO :  Dynamic rescale   3.115E+01  1.000E-01
:INFO :  Number of Memory Steps    5 Skipping    0
:INFO :  Singular value   4.799E+00 Weight   1.000E+00 Projections   8.269E-03 -5.401E-05
:INFO :  Singular value   2.910E+00 Weight   1.000E+00 Projections   7.847E-03 -2.175E-04
:INFO :  Singular value   6.105E-03 Weight   9.967E-01 Projections   1.761E-03 -1.999E-03
:INFO :  Singular value   1.789E-04 Weight   2.071E-01 Projections  -4.294E-03  1.940E-02
:INFO :  Singular value   4.300E-06 Weight   1.509E-04 Projections  -1.513E-02  1.929E-05
:INFO :  Bounds         0.188D+00  0.200D+00  0.128D+00  0.128D+00
:DIRM :  MEMORY 5/8 RESCALE  31.15 RED 0.118 PRED 0.129 NEXT 0.779 COND 9.60E-01
:DIRP :  |BROYD|= 1.336E-04 |PRATT|= 7.084E-05 ANGLE=  33.5 DEGREES
:DIRB :  |BROYD|= 2.998E-04 |PRATT|= 1.352E-04 ANGLE=  23.4 DEGREES
:MIX  :  MSR1   REGULARIZATION: 3.50E-04  GREED: 0.128
     
       CHARGES OF MIXED CHARGE DENSITY
:CTO  : TOTAL   INTERSTITIAL CHARGE=    4.4448412
:CTO001: TOTAL   CHARGE IN SPHERE  1 =       89.5551588

:NEC03: NUCLEAR AND ELECTRONIC CHARGE     94.00000    94.00000     1.00000


:ENE  : ********** TOTAL ENERGY IN Ry =       -59354.74064576


------- epsilon_Pu_10.scf0 --------


            ---------
:ITE105:105. ITERATION
            ---------

:NATO :    1 INDEPENDENT AND    1 TOTAL ATOMS IN UNITCELL
       SUBSTANCE: cubic body-centered  (epsilon Pu)                           

       LATTICE                      = B   
:POT  : POTENTIAL OPTION    5
:LAT  : LATTICE CONSTANTS=  6.91509  6.91509  6.91509    1.571    1.571    1.571
:VOL  : UNIT CELL VOLUME =     165.33422
       MODE OF CALCULATION IS       = RELA
       NON-SPINPOLARIZED CALCULATION
:IFFT  : FFT-parameters:   60   60   60 Factor: 2.00
       ATOMNUMBER=  1 Pu  0+     VCOUL-ZERO =  0.31684E+00
:FIT001: LUSE= 13 SIGMA OF V-XC FIT FOR ATOM  1  0.1432281E-05
:FIT001: LUSE= 13 SIGMA OF V-XC FIT FOR ATOM  1  0.1432281E-05
:DEN  : DENSITY INTEGRAL  =        -21888.60212707   (Ry)
       ELS_POTENTIAL_AT Z=0 and Z=0.5:  -2.47941  -2.47941
       ELS_POTENTIAL_AT Y=0 and Y=0.5:   0.00000   0.00000
:VZERO:v0,v0c,v0x  -3.49335  -2.47941  -1.01395 v5,v5c,v5x  -3.49335  -2.47941  -1.01395
:VZERY:v0,v0c,v0x  -0.88754   0.00000  -0.88754 v5,v5c,v5x  -0.88754   0.00000  -0.88754
:VZERX:v0,v0c,v0x  -0.88754   0.00000  -0.88754 v5,v5c,v5x  -0.88754   0.00000  -0.88754

------- epsilon_Pu_10.scf1 --------

          ATOMIC SPHERE DEPENDENT PARAMETERS FOR ATOM  Pu  0+    
:e__0001: OVERALL ENERGY PARAMETER IS    0.9420
          OVERALL BASIS SET ON ATOM IS LAPW
:E0_0001: E( 0)=    0.9420
             APW+lo
:E0_0001: E( 0)=   -2.2575   E(BOTTOM)=   -3.031   E(TOP)=   -1.484
             LOCAL ORBITAL
:E1_0001: E( 1)=   -1.3340   E(BOTTOM)=   -1.334   E(TOP)= -200.000
             APW+lo
:E1_0001: E( 1)=    0.9420
             LOCAL ORBITAL
:E3_0001: E( 3)=    0.9420   E(BOTTOM)=    0.712   E(TOP)= -200.000
             APW+lo
:E2_0001: E( 2)=    0.9420   E(BOTTOM)=    0.872   E(TOP)= -200.000
             APW+lo

       K=   0.00000   0.00000   0.00000            1
:RKM  : MATRIX SIZE  197LOs:  20  RKM= 8.29  WEIGHT= 1.00  PGR:    
       EIGENVALUES ARE:
:EIG00001:      -2.2340817   -0.1333007   -0.1333007   -0.1333007    0.7704219
:EIG00006:       1.1391713    1.1391713    1.1391713    1.2593434    1.2593434
:EIG00011:       1.2593434    1.2959655    1.3305387    1.3305387    1.3305387
:EIG00016:       1.5823409    1.5823409    2.2370911    2.2370911    2.2370911
:EIG00021:       2.9182004    2.9182004    3.2531576    3.2531576    3.2531576
:EIG00026:       3.2838121    4.0815742    4.0815742    4.0815742    4.5331572
:EIG00031:       4.5331572    4.5331572    4.7028048    4.7028048    4.7028048
:EIG00036:       4.8155437    4.8155437    4.8155437    4.8728361    4.8772139
:EIG00041:       4.8772139    5.0729796    5.0729796    5.3574576    5.3574576
:EIG00046:       5.3574576    5.4058477    5.4058477    5.4058477    5.5724336
 
:EIG00051:       5.9714651    5.9714651    6.3807643    6.3807643    6.3807643
:EIG00056:       6.6051335    6.6051335    6.6051335    6.7231103    7.1657773
:EIG00061:       7.1657773    7.1657773
       ********************************************************

:KPT   :      NUMBER OF K-POINTS:   286

------- epsilon_Pu_10.scfso --------
   0.0   0.0 angle (M,z), angle (M,x) deg
 
        SPIN-ORBIT EIGENVALUES:
     K=   0.00000   0.00000   0.00000            1
      MATRIX SIZE=  124   WEIGHT= 1.00
     EIGENVALUES ARE:
          -2.2340817   -2.2340817   -0.6034875   -0.6034875    0.0707068
           0.0707068    0.0707068    0.0707068    0.7704219    0.7704219
           1.1213469    1.1213469    1.1320297    1.1320297    1.1320297
           1.1320297    1.2527854    1.2527854    1.2527854    1.2527854
           1.2944227    1.2944227    1.3034807    1.3034807    1.3149446
           1.3149446    1.3149446    1.3149446    1.3534781    1.3534781
           1.5848454    1.5848454    1.5848454    1.5848454    2.2331820
           2.2331820    2.2399421    2.2399421    2.2399421    2.2399421

           2.9174118    2.9174118    2.9174118    2.9174118    3.1094494
           3.1094494    3.2838121    3.2838121    3.3200966    3.3200966
           3.3200966    3.3200966    4.0624806    4.0624806    4.0624806
           4.0624806    4.1206742    4.1206742    4.3661373    4.3661373

       ********************************************************

------- epsilon_Pu_10.scf2 --------
:GMA  : POTENTIAL AND CHARGE CUT-OFF  12.00 Ry**.5
         Bandranges (emin - emax) and occupancy:
:BAN00008:   8   -0.120242    0.070707  1.00000000
:BAN00009:   9    0.770422    1.156867  1.00000000
:BAN00010:  10    0.770422    1.156867  1.00000000
:BAN00011:  11    0.939553    1.170598  1.00000000
:BAN00012:  12    0.939553    1.170598  1.00000000
:BAN00013:  13    1.096186    1.170869  1.00000000
:BAN00014:  14    1.096186    1.170869  1.00000000
:BAN00015:  15    1.132030    1.179976  0.97248416
:BAN00016:  16    1.132030    1.179976  0.97248416
:BAN00017:  17    1.168927    1.252785  0.02751584
:BAN00018:  18    1.168927    1.252785  0.02751584
:BAN00019:  19    1.186055    1.254005  0.00000000
:BAN00020:  20    1.186055    1.254005  0.00000000
:BAN00021:  21    1.246808    1.294423  0.00000000
:BAN00022:  22    1.246808    1.294423  0.00000000
:BAN00023:  23    1.253330    1.303481  0.00000000
        Energy to separate low and high energystates:    0.72042


:NLDA  : NUMBER OF ELECTRONS          =  16.000

:FLDA  : F E R M I - ENERGY           =   1.67632




:POS001: AT.NR.   1 POSITION = 0.00000 0.00000 0.00000  MULTIPLICITY =  1

       LMMAX  5
       LM=   0 0  4 0  4 4  6 0  6 4
:FER DMFT Fermi Energy   1.14505
:EORB    0.18903894
:SUM SUM OF DMFT BAND ENERGIES    2.70277260

:CHA001: TOTAL CHARGE INSIDE SPHERE   1 =    11.564734
:PCS001: PARTIAL CHARGES SPHERE =  1 S,P,D,F,      D-EG,D-T2G 
:QTL001: 1.9613 4.5861 0.4372 4.5790 0.0000 0.0000 0.0000 0.2016 0.2457 0.0000 0.0000 0.0000
        Q-s-low E-s-low   Q-p-low E-p-low   Q-d-low E-d-low   Q-f-low E-f-low
:EPL001:  1.8733 -2.2082    4.4815 -0.2819    0.0059 -0.1113    0.0023 -0.1272
        Q-s-hi  E-s-hi    Q-p-hi  E-p-hi    Q-d-hi  E-d-hi    Q-f-hi  E-f-hi 
:EPH001:  0.0881  0.9928    0.1046  1.0501    0.4313  1.0556    4.5767  1.1430

:CHA  : TOTAL CHARGE INSIDE UNIT CELL =      16.000005

:ESUM  : SUM OF EIGENVALUES =           2.928142420


------- epsilon_Pu_10.scfc --------

        1.ATOM      Pu  0+               21 CORE STATES
:1S 001: 1S               -8966.563907607 Ry
:2S 001: 2S               -1687.235630994 Ry
:2PP001: 2P*              -1627.929775317 Ry
:2P 001: 2P               -1314.777856648 Ry
:3S 001: 3S                -427.772275052 Ry
:3PP001: 3P*               -400.848175454 Ry
:3P 001: 3P                -328.286494884 Ry
:3DD001: 3D*               -286.047095748 Ry
:3D 001: 3D                -271.504665765 Ry
:4S 001: 4S                -109.254721638 Ry
:4PP001: 4P*                -97.066898113 Ry
:4P 001: 4P                 -77.921918487 Ry
:4DD001: 4D*                -58.634503007 Ry
:4D 001: 4D                 -55.140016469 Ry
:5S 001: 5S                 -23.413180493 Ry
:5PP001: 5P*                -18.595816939 Ry
:5P 001: 5P                 -13.908682224 Ry
:4FF001: 4F*                -29.739324720 Ry
:4F 001: 4F                 -28.811316514 Ry
:5DD001: 5D*                 -6.875803700 Ry
:5D 001: 5D                  -6.177594172 Ry

------- epsilon_Pu_10.scfm --------

       DENSITY AT NUCLEUS
        JATOM    VALENCE       SEMI-CORE            CORE           TOTAL
:RTO001:   1    23687.061581        0.000000 45141807.243740 45165494.305321
     
       CHARGES OF NEW CHARGE DENSITY
:NTO  : TOTAL   INTERSTITIAL CHARGE=    4.4352693
:NTO001: TOTAL   CHARGE IN SPHERE  1 =       89.5554176

:NEC01: NUCLEAR AND ELECTRONIC CHARGE     94.00000    93.99069     1.00010
     
       CHARGES OF OLD CHARGE DENSITY
:OTO  : TOTAL   INTERSTITIAL CHARGE=    4.4448412
:OTO001: TOTAL   CHARGE IN SPHERE  1 =       89.5551588

:NEC02: NUCLEAR AND ELECTRONIC CHARGE     94.00000    94.00000     1.00000
     
       CONVERGENCE TEST
:DTO001: TOTAL   DIFFERENCE CHARGE**2 IN SPHERE  1 =  0.0002968

:DIS  :  CHARGE DISTANCE       ( 0.0002968 for atom    1 spin 1)      0.0002968
:BIG check (qbig,qrms,qtot)    0.989D-04   0.210D-03   0.297D-03
 
******************************************************
* MULTISECANT MIXING VER4 OPTIONS                    *
* Unpredicted Step Limit   0.100000                  *
* Plane Wave Dynamic Rescaling                       *
* Dynamic Regularization active                      *
* Upper Cutoff Lambda  1.0E-01 Lower 3.5E-04         *
* SQRT Multiplicity/Degeneracy                       *
* Max Number of Memory Steps    8                    *
******************************************************
 
:PLANE:  INTERSTITIAL TOTAL      1.87188 DISTAN  1.492E-03 % 
:CHARG:  CLM CHARGE   /ATOM    713.22745 DISTAN  1.074E-04 % 
:INFO :  Dynamic rescale   3.057E+01  1.000E-01
:INFO :  Number of Memory Steps    6 Skipping    0
:INFO :  Singular value   5.345E+00 Weight   1.000E+00 Projections   3.666E-04 -2.506E-04
:INFO :  Singular value   2.967E+00 Weight   1.000E+00 Projections   2.087E-03 -3.682E-04
:INFO :  Singular value   5.941E-01 Weight   1.000E+00 Projections   9.314E-03 -5.946E-04
:INFO :  Singular value   4.146E-03 Weight   9.929E-01 Projections  -9.968E-03  1.386E-02
:INFO :  Singular value   3.147E-05 Weight   8.019E-03 Projections   1.061E-03  1.600E-04
:INFO :  Singular value   2.276E-06 Weight   4.228E-05 Projections  -9.896E-04  7.563E-08
:INFO :  Bounds         0.117D+00  0.200D+00  0.446D+00  0.117D+00
:DIRM :  MEMORY 6/8 RESCALE  30.57 RED 1.096 PRED 0.779 NEXT 0.224 COND 8.91E-01
:DIRP :  |BROYD|= 2.202E-04 |PRATT|= 1.001E-04 ANGLE=  32.6 DEGREES
:DIRB :  |BROYD|= 3.900E-04 |PRATT|= 1.345E-04 ANGLE=  36.9 DEGREES
:MIX  :  MSR1   REGULARIZATION: 3.50E-04  GREED: 0.117
     
       CHARGES OF MIXED CHARGE DENSITY
:CTO  : TOTAL   INTERSTITIAL CHARGE=    4.4448014
:CTO001: TOTAL   CHARGE IN SPHERE  1 =       89.5551986

:NEC03: NUCLEAR AND ELECTRONIC CHARGE     94.00000    94.00000     1.00000


:ENE  : ********** TOTAL ENERGY IN Ry =       -59354.74063640

