
------- UO2_9.scf0 --------


            ---------
:ITE096: 96. ITERATION
            ---------

:NATO :    2 INDEPENDENT AND    3 TOTAL ATOMS IN UNITCELL
       SUBSTANCE: blebleble                                                   

       LATTICE                      = F   
:POT  : POTENTIAL OPTION    5
:LAT  : LATTICE CONSTANTS= 10.83573 10.83573 10.83573    1.571    1.571    1.571
:VOL  : UNIT CELL VOLUME =     318.06392
       MODE OF CALCULATION IS       = RELA
       NON-SPINPOLARIZED CALCULATION
:IFFT  : FFT-parameters:   90   90   90 Factor: 2.00
       ATOMNUMBER=  1 U  4+      VCOUL-ZERO = -0.63605E+00
       ATOMNUMBER=  2 O  2-      VCOUL-ZERO =  0.75560E+00
:FIT001: LUSE= 13 SIGMA OF V-XC FIT FOR ATOM  1  0.3902206E-04
:FIT001: LUSE= 13 SIGMA OF V-XC FIT FOR ATOM  1  0.3902206E-04
:FIT002: LUSE= 13 SIGMA OF V-XC FIT FOR ATOM  2  0.8251411E-04
:FIT002: LUSE= 13 SIGMA OF V-XC FIT FOR ATOM  2  0.8251411E-04
:DEN  : DENSITY INTEGRAL  =        -20885.16825242   (Ry)
       ELS_POTENTIAL_AT Z=0 and Z=0.5:  -3.26408  -3.26408
       ELS_POTENTIAL_AT Y=0 and Y=0.5:   0.00000   0.00000
:VZERO:v0,v0c,v0x  -3.94566  -3.26408  -0.68158 v5,v5c,v5x  -3.94566  -3.26408  -0.68158
:VZERY:v0,v0c,v0x  -0.81682   0.00000  -0.81682 v5,v5c,v5x  -0.81682   0.00000  -0.81682
:VZERX:v0,v0c,v0x  -0.81682   0.00000  -0.81682 v5,v5c,v5x  -0.81682   0.00000  -0.81682

------- UO2_9.scf1 --------

          ATOMIC SPHERE DEPENDENT PARAMETERS FOR ATOM  U  4+     
:e__0001: OVERALL ENERGY PARAMETER IS    0.5850
          OVERALL BASIS SET ON ATOM IS LAPW
:E0_0001: E( 0)=    0.5850
             APW+lo
:E0_0001: E( 0)=   -2.3905   E(BOTTOM)=   -3.737   E(TOP)=   -1.044  5  6   230
             LOCAL ORBITAL
:E1_0001: E( 1)=   -1.2800   E(BOTTOM)=   -2.002   E(TOP)= -200.000  4 -1   201
             APW+lo
:E1_0001: E( 1)=    0.9850
             LOCAL ORBITAL
:E3_0001: E( 3)=    0.5850   E(BOTTOM)=    0.048   E(TOP)= -200.000  1 -1   107
             APW+lo
:E2_0001: E( 2)=    0.6094   E(BOTTOM)=    0.609   E(TOP)= -200.000  3 -1    70
             APW+lo

          ATOMIC SPHERE DEPENDENT PARAMETERS FOR ATOM  O  2-     
:e__0002: OVERALL ENERGY PARAMETER IS    0.5850
          OVERALL BASIS SET ON ATOM IS LAPW
:E0_0002: E( 0)=   -0.3930   E(BOTTOM)=   -1.754   E(TOP)=    0.968  1  2   240
             APW+lo
:E0_0002: E( 0)=    0.9850
             LOCAL ORBITAL
:E1_0002: E( 1)=    0.5850
             APW+lo

       K=   0.00000   0.00000   0.00000            1
:RKM  : MATRIX SIZE  851LOs:  30  RKM= 8.45  WEIGHT= 1.00  PGR:    
       EIGENVALUES ARE:
:EIG00001:      -2.4675678   -0.6178484   -0.6178484   -0.6178484   -0.5887075
:EIG00006:      -0.5023785    0.3434490    0.3434490    0.3434490    0.5396573
:EIG00011:       0.5396573    0.5396573    0.8082521    0.8082521    0.8082521
:EIG00016:       0.8338784    0.8610964    0.8610964    0.8610964    0.9370820
:EIG00021:       0.9940536    0.9940536    1.4025041    1.4025041    1.4025041
:EIG00026:       1.6509471    1.6509471    1.6509471    1.9689208    2.3271653
:EIG00031:       2.3271653    2.3530905    2.3530905    2.3530905    2.6281863
:EIG00036:       2.6281863    2.6281863    2.8457001    2.8457001    2.8457001
:EIG00041:       2.8691567    3.2442093    3.2442093    3.3327282    3.3327282
:EIG00046:       3.3327282    3.4272262    3.4360610    3.4360610    3.4430085
 
:EIG00051:       3.4430085    3.4430085    3.6556104    3.6556104    3.6556104
:EIG00056:       3.7162697    3.7802408    3.7802408    3.7802408    3.7830399
:EIG00061:       3.7830399    3.7830399    3.8514323    3.8514323    3.8514323
:EIG00066:       4.1407894    4.6242076    4.6242076    4.6242076    4.8705437
:EIG00071:       4.8705437    4.8705437    4.8806286    4.8806286    5.0728733
:EIG00076:       5.4291683    5.4291683    5.4436714    5.4436714    5.4436714
:EIG00081:       5.5755839    5.5755839    5.5755839    5.7533921    5.7533921
:EIG00086:       5.7533921    5.9546668    5.9546668    5.9546668    6.0072446
:EIG00091:       6.0819457    6.0819457    6.0881917    6.0881917    6.1362995
:EIG00096:       6.1362995    6.1362995    6.2584844    6.3595140    6.3595140
 
:EIG00101:       6.3595140    6.3941287    6.3941287    6.3941287    6.4422591
:EIG00106:       6.5171712    6.5171712    6.5171712    6.7234484    6.7447278
:EIG00111:       6.7447278    6.7447278    6.7966494    6.7966494    6.8093481
:EIG00116:       6.8093481    6.8093481    6.8398251    6.8398251    6.8398251
:EIG00121:       7.0235014    7.0235014    7.0235014    7.4918896    7.4918896
:EIG00126:       7.4918896    7.5124776    7.5124776    7.5124776    7.6426849
:EIG00131:       7.6426849    7.6426849    7.6485997    7.7356359    7.7356359
:EIG00136:       7.8344598    7.8344598    7.9152868    7.9152868    7.9152868
:EIG00141:       8.0193766    8.0193766    8.0193766    8.2436628    8.2436628
:EIG00146:       8.2436628    8.2840278
 
       ********************************************************

:KPT   :      NUMBER OF K-POINTS:   145

------- UO2_9.scfso --------
   0.0   0.0 angle (M,z), angle (M,x) deg
 
        SPIN-ORBIT EIGENVALUES:
     K=   0.00000   0.00000   0.00000            1
      MATRIX SIZE=  294   WEIGHT= 1.00
     EIGENVALUES ARE:
          -2.4675678   -2.4675678   -1.0253087   -1.0253087   -0.5887075
          -0.5887075   -0.5023814   -0.5023814   -0.4512761   -0.4512761
          -0.4512761   -0.4512761    0.3417360    0.3417360    0.3417360
           0.3417360    0.3460539    0.3460539    0.5357460    0.5357460
           0.5410198    0.5410198    0.5410198    0.5410198    0.7777646
           0.7777646    0.7971136    0.7971136    0.7971136    0.7971136
           0.8542642    0.8542642    0.8673553    0.8673553    0.8673553
           0.8673553    0.8813378    0.8813378    0.9370820    0.9370820

           0.9917736    0.9917736    0.9917736    0.9917736    1.3919375
           1.3919375    1.3919375    1.3919375    1.4243351    1.4243351
           1.5908986    1.5908986    1.6778611    1.6778611    1.6778611
           1.6778611    1.9689208    1.9689208    2.3193110    2.3193110
           2.3193110    2.3193110    2.3563228    2.3563228    2.3563228
           2.3563228    2.3622978    2.3622978    2.4791796    2.4791796
           2.7115840    2.7115840    2.7115840    2.7115840    2.8413993
           2.8413993    2.8470820    2.8470820    2.8470820    2.8470820

           2.8711767    2.8711767    3.2400037    3.2400037    3.2400037
           3.2400037    3.3296457    3.3296457    3.3296457    3.3296457
           3.3490136    3.3490136    3.4272262    3.4272262    3.4360610
           3.4360610    3.4360610    3.4360610    3.4429953    3.4429953
           3.4430151    3.4430151    3.4430151    3.4430151    3.6555820
           3.6555820    3.6555820    3.6555820    3.6561593    3.6561593
           3.7162698    3.7162698    3.7758787    3.7758787    3.7802386
           3.7802386    3.7802481    3.7802481    3.7802481    3.7802481

           3.7875236    3.7875236    3.7875236    3.7875236    3.8503928
           3.8503928    3.8523199    3.8523199    3.8523199    3.8523199
           4.1409380    4.1409380
       ********************************************************

------- UO2_9.scf2 --------
:GMA  : POTENTIAL AND CHARGE CUT-OFF  12.00 Ry**.5
         Bandranges (emin - emax) and occupancy:
:BAN00018:  18    0.346054    0.509442  1.00000000
:BAN00019:  19    0.432523    0.536391  1.00000000
:BAN00020:  20    0.432523    0.536391  1.00000000
:BAN00021:  21    0.496570    0.556402  1.00000000
:BAN00022:  22    0.496570    0.556402  1.00000000
:BAN00023:  23    0.530443    0.579345  1.00000000
:BAN00024:  24    0.530443    0.579345  1.00000000
:BAN00025:  25    0.744418    0.777765  0.94382841
:BAN00026:  26    0.744418    0.777765  0.94382841
:BAN00027:  27    0.772885    0.797114  0.05617159
:BAN00028:  28    0.772885    0.797114  0.05617159
:BAN00029:  29    0.779883    0.797114  0.00000000
:BAN00030:  30    0.779883    0.797114  0.00000000
:BAN00031:  31    0.808257    0.854293  0.00000000
:BAN00032:  32    0.808257    0.854293  0.00000000
:BAN00033:  33    0.831582    0.867355  0.00000000
        Energy to separate low and high energystates:    0.69442


:NLDA  : NUMBER OF ELECTRONS          =  26.000

:FLDA  : F E R M I - ENERGY           =   1.27432




:POS001: AT.NR.   1 POSITION = 0.00000 0.00000 0.00000  MULTIPLICITY =  1

       LMMAX  5
       LM=   0 0  4 0  4 4  6 0  6 4




:POS002: AT.NR.   2 POSITION = 0.00000 0.00000 0.00000  MULTIPLICITY =  2

       LMMAX  6
       LM=   0 0  4 0  4 4  6 0  6 4 -3 2
:FER DMFT Fermi Energy   0.73658
:EORB          0.086218835
:SUM SUM OF DMFT BAND ENERGIES         -3.826412582

:CHA001: TOTAL CHARGE INSIDE SPHERE   1 =     8.150117
:PCS001: PARTIAL CHARGES SPHERE =  1 S,P,D,F,      D-EG,D-T2G 
:QTL001: 1.7941 4.1590 0.2098 1.9851 0.0000 0.0000 0.0000 0.0454 0.1738 0.0000 0.0000 0.0000
        Q-s-low E-s-low   Q-p-low E-p-low   Q-d-low E-d-low   Q-f-low E-f-low
:EPL001:  1.7939 -2.3943    4.1577 -0.6087    0.2085  0.3873    0.2113  0.4979
        Q-s-hi  E-s-hi    Q-p-hi  E-p-hi    Q-d-hi  E-d-hi    Q-f-hi  E-f-hi 
:EPH001:  0.0002  0.8443    0.0013  0.8060    0.0013  0.8121    1.7738  0.7708

:CHA002: TOTAL CHARGE INSIDE SPHERE   2 =     5.124011
:PCS002: PARTIAL CHARGES SPHERE =  2 S,P,D,F,      D-EG,D-T2G 
:QTL002: 1.5763 3.5399 0.0066 0.0009 0.0000 0.0000 0.0000 0.0025 0.0072 0.0000 0.0000 0.0000
        Q-s-low E-s-low   Q-p-low E-p-low   Q-d-low E-d-low   Q-f-low E-f-low
:EPL002:  1.5749 -0.5229    3.5230  0.4623    0.0055 -0.0559    0.0008 -0.2246
        Q-s-hi  E-s-hi    Q-p-hi  E-p-hi    Q-d-hi  E-d-hi    Q-f-hi  E-f-hi 
:EPH002:  0.0014  0.7859    0.0168  0.7921    0.0012  0.7710    0.0002  0.7754

:CHA  : TOTAL CHARGE INSIDE UNIT CELL =      26.000000

:ESUM  : SUM OF EIGENVALUES =          -3.760700262


------- UO2_9.scfc --------

        1.ATOM      U  4+                21 CORE STATES
:1S 001: 1S               -8506.503965352 Ry
:2S 001: 2S               -1587.950695113 Ry
:2PP001: 2P*              -1531.196810890 Ry
:2P 001: 2P               -1250.000730207 Ry
:3S 001: 3S                -400.089832881 Ry
:3PP001: 3P*               -374.316664456 Ry
:3P 001: 3P                -309.533255113 Ry
:3DD001: 3D*               -268.720992263 Ry
:3D 001: 3D                -255.575697646 Ry
:4S 001: 4S                -101.158535588 Ry
:4PP001: 4P*                -89.564992330 Ry
:4P 001: 4P                 -72.655166446 Ry
:4DD001: 4D*                -54.190360635 Ry
:4D 001: 4D                 -51.081745433 Ry
:5S 001: 5S                 -21.750141934 Ry
:5PP001: 5P*                -17.243402229 Ry
:5P 001: 5P                 -13.213198820 Ry
:4FF001: 4F*                -26.795226948 Ry
:4F 001: 4F                 -25.985220383 Ry
:5DD001: 5D*                 -6.624080451 Ry
:5D 001: 5D                  -6.025886894 Ry

        2.ATOM      O  2-                 1 CORE STATES
:1S 002: 1S                 -36.142327539 Ry

------- UO2_9.scfm --------
:CINT001 Core Integral Atom   1   77.964531
:CINT002 Core Integral Atom   2    2.000000
     
       CHARGES OF NEW CHARGE DENSITY
:NTO   : INTERSTITIAL CHARGE =     7.601862
:NTO001: CHARGE SPHERE  1    =    86.114647
:NTO002: CHARGE SPHERE  2    =     7.124011

:NEC01: NUCLEAR AND ELECTRONIC CHARGE    108.00000   107.96453
     
       CHARGES OF OLD CHARGE DENSITY
:OTO   : INTERSTITIAL CHARGE =     7.664488
:OTO001: CHARGE SPHERE  1    =    86.151725
:OTO002: CHARGE SPHERE  2    =     7.091894
:DNEW  1   -0.0371
:DNEW  2    0.0321

:NEC02: NUCLEAR AND ELECTRONIC CHARGE    108.00000   108.00000
     
       CONVERGENCE TEST
:DTO001: DIFFERENCE IN SPHERE  1 =  0.0268213
:DTO002: DIFFERENCE IN SPHERE  2 =  0.0393819

:DIS  :  CHARGE DISTANCE       ( 0.0393819 for atom    2 spin 1)      0.0351950
:BIG check (qbig,qrms,qtot)    0.131D-01   0.252D-01   0.352D-01
 
******************************************************
* MULTISECANT MIXING VER6 RELEASE 6.0 OPTIONS        *
* Standard Mode with controls                        *
* Regularization       1.000E-06                     *
* Trust Region Control Active                        *
* Max Number of Memory Steps    8                    *
******************************************************
 
:PLANE:  INTERSTITIAL TOTAL      2.49878 DISTAN  3.452E-01 % 
:CHARG:  CLM CHARGE   /ATOM    345.90737 DISTAN  2.049E-02 % 
:DIRM :  MEMORY  0/8 RESCALES   1.00
:MIX  :   PRATT  REGULARIZATION: 1.00E-06  GREED: 0.025
     
       CHARGES OF MIXED CHARGE DENSITY
:CTO   : INTERSTITIAL CHARGE =     7.663809
:CTO001: CHARGE SPHERE  1    =    86.150798
:CTO002: CHARGE SPHERE  2    =     7.092697

:NEC03: NUCLEAR AND ELECTRONIC CHARGE    108.00000   108.00000

PW CHANGE     H    K    L       Current     Change     Residue
:PTO001:      0    0    0  7.92026937E-02 -5.854E-07 -2.342E-05
:PTO002:     -1   -1   -1  1.98547557E-01 -8.331E-06 -3.332E-04
:PTO003:      0    0   -2  1.56590877E-03 -1.941E-05 -7.764E-04
:PTO004:      0   -2   -2  2.82234366E-01  2.223E-05  8.893E-04
:PTO005:     -1   -1   -3  1.58459661E-01  9.176E-06  3.670E-04
:PTO006:     -2   -2   -2 -1.71127201E-02 -2.123E-06 -8.491E-05
:PTO007:      0    0   -4  4.54865031E-02  3.448E-06  1.379E-04
:PTO008:     -1   -3   -3  3.79145148E-02  5.443E-06  2.177E-04
:PTO009:      0   -2   -4 -4.98111141E-02 -4.539E-06 -1.816E-04
:PTO010:     -2   -2   -4  5.42507657E-02  1.073E-05  4.291E-04
:PTO011:     -3   -3   -3 -3.32365191E-03  6.146E-06  2.458E-04
:PTO012:     -1   -1   -5 -1.57447714E-03 -3.363E-06 -1.345E-04

:ENE  : ********** TOTAL ENERGY IN Ry =       -56437.53207820


------- UO2_9.scf0 --------


            ---------
:ITE097: 97. ITERATION
            ---------

:NATO :    2 INDEPENDENT AND    3 TOTAL ATOMS IN UNITCELL
       SUBSTANCE: blebleble                                                   

       LATTICE                      = F   
:POT  : POTENTIAL OPTION    5
:LAT  : LATTICE CONSTANTS= 10.83573 10.83573 10.83573    1.571    1.571    1.571
:VOL  : UNIT CELL VOLUME =     318.06392
       MODE OF CALCULATION IS       = RELA
       NON-SPINPOLARIZED CALCULATION
:IFFT  : FFT-parameters:   90   90   90 Factor: 2.00
       ATOMNUMBER=  1 U  4+      VCOUL-ZERO = -0.63646E+00
       ATOMNUMBER=  2 O  2-      VCOUL-ZERO =  0.75598E+00
:FIT001: LUSE= 13 SIGMA OF V-XC FIT FOR ATOM  1  0.3899368E-04
:FIT001: LUSE= 13 SIGMA OF V-XC FIT FOR ATOM  1  0.3899368E-04
:FIT002: LUSE= 13 SIGMA OF V-XC FIT FOR ATOM  2  0.8239317E-04
:FIT002: LUSE= 13 SIGMA OF V-XC FIT FOR ATOM  2  0.8239317E-04
:DEN  : DENSITY INTEGRAL  =        -20885.09203833   (Ry)
       ELS_POTENTIAL_AT Z=0 and Z=0.5:  -3.26484  -3.26484
       ELS_POTENTIAL_AT Y=0 and Y=0.5:   0.00000   0.00000
:VZERO:v0,v0c,v0x  -3.94633  -3.26484  -0.68149 v5,v5c,v5x  -3.94633  -3.26484  -0.68149
:VZERY:v0,v0c,v0x  -0.81680   0.00000  -0.81680 v5,v5c,v5x  -0.81680   0.00000  -0.81680
:VZERX:v0,v0c,v0x  -0.81680   0.00000  -0.81680 v5,v5c,v5x  -0.81680   0.00000  -0.81680

------- UO2_9.scf1 --------

          ATOMIC SPHERE DEPENDENT PARAMETERS FOR ATOM  U  4+     
:e__0001: OVERALL ENERGY PARAMETER IS    0.5850
          OVERALL BASIS SET ON ATOM IS LAPW
:E0_0001: E( 0)=    0.5850
             APW+lo
:E0_0001: E( 0)=   -2.3912   E(BOTTOM)=   -3.737   E(TOP)=   -1.045  5  6   235
             LOCAL ORBITAL
:E1_0001: E( 1)=   -1.2800   E(BOTTOM)=   -2.003   E(TOP)= -200.000  4 -1   202
             APW+lo
:E1_0001: E( 1)=    0.9850
             LOCAL ORBITAL
:E3_0001: E( 3)=    0.5850   E(BOTTOM)=    0.048   E(TOP)= -200.000  1 -1   103
             APW+lo
:E2_0001: E( 2)=    0.6088   E(BOTTOM)=    0.609   E(TOP)= -200.000  3 -1    68
             APW+lo

          ATOMIC SPHERE DEPENDENT PARAMETERS FOR ATOM  O  2-     
:e__0002: OVERALL ENERGY PARAMETER IS    0.5850
          OVERALL BASIS SET ON ATOM IS LAPW
:E0_0002: E( 0)=   -0.3921   E(BOTTOM)=   -1.753   E(TOP)=    0.969  1  2   238
             APW+lo
:E0_0002: E( 0)=    0.9850
             LOCAL ORBITAL
:E1_0002: E( 1)=    0.5850
             APW+lo

       K=   0.00000   0.00000   0.00000            1
:RKM  : MATRIX SIZE  851LOs:  30  RKM= 8.45  WEIGHT= 1.00  PGR:    
       EIGENVALUES ARE:
:EIG00001:      -2.4682017   -0.6183279   -0.6183279   -0.6183279   -0.5880954
:EIG00006:      -0.5016834    0.3438643    0.3438643    0.3438643    0.5400620
:EIG00011:       0.5400620    0.5400620    0.8075665    0.8075665    0.8075665
:EIG00016:       0.8332267    0.8606811    0.8606811    0.8606811    0.9372016
:EIG00021:       0.9938547    0.9938547    1.4026281    1.4026281    1.4026281
:EIG00026:       1.6509228    1.6509228    1.6509228    1.9689018    2.3271146
:EIG00031:       2.3271146    2.3531787    2.3531787    2.3531787    2.6282027
:EIG00036:       2.6282027    2.6282027    2.8455694    2.8455694    2.8455694
:EIG00041:       2.8693135    3.2440615    3.2440615    3.3327818    3.3327818
:EIG00046:       3.3327818    3.4271811    3.4363136    3.4363136    3.4429157
 
:EIG00051:       3.4429157    3.4429157    3.6556749    3.6556749    3.6556749
:EIG00056:       3.7161821    3.7802628    3.7802628    3.7802628    3.7829634
:EIG00061:       3.7829634    3.7829634    3.8513738    3.8513738    3.8513738
:EIG00066:       4.1407499    4.6244114    4.6244114    4.6244114    4.8707162
:EIG00071:       4.8707162    4.8707162    4.8805995    4.8805995    5.0728317
:EIG00076:       5.4289966    5.4289966    5.4435253    5.4435253    5.4435253
:EIG00081:       5.5755763    5.5755763    5.5755763    5.7532047    5.7532047
:EIG00086:       5.7532047    5.9547676    5.9547676    5.9547676    6.0073371
:EIG00091:       6.0820288    6.0820288    6.0882700    6.0882700    6.1362483
:EIG00096:       6.1362483    6.1362483    6.2585771    6.3595470    6.3595470
 
:EIG00101:       6.3595470    6.3939736    6.3939736    6.3939736    6.4422595
:EIG00106:       6.5172906    6.5172906    6.5172906    6.7234085    6.7447030
:EIG00111:       6.7447030    6.7447030    6.7967010    6.7967010    6.8094449
:EIG00116:       6.8094449    6.8094449    6.8397271    6.8397271    6.8397271
:EIG00121:       7.0234544    7.0234544    7.0234544    7.4919098    7.4919098
:EIG00126:       7.4919098    7.5124917    7.5124917    7.5124917    7.6426901
:EIG00131:       7.6426901    7.6426901    7.6484462    7.7355899    7.7355899
:EIG00136:       7.8344708    7.8344708    7.9155311    7.9155311    7.9155311
:EIG00141:       8.0193453    8.0193453    8.0193453    8.2435343    8.2435343
:EIG00146:       8.2435343    8.2841081
 
       ********************************************************

:KPT   :      NUMBER OF K-POINTS:   145

------- UO2_9.scfso --------
   0.0   0.0 angle (M,z), angle (M,x) deg
 
        SPIN-ORBIT EIGENVALUES:
     K=   0.00000   0.00000   0.00000            1
      MATRIX SIZE=  294   WEIGHT= 1.00
     EIGENVALUES ARE:
          -2.4682017   -2.4682017   -1.0258509   -1.0258509   -0.5880954
          -0.5880954   -0.5016863   -0.5016863   -0.4517234   -0.4517234
          -0.4517234   -0.4517234    0.3421462    0.3421462    0.3421462
           0.3421462    0.3464773    0.3464773    0.5361985    0.5361985
           0.5413863    0.5413863    0.5413863    0.5413863    0.7770805
           0.7770805    0.7965138    0.7965138    0.7965138    0.7965138
           0.8536090    0.8536090    0.8668834    0.8668834    0.8668834
           0.8668834    0.8808913    0.8808913    0.9372016    0.9372016

           0.9915754    0.9915754    0.9915754    0.9915754    1.3920572
           1.3920572    1.3920572    1.3920572    1.4244666    1.4244666
           1.5908490    1.5908490    1.6778489    1.6778489    1.6778489
           1.6778489    1.9689018    1.9689018    2.3192947    2.3192947
           2.3192947    2.3192947    2.3563800    2.3563800    2.3563800
           2.3563800    2.3623806    2.3623806    2.4792128    2.4792128
           2.7115930    2.7115930    2.7115930    2.7115930    2.8412871
           2.8412871    2.8469514    2.8469514    2.8469514    2.8469514

           2.8713149    2.8713149    3.2398683    3.2398683    3.2398683
           3.2398683    3.3296890    3.3296890    3.3296890    3.3296890
           3.3490629    3.3490629    3.4271811    3.4271811    3.4363136
           3.4363136    3.4363136    3.4363136    3.4429025    3.4429025
           3.4429223    3.4429223    3.4429223    3.4429223    3.6556486
           3.6556486    3.6556486    3.6556486    3.6562221    3.6562221
           3.7161821    3.7161821    3.7758114    3.7758114    3.7802603
           3.7802603    3.7802703    3.7802703    3.7802703    3.7802703

           3.7874417    3.7874417    3.7874417    3.7874417    3.8503347
           3.8503347    3.8522608    3.8522608    3.8522608    3.8522608
           4.1408985    4.1408985
       ********************************************************

------- UO2_9.scf2 --------
:GMA  : POTENTIAL AND CHARGE CUT-OFF  12.00 Ry**.5
         Bandranges (emin - emax) and occupancy:
:BAN00018:  18    0.346477    0.509835  1.00000000
:BAN00019:  19    0.432921    0.536969  1.00000000
:BAN00020:  20    0.432921    0.536969  1.00000000
:BAN00021:  21    0.496992    0.556915  1.00000000
:BAN00022:  22    0.496992    0.556915  1.00000000
:BAN00023:  23    0.530823    0.579863  1.00000000
:BAN00024:  24    0.530823    0.579863  1.00000000
:BAN00025:  25    0.743780    0.777080  0.94384046
:BAN00026:  26    0.743780    0.777080  0.94384046
:BAN00027:  27    0.772264    0.796514  0.05615954
:BAN00028:  28    0.772264    0.796514  0.05615954
:BAN00029:  29    0.779239    0.796514  0.00000000
:BAN00030:  30    0.779239    0.796514  0.00000000
:BAN00031:  31    0.807623    0.853642  0.00000000
:BAN00032:  32    0.807623    0.853642  0.00000000
:BAN00033:  33    0.830963    0.866883  0.00000000
        Energy to separate low and high energystates:    0.69378


:NLDA  : NUMBER OF ELECTRONS          =  26.000

:FLDA  : F E R M I - ENERGY           =   1.27368




:POS001: AT.NR.   1 POSITION = 0.00000 0.00000 0.00000  MULTIPLICITY =  1

       LMMAX  5
       LM=   0 0  4 0  4 4  6 0  6 4




:POS002: AT.NR.   2 POSITION = 0.00000 0.00000 0.00000  MULTIPLICITY =  2

       LMMAX  6
       LM=   0 0  4 0  4 4  6 0  6 4 -3 2
:FER DMFT Fermi Energy   0.73828
:EORB          0.079507389
:SUM SUM OF DMFT BAND ENERGIES         -3.817067629

:CHA001: TOTAL CHARGE INSIDE SPHERE   1 =     8.147419
:PCS001: PARTIAL CHARGES SPHERE =  1 S,P,D,F,      D-EG,D-T2G 
:QTL001: 1.7942 4.1596 0.2104 1.9811 0.0000 0.0000 0.0000 0.0456 0.1742 0.0000 0.0000 0.0000
        Q-s-low E-s-low   Q-p-low E-p-low   Q-d-low E-d-low   Q-f-low E-f-low
:EPL001:  1.7940 -2.3949    4.1583 -0.6091    0.2090  0.3879    0.2080  0.4977
        Q-s-hi  E-s-hi    Q-p-hi  E-p-hi    Q-d-hi  E-d-hi    Q-f-hi  E-f-hi 
:EPH001:  0.0002  0.8435    0.0013  0.8053    0.0013  0.8112    1.7731  0.7703

:CHA002: TOTAL CHARGE INSIDE SPHERE   2 =     5.124065
:PCS002: PARTIAL CHARGES SPHERE =  2 S,P,D,F,      D-EG,D-T2G 
:QTL002: 1.5762 3.5401 0.0066 0.0009 0.0000 0.0000 0.0000 0.0025 0.0072 0.0000 0.0000 0.0000
        Q-s-low E-s-low   Q-p-low E-p-low   Q-d-low E-d-low   Q-f-low E-f-low
:EPL002:  1.5747 -0.5223    3.5235  0.4629    0.0055 -0.0552    0.0008 -0.2244
        Q-s-hi  E-s-hi    Q-p-hi  E-p-hi    Q-d-hi  E-d-hi    Q-f-hi  E-f-hi 
:EPH002:  0.0014  0.7852    0.0166  0.7914    0.0012  0.7704    0.0002  0.7749

:CHA  : TOTAL CHARGE INSIDE UNIT CELL =      26.000000

:ESUM  : SUM OF EIGENVALUES =          -3.757285119


------- UO2_9.scfc --------

        1.ATOM      U  4+                21 CORE STATES
:1S 001: 1S               -8506.505149698 Ry
:2S 001: 2S               -1587.951881013 Ry
:2PP001: 2P*              -1531.197996568 Ry
:2P 001: 2P               -1250.001916023 Ry
:3S 001: 3S                -400.091006055 Ry
:3PP001: 3P*               -374.317839604 Ry
:3P 001: 3P                -309.534425080 Ry
:3DD001: 3D*               -268.722168240 Ry
:3D 001: 3D                -255.576872379 Ry
:4S 001: 4S                -101.159644240 Ry
:4PP001: 4P*                -89.566101609 Ry
:4P 001: 4P                 -72.656263032 Ry
:4DD001: 4D*                -54.191458810 Ry
:4D 001: 4D                 -51.082839960 Ry
:5S 001: 5S                 -21.751142545 Ry
:5PP001: 5P*                -17.244392904 Ry
:5P 001: 5P                 -13.214159688 Ry
:4FF001: 4F*                -26.796327647 Ry
:4F 001: 4F                 -25.986319200 Ry
:5DD001: 5D*                 -6.625001806 Ry
:5D 001: 5D                  -6.026796109 Ry

        2.ATOM      O  2-                 1 CORE STATES
:1S 002: 1S                 -36.140836792 Ry

------- UO2_9.scfm --------
:CINT001 Core Integral Atom   1   77.964539
:CINT002 Core Integral Atom   2    2.000000
     
       CHARGES OF NEW CHARGE DENSITY
:NTO   : INTERSTITIAL CHARGE =     7.604445
:NTO001: CHARGE SPHERE  1    =    86.111958
:NTO002: CHARGE SPHERE  2    =     7.124065

:NEC01: NUCLEAR AND ELECTRONIC CHARGE    108.00000   107.96453
     
       CHARGES OF OLD CHARGE DENSITY
:OTO   : INTERSTITIAL CHARGE =     7.663809
:OTO001: CHARGE SPHERE  1    =    86.150798
:OTO002: CHARGE SPHERE  2    =     7.092697
:DNEW  1   -0.0388
:DNEW  2    0.0314

:NEC02: NUCLEAR AND ELECTRONIC CHARGE    108.00000   108.00000
     
       CONVERGENCE TEST
:DTO001: DIFFERENCE IN SPHERE  1 =  0.0284343
:DTO002: DIFFERENCE IN SPHERE  2 =  0.0379868

:DIS  :  CHARGE DISTANCE       ( 0.0379868 for atom    2 spin 1)      0.0348026
:BIG check (qbig,qrms,qtot)    0.127D-01   0.248D-01   0.348D-01
 
******************************************************
* MULTISECANT MIXING VER6 RELEASE 6.0 OPTIONS        *
* Standard Mode with controls                        *
* Regularization       1.000E-06                     *
* Trust Region Control Active                        *
* Max Number of Memory Steps    8                    *
******************************************************
 
:PLANE:  INTERSTITIAL TOTAL      2.49883 DISTAN  3.419E-01 % 
:CHARG:  CLM CHARGE   /ATOM    345.90732 DISTAN  2.032E-02 % 
 
 Step History DMIX, Red, Pred, Trust, FRMS, FABS
  2  2.5000E-02  1.0000E+00  1.0000E+00  1.0000E+00
  
:DIRM :  MEMORY  1/8 RESCALES  16.44
:MIX  :   PRATT  REGULARIZATION: 1.00E-06  GREED: 0.062  Expand 2.50  0.06                
     
       CHARGES OF MIXED CHARGE DENSITY
:CTO   : INTERSTITIAL CHARGE =     7.661772
:CTO001: CHARGE SPHERE  1    =    86.148017
:CTO002: CHARGE SPHERE  2    =     7.095105

:NEC03: NUCLEAR AND ELECTRONIC CHARGE    108.00000   108.00000

PW CHANGE     H    K    L       Current     Change     Residue
:PTO001:      0    0    0  7.92009374E-02 -1.756E-06 -1.207E-05
:PTO002:     -1   -1   -1  1.98522564E-01 -2.499E-05 -3.213E-04
:PTO003:      0    0   -2  1.50768186E-03 -5.823E-05 -7.596E-04
:PTO004:      0   -2   -2  2.82301067E-01  6.670E-05  8.819E-04
:PTO005:     -1   -1   -3  1.58487187E-01  2.753E-05  4.057E-04
:PTO006:     -2   -2   -2 -1.71190884E-02 -6.368E-06 -5.426E-05
:PTO007:      0    0   -4  4.54968464E-02  1.034E-05  1.335E-04
:PTO008:     -1   -3   -3  3.79308438E-02  1.633E-05  2.524E-04
:PTO009:      0   -2   -4 -4.98247322E-02 -1.362E-05 -1.234E-04
:PTO010:     -2   -2   -4  5.42829472E-02  3.218E-05  4.283E-04
:PTO011:     -3   -3   -3 -3.30521416E-03  1.844E-05  2.532E-04
:PTO012:     -1   -1   -5 -1.58456621E-03 -1.009E-05 -1.267E-04

:ENE  : ********** TOTAL ENERGY IN Ry =       -56437.53239510


------- UO2_9.scf0 --------


            ---------
:ITE098: 98. ITERATION
            ---------

:NATO :    2 INDEPENDENT AND    3 TOTAL ATOMS IN UNITCELL
       SUBSTANCE: blebleble                                                   

       LATTICE                      = F   
:POT  : POTENTIAL OPTION    5
:LAT  : LATTICE CONSTANTS= 10.83573 10.83573 10.83573    1.571    1.571    1.571
:VOL  : UNIT CELL VOLUME =     318.06392
       MODE OF CALCULATION IS       = RELA
       NON-SPINPOLARIZED CALCULATION
:IFFT  : FFT-parameters:   90   90   90 Factor: 2.00
       ATOMNUMBER=  1 U  4+      VCOUL-ZERO = -0.63769E+00
       ATOMNUMBER=  2 O  2-      VCOUL-ZERO =  0.75709E+00
:FIT001: LUSE= 13 SIGMA OF V-XC FIT FOR ATOM  1  0.3890986E-04
:FIT001: LUSE= 13 SIGMA OF V-XC FIT FOR ATOM  1  0.3890986E-04
:FIT002: LUSE= 13 SIGMA OF V-XC FIT FOR ATOM  2  0.8203095E-04
:FIT002: LUSE= 13 SIGMA OF V-XC FIT FOR ATOM  2  0.8203095E-04
:DEN  : DENSITY INTEGRAL  =        -20884.86341041   (Ry)
       ELS_POTENTIAL_AT Z=0 and Z=0.5:  -3.26714  -3.26714
       ELS_POTENTIAL_AT Y=0 and Y=0.5:   0.00000   0.00000
:VZERO:v0,v0c,v0x  -3.94835  -3.26714  -0.68121 v5,v5c,v5x  -3.94835  -3.26714  -0.68121
:VZERY:v0,v0c,v0x  -0.81675   0.00000  -0.81675 v5,v5c,v5x  -0.81675   0.00000  -0.81675
:VZERX:v0,v0c,v0x  -0.81675   0.00000  -0.81675 v5,v5c,v5x  -0.81675   0.00000  -0.81675

------- UO2_9.scf1 --------

          ATOMIC SPHERE DEPENDENT PARAMETERS FOR ATOM  U  4+     
:e__0001: OVERALL ENERGY PARAMETER IS    0.5850
          OVERALL BASIS SET ON ATOM IS LAPW
:E0_0001: E( 0)=    0.5850
             APW+lo
:E0_0001: E( 0)=   -2.3933   E(BOTTOM)=   -3.739   E(TOP)=   -1.047  5  6   230
             LOCAL ORBITAL
:E1_0001: E( 1)=   -1.2800   E(BOTTOM)=   -2.005   E(TOP)= -200.000  4 -1   200
             APW+lo
:E1_0001: E( 1)=    0.9850
             LOCAL ORBITAL
:E3_0001: E( 3)=    0.5850   E(BOTTOM)=    0.046   E(TOP)= -200.000  1 -1   103
             APW+lo
:E2_0001: E( 2)=    0.6071   E(BOTTOM)=    0.607   E(TOP)= -200.000  3 -1    68
             APW+lo

          ATOMIC SPHERE DEPENDENT PARAMETERS FOR ATOM  O  2-     
:e__0002: OVERALL ENERGY PARAMETER IS    0.5850
          OVERALL BASIS SET ON ATOM IS LAPW
:E0_0002: E( 0)=   -0.3896   E(BOTTOM)=   -1.751   E(TOP)=    0.972  1  2   235
             APW+lo
:E0_0002: E( 0)=    0.9850
             LOCAL ORBITAL
:E1_0002: E( 1)=    0.5850
             APW+lo

       K=   0.00000   0.00000   0.00000            1
:RKM  : MATRIX SIZE  851LOs:  30  RKM= 8.45  WEIGHT= 1.00  PGR:    
       EIGENVALUES ARE:
:EIG00001:      -2.4701035   -0.6197664   -0.6197664   -0.6197664   -0.5862597
:EIG00006:      -0.4995985    0.3451079    0.3451079    0.3451079    0.5412652
:EIG00011:       0.5412652    0.5412652    0.8055094    0.8055094    0.8055094
:EIG00016:       0.8312713    0.8594450    0.8594450    0.8594450    0.9375609
:EIG00021:       0.9932574    0.9932574    1.4030007    1.4030007    1.4030007
:EIG00026:       1.6508506    1.6508506    1.6508506    1.9688444    2.3269626
:EIG00031:       2.3269626    2.3534437    2.3534437    2.3534437    2.6282524
:EIG00036:       2.6282524    2.6282524    2.8451773    2.8451773    2.8451773
:EIG00041:       2.8697838    3.2436183    3.2436183    3.3329425    3.3329425
:EIG00046:       3.3329425    3.4270462    3.4370712    3.4370712    3.4426370
 
:EIG00051:       3.4426370    3.4426370    3.6558662    3.6558662    3.6558662
:EIG00056:       3.7159189    3.7803288    3.7803288    3.7803288    3.7827360
:EIG00061:       3.7827360    3.7827360    3.8511986    3.8511986    3.8511986
:EIG00066:       4.1406316    4.6250233    4.6250233    4.6250233    4.8712334
:EIG00071:       4.8712334    4.8712334    4.8805111    4.8805111    5.0727064
:EIG00076:       5.4284821    5.4284821    5.4430868    5.4430868    5.4430868
:EIG00081:       5.5755534    5.5755534    5.5755534    5.7526423    5.7526423
:EIG00086:       5.7526423    5.9550699    5.9550699    5.9550699    6.0076144
:EIG00091:       6.0822785    6.0822785    6.0885050    6.0885050    6.1360949
:EIG00096:       6.1360949    6.1360949    6.2588553    6.3596464    6.3596464
 
:EIG00101:       6.3596464    6.3935079    6.3935079    6.3935079    6.4422607
:EIG00106:       6.5176486    6.5176486    6.5176486    6.7232889    6.7446285
:EIG00111:       6.7446285    6.7446285    6.7968560    6.7968560    6.8097344
:EIG00116:       6.8097344    6.8097344    6.8394341    6.8394341    6.8394341
:EIG00121:       7.0233136    7.0233136    7.0233136    7.4919705    7.4919705
:EIG00126:       7.4919705    7.5125342    7.5125342    7.5125342    7.6427059
:EIG00131:       7.6427059    7.6427059    7.6479859    7.7354517    7.7354517
:EIG00136:       7.8345039    7.8345039    7.9162642    7.9162642    7.9162642
:EIG00141:       8.0192516    8.0192516    8.0192516    8.2431492    8.2431492
:EIG00146:       8.2431492    8.2843490
 
       ********************************************************

:KPT   :      NUMBER OF K-POINTS:   145

------- UO2_9.scfso --------
   0.0   0.0 angle (M,z), angle (M,x) deg
 
        SPIN-ORBIT EIGENVALUES:
     K=   0.00000   0.00000   0.00000            1
      MATRIX SIZE=  294   WEIGHT= 1.00
     EIGENVALUES ARE:
          -2.4701035   -2.4701035   -1.0274779   -1.0274779   -0.5862597
          -0.5862597   -0.4996014   -0.4996014   -0.4530657   -0.4530657
          -0.4530657   -0.4530657    0.3433743    0.3433743    0.3433743
           0.3433743    0.3477451    0.3477451    0.5375471    0.5375471
           0.5424731    0.5424731    0.5424731    0.5424731    0.7750279
           0.7750279    0.7947152    0.7947152    0.7947152    0.7947152
           0.8516432    0.8516432    0.8654774    0.8654774    0.8654774
           0.8654774    0.8795593    0.8795593    0.9375609    0.9375609

           0.9909805    0.9909805    0.9909805    0.9909805    1.3924173
           1.3924173    1.3924173    1.3924173    1.4248618    1.4248618
           1.5907007    1.5907007    1.6778129    1.6778129    1.6778129
           1.6778129    1.9688444    1.9688444    2.3192446    2.3192446
           2.3192446    2.3192446    2.3565534    2.3565534    2.3565534
           2.3565534    2.3626299    2.3626299    2.4793128    2.4793128
           2.7116203    2.7116203    2.7116203    2.7116203    2.8409486
           2.8409486    2.8465594    2.8465594    2.8465594    2.8465594

           2.8717314    2.8717314    3.2394618    3.2394618    3.2394618
           3.2394618    3.3298193    3.3298193    3.3298193    3.3298193
           3.3492112    3.3492112    3.4270462    3.4270462    3.4370712
           3.4370712    3.4370712    3.4370712    3.4426237    3.4426237
           3.4426436    3.4426436    3.4426436    3.4426436    3.6558461
           3.6558461    3.6558461    3.6558461    3.6564078    3.6564078
           3.7159189    3.7159189    3.7756118    3.7756118    3.7803254
           3.7803254    3.7803367    3.7803367    3.7803367    3.7803367

           3.7871979    3.7871979    3.7871979    3.7871979    3.8501604
           3.8501604    3.8520838    3.8520838    3.8520838    3.8520838
           4.1407801    4.1407801
       ********************************************************

------- UO2_9.scf2 --------
:GMA  : POTENTIAL AND CHARGE CUT-OFF  12.00 Ry**.5
         Bandranges (emin - emax) and occupancy:
:BAN00018:  18    0.347745    0.511009  1.00000000
:BAN00019:  19    0.434108    0.538702  1.00000000
:BAN00020:  20    0.434108    0.538702  1.00000000
:BAN00021:  21    0.498253    0.558446  1.00000000
:BAN00022:  22    0.498253    0.558446  1.00000000
:BAN00023:  23    0.531955    0.581410  1.00000000
:BAN00024:  24    0.531955    0.581410  1.00000000
:BAN00025:  25    0.741866    0.775028  0.94394390
:BAN00026:  26    0.741866    0.775028  0.94394390
:BAN00027:  27    0.770405    0.794715  0.05605610
:BAN00028:  28    0.770405    0.794715  0.05605610
:BAN00029:  29    0.777317    0.794715  0.00000000
:BAN00030:  30    0.777317    0.794715  0.00000000
:BAN00031:  31    0.805721    0.851693  0.00000000
:BAN00032:  32    0.805721    0.851693  0.00000000
:BAN00033:  33    0.829109    0.865477  0.00000000
        Energy to separate low and high energystates:    0.69187


:NLDA  : NUMBER OF ELECTRONS          =  26.000

:FLDA  : F E R M I - ENERGY           =   1.27177




:POS001: AT.NR.   1 POSITION = 0.00000 0.00000 0.00000  MULTIPLICITY =  1

       LMMAX  5
       LM=   0 0  4 0  4 4  6 0  6 4




:POS002: AT.NR.   2 POSITION = 0.00000 0.00000 0.00000  MULTIPLICITY =  2

       LMMAX  6
       LM=   0 0  4 0  4 4  6 0  6 4 -3 2
:FER DMFT Fermi Energy   0.74040
:EORB          0.069375058
:SUM SUM OF DMFT BAND ENERGIES         -3.798341355

:CHA001: TOTAL CHARGE INSIDE SPHERE   1 =     8.150578
:PCS001: PARTIAL CHARGES SPHERE =  1 S,P,D,F,      D-EG,D-T2G 
:QTL001: 1.7944 4.1610 0.2120 1.9810 0.0000 0.0000 0.0000 0.0460 0.1753 0.0000 0.0000 0.0000
        Q-s-low E-s-low   Q-p-low E-p-low   Q-d-low E-d-low   Q-f-low E-f-low
:EPL001:  1.7943 -2.3965    4.1597 -0.6105    0.2106  0.3894    0.2077  0.4989
        Q-s-hi  E-s-hi    Q-p-hi  E-p-hi    Q-d-hi  E-d-hi    Q-f-hi  E-f-hi 
:EPH001:  0.0002  0.8424    0.0013  0.8034    0.0013  0.8092    1.7732  0.7685

:CHA002: TOTAL CHARGE INSIDE SPHERE   2 =     5.118207
:PCS002: PARTIAL CHARGES SPHERE =  2 S,P,D,F,      D-EG,D-T2G 
:QTL002: 1.5756 3.5348 0.0067 0.0009 0.0000 0.0000 0.0000 0.0025 0.0072 0.0000 0.0000 0.0000
        Q-s-low E-s-low   Q-p-low E-p-low   Q-d-low E-d-low   Q-f-low E-f-low
:EPL002:  1.5741 -0.5202    3.5183  0.4642    0.0055 -0.0531    0.0008 -0.2233
        Q-s-hi  E-s-hi    Q-p-hi  E-p-hi    Q-d-hi  E-d-hi    Q-f-hi  E-f-hi 
:EPH002:  0.0014  0.7834    0.0165  0.7896    0.0012  0.7685    0.0002  0.7730

:CHA  : TOTAL CHARGE INSIDE UNIT CELL =      26.000000

:ESUM  : SUM OF EIGENVALUES =          -3.748375042


------- UO2_9.scfc --------

        1.ATOM      U  4+                21 CORE STATES
:1S 001: 1S               -8506.508702737 Ry
:2S 001: 2S               -1587.955438714 Ry
:2PP001: 2P*              -1531.201553600 Ry
:2P 001: 2P               -1250.005473470 Ry
:3S 001: 3S                -400.094525578 Ry
:3PP001: 3P*               -374.321365049 Ry
:3P 001: 3P                -309.537934982 Ry
:3DD001: 3D*               -268.725696170 Ry
:3D 001: 3D                -255.580396577 Ry
:4S 001: 4S                -101.162970194 Ry
:4PP001: 4P*                -89.569429447 Ry
:4P 001: 4P                 -72.659552790 Ry
:4DD001: 4D*                -54.194753334 Ry
:4D 001: 4D                 -51.086123542 Ry
:5S 001: 5S                 -21.754144377 Ry
:5PP001: 5P*                -17.247364932 Ry
:5P 001: 5P                 -13.217042293 Ry
:4FF001: 4F*                -26.799629744 Ry
:4F 001: 4F                 -25.989615654 Ry
:5DD001: 5D*                 -6.627765884 Ry
:5D 001: 5D                  -6.029523771 Ry

        2.ATOM      O  2-                 1 CORE STATES
:1S 002: 1S                 -36.136364542 Ry

------- UO2_9.scfm --------
:CINT001 Core Integral Atom   1   77.964562
:CINT002 Core Integral Atom   2    2.000000
     
       CHARGES OF NEW CHARGE DENSITY
:NTO   : INTERSTITIAL CHARGE =     7.612985
:NTO001: CHARGE SPHERE  1    =    86.115140
:NTO002: CHARGE SPHERE  2    =     7.118207

:NEC01: NUCLEAR AND ELECTRONIC CHARGE    108.00000   107.96454
     
       CHARGES OF OLD CHARGE DENSITY
:OTO   : INTERSTITIAL CHARGE =     7.661772
:OTO001: CHARGE SPHERE  1    =    86.148017
:OTO002: CHARGE SPHERE  2    =     7.095105
:DNEW  1   -0.0329
:DNEW  2    0.0231

:NEC02: NUCLEAR AND ELECTRONIC CHARGE    108.00000   108.00000
     
       CONVERGENCE TEST
:DTO001: DIFFERENCE IN SPHERE  1 =  0.0242317
:DTO002: DIFFERENCE IN SPHERE  2 =  0.0267095

:DIS  :  CHARGE DISTANCE       ( 0.0267095 for atom    2 spin 1)      0.0258836
:BIG check (qbig,qrms,qtot)    0.890D-02   0.183D-01   0.259D-01
 
******************************************************
* MULTISECANT MIXING VER6 RELEASE 6.0 OPTIONS        *
* Standard Mode with controls                        *
* Regularization       1.000E-06                     *
* Trust Region Control Active                        *
* Max Number of Memory Steps    8                    *
******************************************************
 
:PLANE:  INTERSTITIAL TOTAL      2.49898 DISTAN  2.773E-01 % 
:CHARG:  CLM CHARGE   /ATOM    345.90715 DISTAN  1.592E-02 % 
 
 Step History DMIX, Red, Pred, Trust, FRMS, FABS
  2  2.5000E-02  1.0000E+00  1.0000E+00  1.0000E+00
  3  6.2500E-02  1.0000E+00  1.0000E+00  1.0000E+00
  
:NORMS:  Nuclear, Spectral, Froebius, Shanno-Pua   0.3239E+01  0.3044E+01  0.3050E+01  0.2743E+00
:INFO :  Number of Memory Steps    2 Skipping    0
:INFO :  SLambda=    3.0000000  Max    3.0000000

Eigenvalues, unscaled except for SY+YY
   #     SY Real        SY Imag          SS             YY         SY+YY Real      SY+YY Imag
   1   5.447283E-01   0.000000E+00   2.149356E-01   8.177571E-03   3.628768E+00   0.000000E+00
   2  -6.141254E-12   0.000000E+00   2.775558E-17   1.991822E+00   5.416951E-03   0.000000E+00
 
:INFO :  Increased using Multisecant Shanno-Phua
:INFO :  Singular value   3.634E+00 Weight  1.0000E+00 Projections   5.687E-01  1.019E-01
:INFO :  Singular value   5.409E-03 Weight  1.0000E+00 Projections  -6.924E-01 -8.902E-01
 
:DIRM :  MEMORY 2/8 RESCALE  16.26 RED 0.797 PRED 1.000 NEXT 0.375
:INFO :  Blimit    1.267E+00  9.855E-01  4.572E-01  1.802E+00
:DIRP :  |MSR1|= 5.497E-03 |PRATT|= 1.127E-01 ANGLE=  21.4 DEGREES
:DIRQ :  |MSR1|= 4.658E-03 |PRATT|= 1.102E-01 ANGLE=  30.4 DEGREES
:DIR  :  |MSR1|= 7.205E-03 |PRATT|= 1.576E-01 ANGLE=  26.1 DEGREES
:MIX  :   MSE1   REGULARIZATION: 1.99E-06  GREED: 0.069  Newton 1.00  0.05                
     
       CHARGES OF MIXED CHARGE DENSITY
:CTO   : INTERSTITIAL CHARGE =     7.660589
:CTO001: CHARGE SPHERE  1    =    86.147546
:CTO002: CHARGE SPHERE  2    =     7.095933

:NEC03: NUCLEAR AND ELECTRONIC CHARGE    108.00000   108.00000

PW CHANGE     H    K    L       Current     Change     Residue
:PTO001:      0    0    0  7.92002910E-02 -6.465E-07  1.469E-05
:PTO002:     -1   -1   -1  1.98521021E-01 -1.543E-06 -2.057E-04
:PTO003:      0    0   -2  1.49010158E-03 -1.758E-05 -5.547E-04
:PTO004:      0   -2   -2  2.82339777E-01  3.871E-05  7.277E-04
:PTO005:     -1   -1   -3  1.58522208E-01  3.502E-05  4.816E-04
:PTO006:     -2   -2   -2 -1.71056114E-02  1.348E-05  7.145E-05
:PTO007:      0    0   -4  4.54987857E-02  1.939E-06  9.065E-05
:PTO008:     -1   -3   -3  3.79471804E-02  1.634E-05  3.062E-04
:PTO009:      0   -2   -4 -4.98184828E-02  6.249E-06  6.132E-05
:PTO010:     -2   -2   -4  5.42988101E-02  1.586E-05  3.504E-04
:PTO011:     -3   -3   -3 -3.29119841E-03  1.402E-05  2.389E-04
:PTO012:     -1   -1   -5 -1.59397776E-03 -9.412E-06 -1.015E-04

:ENE  : ********** TOTAL ENERGY IN Ry =       -56437.53266686


------- UO2_9.scf0 --------


            ---------
:ITE099: 99. ITERATION
            ---------

:NATO :    2 INDEPENDENT AND    3 TOTAL ATOMS IN UNITCELL
       SUBSTANCE: blebleble                                                   

       LATTICE                      = F   
:POT  : POTENTIAL OPTION    5
:LAT  : LATTICE CONSTANTS= 10.83573 10.83573 10.83573    1.571    1.571    1.571
:VOL  : UNIT CELL VOLUME =     318.06392
       MODE OF CALCULATION IS       = RELA
       NON-SPINPOLARIZED CALCULATION
:IFFT  : FFT-parameters:   90   90   90 Factor: 2.00
       ATOMNUMBER=  1 U  4+      VCOUL-ZERO = -0.63807E+00
       ATOMNUMBER=  2 O  2-      VCOUL-ZERO =  0.75747E+00
:FIT001: LUSE= 13 SIGMA OF V-XC FIT FOR ATOM  1  0.3888131E-04
:FIT001: LUSE= 13 SIGMA OF V-XC FIT FOR ATOM  1  0.3888131E-04
:FIT002: LUSE= 13 SIGMA OF V-XC FIT FOR ATOM  2  0.8177789E-04
:FIT002: LUSE= 13 SIGMA OF V-XC FIT FOR ATOM  2  0.8177789E-04
:DEN  : DENSITY INTEGRAL  =        -20884.85887465   (Ry)
       ELS_POTENTIAL_AT Z=0 and Z=0.5:  -3.26787  -3.26787
       ELS_POTENTIAL_AT Y=0 and Y=0.5:   0.00000   0.00000
:VZERO:v0,v0c,v0x  -3.94891  -3.26787  -0.68104 v5,v5c,v5x  -3.94891  -3.26787  -0.68104
:VZERY:v0,v0c,v0x  -0.81672   0.00000  -0.81672 v5,v5c,v5x  -0.81672   0.00000  -0.81672
:VZERX:v0,v0c,v0x  -0.81672   0.00000  -0.81672 v5,v5c,v5x  -0.81672   0.00000  -0.81672

------- UO2_9.scf1 --------

          ATOMIC SPHERE DEPENDENT PARAMETERS FOR ATOM  U  4+     
:e__0001: OVERALL ENERGY PARAMETER IS    0.5850
          OVERALL BASIS SET ON ATOM IS LAPW
:E0_0001: E( 0)=    0.5850
             APW+lo
:E0_0001: E( 0)=   -2.3937   E(BOTTOM)=   -3.740   E(TOP)=   -1.048  5  6   237
             LOCAL ORBITAL
:E1_0001: E( 1)=   -1.2800   E(BOTTOM)=   -2.005   E(TOP)= -200.000  4 -1   203
             APW+lo
:E1_0001: E( 1)=    0.9850
             LOCAL ORBITAL
:E3_0001: E( 3)=    0.5850   E(BOTTOM)=    0.045   E(TOP)= -200.000  1 -1   105
             APW+lo
:E2_0001: E( 2)=    0.6067   E(BOTTOM)=    0.607   E(TOP)= -200.000  3 -1    72
             APW+lo

          ATOMIC SPHERE DEPENDENT PARAMETERS FOR ATOM  O  2-     
:e__0002: OVERALL ENERGY PARAMETER IS    0.5850
          OVERALL BASIS SET ON ATOM IS LAPW
:E0_0002: E( 0)=   -0.3888   E(BOTTOM)=   -1.750   E(TOP)=    0.973  1  2   241
             APW+lo
:E0_0002: E( 0)=    0.9850
             LOCAL ORBITAL
:E1_0002: E( 1)=    0.5850
             APW+lo

       K=   0.00000   0.00000   0.00000            1
:RKM  : MATRIX SIZE  851LOs:  30  RKM= 8.45  WEIGHT= 1.00  PGR:    
       EIGENVALUES ARE:
:EIG00001:      -2.4704670   -0.6200689   -0.6200689   -0.6200689   -0.5856569
:EIG00006:      -0.4989178    0.3455211    0.3455211    0.3455211    0.5416974
:EIG00011:       0.5416974    0.5416974    0.8051659    0.8051659    0.8051659
:EIG00016:       0.8309918    0.8593045    0.8593045    0.8593045    0.9376780
:EIG00021:       0.9931113    0.9931113    1.4031892    1.4031892    1.4031892
:EIG00026:       1.6508550    1.6508550    1.6508550    1.9688341    2.3269457
:EIG00031:       2.3269457    2.3535473    2.3535473    2.3535473    2.6283333
:EIG00036:       2.6283333    2.6283333    2.8451194    2.8451194    2.8451194
:EIG00041:       2.8699925    3.2435166    3.2435166    3.3330378    3.3330378
:EIG00046:       3.3330378    3.4270480    3.4373154    3.4373154    3.4425604
 
:EIG00051:       3.4425604    3.4425604    3.6559545    3.6559545    3.6559545
:EIG00056:       3.7158382    3.7803504    3.7803504    3.7803504    3.7827045
:EIG00061:       3.7827045    3.7827045    3.8511683    3.8511683    3.8511683
:EIG00066:       4.1406517    4.6252198    4.6252198    4.6252198    4.8714088
:EIG00071:       4.8714088    4.8714088    4.8805191    4.8805191    5.0726734
:EIG00076:       5.4283647    5.4283647    5.4430308    5.4430308    5.4430308
:EIG00081:       5.5755813    5.5755813    5.5755813    5.7525261    5.7525261
:EIG00086:       5.7525261    5.9552013    5.9552013    5.9552013    6.0077293
:EIG00091:       6.0823968    6.0823968    6.0885868    6.0885868    6.1360711
:EIG00096:       6.1360711    6.1360711    6.2589978    6.3596848    6.3596848
 
:EIG00101:       6.3596848    6.3933874    6.3933874    6.3933874    6.4423137
:EIG00106:       6.5177641    6.5177641    6.5177641    6.7232427    6.7446485
:EIG00111:       6.7446485    6.7446485    6.7968987    6.7968987    6.8098178
:EIG00116:       6.8098178    6.8098178    6.8394140    6.8394140    6.8394140
:EIG00121:       7.0233374    7.0233374    7.0233374    7.4920134    7.4920134
:EIG00126:       7.4920134    7.5125721    7.5125721    7.5125721    7.6427316
:EIG00131:       7.6427316    7.6427316    7.6478883    7.7354168    7.7354168
:EIG00136:       7.8345203    7.8345203    7.9164924    7.9164924    7.9164924
:EIG00141:       8.0192437    8.0192437    8.0192437    8.2430800    8.2430800
:EIG00146:       8.2430800    8.2844720
 
       ********************************************************

:KPT   :      NUMBER OF K-POINTS:   145

------- UO2_9.scfso --------
   0.0   0.0 angle (M,z), angle (M,x) deg
 
        SPIN-ORBIT EIGENVALUES:
     K=   0.00000   0.00000   0.00000            1
      MATRIX SIZE=  294   WEIGHT= 1.00
     EIGENVALUES ARE:
          -2.4704670   -2.4704670   -1.0278106   -1.0278106   -0.5856569
          -0.5856569   -0.4989207   -0.4989207   -0.4533512   -0.4533512
          -0.4533512   -0.4533512    0.3437829    0.3437829    0.3437829
           0.3437829    0.3481656    0.3481656    0.5380181    0.5380181
           0.5428747    0.5428747    0.5428747    0.5428747    0.7747001
           0.7747001    0.7944390    0.7944390    0.7944390    0.7944390
           0.8513476    0.8513476    0.8652944    0.8652944    0.8652944
           0.8652944    0.8793882    0.8793882    0.9376780    0.9376780

           0.9908356    0.9908356    0.9908356    0.9908356    1.3926026
           1.3926026    1.3926026    1.3926026    1.4250552    1.4250552
           1.5906854    1.5906854    1.6778268    1.6778268    1.6778268
           1.6778268    1.9688341    1.9688341    2.3192571    2.3192571
           2.3192571    2.3192571    2.3566305    2.3566305    2.3566305
           2.3566305    2.3627288    2.3627288    2.4794025    2.4794025
           2.7116972    2.7116972    2.7116972    2.7116972    2.8409065
           2.8409065    2.8465017    2.8465017    2.8465017    2.8465017

           2.8719242    2.8719242    3.2393715    3.2393715    3.2393715
           3.2393715    3.3299048    3.3299048    3.3299048    3.3299048
           3.3493030    3.3493030    3.4270479    3.4270479    3.4373154
           3.4373154    3.4373154    3.4373154    3.4425471    3.4425471
           3.4425670    3.4425670    3.4425670    3.4425670    3.6559353
           3.6559353    3.6559353    3.6559353    3.6564957    3.6564957
           3.7158382    3.7158382    3.7755892    3.7755892    3.7803468
           3.7803468    3.7803584    3.7803584    3.7803584    3.7803584

           3.7871613    3.7871613    3.7871613    3.7871613    3.8501303
           3.8501303    3.8520532    3.8520532    3.8520532    3.8520532
           4.1408001    4.1408001
       ********************************************************

------- UO2_9.scf2 --------
:GMA  : POTENTIAL AND CHARGE CUT-OFF  12.00 Ry**.5
         Bandranges (emin - emax) and occupancy:
:BAN00018:  18    0.348166    0.511431  1.00000000
:BAN00019:  19    0.434510    0.539273  1.00000000
:BAN00020:  20    0.434510    0.539273  1.00000000
:BAN00021:  21    0.498690    0.558969  1.00000000
:BAN00022:  22    0.498690    0.558969  1.00000000
:BAN00023:  23    0.532367    0.581941  1.00000000
:BAN00024:  24    0.532367    0.581941  1.00000000
:BAN00025:  25    0.741537    0.774700  0.94381747
:BAN00026:  26    0.741537    0.774700  0.94381747
:BAN00027:  27    0.770102    0.794439  0.05618187
:BAN00028:  28    0.770102    0.794439  0.05618187
:BAN00029:  29    0.776997    0.794439  0.00000000
:BAN00030:  30    0.776997    0.794439  0.00000000
:BAN00031:  31    0.805393    0.851404  0.00000000
:BAN00032:  32    0.805393    0.851404  0.00000000
:BAN00033:  33    0.828801    0.865294  0.00000000
        Energy to separate low and high energystates:    0.69154


:NLDA  : NUMBER OF ELECTRONS          =  26.000

:FLDA  : F E R M I - ENERGY           =   1.27145




:POS001: AT.NR.   1 POSITION = 0.00000 0.00000 0.00000  MULTIPLICITY =  1

       LMMAX  5
       LM=   0 0  4 0  4 4  6 0  6 4




:POS002: AT.NR.   2 POSITION = 0.00000 0.00000 0.00000  MULTIPLICITY =  2

       LMMAX  6
       LM=   0 0  4 0  4 4  6 0  6 4 -3 2
:FER DMFT Fermi Energy   0.74206
:EORB          0.063749182
:SUM SUM OF DMFT BAND ENERGIES         -3.787728567

:CHA001: TOTAL CHARGE INSIDE SPHERE   1 =     8.147830
:PCS001: PARTIAL CHARGES SPHERE =  1 S,P,D,F,      D-EG,D-T2G 
:QTL001: 1.7945 4.1614 0.2125 1.9772 0.0000 0.0000 0.0000 0.0462 0.1756 0.0000 0.0000 0.0000
        Q-s-low E-s-low   Q-p-low E-p-low   Q-d-low E-d-low   Q-f-low E-f-low
:EPL001:  1.7944 -2.3968    4.1601 -0.6107    0.2112  0.3899    0.2048  0.4987
        Q-s-hi  E-s-hi    Q-p-hi  E-p-hi    Q-d-hi  E-d-hi    Q-f-hi  E-f-hi 
:EPH001:  0.0002  0.8418    0.0013  0.8029    0.0013  0.8085    1.7725  0.7682

:CHA002: TOTAL CHARGE INSIDE SPHERE   2 =     5.118185
:PCS002: PARTIAL CHARGES SPHERE =  2 S,P,D,F,      D-EG,D-T2G 
:QTL002: 1.5754 3.5349 0.0067 0.0009 0.0000 0.0000 0.0000 0.0025 0.0072 0.0000 0.0000 0.0000
        Q-s-low E-s-low   Q-p-low E-p-low   Q-d-low E-d-low   Q-f-low E-f-low
:EPL002:  1.5740 -0.5195    3.5186  0.4647    0.0055 -0.0524    0.0008 -0.2231
        Q-s-hi  E-s-hi    Q-p-hi  E-p-hi    Q-d-hi  E-d-hi    Q-f-hi  E-f-hi 
:EPH002:  0.0014  0.7830    0.0163  0.7892    0.0012  0.7682    0.0002  0.7728

:CHA  : TOTAL CHARGE INSIDE UNIT CELL =      26.000000

:ESUM  : SUM OF EIGENVALUES =          -3.742690365


------- UO2_9.scfc --------

        1.ATOM      U  4+                21 CORE STATES
:1S 001: 1S               -8506.508737455 Ry
:2S 001: 2S               -1587.955501208 Ry
:2PP001: 2P*              -1531.201609225 Ry
:2P 001: 2P               -1250.005535595 Ry
:3S 001: 3S                -400.094640098 Ry
:3PP001: 3P*               -374.321474699 Ry
:3P 001: 3P                -309.538054273 Ry
:3DD001: 3D*               -268.725804155 Ry
:3D 001: 3D                -255.580507505 Ry
:4S 001: 4S                -101.163164654 Ry
:4PP001: 4P*                -89.569622911 Ry
:4P 001: 4P                 -72.659760840 Ry
:4DD001: 4D*                -54.194959555 Ry
:4D 001: 4D                 -51.086334029 Ry
:5S 001: 5S                 -21.754453745 Ry
:5PP001: 5P*                -17.247680969 Ry
:5P 001: 5P                 -13.217377579 Ry
:4FF001: 4F*                -26.799835824 Ry
:4F 001: 4F                 -25.989823854 Ry
:5DD001: 5D*                 -6.628117291 Ry
:5D 001: 5D                  -6.029879760 Ry

        2.ATOM      O  2-                 1 CORE STATES
:1S 002: 1S                 -36.134975456 Ry

------- UO2_9.scfm --------
:CINT001 Core Integral Atom   1   77.964562
:CINT002 Core Integral Atom   2    2.000000
     
       CHARGES OF NEW CHARGE DENSITY
:NTO   : INTERSTITIAL CHARGE =     7.615811
:NTO001: CHARGE SPHERE  1    =    86.112392
:NTO002: CHARGE SPHERE  2    =     7.118185

:NEC01: NUCLEAR AND ELECTRONIC CHARGE    108.00000   107.96457
     
       CHARGES OF OLD CHARGE DENSITY
:OTO   : INTERSTITIAL CHARGE =     7.660589
:OTO001: CHARGE SPHERE  1    =    86.147546
:OTO002: CHARGE SPHERE  2    =     7.095933
:DNEW  1   -0.0352
:DNEW  2    0.0223

:NEC02: NUCLEAR AND ELECTRONIC CHARGE    108.00000   108.00000
     
       CONVERGENCE TEST
:DTO001: DIFFERENCE IN SPHERE  1 =  0.0266455
:DTO002: DIFFERENCE IN SPHERE  2 =  0.0253474

:DIS  :  CHARGE DISTANCE       ( 0.0266455 for atom    1 spin 1)      0.0257801
:BIG check (qbig,qrms,qtot)    0.888D-02   0.182D-01   0.258D-01
 
******************************************************
* MULTISECANT MIXING VER6 RELEASE 6.0 OPTIONS        *
* Standard Mode with controls                        *
* Regularization       1.000E-06                     *
* Trust Region Control Active                        *
* Max Number of Memory Steps    8                    *
******************************************************
 
:PLANE:  INTERSTITIAL TOTAL      2.49912 DISTAN  2.705E-01 % 
:CHARG:  CLM CHARGE   /ATOM    345.90728 DISTAN  1.575E-02 % 
 
 Step History DMIX, Red, Pred, Trust, FRMS, FABS
  2  2.5000E-02  1.0000E+00  1.0000E+00  1.0000E+00
  3  6.2500E-02  7.9741E-01  1.0000E+00  1.0000E+00
  4  6.8579E-02  1.0000E+00  3.7453E-01  1.8022E+00
  
:NORMS:  Nuclear, Spectral, Froebius, Shanno-Pua   0.2007E+01  0.1634E+01  0.1744E+01  0.3697E+00
:INFO :  Number of Memory Steps    3 Skipping    0
:INFO :  SLambda=    2.0068063  Max    2.0068063

Eigenvalues, unscaled except for SY+YY
   #     SY Real        SY Imag          SS             YY         SY+YY Real      SY+YY Imag
   1   9.367726E-01   0.000000E+00   9.489790E-01   2.533195E+00   4.427778E+00   0.000000E+00
   2  -2.647986E-12   0.000000E+00  -3.113943E-17   4.863124E-03   5.207623E-03   0.000000E+00
   3   1.105738E-01   0.000000E+00   3.700809E-02   4.619416E-01   6.688357E-01   0.000000E+00
 
:INFO :  Increased using Multisecant Shanno-Phua
:INFO :  Singular value   4.478E+00 Weight  1.0000E+00 Projections   1.089E+00  9.309E-02
:INFO :  Singular value   6.619E-01 Weight  1.0000E+00 Projections  -1.169E+00 -1.965E-02
:INFO :  Singular value   5.204E-03 Weight  1.0000E+00 Projections  -3.749E-02 -1.595E+00
 
:DIRM :  MEMORY 3/8 RESCALE  16.22 RED 0.982 PRED 0.375 NEXT 0.117
:INFO :  Blimit    1.854E+00  1.228E+00  6.162E-01  3.027E+00
:DIRP :  |MSR1|= 2.579E-02 |PRATT|= 1.097E-01 ANGLE=  51.6 DEGREES
:DIRQ :  |MSR1|= 2.095E-02 |PRATT|= 1.090E-01 ANGLE=  72.6 DEGREES
:DIR  :  |MSR1|= 3.323E-02 |PRATT|= 1.546E-01 ANGLE=  61.7 DEGREES
:MIX  :   MSE1   REGULARIZATION: 2.53E-06  GREED: 0.092  Newton 1.00  0.21                
     
       CHARGES OF MIXED CHARGE DENSITY
:CTO   : INTERSTITIAL CHARGE =     7.656274
:CTO001: CHARGE SPHERE  1    =    86.150317
:CTO002: CHARGE SPHERE  2    =     7.096705

:NEC03: NUCLEAR AND ELECTRONIC CHARGE    108.00000   108.00000

PW CHANGE     H    K    L       Current     Change     Residue
:PTO001:      0    0    0  7.91989740E-02 -1.317E-06  2.453E-05
:PTO002:     -1   -1   -1  1.98561869E-01  4.085E-05 -2.118E-04
:PTO003:      0    0   -2  1.48579179E-03 -4.310E-06 -5.447E-04
:PTO004:      0   -2   -2  2.82479002E-01  1.392E-04  6.845E-04
:PTO005:     -1   -1   -3  1.58726069E-01  2.039E-04  4.685E-04
:PTO006:     -2   -2   -2 -1.69827062E-02  1.229E-04  7.807E-05
:PTO007:      0    0   -4  4.54856386E-02 -1.315E-05  8.367E-05
:PTO008:     -1   -3   -3  3.80302991E-02  8.312E-05  3.119E-04
:PTO009:      0   -2   -4 -4.97381388E-02  8.034E-05  9.651E-05
:PTO010:     -2   -2   -4  5.43415929E-02  4.278E-05  3.335E-04
:PTO011:     -3   -3   -3 -3.22316887E-03  6.803E-05  2.347E-04
:PTO012:     -1   -1   -5 -1.64832637E-03 -5.435E-05 -9.022E-05

:ENE  : ********** TOTAL ENERGY IN Ry =       -56437.53289648


------- UO2_9.scf0 --------


            ---------
:ITE100:100. ITERATION
            ---------

:NATO :    2 INDEPENDENT AND    3 TOTAL ATOMS IN UNITCELL
       SUBSTANCE: blebleble                                                   

       LATTICE                      = F   
:POT  : POTENTIAL OPTION    5
:LAT  : LATTICE CONSTANTS= 10.83573 10.83573 10.83573    1.571    1.571    1.571
:VOL  : UNIT CELL VOLUME =     318.06392
       MODE OF CALCULATION IS       = RELA
       NON-SPINPOLARIZED CALCULATION
:IFFT  : FFT-parameters:   90   90   90 Factor: 2.00
       ATOMNUMBER=  1 U  4+      VCOUL-ZERO = -0.63817E+00
       ATOMNUMBER=  2 O  2-      VCOUL-ZERO =  0.75787E+00
:FIT001: LUSE= 13 SIGMA OF V-XC FIT FOR ATOM  1  0.3884454E-04
:FIT001: LUSE= 13 SIGMA OF V-XC FIT FOR ATOM  1  0.3884454E-04
:FIT002: LUSE= 13 SIGMA OF V-XC FIT FOR ATOM  2  0.8058893E-04
:FIT002: LUSE= 13 SIGMA OF V-XC FIT FOR ATOM  2  0.8058893E-04
:DEN  : DENSITY INTEGRAL  =        -20885.32787094   (Ry)
       ELS_POTENTIAL_AT Z=0 and Z=0.5:  -3.26820  -3.26820
       ELS_POTENTIAL_AT Y=0 and Y=0.5:   0.00000   0.00000
:VZERO:v0,v0c,v0x  -3.94853  -3.26820  -0.68033 v5,v5c,v5x  -3.94853  -3.26820  -0.68033
:VZERY:v0,v0c,v0x  -0.81661   0.00000  -0.81661 v5,v5c,v5x  -0.81661   0.00000  -0.81661
:VZERX:v0,v0c,v0x  -0.81661   0.00000  -0.81661 v5,v5c,v5x  -0.81661   0.00000  -0.81661

------- UO2_9.scf1 --------

          ATOMIC SPHERE DEPENDENT PARAMETERS FOR ATOM  U  4+     
:e__0001: OVERALL ENERGY PARAMETER IS    0.5850
          OVERALL BASIS SET ON ATOM IS LAPW
:E0_0001: E( 0)=    0.5850
             APW+lo
:E0_0001: E( 0)=   -2.3919   E(BOTTOM)=   -3.738   E(TOP)=   -1.046  5  6   233
             LOCAL ORBITAL
:E1_0001: E( 1)=   -1.2800   E(BOTTOM)=   -2.004   E(TOP)= -200.000  4 -1   205
             APW+lo
:E1_0001: E( 1)=    0.9850
             LOCAL ORBITAL
:E3_0001: E( 3)=    0.5850   E(BOTTOM)=    0.047   E(TOP)= -200.000  1 -1   103
             APW+lo
:E2_0001: E( 2)=    0.6079   E(BOTTOM)=    0.608   E(TOP)= -200.000  3 -1    70
             APW+lo

          ATOMIC SPHERE DEPENDENT PARAMETERS FOR ATOM  O  2-     
:e__0002: OVERALL ENERGY PARAMETER IS    0.5850
          OVERALL BASIS SET ON ATOM IS LAPW
:E0_0002: E( 0)=   -0.3884   E(BOTTOM)=   -1.750   E(TOP)=    0.973  1  2   235
             APW+lo
:E0_0002: E( 0)=    0.9850
             LOCAL ORBITAL
:E1_0002: E( 1)=    0.5850
             APW+lo

       K=   0.00000   0.00000   0.00000            1
:RKM  : MATRIX SIZE  851LOs:  30  RKM= 8.45  WEIGHT= 1.00  PGR:    
       EIGENVALUES ARE:
:EIG00001:      -2.4689277   -0.6191152   -0.6191152   -0.6191152   -0.5852818
:EIG00006:      -0.4985220    0.3458138    0.3458138    0.3458138    0.5422355
:EIG00011:       0.5422355    0.5422355    0.8072106    0.8072106    0.8072106
:EIG00016:       0.8333029    0.8609903    0.8609903    0.8609903    0.9377404
:EIG00021:       0.9933498    0.9933498    1.4037429    1.4037429    1.4037429
:EIG00026:       1.6510477    1.6510477    1.6510477    1.9688765    2.3271530
:EIG00031:       2.3271530    2.3537208    2.3537208    2.3537208    2.6288181
:EIG00036:       2.6288181    2.6288181    2.8455653    2.8455653    2.8455653
:EIG00041:       2.8704910    3.2437528    3.2437528    3.3333863    3.3333863
:EIG00046:       3.3333863    3.4273574    3.4374439    3.4374439    3.4426084
 
:EIG00051:       3.4426084    3.4426084    3.6561951    3.6561951    3.6561951
:EIG00056:       3.7158172    3.7803622    3.7803622    3.7803622    3.7829662
:EIG00061:       3.7829662    3.7829662    3.8513325    3.8513325    3.8513325
:EIG00066:       4.1410671    4.6253085    4.6253085    4.6253085    4.8715537
:EIG00071:       4.8715537    4.8715537    4.8807762    4.8807762    5.0727006
:EIG00076:       5.4286291    5.4286291    5.4435948    5.4435948    5.4435948
:EIG00081:       5.5758402    5.5758402    5.5758402    5.7529119    5.7529119
:EIG00086:       5.7529119    5.9555008    5.9555008    5.9555008    6.0079552
:EIG00091:       6.0827180    6.0827180    6.0886682    6.0886682    6.1362331
:EIG00096:       6.1362331    6.1362331    6.2594328    6.3597506    6.3597506
 
:EIG00101:       6.3597506    6.3935228    6.3935228    6.3935228    6.4427072
:EIG00106:       6.5178222    6.5178222    6.5178222    6.7231627    6.7449642
:EIG00111:       6.7449642    6.7449642    6.7968766    6.7968766    6.8097995
:EIG00116:       6.8097995    6.8097995    6.8399164    6.8399164    6.8399164
:EIG00121:       7.0238255    7.0238255    7.0238255    7.4921913    7.4921913
:EIG00126:       7.4921913    7.5127598    7.5127598    7.5127598    7.6428834
:EIG00131:       7.6428834    7.6428834    7.6481807    7.7354610    7.7354610
:EIG00136:       7.8345674    7.8345674    7.9165487    7.9165487    7.9165487
:EIG00141:       8.0193942    8.0193942    8.0193942    8.2434218    8.2434218
:EIG00146:       8.2434218    8.2848490
 
       ********************************************************

:KPT   :      NUMBER OF K-POINTS:   145

------- UO2_9.scfso --------
   0.0   0.0 angle (M,z), angle (M,x) deg
 
        SPIN-ORBIT EIGENVALUES:
     K=   0.00000   0.00000   0.00000            1
      MATRIX SIZE=  294   WEIGHT= 1.00
     EIGENVALUES ARE:
          -2.4689277   -2.4689277   -1.0266609   -1.0266609   -0.5852818
          -0.5852818   -0.4985249   -0.4985249   -0.4524869   -0.4524869
          -0.4524869   -0.4524869    0.3440763    0.3440763    0.3440763
           0.3440763    0.3484576    0.3484576    0.5385157    0.5385157
           0.5434483    0.5434483    0.5434483    0.5434483    0.7768563
           0.7768563    0.7964006    0.7964006    0.7964006    0.7964006
           0.8535579    0.8535579    0.8670447    0.8670447    0.8670447
           0.8670447    0.8810655    0.8810655    0.9377404    0.9377404

           0.9910776    0.9910776    0.9910776    0.9910776    1.3931604
           1.3931604    1.3931604    1.3931604    1.4255947    1.4255947
           1.5909031    1.5909031    1.6780093    1.6780093    1.6780093
           1.6780093    1.9688765    1.9688765    2.3194586    2.3194586
           2.3194586    2.3194586    2.3568094    2.3568094    2.3568094
           2.3568094    2.3629028    2.3629028    2.4798387    2.4798387
           2.7122017    2.7122017    2.7122017    2.7122017    2.8413538
           2.8413538    2.8469480    2.8469480    2.8469480    2.8469480

           2.8724204    2.8724204    3.2396116    3.2396116    3.2396116
           3.2396116    3.3302482    3.3302482    3.3302482    3.3302482
           3.3496533    3.3496533    3.4273574    3.4273574    3.4374439
           3.4374439    3.4374439    3.4374439    3.4425951    3.4425951
           3.4426150    3.4426150    3.4426150    3.4426150    3.6561688
           3.6561688    3.6561688    3.6561688    3.6567455    3.6567455
           3.7158172    3.7158172    3.7758547    3.7758547    3.7803589
           3.7803589    3.7803701    3.7803701    3.7803701    3.7803701

           3.7874209    3.7874209    3.7874209    3.7874209    3.8502934
           3.8502934    3.8522195    3.8522195    3.8522195    3.8522195
           4.1412156    4.1412156
       ********************************************************

------- UO2_9.scf2 --------
:GMA  : POTENTIAL AND CHARGE CUT-OFF  12.00 Ry**.5
         Bandranges (emin - emax) and occupancy:
:BAN00018:  18    0.348458    0.511945  1.00000000
:BAN00019:  19    0.434847    0.539640  1.00000000
:BAN00020:  20    0.434847    0.539640  1.00000000
:BAN00021:  21    0.499125    0.559450  1.00000000
:BAN00022:  22    0.499125    0.559450  1.00000000
:BAN00023:  23    0.532907    0.582439  1.00000000
:BAN00024:  24    0.532907    0.582439  1.00000000
:BAN00025:  25    0.743358    0.776856  0.94243615
:BAN00026:  26    0.743358    0.776856  0.94243615
:BAN00027:  27    0.771994    0.796401  0.05756385
:BAN00028:  28    0.771994    0.796401  0.05756385
:BAN00029:  29    0.778874    0.796401  0.00000000
:BAN00030:  30    0.778874    0.796401  0.00000000
:BAN00031:  31    0.807202    0.853598  0.00000000
:BAN00032:  32    0.807202    0.853598  0.00000000
:BAN00033:  33    0.830647    0.867045  0.00000000
        Energy to separate low and high energystates:    0.69336


:NLDA  : NUMBER OF ELECTRONS          =  26.000

:FLDA  : F E R M I - ENERGY           =   1.27336




:POS001: AT.NR.   1 POSITION = 0.00000 0.00000 0.00000  MULTIPLICITY =  1

       LMMAX  5
       LM=   0 0  4 0  4 4  6 0  6 4




:POS002: AT.NR.   2 POSITION = 0.00000 0.00000 0.00000  MULTIPLICITY =  2

       LMMAX  6
       LM=   0 0  4 0  4 4  6 0  6 4 -3 2
:FER DMFT Fermi Energy   0.74433
:EORB          0.061730990
:SUM SUM OF DMFT BAND ENERGIES         -3.767145065

:CHA001: TOTAL CHARGE INSIDE SPHERE   1 =     8.139628
:PCS001: PARTIAL CHARGES SPHERE =  1 S,P,D,F,      D-EG,D-T2G 
:QTL001: 1.7943 4.1605 0.2125 1.9700 0.0000 0.0000 0.0000 0.0462 0.1756 0.0000 0.0000 0.0000
        Q-s-low E-s-low   Q-p-low E-p-low   Q-d-low E-d-low   Q-f-low E-f-low
:EPL001:  1.7942 -2.3952    4.1593 -0.6096    0.2112  0.3904    0.1997  0.4981
        Q-s-hi  E-s-hi    Q-p-hi  E-p-hi    Q-d-hi  E-d-hi    Q-f-hi  E-f-hi 
:EPH001:  0.0002  0.8421    0.0012  0.8044    0.0013  0.8095    1.7703  0.7702

:CHA002: TOTAL CHARGE INSIDE SPHERE   2 =     5.120715
:PCS002: PARTIAL CHARGES SPHERE =  2 S,P,D,F,      D-EG,D-T2G 
:QTL002: 1.5754 3.5375 0.0067 0.0010 0.0000 0.0000 0.0000 0.0025 0.0072 0.0000 0.0000 0.0000
        Q-s-low E-s-low   Q-p-low E-p-low   Q-d-low E-d-low   Q-f-low E-f-low
:EPL002:  1.5739 -0.5191    3.5216  0.4652    0.0055 -0.0520    0.0008 -0.2228
        Q-s-hi  E-s-hi    Q-p-hi  E-p-hi    Q-d-hi  E-d-hi    Q-f-hi  E-f-hi 
:EPH002:  0.0014  0.7847    0.0159  0.7909    0.0012  0.7701    0.0002  0.7747

:CHA  : TOTAL CHARGE INSIDE UNIT CELL =      26.000000

:ESUM  : SUM OF EIGENVALUES =          -3.723133229


------- UO2_9.scfc --------

        1.ATOM      U  4+                21 CORE STATES
:1S 001: 1S               -8506.501312181 Ry
:2S 001: 2S               -1587.948241681 Ry
:2PP001: 2P*              -1531.194307900 Ry
:2P 001: 2P               -1249.998274277 Ry
:3S 001: 3S                -400.087791071 Ry
:3PP001: 3P*               -374.314581821 Ry
:3P 001: 3P                -309.531256906 Ry
:3DD001: 3D*               -268.718895571 Ry
:3D 001: 3D                -255.573625730 Ry
:4S 001: 4S                -101.157258091 Ry
:4PP001: 4P*                -89.563705929 Ry
:4P 001: 4P                 -72.654023538 Ry
:4DD001: 4D*                -54.189200341 Ry
:4D 001: 4D                 -51.080627076 Ry
:5S 001: 5S                 -21.750047468 Ry
:5PP001: 5P*                -17.243389190 Ry
:5P 001: 5P                 -13.213423962 Ry
:4FF001: 4F*                -26.794059368 Ry
:4F 001: 4F                 -25.984073852 Ry
:5DD001: 5D*                 -6.624547419 Ry
:5D 001: 5D                  -6.026425088 Ry

        2.ATOM      O  2-                 1 CORE STATES
:1S 002: 1S                 -36.134752692 Ry

------- UO2_9.scfm --------
:CINT001 Core Integral Atom   1   77.964509
:CINT002 Core Integral Atom   2    2.000000
     
       CHARGES OF NEW CHARGE DENSITY
:NTO   : INTERSTITIAL CHARGE =     7.618929
:NTO001: CHARGE SPHERE  1    =    86.104137
:NTO002: CHARGE SPHERE  2    =     7.120715

:NEC01: NUCLEAR AND ELECTRONIC CHARGE    108.00000   107.96449
     
       CHARGES OF OLD CHARGE DENSITY
:OTO   : INTERSTITIAL CHARGE =     7.656274
:OTO001: CHARGE SPHERE  1    =    86.150317
:OTO002: CHARGE SPHERE  2    =     7.096705
:DNEW  1   -0.0462
:DNEW  2    0.0240

:NEC02: NUCLEAR AND ELECTRONIC CHARGE    108.00000   108.00000
     
       CONVERGENCE TEST
:DTO001: DIFFERENCE IN SPHERE  1 =  0.0398445
:DTO002: DIFFERENCE IN SPHERE  2 =  0.0279786

:DIS  :  CHARGE DISTANCE       ( 0.0398445 for atom    1 spin 1)      0.0319339
:BIG check (qbig,qrms,qtot)    0.133D-01   0.229D-01   0.319D-01
 
******************************************************
* MULTISECANT MIXING VER6 RELEASE 6.0 OPTIONS        *
* Standard Mode with controls                        *
* Regularization       1.000E-06                     *
* Trust Region Control Active                        *
* Max Number of Memory Steps    8                    *
******************************************************
 
:PLANE:  INTERSTITIAL TOTAL      2.49977 DISTAN  2.636E-01 % 
:CHARG:  CLM CHARGE   /ATOM    345.90850 DISTAN  1.747E-02 % 
 
 Step History DMIX, Red, Pred, Trust, FRMS, FABS
  2  2.5000E-02  1.0000E+00  1.0000E+00  1.0000E+00
  3  6.2500E-02  7.9741E-01  1.0000E+00  1.0000E+00
  4  6.8579E-02  9.8206E-01  3.7453E-01  1.8022E+00
  5  9.2427E-02  1.0000E+00  1.1689E-01  3.0274E+00
  
:NORMS:  Nuclear, Spectral, Froebius, Shanno-Pua   0.1661E+01  0.1255E+01  0.1393E+01  0.6608E+00
:INFO :  Number of Memory Steps    4 Skipping    0
:INFO :  SLambda=    1.6609673  Max    1.6609673

Eigenvalues, unscaled except for SY+YY
   #     SY Real        SY Imag          SS             YY         SY+YY Real      SY+YY Imag
   1   2.168879E+00   0.000000E+00   1.993545E+00   3.141766E+00   6.742709E+00   0.000000E+00
   2   2.241977E-01   0.000000E+00   6.917661E-02   8.506653E-01   1.226158E+00   0.000000E+00
   3  -1.559228E-12   0.000000E+00   1.181018E-17   7.551427E-03   5.956871E-03   0.000000E+00
   4   1.948667E-05   0.000000E+00   5.229632E-06   1.687977E-05   3.037394E-05   0.000000E+00
 
:INFO :  Increased using Multisecant Shanno-Phua
:INFO :  Singular value   6.744E+00 Weight  1.0000E+00 Projections  -7.360E-01  2.812E-02
:INFO :  Singular value   1.228E+00 Weight  1.0000E+00 Projections   2.887E-01  1.493E-01
:INFO :  Singular value   5.949E-03 Weight  1.0000E+00 Projections   2.293E+00  1.206E+00
:INFO :  Singular value   3.037E-05 Weight  9.8941E-01 Projections  -2.028E+00 -2.919E+00
 
:DIRM :  MEMORY 4/8 RESCALE  16.63 RED 1.042 PRED 0.117 NEXT 0.056
:INFO :  Blimit    2.903E+00  1.323E+00  9.448E-01  5.000E+00
:DIRP :  |MSR1|= 6.672E-03 |PRATT|= 1.096E-01 ANGLE=  70.3 DEGREES
:DIRQ :  |MSR1|= 7.281E-03 |PRATT|= 1.209E-01 ANGLE=  88.6 DEGREES
:DIR  :  |MSR1|= 9.876E-03 |PRATT|= 1.631E-01 ANGLE=  80.4 DEGREES
:MIX  :   MSE1   REGULARIZATION: 3.14E-06  GREED: 0.142  Newton 1.00  0.06                
     
       CHARGES OF MIXED CHARGE DENSITY
:CTO   : INTERSTITIAL CHARGE =     7.656511
:CTO001: CHARGE SPHERE  1    =    86.150511
:CTO002: CHARGE SPHERE  2    =     7.096489

:NEC03: NUCLEAR AND ELECTRONIC CHARGE    108.00000   108.00000

PW CHANGE     H    K    L       Current     Change     Residue
:PTO001:      0    0    0  7.91990310E-02  5.703E-08  2.882E-05
:PTO002:     -1   -1   -1  1.98548050E-01 -1.382E-05 -3.652E-04
:PTO003:      0    0   -2  1.46877512E-03 -1.702E-05 -6.605E-04
:PTO004:      0   -2   -2  2.82474513E-01 -4.489E-06  4.935E-04
:PTO005:     -1   -1   -3  1.58733046E-01  6.977E-06  1.303E-04
:PTO006:     -2   -2   -2 -1.69532515E-02  2.945E-05 -1.076E-04
:PTO007:      0    0   -4  4.54654872E-02 -2.015E-05  8.405E-05
:PTO008:     -1   -3   -3  3.80121478E-02 -1.815E-05  1.511E-04
:PTO009:      0   -2   -4 -4.97327251E-02  5.414E-06 -4.633E-05
:PTO010:     -2   -2   -4  5.43210812E-02 -2.051E-05  2.579E-04
:PTO011:     -3   -3   -3 -3.20516540E-03  1.800E-05  1.672E-04
:PTO012:     -1   -1   -5 -1.68067753E-03 -3.235E-05 -5.530E-05

:ENE  : ********** TOTAL ENERGY IN Ry =       -56437.53306889


------- UO2_9.scf0 --------


            ---------
:ITE101:101. ITERATION
            ---------

:NATO :    2 INDEPENDENT AND    3 TOTAL ATOMS IN UNITCELL
       SUBSTANCE: blebleble                                                   

       LATTICE                      = F   
:POT  : POTENTIAL OPTION    5
:LAT  : LATTICE CONSTANTS= 10.83573 10.83573 10.83573    1.571    1.571    1.571
:VOL  : UNIT CELL VOLUME =     318.06392
       MODE OF CALCULATION IS       = RELA
       NON-SPINPOLARIZED CALCULATION
:IFFT  : FFT-parameters:   90   90   90 Factor: 2.00
       ATOMNUMBER=  1 U  4+      VCOUL-ZERO = -0.63827E+00
       ATOMNUMBER=  2 O  2-      VCOUL-ZERO =  0.75794E+00
:FIT001: LUSE= 13 SIGMA OF V-XC FIT FOR ATOM  1  0.3871093E-04
:FIT001: LUSE= 13 SIGMA OF V-XC FIT FOR ATOM  1  0.3871093E-04
:FIT002: LUSE= 13 SIGMA OF V-XC FIT FOR ATOM  2  0.8009591E-04
:FIT002: LUSE= 13 SIGMA OF V-XC FIT FOR ATOM  2  0.8009591E-04
:DEN  : DENSITY INTEGRAL  =        -20885.26011541   (Ry)
       ELS_POTENTIAL_AT Z=0 and Z=0.5:  -3.26831  -3.26831
       ELS_POTENTIAL_AT Y=0 and Y=0.5:   0.00000   0.00000
:VZERO:v0,v0c,v0x  -3.94844  -3.26831  -0.68013 v5,v5c,v5x  -3.94844  -3.26831  -0.68013
:VZERY:v0,v0c,v0x  -0.81661   0.00000  -0.81661 v5,v5c,v5x  -0.81661   0.00000  -0.81661
:VZERX:v0,v0c,v0x  -0.81661   0.00000  -0.81661 v5,v5c,v5x  -0.81661   0.00000  -0.81661

------- UO2_9.scf1 --------

          ATOMIC SPHERE DEPENDENT PARAMETERS FOR ATOM  U  4+     
:e__0001: OVERALL ENERGY PARAMETER IS    0.5850
          OVERALL BASIS SET ON ATOM IS LAPW
:E0_0001: E( 0)=    0.5850
             APW+lo
:E0_0001: E( 0)=   -2.3920   E(BOTTOM)=   -3.738   E(TOP)=   -1.046  5  6   232
             LOCAL ORBITAL
:E1_0001: E( 1)=   -1.2800   E(BOTTOM)=   -2.004   E(TOP)= -200.000  4 -1   201
             APW+lo
:E1_0001: E( 1)=    0.9850
             LOCAL ORBITAL
:E3_0001: E( 3)=    0.5850   E(BOTTOM)=    0.047   E(TOP)= -200.000  1 -1   105
             APW+lo
:E2_0001: E( 2)=    0.6079   E(BOTTOM)=    0.608   E(TOP)= -200.000  3 -1    69
             APW+lo

          ATOMIC SPHERE DEPENDENT PARAMETERS FOR ATOM  O  2-     
:e__0002: OVERALL ENERGY PARAMETER IS    0.5850
          OVERALL BASIS SET ON ATOM IS LAPW
:E0_0002: E( 0)=   -0.3886   E(BOTTOM)=   -1.750   E(TOP)=    0.973  1  2   238
             APW+lo
:E0_0002: E( 0)=    0.9850
             LOCAL ORBITAL
:E1_0002: E( 1)=    0.5850
             APW+lo

       K=   0.00000   0.00000   0.00000            1
:RKM  : MATRIX SIZE  851LOs:  30  RKM= 8.45  WEIGHT= 1.00  PGR:    
       EIGENVALUES ARE:
:EIG00001:      -2.4689767   -0.6191621   -0.6191621   -0.6191621   -0.5854480
:EIG00006:      -0.4987129    0.3456935    0.3456935    0.3456935    0.5420728
:EIG00011:       0.5420728    0.5420728    0.8071736    0.8071736    0.8071736
:EIG00016:       0.8333312    0.8608679    0.8608679    0.8608679    0.9377028
:EIG00021:       0.9933214    0.9933214    1.4036162    1.4036162    1.4036162
:EIG00026:       1.6510424    1.6510424    1.6510424    1.9688399    2.3271243
:EIG00031:       2.3271243    2.3536898    2.3536898    2.3536898    2.6287572
:EIG00036:       2.6287572    2.6287572    2.8455594    2.8455594    2.8455594
:EIG00041:       2.8704142    3.2437808    3.2437808    3.3333564    3.3333564
:EIG00046:       3.3333564    3.4273233    3.4374268    3.4374268    3.4426043
 
:EIG00051:       3.4426043    3.4426043    3.6562017    3.6562017    3.6562017
:EIG00056:       3.7157961    3.7803609    3.7803609    3.7803609    3.7829232
:EIG00061:       3.7829232    3.7829232    3.8513318    3.8513318    3.8513318
:EIG00066:       4.1410601    4.6252532    4.6252532    4.6252532    4.8715019
:EIG00071:       4.8715019    4.8715019    4.8807568    4.8807568    5.0726786
:EIG00076:       5.4285946    5.4285946    5.4435890    5.4435890    5.4435890
:EIG00081:       5.5758243    5.5758243    5.5758243    5.7528839    5.7528839
:EIG00086:       5.7528839    5.9554543    5.9554543    5.9554543    6.0078838
:EIG00091:       6.0826865    6.0826865    6.0886520    6.0886520    6.1362247
:EIG00096:       6.1362247    6.1362247    6.2593768    6.3597653    6.3597653
 
:EIG00101:       6.3597653    6.3935072    6.3935072    6.3935072    6.4426949
:EIG00106:       6.5177987    6.5177987    6.5177987    6.7231693    6.7449516
:EIG00111:       6.7449516    6.7449516    6.7969127    6.7969127    6.8098261
:EIG00116:       6.8098261    6.8098261    6.8398923    6.8398923    6.8398923
:EIG00121:       7.0237870    7.0237870    7.0237870    7.4921556    7.4921556
:EIG00126:       7.4921556    7.5127575    7.5127575    7.5127575    7.6428636
:EIG00131:       7.6428636    7.6428636    7.6481449    7.7354567    7.7354567
:EIG00136:       7.8345674    7.8345674    7.9164986    7.9164986    7.9164986
:EIG00141:       8.0193985    8.0193985    8.0193985    8.2434108    8.2434108
:EIG00146:       8.2434108    8.2848176
 
       ********************************************************

:KPT   :      NUMBER OF K-POINTS:   145

------- UO2_9.scfso --------
   0.0   0.0 angle (M,z), angle (M,x) deg
 
        SPIN-ORBIT EIGENVALUES:
     K=   0.00000   0.00000   0.00000            1
      MATRIX SIZE=  294   WEIGHT= 1.00
     EIGENVALUES ARE:
          -2.4689767   -2.4689767   -1.0267087   -1.0267087   -0.5854480
          -0.5854480   -0.4987158   -0.4987158   -0.4525329   -0.4525329
          -0.4525329   -0.4525329    0.3439570    0.3439570    0.3439570
           0.3439570    0.3483355    0.3483355    0.5383490    0.5383490
           0.5432889    0.5432889    0.5432889    0.5432889    0.7768361
           0.7768361    0.7963408    0.7963408    0.7963408    0.7963408
           0.8535692    0.8535692    0.8669416    0.8669416    0.8669416
           0.8669416    0.8809490    0.8809490    0.9377028    0.9377028

           0.9910485    0.9910485    0.9910485    0.9910485    1.3930346
           1.3930346    1.3930346    1.3930346    1.4254676    1.4254676
           1.5909027    1.5909027    1.6780010    1.6780010    1.6780010
           1.6780010    1.9688399    1.9688399    2.3194278    2.3194278
           2.3194278    2.3194278    2.3567795    2.3567795    2.3567795
           2.3567795    2.3628736    2.3628736    2.4797766    2.4797766
           2.7121410    2.7121410    2.7121411    2.7121411    2.8413435
           2.8413435    2.8469422    2.8469422    2.8469422    2.8469422

           2.8723480    2.8723480    3.2396371    3.2396371    3.2396371
           3.2396371    3.3302208    3.3302208    3.3302208    3.3302208
           3.3496234    3.3496234    3.4273233    3.4273233    3.4374268
           3.4374268    3.4374268    3.4374268    3.4425911    3.4425911
           3.4426109    3.4426109    3.4426109    3.4426109    3.6561759
           3.6561759    3.6561759    3.6561759    3.6567515    3.6567515
           3.7157961    3.7157961    3.7758087    3.7758087    3.7803575
           3.7803575    3.7803688    3.7803688    3.7803688    3.7803688

           3.7873799    3.7873799    3.7873799    3.7873799    3.8502927
[...]
 29  7.9535E-02  7.1233E-01  7.6522E-01  1.0605E+00
 30  9.9764E-02  3.1775E+00  6.7115E-01  2.3828E+00
 31  9.6719E-02  5.6387E-01  5.3867E-02  2.6428E+00
 32  1.0630E-01  1.3258E-01  6.7776E-02  3.0734E+00
 33  1.2825E-01  4.8001E+00  1.6001E-01  3.9372E+00
 34  1.2185E-01  1.0000E+00  1.8650E-02  3.8049E+00
  
:NORMS:  Nuclear, Spectral, Froebius, Shanno-Pua   0.1418E+01  0.1541E+01  0.1459E+01  0.3093E+00
:INFO :  Number of Memory Steps    8 Skipping   25
:INFO :  SLambda=    1.5413846  Max    1.5413846

Eigenvalues, unscaled except for SY+YY
   #     SY Real        SY Imag          SS             YY         SY+YY Real      SY+YY Imag
   1   1.249785E+00   7.123424E-01   2.109613E+00   5.012159E+00   6.592204E+00   0.000000E+00
   2   1.249785E+00  -7.123424E-01   1.042589E+00   2.017792E+00   4.079738E+00   0.000000E+00
   3   7.598789E-01   0.000000E+00   3.984083E-01   6.682027E-01   2.025109E+00   0.000000E+00
   4   1.366192E-01   0.000000E+00   1.441399E-01   1.508963E-01   3.769965E-01   0.000000E+00
   5   8.910432E-02   0.000000E+00   5.577215E-02   1.328084E-01   2.783504E-01   0.000000E+00
   6   1.468454E-04   0.000000E+00   6.778243E-05   1.395163E-04   3.847486E-04   0.000000E+00
   7   4.628949E-03   4.775337E-04   2.222280E-03   1.073555E-02   1.456637E-02   0.000000E+00
   8   4.628949E-03  -4.775337E-04   2.811527E-03   7.266691E-03   1.913935E-02   0.000000E+00
 
:INFO :  Singular value   7.163E+00 Weight  1.0000E+00 Projections   7.975E-05  6.504E-05
:INFO :  Singular value   3.911E+00 Weight  1.0000E+00 Projections  -3.731E-04  1.108E-05
:INFO :  Singular value   1.967E+00 Weight  1.0000E+00 Projections   5.551E-04 -9.082E-05
:INFO :  Singular value   3.795E-01 Weight  1.0000E+00 Projections  -1.618E-03  6.269E-05
:INFO :  Singular value   2.739E-01 Weight  1.0000E+00 Projections   6.777E-03 -2.700E-04
:INFO :  Singular value   1.926E-02 Weight  1.0000E+00 Projections  -3.179E-03  3.584E-03
:INFO :  Singular value   1.445E-02 Weight  1.0000E+00 Projections   1.144E-04  6.949E-05
:INFO :  Singular value   3.844E-04 Weight  9.9983E-01 Projections   3.073E-03 -7.458E-03
 
:DIRM :  MEMORY 8/8 RESCALE  18.20 RED 0.038 PRED 0.019 NEXT 0.504
:INFO :  Blimit    3.356E+00  1.087E+00  8.792E-01  3.822E+00
:DIRP :  |MSR1|= 3.430E-04 |PRATT|= 3.458E-04 ANGLE=  85.3 DEGREES
:DIRQ :  |MSR1|= 2.239E-04 |PRATT|= 3.505E-04 ANGLE=  43.1 DEGREES
:DIR  :  |MSR1|= 4.096E-04 |PRATT|= 4.924E-04 ANGLE=  70.6 DEGREES
:MIX  :   MSE1   REGULARIZATION: 5.01E-06  GREED: 0.132  Newton 1.00  0.83                
     
       CHARGES OF MIXED CHARGE DENSITY
:CTO   : INTERSTITIAL CHARGE =     7.681616
:CTO001: CHARGE SPHERE  1    =    86.100676
:CTO002: CHARGE SPHERE  2    =     7.108854

:NEC03: NUCLEAR AND ELECTRONIC CHARGE    108.00000   108.00000

PW CHANGE     H    K    L       Current     Change     Residue
:PTO001:      0    0    0  7.94305338E-02 -3.462E-07 -1.421E-07
:PTO002:     -1   -1   -1  1.99119173E-01 -8.075E-07  9.485E-07
:PTO003:      0    0   -2  1.64026430E-03 -6.861E-07  1.628E-06
:PTO004:      0   -2   -2  2.83711182E-01 -8.496E-07 -2.000E-07
:PTO005:     -1   -1   -3  1.60765897E-01 -2.181E-06  7.579E-08
:PTO006:     -2   -2   -2 -1.61057425E-02 -6.839E-07  4.452E-07
:PTO007:      0    0   -4  4.56559627E-02 -5.208E-07 -8.785E-07
:PTO008:     -1   -3   -3  3.94729851E-02 -1.668E-06 -1.427E-08
:PTO009:      0   -2   -4 -4.84054840E-02 -2.197E-06 -8.299E-07
:PTO010:     -2   -2   -4  5.50261044E-02 -4.511E-07  1.431E-07
:PTO011:     -3   -3   -3 -2.82697818E-03  1.583E-07  5.756E-07
:PTO012:     -1   -1   -5 -1.49152634E-03 -1.389E-06 -1.927E-06

:ENE  : ********** TOTAL ENERGY IN Ry =       -56437.53646243


------- UO2_9.scf0 --------


            ---------
:ITE130:130. ITERATION
            ---------

:NATO :    2 INDEPENDENT AND    3 TOTAL ATOMS IN UNITCELL
       SUBSTANCE: blebleble                                                   

       LATTICE                      = F   
:POT  : POTENTIAL OPTION    5
:LAT  : LATTICE CONSTANTS= 10.83573 10.83573 10.83573    1.571    1.571    1.571
:VOL  : UNIT CELL VOLUME =     318.06392
       MODE OF CALCULATION IS       = RELA
       NON-SPINPOLARIZED CALCULATION
:IFFT  : FFT-parameters:   90   90   90 Factor: 2.00
       ATOMNUMBER=  1 U  4+      VCOUL-ZERO = -0.65524E+00
       ATOMNUMBER=  2 O  2-      VCOUL-ZERO =  0.76912E+00
:FIT001: LUSE= 13 SIGMA OF V-XC FIT FOR ATOM  1  0.4015595E-04
:FIT001: LUSE= 13 SIGMA OF V-XC FIT FOR ATOM  1  0.4015595E-04
:FIT002: LUSE= 13 SIGMA OF V-XC FIT FOR ATOM  2  0.7826734E-04
:FIT002: LUSE= 13 SIGMA OF V-XC FIT FOR ATOM  2  0.7826734E-04
:DEN  : DENSITY INTEGRAL  =        -20881.57177082   (Ry)
       ELS_POTENTIAL_AT Z=0 and Z=0.5:  -3.29876  -3.29876
       ELS_POTENTIAL_AT Y=0 and Y=0.5:   0.00000   0.00000
:VZERO:v0,v0c,v0x  -3.97920  -3.29876  -0.68044 v5,v5c,v5x  -3.97920  -3.29876  -0.68044
:VZERY:v0,v0c,v0x  -0.81771   0.00000  -0.81771 v5,v5c,v5x  -0.81771   0.00000  -0.81771
:VZERX:v0,v0c,v0x  -0.81771   0.00000  -0.81771 v5,v5c,v5x  -0.81771   0.00000  -0.81771

------- UO2_9.scf1 --------

          ATOMIC SPHERE DEPENDENT PARAMETERS FOR ATOM  U  4+     
:e__0001: OVERALL ENERGY PARAMETER IS    0.5850
          OVERALL BASIS SET ON ATOM IS LAPW
:E0_0001: E( 0)=    0.5850
             APW+lo
:E0_0001: E( 0)=   -2.4250   E(BOTTOM)=   -3.768   E(TOP)=   -1.082  5  6   233
             LOCAL ORBITAL
:E1_0001: E( 1)=   -1.2800   E(BOTTOM)=   -2.031   E(TOP)= -200.000  4 -1   203
             APW+lo
:E1_0001: E( 1)=    0.9850
             LOCAL ORBITAL
:E3_0001: E( 3)=    0.5850   E(BOTTOM)=    0.014   E(TOP)= -200.000  1 -1   110
             APW+lo
:E2_0001: E( 2)=    0.5850   E(BOTTOM)=    0.581   E(TOP)= -200.000  3 -1    75
             APW+lo

          ATOMIC SPHERE DEPENDENT PARAMETERS FOR ATOM  O  2-     
:e__0002: OVERALL ENERGY PARAMETER IS    0.5850
          OVERALL BASIS SET ON ATOM IS LAPW
:E0_0002: E( 0)=   -0.3731   E(BOTTOM)=   -1.736   E(TOP)=    0.990  1  2   239
             APW+lo
:E0_0002: E( 0)=    0.9850
             LOCAL ORBITAL
:E1_0002: E( 1)=    0.5850
             APW+lo

       K=   0.00000   0.00000   0.00000            1
:RKM  : MATRIX SIZE  851LOs:  30  RKM= 8.45  WEIGHT= 1.00  PGR:    
       EIGENVALUES ARE:
:EIG00001:      -2.4986585   -0.6410513   -0.6410513   -0.6410513   -0.5737063
:EIG00006:      -0.4853810    0.3531067    0.3531067    0.3531067    0.5456745
:EIG00011:       0.5456745    0.5456745    0.7745978    0.7745978    0.7745978
:EIG00016:       0.8014885    0.8374729    0.8374729    0.8374729    0.9405360
:EIG00021:       0.9851213    0.9851213    1.4003923    1.4003923    1.4003923
:EIG00026:       1.6499642    1.6499642    1.6499642    1.9682105    2.3241230
:EIG00031:       2.3241230    2.3550033    2.3550033    2.3550033    2.6252682
:EIG00036:       2.6252682    2.6252682    2.8398927    2.8398927    2.8398927
:EIG00041:       2.8708198    3.2386328    3.2386328    3.3325514    3.3325514
:EIG00046:       3.3325514    3.4239610    3.4390940    3.4390940    3.4390940
 
:EIG00051:       3.4442342    3.4442342    3.6569333    3.6569333    3.6569333
:EIG00056:       3.7129235    3.7795886    3.7795886    3.7795886    3.7813045
:EIG00061:       3.7813045    3.7813045    3.8495194    3.8495194    3.8495194
:EIG00066:       4.1385612    4.6298458    4.6298458    4.6298458    4.8746766
:EIG00071:       4.8746766    4.8746766    4.8772540    4.8772540    5.0712575
:EIG00076:       5.4211595    5.4211595    5.4352145    5.4352145    5.4352145
:EIG00081:       5.5739866    5.5739866    5.5739866    5.7435730    5.7435730
:EIG00086:       5.7435730    5.9561495    5.9561495    5.9561495    6.0074754
:EIG00091:       6.0827836    6.0827836    6.0900511    6.0900511    6.1336824
:EIG00096:       6.1336824    6.1336824    6.2591995    6.3607110    6.3607110
 
:EIG00101:       6.3607110    6.3877364    6.3877364    6.3877364    6.4403207
:EIG00106:       6.5208764    6.5208764    6.5208764    6.7227728    6.7427018
:EIG00111:       6.7427018    6.7427018    6.7997896    6.7997896    6.8139000
:EIG00116:       6.8139000    6.8139000    6.8345081    6.8345081    6.8345081
:EIG00121:       7.0184118    7.0184118    7.0184118    7.4918577    7.4918577
:EIG00126:       7.4918577    7.5123149    7.5123149    7.5123149    7.6412430
:EIG00131:       7.6417784    7.6417784    7.6417784    7.7336727    7.7336727
:EIG00136:       7.8348441    7.8348441    7.9226593    7.9226593    7.9226593
:EIG00141:       8.0177754    8.0177754    8.0177754    8.2380368    8.2380368
:EIG00146:       8.2380368
 
       ********************************************************

:KPT   :      NUMBER OF K-POINTS:   145

------- UO2_9.scfso --------
   0.0   0.0 angle (M,z), angle (M,x) deg
 
        SPIN-ORBIT EIGENVALUES:
     K=   0.00000   0.00000   0.00000            1
      MATRIX SIZE=  292   WEIGHT= 1.00
     EIGENVALUES ARE:
          -2.4986585   -2.4986585   -1.0516577   -1.0516577   -0.5737063
          -0.5737063   -0.4853844   -0.4853844   -0.4729122   -0.4729122
          -0.4729122   -0.4729122    0.3512305    0.3512305    0.3512305
           0.3512305    0.3559630    0.3559630    0.5437043    0.5437043
           0.5454499    0.5454499    0.5454499    0.5454499    0.7440905
           0.7440905    0.7664920    0.7664920    0.7664920    0.7664920
           0.8218070    0.8218070    0.8419263    0.8419263    0.8419263
           0.8419263    0.8565069    0.8565069    0.9405360    0.9405360

           0.9828256    0.9828256    0.9828256    0.9828256    1.3896787
           1.3896787    1.3896787    1.3896787    1.4225622    1.4225622
           1.5890196    1.5890196    1.6772704    1.6772704    1.6772704
           1.6772704    1.9682105    1.9682105    2.3173324    2.3173324
           2.3173324    2.3173324    2.3572649    2.3572649    2.3572649
           2.3572649    2.3640754    2.3640754    2.4770902    2.4770902
           2.7082978    2.7082978    2.7082978    2.7082978    2.8359866
           2.8359866    2.8412751    2.8412751    2.8412751    2.8412751

           2.8724474    2.8724474    3.2347647    3.2347647    3.2347647
           3.2347647    3.3292037    3.3292037    3.3292037    3.3292037
           3.3486988    3.3486988    3.4239610    3.4239610    3.4390804
           3.4390804    3.4391008    3.4391008    3.4391008    3.4391008
           3.4442342    3.4442342    3.4442342    3.4442342    3.6570272
           3.6570272    3.6570272    3.6570272    3.6573441    3.6573441
           3.7129235    3.7129235    3.7726484    3.7726484    3.7812870
           3.7812870    3.7813183    3.7813183    3.7813183    3.7813183

           3.7839394    3.7839394    3.7839394    3.7839394    3.8484982
           3.8484982    3.8503743    3.8503743    3.8503743    3.8503743
           4.1387076    4.1387076
       ********************************************************

------- UO2_9.scf2 --------
:GMA  : POTENTIAL AND CHARGE CUT-OFF  12.00 Ry**.5
         Bandranges (emin - emax) and occupancy:
:BAN00018:  18    0.355963    0.516144  1.00000000
:BAN00019:  19    0.441007    0.544973  1.00000000
:BAN00020:  20    0.441007    0.544973  1.00000000
:BAN00021:  21    0.504726    0.566276  1.00000000
:BAN00022:  22    0.504726    0.566276  1.00000000
:BAN00023:  23    0.535917    0.589834  1.00000000
:BAN00024:  24    0.535917    0.589834  1.00000000
:BAN00025:  25    0.712815    0.744091  0.94706671
:BAN00026:  26    0.712815    0.744091  0.94706671
:BAN00027:  27    0.741413    0.766492  0.05293329
:BAN00028:  28    0.741413    0.766492  0.05293329
:BAN00029:  29    0.748943    0.766492  0.00000000
:BAN00030:  30    0.748943    0.766492  0.00000000
:BAN00031:  31    0.777032    0.822640  0.00000000
:BAN00032:  32    0.777032    0.822640  0.00000000
:BAN00033:  33    0.800658    0.841926  0.00000000
        Energy to separate low and high energystates:    0.66282


:NLDA  : NUMBER OF ELECTRONS          =  26.000

:FLDA  : F E R M I - ENERGY           =   1.24254




:POS001: AT.NR.   1 POSITION = 0.00000 0.00000 0.00000  MULTIPLICITY =  1

       LMMAX  5
       LM=   0 0  4 0  4 4  6 0  6 4




:POS002: AT.NR.   2 POSITION = 0.00000 0.00000 0.00000  MULTIPLICITY =  2

       LMMAX  6
       LM=   0 0  4 0  4 4  6 0  6 4 -3 2
:FER DMFT Fermi Energy   0.76910
:EORB         -0.084894939
:SUM SUM OF DMFT BAND ENERGIES         -3.728141829

:CHA001: TOTAL CHARGE INSIDE SPHERE   1 =     8.135953
:PCS001: PARTIAL CHARGES SPHERE =  1 S,P,D,F,      D-EG,D-T2G 
:QTL001: 1.7978 4.1819 0.2278 1.9262 0.0000 0.0000 0.0000 0.0501 0.1863 0.0000 0.0000 0.0000
        Q-s-low E-s-low   Q-p-low E-p-low   Q-d-low E-d-low   Q-f-low E-f-low
:EPL001:  1.7977 -2.4231    4.1809 -0.6310    0.2264  0.3996    0.1594  0.4913
        Q-s-hi  E-s-hi    Q-p-hi  E-p-hi    Q-d-hi  E-d-hi    Q-f-hi  E-f-hi 
:EPH001:  0.0001  0.8100    0.0009  0.7746    0.0013  0.7814    1.7669  0.7413

:CHA002: TOTAL CHARGE INSIDE SPHERE   2 =     5.108746
:PCS002: PARTIAL CHARGES SPHERE =  2 S,P,D,F,      D-EG,D-T2G 
:QTL002: 1.5723 3.5288 0.0065 0.0009 0.0000 0.0000 0.0000 0.0025 0.0071 0.0000 0.0000 0.0000
        Q-s-low E-s-low   Q-p-low E-p-low   Q-d-low E-d-low   Q-f-low E-f-low
:EPL002:  1.5708 -0.5061    3.5167  0.4728    0.0055 -0.0416    0.0008 -0.2253
        Q-s-hi  E-s-hi    Q-p-hi  E-p-hi    Q-d-hi  E-d-hi    Q-f-hi  E-f-hi 
:EPH002:  0.0014  0.7536    0.0121  0.7611    0.0010  0.7409    0.0002  0.7454

:CHA  : TOTAL CHARGE INSIDE UNIT CELL =      26.000000

:ESUM  : SUM OF EIGENVALUES =          -3.817386795


------- UO2_9.scfc --------

        1.ATOM      U  4+                21 CORE STATES
:1S 001: 1S               -8506.546153215 Ry
:2S 001: 2S               -1587.995368258 Ry
:2PP001: 2P*              -1531.240881437 Ry
:2P 001: 2P               -1250.045363250 Ry
:3S 001: 3S                -400.137532141 Ry
:3PP001: 3P*               -374.364169980 Ry
:3P 001: 3P                -309.581002572 Ry
:3DD001: 3D*               -268.768443265 Ry
:3D 001: 3D                -255.623261218 Ry
:4S 001: 4S                -101.205999133 Ry
:4PP001: 4P*                -89.612443123 Ry
:4P 001: 4P                 -72.702541186 Ry
:4DD001: 4D*                -54.237761009 Ry
:4D 001: 4D                 -51.129135805 Ry
:5S 001: 5S                 -21.797280361 Ry
:5PP001: 5P*                -17.290304688 Ry
:5P 001: 5P                 -13.259359061 Ry
:4FF001: 4F*                -26.842928706 Ry
:4F 001: 4F                 -26.032909331 Ry
:5DD001: 5D*                 -6.668786860 Ry
:5D 001: 5D                  -6.070134873 Ry

        2.ATOM      O  2-                 1 CORE STATES
:1S 002: 1S                 -36.115580928 Ry

------- UO2_9.scfm --------
:CINT001 Core Integral Atom   1   77.964897
:CINT002 Core Integral Atom   2    2.000000
     
       CHARGES OF NEW CHARGE DENSITY
:NTO   : INTERSTITIAL CHARGE =     7.646555
:NTO001: CHARGE SPHERE  1    =    86.100850
:NTO002: CHARGE SPHERE  2    =     7.108746

:NEC01: NUCLEAR AND ELECTRONIC CHARGE    108.00000   107.96490
     
       CHARGES OF OLD CHARGE DENSITY
:OTO   : INTERSTITIAL CHARGE =     7.681616
:OTO001: CHARGE SPHERE  1    =    86.100676
:OTO002: CHARGE SPHERE  2    =     7.108854
:DNEW  1    0.0002
:DNEW  2   -0.0001

:NEC02: NUCLEAR AND ELECTRONIC CHARGE    108.00000   108.00000
     
       CONVERGENCE TEST
:DTO001: DIFFERENCE IN SPHERE  1 =  0.0001401
:DTO002: DIFFERENCE IN SPHERE  2 =  0.0001168

:DIS  :  CHARGE DISTANCE       ( 0.0001401 for atom    1 spin 1)      0.0001246
:BIG check (qbig,qrms,qtot)    0.467D-04   0.884D-04   0.125D-03
 
******************************************************
* MULTISECANT MIXING VER6 RELEASE 6.0 OPTIONS        *
* Standard Mode with controls                        *
* Regularization       1.000E-06                     *
* Trust Region Control Active                        *
* Max Number of Memory Steps    8                    *
******************************************************
 
:PLANE:  INTERSTITIAL TOTAL      2.50931 DISTAN  1.358E-03 % 
:CHARG:  CLM CHARGE   /ATOM    345.90747 DISTAN  7.523E-05 % 
 
 Step History DMIX, Red, Pred, Trust, FRMS, FABS
 28  6.6784E-02  6.5171E-01  5.8031E-01  8.9045E-01
 29  7.9535E-02  7.1233E-01  7.6522E-01  1.0605E+00
 30  9.9764E-02  3.1775E+00  6.7115E-01  2.3828E+00
 31  9.6719E-02  5.6387E-01  5.3867E-02  2.6428E+00
 32  1.0630E-01  1.3258E-01  6.7776E-02  3.0734E+00
 33  1.2825E-01  4.8001E+00  1.6001E-01  3.9372E+00
 34  1.2185E-01  3.7571E-02  1.8650E-02  3.8049E+00
 35  1.3189E-01  1.0000E+00  5.0376E-01  3.8224E+00
  
:NORMS:  Nuclear, Spectral, Froebius, Shanno-Pua   0.1442E+01  0.1550E+01  0.1494E+01  0.2623E+00
:INFO :  Number of Memory Steps    8 Skipping   26
:INFO :  SLambda=    1.5498989  Max    1.5498989

Eigenvalues, unscaled except for SY+YY
   #     SY Real        SY Imag          SS             YY         SY+YY Real      SY+YY Imag
   1   1.197975E+00   0.000000E+00   2.251782E+00   5.409200E+00   7.397126E+00   0.000000E+00
   2   8.203367E-01   0.000000E+00   7.207403E-01   1.769041E+00   2.878891E+00   0.000000E+00
   3   3.130733E-01   1.579422E-01   4.215903E-01   4.318656E-01   1.131062E+00   0.000000E+00
   4   3.130733E-01  -1.579422E-01   8.638857E-02   1.989125E-01   4.811131E-01   0.000000E+00
   5   7.482364E-02   0.000000E+00   7.000496E-02   1.017519E-01   2.401231E-01   0.000000E+00
   6   5.109460E-02   0.000000E+00   3.219992E-02   8.429282E-02   1.604359E-01   0.000000E+00
   7   5.440829E-06   0.000000E+00   1.645343E-05   2.846569E-05   1.248271E-04   0.000000E+00
   8   2.411693E-03   0.000000E+00   1.228563E-03   4.907255E-03   8.673160E-03   0.000000E+00
 
:INFO :  Singular value   7.516E+00 Weight  1.0000E+00 Projections   4.285E-04  2.928E-04
:INFO :  Singular value   3.128E+00 Weight  1.0000E+00 Projections  -7.124E-04 -2.123E-04
:INFO :  Singular value   1.442E+00 Weight  1.0000E+00 Projections   2.283E-03  1.252E-04
:INFO :  Singular value   3.571E-01 Weight  1.0000E+00 Projections  -9.770E-03 -3.296E-04
:INFO :  Singular value   2.390E-01 Weight  1.0000E+00 Projections   6.406E-03 -3.115E-05
:INFO :  Singular value   1.546E-01 Weight  1.0000E+00 Projections  -7.607E-04  1.636E-04
:INFO :  Singular value   8.704E-03 Weight  1.0000E+00 Projections  -7.386E-04 -1.553E-03
:INFO :  Singular value   1.241E-04 Weight  9.9810E-01 Projections  -4.862E-04 -1.188E-02
 
:DIRM :  MEMORY 8/8 RESCALE  19.03 RED 1.651 PRED 0.504 NEXT 0.313
:INFO :  Blimit    3.367E+00  1.075E+00  7.879E-01  3.388E+00
:DIRP :  |MSR1|= 7.086E-04 |PRATT|= 6.483E-04 ANGLE=  63.8 DEGREES
:DIRQ :  |MSR1|= 2.536E-04 |PRATT|= 5.205E-04 ANGLE=  40.9 DEGREES
:DIR  :  |MSR1|= 7.526E-04 |PRATT|= 8.313E-04 ANGLE=  61.1 DEGREES
:MIX  :   MSE1   REGULARIZATION: 5.41E-06  GREED: 0.118  Newton 1.00  0.91                
     
       CHARGES OF MIXED CHARGE DENSITY
:CTO   : INTERSTITIAL CHARGE =     7.681565
:CTO001: CHARGE SPHERE  1    =    86.100765
:CTO002: CHARGE SPHERE  2    =     7.108835

:NEC03: NUCLEAR AND ELECTRONIC CHARGE    108.00000   108.00000

PW CHANGE     H    K    L       Current     Change     Residue
:PTO001:      0    0    0  7.94298680E-02 -6.659E-07 -2.411E-07
:PTO002:     -1   -1   -1  1.99117252E-01 -1.921E-06  6.225E-07
:PTO003:      0    0   -2  1.64009620E-03 -1.681E-07  3.182E-06
:PTO004:      0   -2   -2  2.83707628E-01 -3.555E-06 -3.698E-06
:PTO005:     -1   -1   -3  1.60761313E-01 -4.584E-06 -1.549E-06
:PTO006:     -2   -2   -2 -1.61074557E-02 -1.713E-06  4.226E-07
:PTO007:      0    0   -4  4.56554059E-02 -5.568E-07 -1.141E-06
:PTO008:     -1   -3   -3  3.94701100E-02 -2.875E-06 -9.974E-07
:PTO009:      0   -2   -4 -4.84078568E-02 -2.373E-06  5.088E-07
:PTO010:     -2   -2   -4  5.50246091E-02 -1.495E-06 -1.655E-06
:PTO011:     -3   -3   -3 -2.82781373E-03 -8.355E-07 -4.422E-07
:PTO012:     -1   -1   -5 -1.49164690E-03 -1.206E-07 -5.256E-07

:ENE  : ********** TOTAL ENERGY IN Ry =       -56437.53646304

