
:LABEL1: Calculations in /home/ykent/GWIEN/example/Pr/V8/case
:LABEL2: on didymium-2.cmpgroup.ameslab.gov at Wed Jul  8 16:01:20 CDT 2020
:LABEL3: using WIEN2k_19.1 (Release 25/6/2019) in /home/ykent/opt/src/WIEN2k_19.1
:LABEL4: using the command: run_lapw -cc 0.0001
 Flat Integration
 New Mode for Coulomb Integral
 Consistent 3/8+Simpson combinations
 Extension of core to zero
 LDM version in phi
 Fifth-order quadrature in outwin


            ---------
:ITE001:  1. ITERATION
            ---------

:NATO :    1 INDEPENDENT AND    1 TOTAL ATOMS IN UNITCELL
       SUBSTANCE: blebleble                                                   

       LATTICE                      = F   
:POT  : POTENTIAL OPTION EX_LDA EC_LDA VX_LDA VC_LDA
:LAT  : LATTICE CONSTANTS=  9.24236  9.24236  9.24236    1.571    1.571    1.571
:VOL  : UNIT CELL VOLUME =     197.37341
       MODE OF CALCULATION IS       = RELA
       NON-SPINPOLARIZED CALCULATION
:IFFT  : FFT-parameters:   72   72   72 Factor: 2.00


   CONVERGENCE PARAMETER FOR PSEUDOCHARGE: NCON=  9
   MAXIMAL VALUE OF RMT(JATOM)*ABSK(NKK) : RK  =29.82719


:VKCOUL :  VK-COUL convergence: 0.250E-05
       ATOMNUMBER=  1 Pr         VCOUL-ZERO =  0.40341E+00
:FIT001: LUSE= 13 SIGMA OF V-XC FIT FOR ATOM  1  0.2859850E-05
:FIT001: LUSE= 13 SIGMA OF V-XC FIT FOR ATOM  1  0.2859850E-05
:DEN  : DENSITY INTEGRAL  =         -7085.02919897   (Ry)
       ELS_POTENTIAL_AT Z=0 and Z=0.5:  -2.55364  -2.55364
       ELS_POTENTIAL_AT Y=0 and Y=0.5:   0.00000   0.00000
:VZERO:v0,v0c,v0x  -3.55947  -2.55364  -1.00583 v5,v5c,v5x  -3.55947  -2.55364  -1.00583
:VZERY:v0,v0c,v0x  -0.76392   0.00000  -0.76392 v5,v5c,v5x  -0.76392   0.00000  -0.76392
:VZERX:v0,v0c,v0x  -0.76392   0.00000  -0.76392 v5,v5c,v5x  -0.76392   0.00000  -0.76392
:LMAX-WF:   10   Non-Spherical LMAX:   4

          ATOMIC SPHERE DEPENDENT PARAMETERS FOR ATOM  Pr        
:e__0001: OVERALL ENERGY PARAMETER IS    0.3000
          OVERALL BASIS SET ON ATOM IS LAPW
:E0_0001: E( 0)=    0.3000
             APW+lo
:E0_0001: E( 0)=   -1.8936   E(BOTTOM)=   -2.281   E(TOP)=   -1.506  4  5   190
             LOCAL ORBITAL
:E1_0001: E( 1)=    0.7000
             APW+lo
:E1_0001: E( 1)=   -0.5112   E(BOTTOM)=   -1.167   E(TOP)=    0.144  3  4   189
             LOCAL ORBITAL
:E3_0001: E( 3)=    0.7913   E(BOTTOM)=    0.644   E(TOP)=    0.939  0  1   147
             APW+lo
:E2_0001: E( 2)=    0.4003   E(BOTTOM)=    0.400   E(TOP)= -200.000  2 -1    87
             APW+lo

       K=   0.00000   0.00000   0.00000            1
:RKM  : MATRIX SIZE   157LOs:  20  RKM= 8.33  WEIGHT= 1.00  PGR:    
       EIGENVALUES ARE:
:EIG00001:      -1.8701283   -0.4716134   -0.4716134   -0.4716134    0.4863294
:EIG00006:       0.7636628    0.7981272    0.7981272    0.7981272    0.8387835
:EIG00011:       0.8387835    0.8387835    0.8744176    0.8744176    0.8744176
:EIG00016:       1.0989010    1.0989010    1.5144111    1.7782040    1.7782040
:EIG00021:       1.7782040    1.8670735
       ********************************************************

:KPT   :      NUMBER OF K-POINTS:   165
:GAP (global)   :    0.0    Ry =     0.0   eV (metal)
         Bandranges (emin - emax) and occupancy:
:BAN00001:   1   -1.870128   -1.838506  2.00000000
:BAN00002:   2   -0.624480   -0.471613  2.00000000
:BAN00003:   3   -0.572175   -0.471613  2.00000000
:BAN00004:   4   -0.529464   -0.471613  2.00000000
:BAN00005:   5    0.486329    0.711041  2.00000000
:BAN00006:   6    0.616016    0.775329  2.00000000
:BAN00007:   7    0.739176    0.806720  1.00000000
:BAN00008:   8    0.783874    0.807802  0.00000000
:BAN00009:   9    0.798127    0.815631  0.00000000
:BAN00010:  10    0.807105    0.838784  0.00000000
:BAN00011:  11    0.810461    0.838784  0.00000000
:BAN00012:  12    0.817934    0.839777  0.00000000
        Energy to separate low and high energystates:    0.43633


:NOE  : NUMBER OF ELECTRONS          =   13.000

:FER  : F E R M I - ENERGY(TETRAH.M.)=   0.7833093219
:GMA  : POTENTIAL AND CHARGE CUT-OFF  12.00 Ry**.5

:POS001: ATOM    1 X,Y,Z = 0.00000 0.00000 0.50000  MULT= 1  ZZ= 59.000  Pr        

       LMMAX  5
       LM=   0 0  4 0  4 4  6 0  6 4

:CHA001: TOTAL VALENCE CHARGE INSIDE SPHERE   1 =   9.7234    (RMT=  2.5000 )
:PCS001: PARTIAL CHARGES SPHERE =  1 S,P,D,F,      D-EG,D-T2G 
:QTL001: 2.0487 5.3520 0.9862 1.3354 0.0000 0.0000 0.0000 0.3480 0.6382 0.0000 0.0000 0.0000
        Q-s-low E-s-low   Q-p-low E-p-low   Q-d-low E-d-low   Q-f-low E-f-low
:EPL001:  1.9226 -1.8443    5.2332 -0.5359    0.0045 -0.5611    0.0013 -0.5618
        Q-s-hi  E-s-hi    Q-p-hi  E-p-hi    Q-d-hi  E-d-hi    Q-f-hi  E-f-hi 
:EPH001:  0.1261  0.6464    0.1188  0.6986    0.9817  0.6878    1.3341  0.7499

:CHA  : TOTAL VALENCE CHARGE INSIDE UNIT CELL =      13.000000

:SUM  : SUM OF EIGENVALUES =          -3.416096862


        1.ATOM      Pr                   14 CORE STATES
:1S 001: 1S               -3066.755346092 Ry
:2S 001: 2S                -492.521094547 Ry
:2PP001: 2P*               -465.618710634 Ry
:2P 001: 2P                -430.221914396 Ry
:3S 001: 3S                -105.619046034 Ry
:3PP001: 3P*                -94.156433727 Ry
:3P 001: 3P                 -87.149086808 Ry
:3DD001: 3D*                -67.075355664 Ry
:3D 001: 3D                 -65.563941777 Ry
:4S 001: 4S                 -20.306624330 Ry
:4PP001: 4P*                -16.013837400 Ry
:4P 001: 4P                 -14.487136880 Ry
:4DD001: 4D*                 -7.421636617 Ry
:4D 001: 4D                  -7.152509786 Ry
:CINT001 Core Integral Atom   1   45.999501

       DENSITY AT NUCLEUS
        JATOM        VALENCE       SEMI-CORE          CORE           TOTAL
:RTO001:   1      654.317203        0.000000   656820.310850   657474.628053
     
       CHARGES OF NEW CHARGE DENSITY
:NTO   : INTERSTITIAL CHARGE =     3.276643
:NPC   : PW Pseudocharge     =     7.991839
:NTO001: CHARGE SPHERE  1    =    55.722857

:NEC01: NUCLEAR AND ELECTRONIC CHARGE     59.00000    58.99950
     
       CHARGES OF OLD CHARGE DENSITY
:OTO   : INTERSTITIAL CHARGE =     2.754782
:OPC   : PW Pseudocharge     =     7.085520
:OTO001: CHARGE SPHERE  1    =    56.245874

:NEC02: NUCLEAR AND ELECTRONIC CHARGE     59.00000    59.00066
     
       CONVERGENCE TEST
:DTO001: DIFFERENCE IN SPHERE  1 =  0.9500640

:DIS  :  CHARGE DISTANCE       ( 0.9500640 for atom    1 spin 1)      0.9500640
 PW Mixed is           47
 
******************************************************
* MULTISECANT MIXING VER9 RELEASE 10.4.0              *
* Standard Mode with controls                        *
* Fixed density scale                                *
* Regularization       1.000E-04                     *
* Trust Upper Limit    5.000E+00                     *
* Max Number of Memory Steps    8                    *
******************************************************
 
:PWTMP   1.3192E+02  1.2500E+02  1.9737E+02
:PLANE:  PW TOTAL      2.9991 DISTAN   4.75E-01  1.58E+01 %
:CHARG:  CLM/ATOM    977.2589 DISTAN   1.01E+00  1.03E-01 %
 
Step History
        DMIX         DMIXT        Red     Pred      Trust     Lambda    MagRel    MagAbs     Beta
  1   3.5000E-02   3.5000E-02 -1.00E+00  1.00E+00 -1.00E+01  1.00E+00  3.50E-02  3.50E-02  1.00E+00
:INFO :  Note, Pratt in use
:TRUST:  Step 3.75E-02  Charge 7.50E-02 (e) CTO  2.50E-01 (e) PW  3.50E-01 (e)
:DIRM :  MEMORY  0/ 8 SCALE   1.000
Performing Pseudo Compensation
Final Pseudo Compensation Rescaling     1.00000E+00
:MIX  :   PRATT  REGULARIZATION:  1.00E-04 GREED: 0.02500                  
     
       CHARGES OF MIXED CHARGE DENSITY
:CTO   : INTERSTITIAL CHARGE =     2.767201
:CPC   : PW Pseudocharge     =     7.674981
:CTO001: CHARGE SPHERE  1    =    56.232799

:NEC03: NUCLEAR AND ELECTRONIC CHARGE     59.00000    59.00000

PW CHANGE     H    K    L      Current       Change    Residue
:PTO001:      0    0    0  5.29057189E-02  3.061E-03  7.257E-03
:PTO002:     -1   -1   -1 -1.45613340E-01 -1.605E-02 -1.850E-02
:PTO003:      0    0   -2  8.38751460E-02  1.047E-02  1.007E-02
:PTO004:      0   -2   -2  5.88294610E-02  1.192E-02  1.533E-02
:PTO005:     -1   -1   -3 -4.73583895E-02 -1.474E-02 -1.335E-02
:PTO006:     -2   -2   -2  1.10542109E-02  4.146E-03  3.544E-03
:PTO007:      0    0   -4  5.27551278E-04  1.421E-03  1.614E-04
:PTO008:     -1   -3   -3  5.78674309E-03 -2.736E-03 -2.429E-03
:PTO009:      0   -2   -4 -6.98901510E-03  1.959E-03  9.538E-04
:PTO010:     -2   -2   -4 -7.98793875E-03 -1.376E-04 -1.698E-03
:PTO011:     -3   -3   -3  2.30902823E-03  3.341E-04  1.064E-03
:PTO012:     -1   -1   -5  6.92476050E-03  9.999E-04  3.099E-03

:ENE  : ********** TOTAL ENERGY IN Ry =       -18472.14671220

 Flat Integration
 New Mode for Coulomb Integral
 Consistent 3/8+Simpson combinations
 Extension of core to zero
 LDM version in phi
 Fifth-order quadrature in outwin


            ---------
:ITE002:  2. ITERATION
            ---------

:NATO :    1 INDEPENDENT AND    1 TOTAL ATOMS IN UNITCELL
       SUBSTANCE: blebleble                                                   

       LATTICE                      = F   
:POT  : POTENTIAL OPTION EX_LDA EC_LDA VX_LDA VC_LDA
:LAT  : LATTICE CONSTANTS=  9.24236  9.24236  9.24236    1.571    1.571    1.571
:VOL  : UNIT CELL VOLUME =     197.37341
       MODE OF CALCULATION IS       = RELA
       NON-SPINPOLARIZED CALCULATION
:IFFT  : FFT-parameters:   72   72   72 Factor: 2.00


   CONVERGENCE PARAMETER FOR PSEUDOCHARGE: NCON=  9
   MAXIMAL VALUE OF RMT(JATOM)*ABSK(NKK) : RK  =29.82719


:VKCOUL :  VK-COUL convergence: 0.605E-07
       ATOMNUMBER=  1 Pr         VCOUL-ZERO =  0.41455E+00
:FIT001: LUSE= 13 SIGMA OF V-XC FIT FOR ATOM  1  0.2963232E-05
:FIT001: LUSE= 13 SIGMA OF V-XC FIT FOR ATOM  1  0.2963232E-05
:DEN  : DENSITY INTEGRAL  =         -7084.16480836   (Ry)
       ELS_POTENTIAL_AT Z=0 and Z=0.5:  -2.62459  -2.62459
       ELS_POTENTIAL_AT Y=0 and Y=0.5:   0.00000   0.00000
:VZERO:v0,v0c,v0x  -3.65575  -2.62459  -1.03116 v5,v5c,v5x  -3.65575  -2.62459  -1.03116
:VZERY:v0,v0c,v0x  -0.77071   0.00000  -0.77071 v5,v5c,v5x  -0.77071   0.00000  -0.77071
:VZERX:v0,v0c,v0x  -0.77071   0.00000  -0.77071 v5,v5c,v5x  -0.77071   0.00000  -0.77071
:LMAX-WF:   10   Non-Spherical LMAX:   4

          ATOMIC SPHERE DEPENDENT PARAMETERS FOR ATOM  Pr        
:e__0001: OVERALL ENERGY PARAMETER IS    0.5000
          OVERALL BASIS SET ON ATOM IS LAPW
:E0_0001: E( 0)=    0.5000
             APW+lo
:E0_0001: E( 0)=   -1.8930   E(BOTTOM)=   -2.279   E(TOP)=   -1.507  4  5   182
             LOCAL ORBITAL
:E1_0001: E( 1)=    0.9000
             APW+lo
:E1_0001: E( 1)=   -0.5090   E(BOTTOM)=   -1.162   E(TOP)=    0.144  3  4   192
             LOCAL ORBITAL
:E3_0001: E( 3)=    0.7839   E(BOTTOM)=    0.639   E(TOP)=    0.929  0  1   124
             APW+lo
:E2_0001: E( 2)=    0.5000   E(BOTTOM)=    0.406   E(TOP)= -200.000  2 -1    79
             APW+lo

       K=   0.00000   0.00000   0.00000            1
:RKM  : MATRIX SIZE   157LOs:  20  RKM= 8.33  WEIGHT= 1.00  PGR:    
       EIGENVALUES ARE:
:EIG00001:      -1.8691393   -0.4689174   -0.4689174   -0.4689174    0.4960160
:EIG00006:       0.7588068    0.7915930    0.7915930    0.7915930    0.8306296
:EIG00011:       0.8306296    0.8306296    0.8825796    0.8825796    0.8825796
:EIG00016:       1.1058423    1.1058423    1.5215499    1.7870175    1.7870175
:EIG00021:       1.7870175    1.8787513
       ********************************************************

:KPT   :      NUMBER OF K-POINTS:   165
:GAP (global)   :    0.0    Ry =     0.0   eV (metal)
         Bandranges (emin - emax) and occupancy:
:BAN00001:   1   -1.869139   -1.837903  2.00000000
:BAN00002:   2   -0.620170   -0.468917  2.00000000
:BAN00003:   3   -0.568385   -0.468917  2.00000000
:BAN00004:   4   -0.526124   -0.468917  2.00000000
:BAN00005:   5    0.496016    0.717139  2.00000000
:BAN00006:   6    0.625239    0.779113  2.00000000
:BAN00007:   7    0.742182    0.800712  0.99950938
:BAN00008:   8    0.779628    0.801520  0.00049062
:BAN00009:   9    0.791593    0.809112  0.00000000
:BAN00010:  10    0.801067    0.830630  0.00000000
:BAN00011:  11    0.804997    0.830630  0.00000000
:BAN00012:  12    0.810579    0.832138  0.00000000
:BAN00013:  13    0.820133    0.902458  0.00000000
        Energy to separate low and high energystates:    0.44602


:NOE  : NUMBER OF ELECTRONS          =   13.000

:FER  : F E R M I - ENERGY(TETRAH.M.)=   0.7796822139
:GMA  : POTENTIAL AND CHARGE CUT-OFF  12.00 Ry**.5

:POS001: ATOM    1 X,Y,Z = 0.00000 0.00000 0.50000  MULT= 1  ZZ= 59.000  Pr        

       LMMAX  5
       LM=   0 0  4 0  4 4  6 0  6 4

:CHA001: TOTAL VALENCE CHARGE INSIDE SPHERE   1 =   9.8353    (RMT=  2.5000 )
:PCS001: PARTIAL CHARGES SPHERE =  1 S,P,D,F,      D-EG,D-T2G 
:QTL001: 2.0469 5.3480 0.9330 1.5063 0.0000 0.0000 0.0000 0.3299 0.6032 0.0000 0.0000 0.0000
        Q-s-low E-s-low   Q-p-low E-p-low   Q-d-low E-d-low   Q-f-low E-f-low
:EPL001:  1.9233 -1.8437    5.2402 -0.5326    0.0044 -0.5577    0.0013 -0.5584
        Q-s-hi  E-s-hi    Q-p-hi  E-p-hi    Q-d-hi  E-d-hi    Q-f-hi  E-f-hi 
:EPH001:  0.1236  0.6525    0.1078  0.7003    0.9286  0.6909    1.5050  0.7494

:CHA  : TOTAL VALENCE CHARGE INSIDE UNIT CELL =      13.000000

:SUM  : SUM OF EIGENVALUES =          -3.371088330


        1.ATOM      Pr                   14 CORE STATES
:1S 001: 1S               -3066.779397308 Ry
:2S 001: 2S                -492.544723078 Ry
:2PP001: 2P*               -465.642396060 Ry
:2P 001: 2P                -430.245574446 Ry
:3S 001: 3S                -105.641552961 Ry
:3PP001: 3P*                -94.179030603 Ry
:3P 001: 3P                 -87.171536941 Ry
:3DD001: 3D*                -67.098076886 Ry
:3D 001: 3D                 -65.586624849 Ry
:4S 001: 4S                 -20.322227110 Ry
:4PP001: 4P*                -16.029020365 Ry
:4P 001: 4P                 -14.501666171 Ry
:4DD001: 4D*                 -7.434998361 Ry
:4D 001: 4D                  -7.165647167 Ry
:CINT001 Core Integral Atom   1   45.999507

       DENSITY AT NUCLEUS
        JATOM        VALENCE       SEMI-CORE          CORE           TOTAL
:RTO001:   1      654.784852        0.000000   656821.816626   657476.601478
     
       CHARGES OF NEW CHARGE DENSITY
:NTO   : INTERSTITIAL CHARGE =     3.164730
:NPC   : PW Pseudocharge     =     7.938317
:NTO001: CHARGE SPHERE  1    =    55.834777

:NEC01: NUCLEAR AND ELECTRONIC CHARGE     59.00000    58.99951
     
       CHARGES OF OLD CHARGE DENSITY
:OTO   : INTERSTITIAL CHARGE =     2.767199
:OPC   : PW Pseudocharge     =     7.674984
:OTO001: CHARGE SPHERE  1    =    56.232799

:NEC02: NUCLEAR AND ELECTRONIC CHARGE     59.00000    59.00000
     
       CONVERGENCE TEST
:DTO001: DIFFERENCE IN SPHERE  1 =  0.7171293

:DIS  :  CHARGE DISTANCE       ( 0.7171293 for atom    1 spin 1)      0.7171293
 PW Mixed is           47
 
******************************************************
* MULTISECANT MIXING VER9 RELEASE 10.4.0              *
* Slow Mode, cautious                                *
* Fixed density scale                                *
* Regularization       1.000E-04                     *
* Step Trust Radius    0.75000                       *
* Trust Upper Limit    2.000E+00                     *
* Max Number of Memory Steps   12                    *
******************************************************
 
:PWTMP   1.3192E+02  1.2500E+02  1.9737E+02
:PLANE:  PW TOTAL      3.3231 DISTAN   1.48E-01  4.44E+00 %
:CHARG:  CLM/ATOM    977.2552 DISTAN   7.99E-01  8.17E-02 %
 
Step History
        DMIX         DMIXT        Red     Pred      Trust     Lambda    MagRel    MagAbs     Beta
  1   3.5000E-02   3.5000E-02 -1.00E+00  1.00E+00 -1.00E+01  1.00E+00  3.50E-02  3.50E-02  1.00E+00
  2   2.5000E-02   2.5000E-02 -1.00E+00  1.00E+00 -1.00E+01  1.00E+00  2.50E-02  2.79E-02  1.00E+00
:JACOBIANS    3.478E-01   1.444E-02
  
:TRUST:  Step 3.59E-02  Charge 7.50E-02 (e) CTO  2.50E-01 (e) PW  3.50E-01 (e)
:DIRM :  MEMORY  1/12 SCALE   1.000
:MIX  :   PRATT  REGULARIZATION:  1.00E-04 GREED: 0.03588  Expand 1.44  0.0359                
     
       CHARGES OF MIXED CHARGE DENSITY
:CTO   : INTERSTITIAL CHARGE =     2.780040
:CPC   : PW Pseudocharge     =     8.255455
:CTO001: CHARGE SPHERE  1    =    56.219960

:NEC03: NUCLEAR AND ELECTRONIC CHARGE     59.00000    59.00000

PW CHANGE     H    K    L      Current       Change    Residue
:PTO001:      0    0    0  5.59117600E-02  3.006E-03  3.357E-03
:PTO002:     -1   -1   -1 -1.61377261E-01 -1.576E-02 -2.456E-03
:PTO003:      0    0   -2  9.41529403E-02  1.028E-02 -2.453E-04
:PTO004:      0   -2   -2  7.05380711E-02  1.171E-02  3.346E-03
:PTO005:     -1   -1   -3 -6.18333097E-02 -1.447E-02  1.193E-03
:PTO006:     -2   -2   -2  1.51255594E-02  4.071E-03 -5.583E-04
:PTO007:      0    0   -4  1.92321403E-03  1.396E-03 -1.196E-03
:PTO008:     -1   -3   -3  3.10011705E-03 -2.687E-03  2.344E-04
:PTO009:      0   -2   -4 -5.06507906E-03  1.924E-03 -9.011E-04
:PTO010:     -2   -2   -4 -8.12310991E-03 -1.352E-04 -1.509E-03
:PTO011:     -3   -3   -3  2.63706473E-03  3.280E-04  7.243E-04
:PTO012:     -1   -1   -5  7.90658784E-03  9.818E-04  2.045E-03

:ENE  : ********** TOTAL ENERGY IN Ry =       -18472.13363498

 Flat Integration
 New Mode for Coulomb Integral
 Consistent 3/8+Simpson combinations
 Extension of core to zero
 LDM version in phi
 Fifth-order quadrature in outwin


            ---------
:ITE003:  3. ITERATION
            ---------

:NATO :    1 INDEPENDENT AND    1 TOTAL ATOMS IN UNITCELL
       SUBSTANCE: blebleble                                                   

       LATTICE                      = F   
:POT  : POTENTIAL OPTION EX_LDA EC_LDA VX_LDA VC_LDA
:LAT  : LATTICE CONSTANTS=  9.24236  9.24236  9.24236    1.571    1.571    1.571
:VOL  : UNIT CELL VOLUME =     197.37341
       MODE OF CALCULATION IS       = RELA
       NON-SPINPOLARIZED CALCULATION
:IFFT  : FFT-parameters:   72   72   72 Factor: 2.00


   CONVERGENCE PARAMETER FOR PSEUDOCHARGE: NCON=  9
   MAXIMAL VALUE OF RMT(JATOM)*ABSK(NKK) : RK  =29.82719


:VKCOUL :  VK-COUL convergence: 0.641E-07
       ATOMNUMBER=  1 Pr         VCOUL-ZERO =  0.42555E+00
:FIT001: LUSE= 13 SIGMA OF V-XC FIT FOR ATOM  1  0.3094331E-05
:FIT001: LUSE= 13 SIGMA OF V-XC FIT FOR ATOM  1  0.3094331E-05
:DEN  : DENSITY INTEGRAL  =         -7083.32082304   (Ry)
       ELS_POTENTIAL_AT Z=0 and Z=0.5:  -2.69483  -2.69483
       ELS_POTENTIAL_AT Y=0 and Y=0.5:   0.00000   0.00000
:VZERO:v0,v0c,v0x  -3.74900  -2.69483  -1.05417 v5,v5c,v5x  -3.74900  -2.69483  -1.05417
:VZERY:v0,v0c,v0x  -0.77706   0.00000  -0.77706 v5,v5c,v5x  -0.77706   0.00000  -0.77706
:VZERX:v0,v0c,v0x  -0.77706   0.00000  -0.77706 v5,v5c,v5x  -0.77706   0.00000  -0.77706
:LMAX-WF:   10   Non-Spherical LMAX:   4

          ATOMIC SPHERE DEPENDENT PARAMETERS FOR ATOM  Pr        
:e__0001: OVERALL ENERGY PARAMETER IS    0.5531
          OVERALL BASIS SET ON ATOM IS LAPW
:E0_0001: E( 0)=    0.5531
             APW+lo
:E0_0001: E( 0)=   -1.8924   E(BOTTOM)=   -2.276   E(TOP)=   -1.508  4  5   192
             LOCAL ORBITAL
:E1_0001: E( 1)=    0.9531
             APW+lo
:E1_0001: E( 1)=   -0.5068   E(BOTTOM)=   -1.158   E(TOP)=    0.144  3  4   190
             LOCAL ORBITAL
:E3_0001: E( 3)=    0.7766   E(BOTTOM)=    0.634   E(TOP)=    0.919  0  1   121
             APW+lo
:E2_0001: E( 2)=    0.5531   E(BOTTOM)=    0.412   E(TOP)= -200.000  2 -1    84
             APW+lo

       K=   0.00000   0.00000   0.00000            1
:RKM  : MATRIX SIZE   157LOs:  20  RKM= 8.33  WEIGHT= 1.00  PGR:    
       EIGENVALUES ARE:
:EIG00001:      -1.8681096   -0.4662024   -0.4662024   -0.4662024    0.5056589
:EIG00006:       0.7539221    0.7851385    0.7851385    0.7851385    0.8226490
:EIG00011:       0.8226490    0.8226490    0.8907081    0.8907081    0.8907081
:EIG00016:       1.1128363    1.1128363    1.5288540    1.7958911    1.7958911
:EIG00021:       1.7958911    1.8904037
       ********************************************************

:KPT   :      NUMBER OF K-POINTS:   165
:GAP (global)   :    0.0    Ry =     0.0   eV (metal)
         Bandranges (emin - emax) and occupancy:
:BAN00001:   1   -1.868110   -1.837250  2.00000000
:BAN00002:   2   -0.615877   -0.466202  2.00000000
:BAN00003:   3   -0.564601   -0.466202  2.00000000
:BAN00004:   4   -0.522781   -0.466202  2.00000000
:BAN00005:   5    0.505659    0.723022  2.00000000
:BAN00006:   6    0.634394    0.776010  1.99998058
:BAN00007:   7    0.744424    0.794215  0.99738469
:BAN00008:   8    0.775286    0.795249  0.00263472
:BAN00009:   9    0.785139    0.802527  0.00000000
:BAN00010:  10    0.794736    0.822649  0.00000000
:BAN00011:  11    0.799045    0.822649  0.00000000
:BAN00012:  12    0.803354    0.826856  0.00000000
:BAN00013:  13    0.812484    0.906546  0.00000000
        Energy to separate low and high energystates:    0.45566


:NOE  : NUMBER OF ELECTRONS          =   13.000

:FER  : F E R M I - ENERGY(TETRAH.M.)=   0.7755076709
:GMA  : POTENTIAL AND CHARGE CUT-OFF  12.00 Ry**.5

:POS001: ATOM    1 X,Y,Z = 0.00000 0.00000 0.50000  MULT= 1  ZZ= 59.000  Pr        

       LMMAX  5
       LM=   0 0  4 0  4 4  6 0  6 4

:CHA001: TOTAL VALENCE CHARGE INSIDE SPHERE   1 =   9.9540    (RMT=  2.5000 )
:PCS001: PARTIAL CHARGES SPHERE =  1 S,P,D,F,      D-EG,D-T2G 
:QTL001: 2.0447 5.3438 0.8769 1.6877 0.0000 0.0000 0.0000 0.3109 0.5660 0.0000 0.0000 0.0000
        Q-s-low E-s-low   Q-p-low E-p-low   Q-d-low E-d-low   Q-f-low E-f-low
:EPL001:  1.9239 -1.8430    5.2471 -0.5292    0.0044 -0.5543    0.0013 -0.5551
        Q-s-hi  E-s-hi    Q-p-hi  E-p-hi    Q-d-hi  E-d-hi    Q-f-hi  E-f-hi 
:EPH001:  0.1207  0.6584    0.0967  0.7015    0.8725  0.6939    1.6864  0.7482

:CHA  : TOTAL VALENCE CHARGE INSIDE UNIT CELL =      13.000000

:SUM  : SUM OF EIGENVALUES =          -3.328852984


        1.ATOM      Pr                   14 CORE STATES
:1S 001: 1S               -3066.802943674 Ry
:2S 001: 2S                -492.567854404 Ry
:2PP001: 2P*               -465.665583252 Ry
:2P 001: 2P                -430.268736722 Ry
:3S 001: 3S                -105.663582966 Ry
:3PP001: 3P*                -94.201148936 Ry
:3P 001: 3P                 -87.193511188 Ry
:3DD001: 3D*                -67.120317334 Ry
:3D 001: 3D                 -65.608827840 Ry
:4S 001: 4S                 -20.337479436 Ry
:4PP001: 4P*                -16.043861071 Ry
:4P 001: 4P                 -14.515865439 Ry
:4DD001: 4D*                 -7.448054121 Ry
:4D 001: 4D                  -7.178482892 Ry
:CINT001 Core Integral Atom   1   45.999514

       DENSITY AT NUCLEUS
        JATOM        VALENCE       SEMI-CORE          CORE           TOTAL
:RTO001:   1      655.122982        0.000000   656823.294607   657478.417589
     
       CHARGES OF NEW CHARGE DENSITY
:NTO   : INTERSTITIAL CHARGE =     3.045962
:NPC   : PW Pseudocharge     =     7.882076
:NTO001: CHARGE SPHERE  1    =    55.953550

:NEC01: NUCLEAR AND ELECTRONIC CHARGE     59.00000    58.99951
     
       CHARGES OF OLD CHARGE DENSITY
:OTO   : INTERSTITIAL CHARGE =     2.780040
:OPC   : PW Pseudocharge     =     8.255455
:OTO001: CHARGE SPHERE  1    =    56.219960

:NEC02: NUCLEAR AND ELECTRONIC CHARGE     59.00000    59.00000
     
       CONVERGENCE TEST
:DTO001: DIFFERENCE IN SPHERE  1 =  0.4732699

:DIS  :  CHARGE DISTANCE       ( 0.4732699 for atom    1 spin 1)      0.4732699
 PW Mixed is           47
 
******************************************************
* MULTISECANT MIXING VER9 RELEASE 10.4.0              *
* Standard Mode with controls                        *
* Fixed density scale                                *
* Regularization       1.000E-04                     *
* Trust Upper Limit    5.000E+00                     *
* Max Number of Memory Steps    8                    *
******************************************************
 
:PWTMP   1.3192E+02  1.2500E+02  1.9737E+02
:PLANE:  PW TOTAL      3.6489 DISTAN   3.10E-01  8.51E+00 %
:CHARG:  CLM/ATOM    977.2516 DISTAN   5.93E-01  6.07E-02 %
 
Step History
        DMIX         DMIXT        Red     Pred      Trust     Lambda    MagRel    MagAbs     Beta
  1   3.5000E-02   3.5000E-02 -1.00E+00  1.00E+00 -1.00E+01  1.00E+00  3.50E-02  3.50E-02  1.00E+00
  2   2.5000E-02   2.5000E-02  7.29E-01  1.00E+00 -1.00E+01  1.00E+00  2.50E-02  2.79E-02  1.00E+00
  3   3.5879E-02   3.5879E-02 -1.00E+00  1.00E+00 -1.00E+01  1.00E+00  3.59E-02  2.91E-02  1.00E+00
:JACOBIANS    5.614E-01   1.826E-02
  
:NORMS:  1/Froebius, Min, Max, Used   0.8121E+00  0.4398E+00  0.8796E+00  0.8122E+00
:INFO :  Number of Memory Steps    2 Skipping    0
:INFO :  SLambda=    0.0525689455  Max    0.0525689455
:PREDicted Charge, CTotal, PW Trust    8.185E-03   8.185E-03   2.396E-01
:PREDicted DMix, Beta, BLim   2.6763E-02  6.2560E-01  4.5803E-01

Eigenvalues, unscaled except for SY+YY
   #     SY Real        SY Imag          SS             YY         SY+YY Real      SY+YY Imag
   1   1.404584E+00   0.000000E+00   1.319163E+00   1.999800E+00   2.073635E+00   0.000000E+00
   2   4.662937E-15   0.000000E+00  -1.110223E-16   2.004695E-04   2.022711E-04   0.000000E+00
 
:INFO :  Singular value  2.074E+00 Weight  1.000E+00 Projection  1.281E-03
:INFO :  Singular value  2.023E-04 Weight  5.057E-01 Projection -2.184E+01
:RANK :  ACTIVE   1.51/2  =  75.28 % ; YY RANK   1.50/2  =  75.06 %
 
:DLIM :  Beta Active  8.000E-01
:BLIM :  VZERO Control Off
:TRUST:  Step 2.77E-01  Charge 7.50E-02 (e) CTO  2.50E-01 (e) PW  3.50E-01 (e)
:DIRM :  MEMORY  2/8  SCALE   1.000 RED  0.82 PRED  1.00 NEXT  0.68 BETA  0.80
:TRAVE:  Charge 8.02E-04 (e) CTO  8.02E-04 (e) PW  1.17E-01 (e)
:DIRP :  |MSR1|= 1.159E-01 |PRATT|= 3.104E-01 ANGLE=  17.2 DEGREES
:DIRQ :  |MSR1|= 5.696E-03 |PRATT|= 5.932E-01 ANGLE=  57.6 DEGREES
:DIRT :  |MSR1|= 1.160E-01 |PRATT|= 6.695E-01 ANGLE=  62.2 DEGREES
:MIX  :   MSD1   REGULARIZATION:  2.00E-04 GREED: 0.02985  Newton 1.00  0.1733                
     
       CHARGES OF MIXED CHARGE DENSITY
:CTO   : INTERSTITIAL CHARGE =     2.780842
:CPC   : PW Pseudocharge     =     8.069920
:CTO001: CHARGE SPHERE  1    =    56.219158

:NEC03: NUCLEAR AND ELECTRONIC CHARGE     59.00000    59.00000

PW CHANGE     H    K    L      Current       Change    Residue
:PTO001:      0    0    0  5.49758027E-02 -9.360E-04 -5.356E-04
:PTO002:     -1   -1   -1 -1.56287846E-01  5.089E-03  1.328E-02
:PTO003:      0    0   -2  9.07864192E-02 -3.367E-03 -1.036E-02
:PTO004:      0   -2   -2  6.67880468E-02 -3.750E-03 -8.431E-03
:PTO005:     -1   -1   -3 -5.70660159E-02  4.767E-03  1.545E-02
:PTO006:     -2   -2   -2  1.37853018E-02 -1.340E-03 -4.565E-03
:PTO007:      0    0   -4  1.43735608E-03 -4.859E-04 -2.516E-03
:PTO008:     -1   -3   -3  3.98969311E-03  8.896E-04  2.854E-03
:PTO009:      0   -2   -4 -5.72323104E-03 -6.582E-04 -2.726E-03
:PTO010:     -2   -2   -4 -8.11684566E-03  6.264E-06 -1.313E-03
:PTO011:     -3   -3   -3  2.54641769E-03 -9.065E-05  3.825E-04
:PTO012:     -1   -1   -5  7.63673685E-03 -2.699E-04  9.971E-04

:ENE  : ********** TOTAL ENERGY IN Ry =       -18472.12438711

 Flat Integration
 New Mode for Coulomb Integral
 Consistent 3/8+Simpson combinations
 Extension of core to zero
 LDM version in phi
 Fifth-order quadrature in outwin


            ---------
:ITE004:  4. ITERATION
            ---------

:NATO :    1 INDEPENDENT AND    1 TOTAL ATOMS IN UNITCELL
       SUBSTANCE: blebleble                                                   

       LATTICE                      = F   
:POT  : POTENTIAL OPTION EX_LDA EC_LDA VX_LDA VC_LDA
:LAT  : LATTICE CONSTANTS=  9.24236  9.24236  9.24236    1.571    1.571    1.571
:VOL  : UNIT CELL VOLUME =     197.37341
       MODE OF CALCULATION IS       = RELA
       NON-SPINPOLARIZED CALCULATION
:IFFT  : FFT-parameters:   72   72   72 Factor: 2.00


   CONVERGENCE PARAMETER FOR PSEUDOCHARGE: NCON=  9
   MAXIMAL VALUE OF RMT(JATOM)*ABSK(NKK) : RK  =29.82719


:VKCOUL :  VK-COUL convergence: 0.632E-07
       ATOMNUMBER=  1 Pr         VCOUL-ZERO =  0.42231E+00
:FIT001: LUSE= 13 SIGMA OF V-XC FIT FOR ATOM  1  0.3283632E-05
:FIT001: LUSE= 13 SIGMA OF V-XC FIT FOR ATOM  1  0.3283632E-05
:DEN  : DENSITY INTEGRAL  =         -7083.05908148   (Ry)
       ELS_POTENTIAL_AT Z=0 and Z=0.5:  -2.67544  -2.67544
       ELS_POTENTIAL_AT Y=0 and Y=0.5:   0.00000   0.00000
:VZERO:v0,v0c,v0x  -3.72210  -2.67544  -1.04666 v5,v5c,v5x  -3.72210  -2.67544  -1.04666
:VZERY:v0,v0c,v0x  -0.77532   0.00000  -0.77532 v5,v5c,v5x  -0.77532   0.00000  -0.77532
:VZERX:v0,v0c,v0x  -0.77532   0.00000  -0.77532 v5,v5c,v5x  -0.77532   0.00000  -0.77532
:LMAX-WF:   10   Non-Spherical LMAX:   4

          ATOMIC SPHERE DEPENDENT PARAMETERS FOR ATOM  Pr        
:e__0001: OVERALL ENERGY PARAMETER IS    0.5680
          OVERALL BASIS SET ON ATOM IS LAPW
:E0_0001: E( 0)=    0.5680
             APW+lo
:E0_0001: E( 0)=   -1.8964   E(BOTTOM)=   -2.280   E(TOP)=   -1.512  4  5   190
             LOCAL ORBITAL
:E1_0001: E( 1)=    0.9680
             APW+lo
:E1_0001: E( 1)=   -0.5107   E(BOTTOM)=   -1.162   E(TOP)=    0.140  3  4   188
             LOCAL ORBITAL
:E3_0001: E( 3)=    0.7723   E(BOTTOM)=    0.630   E(TOP)=    0.915  0  1   113
             APW+lo
:E2_0001: E( 2)=    0.5680   E(BOTTOM)=    0.409   E(TOP)= -200.000  2 -1    78
             APW+lo

       K=   0.00000   0.00000   0.00000            1
:RKM  : MATRIX SIZE   157LOs:  20  RKM= 8.33  WEIGHT= 1.00  PGR:    
       EIGENVALUES ARE:
:EIG00001:      -1.8720531   -0.4700418   -0.4700418   -0.4700418    0.5023240
:EIG00006:       0.7498207    0.7808939    0.7808939    0.7808939    0.8183514
:EIG00011:       0.8183514    0.8183514    0.8872705    0.8872705    0.8872705
:EIG00016:       1.1092688    1.1092688    1.5254616    1.7925209    1.7925209
:EIG00021:       1.7925209    1.8871309
       ********************************************************

:KPT   :      NUMBER OF K-POINTS:   165
:GAP (global)   :    0.0    Ry =     0.0   eV (metal)
         Bandranges (emin - emax) and occupancy:
:BAN00001:   1   -1.872053   -1.841219  2.00000000
:BAN00002:   2   -0.619605   -0.470042  2.00000000
:BAN00003:   3   -0.568364   -0.470042  2.00000000
:BAN00004:   4   -0.526577   -0.470042  2.00000000
:BAN00005:   5    0.502324    0.719417  2.00000000
:BAN00006:   6    0.631035    0.771868  1.99998158
:BAN00007:   7    0.740648    0.789990  0.99732933
:BAN00008:   8    0.771173    0.791026  0.00268909
:BAN00009:   9    0.780894    0.798328  0.00000000
:BAN00010:  10    0.790520    0.818351  0.00000000
:BAN00011:  11    0.794832    0.818351  0.00000000
:BAN00012:  12    0.799077    0.822789  0.00000000
:BAN00013:  13    0.808243    0.902917  0.00000000
        Energy to separate low and high energystates:    0.45232


:NOE  : NUMBER OF ELECTRONS          =   13.000

:FER  : F E R M I - ENERGY(TETRAH.M.)=   0.7713937162
:GMA  : POTENTIAL AND CHARGE CUT-OFF  12.00 Ry**.5

:POS001: ATOM    1 X,Y,Z = 0.00000 0.00000 0.50000  MULT= 1  ZZ= 59.000  Pr        

       LMMAX  5
       LM=   0 0  4 0  4 4  6 0  6 4

:CHA001: TOTAL VALENCE CHARGE INSIDE SPHERE   1 =   9.9606    (RMT=  2.5000 )
:PCS001: PARTIAL CHARGES SPHERE =  1 S,P,D,F,      D-EG,D-T2G 
:QTL001: 2.0446 5.3437 0.8738 1.6976 0.0000 0.0000 0.0000 0.3100 0.5638 0.0000 0.0000 0.0000
        Q-s-low E-s-low   Q-p-low E-p-low   Q-d-low E-d-low   Q-f-low E-f-low
:EPL001:  1.9240 -1.8469    5.2475 -0.5330    0.0044 -0.5582    0.0013 -0.5589
        Q-s-hi  E-s-hi    Q-p-hi  E-p-hi    Q-d-hi  E-d-hi    Q-f-hi  E-f-hi 
:EPH001:  0.1206  0.6549    0.0961  0.6977    0.8694  0.6901    1.6963  0.7442

:CHA  : TOTAL VALENCE CHARGE INSIDE UNIT CELL =      13.000000

:SUM  : SUM OF EIGENVALUES =          -3.377879540


        1.ATOM      Pr                   14 CORE STATES
:1S 001: 1S               -3066.808005798 Ry
:2S 001: 2S                -492.572610440 Ry
:2PP001: 2P*               -465.670375774 Ry
:2P 001: 2P                -430.273512872 Ry
:3S 001: 3S                -105.668195276 Ry
:3PP001: 3P*                -94.205769264 Ry
:3P 001: 3P                 -87.198124155 Ry
:3DD001: 3D*                -67.124937639 Ry
:3D 001: 3D                 -65.613445823 Ry
:4S 001: 4S                 -20.341996585 Ry
:4PP001: 4P*                -16.048373783 Ry
:4P 001: 4P                 -14.520371448 Ry
:4DD001: 4D*                 -7.452535661 Ry
:4D 001: 4D                  -7.182960793 Ry
:CINT001 Core Integral Atom   1   45.999514

       DENSITY AT NUCLEUS
        JATOM        VALENCE       SEMI-CORE          CORE           TOTAL
:RTO001:   1      655.158999        0.000000   656823.368006   657478.527005
     
       CHARGES OF NEW CHARGE DENSITY
:NTO   : INTERSTITIAL CHARGE =     3.039363
:NPC   : PW Pseudocharge     =     7.879103
:NTO001: CHARGE SPHERE  1    =    55.960150

:NEC01: NUCLEAR AND ELECTRONIC CHARGE     59.00000    58.99951
     
       CHARGES OF OLD CHARGE DENSITY
:OTO   : INTERSTITIAL CHARGE =     2.780842
:OPC   : PW Pseudocharge     =     8.069920
:OTO001: CHARGE SPHERE  1    =    56.219158

:NEC02: NUCLEAR AND ELECTRONIC CHARGE     59.00000    59.00000
     
       CONVERGENCE TEST
:DTO001: DIFFERENCE IN SPHERE  1 =  0.4605952

:DIS  :  CHARGE DISTANCE       ( 0.4605952 for atom    1 spin 1)      0.4605952
 PW Mixed is           47
 
******************************************************
* MULTISECANT MIXING VER9 RELEASE 10.4.0              *
* Slow Mode, cautious                                *
* Fixed density scale                                *
* Regularization       1.000E-04                     *
* Step Trust Radius    0.75000                       *
* Trust Upper Limit    2.000E+00                     *
* Max Number of Memory Steps   12                    *
******************************************************
 
:PWTMP   1.3192E+02  1.2500E+02  1.9737E+02
:PLANE:  PW TOTAL      3.5435 DISTAN   2.02E-01  5.71E+00 %
:CHARG:  CLM/ATOM    977.2501 DISTAN   5.81E-01  5.94E-02 %
 
Step History
        DMIX         DMIXT        Red     Pred      Trust     Lambda    MagRel    MagAbs     Beta
  1   3.5000E-02   3.5000E-02 -1.00E+00  1.00E+00 -1.00E+01  1.00E+00  3.50E-02  3.50E-02  1.00E+00
  2   2.5000E-02   2.5000E-02  7.29E-01  1.00E+00 -1.00E+01  1.00E+00  2.50E-02  2.79E-02  1.00E+00
  3   3.5879E-02   3.5879E-02  8.24E-01  1.00E+00 -1.00E+01  5.26E-02  3.59E-02  2.91E-02  1.00E+00
  4   2.9851E-02   2.9851E-02 -1.00E+00  6.80E-01  2.77E-01  1.00E+00  1.73E-01  1.16E-01  8.00E-01
:JACOBIANS    7.807E-01   6.042E-02
  
:NORMS:  1/Froebius, Min, Max, Used   0.8209E+00  0.3496E+00  0.9988E+00  0.8883E+00
:INFO :  Number of Memory Steps    3 Skipping    0
:INFO :  SLambda=    1.4896321131  Max    1.4896321131
:PREDicted Charge, CTotal, PW Trust    2.610E-02   2.610E-02   3.117E-01
:PREDicted DMix, Beta, BLim   2.5368E-01  2.7604E+00  3.9761E-01

Eigenvalues, unscaled except for SY+YY
   #     SY Real        SY Imag          SS             YY         SY+YY Real      SY+YY Imag
   1   2.078580E+00   0.000000E+00   2.013149E+00   2.551225E+00   5.592574E+00   0.000000E+00
   2  -1.194991E-14   0.000000E+00   8.704226E-03   4.486810E-01   8.943371E-05   0.000000E+00
   3   4.991862E-02   0.000000E+00   6.825783E-17   9.447324E-05   5.780167E-01   0.000000E+00
 
:INFO :  Singular value  5.593E+00 Weight  1.000E+00 Projection  5.186E-02
:INFO :  Singular value  5.780E-01 Weight  1.000E+00 Projection -7.921E-01
:INFO :  Singular value  8.943E-05 Weight  1.094E-01 Projection -2.396E+00
:RANK :  ACTIVE   2.11/3  =  70.31 % ; YY RANK   2.12/3  =  70.69 %
 
:BLIM :  VZERO Control Off
:TRUST:  Step 3.37E-01  Charge 7.50E-02 (e) CTO  2.50E-01 (e) PW  3.50E-01 (e)
:DTRUS:  Lambda    3.495E-02 Increment    1.819E-12 Iterations   104 DMIX    6.948E-02
:INFOA:  Angle SubSpace to MSR1      1.09
:DIRM :  MEMORY  3/12 SCALE   1.000 RED  0.92 PRED  0.68 NEXT  0.55 
:INFO :  Limited by Atoms F by Step T

:TRAVE:  Charge 1.25E-02 (e) CTO  1.25E-02 (e) PW  1.45E-01 (e)
:DIRP :  |MSR1|= 1.928E-01 |PRATT|= 2.022E-01 ANGLE=  23.3 DEGREES
:DIRQ :  |MSR1|= 7.656E-02 |PRATT|= 5.808E-01 ANGLE=  27.9 DEGREES
:DIRT :  |MSR1|= 2.074E-01 |PRATT|= 6.150E-01 ANGLE=  53.9 DEGREES
:MIX  :   MSE1   REGULARIZATION:  2.55E-04 GREED: 0.07463  LMStep 0.93  0.3373 Step           
     
       CHARGES OF MIXED CHARGE DENSITY
:CTO   : INTERSTITIAL CHARGE =     2.805073
:CPC   : PW Pseudocharge     =     7.772257
:CTO001: CHARGE SPHERE  1    =    56.194927

:NEC03: NUCLEAR AND ELECTRONIC CHARGE     59.00000    59.00000

PW CHANGE     H    K    L      Current       Change    Residue
:PTO001:      0    0    0  5.35904488E-02 -1.385E-03  3.519E-04
:PTO002:     -1   -1   -1 -1.47909878E-01  8.378E-03  8.186E-03
:PTO003:      0    0   -2  8.49486148E-02 -5.838E-03 -6.971E-03
:PTO004:      0   -2   -2  6.08267160E-02 -5.961E-03 -4.683E-03
:PTO005:     -1   -1   -3 -4.86279914E-02  8.438E-03  1.066E-02
:PTO006:     -2   -2   -2  1.14013207E-02 -2.384E-03 -3.221E-03
:PTO007:      0    0   -4  4.08218681E-04 -1.029E-03 -2.023E-03
:PTO008:     -1   -3   -3  5.58219636E-03  1.593E-03  1.962E-03
:PTO009:      0   -2   -4 -7.02685217E-03 -1.304E-03 -2.061E-03
:PTO010:     -2   -2   -4 -8.35319599E-03 -2.364E-04 -1.314E-03
:PTO011:     -3   -3   -3  2.50408670E-03 -4.233E-05  4.719E-04
:PTO012:     -1   -1   -5  7.50592860E-03 -1.308E-04  1.261E-03

:ENE  : ********** TOTAL ENERGY IN Ry =       -18472.12398166

 Flat Integration
 New Mode for Coulomb Integral
 Consistent 3/8+Simpson combinations
 Extension of core to zero
 LDM version in phi
 Fifth-order quadrature in outwin


            ---------
:ITE005:  5. ITERATION
            ---------

:NATO :    1 INDEPENDENT AND    1 TOTAL ATOMS IN UNITCELL
       SUBSTANCE: blebleble                                                   

       LATTICE                      = F   
:POT  : POTENTIAL OPTION EX_LDA EC_LDA VX_LDA VC_LDA
:LAT  : LATTICE CONSTANTS=  9.24236  9.24236  9.24236    1.571    1.571    1.571
:VOL  : UNIT CELL VOLUME =     197.37341
       MODE OF CALCULATION IS       = RELA
       NON-SPINPOLARIZED CALCULATION
:IFFT  : FFT-parameters:   72   72   72 Factor: 2.00


   CONVERGENCE PARAMETER FOR PSEUDOCHARGE: NCON=  9
   MAXIMAL VALUE OF RMT(JATOM)*ABSK(NKK) : RK  =29.82719


:VKCOUL :  VK-COUL convergence: 0.651E-07
       ATOMNUMBER=  1 Pr         VCOUL-ZERO =  0.41842E+00
:FIT001: LUSE= 13 SIGMA OF V-XC FIT FOR ATOM  1  0.6620354E-05
:FIT001: LUSE= 13 SIGMA OF V-XC FIT FOR ATOM  1  0.6620354E-05
:DEN  : DENSITY INTEGRAL  =         -7080.22050253   (Ry)
       ELS_POTENTIAL_AT Z=0 and Z=0.5:  -2.65968  -2.65968
       ELS_POTENTIAL_AT Y=0 and Y=0.5:   0.00000   0.00000
:VZERO:v0,v0c,v0x  -3.69157  -2.65968  -1.03189 v5,v5c,v5x  -3.69157  -2.65968  -1.03189
:VZERY:v0,v0c,v0x  -0.77364   0.00000  -0.77364 v5,v5c,v5x  -0.77364   0.00000  -0.77364
:VZERX:v0,v0c,v0x  -0.77364   0.00000  -0.77364 v5,v5c,v5x  -0.77364   0.00000  -0.77364
:LMAX-WF:   10   Non-Spherical LMAX:   4

          ATOMIC SPHERE DEPENDENT PARAMETERS FOR ATOM  Pr        
:e__0001: OVERALL ENERGY PARAMETER IS    0.5703
          OVERALL BASIS SET ON ATOM IS LAPW
:E0_0001: E( 0)=    0.5703
             APW+lo
:E0_0001: E( 0)=   -1.9206   E(BOTTOM)=   -2.301   E(TOP)=   -1.540  4  5   186
             LOCAL ORBITAL
:E1_0001: E( 1)=    0.9703
             APW+lo
:E1_0001: E( 1)=   -0.5320   E(BOTTOM)=   -1.179   E(TOP)=    0.115  3  4   190
             LOCAL ORBITAL
:E3_0001: E( 3)=    0.7347   E(BOTTOM)=    0.596   E(TOP)=    0.874  0  1   111
             APW+lo
:E2_0001: E( 2)=    0.5703   E(BOTTOM)=    0.395   E(TOP)= -200.000  2 -1    82
             APW+lo

       K=   0.00000   0.00000   0.00000            1
:RKM  : MATRIX SIZE   157LOs:  20  RKM= 8.33  WEIGHT= 1.00  PGR:    
       EIGENVALUES ARE:
:EIG00001:      -1.8955137   -0.4903200   -0.4903200   -0.4903200    0.4957863
:EIG00006:       0.7165451    0.7445235    0.7445235    0.7445235    0.7795645
:EIG00011:       0.7795645    0.7795645    0.8777978    0.8777978    0.8777978
:EIG00016:       1.0973277    1.0973277    1.5156282    1.7848087    1.7848087
:EIG00021:       1.7848087    1.8838307
       ********************************************************

:KPT   :      NUMBER OF K-POINTS:   165
:GAP (global)   :    0.0    Ry =     0.0   eV (metal)
         Bandranges (emin - emax) and occupancy:
:BAN00001:   1   -1.895514   -1.865396  2.00000000
:BAN00002:   2   -0.636838   -0.490320  2.00000000
:BAN00003:   3   -0.586579   -0.490320  2.00000000
:BAN00004:   4   -0.545648   -0.490320  2.00000000
:BAN00005:   5    0.495786    0.702186  2.00000000
:BAN00006:   6    0.623575    0.737232  2.00000000
:BAN00007:   7    0.718483    0.753211  1.00000000
:BAN00008:   8    0.738493    0.754814  0.00000000
:BAN00009:   9    0.744523    0.762540  0.00000000
:BAN00010:  10    0.756240    0.779565  0.00000000
:BAN00011:  11    0.758775    0.779565  0.00000000
:BAN00012:  12    0.761462    0.795367  0.00000000
        Energy to separate low and high energystates:    0.44579


:NOE  : NUMBER OF ELECTRONS          =   13.000

:FER  : F E R M I - ENERGY(TETRAH.M.)=   0.7384308108
:GMA  : POTENTIAL AND CHARGE CUT-OFF  12.00 Ry**.5

:POS001: ATOM    1 X,Y,Z = 0.00000 0.00000 0.50000  MULT= 1  ZZ= 59.000  Pr        

       LMMAX  5
       LM=   0 0  4 0  4 4  6 0  6 4

:CHA001: TOTAL VALENCE CHARGE INSIDE SPHERE   1 =  10.1978    (RMT=  2.5000 )
:PCS001: PARTIAL CHARGES SPHERE =  1 S,P,D,F,      D-EG,D-T2G 
:QTL001: 2.0396 5.3368 0.7627 2.0578 0.0000 0.0000 0.0000 0.2735 0.4893 0.0000 0.0000 0.0000
        Q-s-low E-s-low   Q-p-low E-p-low   Q-d-low E-d-low   Q-f-low E-f-low
:EPL001:  1.9252 -1.8710    5.2607 -0.5520    0.0042 -0.5771    0.0013 -0.5779
        Q-s-hi  E-s-hi    Q-p-hi  E-p-hi    Q-d-hi  E-d-hi    Q-f-hi  E-f-hi 
:EPH001:  0.1143  0.6411    0.0761  0.6746    0.7586  0.6705    2.0565  0.7160

:CHA  : TOTAL VALENCE CHARGE INSIDE UNIT CELL =      13.000000

:SUM  : SUM OF EIGENVALUES =          -3.632405917


        1.ATOM      Pr                   14 CORE STATES
:1S 001: 1S               -3066.873205027 Ry
:2S 001: 2S                -492.634816969 Ry
:2PP001: 2P*               -465.732911515 Ry
:2P 001: 2P                -430.335895312 Ry
:3S 001: 3S                -105.728244739 Ry
:3PP001: 3P*                -94.265978112 Ry
:3P 001: 3P                 -87.258101547 Ry
:3DD001: 3D*                -67.185255825 Ry
:3D 001: 3D                 -65.673703712 Ry
:4S 001: 4S                 -20.392366215 Ry
:4PP001: 4P*                -16.098148639 Ry
:4P 001: 4P                 -14.569227957 Ry
:4DD001: 4D*                 -7.499638914 Ry
:4D 001: 4D                  -7.229737200 Ry
:CINT001 Core Integral Atom   1   45.999524

       DENSITY AT NUCLEUS
        JATOM        VALENCE       SEMI-CORE          CORE           TOTAL
:RTO001:   1      655.452622        0.000000   656825.892248   657481.344870
     
       CHARGES OF NEW CHARGE DENSITY
:NTO   : INTERSTITIAL CHARGE =     2.802224
:NPC   : PW Pseudocharge     =     7.768666
:NTO001: CHARGE SPHERE  1    =    56.197300

:NEC01: NUCLEAR AND ELECTRONIC CHARGE     59.00000    58.99952
     
       CHARGES OF OLD CHARGE DENSITY
:OTO   : INTERSTITIAL CHARGE =     2.805073
:OPC   : PW Pseudocharge     =     7.772257
:OTO001: CHARGE SPHERE  1    =    56.194927

:NEC02: NUCLEAR AND ELECTRONIC CHARGE     59.00000    59.00000
     
       CONVERGENCE TEST
:DTO001: DIFFERENCE IN SPHERE  1 =  0.0784535

:DIS  :  CHARGE DISTANCE       ( 0.0784535 for atom    1 spin 1)      0.0784535
 PW Mixed is           47
 
******************************************************
* MULTISECANT MIXING VER9 RELEASE 10.4.0              *
* Standard Mode with controls                        *
* Fixed density scale                                *
* Regularization       1.000E-04                     *
* Trust Upper Limit    5.000E+00                     *
* Max Number of Memory Steps    8                    *
******************************************************
 
:PWTMP   1.3192E+02  1.2500E+02  1.9737E+02
:PLANE:  PW TOTAL      3.3735 DISTAN   3.42E-02  1.01E+00 %
:CHARG:  CLM/ATOM    977.2326 DISTAN   3.17E-01  3.24E-02 %
 
Step History
        DMIX         DMIXT        Red     Pred      Trust     Lambda    MagRel    MagAbs     Beta
  1   3.5000E-02   3.5000E-02 -1.00E+00  1.00E+00 -1.00E+01  1.00E+00  3.50E-02  3.50E-02  1.00E+00
  2   2.5000E-02   2.5000E-02  7.29E-01  1.00E+00 -1.00E+01  1.00E+00  2.50E-02  2.79E-02  1.00E+00
  3   3.5879E-02   3.5879E-02  8.24E-01  1.00E+00 -1.00E+01  5.26E-02  3.59E-02  2.91E-02  1.00E+00
  4   2.9851E-02   2.9851E-02  9.18E-01  6.80E-01  2.77E-01  1.49E+00  1.73E-01  1.16E-01  8.00E-01
  5   7.4628E-02   6.9476E-02 -1.00E+00  5.47E-01  3.37E-01  1.00E+00  3.37E-01  2.07E-01  1.00E+00
:JACOBIANS    8.885E-01   8.037E-02
  
:NORMS:  1/Froebius, Min, Max, Used   0.4014E+00  0.3902E+00  0.9985E+00  0.4098E+00
:INFO :  Number of Memory Steps    4 Skipping    0
:INFO :  SLambda=    0.3403515365  Max    0.3403515365
:PREDicted Charge, CTotal, PW Trust    2.369E-02   2.369E-02   2.021E-01
:PREDicted DMix, Beta, BLim   1.3180E-02  1.0863E+00  3.8938E-01

Eigenvalues, unscaled except for SY+YY
   #     SY Real        SY Imag          SS             YY         SY+YY Real      SY+YY Imag
   1   5.900917E-01   0.000000E+00   5.834042E-01   3.474459E+00   3.592579E+00   0.000000E+00
   2   2.732050E-01   0.000000E+00   6.101575E-02   5.254725E-01   7.011784E-01   0.000000E+00
   3  -2.749923E-17   0.000000E+00   1.177846E-05   6.179016E-05   7.996248E-06   0.000000E+00
   4   3.124525E-05   0.000000E+00  -1.695635E-17   6.968373E-06   6.934920E-05   0.000000E+00
 
:INFO :  Singular value  3.593E+00 Weight  1.000E+00 Projection -4.968E-03
:INFO :  Singular value  7.012E-01 Weight  1.000E+00 Projection -3.719E-02
:INFO :  Singular value  6.969E-05 Weight  3.868E-02 Projection -1.451E+00
:INFO :  Singular value  7.957E-06 Weight  5.242E-04 Projection  2.103E-02
:RANK :  ACTIVE   2.04/4  =  50.98 % ; YY RANK   2.03/4  =  50.78 %
 
:BLIM :  VZERO Control Off
:TRUST:  Step 4.50E-01  Charge 7.50E-02 (e) CTO  2.50E-01 (e) PW  3.50E-01 (e)
:DIRM :  MEMORY  4/8  SCALE   1.000 RED  0.52 PRED  0.55 NEXT  0.96 
:TRAVE:  Charge 6.64E-03 (e) CTO  6.64E-03 (e) PW  8.61E-02 (e)
:DIRP :  |MSR1|= 2.642E-02 |PRATT|= 3.418E-02 ANGLE=  76.6 DEGREES
:DIRQ :  |MSR1|= 1.643E-02 |PRATT|= 3.168E-01 ANGLE=   5.1 DEGREES
:DIRT :  |MSR1|= 3.112E-02 |PRATT|= 3.186E-01 ANGLE=  57.0 DEGREES
:MIX  :   MSD1   REGULARIZATION:  3.47E-04 GREED: 0.03310  Newton 1.00  0.0977                
     
       CHARGES OF MIXED CHARGE DENSITY
:CTO   : INTERSTITIAL CHARGE =     2.804307
:CPC   : PW Pseudocharge     =     7.730055
:CTO001: CHARGE SPHERE  1    =    56.195693

:NEC03: NUCLEAR AND ELECTRONIC CHARGE     59.00000    59.00000

PW CHANGE     H    K    L      Current       Change    Residue
:PTO001:      0    0    0  5.33727498E-02 -2.177E-04 -2.352E-05
:PTO002:     -1   -1   -1 -1.46778302E-01  1.132E-03 -2.592E-04
:PTO003:      0    0   -2  8.41598480E-02 -7.888E-04 -7.184E-04
:PTO004:      0   -2   -2  6.00376630E-02 -7.891E-04  1.140E-03
:PTO005:     -1   -1   -3 -4.74765724E-02  1.151E-03  1.753E-03
:PTO006:     -2   -2   -2  1.10667429E-02 -3.346E-04 -7.122E-04
:PTO007:      0    0   -4  2.60417698E-04 -1.478E-04 -8.333E-04
:PTO008:     -1   -3   -3  5.79534035E-03  2.131E-04  3.056E-04
:PTO009:      0   -2   -4 -7.20170782E-03 -1.749E-04 -6.053E-04
:PTO010:     -2   -2   -4 -8.39747131E-03 -4.428E-05 -9.819E-04
:PTO011:     -3   -3   -3  2.50677762E-03  2.691E-06  4.887E-04
:PTO012:     -1   -1   -5  7.50406899E-03 -1.860E-06  1.258E-03

:ENE  : ********** TOTAL ENERGY IN Ry =       -18472.11737457

 Flat Integration
 New Mode for Coulomb Integral
 Consistent 3/8+Simpson combinations
 Extension of core to zero
 LDM version in phi
 Fifth-order quadrature in outwin


            ---------
:ITE006:  6. ITERATION
            ---------

:NATO :    1 INDEPENDENT AND    1 TOTAL ATOMS IN UNITCELL
       SUBSTANCE: blebleble                                                   

       LATTICE                      = F   
:POT  : POTENTIAL OPTION EX_LDA EC_LDA VX_LDA VC_LDA
:LAT  : LATTICE CONSTANTS=  9.24236  9.24236  9.24236    1.571    1.571    1.571
:VOL  : UNIT CELL VOLUME =     197.37341
       MODE OF CALCULATION IS       = RELA
       NON-SPINPOLARIZED CALCULATION
:IFFT  : FFT-parameters:   72   72   72 Factor: 2.00


   CONVERGENCE PARAMETER FOR PSEUDOCHARGE: NCON=  9
   MAXIMAL VALUE OF RMT(JATOM)*ABSK(NKK) : RK  =29.82719


:VKCOUL :  VK-COUL convergence: 0.710E-07
       ATOMNUMBER=  1 Pr         VCOUL-ZERO =  0.41763E+00
:FIT001: LUSE= 13 SIGMA OF V-XC FIT FOR ATOM  1  0.7526821E-05
:FIT001: LUSE= 13 SIGMA OF V-XC FIT FOR ATOM  1  0.7526821E-05
:DEN  : DENSITY INTEGRAL  =         -7080.30736242   (Ry)
       ELS_POTENTIAL_AT Z=0 and Z=0.5:  -2.65542  -2.65542
       ELS_POTENTIAL_AT Y=0 and Y=0.5:   0.00000   0.00000
:VZERO:v0,v0c,v0x  -3.68507  -2.65542  -1.02964 v5,v5c,v5x  -3.68507  -2.65542  -1.02964
:VZERY:v0,v0c,v0x  -0.77317   0.00000  -0.77317 v5,v5c,v5x  -0.77317   0.00000  -0.77317
:VZERX:v0,v0c,v0x  -0.77317   0.00000  -0.77317 v5,v5c,v5x  -0.77317   0.00000  -0.77317
:LMAX-WF:   10   Non-Spherical LMAX:   4

          ATOMIC SPHERE DEPENDENT PARAMETERS FOR ATOM  Pr        
:e__0001: OVERALL ENERGY PARAMETER IS    0.5490
          OVERALL BASIS SET ON ATOM IS LAPW
:E0_0001: E( 0)=    0.5490
             APW+lo
:E0_0001: E( 0)=   -1.9209   E(BOTTOM)=   -2.302   E(TOP)=   -1.540  4  5   188
             LOCAL ORBITAL
:E1_0001: E( 1)=    0.9490
             APW+lo
:E1_0001: E( 1)=   -0.5324   E(BOTTOM)=   -1.180   E(TOP)=    0.115  3  4   187
             LOCAL ORBITAL
:E3_0001: E( 3)=    0.7352   E(BOTTOM)=    0.596   E(TOP)=    0.874  0  1   115
             APW+lo
:E2_0001: E( 2)=    0.5490   E(BOTTOM)=    0.394   E(TOP)= -200.000  2 -1    79
             APW+lo

       K=   0.00000   0.00000   0.00000            1
:RKM  : MATRIX SIZE   157LOs:  20  RKM= 8.33  WEIGHT= 1.00  PGR:    
       EIGENVALUES ARE:
:EIG00001:      -1.8958358   -0.4907425   -0.4907425   -0.4907425    0.4950531
:EIG00006:       0.7168955    0.7449267    0.7449267    0.7449267    0.7800769
:EIG00011:       0.7800769    0.7800769    0.8771680    0.8771680    0.8771680
:EIG00016:       1.0967052    1.0967052    1.5151218    1.7841181    1.7841181
:EIG00021:       1.7841181    1.8828551
       ********************************************************

:KPT   :      NUMBER OF K-POINTS:   165
:GAP (global)   :    0.0    Ry =     0.0   eV (metal)
         Bandranges (emin - emax) and occupancy:
:BAN00001:   1   -1.895836   -1.865699  2.00000000
:BAN00002:   2   -0.637332   -0.490743  2.00000000
:BAN00003:   3   -0.587049   -0.490743  2.00000000
:BAN00004:   4   -0.546099   -0.490743  2.00000000
:BAN00005:   5    0.495053    0.701913  2.00000000
:BAN00006:   6    0.622894    0.737601  2.00000000
:BAN00007:   7    0.718392    0.753658  1.00000000
:BAN00008:   8    0.738774    0.755226  0.00000000
:BAN00009:   9    0.744927    0.762966  0.00000000
:BAN00010:  10    0.756650    0.780077  0.00000000
:BAN00011:  11    0.759187    0.780077  0.00000000
:BAN00012:  12    0.761919    0.795292  0.00000000
        Energy to separate low and high energystates:    0.44505


:NOE  : NUMBER OF ELECTRONS          =   13.000

:FER  : F E R M I - ENERGY(TETRAH.M.)=   0.7387323594
:GMA  : POTENTIAL AND CHARGE CUT-OFF  12.00 Ry**.5

:POS001: ATOM    1 X,Y,Z = 0.00000 0.00000 0.50000  MULT= 1  ZZ= 59.000  Pr        

       LMMAX  5
       LM=   0 0  4 0  4 4  6 0  6 4

:CHA001: TOTAL VALENCE CHARGE INSIDE SPHERE   1 =  10.1883    (RMT=  2.5000 )
:PCS001: PARTIAL CHARGES SPHERE =  1 S,P,D,F,      D-EG,D-T2G 
:QTL001: 2.0398 5.3372 0.7674 2.0430 0.0000 0.0000 0.0000 0.2751 0.4923 0.0000 0.0000 0.0000
        Q-s-low E-s-low   Q-p-low E-p-low   Q-d-low E-d-low   Q-f-low E-f-low
:EPL001:  1.9252 -1.8713    5.2604 -0.5525    0.0042 -0.5776    0.0013 -0.5783
        Q-s-hi  E-s-hi    Q-p-hi  E-p-hi    Q-d-hi  E-d-hi    Q-f-hi  E-f-hi 
:EPH001:  0.1146  0.6406    0.0768  0.6745    0.7632  0.6702    2.0417  0.7162

:CHA  : TOTAL VALENCE CHARGE INSIDE UNIT CELL =      13.000000

:SUM  : SUM OF EIGENVALUES =          -3.636959460


        1.ATOM      Pr                   14 CORE STATES
:1S 001: 1S               -3066.870778644 Ry
:2S 001: 2S                -492.632078199 Ry
:2PP001: 2P*               -465.730185729 Ry
:2P 001: 2P                -430.333159949 Ry
:3S 001: 3S                -105.725805718 Ry
:3PP001: 3P*                -94.263519828 Ry
:3P 001: 3P                 -87.255670923 Ry
:3DD001: 3D*                -67.182742654 Ry
:3D 001: 3D                 -65.671199217 Ry
:4S 001: 4S                 -20.391036572 Ry
:4PP001: 4P*                -16.096876377 Ry
:4P 001: 4P                 -14.568050375 Ry
:4DD001: 4D*                 -7.498601252 Ry
:4D 001: 4D                  -7.228729448 Ry
:CINT001 Core Integral Atom   1   45.999524

       DENSITY AT NUCLEUS
        JATOM        VALENCE       SEMI-CORE          CORE           TOTAL
:RTO001:   1      655.474471        0.000000   656825.712301   657481.186772
     
       CHARGES OF NEW CHARGE DENSITY
:NTO   : INTERSTITIAL CHARGE =     2.811728
:NPC   : PW Pseudocharge     =     7.773485
:NTO001: CHARGE SPHERE  1    =    56.187795

:NEC01: NUCLEAR AND ELECTRONIC CHARGE     59.00000    58.99952
     
       CHARGES OF OLD CHARGE DENSITY
:OTO   : INTERSTITIAL CHARGE =     2.804307
:OPC   : PW Pseudocharge     =     7.730055
:OTO001: CHARGE SPHERE  1    =    56.195693

:NEC02: NUCLEAR AND ELECTRONIC CHARGE     59.00000    59.00000
     
       CONVERGENCE TEST
:DTO001: DIFFERENCE IN SPHERE  1 =  0.0683334

:DIS  :  CHARGE DISTANCE       ( 0.0683334 for atom    1 spin 1)      0.0683334
 PW Mixed is           47
 
******************************************************
* MULTISECANT MIXING VER9 RELEASE 10.4.0              *
* Slow Mode, cautious                                *
* Fixed density scale                                *
* Regularization       1.000E-04                     *
* Step Trust Radius    0.75000                       *
* Trust Upper Limit    2.000E+00                     *
* Max Number of Memory Steps   12                    *
******************************************************
 
:PWTMP   1.3192E+02  1.2500E+02  1.9737E+02
:PLANE:  PW TOTAL      3.3499 DISTAN   3.89E-02  1.16E+00 %
:CHARG:  CLM/ATOM    977.2309 DISTAN   2.99E-01  3.06E-02 %
 
Step History
        DMIX         DMIXT        Red     Pred      Trust     Lambda    MagRel    MagAbs     Beta
  1   3.5000E-02   3.5000E-02 -1.00E+00  1.00E+00 -1.00E+01  1.00E+00  3.50E-02  3.50E-02  1.00E+00
  2   2.5000E-02   2.5000E-02  7.29E-01  1.00E+00 -1.00E+01  1.00E+00  2.50E-02  2.79E-02  1.00E+00
  3   3.5879E-02   3.5879E-02  8.24E-01  1.00E+00 -1.00E+01  5.26E-02  3.59E-02  2.91E-02  1.00E+00
  4   2.9851E-02   2.9851E-02  9.18E-01  6.80E-01  2.77E-01  1.49E+00  1.73E-01  1.16E-01  8.00E-01
  5   7.4628E-02   6.9476E-02  5.18E-01  5.47E-01  3.37E-01  3.40E-01  3.37E-01  2.07E-01  1.00E+00
  6   3.3096E-02   3.3096E-02 -1.00E+00  9.64E-01  4.50E-01  1.00E+00  9.77E-02  3.11E-02  1.00E+00
:JACOBIANS    9.525E-01   5.889E-01
  
:NORMS:  1/Froebius, Min, Max, Used   0.5267E+00  0.4420E+00  0.1003E+01  0.5881E+00
:INFO :  Number of Memory Steps    5 Skipping    0
:INFO :  SLambda=    0.9648567945  Max    0.9648567945
:PREDicted Charge, CTotal, PW Trust    6.272E-03   6.272E-03   9.407E-03
:PREDicted DMix, Beta, BLim   1.0128E+00  6.5687E+00  1.0270E+00

Eigenvalues, unscaled except for SY+YY
   #     SY Real        SY Imag          SS             YY         SY+YY Real      SY+YY Imag
   1   1.255851E+00   0.000000E+00   1.263650E+00   3.653891E+00   3.949022E+00   0.000000E+00
   2   3.114126E-01   0.000000E+00   9.664324E-02   1.269008E+00   2.486291E+00   0.000000E+00
   3   8.017800E-02   0.000000E+00   2.680864E-02   7.707801E-02   1.542079E-01   0.000000E+00
   4  -4.790532E-15   0.000000E+00   1.208220E-08   1.965411E-05   2.098122E-05   0.000000E+00
   5   1.095655E-07   0.000000E+00   3.482523E-17   2.863208E-06   2.974879E-06   0.000000E+00
 
:INFO :  Singular value  3.954E+00 Weight  1.000E+00 Projection -1.181E-02
:INFO :  Singular value  2.483E+00 Weight  1.000E+00 Projection -7.664E-02
:INFO :  Singular value  1.542E-01 Weight  1.000E+00 Projection  1.034E+00
:INFO :  Singular value  2.099E-05 Weight  3.290E-03 Projection -1.759E-02
:INFO :  Singular value  2.973E-06 Weight  6.621E-05 Projection  1.959E-04
:RANK :  ACTIVE   3.00/5  =  60.07 % ; YY RANK   3.00/5  =  60.06 %
 
:BLIM :  VZERO Control Off
:TRUST:  Step 7.03E-01  Charge 6.00E-02 (e) CTO  2.00E-01 (e) PW  3.50E-01 (e)
:DTRUS:  Lambda    1.326E-01 Increment    7.276E-12 Iterations   101 DMIX    5.614E-02
:INFOA:  Angle SubSpace to MSR1      0.48
:DIRM :  MEMORY  5/12 SCALE   1.000 RED  0.95 PRED  0.96 NEXT  0.34 
:INFO :  Limited by Atoms F by Step T

:TRAVE:  Charge 5.13E-03 (e) CTO  5.13E-03 (e) PW  5.38E-02 (e)
:DIRP :  |MSR1|= 2.766E-02 |PRATT|= 3.890E-02 ANGLE=   2.4 DEGREES
:DIRQ :  |MSR1|= 2.098E-01 |PRATT|= 2.986E-01 ANGLE=   2.9 DEGREES
:DIRT :  |MSR1|= 2.116E-01 |PRATT|= 3.011E-01 ANGLE=   2.9 DEGREES
:MIX  :   MSD1   REGULARIZATION:  3.65E-04 GREED: 0.08274  LMStep 0.68  0.7027 Step           
     
       CHARGES OF MIXED CHARGE DENSITY
:CTO   : INTERSTITIAL CHARGE =     2.807935
:CPC   : PW Pseudocharge     =     7.760253
:CTO001: CHARGE SPHERE  1    =    56.192065

:NEC03: NUCLEAR AND ELECTRONIC CHARGE     59.00000    59.00000

PW CHANGE     H    K    L      Current       Change    Residue
:PTO001:      0    0    0  5.35441313E-02  1.714E-04  2.667E-04
:PTO002:     -1   -1   -1 -1.47764227E-01 -9.859E-04 -1.394E-03
:PTO003:      0    0   -2  8.41719865E-02  1.214E-05  6.566E-05
:PTO004:      0   -2   -2  6.14122718E-02  1.375E-03  1.941E-03
:PTO005:     -1   -1   -3 -4.69833629E-02  4.932E-04  6.122E-04
:PTO006:     -2   -2   -2  1.07919401E-02 -2.748E-04 -3.839E-04
:PTO007:      0    0   -4 -2.43902683E-04 -5.043E-04 -6.898E-04
:PTO008:     -1   -3   -3  5.87900465E-03  8.366E-05  9.499E-05
:PTO009:      0   -2   -4 -7.53532254E-03 -3.336E-04 -4.331E-04
:PTO010:     -2   -2   -4 -9.07696665E-03 -6.795E-04 -9.417E-04
:PTO011:     -3   -3   -3  2.85419248E-03  3.474E-04  4.878E-04
:PTO012:     -1   -1   -5  8.41658482E-03  9.125E-04  1.263E-03

:ENE  : ********** TOTAL ENERGY IN Ry =       -18472.11735662

 Flat Integration
 New Mode for Coulomb Integral
 Consistent 3/8+Simpson combinations
 Extension of core to zero
 LDM version in phi
 Fifth-order quadrature in outwin


            ---------
:ITE007:  7. ITERATION
            ---------

:NATO :    1 INDEPENDENT AND    1 TOTAL ATOMS IN UNITCELL
       SUBSTANCE: blebleble                                                   

       LATTICE                      = F   
:POT  : POTENTIAL OPTION EX_LDA EC_LDA VX_LDA VC_LDA
:LAT  : LATTICE CONSTANTS=  9.24236  9.24236  9.24236    1.571    1.571    1.571
:VOL  : UNIT CELL VOLUME =     197.37341
       MODE OF CALCULATION IS       = RELA
       NON-SPINPOLARIZED CALCULATION
:IFFT  : FFT-parameters:   72   72   72 Factor: 2.00


   CONVERGENCE PARAMETER FOR PSEUDOCHARGE: NCON=  9
   MAXIMAL VALUE OF RMT(JATOM)*ABSK(NKK) : RK  =29.82719


:VKCOUL :  VK-COUL convergence: 0.166E-06
       ATOMNUMBER=  1 Pr         VCOUL-ZERO =  0.41829E+00
:FIT001: LUSE= 13 SIGMA OF V-XC FIT FOR ATOM  1  0.3509316E-04
:FIT001: LUSE= 13 SIGMA OF V-XC FIT FOR ATOM  1  0.3509316E-04
:DEN  : DENSITY INTEGRAL  =         -7080.40657519   (Ry)
       ELS_POTENTIAL_AT Z=0 and Z=0.5:  -2.67003  -2.67003
       ELS_POTENTIAL_AT Y=0 and Y=0.5:   0.00000   0.00000
:VZERO:v0,v0c,v0x  -3.69445  -2.67003  -1.02443 v5,v5c,v5x  -3.69445  -2.67003  -1.02443
:VZERY:v0,v0c,v0x  -0.77356   0.00000  -0.77356 v5,v5c,v5x  -0.77356   0.00000  -0.77356
:VZERX:v0,v0c,v0x  -0.77356   0.00000  -0.77356 v5,v5c,v5x  -0.77356   0.00000  -0.77356
:LMAX-WF:   10   Non-Spherical LMAX:   4

          ATOMIC SPHERE DEPENDENT PARAMETERS FOR ATOM  Pr        
:e__0001: OVERALL ENERGY PARAMETER IS    0.5422
          OVERALL BASIS SET ON ATOM IS LAPW
:E0_0001: E( 0)=    0.5422
             APW+lo
:E0_0001: E( 0)=   -1.9250   E(BOTTOM)=   -2.306   E(TOP)=   -1.544  4  5   187
             LOCAL ORBITAL
:E1_0001: E( 1)=    0.9422
             APW+lo
:E1_0001: E( 1)=   -0.5360   E(BOTTOM)=   -1.182   E(TOP)=    0.110  3  4   183
             LOCAL ORBITAL
:E3_0001: E( 3)=    0.7320   E(BOTTOM)=    0.593   E(TOP)=    0.871  0  1   119
             APW+lo
:E2_0001: E( 2)=    0.5422   E(BOTTOM)=    0.392   E(TOP)= -200.000  2 -1    86
             APW+lo

       K=   0.00000   0.00000   0.00000            1
:RKM  : MATRIX SIZE   157LOs:  20  RKM= 8.33  WEIGHT= 1.00  PGR:    
       EIGENVALUES ARE:
:EIG00001:      -1.8997546   -0.4941297   -0.4941297   -0.4941297    0.4951207
:EIG00006:       0.7145731    0.7417943    0.7417943    0.7417943    0.7768344
:EIG00011:       0.7768344    0.7768344    0.8768463    0.8768463    0.8768463
:EIG00016:       1.0951218    1.0951218    1.5159291    1.7840531    1.7840531
:EIG00021:       1.7840531    1.8819802
       ********************************************************

:KPT   :      NUMBER OF K-POINTS:   165
:GAP (global)   :    0.0    Ry =     0.0   eV (metal)
         Bandranges (emin - emax) and occupancy:
:BAN00001:   1   -1.899755   -1.869775  2.00000000
:BAN00002:   2   -0.639991   -0.494130  2.00000000
:BAN00003:   3   -0.589929   -0.494130  2.00000000
:BAN00004:   4   -0.549195   -0.494130  2.00000000
:BAN00005:   5    0.495121    0.700052  2.00000000
:BAN00006:   6    0.623047    0.734692  2.00000000
:BAN00007:   7    0.716521    0.750566  1.00000000
:BAN00008:   8    0.736063    0.752154  0.00000000
:BAN00009:   9    0.741794    0.760007  0.00000000
:BAN00010:  10    0.753537    0.776834  0.00000000
:BAN00011:  11    0.756159    0.776834  0.00000000
:BAN00012:  12    0.758725    0.793025  0.00000000
        Energy to separate low and high energystates:    0.44512


:NOE  : NUMBER OF ELECTRONS          =   13.000

:FER  : F E R M I - ENERGY(TETRAH.M.)=   0.7359791097
:GMA  : POTENTIAL AND CHARGE CUT-OFF  12.00 Ry**.5

:POS001: ATOM    1 X,Y,Z = 0.00000 0.00000 0.50000  MULT= 1  ZZ= 59.000  Pr        

       LMMAX  5
       LM=   0 0  4 0  4 4  6 0  6 4

:CHA001: TOTAL VALENCE CHARGE INSIDE SPHERE   1 =  10.2130    (RMT=  2.5000 )
:PCS001: PARTIAL CHARGES SPHERE =  1 S,P,D,F,      D-EG,D-T2G 
:QTL001: 2.0392 5.3383 0.7581 2.0766 0.0000 0.0000 0.0000 0.2728 0.4852 0.0000 0.0000 0.0000
        Q-s-low E-s-low   Q-p-low E-p-low   Q-d-low E-d-low   Q-f-low E-f-low
:EPL001:  1.9254 -1.8754    5.2634 -0.5555    0.0041 -0.5807    0.0013 -0.5813
        Q-s-hi  E-s-hi    Q-p-hi  E-p-hi    Q-d-hi  E-d-hi    Q-f-hi  E-f-hi 
:EPH001:  0.1138  0.6398    0.0749  0.6727    0.7539  0.6688    2.0754  0.7138

:CHA  : TOTAL VALENCE CHARGE INSIDE UNIT CELL =      13.000000

:SUM  : SUM OF EIGENVALUES =          -3.670549188


        1.ATOM      Pr                   14 CORE STATES
:1S 001: 1S               -3066.867777765 Ry
:2S 001: 2S                -492.624647222 Ry
:2PP001: 2P*               -465.723007225 Ry
:2P 001: 2P                -430.325824597 Ry
:3S 001: 3S                -105.720567771 Ry
:3PP001: 3P*                -94.258156777 Ry
:3P 001: 3P                 -87.250475993 Ry
:3DD001: 3D*                -67.176865375 Ry
:3D 001: 3D                 -65.665382345 Ry
:4S 001: 4S                 -20.391895941 Ry
:4PP001: 4P*                -16.098000018 Ry
:4P 001: 4P                 -14.569643820 Ry
:4DD001: 4D*                 -7.500696638 Ry
:4D 001: 4D                  -7.230955915 Ry
:CINT001 Core Integral Atom   1   45.999524

       DENSITY AT NUCLEUS
        JATOM        VALENCE       SEMI-CORE          CORE           TOTAL
:RTO001:   1      655.606751        0.000000   656825.161079   657480.767830
     
       CHARGES OF NEW CHARGE DENSITY
:NTO   : INTERSTITIAL CHARGE =     2.787037
:NPC   : PW Pseudocharge     =     7.765522
:NTO001: CHARGE SPHERE  1    =    56.212486

:NEC01: NUCLEAR AND ELECTRONIC CHARGE     59.00000    58.99952
     
       CHARGES OF OLD CHARGE DENSITY
:OTO   : INTERSTITIAL CHARGE =     2.807935
:OPC   : PW Pseudocharge     =     7.760253
:OTO001: CHARGE SPHERE  1    =    56.192065

:NEC02: NUCLEAR AND ELECTRONIC CHARGE     59.00000    59.00000
     
       CONVERGENCE TEST
:DTO001: DIFFERENCE IN SPHERE  1 =  0.0351842

:DIS  :  CHARGE DISTANCE       ( 0.0351842 for atom    1 spin 1)      0.0351842
 PW Mixed is           47
 
******************************************************
* MULTISECANT MIXING VER9 RELEASE 10.4.0              *
* Standard Mode with controls                        *
* Fixed density scale                                *
* Regularization       1.000E-04                     *
* Trust Upper Limit    5.000E+00                     *
* Max Number of Memory Steps    8                    *
******************************************************
 
:PWTMP   1.3192E+02  1.2500E+02  1.9737E+02
:PLANE:  PW TOTAL      3.3659 DISTAN   1.20E-02  3.56E-01 %
:CHARG:  CLM/ATOM    977.2065 DISTAN   9.32E-02  9.53E-03 %
 
Step History
        DMIX         DMIXT        Red     Pred      Trust     Lambda    MagRel    MagAbs     Beta
  1   3.5000E-02   3.5000E-02 -1.00E+00  1.00E+00 -1.00E+01  1.00E+00  3.50E-02  3.50E-02  1.00E+00
  2   2.5000E-02   2.5000E-02  7.29E-01  1.00E+00 -1.00E+01  1.00E+00  2.50E-02  2.79E-02  1.00E+00
  3   3.5879E-02   3.5879E-02  8.24E-01  1.00E+00 -1.00E+01  5.26E-02  3.59E-02  2.91E-02  1.00E+00
  4   2.9851E-02   2.9851E-02  9.18E-01  6.80E-01  2.77E-01  1.49E+00  1.73E-01  1.16E-01  8.00E-01
  5   7.4628E-02   6.9476E-02  5.18E-01  5.47E-01  3.37E-01  3.40E-01  3.37E-01  2.07E-01  1.00E+00
  6   3.3096E-02   3.3096E-02  9.45E-01  9.64E-01  4.50E-01  9.65E-01  9.77E-02  3.11E-02  1.00E+00
  7   8.2739E-02   5.6140E-02 -1.00E+00  3.39E-01  7.03E-01  1.00E+00  7.03E-01  2.12E-01  1.00E+00
:JACOBIANS    9.834E-01   8.163E-01
  
:NORMS:  1/Froebius, Min, Max, Used   0.7162E+00  0.3989E+00  0.1000E+01  0.7861E+00
:INFO :  Number of Memory Steps    6 Skipping    0
:INFO :  SLambda=    0.8566623035  Max    0.8566623035
:PREDicted Charge, CTotal, PW Trust    3.062E-03   3.062E-03   3.144E-02
:PREDicted DMix, Beta, BLim   1.6025E-03  1.3898E+00  9.7744E-01

Eigenvalues, unscaled except for SY+YY
   #     SY Real        SY Imag          SS             YY         SY+YY Real      SY+YY Imag
   1   2.577626E+00   0.000000E+00   2.593025E+00   4.195740E+00   6.083485E+00   0.000000E+00
   2   4.625710E-01   0.000000E+00   4.666866E-01   1.345984E+00   1.827625E+00   0.000000E+00
   3   1.835129E-01   0.000000E+00   1.819215E-02   4.582513E-01   8.504950E-01   0.000000E+00
   4   1.158435E-06   0.000000E+00   2.612841E-07   1.820908E-05   2.021152E-05   0.000000E+00
   5   2.079778E-08   0.000000E+00   8.719432E-09   5.788053E-06   5.952969E-06   0.000000E+00
   6  -1.793251E-14   0.000000E+00  -3.997853E-17   5.847352E-07   6.885762E-07   0.000000E+00
 
:INFO :  Singular value  6.087E+00 Weight  1.000E+00 Projection  3.110E-02
:INFO :  Singular value  1.827E+00 Weight  1.000E+00 Projection -6.797E-02
:INFO :  Singular value  8.504E-01 Weight  1.000E+00 Projection -1.885E-02
:INFO :  Singular value  2.030E-05 Weight  2.335E-03 Projection  8.643E-03
:INFO :  Singular value  5.930E-06 Weight  1.997E-04 Projection -8.539E-06
:INFO :  Singular value  6.882E-07 Weight  2.690E-06 Projection -6.200E-05
:RANK :  ACTIVE   3.00/6  =  50.04 % ; YY RANK   3.00/6  =  50.03 %
 
:BLIM :  VZERO Control Off
:TRUST:  Step 9.37E-01  Charge 6.00E-02 (e) CTO  2.00E-01 (e) PW  3.50E-01 (e)
:DIRM :  MEMORY  6/8  SCALE   1.000 RED  0.31 PRED  0.34 NEXT  0.29 
:TRAVE:  Charge 3.05E-03 (e) CTO  3.05E-03 (e) PW  3.17E-02 (e)
:DIRP :  |MSR1|= 1.257E-02 |PRATT|= 1.199E-02 ANGLE=  29.3 DEGREES
:DIRQ :  |MSR1|= 8.138E-02 |PRATT|= 9.317E-02 ANGLE=  19.2 DEGREES
:DIRT :  |MSR1|= 8.235E-02 |PRATT|= 9.394E-02 ANGLE=  19.5 DEGREES
:MIX  :   MSD1   REGULARIZATION:  4.20E-04 GREED: 0.03310  Newton 1.00  0.8766                
     
       CHARGES OF MIXED CHARGE DENSITY
:CTO   : INTERSTITIAL CHARGE =     2.806971
:CPC   : PW Pseudocharge     =     7.776454
:CTO001: CHARGE SPHERE  1    =    56.193029

:NEC03: NUCLEAR AND ELECTRONIC CHARGE     59.00000    59.00000

PW CHANGE     H    K    L      Current       Change    Residue
:PTO001:      0    0    0  5.36213301E-02  7.720E-05 -7.003E-05
:PTO002:     -1   -1   -1 -1.48294360E-01 -5.301E-04 -4.543E-04
:PTO003:      0    0   -2  8.42923406E-02  1.204E-04  2.216E-04
:PTO004:      0   -2   -2  6.20518810E-02  6.396E-04  6.111E-04
:PTO005:     -1   -1   -3 -4.69539830E-02  2.938E-05  7.148E-06
:PTO006:     -2   -2   -2  1.07262627E-02 -6.568E-05 -1.165E-04
:PTO007:      0    0   -4 -4.17571734E-04 -1.737E-04 -1.505E-04
:PTO008:     -1   -3   -3  5.88061413E-03  1.609E-06  2.302E-05
:PTO009:      0   -2   -4 -7.63493936E-03 -9.962E-05 -6.692E-05
:PTO010:     -2   -2   -4 -9.33471188E-03 -2.577E-04 -2.645E-04
:PTO011:     -3   -3   -3  2.99016901E-03  1.360E-04  1.467E-04
:PTO012:     -1   -1   -5  8.76900817E-03  3.524E-04  3.195E-04

:ENE  : ********** TOTAL ENERGY IN Ry =       -18472.11728507

 Flat Integration
 New Mode for Coulomb Integral
 Consistent 3/8+Simpson combinations
 Extension of core to zero
 LDM version in phi
 Fifth-order quadrature in outwin


            ---------
:ITE008:  8. ITERATION
            ---------

:NATO :    1 INDEPENDENT AND    1 TOTAL ATOMS IN UNITCELL
       SUBSTANCE: blebleble                                                   

       LATTICE                      = F   
:POT  : POTENTIAL OPTION EX_LDA EC_LDA VX_LDA VC_LDA
:LAT  : LATTICE CONSTANTS=  9.24236  9.24236  9.24236    1.571    1.571    1.571
:VOL  : UNIT CELL VOLUME =     197.37341
       MODE OF CALCULATION IS       = RELA
       NON-SPINPOLARIZED CALCULATION
:IFFT  : FFT-parameters:   72   72   72 Factor: 2.00


   CONVERGENCE PARAMETER FOR PSEUDOCHARGE: NCON=  9
   MAXIMAL VALUE OF RMT(JATOM)*ABSK(NKK) : RK  =29.82719


:VKCOUL :  VK-COUL convergence: 0.203E-06
       ATOMNUMBER=  1 Pr         VCOUL-ZERO =  0.41848E+00
:FIT001: LUSE= 13 SIGMA OF V-XC FIT FOR ATOM  1  0.5219978E-04
:FIT001: LUSE= 13 SIGMA OF V-XC FIT FOR ATOM  1  0.5219978E-04
:DEN  : DENSITY INTEGRAL  =         -7080.68187478   (Ry)
       ELS_POTENTIAL_AT Z=0 and Z=0.5:  -2.67480  -2.67480
       ELS_POTENTIAL_AT Y=0 and Y=0.5:   0.00000   0.00000
:VZERO:v0,v0c,v0x  -3.69748  -2.67480  -1.02268 v5,v5c,v5x  -3.69748  -2.67480  -1.02268
:VZERY:v0,v0c,v0x  -0.77362   0.00000  -0.77362 v5,v5c,v5x  -0.77362   0.00000  -0.77362
:VZERX:v0,v0c,v0x  -0.77362   0.00000  -0.77362 v5,v5c,v5x  -0.77362   0.00000  -0.77362
:LMAX-WF:   10   Non-Spherical LMAX:   4

          ATOMIC SPHERE DEPENDENT PARAMETERS FOR ATOM  Pr        
:e__0001: OVERALL ENERGY PARAMETER IS    0.5380
          OVERALL BASIS SET ON ATOM IS LAPW
:E0_0001: E( 0)=    0.5380
             APW+lo
:E0_0001: E( 0)=   -1.9248   E(BOTTOM)=   -2.305   E(TOP)=   -1.544  4  5   189
             LOCAL ORBITAL
:E1_0001: E( 1)=    0.9380
             APW+lo
:E1_0001: E( 1)=   -0.5359   E(BOTTOM)=   -1.182   E(TOP)=    0.111  3  4   183
             LOCAL ORBITAL
:E3_0001: E( 3)=    0.7339   E(BOTTOM)=    0.594   E(TOP)=    0.873  0  1   118
             APW+lo
:E2_0001: E( 2)=    0.5380   E(BOTTOM)=    0.392   E(TOP)= -200.000  2 -1    83
             APW+lo

       K=   0.00000   0.00000   0.00000            1
:RKM  : MATRIX SIZE   157LOs:  20  RKM= 8.33  WEIGHT= 1.00  PGR:    
       EIGENVALUES ARE:
:EIG00001:      -1.8995509   -0.4940134   -0.4940134   -0.4940134    0.4953344
:EIG00006:       0.7163672    0.7435341    0.7435341    0.7435341    0.7787490
:EIG00011:       0.7787490    0.7787490    0.8771909    0.8771909    0.8771909
:EIG00016:       1.0951804    1.0951804    1.5167396    1.7843040    1.7843040
:EIG00021:       1.7843040    1.8814900
       ********************************************************

:KPT   :      NUMBER OF K-POINTS:   165
:GAP (global)   :    0.0    Ry =     0.0   eV (metal)
         Bandranges (emin - emax) and occupancy:
:BAN00001:   1   -1.899551   -1.869568  2.00000000
:BAN00002:   2   -0.639863   -0.494013  2.00000000
:BAN00003:   3   -0.589799   -0.494013  2.00000000
:BAN00004:   4   -0.549073   -0.494013  2.00000000
:BAN00005:   5    0.495334    0.700761  2.00000000
:BAN00006:   6    0.623397    0.736407  2.00000000
:BAN00007:   7    0.717794    0.752389  1.00001125
:BAN00008:   8    0.737654    0.753920  0.00000000
:BAN00009:   9    0.743534    0.761750  0.00000000
:BAN00010:  10    0.755295    0.778749  0.00000000
:BAN00011:  11    0.757932    0.778749  0.00000000
:BAN00012:  12    0.760552    0.794015  0.00000000
        Energy to separate low and high energystates:    0.44533


:NOE  : NUMBER OF ELECTRONS          =   13.000

:FER  : F E R M I - ENERGY(TETRAH.M.)=   0.7375993318
:GMA  : POTENTIAL AND CHARGE CUT-OFF  12.00 Ry**.5

:POS001: ATOM    1 X,Y,Z = 0.00000 0.00000 0.50000  MULT= 1  ZZ= 59.000  Pr        

       LMMAX  5
       LM=   0 0  4 0  4 4  6 0  6 4

:CHA001: TOTAL VALENCE CHARGE INSIDE SPHERE   1 =  10.1998    (RMT=  2.5000 )
:PCS001: PARTIAL CHARGES SPHERE =  1 S,P,D,F,      D-EG,D-T2G 
:QTL001: 2.0395 5.3392 0.7651 2.0552 0.0000 0.0000 0.0000 0.2754 0.4896 0.0000 0.0000 0.0000
        Q-s-low E-s-low   Q-p-low E-p-low   Q-d-low E-d-low   Q-f-low E-f-low
:EPL001:  1.9254 -1.8752    5.2634 -0.5554    0.0041 -0.5805    0.0013 -0.5811
        Q-s-hi  E-s-hi    Q-p-hi  E-p-hi    Q-d-hi  E-d-hi    Q-f-hi  E-f-hi 
:EPH001:  0.1141  0.6404    0.0758  0.6738    0.7609  0.6697    2.0539  0.7152

:CHA  : TOTAL VALENCE CHARGE INSIDE UNIT CELL =      13.000011

:SUM  : SUM OF EIGENVALUES =          -3.665116596


        1.ATOM      Pr                   14 CORE STATES
:1S 001: 1S               -3066.861294671 Ry
:2S 001: 2S                -492.616526140 Ry
:2PP001: 2P*               -465.714978515 Ry
:2P 001: 2P                -430.317738241 Ry
:3S 001: 3S                -105.713380343 Ry
:3PP001: 3P*                -94.250912356 Ry
:3P 001: 3P                 -87.243312661 Ry
:3DD001: 3D*                -67.169414467 Ry
:3D 001: 3D                 -65.657958577 Ry
:4S 001: 4S                 -20.387953766 Ry
:4PP001: 4P*                -16.094219721 Ry
:4P 001: 4P                 -14.566136074 Ry
:4DD001: 4D*                 -7.497553636 Ry
:4D 001: 4D                  -7.227895590 Ry
:CINT001 Core Integral Atom   1   45.999522

       DENSITY AT NUCLEUS
        JATOM        VALENCE       SEMI-CORE          CORE           TOTAL
:RTO001:   1      655.661803        0.000000   656824.747673   657480.409476
     
       CHARGES OF NEW CHARGE DENSITY
:NTO   : INTERSTITIAL CHARGE =     2.800177
:NPC   : PW Pseudocharge     =     7.773122
:NTO001: CHARGE SPHERE  1    =    56.199356

:NEC01: NUCLEAR AND ELECTRONIC CHARGE     59.00000    58.99953
     
       CHARGES OF OLD CHARGE DENSITY
:OTO   : INTERSTITIAL CHARGE =     2.806971
:OPC   : PW Pseudocharge     =     7.776454
:OTO001: CHARGE SPHERE  1    =    56.193029

:NEC02: NUCLEAR AND ELECTRONIC CHARGE     59.00000    59.00000
     
       CONVERGENCE TEST
:DTO001: DIFFERENCE IN SPHERE  1 =  0.0212159

:DIS  :  CHARGE DISTANCE       ( 0.0212159 for atom    1 spin 1)      0.0212159
 PW Mixed is           47
 
******************************************************
* MULTISECANT MIXING VER9 RELEASE 10.4.0              *
* Slow Mode, cautious                                *
* Fixed density scale                                *
* Regularization       1.000E-04                     *
* Step Trust Radius    0.75000                       *
* Trust Upper Limit    2.000E+00                     *
* Max Number of Memory Steps   12                    *
******************************************************
 
:PWTMP   1.3192E+02  1.2500E+02  1.9737E+02
:PLANE:  PW TOTAL      3.3748 DISTAN   3.04E-03  9.01E-02 %
:CHARG:  CLM/ATOM    977.1977 DISTAN   2.57E-02  2.63E-03 %
 
Step History
        DMIX         DMIXT        Red     Pred      Trust     Lambda    MagRel    MagAbs     Beta
  1   3.5000E-02   3.5000E-02 -1.00E+00  1.00E+00 -1.00E+01  1.00E+00  3.50E-02  3.50E-02  1.00E+00
  2   2.5000E-02   2.5000E-02  7.29E-01  1.00E+00 -1.00E+01  1.00E+00  2.50E-02  2.79E-02  1.00E+00
  3   3.5879E-02   3.5879E-02  8.24E-01  1.00E+00 -1.00E+01  5.26E-02  3.59E-02  2.91E-02  1.00E+00
  4   2.9851E-02   2.9851E-02  9.18E-01  6.80E-01  2.77E-01  1.49E+00  1.73E-01  1.16E-01  8.00E-01
  5   7.4628E-02   6.9476E-02  5.18E-01  5.47E-01  3.37E-01  3.40E-01  3.37E-01  2.07E-01  1.00E+00
  6   3.3096E-02   3.3096E-02  9.45E-01  9.64E-01  4.50E-01  9.65E-01  9.77E-02  3.11E-02  1.00E+00
  7   8.2739E-02   5.6140E-02  3.12E-01  3.39E-01  7.03E-01  8.57E-01  7.03E-01  2.12E-01  1.00E+00
  8   3.3096E-02   3.3096E-02 -1.00E+00  2.85E-01  9.37E-01  1.00E+00  8.77E-01  8.23E-02  1.00E+00
:JACOBIANS    9.990E-01   9.423E-01
  
:NORMS:  1/Froebius, Min, Max, Used   0.7773E+00  0.4093E+00  0.1001E+01  0.9201E+00
:INFO :  Number of Memory Steps    7 Skipping    0
:INFO :  SLambda=    1.2849934552  Max    1.2849934552
:PREDicted Charge, CTotal, PW Trust    8.615E-04   8.615E-04   9.874E-03
:PREDicted DMix, Beta, BLim   5.2775E-02  1.0224E+00  8.9687E-01

Eigenvalues, unscaled except for SY+YY
   #     SY Real        SY Imag          SS             YY         SY+YY Real      SY+YY Imag
   1   3.722960E+00   0.000000E+00   3.736169E+00   4.413327E+00   8.980444E+00   0.000000E+00
   2   4.685660E-01   0.000000E+00   4.725130E-01   2.130925E+00   2.635397E+00   0.000000E+00
   3   2.067004E-01   0.000000E+00   2.063962E-02   4.556300E-01   1.035736E+00   0.000000E+00
   4   4.515613E-05   0.000000E+00   2.764133E-05   1.008724E-04   1.544624E-04   0.000000E+00
   5   4.379107E-07   0.000000E+00   2.391325E-08   1.419663E-05   1.573670E-05   0.000000E+00
   6  -5.814293E-09   0.000000E+00   1.709009E-09   2.885449E-06   3.622192E-06   0.000000E+00
   7   7.180330E-15   0.000000E+00  -6.102828E-17   2.575885E-07   2.730400E-07   0.000000E+00
 
:INFO :  Singular value  8.988E+00 Weight  1.000E+00 Projection  8.238E-04
:INFO :  Singular value  2.634E+00 Weight  1.000E+00 Projection  2.362E-03
:INFO :  Singular value  1.035E+00 Weight  1.000E+00 Projection -8.298E-04
:INFO :  Singular value  1.548E-04 Weight  1.096E-01 Projection  2.650E-01
:INFO :  Singular value  1.586E-05 Weight  1.289E-03 Projection  2.343E-03
:INFO :  Singular value  3.590E-06 Weight  6.618E-05 Projection  4.309E-04
:INFO :  Singular value  2.728E-07 Weight  3.819E-07 Projection -1.773E-06
:RANK :  ACTIVE   3.11/7  =  44.44 % ; YY RANK   3.05/7  =  43.58 %
 
:BLIM :  VZERO Control Off
:TRUST:  Step 1.17E+00  Charge 4.80E-02 (e) CTO  1.60E-01 (e) PW  2.80E-01 (e)
:DIRM :  MEMORY  7/12 SCALE   1.000 RED  0.28 PRED  0.29 NEXT  0.90 
:TRAVE:  Charge 1.69E-03 (e) CTO  1.69E-03 (e) PW  1.59E-02 (e)
:DIRP :  |MSR1|= 3.145E-04 |PRATT|= 3.040E-03 ANGLE=  59.9 DEGREES
:DIRQ :  |MSR1|= 3.368E-03 |PRATT|= 2.573E-02 ANGLE=  39.6 DEGREES
:DIRT :  |MSR1|= 3.383E-03 |PRATT|= 2.591E-02 ANGLE=  39.8 DEGREES
:MIX  :   MSE1   REGULARIZATION:  4.41E-04 GREED: 0.05039  Newton 1.00  0.1306                
     
       CHARGES OF MIXED CHARGE DENSITY
:CTO   : INTERSTITIAL CHARGE =     2.806639
:CPC   : PW Pseudocharge     =     7.776551
:CTO001: CHARGE SPHERE  1    =    56.193361

:NEC03: NUCLEAR AND ELECTRONIC CHARGE     59.00000    59.00000

PW CHANGE     H    K    L      Current       Change    Residue
:PTO001:      0    0    0  5.36201398E-02 -1.190E-06 -4.237E-05
:PTO002:     -1   -1   -1 -1.48295076E-01 -7.155E-07  6.201E-05
:PTO003:      0    0   -2  8.43012975E-02  8.957E-06  1.288E-04
:PTO004:      0   -2   -2  6.20644723E-02  1.259E-05  4.280E-06
:PTO005:     -1   -1   -3 -4.69449668E-02  9.016E-06 -2.495E-05
:PTO006:     -2   -2   -2  1.07157072E-02 -1.056E-05 -6.457E-05
:PTO007:      0    0   -4 -4.21843148E-04 -4.271E-06  2.241E-05
[...]
 Extension of core to zero
 LDM version in phi
 Fifth-order quadrature in outwin


            ---------
:ITE014: 14. ITERATION
            ---------

:NATO :    1 INDEPENDENT AND    1 TOTAL ATOMS IN UNITCELL
       SUBSTANCE: blebleble                                                   

       LATTICE                      = F   
:POT  : POTENTIAL OPTION EX_LDA EC_LDA VX_LDA VC_LDA
:LAT  : LATTICE CONSTANTS=  9.24236  9.24236  9.24236    1.571    1.571    1.571
:VOL  : UNIT CELL VOLUME =     197.37341
       MODE OF CALCULATION IS       = RELA
       NON-SPINPOLARIZED CALCULATION
:IFFT  : FFT-parameters:   72   72   72 Factor: 2.00


   CONVERGENCE PARAMETER FOR PSEUDOCHARGE: NCON=  9
   MAXIMAL VALUE OF RMT(JATOM)*ABSK(NKK) : RK  =29.82719


:VKCOUL :  VK-COUL convergence: 0.206E-06
       ATOMNUMBER=  1 Pr         VCOUL-ZERO =  0.41805E+00
:FIT001: LUSE= 13 SIGMA OF V-XC FIT FOR ATOM  1  0.5152524E-04
:FIT001: LUSE= 13 SIGMA OF V-XC FIT FOR ATOM  1  0.5152524E-04
:DEN  : DENSITY INTEGRAL  =         -7080.48976294   (Ry)
       ELS_POTENTIAL_AT Z=0 and Z=0.5:  -2.67123  -2.67123
       ELS_POTENTIAL_AT Y=0 and Y=0.5:   0.00000   0.00000
:VZERO:v0,v0c,v0x  -3.69472  -2.67123  -1.02348 v5,v5c,v5x  -3.69472  -2.67123  -1.02348
:VZERY:v0,v0c,v0x  -0.77343   0.00000  -0.77343 v5,v5c,v5x  -0.77343   0.00000  -0.77343
:VZERX:v0,v0c,v0x  -0.77343   0.00000  -0.77343 v5,v5c,v5x  -0.77343   0.00000  -0.77343
:LMAX-WF:   10   Non-Spherical LMAX:   4

          ATOMIC SPHERE DEPENDENT PARAMETERS FOR ATOM  Pr        
:e__0001: OVERALL ENERGY PARAMETER IS    0.5377
          OVERALL BASIS SET ON ATOM IS LAPW
:E0_0001: E( 0)=    0.5377
             APW+lo
:E0_0001: E( 0)=   -1.9238   E(BOTTOM)=   -2.305   E(TOP)=   -1.543  4  5   186
             LOCAL ORBITAL
:E1_0001: E( 1)=    0.9377
             APW+lo
:E1_0001: E( 1)=   -0.5350   E(BOTTOM)=   -1.182   E(TOP)=    0.112  3  4   186
             LOCAL ORBITAL
:E3_0001: E( 3)=    0.7340   E(BOTTOM)=    0.595   E(TOP)=    0.873  0  1   119
             APW+lo
:E2_0001: E( 2)=    0.5377   E(BOTTOM)=    0.393   E(TOP)= -200.000  2 -1    83
             APW+lo

       K=   0.00000   0.00000   0.00000            1
:RKM  : MATRIX SIZE   157LOs:  20  RKM= 8.33  WEIGHT= 1.00  PGR:    
       EIGENVALUES ARE:
:EIG00001:      -1.8986438   -0.4932375   -0.4932375   -0.4932375    0.4951228
:EIG00006:       0.7163120    0.7437628    0.7437628    0.7437628    0.7788548
:EIG00011:       0.7788548    0.7788548    0.8772388    0.8772388    0.8772388
:EIG00016:       1.0955206    1.0955206    1.5160683    1.7840395    1.7840395
:EIG00021:       1.7840395    1.8811561
       ********************************************************

:KPT   :      NUMBER OF K-POINTS:   165
:GAP (global)   :    0.0    Ry =     0.0   eV (metal)
         Bandranges (emin - emax) and occupancy:
:BAN00001:   1   -1.898644   -1.868623  2.00000000
:BAN00002:   2   -0.639266   -0.493238  2.00000000
:BAN00003:   3   -0.589144   -0.493238  2.00000000
:BAN00004:   4   -0.548365   -0.493238  2.00000000
:BAN00005:   5    0.495123    0.700868  2.00000000
:BAN00006:   6    0.623238    0.736524  2.00000000
:BAN00007:   7    0.717838    0.752505  1.00000000
:BAN00008:   8    0.737771    0.754096  0.00000000
:BAN00009:   9    0.743763    0.761868  0.00000000
:BAN00010:  10    0.755507    0.778855  0.00000000
:BAN00011:  11    0.758069    0.778855  0.00000000
:BAN00012:  12    0.760745    0.794157  0.00000000
        Energy to separate low and high energystates:    0.44512


:NOE  : NUMBER OF ELECTRONS          =   13.000

:FER  : F E R M I - ENERGY(TETRAH.M.)=   0.7377214900
:GMA  : POTENTIAL AND CHARGE CUT-OFF  12.00 Ry**.5

:POS001: ATOM    1 X,Y,Z = 0.00000 0.00000 0.50000  MULT= 1  ZZ= 59.000  Pr        

       LMMAX  5
       LM=   0 0  4 0  4 4  6 0  6 4

:CHA001: TOTAL VALENCE CHARGE INSIDE SPHERE   1 =  10.1972    (RMT=  2.5000 )
:PCS001: PARTIAL CHARGES SPHERE =  1 S,P,D,F,      D-EG,D-T2G 
:QTL001: 2.0395 5.3387 0.7652 2.0529 0.0000 0.0000 0.0000 0.2754 0.4899 0.0000 0.0000 0.0000
        Q-s-low E-s-low   Q-p-low E-p-low   Q-d-low E-d-low   Q-f-low E-f-low
:EPL001:  1.9253 -1.8742    5.2626 -0.5547    0.0042 -0.5798    0.0013 -0.5804
        Q-s-hi  E-s-hi    Q-p-hi  E-p-hi    Q-d-hi  E-d-hi    Q-f-hi  E-f-hi 
:EPH001:  0.1142  0.6403    0.0761  0.6738    0.7611  0.6697    2.0516  0.7153

:CHA  : TOTAL VALENCE CHARGE INSIDE UNIT CELL =      13.000000

:SUM  : SUM OF EIGENVALUES =          -3.658998765


        1.ATOM      Pr                   14 CORE STATES
:1S 001: 1S               -3066.869773640 Ry
:2S 001: 2S                -492.624498147 Ry
:2PP001: 2P*               -465.723136881 Ry
:2P 001: 2P                -430.325831287 Ry
:3S 001: 3S                -105.718814525 Ry
:3PP001: 3P*                -94.256493340 Ry
:3P 001: 3P                 -87.248723547 Ry
:3DD001: 3D*                -67.175280936 Ry
:3D 001: 3D                 -65.663768915 Ry
:4S 001: 4S                 -20.389236828 Ry
:4PP001: 4P*                -16.095379509 Ry
:4P 001: 4P                 -14.567056399 Ry
:4DD001: 4D*                 -7.498201003 Ry
:4D 001: 4D                  -7.228474362 Ry
:CINT001 Core Integral Atom   1   45.999523

       DENSITY AT NUCLEUS
        JATOM        VALENCE       SEMI-CORE          CORE           TOTAL
:RTO001:   1      655.599587        0.000000   656825.653174   657481.252761
     
       CHARGES OF NEW CHARGE DENSITY
:NTO   : INTERSTITIAL CHARGE =     2.802766
:NPC   : PW Pseudocharge     =     7.772783
:NTO001: CHARGE SPHERE  1    =    56.196756

:NEC01: NUCLEAR AND ELECTRONIC CHARGE     59.00000    58.99952
     
       CHARGES OF OLD CHARGE DENSITY
:OTO   : INTERSTITIAL CHARGE =     2.803237
:OPC   : PW Pseudocharge     =     7.774108
:OTO001: CHARGE SPHERE  1    =    56.196763

:NEC02: NUCLEAR AND ELECTRONIC CHARGE     59.00000    59.00000
     
       CONVERGENCE TEST
:DTO001: DIFFERENCE IN SPHERE  1 =  0.0000254

:DIS  :  CHARGE DISTANCE       ( 0.0000254 for atom    1 spin 1)      0.0000254
 PW Mixed is           47
 
******************************************************
* MULTISECANT MIXING VER9 RELEASE 10.4.0              *
* Standard Mode with controls                        *
* Fixed density scale                                *
* Regularization       1.000E-04                     *
* Trust Upper Limit    5.000E+00                     *
* Max Number of Memory Steps    8                    *
******************************************************
 
:PWTMP   1.3192E+02  1.2500E+02  1.9737E+02
:PLANE:  PW TOTAL      3.3738 DISTAN   8.50E-06  2.52E-04 %
:CHARG:  CLM/ATOM    977.1957 DISTAN   3.15E-05  3.23E-06 %
 
Step History
        DMIX         DMIXT        Red     Pred      Trust     Lambda    MagRel    MagAbs     Beta
  6   3.3096E-02   3.3096E-02  9.45E-01  9.64E-01  4.50E-01  9.65E-01  9.77E-02  3.11E-02  1.00E+00
  7   8.2739E-02   5.6140E-02  3.12E-01  3.39E-01  7.03E-01  8.57E-01  7.03E-01  2.12E-01  1.00E+00
  8   3.3096E-02   3.3096E-02  2.76E-01  2.85E-01  9.37E-01  1.28E+00  8.77E-01  8.23E-02  1.00E+00
  9   5.0386E-02   5.0386E-02  8.48E-01  8.99E-01  1.17E+00  1.49E+00  1.31E-01  3.38E-03  1.00E+00
 10   1.2596E-01   1.2596E-01  2.79E-01  3.02E-01  1.38E+00  1.46E+00  6.72E-01  1.48E-02  1.00E+00
 11   5.3203E-02   5.3203E-02  8.45E-01  8.89E-01  1.84E+00  9.85E-01  1.48E-01  9.07E-04  1.00E+00
 12   1.3301E-01   1.3301E-01  1.17E-01  1.49E-01  2.18E+00  1.30E+00  9.07E-01  4.69E-03  1.00E+00
 13   5.3203E-02   5.3203E-02  7.74E-01  8.23E-01  3.53E+00  1.29E+00  2.82E-01  1.71E-04  9.85E-01
 14   1.3301E-01   1.3301E-01 -1.00E+00  7.61E-02  4.56E+00  1.00E+00  8.47E-01  3.98E-04  1.00E+00
:JACOBIANS    7.328E-01   3.124E+00
  
:NORMS:  1/Froebius, Min, Max, Used   0.8450E+00  0.7019E+00  0.1010E+01  0.9690E+00
:INFO :  Number of Memory Steps    8 Skipping    5
:INFO :  SLambda=    0.8743262597  Max    0.8743262597
:PREDicted Charge, CTotal, PW Trust    4.678E-05   4.678E-05   3.431E-05
:PREDicted DMix, Beta, BLim   3.8246E-02  1.0148E+00  8.6074E-01

Eigenvalues, unscaled except for SY+YY
   #     SY Real        SY Imag          SS             YY         SY+YY Real      SY+YY Imag
   1   2.307422E+00   0.000000E+00   2.274875E+00   2.422973E+00   4.417091E+00   0.000000E+00
   2   1.714485E+00   0.000000E+00   1.630648E+00   1.950627E+00   3.433374E+00   0.000000E+00
   3   1.308768E+00   0.000000E+00   1.139320E+00   1.733480E+00   2.877350E+00   0.000000E+00
   4   1.029763E+00   0.000000E+00   6.645269E-01   1.518655E+00   2.438276E+00   0.000000E+00
   5   3.642453E-02   0.000000E+00   3.321078E-03   3.740818E-01   4.266705E-01   0.000000E+00
   6   1.854309E-04   0.000000E+00   1.649825E-04   1.839992E-04   3.450241E-04   0.000000E+00
   7   4.210554E-09   0.000000E+00   5.434408E-08   5.537049E-08   3.452081E-08   0.000000E+00
   8   5.427790E-08   0.000000E+00   8.457670E-10   3.056302E-08   1.033658E-07   0.000000E+00
 
:INFO :  Singular value  4.421E+00 Weight  1.000E+00 Projection  5.545E-07
:INFO :  Singular value  3.453E+00 Weight  1.000E+00 Projection -2.556E-06
:INFO :  Singular value  2.868E+00 Weight  1.000E+00 Projection -3.258E-06
:INFO :  Singular value  2.433E+00 Weight  1.000E+00 Projection  1.566E-06
:INFO :  Singular value  4.261E-01 Weight  1.000E+00 Projection  2.115E-05
:INFO :  Singular value  3.450E-04 Weight  6.697E-01 Projection -6.638E-05
:INFO :  Singular value  1.035E-07 Weight  1.826E-07 Projection -2.169E-08
:INFO :  Singular value  3.446E-08 Weight  2.023E-08 Projection  8.610E-10
:RANK :  ACTIVE   5.67/8  =  70.87 % ; YY RANK   5.37/8  =  67.07 %
 
:BLIM :  VZERO Control Off
:TRUST:  Step 1.73E+01  Charge 1.18E-02 (e) CTO  3.93E-02 (e) PW  6.88E-02 (e)
:DIRM :  MEMORY  8/8  SCALE   1.000 RED  0.07 PRED  0.08 NEXT  0.91 
:TRAVE:  Charge 1.01E-04 (e) CTO  1.01E-04 (e) PW  3.40E-04 (e)
:DIRP :  |MSR1|= 1.339E-06 |PRATT|= 8.505E-06 ANGLE=  24.7 DEGREES
:DIRQ :  |MSR1|= 6.780E-06 |PRATT|= 3.154E-05 ANGLE=  54.1 DEGREES
:DIRT :  |MSR1|= 6.911E-06 |PRATT|= 3.267E-05 ANGLE=  53.0 DEGREES
:MIX  :   MSD1   REGULARIZATION:  2.42E-04 GREED: 0.07174  Newton 1.00  0.2116                
     
       CHARGES OF MIXED CHARGE DENSITY
:CTO   : INTERSTITIAL CHARGE =     2.803238
:CPC   : PW Pseudocharge     =     7.774108
:CTO001: CHARGE SPHERE  1    =    56.196762

:NEC03: NUCLEAR AND ELECTRONIC CHARGE     59.00000    59.00000

PW CHANGE     H    K    L      Current       Change    Residue
:PTO001:      0    0    0  5.35905288E-02 -4.907E-11  3.222E-08
:PTO002:     -1   -1   -1 -1.48201603E-01  8.294E-09 -1.450E-07
:PTO003:      0    0   -2  8.43838551E-02 -6.332E-08 -4.407E-07
:PTO004:      0   -2   -2  6.20468432E-02 -9.620E-09  2.017E-08
:PTO005:     -1   -1   -3 -4.69503402E-02 -5.303E-09 -5.918E-08
:PTO006:     -2   -2   -2  1.06599359E-02  7.266E-09  6.647E-08
:PTO007:      0    0   -4 -4.02329370E-04  4.978E-09  2.848E-08
:PTO008:     -1   -3   -3  5.90042035E-03 -5.312E-08 -2.650E-07
:PTO009:      0   -2   -4 -7.60101300E-03  3.893E-08  1.855E-07
:PTO010:     -2   -2   -4 -9.34350553E-03  4.212E-08  1.870E-07
:PTO011:     -3   -3   -3  3.00272382E-03 -1.375E-08 -5.801E-08
:PTO012:     -1   -1   -5  8.73754662E-03 -2.821E-08 -1.279E-07

:ENE  : ********** TOTAL ENERGY IN Ry =       -18472.11725979


:LABEL1: Calculations in /home/ykent/GWIEN/example/Pr/V8/case
:LABEL2: on didymium-2.cmpgroup.ameslab.gov at Wed Jul  8 16:10:11 CDT 2020
:LABEL3: using WIEN2k_19.1 (Release 25/6/2019) in /home/ykent/opt/src/WIEN2k_19.1
:LABEL4: using the command: run_lapw -cc 0.0001
 Flat Integration
 New Mode for Coulomb Integral
 Consistent 3/8+Simpson combinations
 Extension of core to zero
 LDM version in phi
 Fifth-order quadrature in outwin


            ---------
:ITE015: 15. ITERATION
            ---------

:NATO :    1 INDEPENDENT AND    1 TOTAL ATOMS IN UNITCELL
       SUBSTANCE: blebleble                                                   

       LATTICE                      = F   
:POT  : POTENTIAL OPTION EX_LDA EC_LDA VX_LDA VC_LDA
:LAT  : LATTICE CONSTANTS=  9.24236  9.24236  9.24236    1.571    1.571    1.571
:VOL  : UNIT CELL VOLUME =     197.37341
       MODE OF CALCULATION IS       = RELA
       NON-SPINPOLARIZED CALCULATION
:IFFT  : FFT-parameters:   72   72   72 Factor: 2.00


   CONVERGENCE PARAMETER FOR PSEUDOCHARGE: NCON=  9
   MAXIMAL VALUE OF RMT(JATOM)*ABSK(NKK) : RK  =29.82719


:VKCOUL :  VK-COUL convergence: 0.206E-06
       ATOMNUMBER=  1 Pr         VCOUL-ZERO =  0.41805E+00
:FIT001: LUSE= 13 SIGMA OF V-XC FIT FOR ATOM  1  0.5152598E-04
:FIT001: LUSE= 13 SIGMA OF V-XC FIT FOR ATOM  1  0.5152598E-04
:DEN  : DENSITY INTEGRAL  =         -7080.48978408   (Ry)
       ELS_POTENTIAL_AT Z=0 and Z=0.5:  -2.67123  -2.67123
       ELS_POTENTIAL_AT Y=0 and Y=0.5:   0.00000   0.00000
:VZERO:v0,v0c,v0x  -3.69472  -2.67123  -1.02348 v5,v5c,v5x  -3.69472  -2.67123  -1.02348
:VZERY:v0,v0c,v0x  -0.77343   0.00000  -0.77343 v5,v5c,v5x  -0.77343   0.00000  -0.77343
:VZERX:v0,v0c,v0x  -0.77343   0.00000  -0.77343 v5,v5c,v5x  -0.77343   0.00000  -0.77343
:LMAX-WF:   10   Non-Spherical LMAX:   4

          ATOMIC SPHERE DEPENDENT PARAMETERS FOR ATOM  Pr        
:e__0001: OVERALL ENERGY PARAMETER IS    0.5377
          OVERALL BASIS SET ON ATOM IS LAPW
:E0_0001: E( 0)=    0.5377
             APW+lo
:E0_0001: E( 0)=   -1.9238   E(BOTTOM)=   -2.305   E(TOP)=   -1.543  4  5   188
             LOCAL ORBITAL
:E1_0001: E( 1)=    0.9377
             APW+lo
:E1_0001: E( 1)=   -0.5350   E(BOTTOM)=   -1.182   E(TOP)=    0.112  3  4   188
             LOCAL ORBITAL
:E3_0001: E( 3)=    0.7340   E(BOTTOM)=    0.595   E(TOP)=    0.873  0  1   123
             APW+lo
:E2_0001: E( 2)=    0.5377   E(BOTTOM)=    0.393   E(TOP)= -200.000  2 -1    85
             APW+lo

       K=   0.00000   0.00000   0.00000            1
:RKM  : MATRIX SIZE   157LOs:  20  RKM= 8.33  WEIGHT= 1.00  PGR:    
       EIGENVALUES ARE:
:EIG00001:      -1.8986437   -0.4932375   -0.4932375   -0.4932375    0.4951229
:EIG00006:       0.7163123    0.7437630    0.7437630    0.7437630    0.7788551
:EIG00011:       0.7788551    0.7788551    0.8772389    0.8772389    0.8772389
:EIG00016:       1.0955206    1.0955206    1.5160685    1.7840395    1.7840395
:EIG00021:       1.7840395    1.8811561
       ********************************************************

:KPT   :      NUMBER OF K-POINTS:   165
:GAP (global)   :    0.0    Ry =     0.0   eV (metal)
         Bandranges (emin - emax) and occupancy:
:BAN00001:   1   -1.898644   -1.868623  2.00000000
:BAN00002:   2   -0.639266   -0.493237  2.00000000
:BAN00003:   3   -0.589144   -0.493237  2.00000000
:BAN00004:   4   -0.548365   -0.493237  2.00000000
:BAN00005:   5    0.495123    0.700868  2.00000000
:BAN00006:   6    0.623238    0.736524  2.00000000
:BAN00007:   7    0.717839    0.752506  1.00000000
:BAN00008:   8    0.737772    0.754096  0.00000000
:BAN00009:   9    0.743763    0.761868  0.00000000
:BAN00010:  10    0.755507    0.778855  0.00000000
:BAN00011:  11    0.758069    0.778855  0.00000000
:BAN00012:  12    0.760745    0.794157  0.00000000
        Energy to separate low and high energystates:    0.44512


:NOE  : NUMBER OF ELECTRONS          =   13.000

:FER  : F E R M I - ENERGY(TETRAH.M.)=   0.7377217358
:GMA  : POTENTIAL AND CHARGE CUT-OFF  12.00 Ry**.5

:POS001: ATOM    1 X,Y,Z = 0.00000 0.00000 0.50000  MULT= 1  ZZ= 59.000  Pr        

       LMMAX  5
       LM=   0 0  4 0  4 4  6 0  6 4

:CHA001: TOTAL VALENCE CHARGE INSIDE SPHERE   1 =  10.1972    (RMT=  2.5000 )
:PCS001: PARTIAL CHARGES SPHERE =  1 S,P,D,F,      D-EG,D-T2G 
:QTL001: 2.0395 5.3387 0.7652 2.0529 0.0000 0.0000 0.0000 0.2754 0.4899 0.0000 0.0000 0.0000
        Q-s-low E-s-low   Q-p-low E-p-low   Q-d-low E-d-low   Q-f-low E-f-low
:EPL001:  1.9253 -1.8742    5.2626 -0.5547    0.0042 -0.5798    0.0013 -0.5804
        Q-s-hi  E-s-hi    Q-p-hi  E-p-hi    Q-d-hi  E-d-hi    Q-f-hi  E-f-hi 
:EPH001:  0.1142  0.6403    0.0761  0.6738    0.7611  0.6697    2.0516  0.7153

:CHA  : TOTAL VALENCE CHARGE INSIDE UNIT CELL =      13.000000

:SUM  : SUM OF EIGENVALUES =          -3.658997610


        1.ATOM      Pr                   14 CORE STATES
:1S 001: 1S               -3066.869774212 Ry
:2S 001: 2S                -492.624498113 Ry
:2PP001: 2P*               -465.723136987 Ry
:2P 001: 2P                -430.325831342 Ry
:3S 001: 3S                -105.718813703 Ry
:3PP001: 3P*                -94.256492552 Ry
:3P 001: 3P                 -87.248722738 Ry
:3DD001: 3D*                -67.175280196 Ry
:3D 001: 3D                 -65.663768165 Ry
:4S 001: 4S                 -20.389236323 Ry
:4PP001: 4P*                -16.095379030 Ry
:4P 001: 4P                 -14.567055956 Ry
:4DD001: 4D*                 -7.498200612 Ry
:4D 001: 4D                  -7.228473980 Ry
:CINT001 Core Integral Atom   1   45.999523

       DENSITY AT NUCLEUS
        JATOM        VALENCE       SEMI-CORE          CORE           TOTAL
:RTO001:   1      655.599600        0.000000   656825.653247   657481.252846
     
       CHARGES OF NEW CHARGE DENSITY
:NTO   : INTERSTITIAL CHARGE =     2.802768
:NPC   : PW Pseudocharge     =     7.772783
:NTO001: CHARGE SPHERE  1    =    56.196754

:NEC01: NUCLEAR AND ELECTRONIC CHARGE     59.00000    58.99952
     
       CHARGES OF OLD CHARGE DENSITY
:OTO   : INTERSTITIAL CHARGE =     2.803238
:OPC   : PW Pseudocharge     =     7.774108
:OTO001: CHARGE SPHERE  1    =    56.196762

:NEC02: NUCLEAR AND ELECTRONIC CHARGE     59.00000    59.00000
     
       CONVERGENCE TEST
:DTO001: DIFFERENCE IN SPHERE  1 =  0.0000195

:DIS  :  CHARGE DISTANCE       ( 0.0000195 for atom    1 spin 1)      0.0000195
 PW Mixed is           47
 
******************************************************
* MULTISECANT MIXING VER9 RELEASE 10.4.0              *
* Standard Mode with controls                        *
* Fixed density scale                                *
* Regularization       1.000E-04                     *
* Trust Upper Limit    5.000E+00                     *
* Max Number of Memory Steps    8                    *
******************************************************
 
:INFO : Forcing a restart
:PWTMP   1.3192E+02  1.2500E+02  1.9737E+02
:PLANE:  PW TOTAL      3.3738 DISTAN   7.33E-06  2.17E-04 %
:CHARG:  CLM/ATOM    977.1957 DISTAN   2.70E-05  2.76E-06 %
 
Step History
        DMIX         DMIXT        Red     Pred      Trust     Lambda    MagRel    MagAbs     Beta
  1   3.5000E-02   3.5000E-02 -1.00E+00  1.00E+00 -1.00E+01  1.00E+00  3.50E-02  3.50E-02  1.00E+00
:INFO :  Note, Pratt in use
:TRUST:  Step 2.25E-01  Charge 7.50E-02 (e) CTO  2.50E-01 (e) PW  3.50E-01 (e)
:DIRM :  MEMORY  0/ 8 SCALE   1.000
Performing Pseudo Compensation
Final Pseudo Compensation Rescaling     1.00000E+00
:MIX  :   PRATT  REGULARIZATION:  1.00E-04 GREED: 0.15000                  
     
       CHARGES OF MIXED CHARGE DENSITY
:CTO   : INTERSTITIAL CHARGE =     2.803239
:CPC   : PW Pseudocharge     =     7.774107
:CTO001: CHARGE SPHERE  1    =    56.196761

:NEC03: NUCLEAR AND ELECTRONIC CHARGE     59.00000    59.00000

PW CHANGE     H    K    L      Current       Change    Residue
:PTO001:      0    0    0  5.35905313E-02  2.460E-09  4.392E-08
:PTO002:     -1   -1   -1 -1.48201606E-01 -2.879E-09 -1.521E-07
:PTO003:      0    0   -2  8.43837880E-02 -6.718E-08 -3.733E-07
:PTO004:      0   -2   -2  6.20468537E-02  1.051E-08  2.994E-08
:PTO005:     -1   -1   -3 -4.69503946E-02 -5.434E-08 -5.549E-08
:PTO006:     -2   -2   -2  1.06599628E-02  2.690E-08  5.663E-08
:PTO007:      0    0   -4 -4.02305448E-04  2.392E-08  2.455E-08
:PTO008:     -1   -3   -3  5.90029954E-03 -1.208E-07 -2.088E-07
:PTO009:      0   -2   -4 -7.60090048E-03  1.125E-07  1.465E-07
:PTO010:     -2   -2   -4 -9.34339666E-03  1.089E-07  1.426E-07
:PTO011:     -3   -3   -3  3.00269088E-03 -3.294E-08 -4.317E-08
:PTO012:     -1   -1   -5  8.73745220E-03 -9.443E-08 -1.002E-07

:ENE  : ********** TOTAL ENERGY IN Ry =       -18472.11725978

