
------- epsilon_Pu_16.scf0 --------


            ---------
:ITE090: 90. ITERATION
            ---------

:NATO :    1 INDEPENDENT AND    1 TOTAL ATOMS IN UNITCELL
       SUBSTANCE: cubic body-centered  (epsilon Pu)                           

       LATTICE                      = B   
:POT  : POTENTIAL OPTION    5
:LAT  : LATTICE CONSTANTS=  7.43890  7.43890  7.43890    1.571    1.571    1.571
:VOL  : UNIT CELL VOLUME =     205.82424
       MODE OF CALCULATION IS       = RELA
       NON-SPINPOLARIZED CALCULATION
:IFFT  : FFT-parameters:   60   60   60 Factor: 2.00
       ATOMNUMBER=  1 Pu  0+     VCOUL-ZERO =  0.46812E-01
:FIT001: LUSE= 13 SIGMA OF V-XC FIT FOR ATOM  1  0.2290133E-05
:FIT001: LUSE= 13 SIGMA OF V-XC FIT FOR ATOM  1  0.2290133E-05
:DEN  : DENSITY INTEGRAL  =        -21867.71591825   (Ry)
       ELS_POTENTIAL_AT Z=0 and Z=0.5:  -2.31181  -2.31181
       ELS_POTENTIAL_AT Y=0 and Y=0.5:   0.00000   0.00000
:VZERO:v0,v0c,v0x  -3.26764  -2.31181  -0.95583 v5,v5c,v5x  -3.26764  -2.31181  -0.95583
:VZERY:v0,v0c,v0x  -0.80503   0.00000  -0.80503 v5,v5c,v5x  -0.80503   0.00000  -0.80503
:VZERX:v0,v0c,v0x  -0.80503   0.00000  -0.80503 v5,v5c,v5x  -0.80503   0.00000  -0.80503

------- epsilon_Pu_16.scf1 --------

          ATOMIC SPHERE DEPENDENT PARAMETERS FOR ATOM  Pu  0+    
:e__0001: OVERALL ENERGY PARAMETER IS    0.6935
          OVERALL BASIS SET ON ATOM IS LAPW
:E0_0001: E( 0)=    0.6935
             APW+lo
:E0_0001: E( 0)=   -2.5015   E(BOTTOM)=   -3.279   E(TOP)=   -1.724
             LOCAL ORBITAL
:E1_0001: E( 1)=   -1.3800   E(BOTTOM)=   -1.588   E(TOP)= -200.000
             APW+lo
:E1_0001: E( 1)=    0.6935
             LOCAL ORBITAL
:E3_0001: E( 3)=    0.6935   E(BOTTOM)=    0.469   E(TOP)= -200.000
             APW+lo
:E2_0001: E( 2)=    0.6935   E(BOTTOM)=    0.619   E(TOP)= -200.000
             APW+lo

       K=   0.00000   0.00000   0.00000            1
:RKM  : MATRIX SIZE  221LOs:  20  RKM= 8.12  WEIGHT= 1.00  PGR:    
       EIGENVALUES ARE:
:EIG00001:      -2.4645382   -0.4202355   -0.4202355   -0.4202355    0.5248035
:EIG00006:       0.9255413    0.9255413    0.9255413    1.0101503    1.0101503
:EIG00011:       1.0101503    1.0388571    1.0659358    1.0659358    1.0659358
:EIG00016:       1.2760390    1.2760390    1.8520688    1.8520688    1.8520688
:EIG00021:       2.4204992    2.4204992    2.6447693    2.6447693    2.6447693
:EIG00026:       2.7598792    3.3311732    3.3311732    3.3311732    3.6986323
:EIG00031:       3.6986323    3.6986323    3.9613474    4.0711883    4.0711883
:EIG00036:       4.0711883    4.1021012    4.1021012    4.1422561    4.1422561
:EIG00041:       4.1422561    4.3654890    4.3654890    4.5049040    4.5049040
:EIG00046:       4.5049040    4.5146710    4.5630590    4.5630590    4.5630590
 
:EIG00051:       5.1536855    5.1536855    5.4362179    5.4362179    5.4362179
:EIG00056:       5.6114092    5.6114092    5.6114092    5.7699083    6.0070293
:EIG00061:       6.0070293    6.0070293    6.4033483    6.4346555    6.4346555
:EIG00066:       6.5025861    6.5025861    6.5025861    6.8769234    6.8769234
:EIG00071:       6.8769234    6.9421216    6.9421216    6.9421216    7.1821932
:EIG00076:       7.1821932    7.1821932    7.2788974    7.2791997    7.2791997
       ********************************************************

:KPT   :      NUMBER OF K-POINTS:   286

------- epsilon_Pu_16.scfso --------
   0.0   0.0 angle (M,z), angle (M,x) deg
 
        SPIN-ORBIT EIGENVALUES:
     K=   0.00000   0.00000   0.00000            1
      MATRIX SIZE=  160   WEIGHT= 1.00
     EIGENVALUES ARE:
          -2.4645382   -2.4645382   -0.8735948   -0.8735948   -0.2250976
          -0.2250976   -0.2250976   -0.2250976    0.5248035    0.5248035
           0.9051515    0.9051515    0.9140054    0.9140054    0.9140054
           0.9140054    1.0082799    1.0082799    1.0082799    1.0082799
           1.0446387    1.0446387    1.0487715    1.0487715    1.0518233
           1.0518233    1.0518233    1.0518233    1.0859877    1.0859877
           1.2784055    1.2784055    1.2784055    1.2784055    1.8488616
           1.8488616    1.8545142    1.8545142    1.8545142    1.8545142

           2.4196162    2.4196162    2.4196162    2.4196162    2.5022566
           2.5022566    2.7116764    2.7116764    2.7116764    2.7116764
           2.7598792    2.7598792    3.3123738    3.3123738    3.3123738
           3.3123738    3.3694826    3.3694826    3.5718699    3.5718699
           3.7835782    3.7835782    3.7835782    3.7835782    3.9613474
           3.9613474    4.0711734    4.0711734    4.0711957    4.0711957
           4.0711957    4.0711957    4.1018506    4.1018506    4.1018506
           4.1018506    4.1424713    4.1424713    4.1424713    4.1424713

           4.1448464    4.1448464    4.3654890    4.3654890    4.3654890
           4.3654890
       ********************************************************

------- epsilon_Pu_16.scf2 --------
:GMA  : POTENTIAL AND CHARGE CUT-OFF  12.00 Ry**.5
         Bandranges (emin - emax) and occupancy:
:BAN00008:   8   -0.341188   -0.225098  1.00000000
:BAN00009:   9    0.524803    0.904102  1.00000000
:BAN00010:  10    0.524803    0.904102  1.00000000
:BAN00011:  11    0.752362    0.927849  1.00000000
:BAN00012:  12    0.752362    0.927849  1.00000000
:BAN00013:  13    0.876554    0.933940  1.00000000
:BAN00014:  14    0.876554    0.933940  1.00000000
:BAN00015:  15    0.913844    0.937617  0.98592738
:BAN00016:  16    0.913844    0.937617  0.98592738
:BAN00017:  17    0.933365    1.008280  0.01407262
:BAN00018:  18    0.933365    1.008280  0.01407262
:BAN00019:  19    0.954478    1.008280  0.00000000
:BAN00020:  20    0.954478    1.008280  0.00000000
:BAN00021:  21    1.007861    1.044639  0.00000000
:BAN00022:  22    1.007861    1.044639  0.00000000
:BAN00023:  23    1.012991    1.048772  0.00000000
        Energy to separate low and high energystates:    0.47480


:NLDA  : NUMBER OF ELECTRONS          =  16.000

:FLDA  : F E R M I - ENERGY           =   1.43646




:POS001: AT.NR.   1 POSITION = 0.00000 0.00000 0.00000  MULTIPLICITY =  1

       LMMAX  5
       LM=   0 0  4 0  4 4  6 0  6 4
:FER DMFT Fermi Energy   0.89215
:EORB    0.24671495
:SUM SUM OF DMFT BAND ENERGIES   -1.17414507

:CHA001: TOTAL CHARGE INSIDE SPHERE   1 =    11.550818
:PCS001: PARTIAL CHARGES SPHERE =  1 S,P,D,F,      D-EG,D-T2G 
:QTL001: 1.9536 4.5922 0.3071 4.6975 0.0000 0.0000 0.0000 0.1555 0.1578 0.0000 0.0000 0.0000
        Q-s-low E-s-low   Q-p-low E-p-low   Q-d-low E-d-low   Q-f-low E-f-low
:EPL001:  1.8715 -2.4538    4.5026 -0.5274    0.0019 -0.3433    0.0007 -0.3458
        Q-s-hi  E-s-hi    Q-p-hi  E-p-hi    Q-d-hi  E-d-hi    Q-f-hi  E-f-hi 
:EPH001:  0.0821  0.7438    0.0896  0.8003    0.3051  0.8247    4.6968  0.9143

:CHA  : TOTAL CHARGE INSIDE UNIT CELL =      16.000005

:ESUM  : SUM OF EIGENVALUES =          -0.866096751


------- epsilon_Pu_16.scfc --------

        1.ATOM      Pu  0+               21 CORE STATES
:1S 001: 1S               -8966.788052123 Ry
:2S 001: 2S               -1687.456887295 Ry
:2PP001: 2P*              -1628.151864122 Ry
:2P 001: 2P               -1314.999122172 Ry
:3S 001: 3S                -427.988196101 Ry
:3PP001: 3P*               -401.064419327 Ry
:3P 001: 3P                -328.502332724 Ry
:3DD001: 3D*               -286.263531328 Ry
:3D 001: 3D                -271.720893037 Ry
:4S 001: 4S                -109.471571054 Ry
:4PP001: 4P*                -97.283763209 Ry
:4P 001: 4P                 -78.139052159 Ry
:4DD001: 4D*                -58.851609046 Ry
:4D 001: 4D                 -55.357179893 Ry
:5S 001: 5S                 -23.632143042 Ry
:5PP001: 5P*                -18.815283607 Ry
:5P 001: 5P                 -14.129893313 Ry
:4FF001: 4F*                -29.955858825 Ry
:4F 001: 4F                 -29.027894712 Ry
:5DD001: 5D*                 -7.099674956 Ry
:5D 001: 5D                  -6.402359918 Ry

------- epsilon_Pu_16.scfm --------

       DENSITY AT NUCLEUS
        JATOM    VALENCE       SEMI-CORE            CORE           TOTAL
:RTO001:   1    23476.598472        0.000000 45141806.658145 45165283.256617
     
       CHARGES OF NEW CHARGE DENSITY
:NTO  : TOTAL   INTERSTITIAL CHARGE=    4.4491851
:NTO001: TOTAL   CHARGE IN SPHERE  1 =       89.5413914

:NEC01: NUCLEAR AND ELECTRONIC CHARGE     94.00000    93.99058     1.00010
     
       CHARGES OF OLD CHARGE DENSITY
:OTO  : TOTAL   INTERSTITIAL CHARGE=    4.4548937
:OTO001: TOTAL   CHARGE IN SPHERE  1 =       89.5451063

:NEC02: NUCLEAR AND ELECTRONIC CHARGE     94.00000    94.00000     1.00000
     
       CONVERGENCE TEST
:DTO001: TOTAL   DIFFERENCE CHARGE**2 IN SPHERE  1 =  0.0034386

:DIS  :  CHARGE DISTANCE       ( 0.0034386 for atom    1 spin 1)      0.0034386
:BIG check (qbig,qrms,qtot)    0.115D-02   0.243D-02   0.344D-02
 
******************************************************
* MULTISECANT MIXING VER4 OPTIONS                    *
* Unpredicted Step Limit   0.100000                  *
* Plane Wave Dynamic Rescaling                       *
* Dynamic Regularization active                      *
* Upper Cutoff Lambda  1.0E-01 Lower 3.5E-04         *
* SQRT Multiplicity/Degeneracy                       *
* Max Number of Memory Steps    8                    *
******************************************************
 
:PLANE:  INTERSTITIAL TOTAL      1.84404 DISTAN  1.875E-02 % 
:CHARG:  CLM CHARGE   /ATOM    713.23023 DISTAN  1.443E-03 % 
:MIX  :  PRATT  REGULARIZATION: 3.50E-04  GREED: 0.035
     
       CHARGES OF MIXED CHARGE DENSITY
:CTO  : TOTAL   INTERSTITIAL CHARGE=    4.4550237
:CTO001: TOTAL   CHARGE IN SPHERE  1 =       89.5449763

:NEC03: NUCLEAR AND ELECTRONIC CHARGE     94.00000    94.00000     1.00000


:ENE  : ********** TOTAL ENERGY IN Ry =       -59354.72947866


------- epsilon_Pu_16.scf0 --------


            ---------
:ITE091: 91. ITERATION
            ---------

:NATO :    1 INDEPENDENT AND    1 TOTAL ATOMS IN UNITCELL
       SUBSTANCE: cubic body-centered  (epsilon Pu)                           

       LATTICE                      = B   
:POT  : POTENTIAL OPTION    5
:LAT  : LATTICE CONSTANTS=  7.43890  7.43890  7.43890    1.571    1.571    1.571
:VOL  : UNIT CELL VOLUME =     205.82424
       MODE OF CALCULATION IS       = RELA
       NON-SPINPOLARIZED CALCULATION
:IFFT  : FFT-parameters:   60   60   60 Factor: 2.00
       ATOMNUMBER=  1 Pu  0+     VCOUL-ZERO =  0.46801E-01
:FIT001: LUSE= 13 SIGMA OF V-XC FIT FOR ATOM  1  0.2288058E-05
:FIT001: LUSE= 13 SIGMA OF V-XC FIT FOR ATOM  1  0.2288058E-05
:DEN  : DENSITY INTEGRAL  =        -21867.70116072   (Ry)
       ELS_POTENTIAL_AT Z=0 and Z=0.5:  -2.31184  -2.31184
       ELS_POTENTIAL_AT Y=0 and Y=0.5:   0.00000   0.00000
:VZERO:v0,v0c,v0x  -3.26767  -2.31184  -0.95583 v5,v5c,v5x  -3.26767  -2.31184  -0.95583
:VZERY:v0,v0c,v0x  -0.80503   0.00000  -0.80503 v5,v5c,v5x  -0.80503   0.00000  -0.80503
:VZERX:v0,v0c,v0x  -0.80503   0.00000  -0.80503 v5,v5c,v5x  -0.80503   0.00000  -0.80503

------- epsilon_Pu_16.scf1 --------

          ATOMIC SPHERE DEPENDENT PARAMETERS FOR ATOM  Pu  0+    
:e__0001: OVERALL ENERGY PARAMETER IS    0.6935
          OVERALL BASIS SET ON ATOM IS LAPW
:E0_0001: E( 0)=    0.6935
             APW+lo
:E0_0001: E( 0)=   -2.5015   E(BOTTOM)=   -3.279   E(TOP)=   -1.724
             LOCAL ORBITAL
:E1_0001: E( 1)=   -1.3800   E(BOTTOM)=   -1.588   E(TOP)= -200.000
             APW+lo
:E1_0001: E( 1)=    0.6935
             LOCAL ORBITAL
:E3_0001: E( 3)=    0.6935   E(BOTTOM)=    0.469   E(TOP)= -200.000
             APW+lo
:E2_0001: E( 2)=    0.6935   E(BOTTOM)=    0.619   E(TOP)= -200.000
             APW+lo

       K=   0.00000   0.00000   0.00000            1
:RKM  : MATRIX SIZE  221LOs:  20  RKM= 8.12  WEIGHT= 1.00  PGR:    
       EIGENVALUES ARE:
:EIG00001:      -2.4646128   -0.4202879   -0.4202879   -0.4202879    0.5248040
:EIG00006:       0.9254681    0.9254681    0.9254681    1.0100589    1.0100589
:EIG00011:       1.0100589    1.0387655    1.0659232    1.0659232    1.0659232
:EIG00016:       1.2760261    1.2760261    1.8520520    1.8520520    1.8520520
:EIG00021:       2.4204930    2.4204930    2.6447559    2.6447559    2.6447559
:EIG00026:       2.7598806    3.3311480    3.3311480    3.3311480    3.6986134
:EIG00031:       3.6986134    3.6986134    3.9613306    4.0711850    4.0711850
:EIG00036:       4.0711850    4.1020974    4.1020974    4.1422537    4.1422537
:EIG00041:       4.1422537    4.3654962    4.3654962    4.5048934    4.5048934
:EIG00046:       4.5048934    4.5146248    4.5630532    4.5630532    4.5630532
 
:EIG00051:       5.1536756    5.1536756    5.4362163    5.4362163    5.4362163
:EIG00056:       5.6114102    5.6114102    5.6114102    5.7699112    6.0070140
:EIG00061:       6.0070140    6.0070140    6.4033201    6.4346341    6.4346341
:EIG00066:       6.5025744    6.5025744    6.5025744    6.8769196    6.8769196
:EIG00071:       6.8769196    6.9421214    6.9421214    6.9421214    7.1821954
:EIG00076:       7.1821954    7.1821954    7.2789062    7.2792084    7.2792084
       ********************************************************

:KPT   :      NUMBER OF K-POINTS:   286

------- epsilon_Pu_16.scfso --------
   0.0   0.0 angle (M,z), angle (M,x) deg
 
        SPIN-ORBIT EIGENVALUES:
     K=   0.00000   0.00000   0.00000            1
      MATRIX SIZE=  160   WEIGHT= 1.00
     EIGENVALUES ARE:
          -2.4646128   -2.4646128   -0.8736556   -0.8736556   -0.2251462
          -0.2251462   -0.2251462   -0.2251462    0.5248040    0.5248040
           0.9050750    0.9050750    0.9139276    0.9139276    0.9139276
           0.9139276    1.0081928    1.0081928    1.0081928    1.0081928
           1.0445488    1.0445488    1.0486825    1.0486825    1.0518101
           1.0518101    1.0518101    1.0518101    1.0859758    1.0859758
           1.2783929    1.2783929    1.2783929    1.2783929    1.8488451
           1.8488451    1.8544970    1.8544970    1.8544970    1.8544970

           2.4196099    2.4196099    2.4196099    2.4196099    2.5022424
           2.5022424    2.7116634    2.7116634    2.7116634    2.7116634
           2.7598806    2.7598806    3.3123486    3.3123486    3.3123486
           3.3123486    3.3694579    3.3694579    3.5718522    3.5718522
           3.7835588    3.7835588    3.7835588    3.7835588    3.9613306
           3.9613306    4.0711701    4.0711701    4.0711924    4.0711924
           4.0711924    4.0711924    4.1018468    4.1018468    4.1018468
           4.1018468    4.1424688    4.1424688    4.1424688    4.1424688

           4.1448440    4.1448440    4.3654962    4.3654962    4.3654962
           4.3654962
       ********************************************************

------- epsilon_Pu_16.scf2 --------
:GMA  : POTENTIAL AND CHARGE CUT-OFF  12.00 Ry**.5
         Bandranges (emin - emax) and occupancy:
:BAN00008:   8   -0.341230   -0.225146  1.00000000
:BAN00009:   9    0.524804    0.904087  1.00000000
:BAN00010:  10    0.524804    0.904087  1.00000000
:BAN00011:  11    0.752361    0.927781  1.00000000
:BAN00012:  12    0.752361    0.927781  1.00000000
:BAN00013:  13    0.876524    0.933859  1.00000000
:BAN00014:  14    0.876524    0.933859  1.00000000
:BAN00015:  15    0.913767    0.937540  0.98591672
:BAN00016:  16    0.913767    0.937540  0.98591672
:BAN00017:  17    0.933287    1.008193  0.01408328
:BAN00018:  18    0.933287    1.008193  0.01408328
:BAN00019:  19    0.954422    1.008193  0.00000000
:BAN00020:  20    0.954422    1.008193  0.00000000
:BAN00021:  21    1.007778    1.044549  0.00000000
:BAN00022:  22    1.007778    1.044549  0.00000000
:BAN00023:  23    1.012909    1.048683  0.00000000
        Energy to separate low and high energystates:    0.47480


:NLDA  : NUMBER OF ELECTRONS          =  16.000

:FLDA  : F E R M I - ENERGY           =   1.43638




:POS001: AT.NR.   1 POSITION = 0.00000 0.00000 0.00000  MULTIPLICITY =  1

       LMMAX  5
       LM=   0 0  4 0  4 4  6 0  6 4
:FER DMFT Fermi Energy   0.89212
:EORB    0.24644505
:SUM SUM OF DMFT BAND ENERGIES   -1.17478978

:CHA001: TOTAL CHARGE INSIDE SPHERE   1 =    11.551202
:PCS001: PARTIAL CHARGES SPHERE =  1 S,P,D,F,      D-EG,D-T2G 
:QTL001: 1.9536 4.5922 0.3070 4.6979 0.0000 0.0000 0.0000 0.1555 0.1577 0.0000 0.0000 0.0000
        Q-s-low E-s-low   Q-p-low E-p-low   Q-d-low E-d-low   Q-f-low E-f-low
:EPL001:  1.8715 -2.4539    4.5026 -0.5274    0.0019 -0.3433    0.0007 -0.3458
        Q-s-hi  E-s-hi    Q-p-hi  E-p-hi    Q-d-hi  E-d-hi    Q-f-hi  E-f-hi 
:EPH001:  0.0821  0.7438    0.0896  0.8003    0.3051  0.8247    4.6972  0.9142

:CHA  : TOTAL CHARGE INSIDE UNIT CELL =      16.000000

:ESUM  : SUM OF EIGENVALUES =          -0.866996424


------- epsilon_Pu_16.scfc --------

        1.ATOM      Pu  0+               21 CORE STATES
:1S 001: 1S               -8966.788251614 Ry
:2S 001: 2S               -1687.457087243 Ry
:2PP001: 2P*              -1628.152063993 Ry
:2P 001: 2P               -1314.999322107 Ry
:3S 001: 3S                -427.988393438 Ry
:3PP001: 3P*               -401.064617105 Ry
:3P 001: 3P                -328.502529276 Ry
:3DD001: 3D*               -286.263729238 Ry
:3D 001: 3D                -271.721090658 Ry
:4S 001: 4S                -109.471753621 Ry
:4PP001: 4P*                -97.283945946 Ry
:4P 001: 4P                 -78.139231712 Ry
:4DD001: 4D*                -58.851789022 Ry
:4D 001: 4D                 -55.357358952 Ry
:5S 001: 5S                 -23.632298051 Ry
:5PP001: 5P*                -18.815436226 Ry
:5P 001: 5P                 -14.130037912 Ry
:4FF001: 4F*                -29.956039511 Ry
:4F 001: 4F                 -29.028074930 Ry
:5DD001: 5D*                 -7.099810620 Ry
:5D 001: 5D                  -6.402492625 Ry

------- epsilon_Pu_16.scfm --------

       DENSITY AT NUCLEUS
        JATOM    VALENCE       SEMI-CORE            CORE           TOTAL
:RTO001:   1    23476.866501        0.000000 45141806.877270 45165283.743771
     
       CHARGES OF NEW CHARGE DENSITY
:NTO  : TOTAL   INTERSTITIAL CHARGE=    4.4487965
:NTO001: TOTAL   CHARGE IN SPHERE  1 =       89.5417756

:NEC01: NUCLEAR AND ELECTRONIC CHARGE     94.00000    93.99057     1.00010
     
       CHARGES OF OLD CHARGE DENSITY
:OTO  : TOTAL   INTERSTITIAL CHARGE=    4.4550237
:OTO001: TOTAL   CHARGE IN SPHERE  1 =       89.5449763

:NEC02: NUCLEAR AND ELECTRONIC CHARGE     94.00000    94.00000     1.00000
     
       CONVERGENCE TEST
:DTO001: TOTAL   DIFFERENCE CHARGE**2 IN SPHERE  1 =  0.0029425

:DIS  :  CHARGE DISTANCE       ( 0.0029425 for atom    1 spin 1)      0.0029425
:BIG check (qbig,qrms,qtot)    0.981D-03   0.208D-02   0.294D-02
 
******************************************************
* MULTISECANT MIXING VER4 OPTIONS                    *
* Unpredicted Step Limit   0.100000                  *
* Plane Wave Dynamic Rescaling                       *
* Dynamic Regularization active                      *
* Upper Cutoff Lambda  1.0E-01 Lower 3.5E-04         *
* SQRT Multiplicity/Degeneracy                       *
* Max Number of Memory Steps    8                    *
******************************************************
 
:PLANE:  INTERSTITIAL TOTAL      1.84404 DISTAN  1.663E-02 % 
:CHARG:  CLM CHARGE   /ATOM    713.23018 DISTAN  1.296E-03 % 
:INFO :  Dynamic rescale   2.994E+01  1.000E-01
:INFO :  Number of Memory Steps    1 Skipping    0
:INFO :  Bounds         0.392D-01  0.200D+00  0.185D+00  0.392D-01
:DIRM :  MEMORY 1/8 RESCALE  29.94 RED 0.893 PRED 1.000 NEXT 0.541 COND 1.00E+00
:DIRP :  |BROYD|= 2.265E-03 |PRATT|= 3.601E-04 ANGLE=   0.5 DEGREES
:DIRB :  |BROYD|= 3.215E-03 |PRATT|= 5.108E-04 ANGLE=   0.4 DEGREES
:MIX  :  MSR1   REGULARIZATION: 3.50E-04  GREED: 0.039
     
       CHARGES OF MIXED CHARGE DENSITY
:CTO  : TOTAL   INTERSTITIAL CHARGE=    4.4558099
:CTO001: TOTAL   CHARGE IN SPHERE  1 =       89.5441901

:NEC03: NUCLEAR AND ELECTRONIC CHARGE     94.00000    94.00000     1.00000


:ENE  : ********** TOTAL ENERGY IN Ry =       -59354.72948939


------- epsilon_Pu_16.scf0 --------


            ---------
:ITE092: 92. ITERATION
            ---------

:NATO :    1 INDEPENDENT AND    1 TOTAL ATOMS IN UNITCELL
       SUBSTANCE: cubic body-centered  (epsilon Pu)                           

       LATTICE                      = B   
:POT  : POTENTIAL OPTION    5
:LAT  : LATTICE CONSTANTS=  7.43890  7.43890  7.43890    1.571    1.571    1.571
:VOL  : UNIT CELL VOLUME =     205.82424
       MODE OF CALCULATION IS       = RELA
       NON-SPINPOLARIZED CALCULATION
:IFFT  : FFT-parameters:   60   60   60 Factor: 2.00
       ATOMNUMBER=  1 Pu  0+     VCOUL-ZERO =  0.46728E-01
:FIT001: LUSE= 13 SIGMA OF V-XC FIT FOR ATOM  1  0.2273550E-05
:FIT001: LUSE= 13 SIGMA OF V-XC FIT FOR ATOM  1  0.2273550E-05
:DEN  : DENSITY INTEGRAL  =        -21867.61458467   (Ry)
       ELS_POTENTIAL_AT Z=0 and Z=0.5:  -2.31204  -2.31204
       ELS_POTENTIAL_AT Y=0 and Y=0.5:   0.00000   0.00000
:VZERO:v0,v0c,v0x  -3.26789  -2.31204  -0.95586 v5,v5c,v5x  -3.26789  -2.31204  -0.95586
:VZERY:v0,v0c,v0x  -0.80507   0.00000  -0.80507 v5,v5c,v5x  -0.80507   0.00000  -0.80507
:VZERX:v0,v0c,v0x  -0.80507   0.00000  -0.80507 v5,v5c,v5x  -0.80507   0.00000  -0.80507

------- epsilon_Pu_16.scf1 --------

          ATOMIC SPHERE DEPENDENT PARAMETERS FOR ATOM  Pu  0+    
:e__0001: OVERALL ENERGY PARAMETER IS    0.6935
          OVERALL BASIS SET ON ATOM IS LAPW
:E0_0001: E( 0)=    0.6935
             APW+lo
:E0_0001: E( 0)=   -2.5020   E(BOTTOM)=   -3.279   E(TOP)=   -1.725
             LOCAL ORBITAL
:E1_0001: E( 1)=   -1.3800   E(BOTTOM)=   -1.588   E(TOP)= -200.000
             APW+lo
:E1_0001: E( 1)=    0.6935
             LOCAL ORBITAL
:E3_0001: E( 3)=    0.6935   E(BOTTOM)=    0.469   E(TOP)= -200.000
             APW+lo
:E2_0001: E( 2)=    0.6935   E(BOTTOM)=    0.619   E(TOP)= -200.000
             APW+lo

       K=   0.00000   0.00000   0.00000            1
:RKM  : MATRIX SIZE  221LOs:  20  RKM= 8.12  WEIGHT= 1.00  PGR:    
       EIGENVALUES ARE:
:EIG00001:      -2.4650592   -0.4206023   -0.4206023   -0.4206023    0.5248074
:EIG00006:       0.9250314    0.9250314    0.9250314    1.0095129    1.0095129
:EIG00011:       1.0095129    1.0382213    1.0658479    1.0658479    1.0658479
:EIG00016:       1.2759484    1.2759484    1.8519521    1.8519521    1.8519521
:EIG00021:       2.4204555    2.4204555    2.6446755    2.6446755    2.6446755
:EIG00026:       2.7598891    3.3309981    3.3309981    3.3309981    3.6985007
:EIG00031:       3.6985007    3.6985007    3.9612300    4.0711645    4.0711645
:EIG00036:       4.0711645    4.1020741    4.1020741    4.1422393    4.1422393
:EIG00041:       4.1422393    4.3655390    4.3655390    4.5048296    4.5048296
:EIG00046:       4.5048296    4.5143501    4.5630190    4.5630190    4.5630190
 
:EIG00051:       5.1536153    5.1536153    5.4362063    5.4362063    5.4362063
:EIG00056:       5.6114163    5.6114163    5.6114163    5.7699279    6.0069226
:EIG00061:       6.0069226    6.0069226    6.4031511    6.4345063    6.4345063
:EIG00066:       6.5025042    6.5025042    6.5025042    6.8768967    6.8768967
:EIG00071:       6.8768967    6.9421207    6.9421207    6.9421207    7.1822089
:EIG00076:       7.1822089    7.1822089    7.2789592    7.2792602    7.2792602
       ********************************************************

:KPT   :      NUMBER OF K-POINTS:   286

------- epsilon_Pu_16.scfso --------
   0.0   0.0 angle (M,z), angle (M,x) deg
 
        SPIN-ORBIT EIGENVALUES:
     K=   0.00000   0.00000   0.00000            1
      MATRIX SIZE=  160   WEIGHT= 1.00
     EIGENVALUES ARE:
          -2.4650592   -2.4650592   -0.8740196   -0.8740196   -0.2254374
          -0.2254374   -0.2254374   -0.2254374    0.5248074    0.5248074
           0.9046189    0.9046189    0.9134635    0.9134635    0.9134635
           0.9134635    1.0076728    1.0076728    1.0076728    1.0076728
           1.0440115    1.0440115    1.0481534    1.0481534    1.0517311
           1.0517311    1.0517311    1.0517311    1.0859046    1.0859046
           1.2783165    1.2783165    1.2783165    1.2783165    1.8487473
           1.8487473    1.8543953    1.8543953    1.8543953    1.8543953

           2.4195724    2.4195724    2.4195724    2.4195724    2.5021572
           2.5021572    2.7115858    2.7115858    2.7115858    2.7115858
           2.7598891    2.7598891    3.3121981    3.3121981    3.3121981
           3.3121981    3.3693100    3.3693100    3.5717465    3.5717465
           3.7834435    3.7834435    3.7834435    3.7834435    3.9612299
           3.9612299    4.0711496    4.0711496    4.0711719    4.0711719
           4.0711719    4.0711719    4.1018236    4.1018236    4.1018236
           4.1018236    4.1424542    4.1424542    4.1424542    4.1424542

           4.1448297    4.1448297    4.3655390    4.3655390    4.3655390
           4.3655390
       ********************************************************

------- epsilon_Pu_16.scf2 --------
:GMA  : POTENTIAL AND CHARGE CUT-OFF  12.00 Ry**.5
         Bandranges (emin - emax) and occupancy:
:BAN00008:   8   -0.341478   -0.225437  1.00000000
:BAN00009:   9    0.524807    0.903999  1.00000000
:BAN00010:  10    0.524807    0.903999  1.00000000
:BAN00011:  11    0.752355    0.927374  1.00000000
:BAN00012:  12    0.752355    0.927374  1.00000000
:BAN00013:  13    0.876342    0.933371  1.00000000
:BAN00014:  14    0.876342    0.933371  1.00000000
:BAN00015:  15    0.913305    0.937079  0.98584256
:BAN00016:  16    0.913305    0.937079  0.98584256
:BAN00017:  17    0.932826    1.007673  0.01416145
:BAN00018:  18    0.932826    1.007673  0.01416145
:BAN00019:  19    0.954086    1.007673  0.00000000
:BAN00020:  20    0.954086    1.007673  0.00000000
:BAN00021:  21    1.007285    1.044011  0.00000000
:BAN00022:  22    1.007285    1.044011  0.00000000
:BAN00023:  23    1.012421    1.048153  0.00000000
        Energy to separate low and high energystates:    0.47481


:NLDA  : NUMBER OF ELECTRONS          =  16.000

:FLDA  : F E R M I - ENERGY           =   1.43589




:POS001: AT.NR.   1 POSITION = 0.00000 0.00000 0.00000  MULTIPLICITY =  1

       LMMAX  5
       LM=   0 0  4 0  4 4  6 0  6 4
:FER DMFT Fermi Energy   0.89199
:EORB    0.24458675
:SUM SUM OF DMFT BAND ENERGIES   -1.17841895

:CHA001: TOTAL CHARGE INSIDE SPHERE   1 =    11.553214
:PCS001: PARTIAL CHARGES SPHERE =  1 S,P,D,F,      D-EG,D-T2G 
:QTL001: 1.9536 4.5925 0.3068 4.6998 0.0000 0.0000 0.0000 0.1554 0.1576 0.0000 0.0000 0.0000
        Q-s-low E-s-low   Q-p-low E-p-low   Q-d-low E-d-low   Q-f-low E-f-low
:EPL001:  1.8715 -2.4543    4.5030 -0.5277    0.0019 -0.3436    0.0007 -0.3460
        Q-s-hi  E-s-hi    Q-p-hi  E-p-hi    Q-d-hi  E-d-hi    Q-f-hi  E-f-hi 
:EPH001:  0.0821  0.7437    0.0895  0.8001    0.3049  0.8245    4.6990  0.9138

:CHA  : TOTAL CHARGE INSIDE UNIT CELL =      16.000000

:ESUM  : SUM OF EIGENVALUES =          -0.872362783


------- epsilon_Pu_16.scfc --------

        1.ATOM      Pu  0+               21 CORE STATES
:1S 001: 1S               -8966.789403425 Ry
:2S 001: 2S               -1687.458245210 Ry
:2PP001: 2P*              -1628.153220658 Ry
:2P 001: 2P               -1315.000479997 Ry
:3S 001: 3S                -427.989542391 Ry
:3PP001: 3P*               -401.065768050 Ry
:3P 001: 3P                -328.503674247 Ry
:3DD001: 3D*               -286.264880813 Ry
:3D 001: 3D                -271.722240913 Ry
:4S 001: 4S                -109.472824913 Ry
:4PP001: 4P*                -97.285018091 Ry
:4P 001: 4P                 -78.140286735 Ry
:4DD001: 4D*                -58.852846246 Ry
:4D 001: 4D                 -55.358411234 Ry
:5S 001: 5S                 -23.633216331 Ry
:5PP001: 5P*                -18.816340715 Ry
:5P 001: 5P                 -14.130896110 Ry
:4FF001: 4F*                -29.957100737 Ry
:4F 001: 4F                 -29.029133625 Ry
:5DD001: 5D*                 -7.100616710 Ry
:5D 001: 5D                  -6.403281361 Ry

------- epsilon_Pu_16.scfm --------

       DENSITY AT NUCLEUS
        JATOM    VALENCE       SEMI-CORE            CORE           TOTAL
:RTO001:   1    23478.446800        0.000000 45141808.069117 45165286.515917
     
       CHARGES OF NEW CHARGE DENSITY
:NTO  : TOTAL   INTERSTITIAL CHARGE=    4.4467844
:NTO001: TOTAL   CHARGE IN SPHERE  1 =       89.5437905

:NEC01: NUCLEAR AND ELECTRONIC CHARGE     94.00000    93.99057     1.00010
     
       CHARGES OF OLD CHARGE DENSITY
:OTO  : TOTAL   INTERSTITIAL CHARGE=    4.4558099
:OTO001: TOTAL   CHARGE IN SPHERE  1 =       89.5441901

:NEC02: NUCLEAR AND ELECTRONIC CHARGE     94.00000    94.00000     1.00000
     
       CONVERGENCE TEST
:DTO001: TOTAL   DIFFERENCE CHARGE**2 IN SPHERE  1 =  0.0004915

:DIS  :  CHARGE DISTANCE       ( 0.0004915 for atom    1 spin 1)      0.0004915
:BIG check (qbig,qrms,qtot)    0.164D-03   0.348D-03   0.491D-03
 
******************************************************
* MULTISECANT MIXING VER4 OPTIONS                    *
* Unpredicted Step Limit   0.100000                  *
* Plane Wave Dynamic Rescaling                       *
* Dynamic Regularization active                      *
* Upper Cutoff Lambda  1.0E-01 Lower 3.5E-04         *
* SQRT Multiplicity/Degeneracy                       *
* Max Number of Memory Steps    8                    *
******************************************************
 
:PLANE:  INTERSTITIAL TOTAL      1.84404 DISTAN  8.741E-03 % 
:CHARG:  CLM CHARGE   /ATOM    713.22993 DISTAN  6.349E-04 % 
:INFO :  Dynamic rescale   2.931E+01  1.000E-01
:INFO :  Number of Memory Steps    2 Skipping    0
:INFO :  Singular value   2.546E+00 Weight   9.901E-01 Projections  -9.851E-04  1.394E-03
:INFO :  Singular value   1.167E-04 Weight   2.101E-07 Projections  -9.861E-04 -9.833E-08
:INFO :  Bounds         0.772D-01  0.200D+00  0.101D+00  0.772D-01
:DIRM :  MEMORY 2/8 RESCALE  29.31 RED 0.508 PRED 0.541 NEXT 0.991 COND 1.28E+00
:DIRP :  |BROYD|= 6.551E-04 |PRATT|= 3.650E-04 ANGLE=  21.8 DEGREES
:DIRB :  |BROYD|= 9.415E-04 |PRATT|= 5.055E-04 ANGLE=  20.1 DEGREES
:MIX  :  MSR1   REGULARIZATION: 2.55E-01  GREED: 0.077
     
       CHARGES OF MIXED CHARGE DENSITY
:CTO  : TOTAL   INTERSTITIAL CHARGE=    4.4559525
:CTO001: TOTAL   CHARGE IN SPHERE  1 =       89.5440475

:NEC03: NUCLEAR AND ELECTRONIC CHARGE     94.00000    94.00000     1.00000


:ENE  : ********** TOTAL ENERGY IN Ry =       -59354.72957434


------- epsilon_Pu_16.scf0 --------


            ---------
:ITE093: 93. ITERATION
            ---------

:NATO :    1 INDEPENDENT AND    1 TOTAL ATOMS IN UNITCELL
       SUBSTANCE: cubic body-centered  (epsilon Pu)                           

       LATTICE                      = B   
:POT  : POTENTIAL OPTION    5
:LAT  : LATTICE CONSTANTS=  7.43890  7.43890  7.43890    1.571    1.571    1.571
:VOL  : UNIT CELL VOLUME =     205.82424
       MODE OF CALCULATION IS       = RELA
       NON-SPINPOLARIZED CALCULATION
:IFFT  : FFT-parameters:   60   60   60 Factor: 2.00
       ATOMNUMBER=  1 Pu  0+     VCOUL-ZERO =  0.46712E-01
:FIT001: LUSE= 13 SIGMA OF V-XC FIT FOR ATOM  1  0.2268183E-05
:FIT001: LUSE= 13 SIGMA OF V-XC FIT FOR ATOM  1  0.2268183E-05
:DEN  : DENSITY INTEGRAL  =        -21867.60457125   (Ry)
       ELS_POTENTIAL_AT Z=0 and Z=0.5:  -2.31207  -2.31207
       ELS_POTENTIAL_AT Y=0 and Y=0.5:   0.00000   0.00000
:VZERO:v0,v0c,v0x  -3.26793  -2.31207  -0.95586 v5,v5c,v5x  -3.26793  -2.31207  -0.95586
:VZERY:v0,v0c,v0x  -0.80507   0.00000  -0.80507 v5,v5c,v5x  -0.80507   0.00000  -0.80507
:VZERX:v0,v0c,v0x  -0.80507   0.00000  -0.80507 v5,v5c,v5x  -0.80507   0.00000  -0.80507

------- epsilon_Pu_16.scf1 --------

          ATOMIC SPHERE DEPENDENT PARAMETERS FOR ATOM  Pu  0+    
:e__0001: OVERALL ENERGY PARAMETER IS    0.6935
          OVERALL BASIS SET ON ATOM IS LAPW
:E0_0001: E( 0)=    0.6935
             APW+lo
:E0_0001: E( 0)=   -2.5020   E(BOTTOM)=   -3.279   E(TOP)=   -1.725
             LOCAL ORBITAL
:E1_0001: E( 1)=   -1.3800   E(BOTTOM)=   -1.588   E(TOP)= -200.000
             APW+lo
:E1_0001: E( 1)=    0.6935
             LOCAL ORBITAL
:E3_0001: E( 3)=    0.6935   E(BOTTOM)=    0.469   E(TOP)= -200.000
             APW+lo
:E2_0001: E( 2)=    0.6935   E(BOTTOM)=    0.619   E(TOP)= -200.000
             APW+lo

       K=   0.00000   0.00000   0.00000            1
:RKM  : MATRIX SIZE  221LOs:  20  RKM= 8.12  WEIGHT= 1.00  PGR:    
       EIGENVALUES ARE:
:EIG00001:      -2.4651297   -0.4206531   -0.4206531   -0.4206531    0.5248083
:EIG00006:       0.9249650    0.9249650    0.9249650    1.0094280    1.0094280
:EIG00011:       1.0094280    1.0381420    1.0658360    1.0658360    1.0658360
:EIG00016:       1.2759344    1.2759344    1.8519383    1.8519383    1.8519383
:EIG00021:       2.4204491    2.4204491    2.6446631    2.6446631    2.6446631
:EIG00026:       2.7598905    3.3309748    3.3309748    3.3309748    3.6984839
:EIG00031:       3.6984839    3.6984839    3.9612132    4.0711599    4.0711599
:EIG00036:       4.0711599    4.1020698    4.1020698    4.1422369    4.1422369
:EIG00041:       4.1422369    4.3655457    4.3655457    4.5048197    4.5048197
:EIG00046:       4.5048197    4.5143098    4.5630147    4.5630147    4.5630147
 
:EIG00051:       5.1536042    5.1536042    5.4362048    5.4362048    5.4362048
:EIG00056:       5.6114174    5.6114174    5.6114174    5.7699300    6.0069086
:EIG00061:       6.0069086    6.0069086    6.4031228    6.4344858    6.4344858
:EIG00066:       6.5024917    6.5024917    6.5024917    6.8768925    6.8768925
:EIG00071:       6.8768925    6.9421206    6.9421206    6.9421206    7.1822109
:EIG00076:       7.1822109    7.1822109    7.2789676    7.2792683    7.2792683
       ********************************************************

:KPT   :      NUMBER OF K-POINTS:   286

------- epsilon_Pu_16.scfso --------
   0.0   0.0 angle (M,z), angle (M,x) deg
 
        SPIN-ORBIT EIGENVALUES:
     K=   0.00000   0.00000   0.00000            1
      MATRIX SIZE=  160   WEIGHT= 1.00
     EIGENVALUES ARE:
          -2.4651297   -2.4651297   -0.8740780   -0.8740780   -0.2254846
          -0.2254846   -0.2254846   -0.2254846    0.5248083    0.5248083
           0.9045500    0.9045500    0.9133928    0.9133928    0.9133928
           0.9133928    1.0075921    1.0075921    1.0075921    1.0075921
           1.0439278    1.0439278    1.0480761    1.0480761    1.0517185
           1.0517185    1.0517185    1.0517185    1.0858933    1.0858933
           1.2783027    1.2783027    1.2783027    1.2783027    1.8487337
           1.8487337    1.8543811    1.8543811    1.8543811    1.8543811

           2.4195660    2.4195660    2.4195660    2.4195660    2.5021440
           2.5021440    2.7115739    2.7115739    2.7115739    2.7115739
           2.7598905    2.7598905    3.3121748    3.3121748    3.3121748
           3.3121748    3.3692871    3.3692871    3.5717308    3.5717308
           3.7834262    3.7834262    3.7834262    3.7834262    3.9612132
           3.9612132    4.0711450    4.0711450    4.0711673    4.0711673
           4.0711673    4.0711673    4.1018194    4.1018194    4.1018194
           4.1018194    4.1424518    4.1424518    4.1424518    4.1424518

           4.1448274    4.1448274    4.3655457    4.3655457    4.3655457
           4.3655457
       ********************************************************

------- epsilon_Pu_16.scf2 --------
:GMA  : POTENTIAL AND CHARGE CUT-OFF  12.00 Ry**.5
         Bandranges (emin - emax) and occupancy:
:BAN00008:   8   -0.341519   -0.225485  1.00000000
:BAN00009:   9    0.524808    0.903986  1.00000000
:BAN00010:  10    0.524808    0.903986  1.00000000
:BAN00011:  11    0.752353    0.927312  1.00000000
:BAN00012:  12    0.752353    0.927312  1.00000000
:BAN00013:  13    0.876314    0.933296  1.00000000
:BAN00014:  14    0.876314    0.933296  1.00000000
:BAN00015:  15    0.913235    0.937010  0.98581102
:BAN00016:  16    0.913235    0.937010  0.98581102
:BAN00017:  17    0.932755    1.007592  0.01418898
:BAN00018:  18    0.932755    1.007592  0.01418898
:BAN00019:  19    0.954034    1.007592  0.00000000
:BAN00020:  20    0.954034    1.007592  0.00000000
:BAN00021:  21    1.007210    1.043928  0.00000000
:BAN00022:  22    1.007210    1.043928  0.00000000
:BAN00023:  23    1.012346    1.048076  0.00000000
        Energy to separate low and high energystates:    0.47481


:NLDA  : NUMBER OF ELECTRONS          =  16.000

:FLDA  : F E R M I - ENERGY           =   1.43582




:POS001: AT.NR.   1 POSITION = 0.00000 0.00000 0.00000  MULTIPLICITY =  1

       LMMAX  5
       LM=   0 0  4 0  4 4  6 0  6 4
:FER DMFT Fermi Energy   0.89193
:EORB    0.24457458
:SUM SUM OF DMFT BAND ENERGIES   -1.17926211

:CHA001: TOTAL CHARGE INSIDE SPHERE   1 =    11.553820
:PCS001: PARTIAL CHARGES SPHERE =  1 S,P,D,F,      D-EG,D-T2G 
:QTL001: 1.9536 4.5925 0.3067 4.7004 0.0000 0.0000 0.0000 0.1554 0.1576 0.0000 0.0000 0.0000
        Q-s-low E-s-low   Q-p-low E-p-low   Q-d-low E-d-low   Q-f-low E-f-low
:EPL001:  1.8715 -2.4544    4.5030 -0.5277    0.0019 -0.3436    0.0007 -0.3461
        Q-s-hi  E-s-hi    Q-p-hi  E-p-hi    Q-d-hi  E-d-hi    Q-f-hi  E-f-hi 
:EPH001:  0.0821  0.7437    0.0895  0.8001    0.3048  0.8245    4.6997  0.9138

:CHA  : TOTAL CHARGE INSIDE UNIT CELL =      16.000000

:ESUM  : SUM OF EIGENVALUES =          -0.873187086


------- epsilon_Pu_16.scfc --------

        1.ATOM      Pu  0+               21 CORE STATES
:1S 001: 1S               -8966.789496320 Ry
:2S 001: 2S               -1687.458346441 Ry
:2PP001: 2P*              -1628.153319865 Ry
:2P 001: 2P               -1315.000581217 Ry
:3S 001: 3S                -427.989656339 Ry
:3PP001: 3P*               -401.065880940 Ry
:3P 001: 3P                -328.503789063 Ry
:3DD001: 3D*               -286.264993456 Ry
:3D 001: 3D                -271.722354205 Ry
:4S 001: 4S                -109.472949115 Ry
:4PP001: 4P*                -97.285142083 Ry
:4P 001: 4P                 -78.140412089 Ry
:4DD001: 4D*                -58.852971263 Ry
:4D 001: 4D                 -55.358536616 Ry
:5S 001: 5S                 -23.633341882 Ry
:5PP001: 5P*                -18.816465207 Ry
:5P 001: 5P                 -14.131017005 Ry
:4FF001: 4F*                -29.957225902 Ry
:4F 001: 4F                 -29.029258960 Ry
:5DD001: 5D*                 -7.100732330 Ry
:5D 001: 5D                  -6.403395189 Ry

------- epsilon_Pu_16.scfm --------

       DENSITY AT NUCLEUS
        JATOM    VALENCE       SEMI-CORE            CORE           TOTAL
:RTO001:   1    23478.655672        0.000000 45141808.002145 45165286.657817
     
       CHARGES OF NEW CHARGE DENSITY
:NTO  : TOTAL   INTERSTITIAL CHARGE=    4.4461781
:NTO001: TOTAL   CHARGE IN SPHERE  1 =       89.5443972

:NEC01: NUCLEAR AND ELECTRONIC CHARGE     94.00000    93.99058     1.00010
     
       CHARGES OF OLD CHARGE DENSITY
:OTO  : TOTAL   INTERSTITIAL CHARGE=    4.4559525
:OTO001: TOTAL   CHARGE IN SPHERE  1 =       89.5440475

:NEC02: NUCLEAR AND ELECTRONIC CHARGE     94.00000    94.00000     1.00000
     
       CONVERGENCE TEST
:DTO001: TOTAL   DIFFERENCE CHARGE**2 IN SPHERE  1 =  0.0006306

:DIS  :  CHARGE DISTANCE       ( 0.0006306 for atom    1 spin 1)      0.0006306
:BIG check (qbig,qrms,qtot)    0.210D-03   0.446D-03   0.631D-03
 
******************************************************
* MULTISECANT MIXING VER4 OPTIONS                    *
* Unpredicted Step Limit   0.100000                  *
* Plane Wave Dynamic Rescaling                       *
* Dynamic Regularization active                      *
* Upper Cutoff Lambda  1.0E-01 Lower 3.5E-04         *
* SQRT Multiplicity/Degeneracy                       *
* Max Number of Memory Steps    8                    *
******************************************************
 
:PLANE:  INTERSTITIAL TOTAL      1.84405 DISTAN  8.195E-03 % 
:CHARG:  CLM CHARGE   /ATOM    713.22994 DISTAN  5.574E-04 % 
:INFO :  Dynamic rescale   2.853E+01  1.000E-01
:INFO :  Number of Memory Steps    3 Skipping    0
:INFO :  Singular value   3.734E+00 Weight   1.000E+00 Projections   1.172E-02  2.182E-04
:INFO :  Singular value   6.262E-02 Weight   9.994E-01 Projections   9.220E-03 -2.568E-02
:INFO :  Singular value   7.423E-05 Weight   2.235E-03 Projections  -2.092E-02 -8.749E-04
:INFO :  Bounds         0.850D-01  0.200D+00  0.151D+00  0.850D-01
:DIRM :  MEMORY 3/8 RESCALE  28.53 RED 0.909 PRED 0.991 NEXT 0.660 COND 1.24E+00
:DIRP :  |BROYD|= 2.408E-03 |PRATT|= 3.665E-04 ANGLE=  15.3 DEGREES
:DIRB :  |BROYD|= 3.192E-03 |PRATT|= 4.985E-04 ANGLE=  16.3 DEGREES
:MIX  :  MSR1   REGULARIZATION: 1.57E-03  GREED: 0.085
     
       CHARGES OF MIXED CHARGE DENSITY
:CTO  : TOTAL   INTERSTITIAL CHARGE=    4.4555101
:CTO001: TOTAL   CHARGE IN SPHERE  1 =       89.5444899

:NEC03: NUCLEAR AND ELECTRONIC CHARGE     94.00000    94.00000     1.00000


:ENE  : ********** TOTAL ENERGY IN Ry =       -59354.72958401

