
:LABEL1: Calculations in /home/ykent/GWIEN/example/Pr/aU/V8/case
:LABEL2: on didymium-2.cmpgroup.ameslab.gov at Fri Jul 10 13:23:19 CDT 2020
:LABEL3: using WIEN2k_19.1 (Release 25/6/2019) in /home/ykent/opt/src/WIEN2k_19.1
:LABEL4: using the command: run_lapw -cc 0.0001
 Flat Integration
 New Mode for Coulomb Integral
 Consistent 3/8+Simpson combinations
 Extension of core to zero
 LDM version in phi
 Fifth-order quadrature in outwin


            ---------
:ITE001:  1. ITERATION
            ---------

:NATO :    1 INDEPENDENT AND    2 TOTAL ATOMS IN UNITCELL
       SUBSTANCE: aU                                                          

       LATTICE                      = CXY 
:POT  : POTENTIAL OPTION EX_LDA EC_LDA VX_LDA VC_LDA
:LAT  : LATTICE CONSTANTS=  5.66945 11.50475  9.93229    1.571    1.571    1.571
:VOL  : UNIT CELL VOLUME =     323.91998
       MODE OF CALCULATION IS       = RELA
       NON-SPINPOLARIZED CALCULATION
:IFFT  : FFT-parameters:   48   90   80 Factor: 2.00


   CONVERGENCE PARAMETER FOR PSEUDOCHARGE: NCON=  9
   MAXIMAL VALUE OF RMT(JATOM)*ABSK(NKK) : RK  =27.59882


:VKCOUL :  VK-COUL convergence: 0.199E-06
       ATOMNUMBER=  1 Pr1        VCOUL-ZERO =  0.44945E+00
:EFG001:                        EFG         =    -0.05955   *10**21  V / m**2
                               V20  TOT/SRF=    -0.05157    -0.06291
                               V22  TOT/SRF=     0.00821     0.00975
                               V22M TOT/SRF=     0.00000     0.00000
                               V21  TOT/SRF=     0.00000     0.00000
                               V21M TOT/SRF=     0.00000     0.00000

              0.03799    0.00000    0.00000        0.03799    0.00000    0.00000
              0.00000    0.02156    0.00000        0.00000    0.02156    0.00000
              0.00000    0.00000   -0.05955        0.00000    0.00000   -0.05955

         MAIN DIRECTIONS OF THE EFG   1.0000  0.0000  0.0000
                                      0.0000  1.0000  0.0000
                                      0.0000  0.0000  1.0000
:ANG001:  ANGLE WITH OLD X-AXIS =         0.0

:ETA001:                         ASYMM. ETA =     0.27577


     HELLMANN-FEYNMAN-FORCE IN mRy/a.u. = |F|  Fx       Fy             Fz
:FHF001:   1.ATOM    661.306693815826      0.000000000000      0.000000000000   -661.306693815826

:FIT001: LUSE= 13 SIGMA OF V-XC FIT FOR ATOM  1  0.1362812E-04
:FIT001: LUSE= 13 SIGMA OF V-XC FIT FOR ATOM  1  0.1362812E-04
:DEN  : DENSITY INTEGRAL  =        -14206.24993850   (Ry)
       ELS_POTENTIAL_AT Z=0 and Z=0.5:   0.90061   0.90061
       ELS_POTENTIAL_AT Y=0 and Y=0.5:   0.00201   0.00201
:VZERO:v0,v0c,v0x   0.21192   0.90061  -0.68869 v5,v5c,v5x   0.21192   0.90061  -0.68869
:VZERY:v0,v0c,v0x  -0.89930   0.00201  -0.90131 v5,v5c,v5x  -0.89930   0.00201  -0.90131
:VZERX:v0,v0c,v0x  -1.22761  -0.38269  -0.84492 v5,v5c,v5x  -1.22761  -0.38269  -0.84492
:LMAX-WF:   10   Non-Spherical LMAX:   4

          ATOMIC SPHERE DEPENDENT PARAMETERS FOR ATOM  Pr1       
:e__0001: OVERALL ENERGY PARAMETER IS    0.3000
          OVERALL BASIS SET ON ATOM IS LAPW
:E0_0001: E( 0)=    0.3000
             APW+lo
:E0_0001: E( 0)=   -1.5941   E(BOTTOM)=   -2.243   E(TOP)=   -0.945  4  5   224
             LOCAL ORBITAL
:E1_0001: E( 1)=    0.7000
             APW+lo
:E1_0001: E( 1)=   -0.1318   E(BOTTOM)=   -1.106   E(TOP)=    0.843  3  4   226
             LOCAL ORBITAL
:E3_0001: E( 3)=    0.8682   E(BOTTOM)=    0.868   E(TOP)= -200.000  0 -1   113
             APW+lo
:E2_0001: E( 2)=    0.6243   E(BOTTOM)=    0.624   E(TOP)= -200.000  2 -1   101
             APW+lo

       K=   0.06250   0.00000   0.06250            1
:RKM  : MATRIX SIZE   315LOs:  40  RKM= 8.49  WEIGHT= 4.00  PGR:    
       EIGENVALUES ARE:
:EIG00001:      -1.6154124   -1.5580539   -0.4300006   -0.2189669   -0.1721145
:EIG00006:      -0.1570316   -0.1407316   -0.1362438    0.8027765    0.8567554
:EIG00011:       1.0062321    1.0414182    1.0434107    1.0468314    1.0657499
:EIG00016:       1.0966400    1.0981265    1.1065317    1.1087074    1.1157228
:EIG00021:       1.1215266    1.1248839    1.1336319    1.1565363    1.1601112
:EIG00026:       1.1687652    1.2260318    1.2342539    1.2990480    1.3371852
:EIG00031:       1.3637009    1.5277004    1.5419622    1.6249964    1.9240652
:EIG00036:       1.9736169
       ********************************************************

:KPT   :      NUMBER OF K-POINTS:   288
:GAP (global)   :    0.0    Ry =     0.0   eV (metal)
         Bandranges (emin - emax) and occupancy:
:BAN00005:   5   -0.355702   -0.172115  2.00000000
:BAN00006:   6   -0.323691   -0.145640  2.00000000
:BAN00007:   7   -0.278040   -0.137779  2.00000000
:BAN00008:   8   -0.191741   -0.125710  2.00000000
:BAN00009:   9    0.783829    0.952269  2.00000000
:BAN00010:  10    0.831868    0.980126  2.00000000
:BAN00011:  11    0.864085    1.049971  2.00000000
:BAN00012:  12    0.943460    1.061926  1.99721805
:BAN00013:  13    0.978375    1.092708  1.50215533
:BAN00014:  14    1.024649    1.098058  0.49531963
:BAN00015:  15    1.056757    1.109344  0.00530699
:BAN00016:  16    1.069501    1.110999  0.00000000
:BAN00017:  17    1.090798    1.114851  0.00000000
:BAN00018:  18    1.098156    1.118796  0.00000000
:BAN00019:  19    1.103991    1.126970  0.00000000
:BAN00020:  20    1.109094    1.129269  0.00000000
        Energy to separate low and high energystates:    0.73383


:NOE  : NUMBER OF ELECTRONS          =   26.000

:FER  : F E R M I - ENERGY(TETRAH.M.)=   1.0585039450
:GMA  : POTENTIAL AND CHARGE CUT-OFF  12.00 Ry**.5

:POS001: ATOM   -1 X,Y,Z = 0.00000 0.89750 0.25000  MULT= 2  ZZ= 59.000  Pr1       

       LMMAX 16
       LM=   0 0  1 0  2 0  2 2  3 0  3 2  4 0  4 2  4 4  5 0  5 2  5 4  6 0  6 2  6 4  6 6

:CHA001: TOTAL VALENCE CHARGE INSIDE SPHERE   1 =   9.1428    (RMT=  2.3000 )
:PCS001: PARTIAL CHARGES SPHERE =  1 S,P,D,F,PX,PY,PZ,D-Z2,D-X2Y2,D-XY,D-XZ,D-YZ 
:QTL001: 1.9495 4.9785 1.0031 1.2094 1.6552 1.6546 1.6687 0.1989 0.2065 0.1914 0.2017 0.2045
        Q-s-low E-s-low   Q-p-low E-p-low   Q-d-low E-d-low   Q-f-low E-f-low
:EPL001:  1.8628 -1.5542    4.8484 -0.2597    0.0135 -0.3069    0.0039 -0.3152
        Q-s-hi  E-s-hi    Q-p-hi  E-p-hi    Q-d-hi  E-d-hi    Q-f-hi  E-f-hi 
:EPH001:  0.0868  0.9224    0.1301  0.9600    0.9896  0.9396    1.2055  1.0124

                      VXX         VYY         VZZ       UP TO R
:VZZ001:             4.65324     7.41448   -12.06772       2.300

:CHA  : TOTAL VALENCE CHARGE INSIDE UNIT CELL =      26.000000

:SUM  : SUM OF EIGENVALUES =           0.152388466


        1.ATOM      Pr1                  14 CORE STATES
       CORE-FORCE in mRy/a.u. = |F|      Fx             Fy             Fz
:FCO001:   1.ATOM    533.960865623633      0.000000000000      0.000000000000    533.960865623633

:1S 001: 1S               -3066.436241230 Ry
:2S 001: 2S                -492.202121903 Ry
:2PP001: 2P*               -465.299700771 Ry
:2P 001: 2P                -429.902918489 Ry
:3S 001: 3S                -105.300871914 Ry
:3PP001: 3P*                -93.838202696 Ry
:3P 001: 3P                 -86.830939119 Ry
:3DD001: 3D*                -66.757028399 Ry
:3D 001: 3D                 -65.245637933 Ry
:4S 001: 4S                 -19.992406327 Ry
:4PP001: 4P*                -15.699960172 Ry
:4P 001: 4P                 -14.173749212 Ry
:4DD001: 4D*                 -7.109405130 Ry
:4D 001: 4D                  -6.840481053 Ry
:CINT001 Core Integral Atom   1   45.998407

       DENSITY AT NUCLEUS
        JATOM        VALENCE       SEMI-CORE          CORE           TOTAL
:RTO001:   1      646.598520        0.000000   656819.318792   657465.917312
     
       CHARGES OF NEW CHARGE DENSITY
:NTO   : INTERSTITIAL CHARGE =     7.714408
:NPC   : PW Pseudocharge     =    17.922525
:NTO001: CHARGE SPHERE  1    =    55.141202

:NEC01: NUCLEAR AND ELECTRONIC CHARGE    118.00000   117.99681
     
       CHARGES OF OLD CHARGE DENSITY
:OTO   : INTERSTITIAL CHARGE =     6.437006
:OPC   : PW Pseudocharge     =    16.253228
:OTO001: CHARGE SPHERE  1    =    55.782136

:NEC02: NUCLEAR AND ELECTRONIC CHARGE    118.00000   118.00128
     
       CONVERGENCE TEST
:DTO001: DIFFERENCE IN SPHERE  1 =  1.1407555

:DIS  :  CHARGE DISTANCE       ( 1.1407555 for atom    1 spin 1)      1.1407555
 PW Mixed is          345
 
******************************************************
* MULTISECANT MIXING VER9 RELEASE 10.4.0              *
* Standard Mode with controls                        *
* Fixed density scale                                *
* Regularization       1.000E-04                     *
* Trust Upper Limit    5.000E+00                     *
* Max Number of Memory Steps    8                    *
******************************************************
 
:PWTMP   2.2199E+02  1.9467E+02  3.2392E+02
:PLANE:  PW TOTAL      5.2743 DISTAN   7.07E-01  1.34E+01 %
:CHARG:  CLM/ATOM   1382.0550 DISTAN   1.65E+00  1.19E-01 %
INFO: Reducing dbase  2.50000E-02 1.14076E+00 2.34069E-02
 
Step History
        DMIX         DMIXT        Red     Pred      Trust     Lambda    MagRel    MagAbs     Beta
  1   3.5000E-02   3.5000E-02 -1.00E+00  1.00E+00 -1.00E+01  1.00E+00  3.50E-02  3.50E-02  1.00E+00
:INFO :  Note, Pratt in use
INFO: Reducing dbase  2.34069E-02 1.14076E+00 2.19153E-02
:TRUST:  Step 3.75E-02  Charge 7.50E-02 (e) CTO  2.50E-01 (e) PW  3.50E-01 (e)
:DIRM :  MEMORY  0/ 8 SCALE   1.000
Performing Pseudo Compensation
Final Pseudo Compensation Rescaling     1.00000E+00
:MIX  :   PRATT  REGULARIZATION:  1.00E-04 GREED: 0.02500                  
     
       CHARGES OF MIXED CHARGE DENSITY
:CTO   : INTERSTITIAL CHARGE =     6.467775
:CPC   : PW Pseudocharge     =    17.138233
:CTO001: CHARGE SPHERE  1    =    55.766112

:NEC03: NUCLEAR AND ELECTRONIC CHARGE    118.00000   118.00000

PW CHANGE     H    K    L      Current       Change    Residue
:PTO001:      0    0    0  7.28760474E-02  2.841E-03  9.144E-03
:PTO003:      0    2    0  1.71507189E-02  1.217E-03  2.525E-03
:PTO004:     -1    1    0  8.21617651E-02  6.423E-03  9.294E-03
:PTO005:      0    2   -1 -9.52446720E-02 -7.563E-03 -9.121E-03
:PTO006:      0    0   -2 -4.93931954E-02 -3.926E-03 -4.505E-03
:PTO007:     -1    1   -1 -1.00334829E-01 -8.787E-03 -8.437E-03
:PTO008:      0    2   -2 -1.50319202E-02 -1.703E-03 -1.409E-03
:PTO009:     -1    1   -2 -7.26918135E-02 -9.142E-03 -8.863E-03
:PTO011:     -1    3    0 -1.06246434E-02 -1.717E-03 -1.932E-03
:PTO012:     -1    3   -1 -4.51047108E-02 -8.338E-03 -9.463E-03
:PTO013:      0    4    0 -7.81154682E-03 -1.699E-03 -1.857E-03
:PTO014:      0    2   -3  1.75555587E-02  3.867E-03  5.052E-03

:ENE  : ********** TOTAL ENERGY IN Ry =       -36944.40132071

       TOTAL FORCE IN mRy/a.u. = |F|     Fx             Fy             Fz     with/without FOR in case.in2
:FOR001:   1.ATOM        127.346          0.000          0.000       -127.346 partial forces
       TOTAL FORCE WITH RESPECT TO GLOBAL CARTESIAN COORDINATES:
:FCA001:   1.ATOM                         0.000       -127.346          0.000 partial forces
       TOTAL FORCE WITH RESPECT TO THE GLOBAL COORDINATE SYSTEM:
:FGL001:   1.ATOM                 0.000000000  -127.345828192     0.000000000 partial forces
 Flat Integration
 New Mode for Coulomb Integral
 Consistent 3/8+Simpson combinations
 Extension of core to zero
 LDM version in phi
 Fifth-order quadrature in outwin


            ---------
:ITE002:  2. ITERATION
            ---------

:NATO :    1 INDEPENDENT AND    2 TOTAL ATOMS IN UNITCELL
       SUBSTANCE: aU                                                          

       LATTICE                      = CXY 
:POT  : POTENTIAL OPTION EX_LDA EC_LDA VX_LDA VC_LDA
:LAT  : LATTICE CONSTANTS=  5.66945 11.50475  9.93229    1.571    1.571    1.571
:VOL  : UNIT CELL VOLUME =     323.91998
       MODE OF CALCULATION IS       = RELA
       NON-SPINPOLARIZED CALCULATION
:IFFT  : FFT-parameters:   48   90   80 Factor: 2.00


   CONVERGENCE PARAMETER FOR PSEUDOCHARGE: NCON=  9
   MAXIMAL VALUE OF RMT(JATOM)*ABSK(NKK) : RK  =27.59882


:VKCOUL :  VK-COUL convergence: 0.125E-06
       ATOMNUMBER=  1 Pr1        VCOUL-ZERO =  0.45563E+00
:EFG001:                        EFG         =    -0.36156   *10**21  V / m**2
                               V20  TOT/SRF=    -0.31312    -0.06264
                               V22  TOT/SRF=    -0.02674     0.00901
                               V22M TOT/SRF=     0.00000     0.00000
                               V21  TOT/SRF=     0.00000     0.00000
                               V21M TOT/SRF=     0.00000     0.00000

              0.15404    0.00000    0.00000        0.15404    0.00000    0.00000
              0.00000    0.20751    0.00000        0.00000    0.20751    0.00000
              0.00000    0.00000   -0.36156        0.00000    0.00000   -0.36156

         MAIN DIRECTIONS OF THE EFG   1.0000  0.0000  0.0000
                                      0.0000  1.0000  0.0000
                                      0.0000  0.0000  1.0000
:ANG001:  ANGLE WITH OLD X-AXIS =         0.0

:ETA001:                         ASYMM. ETA =     0.14789


     HELLMANN-FEYNMAN-FORCE IN mRy/a.u. = |F|  Fx       Fy             Fz
:FHF001:   1.ATOM    662.952752999182      0.000000000000      0.000000000000   -662.952752999182

:FIT001: LUSE= 13 SIGMA OF V-XC FIT FOR ATOM  1  0.1400122E-04
:FIT001: LUSE= 13 SIGMA OF V-XC FIT FOR ATOM  1  0.1400122E-04
:DEN  : DENSITY INTEGRAL  =        -14203.47961959   (Ry)
       ELS_POTENTIAL_AT Z=0 and Z=0.5:   0.90920   0.90920
       ELS_POTENTIAL_AT Y=0 and Y=0.5:   0.00571   0.00571
:VZERO:v0,v0c,v0x   0.21946   0.90920  -0.68974 v5,v5c,v5x   0.21946   0.90920  -0.68974
:VZERY:v0,v0c,v0x  -0.89963   0.00571  -0.90535 v5,v5c,v5x  -0.89963   0.00571  -0.90535
:VZERX:v0,v0c,v0x  -1.24176  -0.38957  -0.85219 v5,v5c,v5x  -1.24176  -0.38957  -0.85219
:LMAX-WF:   10   Non-Spherical LMAX:   4

          ATOMIC SPHERE DEPENDENT PARAMETERS FOR ATOM  Pr1       
:e__0001: OVERALL ENERGY PARAMETER IS    0.5000
          OVERALL BASIS SET ON ATOM IS LAPW
:E0_0001: E( 0)=    0.5000
             APW+lo
:E0_0001: E( 0)=   -1.5998   E(BOTTOM)=   -2.246   E(TOP)=   -0.953  4  5   222
             LOCAL ORBITAL
:E1_0001: E( 1)=    0.9000
             APW+lo
:E1_0001: E( 1)=   -0.1361   E(BOTTOM)=   -1.108   E(TOP)=    0.835  3  4   231
             LOCAL ORBITAL
:E3_0001: E( 3)=    0.8562   E(BOTTOM)=    0.856   E(TOP)= -200.000  0 -1    94
             APW+lo
:E2_0001: E( 2)=    0.6242   E(BOTTOM)=    0.624   E(TOP)= -200.000  2 -1    79
             APW+lo

       K=   0.06250   0.00000   0.06250            1
:RKM  : MATRIX SIZE   315LOs:  40  RKM= 8.49  WEIGHT= 4.00  PGR:    
       EIGENVALUES ARE:
:EIG00001:      -1.6198107   -1.5630939   -0.4303290   -0.2214351   -0.1749693
:EIG00006:      -0.1599209   -0.1435975   -0.1393588    0.8071116    0.8609504
:EIG00011:       1.0044617    1.0330870    1.0363069    1.0363160    1.0550175
:EIG00016:       1.0849559    1.0913568    1.0942279    1.0960262    1.1018990
:EIG00021:       1.1083523    1.1128207    1.1196043    1.1409758    1.1460998
:EIG00026:       1.1562523    1.2259932    1.2310583    1.2994355    1.3376663
:EIG00031:       1.3642575    1.5291882    1.5423293    1.6249690    1.9257652
:EIG00036:       1.9754282    2.0084707    2.1597804
       ********************************************************

:KPT   :      NUMBER OF K-POINTS:   288
:GAP (global)   :    0.0    Ry =     0.0   eV (metal)
         Bandranges (emin - emax) and occupancy:
:BAN00005:   5   -0.356921   -0.174969  2.00000000
:BAN00006:   6   -0.325026   -0.148656  2.00000000
:BAN00007:   7   -0.279790   -0.140877  2.00000000
:BAN00008:   8   -0.194191   -0.128939  2.00000000
:BAN00009:   9    0.788652    0.953952  2.00000000
:BAN00010:  10    0.836298    0.979655  2.00000000
:BAN00011:  11    0.868149    1.042784  2.00000000
:BAN00012:  12    0.945030    1.050873  1.99733892
:BAN00013:  13    0.977534    1.079402  1.49287691
:BAN00014:  14    1.018991    1.089738  0.50227688
:BAN00015:  15    1.047268    1.096361  0.00750727
:BAN00016:  16    1.059820    1.096998  0.00000000
:BAN00017:  17    1.078308    1.102032  0.00000000
:BAN00018:  18    1.085387    1.104410  0.00000000
:BAN00019:  19    1.091414    1.112879  0.00000000
:BAN00020:  20    1.097014    1.115926  0.00000000
        Energy to separate low and high energystates:    0.73865


:NOE  : NUMBER OF ELECTRONS          =   26.000

:FER  : F E R M I - ENERGY(TETRAH.M.)=   1.0492548566
:GMA  : POTENTIAL AND CHARGE CUT-OFF  12.00 Ry**.5

:POS001: ATOM   -1 X,Y,Z = 0.00000 0.89750 0.25000  MULT= 2  ZZ= 59.000  Pr1       

       LMMAX 16
       LM=   0 0  1 0  2 0  2 2  3 0  3 2  4 0  4 2  4 4  5 0  5 2  5 4  6 0  6 2  6 4  6 6

:CHA001: TOTAL VALENCE CHARGE INSIDE SPHERE   1 =   9.2436    (RMT=  2.3000 )
:PCS001: PARTIAL CHARGES SPHERE =  1 S,P,D,F,PX,PY,PZ,D-Z2,D-X2Y2,D-XY,D-XZ,D-YZ 
:QTL001: 1.9477 4.9784 0.9592 1.3561 1.6558 1.6547 1.6679 0.1890 0.1929 0.1851 0.1947 0.1975
        Q-s-low E-s-low   Q-p-low E-p-low   Q-d-low E-d-low   Q-f-low E-f-low
:EPL001:  1.8639 -1.5594    4.8582 -0.2616    0.0133 -0.3088    0.0039 -0.3170
        Q-s-hi  E-s-hi    Q-p-hi  E-p-hi    Q-d-hi  E-d-hi    Q-f-hi  E-f-hi 
:EPH001:  0.0838  0.9221    0.1202  0.9574    0.9460  0.9374    1.3522  1.0071

                      VXX         VYY         VZZ       UP TO R
:VZZ001:             3.42372     7.28092   -10.70464       2.300

:CHA  : TOTAL VALENCE CHARGE INSIDE UNIT CELL =      26.000000

:SUM  : SUM OF EIGENVALUES =           0.105864166


        1.ATOM      Pr1                  14 CORE STATES
       CORE-FORCE in mRy/a.u. = |F|      Fx             Fy             Fz
:FCO001:   1.ATOM    542.891335119574      0.000000000000      0.000000000000    542.891335119574

:1S 001: 1S               -3066.470900682 Ry
:2S 001: 2S                -492.236249316 Ry
:2PP001: 2P*               -465.333899895 Ry
:2P 001: 2P                -429.937086018 Ry
:3S 001: 3S                -105.333677305 Ry
:3PP001: 3P*                -93.871115129 Ry
:3P 001: 3P                 -86.863677073 Ry
:3DD001: 3D*                -66.790085201 Ry
:3D 001: 3D                 -65.278649543 Ry
:4S 001: 4S                 -20.016979467 Ry
:4PP001: 4P*                -15.724030835 Ry
:4P 001: 4P                 -14.197038522 Ry
:4DD001: 4D*                 -7.131292931 Ry
:4D 001: 4D                  -6.862100172 Ry
:CINT001 Core Integral Atom   1   45.998429

       DENSITY AT NUCLEUS
        JATOM        VALENCE       SEMI-CORE          CORE           TOTAL
:RTO001:   1      646.857602        0.000000   656821.117551   657467.975154
     
       CHARGES OF NEW CHARGE DENSITY
:NTO   : INTERSTITIAL CHARGE =     7.512876
:NPC   : PW Pseudocharge     =    17.837157
:NTO001: CHARGE SPHERE  1    =    55.241990

:NEC01: NUCLEAR AND ELECTRONIC CHARGE    118.00000   117.99685
     
       CHARGES OF OLD CHARGE DENSITY
:OTO   : INTERSTITIAL CHARGE =     6.467775
:OPC   : PW Pseudocharge     =    17.138233
:OTO001: CHARGE SPHERE  1    =    55.766112

:NEC02: NUCLEAR AND ELECTRONIC CHARGE    118.00000   118.00000
     
       CONVERGENCE TEST
:DTO001: DIFFERENCE IN SPHERE  1 =  0.9305997

:DIS  :  CHARGE DISTANCE       ( 0.9305997 for atom    1 spin 1)      0.9305997
 PW Mixed is          345
 
******************************************************
* MULTISECANT MIXING VER9 RELEASE 10.4.0              *
* Slow Mode, cautious                                *
* Fixed density scale                                *
* Regularization       1.000E-04                     *
* Step Trust Radius    0.75000                       *
* Trust Upper Limit    2.000E+00                     *
* Max Number of Memory Steps   12                    *
******************************************************
 
:PWTMP   2.2199E+02  1.9467E+02  3.2392E+02
:PLANE:  PW TOTAL      5.6728 DISTAN   3.00E-01  5.29E+00 %
:CHARG:  CLM/ATOM   1382.0488 DISTAN   1.36E+00  9.85E-02 %
 
Step History
        DMIX         DMIXT        Red     Pred      Trust     Lambda    MagRel    MagAbs     Beta
  1   3.5000E-02   3.5000E-02 -1.00E+00  1.00E+00 -1.00E+01  1.00E+00  3.50E-02  3.50E-02  1.00E+00
  2   2.5000E-02   2.5000E-02 -1.00E+00  1.00E+00 -1.00E+01  1.00E+00  2.50E-02  4.48E-02  1.00E+00
:JACOBIANS    3.572E-01   1.789E-02
  
:TRUST:  Step 4.48E-02  Charge 7.50E-02 (e) CTO  2.50E-01 (e) PW  3.50E-01 (e)
:DIRM :  MEMORY  1/12 SCALE   1.000
:MIX  :   PRATT  REGULARIZATION:  1.00E-04 GREED: 0.04477  Expand 1.79  0.0448 Step           
     
       CHARGES OF MIXED CHARGE DENSITY
:CTO   : INTERSTITIAL CHARGE =     6.481890
:CPC   : PW Pseudocharge     =    17.529441
:CTO001: CHARGE SPHERE  1    =    55.759055

:NEC03: NUCLEAR AND ELECTRONIC CHARGE    118.00000   118.00000

PW CHANGE     H    K    L      Current       Change    Residue
:PTO001:      0    0    0  7.41273534E-02  1.251E-03  5.417E-03
:PTO003:      0    2    0  1.76868653E-02  5.361E-04  1.311E-03
:PTO004:     -1    1    0  8.49906296E-02  2.829E-03  2.952E-03
:PTO005:      0    2   -1 -9.85756567E-02 -3.331E-03 -1.528E-03
:PTO006:      0    0   -2 -5.11223368E-02 -1.729E-03 -5.809E-04
:PTO007:     -1    1   -1 -1.04204841E-01 -3.870E-03  1.511E-04
:PTO008:      0    2   -2 -1.57821262E-02 -7.502E-04  2.985E-04
:PTO009:     -1    1   -2 -7.67184036E-02 -4.027E-03  1.026E-04
:PTO011:     -1    3    0 -1.13810388E-02 -7.564E-04 -2.669E-04
:PTO012:     -1    3   -1 -4.87771759E-02 -3.672E-03 -1.259E-03
:PTO013:      0    4    0 -8.55988139E-03 -7.483E-04 -1.560E-04
:PTO014:      0    2   -3  1.92586804E-02  1.703E-03  1.166E-03

:ENE  : ********** TOTAL ENERGY IN Ry =       -36944.36360048

       TOTAL FORCE IN mRy/a.u. = |F|     Fx             Fy             Fz     with/without FOR in case.in2
:FOR001:   1.ATOM        120.061          0.000          0.000       -120.061 partial forces
       TOTAL FORCE WITH RESPECT TO GLOBAL CARTESIAN COORDINATES:
:FCA001:   1.ATOM                         0.000       -120.061          0.000 partial forces
       TOTAL FORCE WITH RESPECT TO THE GLOBAL COORDINATE SYSTEM:
:FGL001:   1.ATOM                 0.000000000  -120.061417880     0.000000000 partial forces
 Flat Integration
 New Mode for Coulomb Integral
 Consistent 3/8+Simpson combinations
 Extension of core to zero
 LDM version in phi
 Fifth-order quadrature in outwin


            ---------
:ITE003:  3. ITERATION
            ---------

:NATO :    1 INDEPENDENT AND    2 TOTAL ATOMS IN UNITCELL
       SUBSTANCE: aU                                                          

       LATTICE                      = CXY 
:POT  : POTENTIAL OPTION EX_LDA EC_LDA VX_LDA VC_LDA
:LAT  : LATTICE CONSTANTS=  5.66945 11.50475  9.93229    1.571    1.571    1.571
:VOL  : UNIT CELL VOLUME =     323.91998
       MODE OF CALCULATION IS       = RELA
       NON-SPINPOLARIZED CALCULATION
:IFFT  : FFT-parameters:   48   90   80 Factor: 2.00


   CONVERGENCE PARAMETER FOR PSEUDOCHARGE: NCON=  9
   MAXIMAL VALUE OF RMT(JATOM)*ABSK(NKK) : RK  =27.59882


:VKCOUL :  VK-COUL convergence: 0.128E-06
       ATOMNUMBER=  1 Pr1        VCOUL-ZERO =  0.45838E+00
:EFG001:                        EFG         =    -0.49458   *10**21  V / m**2
                               V20  TOT/SRF=    -0.42832    -0.06252
                               V22  TOT/SRF=    -0.04212     0.00869
                               V22M TOT/SRF=     0.00000     0.00000
                               V21  TOT/SRF=     0.00000     0.00000
                               V21M TOT/SRF=     0.00000     0.00000

              0.20517    0.00000    0.00000        0.20517    0.00000    0.00000
              0.00000    0.28941    0.00000        0.00000    0.28941    0.00000
              0.00000    0.00000   -0.49458        0.00000    0.00000   -0.49458

         MAIN DIRECTIONS OF THE EFG   1.0000  0.0000  0.0000
                                      0.0000  1.0000  0.0000
                                      0.0000  0.0000  1.0000
:ANG001:  ANGLE WITH OLD X-AXIS =         0.0

:ETA001:                         ASYMM. ETA =     0.17034


     HELLMANN-FEYNMAN-FORCE IN mRy/a.u. = |F|  Fx       Fy             Fz
:FHF001:   1.ATOM    663.881712248642      0.000000000000      0.000000000000   -663.881712248642

:FIT001: LUSE= 13 SIGMA OF V-XC FIT FOR ATOM  1  0.1418692E-04
:FIT001: LUSE= 13 SIGMA OF V-XC FIT FOR ATOM  1  0.1418692E-04
:DEN  : DENSITY INTEGRAL  =        -14202.26393914   (Ry)
       ELS_POTENTIAL_AT Z=0 and Z=0.5:   0.91306   0.91306
       ELS_POTENTIAL_AT Y=0 and Y=0.5:   0.00734   0.00734
:VZERO:v0,v0c,v0x   0.22283   0.91306  -0.69024 v5,v5c,v5x   0.22283   0.91306  -0.69024
:VZERY:v0,v0c,v0x  -0.89977   0.00734  -0.90712 v5,v5c,v5x  -0.89977   0.00734  -0.90712
:VZERX:v0,v0c,v0x  -1.24791  -0.39263  -0.85527 v5,v5c,v5x  -1.24791  -0.39263  -0.85527
:LMAX-WF:   10   Non-Spherical LMAX:   4

          ATOMIC SPHERE DEPENDENT PARAMETERS FOR ATOM  Pr1       
:e__0001: OVERALL ENERGY PARAMETER IS    0.7000
          OVERALL BASIS SET ON ATOM IS LAPW
:E0_0001: E( 0)=    0.7000
             APW+lo
:E0_0001: E( 0)=   -1.6023   E(BOTTOM)=   -2.248   E(TOP)=   -0.957  4  5   218
             LOCAL ORBITAL
:E1_0001: E( 1)=    1.1000
             APW+lo
:E1_0001: E( 1)=   -0.1380   E(BOTTOM)=   -1.108   E(TOP)=    0.832  3  4   230
             LOCAL ORBITAL
:E3_0001: E( 3)=    1.0660   E(BOTTOM)=    0.851   E(TOP)=    1.281  0  1   135
             APW+lo
:E2_0001: E( 2)=    0.7000   E(BOTTOM)=    0.624   E(TOP)= -200.000  2 -1   115
             APW+lo

       K=   0.06250   0.00000   0.06250            1
:RKM  : MATRIX SIZE   315LOs:  40  RKM= 8.49  WEIGHT= 4.00  PGR:    
       EIGENVALUES ARE:
:EIG00001:      -1.6217155   -1.5652775   -0.4304379   -0.2224647   -0.1761894
:EIG00006:      -0.1611237   -0.1447982   -0.1406803    0.8090842    0.8628436
:EIG00011:       1.0033592    1.0291296    1.0315282    1.0327678    1.0501699
:EIG00016:       1.0789546    1.0876019    1.0884798    1.0913831    1.0955830
:EIG00021:       1.1022554    1.1073948    1.1130969    1.1337505    1.1397444
:EIG00026:       1.1508798    1.2260199    1.2296034    1.2994908    1.3376511
:EIG00031:       1.3642522    1.5294535    1.5417027    1.6238237    1.9196131
:EIG00036:       1.9683096    2.0024550    2.1579444    2.2265976    2.3056180
       ********************************************************

:KPT   :      NUMBER OF K-POINTS:   288
:GAP (global)   :    0.0    Ry =     0.0   eV (metal)
         Bandranges (emin - emax) and occupancy:
:BAN00005:   5   -0.357377   -0.176189  2.00000000
:BAN00006:   6   -0.325562   -0.149907  2.00000000
:BAN00007:   7   -0.280506   -0.142170  2.00000000
:BAN00008:   8   -0.195181   -0.130305  2.00000000
:BAN00009:   9    0.790825    0.954590  2.00000000
:BAN00010:  10    0.838291    0.979251  2.00000000
:BAN00011:  11    0.869974    1.038740  2.00000000
:BAN00012:  12    0.945633    1.045870  1.99849049
:BAN00013:  13    0.976975    1.073387  1.48729553
:BAN00014:  14    1.016214    1.084873  0.50727580
:BAN00015:  15    1.042999    1.090608  0.00693818
:BAN00016:  16    1.055287    1.090730  0.00000000
:BAN00017:  17    1.072458    1.096144  0.00000000
:BAN00018:  18    1.079596    1.097799  0.00000000
:BAN00019:  19    1.085542    1.106331  0.00000000
:BAN00020:  20    1.091888    1.109663  0.00000000
        Energy to separate low and high energystates:    0.74083


:NOE  : NUMBER OF ELECTRONS          =   26.000

:FER  : F E R M I - ENERGY(TETRAH.M.)=   1.0448854605
:GMA  : POTENTIAL AND CHARGE CUT-OFF  12.00 Ry**.5

:POS001: ATOM   -1 X,Y,Z = 0.00000 0.89750 0.25000  MULT= 2  ZZ= 59.000  Pr1       

       LMMAX 16
       LM=   0 0  1 0  2 0  2 2  3 0  3 2  4 0  4 2  4 4  5 0  5 2  5 4  6 0  6 2  6 4  6 6

:CHA001: TOTAL VALENCE CHARGE INSIDE SPHERE   1 =   9.2909    (RMT=  2.3000 )
:PCS001: PARTIAL CHARGES SPHERE =  1 S,P,D,F,PX,PY,PZ,D-Z2,D-X2Y2,D-XY,D-XZ,D-YZ 
:QTL001: 1.9468 4.9783 0.9393 1.4244 1.6560 1.6547 1.6677 0.1846 0.1871 0.1821 0.1913 0.1942
        Q-s-low E-s-low   Q-p-low E-p-low   Q-d-low E-d-low   Q-f-low E-f-low
:EPL001:  1.8645 -1.5616    4.8625 -0.2624    0.0132 -0.3096    0.0040 -0.3180
        Q-s-hi  E-s-hi    Q-p-hi  E-p-hi    Q-d-hi  E-d-hi    Q-f-hi  E-f-hi 
:EPH001:  0.0824  0.9219    0.1158  0.9562    0.9261  0.9364    1.4205  1.0045

                      VXX         VYY         VZZ       UP TO R
:VZZ001:             2.89382     7.22735   -10.12117       2.300

:CHA  : TOTAL VALENCE CHARGE INSIDE UNIT CELL =      26.000000

:SUM  : SUM OF EIGENVALUES =           0.084673687


        1.ATOM      Pr1                  14 CORE STATES
       CORE-FORCE in mRy/a.u. = |F|      Fx             Fy             Fz
:FCO001:   1.ATOM    546.986259194127      0.000000000000      0.000000000000    546.986259194127

:1S 001: 1S               -3066.486133319 Ry
:2S 001: 2S                -492.251247625 Ry
:2PP001: 2P*               -465.348929787 Ry
:2P 001: 2P                -429.952101995 Ry
:3S 001: 3S                -105.348093344 Ry
:3PP001: 3P*                -93.885578317 Ry
:3P 001: 3P                 -86.878063415 Ry
:3DD001: 3D*                -66.804611982 Ry
:3D 001: 3D                 -65.293156421 Ry
:4S 001: 4S                 -20.027770463 Ry
:4PP001: 4P*                -15.734600802 Ry
:4P 001: 4P                 -14.207264544 Ry
:4DD001: 4D*                 -7.140903047 Ry
:4D 001: 4D                  -6.871592077 Ry
:CINT001 Core Integral Atom   1   45.998438

       DENSITY AT NUCLEUS
        JATOM        VALENCE       SEMI-CORE          CORE           TOTAL
:RTO001:   1      646.909871        0.000000   656821.909530   657468.819401
     
       CHARGES OF NEW CHARGE DENSITY
:NTO   : INTERSTITIAL CHARGE =     7.418186
:NPC   : PW Pseudocharge     =    17.796844
:NTO001: CHARGE SPHERE  1    =    55.289344

:NEC01: NUCLEAR AND ELECTRONIC CHARGE    118.00000   117.99687
     
       CHARGES OF OLD CHARGE DENSITY
:OTO   : INTERSTITIAL CHARGE =     6.481890
:OPC   : PW Pseudocharge     =    17.529441
:OTO001: CHARGE SPHERE  1    =    55.759055

:NEC02: NUCLEAR AND ELECTRONIC CHARGE    118.00000   118.00000
     
       CONVERGENCE TEST
:DTO001: DIFFERENCE IN SPHERE  1 =  0.8290200

:DIS  :  CHARGE DISTANCE       ( 0.8290200 for atom    1 spin 1)      0.8290200
 PW Mixed is          345
 
******************************************************
* MULTISECANT MIXING VER9 RELEASE 10.4.0              *
* Standard Mode with controls                        *
* Fixed density scale                                *
* Regularization       1.000E-04                     *
* Trust Upper Limit    5.000E+00                     *
* Max Number of Memory Steps    8                    *
******************************************************
 
:PWTMP   2.2199E+02  1.9467E+02  3.2392E+02
:PLANE:  PW TOTAL      5.8528 DISTAN   2.60E-01  4.45E+00 %
:CHARG:  CLM/ATOM   1382.0461 DISTAN   1.23E+00  8.87E-02 %
 
Step History
        DMIX         DMIXT        Red     Pred      Trust     Lambda    MagRel    MagAbs     Beta
  1   3.5000E-02   3.5000E-02 -1.00E+00  1.00E+00 -1.00E+01  1.00E+00  3.50E-02  3.50E-02  1.00E+00
  2   2.5000E-02   2.5000E-02  7.78E-01  1.00E+00 -1.00E+01  1.00E+00  2.50E-02  4.48E-02  1.00E+00
  3   4.4771E-02   4.4771E-02 -1.00E+00  1.00E+00 -1.00E+01  1.00E+00  4.48E-02  6.24E-02  1.00E+00
:JACOBIANS    6.449E-01   1.301E-02
  
:NORMS:  1/Froebius, Min, Max, Used   0.8242E+00  0.4865E+00  0.9730E+00  0.8243E+00
:INFO :  Number of Memory Steps    2 Skipping    0
:INFO :  SLambda=    1.2322555674  Max    1.2322555674
:PREDicted Charge, CTotal, PW Trust    5.591E-03   1.118E-02   1.930E-01
:PREDicted DMix, Beta, BLim   1.4995E-02  7.0187E-01  9.9694E-01

Eigenvalues, unscaled except for SY+YY
   #     SY Real        SY Imag          SS             YY         SY+YY Real      SY+YY Imag
   1   1.447224E+00   0.000000E+00   1.358612E+00   1.999504E+00   3.782773E+00   0.000000E+00
   2   6.650236E-14   0.000000E+00   0.000000E+00   4.960895E-04   5.766135E-04   0.000000E+00
 
:INFO :  Singular value  3.783E+00 Weight  1.000E+00 Projection -2.154E-01
:INFO :  Singular value  5.766E-04 Weight  8.927E-01 Projection -3.807E+01
:RANK :  ACTIVE   1.89/2  =  94.63 % ; YY RANK   1.86/2  =  93.01 %
 
:DLIM :  Beta Active  8.000E-01
:BLIM :  VZERO Control Off
:TRUST:  Step 2.77E-01  Charge 7.50E-02 (e) CTO  2.50E-01 (e) PW  3.50E-01 (e)
:DIRM :  MEMORY  2/8  SCALE   1.000 RED  0.90 PRED  1.00 NEXT  0.55 BETA  0.80
:TRAVE:  Charge 5.75E-03 (e) CTO  1.15E-02 (e) PW  3.58E-02 (e)
:DIRP :  |MSR1|= 4.398E-02 |PRATT|= 2.603E-01 ANGLE=  65.9 DEGREES
:DIRQ :  |MSR1|= 1.412E-02 |PRATT|= 1.226E+00 ANGLE=  64.7 DEGREES
:DIRT :  |MSR1|= 4.620E-02 |PRATT|= 1.253E+00 ANGLE=  78.0 DEGREES
:MIX  :   MSE1   REGULARIZATION:  2.00E-04 GREED: 0.02619  Newton 1.00  0.0369                
     
       CHARGES OF MIXED CHARGE DENSITY
:CTO   : INTERSTITIAL CHARGE =     6.493387
:CPC   : PW Pseudocharge     =    17.458447
:CTO001: CHARGE SPHERE  1    =    55.753307

:NEC03: NUCLEAR AND ELECTRONIC CHARGE    118.00000   118.00000

PW CHANGE     H    K    L      Current       Change    Residue
:PTO001:      0    0    0  7.39436738E-02 -1.837E-04  3.749E-03
:PTO003:      0    2    0  1.76164160E-02 -7.045E-05  7.815E-04
:PTO004:     -1    1    0  8.44534151E-02 -5.372E-04  1.534E-04
:PTO005:      0    2   -1 -9.79104627E-02  6.652E-04  1.812E-03
:PTO006:      0    0   -2 -5.07710488E-02  3.513E-04  1.146E-03
:PTO007:     -1    1   -1 -1.03350984E-01  8.539E-04  3.946E-03
:PTO008:      0    2   -2 -1.56137671E-02  1.684E-04  1.051E-03
:PTO009:     -1    1   -2 -7.58440416E-02  8.744E-04  4.058E-03
:PTO011:     -1    3    0 -1.12147290E-02  1.663E-04  4.730E-04
:PTO012:     -1    3   -1 -4.80124050E-02  7.648E-04  2.362E-03
:PTO013:      0    4    0 -8.40715145E-03  1.527E-04  5.916E-04
:PTO014:      0    2   -3  1.89164264E-02 -3.423E-04 -5.497E-04

:ENE  : ********** TOTAL ENERGY IN Ry =       -36944.34922192

       TOTAL FORCE IN mRy/a.u. = |F|     Fx             Fy             Fz     with/without FOR in case.in2
:FOR001:   1.ATOM        116.895          0.000          0.000       -116.895 partial forces
       TOTAL FORCE WITH RESPECT TO GLOBAL CARTESIAN COORDINATES:
:FCA001:   1.ATOM                         0.000       -116.895          0.000 partial forces
       TOTAL FORCE WITH RESPECT TO THE GLOBAL COORDINATE SYSTEM:
:FGL001:   1.ATOM                 0.000000000  -116.895453055     0.000000000 partial forces
 Flat Integration
 New Mode for Coulomb Integral
 Consistent 3/8+Simpson combinations
 Extension of core to zero
 LDM version in phi
 Fifth-order quadrature in outwin


            ---------
:ITE004:  4. ITERATION
            ---------

:NATO :    1 INDEPENDENT AND    2 TOTAL ATOMS IN UNITCELL
       SUBSTANCE: aU                                                          

       LATTICE                      = CXY 
:POT  : POTENTIAL OPTION EX_LDA EC_LDA VX_LDA VC_LDA
:LAT  : LATTICE CONSTANTS=  5.66945 11.50475  9.93229    1.571    1.571    1.571
:VOL  : UNIT CELL VOLUME =     323.91998
       MODE OF CALCULATION IS       = RELA
       NON-SPINPOLARIZED CALCULATION
:IFFT  : FFT-parameters:   48   90   80 Factor: 2.00


   CONVERGENCE PARAMETER FOR PSEUDOCHARGE: NCON=  9
   MAXIMAL VALUE OF RMT(JATOM)*ABSK(NKK) : RK  =27.59882


:VKCOUL :  VK-COUL convergence: 0.127E-06
       ATOMNUMBER=  1 Pr1        VCOUL-ZERO =  0.45841E+00
:EFG001:                        EFG         =    -0.75818   *10**21  V / m**2
                               V20  TOT/SRF=    -0.65660    -0.06148
                               V22  TOT/SRF=    -0.08740     0.00839
                               V22M TOT/SRF=     0.00000     0.00000
                               V21  TOT/SRF=     0.00000     0.00000
                               V21M TOT/SRF=     0.00000     0.00000

              0.29168    0.00000    0.00000        0.29168    0.00000    0.00000
              0.00000    0.46649    0.00000        0.00000    0.46649    0.00000
              0.00000    0.00000   -0.75818        0.00000    0.00000   -0.75818

         MAIN DIRECTIONS OF THE EFG   1.0000  0.0000  0.0000
                                      0.0000  1.0000  0.0000
                                      0.0000  0.0000  1.0000
:ANG001:  ANGLE WITH OLD X-AXIS =         0.0

:ETA001:                         ASYMM. ETA =     0.23056


     HELLMANN-FEYNMAN-FORCE IN mRy/a.u. = |F|  Fx       Fy             Fz
:FHF001:   1.ATOM    652.474816579725      0.000000000000      0.000000000000   -652.474816579725

:FIT001: LUSE= 13 SIGMA OF V-XC FIT FOR ATOM  1  0.1505196E-04
:FIT001: LUSE= 13 SIGMA OF V-XC FIT FOR ATOM  1  0.1505196E-04
:DEN  : DENSITY INTEGRAL  =        -14201.80038146   (Ry)
       ELS_POTENTIAL_AT Z=0 and Z=0.5:   0.91393   0.91393
       ELS_POTENTIAL_AT Y=0 and Y=0.5:   0.00770   0.00770
:VZERO:v0,v0c,v0x   0.22329   0.91393  -0.69064 v5,v5c,v5x   0.22329   0.91393  -0.69064
:VZERY:v0,v0c,v0x  -0.89957   0.00770  -0.90727 v5,v5c,v5x  -0.89957   0.00770  -0.90727
:VZERX:v0,v0c,v0x  -1.24751  -0.39238  -0.85513 v5,v5c,v5x  -1.24751  -0.39238  -0.85513
:LMAX-WF:   10   Non-Spherical LMAX:   4

          ATOMIC SPHERE DEPENDENT PARAMETERS FOR ATOM  Pr1       
:e__0001: OVERALL ENERGY PARAMETER IS    0.7966
          OVERALL BASIS SET ON ATOM IS LAPW
:E0_0001: E( 0)=    0.7966
             APW+lo
:E0_0001: E( 0)=   -1.6049   E(BOTTOM)=   -2.250   E(TOP)=   -0.960  4  5   215
             LOCAL ORBITAL
:E1_0001: E( 1)=    1.1966
             APW+lo
:E1_0001: E( 1)=   -0.1403   E(BOTTOM)=   -1.110   E(TOP)=    0.829  3  4   226
             LOCAL ORBITAL
:E3_0001: E( 3)=    1.0622   E(BOTTOM)=    0.848   E(TOP)=    1.277  0  1   125
             APW+lo
:E2_0001: E( 2)=    0.7966   E(BOTTOM)=    0.623   E(TOP)= -200.000  2 -1   120
             APW+lo

       K=   0.06250   0.00000   0.06250            1
:RKM  : MATRIX SIZE   315LOs:  40  RKM= 8.49  WEIGHT= 4.00  PGR:    
       EIGENVALUES ARE:
:EIG00001:      -1.6240506   -1.5677780   -0.4317173   -0.2246913   -0.1784879
:EIG00006:      -0.1630852   -0.1467066   -0.1427176    0.8087679    0.8623801
:EIG00011:       1.0019254    1.0265836    1.0285876    1.0300116    1.0470249
:EIG00016:       1.0756576    1.0845941    1.0853115    1.0889302    1.0920148
:EIG00021:       1.0986418    1.1040994    1.1095778    1.1299292    1.1361863
:EIG00026:       1.1478732    1.2247479    1.2281196    1.2982980    1.3364046
:EIG00031:       1.3632108    1.5285824    1.5404624    1.6224249    1.9188975
:EIG00036:       1.9676217    2.0017284    2.1567472    2.2261356    2.3051086
:EIG00041:       2.4795716
       ********************************************************

:KPT   :      NUMBER OF K-POINTS:   288
:GAP (global)   :    0.0    Ry =     0.0   eV (metal)
         Bandranges (emin - emax) and occupancy:
:BAN00005:   5   -0.358903   -0.178488  2.00000000
:BAN00006:   6   -0.327343   -0.151896  2.00000000
:BAN00007:   7   -0.282390   -0.144188  2.00000000
:BAN00008:   8   -0.197070   -0.132366  2.00000000
:BAN00009:   9    0.790646    0.953706  2.00000000
:BAN00010:  10    0.837921    0.977921  2.00000000
:BAN00011:  11    0.869510    1.036099  2.00000000
:BAN00012:  12    0.944816    1.042877  1.99854313
:BAN00013:  13    0.975479    1.070001  1.48139436
:BAN00014:  14    1.013997    1.081601  0.51421592
:BAN00015:  15    1.040141    1.086916  0.00584658
:BAN00016:  16    1.052240    1.087541  0.00000000
:BAN00017:  17    1.069074    1.092997  0.00000000
:BAN00018:  18    1.076424    1.094167  0.00000000
:BAN00019:  19    1.083033    1.102684  0.00000000
:BAN00020:  20    1.088734    1.106253  0.00000000
        Energy to separate low and high energystates:    0.74065


:NOE  : NUMBER OF ELECTRONS          =   26.000

:FER  : F E R M I - ENERGY(TETRAH.M.)=   1.0420304291
:GMA  : POTENTIAL AND CHARGE CUT-OFF  12.00 Ry**.5

:POS001: ATOM   -1 X,Y,Z = 0.00000 0.89750 0.25000  MULT= 2  ZZ= 59.000  Pr1       

       LMMAX 16
       LM=   0 0  1 0  2 0  2 2  3 0  3 2  4 0  4 2  4 4  5 0  5 2  5 4  6 0  6 2  6 4  6 6

:CHA001: TOTAL VALENCE CHARGE INSIDE SPHERE   1 =   9.3092    (RMT=  2.3000 )
:PCS001: PARTIAL CHARGES SPHERE =  1 S,P,D,F,PX,PY,PZ,D-Z2,D-X2Y2,D-XY,D-XZ,D-YZ 
:QTL001: 1.9465 4.9788 0.9320 1.4498 1.6563 1.6548 1.6678 0.1832 0.1846 0.1811 0.1901 0.1931
        Q-s-low E-s-low   Q-p-low E-p-low   Q-d-low E-d-low   Q-f-low E-f-low
:EPL001:  1.8647 -1.5641    4.8647 -0.2643    0.0131 -0.3112    0.0040 -0.3196
        Q-s-hi  E-s-hi    Q-p-hi  E-p-hi    Q-d-hi  E-d-hi    Q-f-hi  E-f-hi 
:EPH001:  0.0818  0.9208    0.1142  0.9547    0.9189  0.9349    1.4458  1.0023

                      VXX         VYY         VZZ       UP TO R
:VZZ001:             2.92358     7.29239   -10.21597       2.300

:CHA  : TOTAL VALENCE CHARGE INSIDE UNIT CELL =      26.000000

:SUM  : SUM OF EIGENVALUES =           0.040044326


        1.ATOM      Pr1                  14 CORE STATES
       CORE-FORCE in mRy/a.u. = |F|      Fx             Fy             Fz
:FCO001:   1.ATOM    544.708874070108      0.000000000000      0.000000000000    544.708874070108

:1S 001: 1S               -3066.490911482 Ry
:2S 001: 2S                -492.255660580 Ry
:2PP001: 2P*               -465.353374716 Ry
:2P 001: 2P                -429.956531185 Ry
:3S 001: 3S                -105.352576164 Ry
:3PP001: 3P*                -93.890057400 Ry
:3P 001: 3P                 -86.882548986 Ry
:3DD001: 3D*                -66.809060538 Ry
:3D 001: 3D                 -65.297607431 Ry
:4S 001: 4S                 -20.032372538 Ry
:4PP001: 4P*                -15.739184801 Ry
:4P 001: 4P                 -14.211830466 Ry
:4DD001: 4D*                 -7.145380132 Ry
:4D 001: 4D                  -6.876057213 Ry
:CINT001 Core Integral Atom   1   45.998441

       DENSITY AT NUCLEUS
        JATOM        VALENCE       SEMI-CORE          CORE           TOTAL
:RTO001:   1      646.967126        0.000000   656821.969636   657468.936762
     
       CHARGES OF NEW CHARGE DENSITY
:NTO   : INTERSTITIAL CHARGE =     7.381679
:NPC   : PW Pseudocharge     =    17.783475
:NTO001: CHARGE SPHERE  1    =    55.307600

:NEC01: NUCLEAR AND ELECTRONIC CHARGE    118.00000   117.99688
     
       CHARGES OF OLD CHARGE DENSITY
:OTO   : INTERSTITIAL CHARGE =     6.493387
:OPC   : PW Pseudocharge     =    17.458447
:OTO001: CHARGE SPHERE  1    =    55.753307

:NEC02: NUCLEAR AND ELECTRONIC CHARGE    118.00000   118.00000
     
       CONVERGENCE TEST
:DTO001: DIFFERENCE IN SPHERE  1 =  0.7955494

:DIS  :  CHARGE DISTANCE       ( 0.7955494 for atom    1 spin 1)      0.7955494
 PW Mixed is          345
 
******************************************************
* MULTISECANT MIXING VER9 RELEASE 10.4.0              *
* Slow Mode, cautious                                *
* Fixed density scale                                *
* Regularization       1.000E-04                     *
* Step Trust Radius    0.75000                       *
* Trust Upper Limit    2.000E+00                     *
* Max Number of Memory Steps   12                    *
******************************************************
 
:PWTMP   2.2199E+02  1.9467E+02  3.2392E+02
:PLANE:  PW TOTAL      5.8181 DISTAN   2.39E-01  4.10E+00 %
:CHARG:  CLM/ATOM   1382.0434 DISTAN   1.18E+00  8.53E-02 %
 
Step History
        DMIX         DMIXT        Red     Pred      Trust     Lambda    MagRel    MagAbs     Beta
  1   3.5000E-02   3.5000E-02 -1.00E+00  1.00E+00 -1.00E+01  1.00E+00  3.50E-02  3.50E-02  1.00E+00
  2   2.5000E-02   2.5000E-02  7.78E-01  1.00E+00 -1.00E+01  1.00E+00  2.50E-02  4.48E-02  1.00E+00
  3   4.4771E-02   4.4771E-02  8.99E-01  1.00E+00 -1.00E+01  1.23E+00  4.48E-02  6.24E-02  1.00E+00
  4   2.6190E-02   2.6190E-02 -1.00E+00  5.51E-01  2.77E-01  1.00E+00  3.69E-02  4.62E-02  8.00E-01
:JACOBIANS    8.215E-01   1.171E-01
  
:NORMS:  1/Froebius, Min, Max, Used   0.7168E+00  0.4517E+00  0.9926E+00  0.8656E+00
:INFO :  Number of Memory Steps    3 Skipping    0
:INFO :  SLambda=    1.6655097201  Max    1.6655097201
:PREDicted Charge, CTotal, PW Trust    1.164E-01   2.327E-01   9.018E-02
:PREDicted DMix, Beta, BLim   2.5977E-01  4.5944E+00  4.7502E-01

Eigenvalues, unscaled except for SY+YY
   #     SY Real        SY Imag          SS             YY         SY+YY Real      SY+YY Imag
   1   1.527305E+00   0.000000E+00   1.483484E+00   1.979936E+00   4.327778E+00   0.000000E+00
   2   4.536278E-14   0.000000E+00   5.799340E-02   1.019904E+00   2.164176E-04   0.000000E+00
   3   1.506255E-01   0.000000E+00  -1.775471E-17   1.598601E-04   1.466614E+00   0.000000E+00
 
:INFO :  Singular value  4.330E+00 Weight  1.000E+00 Projection -1.482E-01
:INFO :  Singular value  1.466E+00 Weight  1.000E+00 Projection -1.046E+00
:INFO :  Singular value  2.164E-04 Weight  5.444E-01 Projection -1.041E+00
:RANK :  ACTIVE   2.54/3  =  84.81 % ; YY RANK   2.39/3  =  79.82 %
 
:BLIM :  VZERO Control Off
:TRUST:  Step 2.27E-01  Charge 8.25E-02 (e) CTO  2.50E-01 (e) PW  3.50E-01 (e)
:DTRUS:  Lambda    5.553E+00 Increment    7.276E-12 Iterations   127 DMIX    4.974E-02
:INFOA:  Angle SubSpace to MSR1     12.46
:DIRM :  MEMORY  3/12 SCALE   1.000 RED  0.96 PRED  0.55 NEXT  0.29 
:INFO :  Limited by Atoms F by Step T

:TRAVE:  Charge 4.41E-02 (e) CTO  8.82E-02 (e) PW  9.04E-02 (e)
:DIRP :  |MSR1|= 6.071E-02 |PRATT|= 2.386E-01 ANGLE=  18.3 DEGREES
:DIRQ :  |MSR1|= 1.963E-01 |PRATT|= 1.179E+00 ANGLE=  52.7 DEGREES
:DIRT :  |MSR1|= 2.055E-01 |PRATT|= 1.203E+00 ANGLE=  51.5 DEGREES
:MIX  :   MSE1   REGULARIZATION:  1.98E-04 GREED: 0.06548  LMStep 0.76  0.1709 Charge         
     
       CHARGES OF MIXED CHARGE DENSITY
:CTO   : INTERSTITIAL CHARGE =     6.658387
:CPC   : PW Pseudocharge     =    17.534817
:CTO001: CHARGE SPHERE  1    =    55.670807

:NEC03: NUCLEAR AND ELECTRONIC CHARGE    118.00000   118.00000

PW CHANGE     H    K    L      Current       Change    Residue
:PTO001:      0    0    0  7.46888273E-02  7.452E-04  3.779E-03
:PTO003:      0    2    0  1.80290514E-02  4.126E-04  8.039E-04
:PTO004:     -1    1    0  8.47687159E-02  3.153E-04  6.898E-04
:PTO005:      0    2   -1 -9.78235235E-02  8.694E-05  1.129E-03
:PTO006:      0    0   -2 -5.06609830E-02  1.101E-04  7.710E-04
:PTO007:     -1    1   -1 -1.02313047E-01  1.038E-03  3.001E-03
:PTO008:      0    2   -2 -1.53402806E-02  2.735E-04  8.938E-04
:PTO009:     -1    1   -2 -7.48925179E-02  9.515E-04  3.127E-03
:PTO011:     -1    3    0 -1.10370115E-02  1.777E-04  2.841E-04
:PTO012:     -1    3   -1 -4.75406260E-02  4.718E-04  1.592E-03
:PTO013:      0    4    0 -8.33990116E-03  6.725E-05  4.373E-04
:PTO014:      0    2   -3  1.88579687E-02 -5.846E-05 -2.073E-04

:ENE  : ********** TOTAL ENERGY IN Ry =       -36944.34367404

       TOTAL FORCE IN mRy/a.u. = |F|     Fx             Fy             Fz     with/without FOR in case.in2
:FOR001:   1.ATOM        107.766          0.000          0.000       -107.766 partial forces
       TOTAL FORCE WITH RESPECT TO GLOBAL CARTESIAN COORDINATES:
:FCA001:   1.ATOM                         0.000       -107.766          0.000 partial forces
       TOTAL FORCE WITH RESPECT TO THE GLOBAL COORDINATE SYSTEM:
:FGL001:   1.ATOM                 0.000000000  -107.765942510     0.000000000 partial forces
 Flat Integration
 New Mode for Coulomb Integral
 Consistent 3/8+Simpson combinations
 Extension of core to zero
 LDM version in phi
 Fifth-order quadrature in outwin


            ---------
:ITE005:  5. ITERATION
            ---------

:NATO :    1 INDEPENDENT AND    2 TOTAL ATOMS IN UNITCELL
       SUBSTANCE: aU                                                          

       LATTICE                      = CXY 
:POT  : POTENTIAL OPTION EX_LDA EC_LDA VX_LDA VC_LDA
:LAT  : LATTICE CONSTANTS=  5.66945 11.50475  9.93229    1.571    1.571    1.571
:VOL  : UNIT CELL VOLUME =     323.91998
       MODE OF CALCULATION IS       = RELA
       NON-SPINPOLARIZED CALCULATION
:IFFT  : FFT-parameters:   48   90   80 Factor: 2.00


   CONVERGENCE PARAMETER FOR PSEUDOCHARGE: NCON=  9
   MAXIMAL VALUE OF RMT(JATOM)*ABSK(NKK) : RK  =27.59882


:VKCOUL :  VK-COUL convergence: 0.123E-06
       ATOMNUMBER=  1 Pr1        VCOUL-ZERO =  0.46526E+00
:EFG001:                        EFG         =    -4.51454   *10**21  V / m**2
                               V20  TOT/SRF=    -3.90971    -0.04942
                               V22  TOT/SRF=    -0.78671     0.00278
                               V22M TOT/SRF=     0.00000     0.00000
                               V21  TOT/SRF=     0.00000     0.00000
                               V21M TOT/SRF=     0.00000     0.00000

              1.47056    0.00000    0.00000        1.47056    0.00000    0.00000
              0.00000    3.04398    0.00000        0.00000    3.04398    0.00000
              0.00000    0.00000   -4.51454        0.00000    0.00000   -4.51454

         MAIN DIRECTIONS OF THE EFG   1.0000  0.0000  0.0000
                                      0.0000  1.0000  0.0000
                                      0.0000  0.0000  1.0000
:ANG001:  ANGLE WITH OLD X-AXIS =         0.0

:ETA001:                         ASYMM. ETA =     0.34852


     HELLMANN-FEYNMAN-FORCE IN mRy/a.u. = |F|  Fx       Fy             Fz
:FHF001:   1.ATOM    600.579040320488      0.000000000000      0.000000000000   -600.579040320488

:FIT001: LUSE= 13 SIGMA OF V-XC FIT FOR ATOM  1  0.3045621E-04
:FIT001: LUSE= 13 SIGMA OF V-XC FIT FOR ATOM  1  0.3045621E-04
:DEN  : DENSITY INTEGRAL  =        -14193.51557553   (Ry)
       ELS_POTENTIAL_AT Z=0 and Z=0.5:   0.93294   0.93294
       ELS_POTENTIAL_AT Y=0 and Y=0.5:   0.01599   0.01599
:VZERO:v0,v0c,v0x   0.23663   0.93294  -0.69631 v5,v5c,v5x   0.23663   0.93294  -0.69631
:VZERY:v0,v0c,v0x  -0.89714   0.01599  -0.91313 v5,v5c,v5x  -0.89714   0.01599  -0.91313
:VZERX:v0,v0c,v0x  -1.25679  -0.39645  -0.86034 v5,v5c,v5x  -1.25679  -0.39645  -0.86034
:LMAX-WF:   10   Non-Spherical LMAX:   4

          ATOMIC SPHERE DEPENDENT PARAMETERS FOR ATOM  Pr1       
:e__0001: OVERALL ENERGY PARAMETER IS    0.8269
          OVERALL BASIS SET ON ATOM IS LAPW
:E0_0001: E( 0)=    0.8269
             APW+lo
:E0_0001: E( 0)=   -1.6418   E(BOTTOM)=   -2.279   E(TOP)=   -1.005  4  5   219
             LOCAL ORBITAL
:E1_0001: E( 1)=    1.2269
             APW+lo
:E1_0001: E( 1)=   -0.1725   E(BOTTOM)=   -1.133   E(TOP)=    0.788  3  4   226
             LOCAL ORBITAL
:E3_0001: E( 3)=    1.0026   E(BOTTOM)=    0.796   E(TOP)=    1.209  0  1   123
             APW+lo
:E2_0001: E( 2)=    0.8269   E(BOTTOM)=    0.605   E(TOP)= -200.000  2 -1   124
             APW+lo

       K=   0.06250   0.00000   0.06250            1
:RKM  : MATRIX SIZE   315LOs:  40  RKM= 8.49  WEIGHT= 4.00  PGR:    
       EIGENVALUES ARE:
:EIG00001:      -1.6562077   -1.6025166   -0.4470867   -0.2535121   -0.2085572
:EIG00006:      -0.1893518   -0.1720089   -0.1700883    0.8096331    0.8608722
:EIG00011:       0.9730465    0.9803379    0.9809563    0.9885208    0.9990701
:EIG00016:       1.0223345    1.0294709    1.0316403    1.0370982    1.0403334
:EIG00021:       1.0497516    1.0503373    1.0523616    1.0692546    1.0888320
:EIG00026:       1.1139256    1.2114062    1.2129400    1.2865986    1.3237730
:EIG00031:       1.3531730    1.5210731    1.5279582    1.6084589    1.9135352
:EIG00036:       1.9627570    1.9973821    2.1485428    2.2257825    2.3055817
:EIG00041:       2.4776093
       ********************************************************

:KPT   :      NUMBER OF K-POINTS:   288
:GAP (global)   :    0.0    Ry =     0.0   eV (metal)
         Bandranges (emin - emax) and occupancy:
:BAN00005:   5   -0.377130   -0.208557  2.00000000
:BAN00006:   6   -0.349824   -0.178605  2.00000000
:BAN00007:   7   -0.306610   -0.171308  2.00000000
:BAN00008:   8   -0.221852   -0.160116  2.00000000
:BAN00009:   9    0.793326    0.939899  2.00000000
:BAN00010:  10    0.837787    0.956351  2.00000000
:BAN00011:  11    0.867690    0.993365  2.00000000
:BAN00012:  12    0.933463    1.000515  1.98114481
:BAN00013:  13    0.951720    1.015509  1.35153682
:BAN00014:  14    0.976936    1.025236  0.66619506
:BAN00015:  15    0.994744    1.029840  0.00112331
:BAN00016:  16    1.002979    1.032944  0.00000000
:BAN00017:  17    1.018248    1.039863  0.00000000
:BAN00018:  18    1.023468    1.041772  0.00000000
:BAN00019:  19    1.031402    1.048746  0.00000000
:BAN00020:  20    1.033916    1.052575  0.00000000
        Energy to separate low and high energystates:    0.74333


:NOE  : NUMBER OF ELECTRONS          =   26.000

:FER  : F E R M I - ENERGY(TETRAH.M.)=   0.9955917804
:GMA  : POTENTIAL AND CHARGE CUT-OFF  12.00 Ry**.5

:POS001: ATOM   -1 X,Y,Z = 0.00000 0.89750 0.25000  MULT= 2  ZZ= 59.000  Pr1       

       LMMAX 16
       LM=   0 0  1 0  2 0  2 2  3 0  3 2  4 0  4 2  4 4  5 0  5 2  5 4  6 0  6 2  6 4  6 6

:CHA001: TOTAL VALENCE CHARGE INSIDE SPHERE   1 =   9.6775    (RMT=  2.3000 )
:PCS001: PARTIAL CHARGES SPHERE =  1 S,P,D,F,PX,PY,PZ,D-Z2,D-X2Y2,D-XY,D-XZ,D-YZ 
:QTL001: 1.9387 4.9825 0.7824 1.9722 1.6590 1.6561 1.6674 0.1523 0.1414 0.1590 0.1619 0.1678
        Q-s-low E-s-low   Q-p-low E-p-low   Q-d-low E-d-low   Q-f-low E-f-low
:EPL001:  1.8686 -1.5992    4.8997 -0.2881    0.0121 -0.3311    0.0038 -0.3402
        Q-s-hi  E-s-hi    Q-p-hi  E-p-hi    Q-d-hi  E-d-hi    Q-f-hi  E-f-hi 
:EPH001:  0.0701  0.9049    0.0828  0.9313    0.7702  0.9136    1.9684  0.9665

                      VXX         VYY         VZZ       UP TO R
:VZZ001:             3.14285     7.67317   -10.81602       2.300

:CHA  : TOTAL VALENCE CHARGE INSIDE UNIT CELL =      26.000000

:SUM  : SUM OF EIGENVALUES =          -0.572667468


        1.ATOM      Pr1                  14 CORE STATES
       CORE-FORCE in mRy/a.u. = |F|      Fx             Fy             Fz
:FCO001:   1.ATOM    608.300514943791      0.000000000000      0.000000000000    608.300514943791

:1S 001: 1S               -3066.582858484 Ry
:2S 001: 2S                -492.342433752 Ry
:2PP001: 2P*               -465.440610976 Ry
:2P 001: 2P                -430.043539788 Ry
:3S 001: 3S                -105.438992644 Ry
:3PP001: 3P*                -93.976532888 Ry
:3P 001: 3P                 -86.968927130 Ry
:3DD001: 3D*                -66.895286607 Ry
:3D 001: 3D                 -65.383819328 Ry
:4S 001: 4S                 -20.111790053 Ry
:4PP001: 4P*                -15.817875573 Ry
:4P 001: 4P                 -14.289510743 Ry
:4DD001: 4D*                 -7.220579422 Ry
:4D 001: 4D                  -6.950841592 Ry
:CINT001 Core Integral Atom   1   45.998493

       DENSITY AT NUCLEUS
        JATOM        VALENCE       SEMI-CORE          CORE           TOTAL
:RTO001:   1      646.902045        0.000000   656824.552047   657471.454093
     
       CHARGES OF NEW CHARGE DENSITY
:NTO   : INTERSTITIAL CHARGE =     6.644913
:NPC   : PW Pseudocharge     =    17.499859
:NTO001: CHARGE SPHERE  1    =    55.676035

:NEC01: NUCLEAR AND ELECTRONIC CHARGE    118.00000   117.99698
     
       CHARGES OF OLD CHARGE DENSITY
:OTO   : INTERSTITIAL CHARGE =     6.658387
:OPC   : PW Pseudocharge     =    17.534817
:OTO001: CHARGE SPHERE  1    =    55.670807

:NEC02: NUCLEAR AND ELECTRONIC CHARGE    118.00000   118.00000
     
       CONVERGENCE TEST
:DTO001: DIFFERENCE IN SPHERE  1 =  0.1108417

:DIS  :  CHARGE DISTANCE       ( 0.1108417 for atom    1 spin 1)      0.1108417
 PW Mixed is          345
 
******************************************************
* MULTISECANT MIXING VER9 RELEASE 10.4.0              *
* Standard Mode with controls                        *
* Fixed density scale                                *
* Regularization       1.000E-04                     *
* Trust Upper Limit    5.000E+00                     *
* Max Number of Memory Steps    8                    *
******************************************************
 
:PWTMP   2.2199E+02  1.9467E+02  3.2392E+02
:PLANE:  PW TOTAL      5.8314 DISTAN   8.56E-02  1.47E+00 %
:CHARG:  CLM/ATOM   1382.0031 DISTAN   3.22E-01  2.33E-02 %
 
Step History
        DMIX         DMIXT        Red     Pred      Trust     Lambda    MagRel    MagAbs     Beta
  1   3.5000E-02   3.5000E-02 -1.00E+00  1.00E+00 -1.00E+01  1.00E+00  3.50E-02  3.50E-02  1.00E+00
  2   2.5000E-02   2.5000E-02  7.78E-01  1.00E+00 -1.00E+01  1.00E+00  2.50E-02  4.48E-02  1.00E+00
  3   4.4771E-02   4.4771E-02  8.99E-01  1.00E+00 -1.00E+01  1.23E+00  4.48E-02  6.24E-02  1.00E+00
  4   2.6190E-02   2.6190E-02  9.60E-01  5.51E-01  2.77E-01  1.67E+00  3.69E-02  4.62E-02  8.00E-01
  5   6.5476E-02   4.9745E-02 -1.00E+00  2.88E-01  2.27E-01  1.00E+00  1.71E-01  2.05E-01  1.00E+00
:JACOBIANS    8.955E-01   1.162E-01
  
:NORMS:  1/Froebius, Min, Max, Used   0.2776E+00  0.2411E+00  0.9940E+00  0.3273E+00
:INFO :  Number of Memory Steps    4 Skipping    0
:INFO :  SLambda=    2.4982645801  Max    2.4982645801
:PREDicted Charge, CTotal, PW Trust    9.778E-02   1.956E-01   1.062E-01
:PREDicted DMix, Beta, BLim   8.2521E-04  1.1686E+00  9.0499E-01

Eigenvalues, unscaled except for SY+YY
   #     SY Real        SY Imag          SS             YY         SY+YY Real      SY+YY Imag
   1   4.795028E-01   0.000000E+00   2.250522E-01   3.871229E+00   5.042581E+00   0.000000E+00
   2   1.108828E-01   0.000000E+00   8.330385E-02   1.287372E-01   4.323226E-01   0.000000E+00
   3   3.164365E-15   0.000000E+00   8.397891E-07   2.564954E-05   1.406292E-05   0.000000E+00
   4   2.611190E-06   0.000000E+00  -4.909403E-18   8.573817E-06   2.824437E-05   0.000000E+00
 
:INFO :  Singular value  5.044E+00 Weight  1.000E+00 Projection -7.538E-02
:INFO :  Singular value  4.322E-01 Weight  1.000E+00 Projection -2.367E-01
:INFO :  Singular value  2.968E-05 Weight  5.844E-03 Projection -1.568E-01
:INFO :  Singular value  1.338E-05 Weight  1.193E-03 Projection -2.447E-02
:RANK :  ACTIVE   2.01/4  =  50.18 % ; YY RANK   2.00/4  =  50.12 %
 
Increasing Charge by   1.667
:BLIM :  VZERO Control Off
:TRUST:  Step 5.79E-01  Charge 1.38E-01 (e) CTO  2.50E-01 (e) PW  3.50E-01 (e)
:DIRM :  MEMORY  4/8  SCALE   1.000 RED  0.28 PRED  0.29 NEXT  0.91 
:TRAVE:  Charge 2.83E-02 (e) CTO  5.66E-02 (e) PW  6.60E-02 (e)
:DIRP :  |MSR1|= 6.449E-02 |PRATT|= 8.556E-02 ANGLE=  45.7 DEGREES
:DIRQ :  |MSR1|= 4.022E-02 |PRATT|= 3.224E-01 ANGLE=  49.4 DEGREES
:DIRT :  |MSR1|= 7.601E-02 |PRATT|= 3.335E-01 ANGLE=  61.0 DEGREES
:MIX  :   MSE1   REGULARIZATION:  3.87E-04 GREED: 0.02619  Newton 1.00  0.2279                
     
       CHARGES OF MIXED CHARGE DENSITY
:CTO   : INTERSTITIAL CHARGE =     6.683434
:CPC   : PW Pseudocharge     =    17.440490
:CTO001: CHARGE SPHERE  1    =    55.658283

:NEC03: NUCLEAR AND ELECTRONIC CHARGE    118.00000   118.00000

PW CHANGE     H    K    L      Current       Change    Residue
:PTO001:      0    0    0  7.44749472E-02 -2.139E-04 -1.157E-04
:PTO003:      0    2    0  1.79586901E-02 -7.036E-05 -6.874E-05
:PTO004:     -1    1    0  8.40635472E-02 -7.052E-04  3.714E-04
:PTO005:      0    2   -1 -9.68717819E-02  9.517E-04  8.121E-04
:PTO006:      0    0   -2 -5.01583415E-02  5.026E-04  3.077E-04
:PTO007:     -1    1   -1 -1.01034486E-01  1.279E-03  6.864E-04
:PTO008:      0    2   -2 -1.50581190E-02  2.822E-04  8.122E-04
:PTO009:     -1    1   -2 -7.35686160E-02  1.324E-03  1.335E-03
:PTO011:     -1    3    0 -1.07974958E-02  2.395E-04 -8.468E-05
:PTO012:     -1    3   -1 -4.64133884E-02  1.127E-03  1.001E-03
:PTO013:      0    4    0 -8.11198312E-03  2.279E-04  3.537E-04
:PTO014:      0    2   -3  1.83731872E-02 -4.848E-04 -2.065E-04

:ENE  : ********** TOTAL ENERGY IN Ry =       -36944.29130104

       TOTAL FORCE IN mRy/a.u. = |F|     Fx             Fy             Fz     with/without FOR in case.in2
:FOR001:   1.ATOM          7.721          0.000          0.000          7.721 partial forces
       TOTAL FORCE WITH RESPECT TO GLOBAL CARTESIAN COORDINATES:
:FCA001:   1.ATOM                         0.000          7.721          0.000 partial forces
       TOTAL FORCE WITH RESPECT TO THE GLOBAL COORDINATE SYSTEM:
:FGL001:   1.ATOM                 0.000000000     7.721474623     0.000000000 partial forces
 Flat Integration
 New Mode for Coulomb Integral
 Consistent 3/8+Simpson combinations
 Extension of core to zero
 LDM version in phi
 Fifth-order quadrature in outwin


            ---------
:ITE006:  6. ITERATION
            ---------

:NATO :    1 INDEPENDENT AND    2 TOTAL ATOMS IN UNITCELL
       SUBSTANCE: aU                                                          

       LATTICE                      = CXY 
:POT  : POTENTIAL OPTION EX_LDA EC_LDA VX_LDA VC_LDA
:LAT  : LATTICE CONSTANTS=  5.66945 11.50475  9.93229    1.571    1.571    1.571
:VOL  : UNIT CELL VOLUME =     323.91998
       MODE OF CALCULATION IS       = RELA
       NON-SPINPOLARIZED CALCULATION
:IFFT  : FFT-parameters:   48   90   80 Factor: 2.00


   CONVERGENCE PARAMETER FOR PSEUDOCHARGE: NCON=  9
   MAXIMAL VALUE OF RMT(JATOM)*ABSK(NKK) : RK  =27.59882


:VKCOUL :  VK-COUL convergence: 0.122E-06
       ATOMNUMBER=  1 Pr1        VCOUL-ZERO =  0.46585E+00
:EFG001:                        EFG         =    -5.39217   *10**21  V / m**2
                               V20  TOT/SRF=    -4.66976    -0.04747
                               V22  TOT/SRF=    -0.95790     0.00125
                               V22M TOT/SRF=     0.00000     0.00000
                               V21  TOT/SRF=     0.00000     0.00000
                               V21M TOT/SRF=     0.00000     0.00000

              1.73819    0.00000    0.00000        1.73819    0.00000    0.00000
              0.00000    3.65398    0.00000        0.00000    3.65398    0.00000
              0.00000    0.00000   -5.39217        0.00000    0.00000   -5.39217

         MAIN DIRECTIONS OF THE EFG   1.0000  0.0000  0.0000
                                      0.0000  1.0000  0.0000
                                      0.0000  0.0000  1.0000
:ANG001:  ANGLE WITH OLD X-AXIS =         0.0

:ETA001:                         ASYMM. ETA =     0.35529


     HELLMANN-FEYNMAN-FORCE IN mRy/a.u. = |F|  Fx       Fy             Fz
:FHF001:   1.ATOM    622.999906568538      0.000000000000      0.000000000000   -622.999906568538

:FIT001: LUSE= 13 SIGMA OF V-XC FIT FOR ATOM  1  0.3486940E-04
:FIT001: LUSE= 13 SIGMA OF V-XC FIT FOR ATOM  1  0.3486940E-04
:DEN  : DENSITY INTEGRAL  =        -14192.31102592   (Ry)
       ELS_POTENTIAL_AT Z=0 and Z=0.5:   0.93528   0.93528
       ELS_POTENTIAL_AT Y=0 and Y=0.5:   0.01733   0.01733
:VZERO:v0,v0c,v0x   0.23816   0.93528  -0.69712 v5,v5c,v5x   0.23816   0.93528  -0.69712
:VZERY:v0,v0c,v0x  -0.89639   0.01733  -0.91372 v5,v5c,v5x  -0.89639   0.01733  -0.91372
:VZERX:v0,v0c,v0x  -1.25670  -0.39631  -0.86039 v5,v5c,v5x  -1.25670  -0.39631  -0.86039
:LMAX-WF:   10   Non-Spherical LMAX:   4

          ATOMIC SPHERE DEPENDENT PARAMETERS FOR ATOM  Pr1       
:e__0001: OVERALL ENERGY PARAMETER IS    0.8060
          OVERALL BASIS SET ON ATOM IS LAPW
:E0_0001: E( 0)=    0.8060
             APW+lo
:E0_0001: E( 0)=   -1.6480   E(BOTTOM)=   -2.284   E(TOP)=   -1.012  4  5   215
             LOCAL ORBITAL
:E1_0001: E( 1)=    1.2060
             APW+lo
:E1_0001: E( 1)=   -0.1779   E(BOTTOM)=   -1.137   E(TOP)=    0.781  3  4   228
             LOCAL ORBITAL
:E3_0001: E( 3)=    0.9933   E(BOTTOM)=    0.788   E(TOP)=    1.199  0  1   118
             APW+lo
:E2_0001: E( 2)=    0.8060   E(BOTTOM)=    0.602   E(TOP)= -200.000  2 -1   122
             APW+lo

       K=   0.06250   0.00000   0.06250            1
:RKM  : MATRIX SIZE   315LOs:  40  RKM= 8.49  WEIGHT= 4.00  PGR:    
       EIGENVALUES ARE:
:EIG00001:      -1.6616786   -1.6083948   -0.4498821   -0.2585370   -0.2137654
:EIG00006:      -0.1939745   -0.1763747   -0.1748925    0.8091941    0.8599852
:EIG00011:       0.9666713    0.9722152    0.9732646    0.9817845    0.9917531
:EIG00016:       1.0138662    1.0205544    1.0227776    1.0287502    1.0311149
:EIG00021:       1.0405786    1.0412330    1.0446111    1.0599896    1.0830229
:EIG00026:       1.1102534    1.2088404    1.2108745    1.2843904    1.3213782
:EIG00031:       1.3512445    1.5194763    1.5255616    1.6059642    1.9123139
:EIG00036:       1.9615989    1.9962471    2.1468674    2.2251894    2.3053494
:EIG00041:       2.4769499
       ********************************************************

:KPT   :      NUMBER OF K-POINTS:   288
:GAP (global)   :    0.0    Ry =     0.0   eV (metal)
         Bandranges (emin - emax) and occupancy:
:BAN00005:   5   -0.380264   -0.213765  2.00000000
:BAN00006:   6   -0.353852   -0.183294  2.00000000
:BAN00007:   7   -0.310950   -0.176065  2.00000000
:BAN00008:   8   -0.226174   -0.164976  2.00000000
:BAN00009:   9    0.793134    0.936522  2.00000000
:BAN00010:  10    0.837118    0.951823  2.00000000
:BAN00011:  11    0.866720    0.986934  2.00000000
:BAN00012:  12    0.930685    0.993538  1.97330110
:BAN00013:  13    0.946843    1.006925  1.32476698
:BAN00014:  14    0.970358    1.015826  0.70019154
:BAN00015:  15    0.987100    1.020384  0.00174038
:BAN00016:  16    0.994773    1.024375  0.00000000
:BAN00017:  17    1.010186    1.031054  0.00000000
:BAN00018:  18    1.014498    1.033166  0.00000000
:BAN00019:  19    1.022575    1.040107  0.00000000
:BAN00020:  20    1.024206    1.043038  0.00000000
        Energy to separate low and high energystates:    0.74313


:NOE  : NUMBER OF ELECTRONS          =   26.000

:FER  : F E R M I - ENERGY(TETRAH.M.)=   0.9879447749
:GMA  : POTENTIAL AND CHARGE CUT-OFF  12.00 Ry**.5

:POS001: ATOM   -1 X,Y,Z = 0.00000 0.89750 0.25000  MULT= 2  ZZ= 59.000  Pr1       

       LMMAX 16
       LM=   0 0  1 0  2 0  2 2  3 0  3 2  4 0  4 2  4 4  5 0  5 2  5 4  6 0  6 2  6 4  6 6

:CHA001: TOTAL VALENCE CHARGE INSIDE SPHERE   1 =   9.7392    (RMT=  2.3000 )
:PCS001: PARTIAL CHARGES SPHERE =  1 S,P,D,F,PX,PY,PZ,D-Z2,D-X2Y2,D-XY,D-XZ,D-YZ 
:QTL001: 1.9372 4.9830 0.7575 2.0598 1.6594 1.6564 1.6672 0.1470 0.1349 0.1555 0.1566 0.1635
        Q-s-low E-s-low   Q-p-low E-p-low   Q-d-low E-d-low   Q-f-low E-f-low
:EPL001:  1.8692 -1.6051    4.9049 -0.2923    0.0120 -0.3345    0.0037 -0.3438
        Q-s-hi  E-s-hi    Q-p-hi  E-p-hi    Q-d-hi  E-d-hi    Q-f-hi  E-f-hi 
:EPH001:  0.0681  0.9016    0.0781  0.9268    0.7455  0.9096    2.0561  0.9602

                      VXX         VYY         VZZ       UP TO R
:VZZ001:             3.59698     7.65514   -11.25212       2.300

:CHA  : TOTAL VALENCE CHARGE INSIDE UNIT CELL =      26.000000

:SUM  : SUM OF EIGENVALUES =          -0.685356205


        1.ATOM      Pr1                  14 CORE STATES
       CORE-FORCE in mRy/a.u. = |F|      Fx             Fy             Fz
:FCO001:   1.ATOM    652.468361684904      0.000000000000      0.000000000000    652.468361684904

:1S 001: 1S               -3066.595955078 Ry
:2S 001: 2S                -492.354405806 Ry
:2PP001: 2P*               -465.452678173 Ry
:2P 001: 2P                -430.055559099 Ry
:3S 001: 3S                -105.451075674 Ry
:3PP001: 3P*                -93.988614089 Ry
:3P 001: 3P                 -86.981011118 Ry
:3DD001: 3D*                -66.907289672 Ry
:3D 001: 3D                 -65.395825735 Ry
:4S 001: 4S                 -20.123588989 Ry
:4PP001: 4P*                -15.829602536 Ry
:4P 001: 4P                 -14.301148753 Ry
:4DD001: 4D*                 -7.231926464 Ry
:4D 001: 4D                  -6.962145032 Ry
:CINT001 Core Integral Atom   1   45.998500

       DENSITY AT NUCLEUS
        JATOM        VALENCE       SEMI-CORE          CORE           TOTAL
:RTO001:   1      646.727045        0.000000   656824.840879   657471.567924
     
       CHARGES OF NEW CHARGE DENSITY
:NTO   : INTERSTITIAL CHARGE =     6.521597
:NPC   : PW Pseudocharge     =    17.452302
:NTO001: CHARGE SPHERE  1    =    55.737700

:NEC01: NUCLEAR AND ELECTRONIC CHARGE    118.00000   117.99700
     
       CHARGES OF OLD CHARGE DENSITY
:OTO   : INTERSTITIAL CHARGE =     6.683434
:OPC   : PW Pseudocharge     =    17.440490
:OTO001: CHARGE SPHERE  1    =    55.658283

:NEC02: NUCLEAR AND ELECTRONIC CHARGE    118.00000   118.00000
     
       CONVERGENCE TEST
:DTO001: DIFFERENCE IN SPHERE  1 =  0.0662786

:DIS  :  CHARGE DISTANCE       ( 0.0662786 for atom    1 spin 1)      0.0662786
 PW Mixed is          345
 
******************************************************
* MULTISECANT MIXING VER9 RELEASE 10.4.0              *
* Slow Mode, cautious                                *
* Fixed density scale                                *
* Regularization       1.000E-04                     *
* Step Trust Radius    0.75000                       *
* Trust Upper Limit    2.000E+00                     *
* Max Number of Memory Steps   12                    *
******************************************************
 
:PWTMP   2.2199E+02  1.9467E+02  3.2392E+02
:PLANE:  PW TOTAL      5.7837 DISTAN   6.51E-02  1.12E+00 %
:CHARG:  CLM/ATOM   1381.9945 DISTAN   2.85E-01  2.06E-02 %
 
Step History
        DMIX         DMIXT        Red     Pred      Trust     Lambda    MagRel    MagAbs     Beta
  1   3.5000E-02   3.5000E-02 -1.00E+00  1.00E+00 -1.00E+01  1.00E+00  3.50E-02  3.50E-02  1.00E+00
  2   2.5000E-02   2.5000E-02  7.78E-01  1.00E+00 -1.00E+01  1.00E+00  2.50E-02  4.48E-02  1.00E+00
  3   4.4771E-02   4.4771E-02  8.99E-01  1.00E+00 -1.00E+01  1.23E+00  4.48E-02  6.24E-02  1.00E+00
  4   2.6190E-02   2.6190E-02  9.60E-01  5.51E-01  2.77E-01  1.67E+00  3.69E-02  4.62E-02  8.00E-01
  5   6.5476E-02   4.9745E-02  2.77E-01  2.88E-01  2.27E-01  2.50E+00  1.71E-01  2.05E-01  1.00E+00
  6   2.6190E-02   2.6190E-02 -1.00E+00  9.11E-01  5.79E-01  1.00E+00  2.28E-01  7.60E-02  1.00E+00
:JACOBIANS    9.437E-01   2.532E-01
  
:NORMS:  1/Froebius, Min, Max, Used   0.2958E+00  0.2374E+00  0.9940E+00  0.3457E+00
:INFO :  Number of Memory Steps    5 Skipping    0
:INFO :  SLambda=    2.0793120267  Max    2.0793120267
:PREDicted Charge, CTotal, PW Trust    2.181E-02   4.362E-02   6.928E-02
:PREDicted DMix, Beta, BLim   1.7798E-01  1.0914E+00  3.7241E-01

Eigenvalues, unscaled except for SY+YY
   #     SY Real        SY Imag          SS             YY         SY+YY Real      SY+YY Imag
   1   5.133439E-01   0.000000E+00   2.669450E-01   4.737274E+00   5.818304E+00   0.000000E+00
   2   2.503515E-01   0.000000E+00   1.700226E-01   2.592746E-01   7.664638E-01   0.000000E+00
   3   9.160659E-04   0.000000E+00   4.556345E-04   3.438513E-03   5.080807E-03   0.000000E+00
   4   2.206893E-15   0.000000E+00   6.035651E-08   7.392510E-06   1.027384E-05   0.000000E+00
   5   7.170220E-07   0.000000E+00   2.134391E-18   5.547792E-06   8.008687E-06   0.000000E+00
 
:INFO :  Singular value  5.822E+00 Weight  1.000E+00 Projection  3.409E-04
:INFO :  Singular value  7.660E-01 Weight  1.000E+00 Projection -3.220E-02
:INFO :  Singular value  5.081E-03 Weight  9.914E-01 Projection  4.333E+00
:INFO :  Singular value  1.041E-05 Weight  4.823E-04 Projection -2.676E-02
:INFO :  Singular value  7.906E-06 Weight  2.784E-04 Projection  1.573E-02
:RANK :  ACTIVE   2.99/5  =  59.84 % ; YY RANK   2.98/5  =  59.64 %
 
:BLIM :  VZERO Control Off
:TRUST:  Step 6.60E-01  Charge 1.32E-01 (e) CTO  2.50E-01 (e) PW  2.80E-01 (e)
:DIRM :  MEMORY  5/12 SCALE   1.000 RED  0.88 PRED  0.91 NEXT  0.92 
:TRAVE:  Charge 3.14E-02 (e) CTO  6.28E-02 (e) PW  4.69E-02 (e)
:DIRP :  |MSR1|= 2.760E-02 |PRATT|= 6.505E-02 ANGLE=  29.7 DEGREES
:DIRQ :  |MSR1|= 1.009E-01 |PRATT|= 2.852E-01 ANGLE=  12.3 DEGREES
:DIRT :  |MSR1|= 1.046E-01 |PRATT|= 2.925E-01 ANGLE=  14.1 DEGREES
:MIX  :   MSE1   REGULARIZATION:  4.74E-04 GREED: 0.06548  Newton 1.00  0.3575                
     
       CHARGES OF MIXED CHARGE DENSITY
:CTO   : INTERSTITIAL CHARGE =     6.614565
:CPC   : PW Pseudocharge     =    17.463120
:CTO001: CHARGE SPHERE  1    =    55.692718

:NEC03: NUCLEAR AND ELECTRONIC CHARGE    118.00000   118.00000

PW CHANGE     H    K    L      Current       Change    Residue
:PTO001:      0    0    0  7.43321999E-02 -1.427E-04 -4.291E-04
:PTO003:      0    2    0  1.79284878E-02 -3.020E-05 -8.044E-05
:PTO004:     -1    1    0  8.45490991E-02  4.856E-04  1.027E-03
:PTO005:      0    2   -1 -9.71330071E-02 -2.612E-04 -1.943E-04
:PTO006:      0    0   -2 -5.03618035E-02 -2.035E-04 -2.701E-04
:PTO007:     -1    1   -1 -1.01625609E-01 -5.911E-04 -8.125E-04
:PTO008:      0    2   -2 -1.49116006E-02  1.465E-04  5.725E-04
:PTO009:     -1    1   -2 -7.39097574E-02 -3.411E-04 -1.253E-04
:PTO011:     -1    3    0 -1.09813624E-02 -1.839E-04 -3.518E-04
:PTO012:     -1    3   -1 -4.66976346E-02 -2.842E-04 -1.257E-04
:PTO013:      0    4    0 -8.11472710E-03 -2.744E-06  1.209E-04
:PTO014:      0    2   -3  1.85629315E-02  1.897E-04  2.600E-04

:ENE  : ********** TOTAL ENERGY IN Ry =       -36944.29119356

       TOTAL FORCE IN mRy/a.u. = |F|     Fx             Fy             Fz     with/without FOR in case.in2
:FOR001:   1.ATOM         29.468          0.000          0.000         29.468 partial forces
       TOTAL FORCE WITH RESPECT TO GLOBAL CARTESIAN COORDINATES:
:FCA001:   1.ATOM                         0.000         29.468          0.000 partial forces
       TOTAL FORCE WITH RESPECT TO THE GLOBAL COORDINATE SYSTEM:
:FGL001:   1.ATOM                 0.000000000    29.468455116     0.000000000 partial forces
 Flat Integration
 New Mode for Coulomb Integral
 Consistent 3/8+Simpson combinations
 Extension of core to zero
 LDM version in phi
 Fifth-order quadrature in outwin


            ---------
:ITE007:  7. ITERATION
            ---------

:NATO :    1 INDEPENDENT AND    2 TOTAL ATOMS IN UNITCELL
       SUBSTANCE: aU                                                          

       LATTICE                      = CXY 
:POT  : POTENTIAL OPTION EX_LDA EC_LDA VX_LDA VC_LDA
:LAT  : LATTICE CONSTANTS=  5.66945 11.50475  9.93229    1.571    1.571    1.571
:VOL  : UNIT CELL VOLUME =     323.91998
       MODE OF CALCULATION IS       = RELA
       NON-SPINPOLARIZED CALCULATION
:IFFT  : FFT-parameters:   48   90   80 Factor: 2.00


   CONVERGENCE PARAMETER FOR PSEUDOCHARGE: NCON=  9
   MAXIMAL VALUE OF RMT(JATOM)*ABSK(NKK) : RK  =27.59882


:VKCOUL :  VK-COUL convergence: 0.136E-06
       ATOMNUMBER=  1 Pr1        VCOUL-ZERO =  0.46514E+00
:EFG001:                        EFG         =    -7.30891   *10**21  V / m**2
                               V20  TOT/SRF=    -6.32970    -0.05494
                               V22  TOT/SRF=    -1.20711    -0.00371
                               V22M TOT/SRF=     0.00000     0.00000
                               V21  TOT/SRF=     0.00000     0.00000
                               V21M TOT/SRF=     0.00000     0.00000

              2.44735    0.00000    0.00000        2.44735    0.00000    0.00000
              0.00000    4.86156    0.00000        0.00000    4.86156    0.00000
              0.00000    0.00000   -7.30891        0.00000    0.00000   -7.30891

         MAIN DIRECTIONS OF THE EFG   1.0000  0.0000  0.0000
                                      0.0000  1.0000  0.0000
                                      0.0000  0.0000  1.0000
:ANG001:  ANGLE WITH OLD X-AXIS =         0.0

:ETA001:                         ASYMM. ETA =     0.33031


     HELLMANN-FEYNMAN-FORCE IN mRy/a.u. = |F|  Fx       Fy             Fz
:FHF001:   1.ATOM   1049.120226982833      0.000000000000      0.000000000000  -1049.120226982833

:FIT001: LUSE= 13 SIGMA OF V-XC FIT FOR ATOM  1  0.3880871E-04
:FIT001: LUSE= 13 SIGMA OF V-XC FIT FOR ATOM  1  0.3880871E-04
:DEN  : DENSITY INTEGRAL  =        -14194.33450951   (Ry)
       ELS_POTENTIAL_AT Z=0 and Z=0.5:   0.92833   0.92833
       ELS_POTENTIAL_AT Y=0 and Y=0.5:   0.01872   0.01872
:VZERO:v0,v0c,v0x   0.23418   0.92833  -0.69415 v5,v5c,v5x   0.23418   0.92833  -0.69415
:VZERY:v0,v0c,v0x  -0.89359   0.01872  -0.91231 v5,v5c,v5x  -0.89359   0.01872  -0.91231
:VZERX:v0,v0c,v0x  -1.25337  -0.39491  -0.85846 v5,v5c,v5x  -1.25337  -0.39491  -0.85846
:LMAX-WF:   10   Non-Spherical LMAX:   4

          ATOMIC SPHERE DEPENDENT PARAMETERS FOR ATOM  Pr1       
:e__0001: OVERALL ENERGY PARAMETER IS    0.7940
          OVERALL BASIS SET ON ATOM IS LAPW
:E0_0001: E( 0)=    0.7940
             APW+lo
:E0_0001: E( 0)=   -1.6380   E(BOTTOM)=   -2.276   E(TOP)=   -1.000  4  5   216
             LOCAL ORBITAL
:E1_0001: E( 1)=    1.1940
             APW+lo
:E1_0001: E( 1)=   -0.1691   E(BOTTOM)=   -1.130   E(TOP)=    0.792  3  4   227
             LOCAL ORBITAL
:E3_0001: E( 3)=    1.0086   E(BOTTOM)=    0.801   E(TOP)=    1.216  0  1   121
             APW+lo
:E2_0001: E( 2)=    0.7940   E(BOTTOM)=    0.607   E(TOP)= -200.000  2 -1   121
             APW+lo

       K=   0.06250   0.00000   0.06250            1
:RKM  : MATRIX SIZE   315LOs:  40  RKM= 8.49  WEIGHT= 4.00  PGR:    
       EIGENVALUES ARE:
:EIG00001:      -1.6528284   -1.5990101   -0.4452169   -0.2495359   -0.2044082
:EIG00006:      -0.1876125   -0.1697906   -0.1683236    0.8081846    0.8606033
:EIG00011:       0.9777519    0.9853865    0.9867259    0.9918673    1.0051469
:EIG00016:       1.0264679    1.0348498    1.0362310    1.0413021    1.0463660
:EIG00021:       1.0552107    1.0561145    1.0564716    1.0760797    1.0923460
:EIG00026:       1.1158809    1.2128251    1.2140256    1.2871080    1.3245537
:EIG00031:       1.3529140    1.5205238    1.5280918    1.6100952    1.9127060
:EIG00036:       1.9617535    1.9963427    2.1490704    2.2234084    2.3048408
:EIG00041:       2.4777099
       ********************************************************

:KPT   :      NUMBER OF K-POINTS:   288
:GAP (global)   :    0.0    Ry =     0.0   eV (metal)
         Bandranges (emin - emax) and occupancy:
:BAN00005:   5   -0.374747   -0.204408  2.00000000
:BAN00006:   6   -0.347191   -0.176810  2.00000000
:BAN00007:   7   -0.304344   -0.169513  2.00000000
:BAN00008:   8   -0.219374   -0.158312  2.00000000
:BAN00009:   9    0.791641    0.941891  2.00000000
:BAN00010:  10    0.836790    0.958726  2.00000000
:BAN00011:  11    0.866892    0.996261  2.00000000
:BAN00012:  12    0.934127    1.004195  1.98440613
:BAN00013:  13    0.954025    1.021212  1.36701677
:BAN00014:  14    0.980485    1.031406  0.64734244
:BAN00015:  15    0.999544    1.035566  0.00123465
:BAN00016:  16    1.007727    1.037173  0.00000000
:BAN00017:  17    1.023857    1.044983  0.00000000
:BAN00018:  18    1.029190    1.046254  0.00000000
:BAN00019:  19    1.037350    1.053582  0.00000000
:BAN00020:  20    1.040571    1.057498  0.00000000
        Energy to separate low and high energystates:    0.74164


:NOE  : NUMBER OF ELECTRONS          =   26.000

:FER  : F E R M I - ENERGY(TETRAH.M.)=   1.0002609334
:GMA  : POTENTIAL AND CHARGE CUT-OFF  12.00 Ry**.5

:POS001: ATOM   -1 X,Y,Z = 0.00000 0.89750 0.25000  MULT= 2  ZZ= 59.000  Pr1       

       LMMAX 16
       LM=   0 0  1 0  2 0  2 2  3 0  3 2  4 0  4 2  4 4  5 0  5 2  5 4  6 0  6 2  6 4  6 6

:CHA001: TOTAL VALENCE CHARGE INSIDE SPHERE   1 =   9.6279    (RMT=  2.3000 )
:PCS001: PARTIAL CHARGES SPHERE =  1 S,P,D,F,PX,PY,PZ,D-Z2,D-X2Y2,D-XY,D-XZ,D-YZ 
:QTL001: 1.9399 4.9825 0.7999 1.9039 1.6592 1.6559 1.6673 0.1557 0.1456 0.1626 0.1648 0.1712
        Q-s-low E-s-low   Q-p-low E-p-low   Q-d-low E-d-low   Q-f-low E-f-low
:EPL001:  1.8682 -1.5956    4.8954 -0.2857    0.0122 -0.3283    0.0038 -0.3369
        Q-s-hi  E-s-hi    Q-p-hi  E-p-hi    Q-d-hi  E-d-hi    Q-f-hi  E-f-hi 
:EPH001:  0.0718  0.9059    0.0870  0.9333    0.7877  0.9154    1.9001  0.9701

                      VXX         VYY         VZZ       UP TO R
:VZZ001:             1.53006     7.30603    -8.83609       2.300

:CHA  : TOTAL VALENCE CHARGE INSIDE UNIT CELL =      26.000000

:SUM  : SUM OF EIGENVALUES =          -0.512273837


        1.ATOM      Pr1                  14 CORE STATES
       CORE-FORCE in mRy/a.u. = |F|      Fx             Fy             Fz
:FCO001:   1.ATOM   1059.289388642337      0.000000000000      0.000000000000   1059.289388642337

:1S 001: 1S               -3066.576803694 Ry
:2S 001: 2S                -492.333607011 Ry
[...]
:OPC   : PW Pseudocharge     =    17.463396
:OTO001: CHARGE SPHERE  1    =    55.705627

:NEC02: NUCLEAR AND ELECTRONIC CHARGE    118.00000   118.00000
     
       CONVERGENCE TEST
:DTO001: DIFFERENCE IN SPHERE  1 =  0.0002747

:DIS  :  CHARGE DISTANCE       ( 0.0002747 for atom    1 spin 1)      0.0002747
 PW Mixed is          345
 
******************************************************
* MULTISECANT MIXING VER9 RELEASE 10.4.0              *
* Standard Mode with controls                        *
* Fixed density scale                                *
* Regularization       1.000E-04                     *
* Trust Upper Limit    5.000E+00                     *
* Max Number of Memory Steps    8                    *
******************************************************
 
:PWTMP   2.2199E+02  1.9467E+02  3.2392E+02
:PLANE:  PW TOTAL      5.7905 DISTAN   1.12E-04  1.93E-03 %
:CHARG:  CLM/ATOM   1381.9533 DISTAN   4.70E-04  3.40E-05 %
 
Step History
        DMIX         DMIXT        Red     Pred      Trust     Lambda    MagRel    MagAbs     Beta
  7   6.5476E-02   6.5476E-02  1.07E+00  9.17E-01  6.60E-01  2.92E+00  3.57E-01  1.05E-01  1.00E+00
  8   1.4873E-01   1.4873E-01  4.49E-01  2.96E-01  6.72E-01  1.97E+00  4.21E-01  1.32E-01  1.00E+00
  9   2.0126E-01   2.0126E-01  9.48E-01  2.69E-01  1.20E+00  1.86E+00  2.60E-01  3.67E-02  1.00E+00
 10   1.4274E-01   1.4274E-01  3.38E-01  2.21E-01  1.26E+00  1.94E+00  2.02E-01  2.71E-02  1.00E+00
 11   2.1107E-01   2.1107E-01  1.01E+00  2.63E-01  1.68E+00  1.85E+00  2.95E-01  1.33E-02  1.00E+00
 12   1.9556E-01   1.9556E-01  6.31E-01  1.19E-01  1.67E+00  1.78E+00  1.39E-01  6.36E-03  1.00E+00
 13   2.8272E-01   2.8272E-01  4.42E-01  1.29E-01  2.23E+00  1.71E+00  2.62E-01  7.55E-03  1.00E+00
 14   3.2409E-01   3.2409E-01  7.26E-02  1.04E-01  2.97E+00  1.85E+00  3.47E-01  4.42E-03  1.00E+00
 15   1.9406E-01   1.9406E-01 -1.00E+00  7.58E-01  3.97E+00  1.00E+00  2.47E-01  2.29E-04  1.00E+00
:JACOBIANS    6.805E-01   3.233E+00
  
:NORMS:  1/Froebius, Min, Max, Used   0.4727E+00  0.4461E+00  0.1006E+01  0.5039E+00
:INFO :  Number of Memory Steps    8 Skipping    6
:INFO :  SLambda=    1.6999212771  Max    1.6999212771
:PREDicted Charge, CTotal, PW Trust    7.552E-06   1.510E-05   2.114E-04
:PREDicted DMix, Beta, BLim   6.4973E-01  1.8947E+00  6.3061E-01

Eigenvalues, unscaled except for SY+YY
   #     SY Real        SY Imag          SS             YY         SY+YY Real      SY+YY Imag
   1   2.162705E+00   0.000000E+00   1.362983E+00   6.849863E+00   1.043710E+01   0.000000E+00
   2   2.454115E-01   0.000000E+00   1.806705E-01   5.905666E-01   1.061542E+00   0.000000E+00
   3   2.062887E-01   0.000000E+00   1.385936E-01   2.408264E-01   5.974982E-01   0.000000E+00
   4   1.093589E-01   0.000000E+00   8.868840E-02   1.817219E-01   3.772709E-01   0.000000E+00
   5   3.609640E-02   0.000000E+00   1.251583E-02   9.890373E-02   1.713968E-01   0.000000E+00
   6   1.091119E-02   0.000000E+00   2.784490E-03   2.620949E-02   5.251071E-02   0.000000E+00
   7   4.484388E-03   0.000000E+00   1.341399E-03   1.186187E-02   2.035122E-02   0.000000E+00
   8   1.838403E-05   0.000000E+00   7.082816E-06   4.743321E-05   8.050493E-05   0.000000E+00
 
:INFO :  Singular value  1.044E+01 Weight  1.000E+00 Projection  2.698E-05
:INFO :  Singular value  1.063E+00 Weight  1.000E+00 Projection -2.831E-04
:INFO :  Singular value  5.974E-01 Weight  1.000E+00 Projection  4.041E-04
:INFO :  Singular value  3.771E-01 Weight  1.000E+00 Projection -7.123E-04
:INFO :  Singular value  1.714E-01 Weight  1.000E+00 Projection -4.105E-04
:INFO :  Singular value  5.245E-02 Weight  9.998E-01 Projection  7.171E-04
:INFO :  Singular value  2.035E-02 Weight  9.989E-01 Projection -1.793E-03
:INFO :  Singular value  8.050E-05 Weight  1.362E-02 Projection  7.890E-05
:RANK :  ACTIVE   7.01/8  =  87.65 % ; YY RANK   7.00/8  =  87.51 %
 
:BLIM :  VZERO Control Off
:TRUST:  Step 5.29E+00  Charge 1.79E-02 (e) CTO  3.59E-02 (e) PW  3.59E-02 (e)
:DIRM :  MEMORY  8/8  SCALE   1.000 RED  0.52 PRED  0.76 NEXT  0.30 
:TRAVE:  Charge 3.18E-04 (e) CTO  6.36E-04 (e) PW  6.83E-04 (e)
:DIRP :  |MSR1|= 1.123E-04 |PRATT|= 1.116E-04 ANGLE=  14.9 DEGREES
:DIRQ :  |MSR1|= 3.652E-04 |PRATT|= 4.701E-04 ANGLE=  13.1 DEGREES
:DIRT :  |MSR1|= 3.820E-04 |PRATT|= 4.832E-04 ANGLE=  13.7 DEGREES
:MIX  :   MSE1   REGULARIZATION:  6.85E-04 GREED: 0.35000  Newton 1.00  0.7907                
     
       CHARGES OF MIXED CHARGE DENSITY
:CTO   : INTERSTITIAL CHARGE =     6.588721
:CPC   : PW Pseudocharge     =    17.463167
:CTO001: CHARGE SPHERE  1    =    55.705639

:NEC03: NUCLEAR AND ELECTRONIC CHARGE    118.00000   118.00000

PW CHANGE     H    K    L      Current       Change    Residue
:PTO001:      0    0    0  7.42525616E-02 -7.810E-07 -8.542E-07
:PTO003:      0    2    0  1.78107348E-02 -1.325E-07  1.029E-07
:PTO004:     -1    1    0  8.47025682E-02 -1.169E-06 -6.957E-07
:PTO005:      0    2   -1 -9.70698136E-02  1.758E-06  1.403E-06
:PTO006:      0    0   -2 -5.03205949E-02  9.049E-07  6.614E-07
:PTO007:     -1    1   -1 -1.01684625E-01  1.148E-06  4.530E-07
:PTO008:      0    2   -2 -1.46240375E-02 -3.872E-07 -4.102E-07
:PTO009:     -1    1   -2 -7.36890041E-02  2.045E-06  2.265E-06
:PTO011:     -1    3    0 -1.12313183E-02  5.328E-07  4.196E-07
:PTO012:     -1    3   -1 -4.65635134E-02  1.162E-06  9.845E-07
:PTO013:      0    4    0 -8.02449482E-03  4.451E-07  4.847E-07
:PTO014:      0    2   -3  1.85694428E-02 -3.367E-07 -2.182E-07

:ENE  : ********** TOTAL ENERGY IN Ry =       -36944.29018162

       TOTAL FORCE IN mRy/a.u. = |F|     Fx             Fy             Fz     with/without FOR in case.in2
:FOR001:   1.ATOM          3.666          0.000          0.000         -3.666 partial forces
       TOTAL FORCE WITH RESPECT TO GLOBAL CARTESIAN COORDINATES:
:FCA001:   1.ATOM                         0.000         -3.666          0.000 partial forces
       TOTAL FORCE WITH RESPECT TO THE GLOBAL COORDINATE SYSTEM:
:FGL001:   1.ATOM                 0.000000000    -3.666239563     0.000000000 partial forces
 Flat Integration
 New Mode for Coulomb Integral
 Consistent 3/8+Simpson combinations
 Extension of core to zero
 LDM version in phi
 Fifth-order quadrature in outwin


            ---------
:ITE016: 16. ITERATION
            ---------

:NATO :    1 INDEPENDENT AND    2 TOTAL ATOMS IN UNITCELL
       SUBSTANCE: aU                                                          

       LATTICE                      = CXY 
:POT  : POTENTIAL OPTION EX_LDA EC_LDA VX_LDA VC_LDA
:LAT  : LATTICE CONSTANTS=  5.66945 11.50475  9.93229    1.571    1.571    1.571
:VOL  : UNIT CELL VOLUME =     323.91998
       MODE OF CALCULATION IS       = RELA
       NON-SPINPOLARIZED CALCULATION
:IFFT  : FFT-parameters:   48   90   80 Factor: 2.00


   CONVERGENCE PARAMETER FOR PSEUDOCHARGE: NCON=  9
   MAXIMAL VALUE OF RMT(JATOM)*ABSK(NKK) : RK  =27.59882


:VKCOUL :  VK-COUL convergence: 0.231E-06
       ATOMNUMBER=  1 Pr1        VCOUL-ZERO =  0.46539E+00
:EFG001:                        EFG         =    -9.62982   *10**21  V / m**2
                               V20  TOT/SRF=    -8.33967    -0.05683
                               V22  TOT/SRF=    -2.99889    -0.00986
                               V22M TOT/SRF=     0.00000     0.00000
                               V21  TOT/SRF=     0.00000     0.00000
                               V21M TOT/SRF=     0.00000     0.00000

              1.81602    0.00000    0.00000        1.81602    0.00000    0.00000
              0.00000    7.81380    0.00000        0.00000    7.81380    0.00000
              0.00000    0.00000   -9.62982        0.00000    0.00000   -9.62982

         MAIN DIRECTIONS OF THE EFG   1.0000  0.0000  0.0000
                                      0.0000  1.0000  0.0000
                                      0.0000  0.0000  1.0000
:ANG001:  ANGLE WITH OLD X-AXIS =         0.0

:ETA001:                         ASYMM. ETA =     0.62283


     HELLMANN-FEYNMAN-FORCE IN mRy/a.u. = |F|  Fx       Fy             Fz
:FHF001:   1.ATOM   1648.016486243033      0.000000000000      0.000000000000  -1648.016486243033

:FIT001: LUSE= 13 SIGMA OF V-XC FIT FOR ATOM  1  0.6245039E-04
:FIT001: LUSE= 13 SIGMA OF V-XC FIT FOR ATOM  1  0.6245039E-04
:DEN  : DENSITY INTEGRAL  =        -14191.99998286   (Ry)
       ELS_POTENTIAL_AT Z=0 and Z=0.5:   0.92654   0.92654
       ELS_POTENTIAL_AT Y=0 and Y=0.5:   0.01947   0.01947
:VZERO:v0,v0c,v0x   0.23406   0.92654  -0.69248 v5,v5c,v5x   0.23406   0.92654  -0.69248
:VZERY:v0,v0c,v0x  -0.89238   0.01947  -0.91185 v5,v5c,v5x  -0.89238   0.01947  -0.91185
:VZERX:v0,v0c,v0x  -1.25203  -0.39468  -0.85735 v5,v5c,v5x  -1.25203  -0.39468  -0.85735
:LMAX-WF:   10   Non-Spherical LMAX:   4

          ATOMIC SPHERE DEPENDENT PARAMETERS FOR ATOM  Pr1       
:e__0001: OVERALL ENERGY PARAMETER IS    0.7888
          OVERALL BASIS SET ON ATOM IS LAPW
:E0_0001: E( 0)=    0.7888
             APW+lo
:E0_0001: E( 0)=   -1.6449   E(BOTTOM)=   -2.282   E(TOP)=   -1.008  4  5   219
             LOCAL ORBITAL
:E1_0001: E( 1)=    1.1888
             APW+lo
:E1_0001: E( 1)=   -0.1751   E(BOTTOM)=   -1.135   E(TOP)=    0.785  3  4   224
             LOCAL ORBITAL
:E3_0001: E( 3)=    0.9946   E(BOTTOM)=    0.789   E(TOP)=    1.200  0  1   113
             APW+lo
:E2_0001: E( 2)=    0.7888   E(BOTTOM)=    0.603   E(TOP)= -200.000  2 -1   122
             APW+lo

       K=   0.06250   0.00000   0.06250            1
:RKM  : MATRIX SIZE   315LOs:  40  RKM= 8.49  WEIGHT= 4.00  PGR:    
       EIGENVALUES ARE:
:EIG00001:      -1.6590524   -1.6056307   -0.4483105   -0.2550934   -0.2104175
:EIG00006:      -0.1931726   -0.1743366   -0.1740050    0.8056360    0.8584738
:EIG00011:       0.9678603    0.9734871    0.9747436    0.9814460    0.9936962
:EIG00016:       1.0137589    1.0214292    1.0229836    1.0284840    1.0326200
:EIG00021:       1.0417760    1.0427765    1.0440768    1.0617066    1.0830886
:EIG00026:       1.1091157    1.2084723    1.2106043    1.2833578    1.3207174
:EIG00031:       1.3492198    1.5171053    1.5243423    1.6065286    1.9083451
:EIG00036:       1.9572453    1.9926335    2.1461099    2.2201990    2.3022232
:EIG00041:       2.4751837
       ********************************************************

:KPT   :      NUMBER OF K-POINTS:   288
:GAP (global)   :    0.0    Ry =     0.0   eV (metal)
         Bandranges (emin - emax) and occupancy:
:BAN00005:   5   -0.378153   -0.210418  2.00000000
:BAN00006:   6   -0.351729   -0.182429  2.00000000
:BAN00007:   7   -0.309648   -0.174337  2.00000000
:BAN00008:   8   -0.224285   -0.164036  2.00000000
:BAN00009:   9    0.789363    0.936415  2.00000000
:BAN00010:  10    0.834300    0.951428  2.00000000
:BAN00011:  11    0.864028    0.987205  2.00000000
:BAN00012:  12    0.929201    0.993582  1.97586396
:BAN00013:  13    0.946216    1.008437  1.32722617
:BAN00014:  14    0.970411    1.017289  0.69463679
:BAN00015:  15    0.987824    1.021541  0.00227308
:BAN00016:  16    0.995479    1.024435  0.00000000
:BAN00017:  17    1.011574    1.031818  0.00000000
:BAN00018:  18    1.016071    1.033475  0.00000000
:BAN00019:  19    1.023830    1.041071  0.00000000
:BAN00020:  20    1.026343    1.043322  0.00000000
        Energy to separate low and high energystates:    0.73936


:NOE  : NUMBER OF ELECTRONS          =   26.000

:FER  : F E R M I - ENERGY(TETRAH.M.)=   0.9886919159
:GMA  : POTENTIAL AND CHARGE CUT-OFF  12.00 Ry**.5

:POS001: ATOM   -1 X,Y,Z = 0.00000 0.89750 0.25000  MULT= 2  ZZ= 59.000  Pr1       

       LMMAX 16
       LM=   0 0  1 0  2 0  2 2  3 0  3 2  4 0  4 2  4 4  5 0  5 2  5 4  6 0  6 2  6 4  6 6

:CHA001: TOTAL VALENCE CHARGE INSIDE SPHERE   1 =   9.7071    (RMT=  2.3000 )
:PCS001: PARTIAL CHARGES SPHERE =  1 S,P,D,F,PX,PY,PZ,D-Z2,D-X2Y2,D-XY,D-XZ,D-YZ 
:QTL001: 1.9379 4.9811 0.7638 2.0226 1.6591 1.6555 1.6665 0.1479 0.1359 0.1578 0.1570 0.1652
        Q-s-low E-s-low   Q-p-low E-p-low   Q-d-low E-d-low   Q-f-low E-f-low
:EPL001:  1.8687 -1.6022    4.9000 -0.2905    0.0121 -0.3324    0.0037 -0.3403
        Q-s-hi  E-s-hi    Q-p-hi  E-p-hi    Q-d-hi  E-d-hi    Q-f-hi  E-f-hi 
:EPH001:  0.0692  0.9001    0.0811  0.9260    0.7517  0.9087    2.0189  0.9604

                      VXX         VYY         VZZ       UP TO R
:VZZ001:             1.78442     7.77798    -9.56240       2.300

:CHA  : TOTAL VALENCE CHARGE INSIDE UNIT CELL =      26.000000

:SUM  : SUM OF EIGENVALUES =          -0.662031586


        1.ATOM      Pr1                  14 CORE STATES
       CORE-FORCE in mRy/a.u. = |F|      Fx             Fy             Fz
:FCO001:   1.ATOM   1644.397425660668      0.000000000000      0.000000000000   1644.397425660668

:1S 001: 1S               -3066.605666784 Ry
:2S 001: 2S                -492.359452392 Ry
:2PP001: 2P*               -465.457958480 Ry
:2P 001: 2P                -430.060681980 Ry
:3S 001: 3S                -105.457044760 Ry
:3PP001: 3P*                -93.994596617 Ry
:3P 001: 3P                 -86.986906277 Ry
:3DD001: 3D*                -66.912938100 Ry
:3D 001: 3D                 -65.401474899 Ry
:4S 001: 4S                 -20.124465893 Ry
:4PP001: 4P*                -15.830280001 Ry
:4P 001: 4P                 -14.301504621 Ry
:4DD001: 4D*                 -7.231746069 Ry
:4D 001: 4D                  -6.961866032 Ry
:CINT001 Core Integral Atom   1   45.998502

       DENSITY AT NUCLEUS
        JATOM        VALENCE       SEMI-CORE          CORE           TOTAL
:RTO001:   1      646.925331        0.000000   656826.301875   657473.227206
     
       CHARGES OF NEW CHARGE DENSITY
:NTO   : INTERSTITIAL CHARGE =     6.585748
:NPC   : PW Pseudocharge     =    17.455235
:NTO001: CHARGE SPHERE  1    =    55.705627

:NEC01: NUCLEAR AND ELECTRONIC CHARGE    118.00000   117.99700
     
       CHARGES OF OLD CHARGE DENSITY
:OTO   : INTERSTITIAL CHARGE =     6.588721
:OPC   : PW Pseudocharge     =    17.463167
:OTO001: CHARGE SPHERE  1    =    55.705639

:NEC02: NUCLEAR AND ELECTRONIC CHARGE    118.00000   118.00000
     
       CONVERGENCE TEST
:DTO001: DIFFERENCE IN SPHERE  1 =  0.0000469

:DIS  :  CHARGE DISTANCE       ( 0.0000469 for atom    1 spin 1)      0.0000469
 PW Mixed is          345
 
******************************************************
* MULTISECANT MIXING VER9 RELEASE 10.4.0              *
* Standard Mode with controls                        *
* Fixed density scale                                *
* Regularization       1.000E-04                     *
* Trust Upper Limit    5.000E+00                     *
* Max Number of Memory Steps    8                    *
******************************************************
 
:PWTMP   2.2199E+02  1.9467E+02  3.2392E+02
:PLANE:  PW TOTAL      5.7904 DISTAN   2.08E-05  3.59E-04 %
:CHARG:  CLM/ATOM   1381.9533 DISTAN   8.77E-05  6.35E-06 %
 
Step History
        DMIX         DMIXT        Red     Pred      Trust     Lambda    MagRel    MagAbs     Beta
  8   1.4873E-01   1.4873E-01  4.49E-01  2.96E-01  6.72E-01  1.97E+00  4.21E-01  1.32E-01  1.00E+00
  9   2.0126E-01   2.0126E-01  9.48E-01  2.69E-01  1.20E+00  1.86E+00  2.60E-01  3.67E-02  1.00E+00
 10   1.4274E-01   1.4274E-01  3.38E-01  2.21E-01  1.26E+00  1.94E+00  2.02E-01  2.71E-02  1.00E+00
 11   2.1107E-01   2.1107E-01  1.01E+00  2.63E-01  1.68E+00  1.85E+00  2.95E-01  1.33E-02  1.00E+00
 12   1.9556E-01   1.9556E-01  6.31E-01  1.19E-01  1.67E+00  1.78E+00  1.39E-01  6.36E-03  1.00E+00
 13   2.8272E-01   2.8272E-01  4.42E-01  1.29E-01  2.23E+00  1.71E+00  2.62E-01  7.55E-03  1.00E+00
 14   3.2409E-01   3.2409E-01  7.26E-02  1.04E-01  2.97E+00  1.85E+00  3.47E-01  4.42E-03  1.00E+00
 15   1.9406E-01   1.9406E-01  5.22E-01  7.58E-01  3.97E+00  1.70E+00  2.47E-01  2.29E-04  1.00E+00
 16   3.5000E-01   3.5000E-01 -1.00E+00  2.98E-01  5.29E+00  1.00E+00  7.91E-01  3.82E-04  1.00E+00
:JACOBIANS    4.685E-01   3.265E+00
  
:NORMS:  1/Froebius, Min, Max, Used   0.5480E+00  0.4867E+00  0.9524E+00  0.5482E+00
:INFO :  Number of Memory Steps    8 Skipping    7
:INFO :  SLambda=    1.7637117583  Max    1.7637117583
:PREDicted Charge, CTotal, PW Trust    8.900E-06   1.780E-05   1.437E-04
:PREDicted DMix, Beta, BLim   3.6606E-01  1.0695E+00  3.5026E+00

Eigenvalues, unscaled except for SY+YY
   #     SY Real        SY Imag          SS             YY         SY+YY Real      SY+YY Imag
   1   2.040792E+00   0.000000E+00   1.376077E+00   5.809452E+00   9.288336E+00   0.000000E+00
   2   1.162718E+00   0.000000E+00   8.645613E-01   1.612659E+00   3.703575E+00   0.000000E+00
   3   1.224261E-01   0.000000E+00   1.115437E-01   3.447577E-01   6.144255E-01   0.000000E+00
   4   9.399965E-02   0.000000E+00   4.443910E-02   1.693141E-01   3.535704E-01   0.000000E+00
   5   1.428076E-02   0.000000E+00   3.904056E-03   4.339036E-02   7.437160E-02   0.000000E+00
   6   7.506903E-03   0.000000E+00   1.881928E-03   1.971062E-02   3.518818E-02   0.000000E+00
   7   4.256205E-04   0.000000E+00   2.995470E-04   6.258352E-04   1.393673E-03   0.000000E+00
   8   4.301481E-05   0.000000E+00   1.586231E-05   9.027640E-05   1.744947E-04   0.000000E+00
 
:INFO :  Singular value  9.333E+00 Weight  1.000E+00 Projection  9.475E-06
:INFO :  Singular value  3.689E+00 Weight  1.000E+00 Projection  1.454E-05
:INFO :  Singular value  6.154E-01 Weight  1.000E+00 Projection  7.369E-06
:INFO :  Singular value  3.531E-01 Weight  1.000E+00 Projection -5.900E-06
:INFO :  Singular value  7.436E-02 Weight  9.999E-01 Projection -7.069E-05
:INFO :  Singular value  3.516E-02 Weight  9.997E-01 Projection -1.241E-04
:INFO :  Singular value  1.395E-03 Weight  8.521E-01 Projection -2.496E-03
:INFO :  Singular value  1.744E-04 Weight  8.265E-02 Projection  3.902E-04
:RANK :  ACTIVE   6.93/8  =  86.68 % ; YY RANK   6.56/8  =  82.00 %
 
:BLIM :  VZERO Control Off
:TRUST:  Step 7.05E+00  Charge 1.44E-02 (e) CTO  2.87E-02 (e) PW  2.87E-02 (e)
:DIRM :  MEMORY  8/8  SCALE   1.000 RED  0.19 PRED  0.30 NEXT  0.50 
:TRAVE:  Charge 1.61E-04 (e) CTO  3.22E-04 (e) PW  3.45E-04 (e)
:DIRP :  |MSR1|= 1.357E-05 |PRATT|= 2.079E-05 ANGLE=  15.1 DEGREES
:DIRQ :  |MSR1|= 5.725E-05 |PRATT|= 8.770E-05 ANGLE=  15.0 DEGREES
:DIRT :  |MSR1|= 5.884E-05 |PRATT|= 9.013E-05 ANGLE=  15.0 DEGREES
:MIX  :   MSE1   REGULARIZATION:  5.81E-04 GREED: 0.32973  Newton 1.00  0.6528                
     
       CHARGES OF MIXED CHARGE DENSITY
:CTO   : INTERSTITIAL CHARGE =     6.588728
:CPC   : PW Pseudocharge     =    17.463170
:CTO001: CHARGE SPHERE  1    =    55.705636

:NEC03: NUCLEAR AND ELECTRONIC CHARGE    118.00000   118.00000

PW CHANGE     H    K    L      Current       Change    Residue
:PTO001:      0    0    0  7.42525936E-02  3.206E-08  1.225E-07
:PTO003:      0    2    0  1.78107059E-02 -2.893E-08 -6.309E-08
:PTO004:     -1    1    0  8.47026556E-02  8.734E-08  1.638E-07
:PTO005:      0    2   -1 -9.70698914E-02 -7.783E-08 -1.439E-07
:PTO006:      0    0   -2 -5.03205694E-02  2.555E-08  3.675E-08
:PTO007:     -1    1   -1 -1.01684689E-01 -6.411E-08 -8.695E-08
:PTO008:      0    2   -2 -1.46240135E-02  2.394E-08  9.761E-08
:PTO009:     -1    1   -2 -7.36886134E-02  3.907E-07  6.189E-07
:PTO011:     -1    3    0 -1.12313916E-02 -7.329E-08 -1.203E-07
:PTO012:     -1    3   -1 -4.65635535E-02 -4.006E-08 -3.695E-08
:PTO013:      0    4    0 -8.02449868E-03 -3.860E-09 -8.363E-09
:PTO014:      0    2   -3  1.85694536E-02  1.081E-08  1.682E-08

:ENE  : ********** TOTAL ENERGY IN Ry =       -36944.29018170

       TOTAL FORCE IN mRy/a.u. = |F|     Fx             Fy             Fz     with/without FOR in case.in2
:FOR001:   1.ATOM          3.619          0.000          0.000         -3.619 partial forces
       TOTAL FORCE WITH RESPECT TO GLOBAL CARTESIAN COORDINATES:
:FCA001:   1.ATOM                         0.000         -3.619          0.000 partial forces
       TOTAL FORCE WITH RESPECT TO THE GLOBAL COORDINATE SYSTEM:
:FGL001:   1.ATOM                 0.000000000    -3.619060582     0.000000000 partial forces
