
------- case.scf0 --------
 Flat Integration
 New Mode for Coulomb Integral
 Consistent 3/8+Simpson combinations
 Extension of core to zero
 LDM version in phi
 Fifth-order quadrature in outwin


            ---------
:ITE020: 20. ITERATION
            ---------

:NATO :    1 INDEPENDENT AND    1 TOTAL ATOMS IN UNITCELL
       SUBSTANCE: blebleble                                                   

       LATTICE                      = F   
:POT  : POTENTIAL OPTION EX_LDA EC_LDA VX_LDA VC_LDA
:LAT  : LATTICE CONSTANTS=  7.62940  7.62940  7.62940    1.571    1.571    1.571
:VOL  : UNIT CELL VOLUME =     111.02254
       MODE OF CALCULATION IS       = RELA
       NON-SPINPOLARIZED CALCULATION
:IFFT  : FFT-parameters:   60   60   60 Factor: 2.00


   CONVERGENCE PARAMETER FOR PSEUDOCHARGE: NCON=  9
   MAXIMAL VALUE OF RMT(JATOM)*ABSK(NKK) : RK  =29.97764


:VKCOUL :  VK-COUL convergence: 0.163E-06
       ATOMNUMBER=  1 Pr         VCOUL-ZERO =  0.99787E+00
:FIT001: LUSE= 13 SIGMA OF V-XC FIT FOR ATOM  1  0.9952317E-04
:FIT001: LUSE= 13 SIGMA OF V-XC FIT FOR ATOM  1  0.9952317E-04
:DEN  : DENSITY INTEGRAL  =         -7121.96955203   (Ry)
       ELS_POTENTIAL_AT Z=0 and Z=0.5:  -3.12324  -3.12324
       ELS_POTENTIAL_AT Y=0 and Y=0.5:   0.00000   0.00000
:VZERO:v0,v0c,v0x  -4.28822  -3.12324  -1.16499 v5,v5c,v5x  -4.28822  -3.12324  -1.16499
:VZERY:v0,v0c,v0x  -0.97098   0.00000  -0.97098 v5,v5c,v5x  -0.97098   0.00000  -0.97098
:VZERX:v0,v0c,v0x  -0.97098   0.00000  -0.97098 v5,v5c,v5x  -0.97098   0.00000  -0.97098

------- case.scf1 --------
:LMAX-WF:   10   Non-Spherical LMAX:   4

          ATOMIC SPHERE DEPENDENT PARAMETERS FOR ATOM  Pr        
:e__0001: OVERALL ENERGY PARAMETER IS    1.2143
          OVERALL BASIS SET ON ATOM IS LAPW
:E0_0001: E( 0)=    1.2143
             APW+lo
:E0_0001: E( 0)=   -1.2413   E(BOTTOM)=   -1.640   E(TOP)=   -0.843  4  5   265
             LOCAL ORBITAL
:E1_0001: E( 1)=    1.6143
             APW+lo
:E1_0001: E( 1)=    0.1333   E(BOTTOM)=   -0.540   E(TOP)=    0.806  3  4   253
             LOCAL ORBITAL
:E3_0001: E( 3)=    1.4371   E(BOTTOM)=    1.285   E(TOP)=    1.589  0  1   122
             APW+lo
:E2_0001: E( 2)=    1.2143   E(BOTTOM)=    1.008   E(TOP)= -200.000  2 -1   121
             APW+lo

       K=   0.00000   0.00000   0.00000            1
:RKM  : MATRIX SIZE    85LOs:  20  RKM= 8.24  WEIGHT= 1.00  PGR:    
       EIGENVALUES ARE:
:EIG00001:      -1.3499631    0.3461167    0.3461167    0.3461167    1.3203127
:EIG00006:       1.3726911    1.4154983    1.4154983    1.4154983    1.5276058
:EIG00011:       1.5276058    1.5276058    1.5423391    1.5423391    1.5423391
:EIG00016:       1.9624936    1.9624936    2.4677108    2.8548533    2.8755059
:EIG00021:       2.8755059    2.8755059    4.7715630    4.7715630    4.7715630
:EIG00026:       4.8604128    4.8604128    5.0866018    5.0866018    5.0866018
:EIG00031:       5.8006547    6.2171372    6.2171372    6.2171372    6.8865203
:EIG00036:       6.8865203    6.8865203    7.2660975    7.2660975    7.2660975
:EIG00041:       7.3193597    7.3193597    7.3193597    7.3654993    7.3654993
:EIG00046:       7.4138001    7.4138001    7.4921485    7.4921485    7.4921485
 
:EIG00051:       7.8413746    7.9232394    7.9232394    7.9232394    7.9873918
:EIG00056:       8.1812084    8.1812084    8.1812084
       ********************************************************

:KPT   :      NUMBER OF K-POINTS:   165

------- case.scfso --------
   0.0   0.0 angle (M,z), angle (M,x) deg
 
        SPIN-ORBIT EIGENVALUES:
     K=   0.00000   0.00000   0.00000            1
      MATRIX SIZE=  116   WEIGHT= 1.00
     EIGENVALUES ARE:
          -1.3499631   -1.3499631    0.1768201    0.1768201    0.4264891
           0.4264891    0.4264891    0.4264891    1.3195432    1.3195432
           1.3726911    1.3726911    1.4090216    1.4090216    1.4090216
           1.4090216    1.4255199    1.4255199    1.5238348    1.5238348
           1.5312956    1.5312956    1.5312956    1.5312956    1.5372369
           1.5372369    1.5372369    1.5372369    1.5515902    1.5515902
           1.9628262    1.9628262    1.9628262    1.9628262    2.4678138
           2.4678138    2.8548533    2.8548533    2.8709557    2.8709557

           2.8778819    2.8778819    2.8778819    2.8778819
       ********************************************************

------- case.scf2 --------
:GMA  : POTENTIAL AND CHARGE CUT-OFF  12.00 Ry**.5




:POS001: at.nr.   1 position = 0.00000 0.00000 0.50000  multiplicity =  1

       lmmax  5
       lm=   0 0  4 0  4 4  6 0  6 4
:FER gutzwiller fermi energy   1.41580
:EORB          0.051808116
:SUM sum of gutz band energies          4.700078760

:CHA001: total charge inside sphere   1 =    11.037643
:PCS001: partial charges sphere =  1 s,p,d,f,      d-eg,d-t2g 
:QTL001: 2.0180 5.2936 1.3533 2.3567 0.0000 0.0000 0.0000 0.5156 0.8377 0.0000 0.0000 0.0000

:CHA  : total charge inside unit cell =       6.500000

------- case.scfc --------

        1.ATOM      Pr                   14 CORE STATES
:1S 001: 1S               -3066.154329745 Ry
:2S 001: 2S                -491.902215565 Ry
:2PP001: 2P*               -465.001538438 Ry
:2P 001: 2P                -429.603933115 Ry
:3S 001: 3S                -104.997936460 Ry
:3PP001: 3P*                -93.535620093 Ry
:3P 001: 3P                 -86.527849586 Ry
:3DD001: 3D*                -66.453823675 Ry
:3D 001: 3D                 -64.942337220 Ry
:4S 001: 4S                 -19.667793761 Ry
:4PP001: 4P*                -15.374062747 Ry
:4P 001: 4P                 -13.845890718 Ry
:4DD001: 4D*                 -6.777630963 Ry
:4D 001: 4D                  -6.508016066 Ry

------- case.scfm --------
:CINT001 Core Integral Atom   1   45.999485

       DENSITY AT NUCLEUS
        JATOM        VALENCE       SEMI-CORE          CORE           TOTAL
:RTO001:   1      637.969966        0.000000   656826.288115   657464.258082
 :WARNING: K-list has changed
     
       CHARGES OF NEW CHARGE DENSITY
:NTO   : INTERSTITIAL CHARGE =     1.962332
:NPC   : PW Pseudocharge     =     8.488999
:NTO001: CHARGE SPHERE  1    =    57.037128

:NEC01: NUCLEAR AND ELECTRONIC CHARGE     59.00000    58.99946
     
       CHARGES OF OLD CHARGE DENSITY
:OTO   : INTERSTITIAL CHARGE =     2.018178
:OPC   : PW Pseudocharge     =     8.538708
:OTO001: CHARGE SPHERE  1    =    56.981822

:NEC02: NUCLEAR AND ELECTRONIC CHARGE     59.00000    59.00000
     
       CONVERGENCE TEST
:DTO001: DIFFERENCE IN SPHERE  1 =  0.1612321

:DIS  :  CHARGE DISTANCE       ( 0.1612321 for atom    1 spin 1)      0.1612321
 PW Mixed is           29
 
******************************************************
* MULTISECANT MIXING VER9 RELEASE 10.4.0              *
* Standard Mode with controls                        *
* Fixed density scale                                *
* Regularization       1.000E-04                     *
* Trust Upper Limit    5.000E+00                     *
* Max Number of Memory Steps    8                    *
******************************************************
 
:PWTMP   4.5573E+01  1.2500E+02  1.1102E+02
:PLANE:  PW TOTAL      2.8703 DISTAN   2.57E-02  8.95E-01 %
:CHARG:  CLM/ATOM    977.1708 DISTAN   1.84E-01  1.88E-02 %
 
Step History
        DMIX         DMIXT        Red     Pred      Trust     Lambda    MagRel    MagAbs     Beta
  1   3.5000E-02   3.5000E-02 -1.00E+00  1.00E+00 -1.00E+01  1.00E+00  3.50E-02  3.50E-02  1.00E+00
:INFO :  Note, Pratt in use
:TRUST:  Step 3.75E-02  Charge 7.50E-02 (e) CTO  2.50E-01 (e) PW  3.50E-01 (e)
:DIRM :  MEMORY  0/ 8 SCALE   1.000
Performing Pseudo Compensation
Final Pseudo Compensation Rescaling     1.00000E+00
:MIX  :   PRATT  REGULARIZATION:  1.00E-04 GREED: 0.02500                  
     
       CHARGES OF MIXED CHARGE DENSITY
:CTO   : INTERSTITIAL CHARGE =     2.016795
:CPC   : PW Pseudocharge     =     8.521587
:CTO001: CHARGE SPHERE  1    =    56.983205

:NEC03: NUCLEAR AND ELECTRONIC CHARGE     59.00000    59.00000

PW CHANGE     H    K    L      Current       Change    Residue
:PTO001:      0    0    0  9.49210986E-02 -1.667E-04 -9.248E-04
:PTO002:     -1   -1   -1 -1.77707747E-01  5.126E-04 -1.973E-04
:PTO003:      0    0   -2  8.68617534E-02 -2.892E-04  6.743E-04
:PTO004:      0   -2   -2  3.28183656E-02 -3.657E-04 -1.049E-03
:PTO005:     -1   -1   -3  1.43457715E-03  6.584E-04  1.160E-03
:PTO006:     -2   -2   -2 -3.65989426E-03 -2.237E-04 -5.276E-04
:PTO007:      0    0   -4 -4.62621197E-03 -1.597E-04 -9.983E-05
:PTO008:     -1   -3   -3  1.11521768E-02  5.974E-04  7.089E-04
:PTO009:      0   -2   -4 -1.04427837E-02 -5.649E-04 -4.418E-04
:PTO010:     -2   -2   -4 -7.12909503E-03 -4.250E-04 -2.390E-04
:PTO011:     -3   -3   -3  1.68185613E-03  1.035E-04  7.603E-05
:PTO012:     -1   -1   -5  4.93767411E-03  3.057E-04  3.192E-05

:ENE  : ********** TOTAL ENERGY IN Ry =       -18472.02329072


------- case.scf0 --------
 Flat Integration
 New Mode for Coulomb Integral
 Consistent 3/8+Simpson combinations
 Extension of core to zero
 LDM version in phi
 Fifth-order quadrature in outwin


            ---------
:ITE021: 21. ITERATION
            ---------

:NATO :    1 INDEPENDENT AND    1 TOTAL ATOMS IN UNITCELL
       SUBSTANCE: blebleble                                                   

       LATTICE                      = F   
:POT  : POTENTIAL OPTION EX_LDA EC_LDA VX_LDA VC_LDA
:LAT  : LATTICE CONSTANTS=  7.62940  7.62940  7.62940    1.571    1.571    1.571
:VOL  : UNIT CELL VOLUME =     111.02254
       MODE OF CALCULATION IS       = RELA
       NON-SPINPOLARIZED CALCULATION
:IFFT  : FFT-parameters:   60   60   60 Factor: 2.00


   CONVERGENCE PARAMETER FOR PSEUDOCHARGE: NCON=  9
   MAXIMAL VALUE OF RMT(JATOM)*ABSK(NKK) : RK  =29.97764


:VKCOUL :  VK-COUL convergence: 0.161E-06
       ATOMNUMBER=  1 Pr         VCOUL-ZERO =  0.99651E+00
:FIT001: LUSE= 13 SIGMA OF V-XC FIT FOR ATOM  1  0.9905951E-04
:FIT001: LUSE= 13 SIGMA OF V-XC FIT FOR ATOM  1  0.9905951E-04
:DEN  : DENSITY INTEGRAL  =         -7122.12989180   (Ry)
       ELS_POTENTIAL_AT Z=0 and Z=0.5:  -3.11941  -3.11941
       ELS_POTENTIAL_AT Y=0 and Y=0.5:   0.00000   0.00000
:VZERO:v0,v0c,v0x  -4.28337  -3.11941  -1.16397 v5,v5c,v5x  -4.28337  -3.11941  -1.16397
:VZERY:v0,v0c,v0x  -0.97052   0.00000  -0.97052 v5,v5c,v5x  -0.97052   0.00000  -0.97052
:VZERX:v0,v0c,v0x  -0.97052   0.00000  -0.97052 v5,v5c,v5x  -0.97052   0.00000  -0.97052

------- case.scf1 --------
:LMAX-WF:   10   Non-Spherical LMAX:   4

          ATOMIC SPHERE DEPENDENT PARAMETERS FOR ATOM  Pr        
:e__0001: OVERALL ENERGY PARAMETER IS    1.2143
          OVERALL BASIS SET ON ATOM IS LAPW
:E0_0001: E( 0)=    1.2143
             APW+lo
:E0_0001: E( 0)=   -1.2411   E(BOTTOM)=   -1.640   E(TOP)=   -0.842  4  5   259
             LOCAL ORBITAL
:E1_0001: E( 1)=    1.6143
             APW+lo
:E1_0001: E( 1)=    0.1332   E(BOTTOM)=   -0.540   E(TOP)=    0.807  3  4   257
             LOCAL ORBITAL
:E3_0001: E( 3)=    1.4385   E(BOTTOM)=    1.286   E(TOP)=    1.591  0  1   120
             APW+lo
:E2_0001: E( 2)=    1.2143   E(BOTTOM)=    1.008   E(TOP)= -200.000  2 -1   121
             APW+lo

       K=   0.00000   0.00000   0.00000            1
:RKM  : MATRIX SIZE    85LOs:  20  RKM= 8.24  WEIGHT= 1.00  PGR:    
       EIGENVALUES ARE:
:EIG00001:      -1.3499800    0.3461084    0.3461084    0.3461084    1.3211323
:EIG00006:       1.3720137    1.4167736    1.4167736    1.4167736    1.5292964
:EIG00011:       1.5292964    1.5292964    1.5416149    1.5416149    1.5416149
:EIG00016:       1.9619520    1.9619520    2.4675158    2.8536430    2.8748861
:EIG00021:       2.8748861    2.8748861    4.7708929    4.7708929    4.7708929
:EIG00026:       4.8595584    4.8595584    5.0858688    5.0858688    5.0858688
:EIG00031:       5.7996368    6.2158970    6.2158970    6.2158970    6.8855401
:EIG00036:       6.8855401    6.8855401    7.2650392    7.2650392    7.2650392
:EIG00041:       7.3185880    7.3185880    7.3185880    7.3647261    7.3647261
:EIG00046:       7.4126357    7.4126357    7.4911600    7.4911600    7.4911600
 
:EIG00051:       7.8402395    7.9221037    7.9221037    7.9221037    7.9861047
:EIG00056:       8.1801045    8.1801045    8.1801045
       ********************************************************

:KPT   :      NUMBER OF K-POINTS:   165

------- case.scfso --------
   0.0   0.0 angle (M,z), angle (M,x) deg
 
        SPIN-ORBIT EIGENVALUES:
     K=   0.00000   0.00000   0.00000            1
      MATRIX SIZE=  116   WEIGHT= 1.00
     EIGENVALUES ARE:
          -1.3499800   -1.3499800    0.1768660    0.1768660    0.4264543
           0.4264543    0.4264543    0.4264543    1.3203686    1.3203686
           1.3720137    1.3720137    1.4103155    1.4103155    1.4103155
           1.4103155    1.4267745    1.4267745    1.5255220    1.5255220
           1.5329763    1.5329763    1.5329763    1.5329763    1.5365150
           1.5365150    1.5365150    1.5365150    1.5508623    1.5508623
           1.9622842    1.9622842    1.9622842    1.9622842    2.4676192
           2.4676192    2.8536430    2.8536430    2.8703475    2.8703475

           2.8772565    2.8772565    2.8772565    2.8772565
       ********************************************************

------- case.scf2 --------
:GMA  : POTENTIAL AND CHARGE CUT-OFF  12.00 Ry**.5




:POS001: at.nr.   1 position = 0.00000 0.00000 0.50000  multiplicity =  1

       lmmax  5
       lm=   0 0  4 0  4 4  6 0  6 4
:FER gutzwiller fermi energy   1.41519
:EORB          0.056771674
:SUM sum of gutz band energies          4.694887182

:CHA001: total charge inside sphere   1 =    11.035719
:PCS001: partial charges sphere =  1 s,p,d,f,      d-eg,d-t2g 
:QTL001: 2.0180 5.2928 1.3532 2.3556 0.0000 0.0000 0.0000 0.5155 0.8377 0.0000 0.0000 0.0000

:CHA  : total charge inside unit cell =       6.500000

------- case.scfc --------

        1.ATOM      Pr                   14 CORE STATES
:1S 001: 1S               -3066.150093162 Ry
:2S 001: 2S                -491.897990351 Ry
:2PP001: 2P*               -464.997309345 Ry
:2P 001: 2P                -429.599705539 Ry
:3S 001: 3S                -104.993903478 Ry
:3PP001: 3P*                -93.531571567 Ry
:3P 001: 3P                 -86.523826905 Ry
:3DD001: 3D*                -66.449750233 Ry
:3D 001: 3D                 -64.938270541 Ry
:4S 001: 4S                 -19.664982489 Ry
:4PP001: 4P*                -15.371323591 Ry
:4P 001: 4P                 -13.843264908 Ry
:4DD001: 4D*                 -6.775201214 Ry
:4D 001: 4D                  -6.505624620 Ry

------- case.scfm --------
:CINT001 Core Integral Atom   1   45.999484

       DENSITY AT NUCLEUS
        JATOM        VALENCE       SEMI-CORE          CORE           TOTAL
:RTO001:   1      637.782766        0.000000   656826.034586   657463.817352
     
       CHARGES OF NEW CHARGE DENSITY
:NTO   : INTERSTITIAL CHARGE =     1.964248
:NPC   : PW Pseudocharge     =     8.491278
:NTO001: CHARGE SPHERE  1    =    57.035202

:NEC01: NUCLEAR AND ELECTRONIC CHARGE     59.00000    58.99945
     
       CHARGES OF OLD CHARGE DENSITY
:OTO   : INTERSTITIAL CHARGE =     2.016795
:OPC   : PW Pseudocharge     =     8.521587
:OTO001: CHARGE SPHERE  1    =    56.983205

:NEC02: NUCLEAR AND ELECTRONIC CHARGE     59.00000    59.00000
     
       CONVERGENCE TEST
:DTO001: DIFFERENCE IN SPHERE  1 =  0.1506745

:DIS  :  CHARGE DISTANCE       ( 0.1506745 for atom    1 spin 1)      0.1506745
 PW Mixed is           29
 
******************************************************
* MULTISECANT MIXING VER9 RELEASE 10.4.0              *
* Slow Mode, cautious                                *
* Fixed density scale                                *
* Regularization       1.000E-04                     *
* Step Trust Radius    0.75000                       *
* Trust Upper Limit    2.000E+00                     *
* Max Number of Memory Steps   12                    *
******************************************************
 
:PWTMP   4.5573E+01  1.2500E+02  1.1102E+02
:PLANE:  PW TOTAL      2.8641 DISTAN   2.14E-02  7.46E-01 %
:CHARG:  CLM/ATOM    977.1711 DISTAN   1.73E-01  1.77E-02 %
 
Step History
        DMIX         DMIXT        Red     Pred      Trust     Lambda    MagRel    MagAbs     Beta
  1   3.5000E-02   3.5000E-02 -1.00E+00  1.00E+00 -1.00E+01  1.00E+00  3.50E-02  3.50E-02  1.00E+00
  2   2.5000E-02   2.5000E-02 -1.00E+00  1.00E+00 -1.00E+01  1.00E+00  2.50E-02  4.64E-03  1.00E+00
:JACOBIANS    1.995E-01   1.059E-01
  
:TRUST:  Step 2.81E-02  Charge 7.50E-02 (e) CTO  2.50E-01 (e) PW  3.50E-01 (e)
:DIRM :  MEMORY  1/12 SCALE   1.000
:MIX  :   PRATT  REGULARIZATION:  1.00E-04 GREED: 0.02809  Expand 1.12  0.0281                
     
       CHARGES OF MIXED CHARGE DENSITY
:CTO   : INTERSTITIAL CHARGE =     2.005582
:CPC   : PW Pseudocharge     =     8.382725
:CTO001: CHARGE SPHERE  1    =    56.994418

:NEC03: NUCLEAR AND ELECTRONIC CHARGE     59.00000    59.00000

PW CHANGE     H    K    L      Current       Change    Residue
:PTO001:      0    0    0  9.35693483E-02 -1.352E-03 -7.200E-04
:PTO002:     -1   -1   -1 -1.73550321E-01  4.157E-03 -6.975E-04
:PTO003:      0    0   -2  8.45164879E-02 -2.345E-03  9.480E-04
:PTO004:      0   -2   -2  2.98524747E-02 -2.966E-03 -6.806E-04
:PTO005:     -1   -1   -3  6.77421784E-03  5.340E-03  4.985E-04
:PTO006:     -2   -2   -2 -5.47388967E-03 -1.814E-03 -3.019E-04
:PTO007:      0    0   -4 -5.92122680E-03 -1.295E-03  6.145E-05
:PTO008:     -1   -3   -3  1.59973192E-02  4.845E-03  9.877E-05
:PTO009:      0   -2   -4 -1.50242059E-02 -4.581E-03  1.331E-04
:PTO010:     -2   -2   -4 -1.05756971E-02 -3.447E-03  1.925E-04
:PTO011:     -3   -3   -3  2.52160801E-03  8.398E-04 -2.913E-05
:PTO012:     -1   -1   -5  7.41715471E-03  2.479E-03 -2.769E-04

:ENE  : ********** TOTAL ENERGY IN Ry =       -18472.02294707


------- case.scf0 --------
 Flat Integration
 New Mode for Coulomb Integral
 Consistent 3/8+Simpson combinations
 Extension of core to zero
 LDM version in phi
 Fifth-order quadrature in outwin


            ---------
:ITE022: 22. ITERATION
            ---------

:NATO :    1 INDEPENDENT AND    1 TOTAL ATOMS IN UNITCELL
       SUBSTANCE: blebleble                                                   

       LATTICE                      = F   
:POT  : POTENTIAL OPTION EX_LDA EC_LDA VX_LDA VC_LDA
:LAT  : LATTICE CONSTANTS=  7.62940  7.62940  7.62940    1.571    1.571    1.571
:VOL  : UNIT CELL VOLUME =     111.02254
       MODE OF CALCULATION IS       = RELA
       NON-SPINPOLARIZED CALCULATION
:IFFT  : FFT-parameters:   60   60   60 Factor: 2.00


   CONVERGENCE PARAMETER FOR PSEUDOCHARGE: NCON=  9
   MAXIMAL VALUE OF RMT(JATOM)*ABSK(NKK) : RK  =29.97764


:VKCOUL :  VK-COUL convergence: 0.147E-06
       ATOMNUMBER=  1 Pr         VCOUL-ZERO =  0.98547E+00
:FIT001: LUSE= 13 SIGMA OF V-XC FIT FOR ATOM  1  0.9533938E-04
:FIT001: LUSE= 13 SIGMA OF V-XC FIT FOR ATOM  1  0.9533938E-04
:DEN  : DENSITY INTEGRAL  =         -7123.43061921   (Ry)
       ELS_POTENTIAL_AT Z=0 and Z=0.5:  -3.08832  -3.08832
       ELS_POTENTIAL_AT Y=0 and Y=0.5:   0.00000   0.00000
:VZERO:v0,v0c,v0x  -4.24384  -3.08832  -1.15552 v5,v5c,v5x  -4.24384  -3.08832  -1.15552
:VZERY:v0,v0c,v0x  -0.96677   0.00000  -0.96677 v5,v5c,v5x  -0.96677   0.00000  -0.96677
:VZERX:v0,v0c,v0x  -0.96677   0.00000  -0.96677 v5,v5c,v5x  -0.96677   0.00000  -0.96677

------- case.scf1 --------
:LMAX-WF:   10   Non-Spherical LMAX:   4

          ATOMIC SPHERE DEPENDENT PARAMETERS FOR ATOM  Pr        
:e__0001: OVERALL ENERGY PARAMETER IS    1.2143
          OVERALL BASIS SET ON ATOM IS LAPW
:E0_0001: E( 0)=    1.2143
             APW+lo
:E0_0001: E( 0)=   -1.2398   E(BOTTOM)=   -1.641   E(TOP)=   -0.839  4  5   253
             LOCAL ORBITAL
:E1_0001: E( 1)=    1.6143
             APW+lo
:E1_0001: E( 1)=    0.1326   E(BOTTOM)=   -0.543   E(TOP)=    0.809  3  4   263
             LOCAL ORBITAL
:E3_0001: E( 3)=    1.4502   E(BOTTOM)=    1.295   E(TOP)=    1.606  0  1   119
             APW+lo
:E2_0001: E( 2)=    1.2143   E(BOTTOM)=    1.003   E(TOP)= -200.000  2 -1   124
             APW+lo

       K=   0.00000   0.00000   0.00000            1
:RKM  : MATRIX SIZE    85LOs:  20  RKM= 8.24  WEIGHT= 1.00  PGR:    
       EIGENVALUES ARE:
:EIG00001:      -1.3501354    0.3460314    0.3460314    0.3460314    1.3276276
:EIG00006:       1.3665296    1.4270198    1.4270198    1.4270198    1.5357350
:EIG00011:       1.5357350    1.5357350    1.5429745    1.5429745    1.5429745
:EIG00016:       1.9575522    1.9575522    2.4660864    2.8438316    2.8699541
:EIG00021:       2.8699541    2.8699541    4.7654577    4.7654577    4.7654577
:EIG00026:       4.8526300    4.8526300    5.0799248    5.0799248    5.0799248
:EIG00031:       5.7913831    6.2058664    6.2058664    6.2058664    6.8775922
:EIG00036:       6.8775922    6.8775922    7.2564545    7.2564545    7.2564545
:EIG00041:       7.3123347    7.3123347    7.3123347    7.3584598    7.3584598
:EIG00046:       7.4031951    7.4031951    7.4831507    7.4831507    7.4831507
 
:EIG00051:       7.8310369    7.9129004    7.9129004    7.9129004    7.9756712
:EIG00056:       8.1711597    8.1711597    8.1711597
       ********************************************************

:KPT   :      NUMBER OF K-POINTS:   165

------- case.scfso --------
   0.0   0.0 angle (M,z), angle (M,x) deg
 
        SPIN-ORBIT EIGENVALUES:
     K=   0.00000   0.00000   0.00000            1
      MATRIX SIZE=  116   WEIGHT= 1.00
     EIGENVALUES ARE:
          -1.3501354   -1.3501354    0.1772284    0.1772284    0.4261623
           0.4261623    0.4261623    0.4261623    1.3269096    1.3269096
           1.3665296    1.3665296    1.4207122    1.4207122    1.4207122
           1.4207122    1.4368511    1.4368511    1.5306540    1.5306540
           1.5306540    1.5306540    1.5391743    1.5391743    1.5449527
           1.5449527    1.5465758    1.5465758    1.5465758    1.5465758
           1.9578808    1.9578808    1.9578808    1.9578808    2.4661934
           2.4661934    2.8438316    2.8438316    2.8655108    2.8655108

           2.8722788    2.8722788    2.8722788    2.8722788
       ********************************************************

------- case.scf2 --------
:GMA  : POTENTIAL AND CHARGE CUT-OFF  12.00 Ry**.5




:POS001: at.nr.   1 position = 0.00000 0.00000 0.50000  multiplicity =  1

       lmmax  5
       lm=   0 0  4 0  4 4  6 0  6 4
:FER gutzwiller fermi energy   1.41350
:EORB          0.089940941
:SUM sum of gutz band energies          4.659811997

:CHA001: total charge inside sphere   1 =    11.010216
:PCS001: partial charges sphere =  1 s,p,d,f,      d-eg,d-t2g 
:QTL001: 2.0192 5.2885 1.3658 2.3203 0.0000 0.0000 0.0000 0.5193 0.8465 0.0000 0.0000 0.0000

:CHA  : total charge inside unit cell =       6.500000

------- case.scfc --------

        1.ATOM      Pr                   14 CORE STATES
:1S 001: 1S               -3066.115733453 Ry
:2S 001: 2S                -491.863722855 Ry
:2PP001: 2P*               -464.963010380 Ry
:2P 001: 2P                -429.565418883 Ry
:3S 001: 3S                -104.961195009 Ry
:3PP001: 3P*                -93.498737047 Ry
:3P 001: 3P                 -86.491201989 Ry
:3DD001: 3D*                -66.416713654 Ry
:3D 001: 3D                 -64.905288814 Ry
:4S 001: 4S                 -19.642184169 Ry
:4PP001: 4P*                -15.349110810 Ry
:4P 001: 4P                 -13.821971825 Ry
:4DD001: 4D*                 -6.755501340 Ry
:4D 001: 4D                  -6.486235658 Ry

------- case.scfm --------
:CINT001 Core Integral Atom   1   45.999475

       DENSITY AT NUCLEUS
        JATOM        VALENCE       SEMI-CORE          CORE           TOTAL
:RTO001:   1      636.726716        0.000000   656823.977791   657460.704507
     
       CHARGES OF NEW CHARGE DENSITY
:NTO   : INTERSTITIAL CHARGE =     1.989816
:NPC   : PW Pseudocharge     =     8.523991
:NTO001: CHARGE SPHERE  1    =    57.009690

:NEC01: NUCLEAR AND ELECTRONIC CHARGE     59.00000    58.99951
     
       CHARGES OF OLD CHARGE DENSITY
:OTO   : INTERSTITIAL CHARGE =     2.005582
:OPC   : PW Pseudocharge     =     8.382725
:OTO001: CHARGE SPHERE  1    =    56.994418

:NEC02: NUCLEAR AND ELECTRONIC CHARGE     59.00000    59.00000
     
       CONVERGENCE TEST
:DTO001: DIFFERENCE IN SPHERE  1 =  0.0463533

:DIS  :  CHARGE DISTANCE       ( 0.0463533 for atom    1 spin 1)      0.0463533
 PW Mixed is           29
 
******************************************************
* MULTISECANT MIXING VER9 RELEASE 10.4.0              *
* Slow Mode, cautious                                *
* Fixed density scale                                *
* Regularization       1.000E-04                     *
* Step Trust Radius    0.75000                       *
* Trust Upper Limit    2.000E+00                     *
* Max Number of Memory Steps   12                    *
******************************************************
 
:PWTMP   4.5573E+01  1.2500E+02  1.1102E+02
:PLANE:  PW TOTAL      2.8138 DISTAN   7.91E-02  2.81E+00 %
:CHARG:  CLM/ATOM    977.1736 DISTAN   7.50E-02  7.67E-03 %
 
Step History
        DMIX         DMIXT        Red     Pred      Trust     Lambda    MagRel    MagAbs     Beta
  1   3.5000E-02   3.5000E-02 -1.00E+00  1.00E+00 -1.00E+01  1.00E+00  3.50E-02  3.50E-02  1.00E+00
  2   2.5000E-02   2.5000E-02  9.40E-01  1.00E+00 -1.00E+01  1.00E+00  2.50E-02  4.64E-03  1.00E+00
  3   2.8092E-02   2.8092E-02 -1.00E+00  1.00E+00 -1.00E+01  1.00E+00  2.81E-02  4.91E-03  1.00E+00
:JACOBIANS    2.880E-01   1.372E-01
  
:NORMS:  1/Froebius, Min, Max, Used   0.5842E+00  0.3931E+00  0.7863E+00  0.5842E+00
:INFO :  Number of Memory Steps    2 Skipping    0
:INFO :  SLambda=    0.4245760676  Max    0.4245760676
:PREDicted Charge, CTotal, PW Trust    8.401E-03   8.401E-03   4.615E-02
:PREDicted DMix, Beta, BLim   1.1120E-01  7.2837E-01  3.5325E-01

Eigenvalues, unscaled except for SY+YY
   #     SY Real        SY Imag          SS             YY         SY+YY Real      SY+YY Imag
   1   9.841112E-01   0.000000E+00   6.825143E-01   1.999906E+00   2.417727E+00   0.000000E+00
   2   5.551115E-17   0.000000E+00  -5.551115E-17   9.358022E-05   1.032488E-04   0.000000E+00
 
:INFO :  Singular value  2.418E+00 Weight  1.000E+00 Projection  1.294E-02
:INFO :  Singular value  1.032E-04 Weight  2.104E-01 Projection -1.785E+00
:RANK :  ACTIVE   1.21/2  =  60.52 % ; YY RANK   1.18/2  =  58.98 %
 
:DLIM :  Beta Active  8.000E-01
:BLIM :  VZERO Control Off
:TRUST:  Step 3.53E-01  Charge 7.50E-02 (e) CTO  2.50E-01 (e) PW  3.50E-01 (e)
:DIRM :  MEMORY  2/12 SCALE   1.000 RED  0.62 PRED  1.00 NEXT  0.90 BETA  0.80
:TRAVE:  Charge 1.38E-03 (e) CTO  1.38E-03 (e) PW  1.64E-02 (e)
:DIRP :  |MSR1|= 2.114E-02 |PRATT|= 7.911E-02 ANGLE=   6.5 DEGREES
:DIRQ :  |MSR1|= 4.821E-03 |PRATT|= 7.497E-02 ANGLE= 104.8 DEGREES
:DIRT :  |MSR1|= 2.168E-02 |PRATT|= 1.090E-01 ANGLE=  48.4 DEGREES
:MIX  :   MSD1   REGULARIZATION:  2.00E-04 GREED: 0.07012  Newton 1.00  0.1989                
     
       CHARGES OF MIXED CHARGE DENSITY
:CTO   : INTERSTITIAL CHARGE =     2.006960
:CPC   : PW Pseudocharge     =     8.421275
:CTO001: CHARGE SPHERE  1    =    56.993040

:NEC03: NUCLEAR AND ELECTRONIC CHARGE     59.00000    59.00000

PW CHANGE     H    K    L      Current       Change    Residue
:PTO001:      0    0    0  9.39289886E-02  3.596E-04  1.154E-03
:PTO002:     -1   -1   -1 -1.74732766E-01 -1.182E-03 -4.776E-03
:PTO003:      0    0   -2  8.52143952E-02  6.979E-04  3.142E-03
:PTO004:      0   -2   -2  3.06217800E-02  7.693E-04  2.351E-03
:PTO005:     -1   -1   -3  5.34328504E-03 -1.431E-03 -4.913E-03
:PTO006:     -2   -2   -2 -4.99631370E-03  4.776E-04  1.548E-03
:PTO007:      0    0   -4 -5.56239548E-03  3.588E-04  1.370E-03
:PTO008:     -1   -3   -3  1.46730252E-02 -1.324E-03 -4.867E-03
:PTO009:      0   -2   -4 -1.37576739E-02  1.267E-03  4.806E-03
:PTO010:     -2   -2   -4 -9.61636878E-03  9.593E-04  3.704E-03
:PTO011:     -3   -3   -3  2.28895158E-03 -2.327E-04 -8.861E-04
:PTO012:     -1   -1   -5  6.71850986E-03 -6.986E-04 -2.785E-03

:ENE  : ********** TOTAL ENERGY IN Ry =       -18472.02063131


------- case.scf0 --------
 Flat Integration
 New Mode for Coulomb Integral
 Consistent 3/8+Simpson combinations
 Extension of core to zero
 LDM version in phi
 Fifth-order quadrature in outwin


            ---------
:ITE023: 23. ITERATION
            ---------

:NATO :    1 INDEPENDENT AND    1 TOTAL ATOMS IN UNITCELL
       SUBSTANCE: blebleble                                                   

       LATTICE                      = F   
:POT  : POTENTIAL OPTION EX_LDA EC_LDA VX_LDA VC_LDA
:LAT  : LATTICE CONSTANTS=  7.62940  7.62940  7.62940    1.571    1.571    1.571
:VOL  : UNIT CELL VOLUME =     111.02254
       MODE OF CALCULATION IS       = RELA
       NON-SPINPOLARIZED CALCULATION
:IFFT  : FFT-parameters:   60   60   60 Factor: 2.00


   CONVERGENCE PARAMETER FOR PSEUDOCHARGE: NCON=  9
   MAXIMAL VALUE OF RMT(JATOM)*ABSK(NKK) : RK  =29.97764


:VKCOUL :  VK-COUL convergence: 0.152E-06
       ATOMNUMBER=  1 Pr         VCOUL-ZERO =  0.98816E+00
:FIT001: LUSE= 13 SIGMA OF V-XC FIT FOR ATOM  1  0.9521342E-04
:FIT001: LUSE= 13 SIGMA OF V-XC FIT FOR ATOM  1  0.9521342E-04
:DEN  : DENSITY INTEGRAL  =         -7123.30460610   (Ry)
       ELS_POTENTIAL_AT Z=0 and Z=0.5:  -3.09582  -3.09582
       ELS_POTENTIAL_AT Y=0 and Y=0.5:   0.00000   0.00000
:VZERO:v0,v0c,v0x  -4.25383  -3.09582  -1.15801 v5,v5c,v5x  -4.25383  -3.09582  -1.15801
:VZERY:v0,v0c,v0x  -0.96772   0.00000  -0.96772 v5,v5c,v5x  -0.96772   0.00000  -0.96772
:VZERX:v0,v0c,v0x  -0.96772   0.00000  -0.96772 v5,v5c,v5x  -0.96772   0.00000  -0.96772

------- case.scf1 --------
:LMAX-WF:   10   Non-Spherical LMAX:   4

          ATOMIC SPHERE DEPENDENT PARAMETERS FOR ATOM  Pr        
:e__0001: OVERALL ENERGY PARAMETER IS    1.2143
          OVERALL BASIS SET ON ATOM IS LAPW
:E0_0001: E( 0)=    1.2143
             APW+lo
:E0_0001: E( 0)=   -1.2388   E(BOTTOM)=   -1.640   E(TOP)=   -0.838  4  5   258
             LOCAL ORBITAL
:E1_0001: E( 1)=    1.6143
             APW+lo
:E1_0001: E( 1)=    0.1339   E(BOTTOM)=   -0.542   E(TOP)=    0.810  3  4   256
             LOCAL ORBITAL
:E3_0001: E( 3)=    1.4498   E(BOTTOM)=    1.295   E(TOP)=    1.605  0  1   120
             APW+lo
:E2_0001: E( 2)=    1.2143   E(BOTTOM)=    1.004   E(TOP)= -200.000  2 -1   119
             APW+lo

       K=   0.00000   0.00000   0.00000            1
:RKM  : MATRIX SIZE    85LOs:  20  RKM= 8.24  WEIGHT= 1.00  PGR:    
       EIGENVALUES ARE:
:EIG00001:      -1.3489269    0.3472286    0.3472286    0.3472286    1.3278824
:EIG00006:       1.3684770    1.4268003    1.4268003    1.4268003    1.5377152
:EIG00011:       1.5377152    1.5377152    1.5422439    1.5422439    1.5422439
:EIG00016:       1.9593560    1.9593560    2.4673999    2.8463847    2.8718188
:EIG00021:       2.8718188    2.8718188    4.7675548    4.7675548    4.7675548
:EIG00026:       4.8548808    4.8548808    5.0819270    5.0819270    5.0819270
:EIG00031:       5.7937380    6.2084450    6.2084450    6.2084450    6.8800389
:EIG00036:       6.8800389    6.8800389    7.2589551    7.2589551    7.2589551
:EIG00041:       7.3144401    7.3144401    7.3144401    7.3609762    7.3609762
:EIG00046:       7.4057032    7.4057032    7.4856710    7.4856710    7.4856710
 
:EIG00051:       7.8336254    7.9154037    7.9154037    7.9154037    7.9782875
:EIG00056:       8.1737447    8.1737447    8.1737447
       ********************************************************

:KPT   :      NUMBER OF K-POINTS:   165

------- case.scfso --------
   0.0   0.0 angle (M,z), angle (M,x) deg
 
        SPIN-ORBIT EIGENVALUES:
     K=   0.00000   0.00000   0.00000            1
      MATRIX SIZE=  116   WEIGHT= 1.00
     EIGENVALUES ARE:
          -1.3489269   -1.3489269    0.1783654    0.1783654    0.4273892
           0.4273892    0.4273892    0.4273892    1.3271582    1.3271582
           1.3684770    1.3684770    1.4204711    1.4204711    1.4204711
           1.4204711    1.4366558    1.4366558    1.5326319    1.5326319
           1.5326319    1.5326319    1.5384469    1.5384469    1.5458565
           1.5458565    1.5458565    1.5458565    1.5469365    1.5469365
           1.9596849    1.9596849    1.9596849    1.9596849    2.4675064
           2.4675064    2.8463847    2.8463847    2.8673628    2.8673628

           2.8741496    2.8741496    2.8741496    2.8741496
       ********************************************************

------- case.scf2 --------
:GMA  : POTENTIAL AND CHARGE CUT-OFF  12.00 Ry**.5




:POS001: at.nr.   1 position = 0.00000 0.00000 0.50000  multiplicity =  1

       lmmax  5
       lm=   0 0  4 0  4 4  6 0  6 4
:FER gutzwiller fermi energy   1.41511
:EORB          0.084837765
:SUM sum of gutz band energies          4.680544042

:CHA001: total charge inside sphere   1 =    11.013022
:PCS001: partial charges sphere =  1 s,p,d,f,      d-eg,d-t2g 
:QTL001: 2.0191 5.2892 1.3650 2.3234 0.0000 0.0000 0.0000 0.5191 0.8459 0.0000 0.0000 0.0000

:CHA  : total charge inside unit cell =       6.500000

------- case.scfc --------

        1.ATOM      Pr                   14 CORE STATES
:1S 001: 1S               -3066.120219334 Ry
:2S 001: 2S                -491.867994366 Ry
:2PP001: 2P*               -464.967329332 Ry
:2P 001: 2P                -429.569719898 Ry
:3S 001: 3S                -104.964896229 Ry
:3PP001: 3P*                -93.502474881 Ry
:3P 001: 3P                 -86.494892093 Ry
:3DD001: 3D*                -66.420510356 Ry
:3D 001: 3D                 -64.909071232 Ry
:4S 001: 4S                 -19.644231849 Ry
:4PP001: 4P*                -15.351074236 Ry
:4P 001: 4P                 -13.823797911 Ry
:4DD001: 4D*                 -6.757097850 Ry
:4D 001: 4D                  -6.487786290 Ry

------- case.scfm --------
:CINT001 Core Integral Atom   1   45.999476

       DENSITY AT NUCLEUS
        JATOM        VALENCE       SEMI-CORE          CORE           TOTAL
:RTO001:   1      636.896501        0.000000   656824.354426   657461.250927
     
       CHARGES OF NEW CHARGE DENSITY
:NTO   : INTERSTITIAL CHARGE =     1.986859
:NPC   : PW Pseudocharge     =     8.520496
:NTO001: CHARGE SPHERE  1    =    57.012498

:NEC01: NUCLEAR AND ELECTRONIC CHARGE     59.00000    58.99936
     
       CHARGES OF OLD CHARGE DENSITY
:OTO   : INTERSTITIAL CHARGE =     2.006960
:OPC   : PW Pseudocharge     =     8.421275
:OTO001: CHARGE SPHERE  1    =    56.993040

:NEC02: NUCLEAR AND ELECTRONIC CHARGE     59.00000    59.00000
     
       CONVERGENCE TEST
:DTO001: DIFFERENCE IN SPHERE  1 =  0.0548933

:DIS  :  CHARGE DISTANCE       ( 0.0548933 for atom    1 spin 1)      0.0548933
 PW Mixed is           29
 
******************************************************
* MULTISECANT MIXING VER9 RELEASE 10.4.0              *
* Standard Mode with controls                        *
* Fixed density scale                                *
* Regularization       1.000E-04                     *
* Trust Upper Limit    5.000E+00                     *
* Max Number of Memory Steps    8                    *
******************************************************
 
:PWTMP   4.5573E+01  1.2500E+02  1.1102E+02
:PLANE:  PW TOTAL      2.8275 DISTAN   5.79E-02  2.05E+00 %
:CHARG:  CLM/ATOM    977.1725 DISTAN   8.09E-02  8.28E-03 %
 
Step History
        DMIX         DMIXT        Red     Pred      Trust     Lambda    MagRel    MagAbs     Beta
  1   3.5000E-02   3.5000E-02 -1.00E+00  1.00E+00 -1.00E+01  1.00E+00  3.50E-02  3.50E-02  1.00E+00
  2   2.5000E-02   2.5000E-02  9.40E-01  1.00E+00 -1.00E+01  1.00E+00  2.50E-02  4.64E-03  1.00E+00
  3   2.8092E-02   2.8092E-02  6.24E-01  1.00E+00 -1.00E+01  4.25E-01  2.81E-02  4.91E-03  1.00E+00
  4   7.0121E-02   7.0121E-02 -1.00E+00  9.05E-01  3.53E-01  1.00E+00  1.99E-01  2.17E-02  8.00E-01
:JACOBIANS    6.051E-01   2.640E-01
  
:NORMS:  1/Froebius, Min, Max, Used   0.6437E+00  0.5001E+00  0.1006E+01  0.6469E+00
:INFO :  Number of Memory Steps    3 Skipping    0
:INFO :  SLambda=    0.9504464271  Max    0.9504464271
:PREDicted Charge, CTotal, PW Trust    5.109E-03   5.109E-03   6.965E-02
:PREDicted DMix, Beta, BLim   7.3632E-01  3.8822E+00  1.3159E+00

Eigenvalues, unscaled except for SY+YY
   #     SY Real        SY Imag          SS             YY         SY+YY Real      SY+YY Imag
   1   1.562433E+00   0.000000E+00   1.194048E+00   2.853071E+00   4.320167E+00   0.000000E+00
   2  -9.102920E-15   0.000000E+00   4.897227E-02   1.468836E-01   5.173626E-05   0.000000E+00
   3   8.470321E-02   0.000000E+00   7.149088E-17   4.550377E-05   2.452965E-01   0.000000E+00
 
:INFO :  Singular value  4.321E+00 Weight  1.000E+00 Projection  4.601E-03
:INFO :  Singular value  2.453E-01 Weight  1.000E+00 Projection -2.534E-01
:INFO :  Singular value  5.174E-05 Weight  3.183E-02 Projection  7.313E-02
:RANK :  ACTIVE   2.03/3  =  67.73 % ; YY RANK   2.02/3  =  67.49 %
 
:BLIM :  VZERO Control Off
:TRUST:  Step 8.35E-01  Charge 7.50E-02 (e) CTO  2.50E-01 (e) PW  3.50E-01 (e)
:DIRM :  MEMORY  3/8  SCALE   1.000 RED  0.91 PRED  0.90 NEXT  0.28 
:TRAVE:  Charge 3.54E-03 (e) CTO  3.54E-03 (e) PW  3.32E-02 (e)
:DIRP :  |MSR1|= 6.782E-02 |PRATT|= 5.791E-02 ANGLE=   5.9 DEGREES
:DIRQ :  |MSR1|= 4.243E-02 |PRATT|= 8.088E-02 ANGLE=  23.0 DEGREES
:DIRT :  |MSR1|= 8.000E-02 |PRATT|= 9.948E-02 ANGLE=  27.4 DEGREES
:MIX  :   MSD1   REGULARIZATION:  2.85E-04 GREED: 0.17530  Newton 1.00  0.8042                
     
       CHARGES OF MIXED CHARGE DENSITY
:CTO   : INTERSTITIAL CHARGE =     2.001261
:CPC   : PW Pseudocharge     =     8.548694
:CTO001: CHARGE SPHERE  1    =    56.998739

:NEC03: NUCLEAR AND ELECTRONIC CHARGE     59.00000    59.00000

PW CHANGE     H    K    L      Current       Change    Residue
:PTO001:      0    0    0  9.50253426E-02  1.096E-03  7.433E-04
:PTO002:     -1   -1   -1 -1.78757279E-01 -4.025E-03 -3.626E-03
:PTO003:      0    0   -2  8.77793725E-02  2.565E-03  2.468E-03
:PTO004:      0   -2   -2  3.27277219E-02  2.106E-03  1.577E-03
:PTO005:     -1   -1   -3  1.10244866E-03 -4.241E-03 -3.470E-03
:PTO006:     -2   -2   -2 -3.63796251E-03  1.358E-03  1.066E-03
:PTO007:      0    0   -4 -4.41458799E-03  1.148E-03  1.007E-03
:PTO008:     -1   -3   -3  1.05506585E-02 -4.122E-03 -3.525E-03
:PTO009:      0   -2   -4 -9.71835210E-03  4.039E-03  3.525E-03
:PTO010:     -2   -2   -4 -6.51017835E-03  3.106E-03  2.735E-03
:PTO011:     -3   -3   -3  1.54276370E-03 -7.462E-04 -6.513E-04
:PTO012:     -1   -1   -5  4.39971169E-03 -2.319E-03 -2.082E-03

:ENE  : ********** TOTAL ENERGY IN Ry =       -18472.02088231


------- case.scf0 --------
 Flat Integration
 New Mode for Coulomb Integral
 Consistent 3/8+Simpson combinations
 Extension of core to zero
 LDM version in phi
 Fifth-order quadrature in outwin


            ---------
:ITE024: 24. ITERATION
            ---------

:NATO :    1 INDEPENDENT AND    1 TOTAL ATOMS IN UNITCELL
       SUBSTANCE: blebleble                                                   

       LATTICE                      = F   
:POT  : POTENTIAL OPTION EX_LDA EC_LDA VX_LDA VC_LDA
:LAT  : LATTICE CONSTANTS=  7.62940  7.62940  7.62940    1.571    1.571    1.571
:VOL  : UNIT CELL VOLUME =     111.02254
       MODE OF CALCULATION IS       = RELA
       NON-SPINPOLARIZED CALCULATION
:IFFT  : FFT-parameters:   60   60   60 Factor: 2.00


   CONVERGENCE PARAMETER FOR PSEUDOCHARGE: NCON=  9
   MAXIMAL VALUE OF RMT(JATOM)*ABSK(NKK) : RK  =29.97764


:VKCOUL :  VK-COUL convergence: 0.177E-06
       ATOMNUMBER=  1 Pr         VCOUL-ZERO =  0.99495E+00
:FIT001: LUSE= 13 SIGMA OF V-XC FIT FOR ATOM  1  0.8742322E-04
:FIT001: LUSE= 13 SIGMA OF V-XC FIT FOR ATOM  1  0.8742322E-04
:DEN  : DENSITY INTEGRAL  =         -7124.21558985   (Ry)
       ELS_POTENTIAL_AT Z=0 and Z=0.5:  -3.11409  -3.11409
       ELS_POTENTIAL_AT Y=0 and Y=0.5:   0.00000   0.00000
:VZERO:v0,v0c,v0x  -4.28084  -3.11409  -1.16675 v5,v5c,v5x  -4.28084  -3.11409  -1.16675
:VZERY:v0,v0c,v0x  -0.97028   0.00000  -0.97028 v5,v5c,v5x  -0.97028   0.00000  -0.97028
:VZERX:v0,v0c,v0x  -0.97028   0.00000  -0.97028 v5,v5c,v5x  -0.97028   0.00000  -0.97028

------- case.scf1 --------
:LMAX-WF:   10   Non-Spherical LMAX:   4

          ATOMIC SPHERE DEPENDENT PARAMETERS FOR ATOM  Pr        
:e__0001: OVERALL ENERGY PARAMETER IS    1.2143
          OVERALL BASIS SET ON ATOM IS LAPW
:E0_0001: E( 0)=    1.2143
             APW+lo
:E0_0001: E( 0)=   -1.2275   E(BOTTOM)=   -1.629   E(TOP)=   -0.826  4  5   259
             LOCAL ORBITAL
:E1_0001: E( 1)=    1.6143
             APW+lo
:E1_0001: E( 1)=    0.1445   E(BOTTOM)=   -0.532   E(TOP)=    0.821  3  4   254
             LOCAL ORBITAL
:E3_0001: E( 3)=    1.4645   E(BOTTOM)=    1.308   E(TOP)=    1.621  0  1   126
             APW+lo
:E2_0001: E( 2)=    1.2143   E(BOTTOM)=    1.013   E(TOP)= -200.000  2 -1   124
             APW+lo

       K=   0.00000   0.00000   0.00000            1
:RKM  : MATRIX SIZE    85LOs:  20  RKM= 8.24  WEIGHT= 1.00  PGR:    
       EIGENVALUES ARE:
:EIG00001:      -1.3381590    0.3580289    0.3580289    0.3580289    1.3404145
:EIG00006:       1.3774492    1.4411930    1.4411930    1.4411930    1.5462858
:EIG00011:       1.5462858    1.5462858    1.5575387    1.5575387    1.5575387
:EIG00016:       1.9687353    1.9687353    2.4772133    2.8539168    2.8810353
:EIG00021:       2.8810353    2.8810353    4.7779254    4.7779254    4.7779254
:EIG00026:       4.8642684    4.8642684    5.0906142    5.0906142    5.0906142
:EIG00031:       5.8019532    6.2158585    6.2158585    6.2158585    6.8895859
:EIG00036:       6.8895859    6.8895859    7.2679114    7.2679114    7.2679114
:EIG00041:       7.3236065    7.3236065    7.3236065    7.3739022    7.3739022
:EIG00046:       7.4133709    7.4133709    7.4957794    7.4957794    7.4957794
 
:EIG00051:       7.8424543    7.9234421    7.9234421    7.9234421    7.9853599
:EIG00056:       8.1829577    8.1829577    8.1829577
       ********************************************************

:KPT   :      NUMBER OF K-POINTS:   165

------- case.scfso --------
   0.0   0.0 angle (M,z), angle (M,x) deg
 
        SPIN-ORBIT EIGENVALUES:
     K=   0.00000   0.00000   0.00000            1
      MATRIX SIZE=  116   WEIGHT= 1.00
     EIGENVALUES ARE:
          -1.3381590   -1.3381590    0.1893255    0.1893255    0.4381145
           0.4381145    0.4381145    0.4381145    1.3397060    1.3397060
           1.3774492    1.3774492    1.4349080    1.4349080    1.4349080
           1.4349080    1.4509957    1.4509957    1.5412124    1.5412124
           1.5412124    1.5412124    1.5537316    1.5537316    1.5554924
           1.5554924    1.5611294    1.5611294    1.5611294    1.5611294
           1.9690625    1.9690625    1.9690625    1.9690625    2.4773212
           2.4773212    2.8539168    2.8539168    2.8766198    2.8766198

           2.8833466    2.8833466    2.8833466    2.8833466
       ********************************************************

------- case.scf2 --------
:GMA  : POTENTIAL AND CHARGE CUT-OFF  12.00 Ry**.5




:POS001: at.nr.   1 position = 0.00000 0.00000 0.50000  multiplicity =  1

       lmmax  5
       lm=   0 0  4 0  4 4  6 0  6 4
:FER gutzwiller fermi energy   1.42552
:EORB          0.095358918
:SUM sum of gutz band energies          4.809143868

:CHA001: total charge inside sphere   1 =    11.003474
:PCS001: partial charges sphere =  1 s,p,d,f,      d-eg,d-t2g 
:QTL001: 2.0196 5.2878 1.3705 2.3091 0.0000 0.0000 0.0000 0.5206 0.8499 0.0000 0.0000 0.0000

:CHA  : total charge inside unit cell =       6.500000

------- case.scfc --------

        1.ATOM      Pr                   14 CORE STATES
:1S 001: 1S               -3066.107809021 Ry
:2S 001: 2S                -491.853360357 Ry
:2PP001: 2P*               -464.953167347 Ry
:2P 001: 2P                -429.555380229 Ry
:3S 001: 3S                -104.946800396 Ry
:3PP001: 3P*                -93.484552294 Ry
:3P 001: 3P                 -86.476829556 Ry
:3DD001: 3D*                -66.402868538 Ry
:3D 001: 3D                 -64.891372620 Ry
:4S 001: 4S                 -19.626341993 Ry
:4PP001: 4P*                -15.333351927 Ry
:4P 001: 4P                 -13.806280416 Ry
:4DD001: 4D*                 -6.740036529 Ry
:4D 001: 4D                  -6.470800957 Ry

------- case.scfm --------
:CINT001 Core Integral Atom   1   45.999473

       DENSITY AT NUCLEUS
        JATOM        VALENCE       SEMI-CORE          CORE           TOTAL
:RTO001:   1      636.570895        0.000000   656824.681142   657461.252037
     
       CHARGES OF NEW CHARGE DENSITY
:NTO   : INTERSTITIAL CHARGE =     1.996440
:NPC   : PW Pseudocharge     =     8.534279
:NTO001: CHARGE SPHERE  1    =    57.002947

:NEC01: NUCLEAR AND ELECTRONIC CHARGE     59.00000    58.99939
     
       CHARGES OF OLD CHARGE DENSITY
:OTO   : INTERSTITIAL CHARGE =     2.001261
:OPC   : PW Pseudocharge     =     8.548694
:OTO001: CHARGE SPHERE  1    =    56.998739

:NEC02: NUCLEAR AND ELECTRONIC CHARGE     59.00000    59.00000
     
       CONVERGENCE TEST
:DTO001: DIFFERENCE IN SPHERE  1 =  0.0149557

:DIS  :  CHARGE DISTANCE       ( 0.0149557 for atom    1 spin 1)      0.0149557
 PW Mixed is           29
 
******************************************************
* MULTISECANT MIXING VER9 RELEASE 10.4.0              *
* Standard Mode with controls                        *
* Fixed density scale                                *
* Regularization       1.000E-04                     *
* Trust Upper Limit    5.000E+00                     *
* Max Number of Memory Steps    8                    *
******************************************************
 
:PWTMP   4.5573E+01  1.2500E+02  1.1102E+02
:PLANE:  PW TOTAL      2.8731 DISTAN   8.67E-03  3.02E-01 %
:CHARG:  CLM/ATOM    977.1649 DISTAN   2.26E-02  2.31E-03 %
 
Step History
        DMIX         DMIXT        Red     Pred      Trust     Lambda    MagRel    MagAbs     Beta
  1   3.5000E-02   3.5000E-02 -1.00E+00  1.00E+00 -1.00E+01  1.00E+00  3.50E-02  3.50E-02  1.00E+00
  2   2.5000E-02   2.5000E-02  9.40E-01  1.00E+00 -1.00E+01  1.00E+00  2.50E-02  4.64E-03  1.00E+00
  3   2.8092E-02   2.8092E-02  6.24E-01  1.00E+00 -1.00E+01  4.25E-01  2.81E-02  4.91E-03  1.00E+00
  4   7.0121E-02   7.0121E-02  9.13E-01  9.05E-01  3.53E-01  9.50E-01  1.99E-01  2.17E-02  8.00E-01
  5   1.7530E-01   1.7530E-01 -1.00E+00  2.82E-01  8.35E-01  1.00E+00  8.04E-01  8.00E-02  1.00E+00
:JACOBIANS    7.420E-01   3.894E-01
  
:NORMS:  1/Froebius, Min, Max, Used   0.7304E+00  0.5457E+00  0.1020E+01  0.7868E+00
:INFO :  Number of Memory Steps    4 Skipping    0
:INFO :  SLambda=    1.4256696407  Max    1.4256696407
:PREDicted Charge, CTotal, PW Trust    8.216E-03   8.216E-03   4.714E-02
:PREDicted DMix, Beta, BLim   1.2464E-01  1.0316E+00  2.1153E+00

Eigenvalues, unscaled except for SY+YY
   #     SY Real        SY Imag          SS             YY         SY+YY Real      SY+YY Imag
   1   2.008606E+00   0.000000E+00   1.861638E+00   3.007138E+00   5.712291E+00   0.000000E+00
   2   5.172527E-01   0.000000E+00   2.723381E-01   9.927550E-01   1.888613E+00   0.000000E+00
   3  -5.335044E-15   0.000000E+00   1.255184E-05   9.419832E-05   1.534440E-05   0.000000E+00
   4   3.084946E-05   0.000000E+00  -1.221252E-17   1.248289E-05   1.645976E-04   0.000000E+00
 
:INFO :  Singular value  5.715E+00 Weight  1.000E+00 Projection -5.856E-03
:INFO :  Singular value  1.888E+00 Weight  1.000E+00 Projection  1.272E-02
:INFO :  Singular value  1.647E-04 Weight  2.307E-01 Projection -4.019E-01
:INFO :  Singular value  1.534E-05 Weight  2.594E-03 Projection  1.052E-02
:RANK :  ACTIVE   2.23/4  =  55.83 % ; YY RANK   2.09/4  =  52.28 %
 
:BLIM :  VZERO Control Off
:TRUST:  Step 1.35E+00  Charge 6.00E-02 (e) CTO  2.00E-01 (e) PW  2.80E-01 (e)
:DIRM :  MEMORY  4/8  SCALE   1.000 RED  0.24 PRED  0.28 NEXT  0.73 
:TRAVE:  Charge 2.91E-03 (e) CTO  2.91E-03 (e) PW  1.81E-02 (e)
:DIRP :  |MSR1|= 4.084E-03 |PRATT|= 8.673E-03 ANGLE=   4.0 DEGREES
:DIRQ :  |MSR1|= 1.168E-02 |PRATT|= 2.259E-02 ANGLE=  11.4 DEGREES
:DIRT :  |MSR1|= 1.237E-02 |PRATT|= 2.420E-02 ANGLE=  10.9 DEGREES
:MIX  :   MSE1   REGULARIZATION:  3.01E-04 GREED: 0.11854  Newton 1.00  0.5113                
     
       CHARGES OF MIXED CHARGE DENSITY
:CTO   : INTERSTITIAL CHARGE =     1.998981
:CPC   : PW Pseudocharge     =     8.543465
:CTO001: CHARGE SPHERE  1    =    57.001019

:NEC03: NUCLEAR AND ELECTRONIC CHARGE     59.00000    59.00000

PW CHANGE     H    K    L      Current       Change    Residue
:PTO001:      0    0    0  9.49577036E-02 -6.764E-05 -1.441E-04
:PTO002:     -1   -1   -1 -1.78596210E-01  1.611E-04  3.721E-04
:PTO003:      0    0   -2  8.77276493E-02 -5.172E-05 -1.597E-04
:PTO004:      0   -2   -2  3.24862620E-02 -2.415E-04 -4.927E-04
:PTO005:     -1   -1   -3  1.46710850E-03  3.647E-04  7.677E-04
:PTO006:     -2   -2   -2 -3.77226826E-03 -1.343E-04 -2.693E-04
:PTO007:      0    0   -4 -4.48254906E-03 -6.796E-05 -1.464E-04
:PTO008:     -1   -3   -3  1.08231895E-02  2.725E-04  5.520E-04
:PTO009:      0   -2   -4 -9.95541723E-03 -2.371E-04 -4.926E-04
:PTO010:     -2   -2   -4 -6.67645231E-03 -1.663E-04 -3.460E-04
:PTO011:     -3   -3   -3  1.58485688E-03  4.209E-05  8.668E-05
:PTO012:     -1   -1   -5  4.50694327E-03  1.072E-04  2.306E-04

:ENE  : ********** TOTAL ENERGY IN Ry =       -18472.02047627


------- case.scf0 --------
 Flat Integration
 New Mode for Coulomb Integral
 Consistent 3/8+Simpson combinations
 Extension of core to zero
 LDM version in phi
 Fifth-order quadrature in outwin


            ---------
:ITE025: 25. ITERATION
            ---------

:NATO :    1 INDEPENDENT AND    1 TOTAL ATOMS IN UNITCELL
       SUBSTANCE: blebleble                                                   

       LATTICE                      = F   
:POT  : POTENTIAL OPTION EX_LDA EC_LDA VX_LDA VC_LDA
:LAT  : LATTICE CONSTANTS=  7.62940  7.62940  7.62940    1.571    1.571    1.571
:VOL  : UNIT CELL VOLUME =     111.02254
       MODE OF CALCULATION IS       = RELA
       NON-SPINPOLARIZED CALCULATION
:IFFT  : FFT-parameters:   60   60   60 Factor: 2.00


   CONVERGENCE PARAMETER FOR PSEUDOCHARGE: NCON=  9
   MAXIMAL VALUE OF RMT(JATOM)*ABSK(NKK) : RK  =29.97764


:VKCOUL :  VK-COUL convergence: 0.178E-06
       ATOMNUMBER=  1 Pr         VCOUL-ZERO =  0.99419E+00
:FIT001: LUSE= 13 SIGMA OF V-XC FIT FOR ATOM  1  0.8565948E-04
:FIT001: LUSE= 13 SIGMA OF V-XC FIT FOR ATOM  1  0.8565948E-04
:DEN  : DENSITY INTEGRAL  =         -7124.44990619   (Ry)
       ELS_POTENTIAL_AT Z=0 and Z=0.5:  -3.11185  -3.11185
       ELS_POTENTIAL_AT Y=0 and Y=0.5:   0.00000   0.00000
:VZERO:v0,v0c,v0x  -4.27842  -3.11185  -1.16656 v5,v5c,v5x  -4.27842  -3.11185  -1.16656
:VZERY:v0,v0c,v0x  -0.97005   0.00000  -0.97005 v5,v5c,v5x  -0.97005   0.00000  -0.97005
:VZERX:v0,v0c,v0x  -0.97005   0.00000  -0.97005 v5,v5c,v5x  -0.97005   0.00000  -0.97005

------- case.scf1 --------
:LMAX-WF:   10   Non-Spherical LMAX:   4

          ATOMIC SPHERE DEPENDENT PARAMETERS FOR ATOM  Pr        
:e__0001: OVERALL ENERGY PARAMETER IS    1.2143
          OVERALL BASIS SET ON ATOM IS LAPW
:E0_0001: E( 0)=    1.2143
             APW+lo
:E0_0001: E( 0)=   -1.2261   E(BOTTOM)=   -1.628   E(TOP)=   -0.824  4  5   255
             LOCAL ORBITAL
:E1_0001: E( 1)=    1.6143
             APW+lo
:E1_0001: E( 1)=    0.1456   E(BOTTOM)=   -0.532   E(TOP)=    0.823  3  4   254
             LOCAL ORBITAL
:E3_0001: E( 3)=    1.4675   E(BOTTOM)=    1.311   E(TOP)=    1.624  0  1   121
             APW+lo
:E2_0001: E( 2)=    1.2143   E(BOTTOM)=    1.014   E(TOP)= -200.000  2 -1   126
             APW+lo

       K=   0.00000   0.00000   0.00000            1
:RKM  : MATRIX SIZE    85LOs:  20  RKM= 8.24  WEIGHT= 1.00  PGR:    
       EIGENVALUES ARE:
:EIG00001:      -1.3370469    0.3591534    0.3591534    0.3591534    1.3425097
:EIG00006:       1.3776770    1.4440257    1.4440257    1.4440257    1.5463913
:EIG00011:       1.5463913    1.5463913    1.5609020    1.5609020    1.5609020
:EIG00016:       1.9691394    1.9691394    2.4780315    2.8534271    2.8813703
:EIG00021:       2.8813703    2.8813703    4.7782833    4.7782833    4.7782833
:EIG00026:       4.8643393    4.8643393    5.0907291    5.0907291    5.0907291
:EIG00031:       5.8017306    6.2153155    6.2153155    6.2153155    6.8895478
:EIG00036:       6.8895478    6.8895478    7.2677005    7.2677005    7.2677005
:EIG00041:       7.3237462    7.3237462    7.3237462    7.3744503    7.3744503
:EIG00046:       7.4129188    7.4129188    7.4957789    7.4957789    7.4957789
 
:EIG00051:       7.8421785    7.9230733    7.9230733    7.9230733    7.9847230
:EIG00056:       8.1827516    8.1827516    8.1827516
       ********************************************************

:KPT   :      NUMBER OF K-POINTS:   165

------- case.scfso --------
   0.0   0.0 angle (M,z), angle (M,x) deg
 
        SPIN-ORBIT EIGENVALUES:
     K=   0.00000   0.00000   0.00000            1
      MATRIX SIZE=  116   WEIGHT= 1.00
     EIGENVALUES ARE:
          -1.3370469   -1.3370469    0.1905259    0.1905259    0.4392023
           0.4392023    0.4392023    0.4392023    1.3418084    1.3418084
           1.3776770    1.3776770    1.4377641    1.4377641    1.4377641
           1.4377641    1.4538012    1.4538012    1.5413215    1.5413215
           1.5413215    1.5413215    1.5555924    1.5555924    1.5570905
           1.5570905    1.5644810    1.5644810    1.5644810    1.5644810
           1.9694658    1.9694658    1.9694658    1.9694658    2.4781401
           2.4781401    2.8534271    2.8534271    2.8769723    2.8769723

           2.8836732    2.8836732    2.8836732    2.8836732
       ********************************************************

------- case.scf2 --------
:GMA  : POTENTIAL AND CHARGE CUT-OFF  12.00 Ry**.5




:POS001: at.nr.   1 position = 0.00000 0.00000 0.50000  multiplicity =  1

       lmmax  5
       lm=   0 0  4 0  4 4  6 0  6 4
:FER gutzwiller fermi energy   1.42675
:EORB          0.099720459
:SUM sum of gutz band energies          4.818832936

:CHA001: total charge inside sphere   1 =    10.998013
:PCS001: partial charges sphere =  1 s,p,d,f,      d-eg,d-t2g 
:QTL001: 2.0200 5.2872 1.3742 2.2999 0.0000 0.0000 0.0000 0.5218 0.8525 0.0000 0.0000 0.0000

:CHA  : total charge inside unit cell =       6.500000

------- case.scfc --------

        1.ATOM      Pr                   14 CORE STATES
:1S 001: 1S               -3066.103785811 Ry
:2S 001: 2S                -491.848762425 Ry
:2PP001: 2P*               -464.948691964 Ry
:2P 001: 2P                -429.550858804 Ry
:3S 001: 3S                -104.941369442 Ry
:3PP001: 3P*                -93.479160124 Ry
:3P 001: 3P                 -86.471412806 Ry
:3DD001: 3D*                -66.397540705 Ry
:3D 001: 3D                 -64.886032921 Ry
:4S 001: 4S                 -19.621616837 Ry
:4PP001: 4P*                -15.328713743 Ry
:4P 001: 4P                 -13.801761817 Ry
:4DD001: 4D*                 -6.735757177 Ry
:4D 001: 4D                  -6.466564268 Ry

------- case.scfm --------
:CINT001 Core Integral Atom   1   45.999472

       DENSITY AT NUCLEUS
        JATOM        VALENCE       SEMI-CORE          CORE           TOTAL
:RTO001:   1      636.467955        0.000000   656824.626665   657461.094621
     
       CHARGES OF NEW CHARGE DENSITY
:NTO   : INTERSTITIAL CHARGE =     2.001939
:NPC   : PW Pseudocharge     =     8.541682
:NTO001: CHARGE SPHERE  1    =    56.997485

:NEC01: NUCLEAR AND ELECTRONIC CHARGE     59.00000    58.99942
     
       CHARGES OF OLD CHARGE DENSITY
:OTO   : INTERSTITIAL CHARGE =     1.998981
:OPC   : PW Pseudocharge     =     8.543465
:OTO001: CHARGE SPHERE  1    =    57.001019

:NEC02: NUCLEAR AND ELECTRONIC CHARGE     59.00000    59.00000
     
       CONVERGENCE TEST
:DTO001: DIFFERENCE IN SPHERE  1 =  0.0165975

:DIS  :  CHARGE DISTANCE       ( 0.0165975 for atom    1 spin 1)      0.0165975
 PW Mixed is           29
 
******************************************************
* MULTISECANT MIXING VER9 RELEASE 10.4.0              *
* Standard Mode with controls                        *
* Fixed density scale                                *
* Regularization       1.000E-04                     *
* Trust Upper Limit    5.000E+00                     *
* Max Number of Memory Steps    8                    *
******************************************************
 
:PWTMP   4.5573E+01  1.2500E+02  1.1102E+02
:PLANE:  PW TOTAL      2.8709 DISTAN   4.22E-03  1.47E-01 %
:CHARG:  CLM/ATOM    977.1631 DISTAN   1.76E-02  1.80E-03 %
 
Step History
        DMIX         DMIXT        Red     Pred      Trust     Lambda    MagRel    MagAbs     Beta
  1   3.5000E-02   3.5000E-02 -1.00E+00  1.00E+00 -1.00E+01  1.00E+00  3.50E-02  3.50E-02  1.00E+00
  2   2.5000E-02   2.5000E-02  9.40E-01  1.00E+00 -1.00E+01  1.00E+00  2.50E-02  4.64E-03  1.00E+00
  3   2.8092E-02   2.8092E-02  6.24E-01  1.00E+00 -1.00E+01  4.25E-01  2.81E-02  4.91E-03  1.00E+00
  4   7.0121E-02   7.0121E-02  9.13E-01  9.05E-01  3.53E-01  9.50E-01  1.99E-01  2.17E-02  8.00E-01
  5   1.7530E-01   1.7530E-01  2.43E-01  2.82E-01  8.35E-01  1.43E+00  8.04E-01  8.00E-02  1.00E+00
  6   1.1854E-01   1.1854E-01 -1.00E+00  7.26E-01  1.35E+00  1.00E+00  5.11E-01  1.24E-02  1.00E+00
:JACOBIANS    8.555E-01   6.982E-01
  
:NORMS:  1/Froebius, Min, Max, Used   0.6464E+00  0.5006E+00  0.9983E+00  0.6485E+00
:INFO :  Number of Memory Steps    5 Skipping    0
:INFO :  SLambda=    1.5702789292  Max    1.5702789292
:PREDicted Charge, CTotal, PW Trust    8.194E-04   8.194E-04   3.569E-03
:PREDicted DMix, Beta, BLim   6.0189E-01  1.1939E+00  1.2058E+00

Eigenvalues, unscaled except for SY+YY
   #     SY Real        SY Imag          SS             YY         SY+YY Real      SY+YY Imag
   1   2.035596E+00   0.000000E+00   1.664065E+00   4.103212E+00   7.162578E+00   0.000000E+00
   2   6.356569E-01   0.000000E+00   4.184943E-01   8.757344E-01   2.011569E+00   0.000000E+00
   3   1.347529E-02   0.000000E+00   6.845586E-03   2.098688E-02   4.154067E-02   0.000000E+00
   4   1.831499E-15   0.000000E+00   6.356223E-07   6.642415E-05   8.487442E-07   0.000000E+00
   5   5.530003E-06   0.000000E+00  -3.225290E-17   7.225969E-07   9.151165E-05   0.000000E+00
 
:INFO :  Singular value  7.166E+00 Weight  1.000E+00 Projection  2.248E-03
:INFO :  Singular value  2.011E+00 Weight  1.000E+00 Projection -2.724E-03
:INFO :  Singular value  4.153E-02 Weight  9.999E-01 Projection -1.036E-01
:INFO :  Singular value  9.163E-05 Weight  4.750E-02 Projection -3.463E-02
:INFO :  Singular value  8.477E-07 Weight  4.268E-06 Projection -7.400E-06
:RANK :  ACTIVE   3.05/5  =  60.95 % ; YY RANK   3.03/5  =  60.50 %
 
:BLIM :  VZERO Control Off
:TRUST:  Step 1.81E+00  Charge 4.80E-02 (e) CTO  1.60E-01 (e) PW  2.24E-01 (e)
:DIRM :  MEMORY  5/8  SCALE   1.000 RED  0.75 PRED  0.73 NEXT  0.36 
:TRAVE:  Charge 2.28E-03 (e) CTO  2.28E-03 (e) PW  9.09E-03 (e)
:DIRP :  |MSR1|= 3.286E-03 |PRATT|= 4.222E-03 ANGLE=  13.2 DEGREES
:DIRQ :  |MSR1|= 8.529E-03 |PRATT|= 1.756E-02 ANGLE=   5.2 DEGREES
:DIRT :  |MSR1|= 9.140E-03 |PRATT|= 1.806E-02 ANGLE=   9.8 DEGREES
:MIX  :   MSE1   REGULARIZATION:  4.10E-04 GREED: 0.29635  Newton 1.00  0.5061                
     
       CHARGES OF MIXED CHARGE DENSITY
:CTO   : INTERSTITIAL CHARGE =     2.000639
:CPC   : PW Pseudocharge     =     8.541681
:CTO001: CHARGE SPHERE  1    =    56.999361

:NEC03: NUCLEAR AND ELECTRONIC CHARGE     59.00000    59.00000

PW CHANGE     H    K    L      Current       Change    Residue
:PTO001:      0    0    0  9.49565719E-02 -1.132E-06  3.794E-05
:PTO002:     -1   -1   -1 -1.78421067E-01  1.751E-04  2.134E-04
:PTO003:      0    0   -2  8.76159685E-02 -1.117E-04 -1.371E-04
:PTO004:      0   -2   -2  3.23163401E-02 -1.699E-04 -2.312E-04
:PTO005:     -1   -1   -3  1.76095266E-03  2.938E-04  3.860E-04
:PTO006:     -2   -2   -2 -3.86525580E-03 -9.299E-05 -1.232E-04
:PTO007:      0    0   -4 -4.54525694E-03 -6.271E-05 -7.733E-05
:PTO008:     -1   -3   -3  1.10368745E-02  2.137E-04  2.569E-04
:PTO009:      0   -2   -4 -1.01582140E-02 -2.028E-04 -2.412E-04
:PTO010:     -2   -2   -4 -6.82045249E-03 -1.440E-04 -1.673E-04
:PTO011:     -3   -3   -3  1.61981653E-03  3.496E-05  4.085E-05
:PTO012:     -1   -1   -5  4.61020928E-03  1.033E-04  1.187E-04

:ENE  : ********** TOTAL ENERGY IN Ry =       -18472.02046186


------- case.scf0 --------
 Flat Integration
 New Mode for Coulomb Integral
 Consistent 3/8+Simpson combinations
 Extension of core to zero
 LDM version in phi
 Fifth-order quadrature in outwin


            ---------
:ITE026: 26. ITERATION
            ---------

:NATO :    1 INDEPENDENT AND    1 TOTAL ATOMS IN UNITCELL
       SUBSTANCE: blebleble                                                   

       LATTICE                      = F   
:POT  : POTENTIAL OPTION EX_LDA EC_LDA VX_LDA VC_LDA
:LAT  : LATTICE CONSTANTS=  7.62940  7.62940  7.62940    1.571    1.571    1.571
:VOL  : UNIT CELL VOLUME =     111.02254
       MODE OF CALCULATION IS       = RELA
       NON-SPINPOLARIZED CALCULATION
:IFFT  : FFT-parameters:   60   60   60 Factor: 2.00


   CONVERGENCE PARAMETER FOR PSEUDOCHARGE: NCON=  9
   MAXIMAL VALUE OF RMT(JATOM)*ABSK(NKK) : RK  =29.97764


:VKCOUL :  VK-COUL convergence: 0.178E-06
       ATOMNUMBER=  1 Pr         VCOUL-ZERO =  0.99458E+00
:FIT001: LUSE= 13 SIGMA OF V-XC FIT FOR ATOM  1  0.8547723E-04
:FIT001: LUSE= 13 SIGMA OF V-XC FIT FOR ATOM  1  0.8547723E-04
:DEN  : DENSITY INTEGRAL  =         -7124.07224707   (Ry)
       ELS_POTENTIAL_AT Z=0 and Z=0.5:  -3.11297  -3.11297
       ELS_POTENTIAL_AT Y=0 and Y=0.5:   0.00000   0.00000
:VZERO:v0,v0c,v0x  -4.27933  -3.11297  -1.16636 v5,v5c,v5x  -4.27933  -3.11297  -1.16636
:VZERY:v0,v0c,v0x  -0.97012   0.00000  -0.97012 v5,v5c,v5x  -0.97012   0.00000  -0.97012
:VZERX:v0,v0c,v0x  -0.97012   0.00000  -0.97012 v5,v5c,v5x  -0.97012   0.00000  -0.97012

------- case.scf1 --------
:LMAX-WF:   10   Non-Spherical LMAX:   4

          ATOMIC SPHERE DEPENDENT PARAMETERS FOR ATOM  Pr        
:e__0001: OVERALL ENERGY PARAMETER IS    1.2143
          OVERALL BASIS SET ON ATOM IS LAPW
:E0_0001: E( 0)=    1.2143
             APW+lo
:E0_0001: E( 0)=   -1.2279   E(BOTTOM)=   -1.629   E(TOP)=   -0.826  4  5   258
             LOCAL ORBITAL
:E1_0001: E( 1)=    1.6143
             APW+lo
:E1_0001: E( 1)=    0.1441   E(BOTTOM)=   -0.533   E(TOP)=    0.821  3  4   259
             LOCAL ORBITAL
:E3_0001: E( 3)=    1.4638   E(BOTTOM)=    1.308   E(TOP)=    1.620  0  1   127
             APW+lo
:E2_0001: E( 2)=    1.2143   E(BOTTOM)=    1.013   E(TOP)= -200.000  2 -1   122
             APW+lo

       K=   0.00000   0.00000   0.00000            1
:RKM  : MATRIX SIZE    85LOs:  20  RKM= 8.24  WEIGHT= 1.00  PGR:    
       EIGENVALUES ARE:
:EIG00001:      -1.3386074    0.3575701    0.3575701    0.3575701    1.3397151
:EIG00006:       1.3770884    1.4406054    1.4406054    1.4406054    1.5458259
:EIG00011:       1.5458259    1.5458259    1.5567995    1.5567995    1.5567995
:EIG00016:       1.9683321    1.9683321    2.4765853    2.8536333    2.8806554
:EIG00021:       2.8806554    2.8806554    4.7774160    4.7774160    4.7774160
:EIG00026:       4.8638435    4.8638435    5.0901753    5.0901753    5.0901753
:EIG00031:       5.8016025    6.2155071    6.2155071    6.2155071    6.8891789
:EIG00036:       6.8891789    6.8891789    7.2674264    7.2674264    7.2674264
:EIG00041:       7.3232158    7.3232158    7.3232158    7.3734288    7.3734288
:EIG00046:       7.4129598    7.4129598    7.4953009    7.4953009    7.4953009
 
:EIG00051:       7.8420980    7.9230739    7.9230739    7.9230739    7.9850135
:EIG00056:       8.1825544    8.1825544    8.1825544
       ********************************************************

:KPT   :      NUMBER OF K-POINTS:   165

------- case.scfso --------
   0.0   0.0 angle (M,z), angle (M,x) deg
 
        SPIN-ORBIT EIGENVALUES:
     K=   0.00000   0.00000   0.00000            1
      MATRIX SIZE=  116   WEIGHT= 1.00
     EIGENVALUES ARE:
          -1.3386074   -1.3386074    0.1888648    0.1888648    0.4376566
           0.4376566    0.4376566    0.4376566    1.3390059    1.3390059
           1.3770884    1.3770884    1.4343151    1.4343151    1.4343151
           1.4343151    1.4504135    1.4504135    1.5407523    1.5407523
           1.5407523    1.5407523    1.5529920    1.5529920    1.5550328
           1.5550328    1.5603934    1.5603934    1.5603934    1.5603934
           1.9686592    1.9686592    1.9686592    1.9686592    2.4766932
           2.4766932    2.8536333    2.8536333    2.8762405    2.8762405

           2.8829664    2.8829664    2.8829664    2.8829664
       ********************************************************

------- case.scf2 --------
:GMA  : POTENTIAL AND CHARGE CUT-OFF  12.00 Ry**.5




:POS001: at.nr.   1 position = 0.00000 0.00000 0.50000  multiplicity =  1

       lmmax  5
       lm=   0 0  4 0  4 4  6 0  6 4
:FER gutzwiller fermi energy   1.42581
:EORB          0.093071024
:SUM sum of gutz band energies          4.805205601

:CHA001: total charge inside sphere   1 =    11.001509
:PCS001: partial charges sphere =  1 s,p,d,f,      d-eg,d-t2g 
:QTL001: 2.0199 5.2882 1.3736 2.3033 0.0000 0.0000 0.0000 0.5216 0.8519 0.0000 0.0000 0.0000

:CHA  : total charge inside unit cell =       6.500000

------- case.scfc --------

        1.ATOM      Pr                   14 CORE STATES
:1S 001: 1S               -3066.114238762 Ry
:2S 001: 2S                -491.858705670 Ry
:2PP001: 2P*               -464.958748475 Ry
:2P 001: 2P                -429.560872549 Ry
:3S 001: 3S                -104.950050741 Ry
:3PP001: 3P*                -93.487919272 Ry
:3P 001: 3P                 -86.480077659 Ry
:3DD001: 3D*                -66.406428317 Ry
:3D 001: 3D                 -64.894891173 Ry
:4S 001: 4S                 -19.627533780 Ry
:4PP001: 4P*                -15.334513369 Ry
:4P 001: 4P                 -13.807359947 Ry
:4DD001: 4D*                 -6.741041210 Ry
:4D 001: 4D                  -6.471782737 Ry

------- case.scfm --------
:CINT001 Core Integral Atom   1   45.999473

       DENSITY AT NUCLEUS
        JATOM        VALENCE       SEMI-CORE          CORE           TOTAL
:RTO001:   1      636.691762        0.000000   656825.267192   657461.958954
     
       CHARGES OF NEW CHARGE DENSITY
:NTO   : INTERSTITIAL CHARGE =     1.998347
:NPC   : PW Pseudocharge     =     8.537313
:NTO001: CHARGE SPHERE  1    =    57.000982

:NEC01: NUCLEAR AND ELECTRONIC CHARGE     59.00000    58.99933
     
       CHARGES OF OLD CHARGE DENSITY
:OTO   : INTERSTITIAL CHARGE =     2.000639
:OPC   : PW Pseudocharge     =     8.541681
:OTO001: CHARGE SPHERE  1    =    56.999361

:NEC02: NUCLEAR AND ELECTRONIC CHARGE     59.00000    59.00000
     
       CONVERGENCE TEST
:DTO001: DIFFERENCE IN SPHERE  1 =  0.0053804

:DIS  :  CHARGE DISTANCE       ( 0.0053804 for atom    1 spin 1)      0.0053804
 PW Mixed is           29
 
******************************************************
* MULTISECANT MIXING VER9 RELEASE 10.4.0              *
* Standard Mode with controls                        *
* Fixed density scale                                *
* Regularization       1.000E-04                     *
* Trust Upper Limit    5.000E+00                     *
* Max Number of Memory Steps    8                    *
******************************************************
 
:PWTMP   4.5573E+01  1.2500E+02  1.1102E+02
:PLANE:  PW TOTAL      2.8698 DISTAN   1.11E-03  3.88E-02 %
:CHARG:  CLM/ATOM    977.1608 DISTAN   6.33E-03  6.48E-04 %
 
Step History
        DMIX         DMIXT        Red     Pred      Trust     Lambda    MagRel    MagAbs     Beta
  1   3.5000E-02   3.5000E-02 -1.00E+00  1.00E+00 -1.00E+01  1.00E+00  3.50E-02  3.50E-02  1.00E+00
  2   2.5000E-02   2.5000E-02  9.40E-01  1.00E+00 -1.00E+01  1.00E+00  2.50E-02  4.64E-03  1.00E+00
  3   2.8092E-02   2.8092E-02  6.24E-01  1.00E+00 -1.00E+01  4.25E-01  2.81E-02  4.91E-03  1.00E+00
  4   7.0121E-02   7.0121E-02  9.13E-01  9.05E-01  3.53E-01  9.50E-01  1.99E-01  2.17E-02  8.00E-01
  5   1.7530E-01   1.7530E-01  2.43E-01  2.82E-01  8.35E-01  1.43E+00  8.04E-01  8.00E-02  1.00E+00
  6   1.1854E-01   1.1854E-01  7.46E-01  7.26E-01  1.35E+00  1.57E+00  5.11E-01  1.24E-02  1.00E+00
  7   2.9635E-01   2.9635E-01 -1.00E+00  3.59E-01  1.81E+00  1.00E+00  5.06E-01  9.14E-03  1.00E+00
:JACOBIANS    9.352E-01   1.107E+00
  
:NORMS:  1/Froebius, Min, Max, Used   0.6993E+00  0.5098E+00  0.9990E+00  0.7295E+00
:INFO :  Number of Memory Steps    6 Skipping    0
:INFO :  SLambda=    1.4960761977  Max    1.4960761977
:PREDicted Charge, CTotal, PW Trust    7.613E-04   7.613E-04   9.856E-04
:PREDicted DMix, Beta, BLim   3.4303E-01  9.5233E-01  9.9756E-01

Eigenvalues, unscaled except for SY+YY
   #     SY Real        SY Imag          SS             YY         SY+YY Real      SY+YY Imag
   1   2.198009E+00   0.000000E+00   1.948275E+00   3.661055E+00   6.752160E+00   0.000000E+00
   2   6.108925E-01   0.000000E+00   7.905550E-01   1.440565E+00   2.602437E+00   0.000000E+00
   3   8.538556E-01   0.000000E+00   1.952718E-01   8.968452E-01   2.123547E+00   0.000000E+00
   4   5.908302E-04   0.000000E+00   2.300172E-04   1.528019E-03   2.494922E-03   0.000000E+00
   5   1.772725E-15   0.000000E+00   2.543557E-07   6.525493E-06   6.000213E-07   0.000000E+00
   6   1.148228E-06   0.000000E+00   2.040093E-16   5.014968E-07   9.698224E-06   0.000000E+00
 
:INFO :  Singular value  6.775E+00 Weight  1.000E+00 Projection  2.070E-03
:INFO :  Singular value  2.603E+00 Weight  1.000E+00 Projection  2.002E-03
:INFO :  Singular value  2.116E+00 Weight  1.000E+00 Projection -2.643E-03
:INFO :  Singular value  2.499E-03 Weight  9.790E-01 Projection  4.944E-02
:INFO :  Singular value  9.694E-06 Weight  7.007E-04 Projection  2.828E-04
:INFO :  Singular value  5.993E-07 Weight  2.680E-06 Projection  2.543E-06
:RANK :  ACTIVE   3.98/6  =  66.33 % ; YY RANK   3.95/6  =  65.77 %
 
:DLIM :  Beta Active  9.643E-01
:BLIM :  VZERO Control Off
:TRUST:  Step 2.41E+00  Charge 3.84E-02 (e) CTO  1.28E-01 (e) PW  1.79E-01 (e)
:DIRM :  MEMORY  6/8  SCALE   1.000 RED  0.36 PRED  0.36 NEXT  0.21 BETA  0.96
:TRAVE:  Charge 1.52E-03 (e) CTO  1.52E-03 (e) PW  4.87E-03 (e)
:DIRP :  |MSR1|= 8.698E-04 |PRATT|= 1.112E-03 ANGLE=  15.9 DEGREES
:DIRQ :  |MSR1|= 3.404E-03 |PRATT|= 6.329E-03 ANGLE=  28.5 DEGREES
:DIRT :  |MSR1|= 3.514E-03 |PRATT|= 6.426E-03 ANGLE=  28.4 DEGREES
:MIX  :   MSE1   REGULARIZATION:  3.66E-04 GREED: 0.27447  Newton 1.00  0.5468                
     
       CHARGES OF MIXED CHARGE DENSITY
:CTO   : INTERSTITIAL CHARGE =     1.999892
:CPC   : PW Pseudocharge     =     8.540835
:CTO001: CHARGE SPHERE  1    =    57.000108

:NEC03: NUCLEAR AND ELECTRONIC CHARGE     59.00000    59.00000

PW CHANGE     H    K    L      Current       Change    Residue
:PTO001:      0    0    0  9.49422219E-02 -1.435E-05 -2.812E-05
:PTO002:     -1   -1   -1 -1.78399436E-01  2.163E-05  9.346E-06
:PTO003:      0    0   -2  8.76125027E-02 -3.466E-06 -3.769E-07
:PTO004:      0   -2   -2  3.22583177E-02 -5.802E-05 -6.659E-05
:PTO005:     -1   -1   -3  1.84664673E-03  8.569E-05  1.023E-04
:PTO006:     -2   -2   -2 -3.89606771E-03 -3.081E-05 -3.333E-05
:PTO007:      0    0   -4 -4.56022475E-03 -1.497E-05 -1.815E-05
:PTO008:     -1   -3   -3  1.10944298E-02  5.756E-05  6.168E-05
:PTO009:      0   -2   -4 -1.02073332E-02 -4.912E-05 -5.416E-05
:PTO010:     -2   -2   -4 -6.85268425E-03 -3.223E-05 -3.319E-05
:PTO011:     -3   -3   -3  1.62802663E-03  8.210E-06  8.290E-06
:PTO012:     -1   -1   -5  4.63009857E-03  1.989E-05  2.086E-05

:ENE  : ********** TOTAL ENERGY IN Ry =       -18472.02055277


------- case.scf0 --------
 Flat Integration
 New Mode for Coulomb Integral
 Consistent 3/8+Simpson combinations
 Extension of core to zero
 LDM version in phi
 Fifth-order quadrature in outwin


            ---------
:ITE027: 27. ITERATION
            ---------

:NATO :    1 INDEPENDENT AND    1 TOTAL ATOMS IN UNITCELL
       SUBSTANCE: blebleble                                                   

       LATTICE                      = F   
:POT  : POTENTIAL OPTION EX_LDA EC_LDA VX_LDA VC_LDA
:LAT  : LATTICE CONSTANTS=  7.62940  7.62940  7.62940    1.571    1.571    1.571
:VOL  : UNIT CELL VOLUME =     111.02254
       MODE OF CALCULATION IS       = RELA
       NON-SPINPOLARIZED CALCULATION
:IFFT  : FFT-parameters:   60   60   60 Factor: 2.00


   CONVERGENCE PARAMETER FOR PSEUDOCHARGE: NCON=  9
   MAXIMAL VALUE OF RMT(JATOM)*ABSK(NKK) : RK  =29.97764


:VKCOUL :  VK-COUL convergence: 0.178E-06
       ATOMNUMBER=  1 Pr         VCOUL-ZERO =  0.99439E+00
:FIT001: LUSE= 13 SIGMA OF V-XC FIT FOR ATOM  1  0.8506062E-04
:FIT001: LUSE= 13 SIGMA OF V-XC FIT FOR ATOM  1  0.8506062E-04
:DEN  : DENSITY INTEGRAL  =         -7124.17713042   (Ry)
       ELS_POTENTIAL_AT Z=0 and Z=0.5:  -3.11242  -3.11242
       ELS_POTENTIAL_AT Y=0 and Y=0.5:   0.00000   0.00000
:VZERO:v0,v0c,v0x  -4.27876  -3.11242  -1.16633 v5,v5c,v5x  -4.27876  -3.11242  -1.16633
:VZERY:v0,v0c,v0x  -0.97006   0.00000  -0.97006 v5,v5c,v5x  -0.97006   0.00000  -0.97006
:VZERX:v0,v0c,v0x  -0.97006   0.00000  -0.97006 v5,v5c,v5x  -0.97006   0.00000  -0.97006

------- case.scf1 --------
:LMAX-WF:   10   Non-Spherical LMAX:   4

          ATOMIC SPHERE DEPENDENT PARAMETERS FOR ATOM  Pr        
:e__0001: OVERALL ENERGY PARAMETER IS    1.2143
          OVERALL BASIS SET ON ATOM IS LAPW
:E0_0001: E( 0)=    1.2143
             APW+lo
:E0_0001: E( 0)=   -1.2274   E(BOTTOM)=   -1.629   E(TOP)=   -0.826  4  5   261
             LOCAL ORBITAL
:E1_0001: E( 1)=    1.6143
             APW+lo
:E1_0001: E( 1)=    0.1445   E(BOTTOM)=   -0.532   E(TOP)=    0.821  3  4   254
             LOCAL ORBITAL
:E3_0001: E( 3)=    1.4649   E(BOTTOM)=    1.309   E(TOP)=    1.621  0  1   118
             APW+lo
:E2_0001: E( 2)=    1.2143   E(BOTTOM)=    1.013   E(TOP)= -200.000  2 -1   122
             APW+lo

       K=   0.00000   0.00000   0.00000            1
:RKM  : MATRIX SIZE    85LOs:  20  RKM= 8.24  WEIGHT= 1.00  PGR:    
       EIGENVALUES ARE:
:EIG00001:      -1.3381683    0.3580145    0.3580145    0.3580145    1.3405279
:EIG00006:       1.3772267    1.4416667    1.4416667    1.4416667    1.5459259
:EIG00011:       1.5459259    1.5459259    1.5580575    1.5580575    1.5580575
:EIG00016:       1.9685289    1.9685289    2.4769587    2.8535201    2.8808387
:EIG00021:       2.8808387    2.8808387    4.7776131    4.7776131    4.7776131
:EIG00026:       4.8639304    4.8639304    5.0902820    5.0902820    5.0902820
:EIG00031:       5.8015866    6.2153796    6.2153796    6.2153796    6.8892222
:EIG00036:       6.8892222    6.8892222    7.2674230    7.2674230    7.2674230
:EIG00041:       7.3233275    7.3233275    7.3233275    7.3736958    7.3736958
:EIG00046:       7.4128675    7.4128675    7.4953765    7.4953765    7.4953765
 
:EIG00051:       7.8420610    7.9230063    7.9230063    7.9230063    7.9848564
:EIG00056:       8.1825497    8.1825497    8.1825497
       ********************************************************

:KPT   :      NUMBER OF K-POINTS:   165

------- case.scfso --------
   0.0   0.0 angle (M,z), angle (M,x) deg
 
        SPIN-ORBIT EIGENVALUES:
     K=   0.00000   0.00000   0.00000            1
      MATRIX SIZE=  116   WEIGHT= 1.00
     EIGENVALUES ARE:
          -1.3381683   -1.3381683    0.1893350    0.1893350    0.4380885
           0.4380885    0.4380885    0.4380885    1.3398213    1.3398213
           1.3772267    1.3772267    1.4353851    1.4353851    1.4353851
           1.4353851    1.4514647    1.4514647    1.5408535    1.5408535
           1.5408535    1.5408535    1.5542485    1.5542485    1.5551309
           1.5551309    1.5616469    1.5616469    1.5616469    1.5616469
           1.9688558    1.9688558    1.9688558    1.9688558    2.4770668
           2.4770668    2.8535201    2.8535201    2.8764297    2.8764297

           2.8831467    2.8831467    2.8831467    2.8831467
       ********************************************************

------- case.scf2 --------
:GMA  : POTENTIAL AND CHARGE CUT-OFF  12.00 Ry**.5




:POS001: at.nr.   1 position = 0.00000 0.00000 0.50000  multiplicity =  1

       lmmax  5
       lm=   0 0  4 0  4 4  6 0  6 4
:FER gutzwiller fermi energy   1.42648
:EORB          0.094215459
:SUM sum of gutz band energies          4.809716152

:CHA001: total charge inside sphere   1 =    10.999272
:PCS001: partial charges sphere =  1 s,p,d,f,      d-eg,d-t2g 
:QTL001: 2.0202 5.2881 1.3756 2.2988 0.0000 0.0000 0.0000 0.5223 0.8533 0.0000 0.0000 0.0000

:CHA  : total charge inside unit cell =       6.500000

------- case.scfc --------

        1.ATOM      Pr                   14 CORE STATES
:1S 001: 1S               -3066.111678189 Ry
:2S 001: 2S                -491.856168675 Ry
:2PP001: 2P*               -464.956204668 Ry
:2P 001: 2P                -429.558331233 Ry
:3S 001: 3S                -104.947641945 Ry
:3PP001: 3P*                -93.485501481 Ry
:3P 001: 3P                 -86.477673574 Ry
:3DD001: 3D*                -66.403995861 Ry
:3D 001: 3D                 -64.892462540 Ry
:4S 001: 4S                 -19.625721694 Ry
:4PP001: 4P*                -15.332736458 Ry
:4P 001: 4P                 -13.805638263 Ry
:4DD001: 4D*                 -6.739415524 Ry
:4D 001: 4D                  -6.470175755 Ry

------- case.scfm --------
:CINT001 Core Integral Atom   1   45.999473

       DENSITY AT NUCLEUS
        JATOM        VALENCE       SEMI-CORE          CORE           TOTAL
:RTO001:   1      636.689374        0.000000   656825.137930   657461.827303
     
       CHARGES OF NEW CHARGE DENSITY
:NTO   : INTERSTITIAL CHARGE =     2.000838
:NPC   : PW Pseudocharge     =     8.540745
:NTO001: CHARGE SPHERE  1    =    56.998745

:NEC01: NUCLEAR AND ELECTRONIC CHARGE     59.00000    58.99958
     
       CHARGES OF OLD CHARGE DENSITY
:OTO   : INTERSTITIAL CHARGE =     1.999892
:OPC   : PW Pseudocharge     =     8.540835
:OTO001: CHARGE SPHERE  1    =    57.000108

:NEC02: NUCLEAR AND ELECTRONIC CHARGE     59.00000    59.00000
     
       CONVERGENCE TEST
:DTO001: DIFFERENCE IN SPHERE  1 =  0.0047132

:DIS  :  CHARGE DISTANCE       ( 0.0047132 for atom    1 spin 1)      0.0047132
 PW Mixed is           29
 
******************************************************
* MULTISECANT MIXING VER9 RELEASE 10.4.0              *
* Standard Mode with controls                        *
* Fixed density scale                                *
* Regularization       1.000E-04                     *
* Trust Upper Limit    5.000E+00                     *
* Max Number of Memory Steps    8                    *
******************************************************
 
:PWTMP   4.5573E+01  1.2500E+02  1.1102E+02
:PLANE:  PW TOTAL      2.8694 DISTAN   6.83E-04  2.38E-02 %
:CHARG:  CLM/ATOM    977.1610 DISTAN   4.74E-03  4.85E-04 %
 
Step History
        DMIX         DMIXT        Red     Pred      Trust     Lambda    MagRel    MagAbs     Beta
  1   3.5000E-02   3.5000E-02 -1.00E+00  1.00E+00 -1.00E+01  1.00E+00  3.50E-02  3.50E-02  1.00E+00
  2   2.5000E-02   2.5000E-02  9.40E-01  1.00E+00 -1.00E+01  1.00E+00  2.50E-02  4.64E-03  1.00E+00
  3   2.8092E-02   2.8092E-02  6.24E-01  1.00E+00 -1.00E+01  4.25E-01  2.81E-02  4.91E-03  1.00E+00
  4   7.0121E-02   7.0121E-02  9.13E-01  9.05E-01  3.53E-01  9.50E-01  1.99E-01  2.17E-02  8.00E-01
  5   1.7530E-01   1.7530E-01  2.43E-01  2.82E-01  8.35E-01  1.43E+00  8.04E-01  8.00E-02  1.00E+00
  6   1.1854E-01   1.1854E-01  7.46E-01  7.26E-01  1.35E+00  1.57E+00  5.11E-01  1.24E-02  1.00E+00
  7   2.9635E-01   2.9635E-01  3.56E-01  3.59E-01  1.81E+00  1.50E+00  5.06E-01  9.14E-03  1.00E+00
  8   2.7447E-01   2.7447E-01 -1.00E+00  2.13E-01  2.41E+00  1.00E+00  5.47E-01  3.51E-03  9.64E-01
:JACOBIANS    1.002E+00   1.712E+00
  
:NORMS:  1/Froebius, Min, Max, Used   0.6591E+00  0.4932E+00  0.1000E+01  0.6591E+00
[...]
           0.4343759    0.4343759    0.4343759    1.3327257    1.3327257
           1.3761498    1.3761498    1.4264906    1.4264906    1.4264906
           1.4264906    1.4427250    1.4427250    1.5399640    1.5399640
           1.5399640    1.5399640    1.5436516    1.5436516    1.5510749
           1.5510749    1.5510749    1.5510749    1.5542691    1.5542691
           1.9672841    1.9672841    1.9672841    1.9672841    2.4739318
           2.4739318    2.8546457    2.8546457    2.8751092    2.8751092

           2.8818977    2.8818977    2.8818977    2.8818977
       ********************************************************

------- case.scf2 --------
:GMA  : POTENTIAL AND CHARGE CUT-OFF  12.00 Ry**.5




:POS001: at.nr.   1 position = 0.00000 0.00000 0.50000  multiplicity =  1

       lmmax  5
       lm=   0 0  4 0  4 4  6 0  6 4
:FER gutzwiller fermi energy   1.42873
:EORB          0.066323869
:SUM sum of gutz band energies          4.789144297

:CHA001: total charge inside sphere   1 =    10.995606
:PCS001: partial charges sphere =  1 s,p,d,f,      d-eg,d-t2g 
:QTL001: 2.0218 5.2930 1.3915 2.2727 0.0000 0.0000 0.0000 0.5283 0.8632 0.0000 0.0000 0.0000

:CHA  : total charge inside unit cell =       6.500000

------- case.scfc --------

        1.ATOM      Pr                   14 CORE STATES
:1S 001: 1S               -3066.123303115 Ry
:2S 001: 2S                -491.869464639 Ry
:2PP001: 2P*               -464.969128087 Ry
:2P 001: 2P                -429.571393764 Ry
:3S 001: 3S                -104.963691100 Ry
:3PP001: 3P*                -93.501419421 Ry
:3P 001: 3P                 -86.493685281 Ry
:3DD001: 3D*                -66.419685646 Ry
:3D 001: 3D                 -64.908194280 Ry
:4S 001: 4S                 -19.640229920 Ry
:4PP001: 4P*                -15.346997408 Ry
:4P 001: 4P                 -13.819569539 Ry
:4DD001: 4D*                 -6.752651156 Ry
:4D 001: 4D                  -6.483290760 Ry

------- case.scfm --------
:CINT001 Core Integral Atom   1   45.999477

       DENSITY AT NUCLEUS
        JATOM        VALENCE       SEMI-CORE          CORE           TOTAL
:RTO001:   1      638.140753        0.000000   656825.205447   657463.346201
     
       CHARGES OF NEW CHARGE DENSITY
:NTO   : INTERSTITIAL CHARGE =     2.004254
:NPC   : PW Pseudocharge     =     8.547414
:NTO001: CHARGE SPHERE  1    =    56.995083

:NEC01: NUCLEAR AND ELECTRONIC CHARGE     59.00000    58.99934
     
       CHARGES OF OLD CHARGE DENSITY
:OTO   : INTERSTITIAL CHARGE =     2.004877
:OPC   : PW Pseudocharge     =     8.549064
:OTO001: CHARGE SPHERE  1    =    56.995123

:NEC02: NUCLEAR AND ELECTRONIC CHARGE     59.00000    59.00000
     
       CONVERGENCE TEST
:DTO001: DIFFERENCE IN SPHERE  1 =  0.0018046

:DIS  :  CHARGE DISTANCE       ( 0.0018046 for atom    1 spin 1)      0.0018046
 PW Mixed is           29
 
******************************************************
* MULTISECANT MIXING VER9 RELEASE 10.4.0              *
* Standard Mode with controls                        *
* Fixed density scale                                *
* Regularization       1.000E-04                     *
* Trust Upper Limit    5.000E+00                     *
* Max Number of Memory Steps    8                    *
******************************************************
 
:PWTMP   4.5573E+01  1.2500E+02  1.1102E+02
:PLANE:  PW TOTAL      2.8720 DISTAN   7.34E-04  2.56E-02 %
:CHARG:  CLM/ATOM    977.1663 DISTAN   2.44E-03  2.49E-04 %
 
Step History
        DMIX         DMIXT        Red     Pred      Trust     Lambda    MagRel    MagAbs     Beta
 71   9.1850E-02   7.9835E-02  9.75E-01  5.70E-01  3.50E-02  1.25E+00  2.60E-02  1.47E-03  4.58E-01
 72   1.7500E-01   9.3053E-02  9.98E-01  5.72E-01  1.07E-01  1.17E+00  2.12E-02  1.17E-03  4.36E-01
 73   1.0521E-01   6.5650E-02  1.00E+00  6.92E-01  1.24E-01  1.29E+00  3.78E-02  2.08E-03  3.49E-01
 74   1.4536E-01   1.4372E-01  9.70E-01  6.34E-01  1.89E-01  1.23E+00  5.13E-02  2.83E-03  4.36E-01
 75   8.0392E-02   8.0392E-02  6.76E-01  6.70E-01  2.80E-01  1.84E+00  1.84E-01  9.85E-03  5.46E-01
 76   1.0351E-01   1.0040E-01  5.53E-01  5.53E-01  6.79E-01  1.18E+00  1.77E-01  6.40E-03  6.82E-01
 77   1.5356E-01   1.5356E-01  3.81E-01  4.77E-01  1.00E+00  1.78E+00  3.20E-01  6.41E-03  8.52E-01
 78   2.5890E-01   2.5890E-01  3.93E-01  4.44E-01  1.55E+00  1.11E+00  7.41E-01  5.66E-03  1.00E+00
 79   2.1645E-01   2.1645E-01 -1.00E+00  8.09E-01  2.07E+00  1.00E+00  5.66E-01  1.70E-03  1.00E+00
:JACOBIANS    9.028E-01   2.719E+00
  
:NORMS:  1/Froebius, Min, Max, Used   0.5101E+00  0.4235E+00  0.9971E+00  0.6033E+00
:INFO :  Number of Memory Steps    8 Skipping   70
:INFO :  SLambda=    1.6706702690  Max    1.6706702690
:PREDicted Charge, CTotal, PW Trust    8.506E-04   8.506E-04   2.496E-03
:PREDicted DMix, Beta, BLim   4.0654E-01  1.5771E+00  5.1313E+00

Eigenvalues, unscaled except for SY+YY
   #     SY Real        SY Imag          SS             YY         SY+YY Real      SY+YY Imag
   1   1.522102E+00   0.000000E+00   1.223572E+00   6.823651E+00   9.665483E+00   0.000000E+00
   2   1.080054E+00   0.000000E+00   5.809122E-01   9.007166E-01   2.411615E+00   0.000000E+00
   3   2.194516E-01   0.000000E+00   2.239733E-01   2.128854E-01   5.737655E-01   0.000000E+00
   4   5.765507E-02   0.000000E+00   5.265737E-02   6.127751E-02   1.578473E-01   0.000000E+00
   5   8.878599E-04   0.000000E+00   5.815971E-04   1.248838E-03   2.898118E-03   0.000000E+00
   6   1.875522E-04   0.000000E+00   1.432551E-04   2.077949E-04   4.756055E-04   0.000000E+00
   7   1.300797E-06   0.000000E+00   1.140280E-06   1.059581E-05   3.047443E-06   0.000000E+00
   8   2.357849E-06   0.000000E+00   4.258247E-07   1.799701E-06   1.476184E-05   0.000000E+00
 
:INFO :  Singular value  9.768E+00 Weight  1.000E+00 Projection -4.924E-04
:INFO :  Singular value  2.391E+00 Weight  1.000E+00 Projection -9.169E-04
:INFO :  Singular value  5.739E-01 Weight  1.000E+00 Projection  1.785E-03
:INFO :  Singular value  1.575E-01 Weight  1.000E+00 Projection  1.093E-03
:INFO :  Singular value  2.902E-03 Weight  9.476E-01 Projection -1.651E-02
:INFO :  Singular value  4.772E-04 Weight  3.285E-01 Projection  3.513E-02
:INFO :  Singular value  1.557E-05 Weight  5.207E-04 Projection  4.494E-05
:INFO :  Singular value  2.874E-06 Weight  1.774E-05 Projection -2.589E-06
:RANK :  ACTIVE   5.28/8  =  65.96 % ; YY RANK   4.86/8  =  60.69 %
 
:BLIM :  VZERO Control Off
:TRUST:  Step 3.37E+00  Charge 4.21E-03 (e) CTO  3.66E-03 (e) PW  5.12E-03 (e)
:DIRM :  MEMORY  8/8  SCALE   1.000 RED  0.85 PRED  0.81 NEXT  0.42 
:TRAVE:  Charge 6.24E-04 (e) CTO  6.24E-04 (e) PW  1.45E-03 (e)
:DIRP :  |MSR1|= 8.067E-04 |PRATT|= 7.341E-04 ANGLE=  20.8 DEGREES
:DIRQ :  |MSR1|= 1.868E-03 |PRATT|= 2.437E-03 ANGLE=  34.0 DEGREES
:DIRT :  |MSR1|= 2.035E-03 |PRATT|= 2.545E-03 ANGLE=  33.3 DEGREES
:MIX  :   MSE1   REGULARIZATION:  6.82E-04 GREED: 0.30596  Newton 1.00  0.7994                
     
       CHARGES OF MIXED CHARGE DENSITY
:CTO   : INTERSTITIAL CHARGE =     2.005107
:CPC   : PW Pseudocharge     =     8.551100
:CTO001: CHARGE SPHERE  1    =    56.994893

:NEC03: NUCLEAR AND ELECTRONIC CHARGE     59.00000    59.00000

PW CHANGE     H    K    L      Current       Change    Residue
:PTO001:      0    0    0  9.50816516E-02  2.040E-05  1.097E-05
:PTO002:     -1   -1   -1 -1.78524859E-01 -5.178E-05 -4.620E-05
:PTO003:      0    0   -2  8.76588940E-02  4.678E-05  5.060E-05
:PTO004:      0   -2   -2  3.23058054E-02  1.233E-05  3.050E-05
:PTO005:     -1   -1   -3  1.80603393E-03 -9.582E-06 -2.725E-05
:PTO006:     -2   -2   -2 -3.87574562E-03  2.651E-06  9.689E-06
:PTO007:      0    0   -4 -4.56885023E-03 -1.051E-06  1.272E-06
:PTO008:     -1   -3   -3  1.11186598E-02  4.840E-06  8.060E-06
:PTO009:      0   -2   -4 -1.02347134E-02 -4.919E-06 -7.934E-06
:PTO010:     -2   -2   -4 -6.86143886E-03 -1.745E-06 -3.926E-06
:PTO011:     -3   -3   -3  1.62838978E-03  9.274E-07  1.398E-06
:PTO012:     -1   -1   -5  4.63826387E-03  2.519E-06  2.231E-06

:ENE  : ********** TOTAL ENERGY IN Ry =       -18472.02097227


------- case.scf0 --------
 Flat Integration
 New Mode for Coulomb Integral
 Consistent 3/8+Simpson combinations
 Extension of core to zero
 LDM version in phi
 Fifth-order quadrature in outwin


            ---------
:ITE099: 99. ITERATION
            ---------

:NATO :    1 INDEPENDENT AND    1 TOTAL ATOMS IN UNITCELL
       SUBSTANCE: blebleble                                                   

       LATTICE                      = F   
:POT  : POTENTIAL OPTION EX_LDA EC_LDA VX_LDA VC_LDA
:LAT  : LATTICE CONSTANTS=  7.62940  7.62940  7.62940    1.571    1.571    1.571
:VOL  : UNIT CELL VOLUME =     111.02254
       MODE OF CALCULATION IS       = RELA
       NON-SPINPOLARIZED CALCULATION
:IFFT  : FFT-parameters:   60   60   60 Factor: 2.00


   CONVERGENCE PARAMETER FOR PSEUDOCHARGE: NCON=  9
   MAXIMAL VALUE OF RMT(JATOM)*ABSK(NKK) : RK  =29.97764


:VKCOUL :  VK-COUL convergence: 0.174E-06
       ATOMNUMBER=  1 Pr         VCOUL-ZERO =  0.99621E+00
:FIT001: LUSE= 13 SIGMA OF V-XC FIT FOR ATOM  1  0.8578367E-04
:FIT001: LUSE= 13 SIGMA OF V-XC FIT FOR ATOM  1  0.8578367E-04
:DEN  : DENSITY INTEGRAL  =         -7123.53037063   (Ry)
       ELS_POTENTIAL_AT Z=0 and Z=0.5:  -3.11774  -3.11774
       ELS_POTENTIAL_AT Y=0 and Y=0.5:   0.00000   0.00000
:VZERO:v0,v0c,v0x  -4.28446  -3.11774  -1.16672 v5,v5c,v5x  -4.28446  -3.11774  -1.16672
:VZERY:v0,v0c,v0x  -0.97058   0.00000  -0.97058 v5,v5c,v5x  -0.97058   0.00000  -0.97058
:VZERX:v0,v0c,v0x  -0.97058   0.00000  -0.97058 v5,v5c,v5x  -0.97058   0.00000  -0.97058

------- case.scf1 --------
:LMAX-WF:   10   Non-Spherical LMAX:   4

          ATOMIC SPHERE DEPENDENT PARAMETERS FOR ATOM  Pr        
:e__0001: OVERALL ENERGY PARAMETER IS    1.2143
          OVERALL BASIS SET ON ATOM IS LAPW
:E0_0001: E( 0)=    1.2143
             APW+lo
:E0_0001: E( 0)=   -1.2315   E(BOTTOM)=   -1.632   E(TOP)=   -0.831  4  5   255
             LOCAL ORBITAL
:E1_0001: E( 1)=    1.6143
             APW+lo
:E1_0001: E( 1)=    0.1413   E(BOTTOM)=   -0.534   E(TOP)=    0.817  3  4   258
             LOCAL ORBITAL
:E3_0001: E( 3)=    1.4562   E(BOTTOM)=    1.301   E(TOP)=    1.611  0  1   122
             APW+lo
:E2_0001: E( 2)=    1.2143   E(BOTTOM)=    1.012   E(TOP)= -200.000  2 -1   123
             APW+lo

       K=   0.00000   0.00000   0.00000            1
:RKM  : MATRIX SIZE    85LOs:  20  RKM= 8.24  WEIGHT= 1.00  PGR:    
       EIGENVALUES ARE:
:EIG00001:      -1.3415342    0.3546402    0.3546402    0.3546402    1.3341121
:EIG00006:       1.3764621    1.4336278    1.4336278    1.4336278    1.5453201
:EIG00011:       1.5453201    1.5453201    1.5483341    1.5483341    1.5483341
:EIG00016:       1.9672838    1.9672838    2.4742377    2.8548452    2.8799053
:EIG00021:       2.8799053    2.8799053    4.7763036    4.7763036    4.7763036
:EIG00026:       4.8635261    4.8635261    5.0897031    5.0897031    5.0897031
:EIG00031:       5.8020908    6.2167630    6.2167630    6.2167630    6.8891349
:EIG00036:       6.8891349    6.8891349    7.2676154    7.2676154    7.2676154
:EIG00041:       7.3228292    7.3228292    7.3228292    7.3721493    7.3721493
:EIG00046:       7.4138286    7.4138286    7.4951226    7.4951226    7.4951226
 
:EIG00051:       7.8427091    7.9238715    7.9238715    7.9238715    7.9863986
:EIG00056:       8.1829435    8.1829435    8.1829435
       ********************************************************

:KPT   :      NUMBER OF K-POINTS:   165

------- case.scfso --------
   0.0   0.0 angle (M,z), angle (M,x) deg
 
        SPIN-ORBIT EIGENVALUES:
     K=   0.00000   0.00000   0.00000            1
      MATRIX SIZE=  116   WEIGHT= 1.00
     EIGENVALUES ARE:
          -1.3415342   -1.3415342    0.1857427    0.1857427    0.4348200
           0.4348200    0.4348200    0.4348200    1.3333856    1.3333856
           1.3764621    1.3764621    1.4272777    1.4272777    1.4272777
           1.4272777    1.4435026    1.4435026    1.5402376    1.5402376
           1.5402376    1.5402376    1.5445373    1.5445373    1.5519590
           1.5519590    1.5519590    1.5519590    1.5545411    1.5545411
           1.9676125    1.9676125    1.9676125    1.9676125    2.4743440
           2.4743440    2.8548452    2.8548452    2.8754515    2.8754515

           2.8822348    2.8822348    2.8822348    2.8822348
       ********************************************************

------- case.scf2 --------
:GMA  : POTENTIAL AND CHARGE CUT-OFF  12.00 Ry**.5




:POS001: at.nr.   1 position = 0.00000 0.00000 0.50000  multiplicity =  1

       lmmax  5
       lm=   0 0  4 0  4 4  6 0  6 4
:FER gutzwiller fermi energy   1.42894
:EORB          0.067724397
:SUM sum of gutz band energies          4.793594125

:CHA001: total charge inside sphere   1 =    10.995580
:PCS001: partial charges sphere =  1 s,p,d,f,      d-eg,d-t2g 
:QTL001: 2.0218 5.2928 1.3910 2.2734 0.0000 0.0000 0.0000 0.5281 0.8629 0.0000 0.0000 0.0000

:CHA  : total charge inside unit cell =       6.500000

------- case.scfc --------

        1.ATOM      Pr                   14 CORE STATES
:1S 001: 1S               -3066.122284350 Ry
:2S 001: 2S                -491.868349225 Ry
:2PP001: 2P*               -464.968035428 Ry
:2P 001: 2P                -429.570292653 Ry
:3S 001: 3S                -104.962403104 Ry
:3PP001: 3P*                -93.500139199 Ry
:3P 001: 3P                 -86.492399989 Ry
:3DD001: 3D*                -66.418419996 Ry
:3D 001: 3D                 -64.906926136 Ry
:4S 001: 4S                 -19.639078770 Ry
:4PP001: 4P*                -15.345863345 Ry
:4P 001: 4P                 -13.818458932 Ry
:4DD001: 4D*                 -6.751588186 Ry
:4D 001: 4D                  -6.482236202 Ry

------- case.scfm --------
:CINT001 Core Integral Atom   1   45.999477

       DENSITY AT NUCLEUS
        JATOM        VALENCE       SEMI-CORE          CORE           TOTAL
:RTO001:   1      638.073711        0.000000   656825.194068   657463.267779
     
       CHARGES OF NEW CHARGE DENSITY
:NTO   : INTERSTITIAL CHARGE =     2.004390
:NPC   : PW Pseudocharge     =     8.547487
:NTO001: CHARGE SPHERE  1    =    56.995057

:NEC01: NUCLEAR AND ELECTRONIC CHARGE     59.00000    58.99945
     
       CHARGES OF OLD CHARGE DENSITY
:OTO   : INTERSTITIAL CHARGE =     2.005107
:OPC   : PW Pseudocharge     =     8.551100
:OTO001: CHARGE SPHERE  1    =    56.994893

:NEC02: NUCLEAR AND ELECTRONIC CHARGE     59.00000    59.00000
     
       CONVERGENCE TEST
:DTO001: DIFFERENCE IN SPHERE  1 =  0.0003896

:DIS  :  CHARGE DISTANCE       ( 0.0003896 for atom    1 spin 1)      0.0003896
 PW Mixed is           29
 
******************************************************
* MULTISECANT MIXING VER9 RELEASE 10.4.0              *
* Standard Mode with controls                        *
* Fixed density scale                                *
* Regularization       1.000E-04                     *
* Trust Upper Limit    5.000E+00                     *
* Max Number of Memory Steps    8                    *
******************************************************
 
:PWTMP   4.5573E+01  1.2500E+02  1.1102E+02
:PLANE:  PW TOTAL      2.8727 DISTAN   3.85E-04  1.34E-02 %
:CHARG:  CLM/ATOM    977.1660 DISTAN   7.08E-04  7.25E-05 %
 
Step History
        DMIX         DMIXT        Red     Pred      Trust     Lambda    MagRel    MagAbs     Beta
 72   1.7500E-01   9.3053E-02  9.98E-01  5.72E-01  1.07E-01  1.17E+00  2.12E-02  1.17E-03  4.36E-01
 73   1.0521E-01   6.5650E-02  1.00E+00  6.92E-01  1.24E-01  1.29E+00  3.78E-02  2.08E-03  3.49E-01
 74   1.4536E-01   1.4372E-01  9.70E-01  6.34E-01  1.89E-01  1.23E+00  5.13E-02  2.83E-03  4.36E-01
 75   8.0392E-02   8.0392E-02  6.76E-01  6.70E-01  2.80E-01  1.84E+00  1.84E-01  9.85E-03  5.46E-01
 76   1.0351E-01   1.0040E-01  5.53E-01  5.53E-01  6.79E-01  1.18E+00  1.77E-01  6.40E-03  6.82E-01
 77   1.5356E-01   1.5356E-01  3.81E-01  4.77E-01  1.00E+00  1.78E+00  3.20E-01  6.41E-03  8.52E-01
 78   2.5890E-01   2.5890E-01  3.93E-01  4.44E-01  1.55E+00  1.11E+00  7.41E-01  5.66E-03  1.00E+00
 79   2.1645E-01   2.1645E-01  8.48E-01  8.09E-01  2.07E+00  1.67E+00  5.66E-01  1.70E-03  1.00E+00
 80   3.0596E-01   3.0596E-01 -1.00E+00  4.19E-01  3.37E+00  1.00E+00  7.99E-01  2.03E-03  1.00E+00
:JACOBIANS    9.637E-01   3.154E+00
  
:NORMS:  1/Froebius, Min, Max, Used   0.6558E+00  0.6405E+00  0.9988E+00  0.6865E+00
:INFO :  Number of Memory Steps    8 Skipping   71
:INFO :  SLambda=    1.5201822519  Max    1.5201822519
:PREDicted Charge, CTotal, PW Trust    4.115E-05   4.115E-05   1.008E-04
:PREDicted DMix, Beta, BLim   7.1157E-01  9.6936E-01  2.0615E+00

Eigenvalues, unscaled except for SY+YY
   #     SY Real        SY Imag          SS             YY         SY+YY Real      SY+YY Imag
   1   1.683004E+00   6.158558E-01   2.250578E+00   5.485982E+00   7.467543E+00   0.000000E+00
   2   1.683004E+00  -6.158558E-01   8.384559E-01   1.938431E+00   5.031706E+00   0.000000E+00
   3   4.040976E-01   0.000000E+00   2.724535E-01   4.857655E-01   1.142249E+00   0.000000E+00
   4   6.257240E-02   0.000000E+00   5.709385E-02   6.888350E-02   1.634218E-01   0.000000E+00
   5   2.091963E-02   0.000000E+00   2.214659E-02   2.010264E-02   5.236194E-02   0.000000E+00
   6   5.453249E-04   0.000000E+00   2.909020E-04   7.991395E-04   1.688451E-03   0.000000E+00
   7   3.390024E-07   0.000000E+00   1.125283E-06   3.452390E-05   3.262779E-06   0.000000E+00
   8   6.292645E-06   0.000000E+00   8.337526E-08   1.540953E-06   3.650544E-05   0.000000E+00
 
:INFO :  Singular value  8.075E+00 Weight  1.000E+00 Projection -1.521E-05
:INFO :  Singular value  4.661E+00 Weight  1.000E+00 Projection  6.292E-05
:INFO :  Singular value  1.142E+00 Weight  1.000E+00 Projection -1.070E-04
:INFO :  Singular value  1.633E-01 Weight  1.000E+00 Projection  2.719E-04
:INFO :  Singular value  5.235E-02 Weight  9.999E-01 Projection  5.254E-03
:INFO :  Singular value  1.690E-03 Weight  9.046E-01 Projection  6.038E-03
:INFO :  Singular value  3.775E-05 Weight  4.713E-03 Projection  1.993E-04
:INFO :  Singular value  3.152E-06 Weight  3.300E-05 Projection  8.951E-07
:RANK :  ACTIVE   5.91/8  =  73.87 % ; YY RANK   5.68/8  =  71.04 %
 
:DLIM :  Beta Active  9.770E-01
:BLIM :  VZERO Control Off
:TRUST:  Step 4.49E+00  Charge 3.36E-03 (e) CTO  3.06E-03 (e) PW  5.12E-03 (e)
:DIRM :  MEMORY  8/8  SCALE   1.000 RED  0.32 PRED  0.42 NEXT  0.33 BETA  0.98
:TRAVE:  Charge 4.36E-04 (e) CTO  4.36E-04 (e) PW  1.18E-03 (e)
:DIRP :  |MSR1|= 6.031E-04 |PRATT|= 3.853E-04 ANGLE=   8.2 DEGREES
:DIRQ :  |MSR1|= 6.687E-04 |PRATT|= 7.081E-04 ANGLE=  14.9 DEGREES
:DIRT :  |MSR1|= 9.005E-04 |PRATT|= 8.061E-04 ANGLE=  18.7 DEGREES
:MIX  :   MSE1   REGULARIZATION:  5.49E-04 GREED: 0.35000  Newton 1.00  1.1171                
     
       CHARGES OF MIXED CHARGE DENSITY
:CTO   : INTERSTITIAL CHARGE =     2.004858
:CPC   : PW Pseudocharge     =     8.549163
:CTO001: CHARGE SPHERE  1    =    56.995142

:NEC03: NUCLEAR AND ELECTRONIC CHARGE     59.00000    59.00000

PW CHANGE     H    K    L      Current       Change    Residue
:PTO001:      0    0    0  9.50619648E-02 -1.969E-05 -1.278E-05
:PTO002:     -1   -1   -1 -1.78488972E-01  3.589E-05  1.954E-05
:PTO003:      0    0   -2  8.76439960E-02 -1.490E-05 -8.068E-06
:PTO004:      0   -2   -2  3.23208581E-02  1.505E-05  1.467E-05
:PTO005:     -1   -1   -3  1.78586552E-03 -2.017E-05 -1.600E-05
:PTO006:     -2   -2   -2 -3.86681579E-03  8.930E-06  7.678E-06
:PTO007:      0    0   -4 -4.56499780E-03  3.852E-06  2.672E-06
:PTO008:     -1   -3   -3  1.11145979E-02 -4.062E-06 -6.215E-07
:PTO009:      0   -2   -4 -1.02318104E-02  2.903E-06 -1.407E-07
:PTO010:     -2   -2   -4 -6.85997908E-03  1.460E-06 -1.340E-07
:PTO011:     -3   -3   -3  1.62793095E-03 -4.588E-07 -3.707E-08
:PTO012:     -1   -1   -5  4.63596437E-03 -2.299E-06 -1.277E-06

:ENE  : ********** TOTAL ENERGY IN Ry =       -18472.02097200

