
:LABEL1: Calculations in /home/ykent/GWIEN/example/Pr/aU/V2/case
:LABEL2: on didymium-2.cmpgroup.ameslab.gov at Fri Jul 10 14:12:04 CDT 2020
:LABEL3: using WIEN2k_19.1 (Release 25/6/2019) in /home/ykent/opt/src/WIEN2k_19.1
:LABEL4: using the command: run_lapw -so -i 70 -cc 0.0001

:LABEL1: Calculations in /home/ykent/GWIEN/example/Pr/aU/V2/case
:LABEL2: on didymium-2.cmpgroup.ameslab.gov at Fri Jul 10 14:12:28 CDT 2020
:LABEL3: using WIEN2k_19.1 (Release 25/6/2019) in /home/ykent/opt/src/WIEN2k_19.1
:LABEL4: using the command: run_lapw -so -i 70 -cc 0.0001
 Flat Integration
 New Mode for Coulomb Integral
 Consistent 3/8+Simpson combinations
 Extension of core to zero
 LDM version in phi
 Fifth-order quadrature in outwin


            ---------
:ITE014: 14. ITERATION
            ---------

:NATO :    1 INDEPENDENT AND    2 TOTAL ATOMS IN UNITCELL
       SUBSTANCE: aU                                                          

       LATTICE                      = CXY 
:POT  : POTENTIAL OPTION EX_LDA EC_LDA VX_LDA VC_LDA
:LAT  : LATTICE CONSTANTS=  5.03393 10.21511  8.81892    1.571    1.571    1.571
:VOL  : UNIT CELL VOLUME =     226.74400
       MODE OF CALCULATION IS       = RELA
       NON-SPINPOLARIZED CALCULATION
:IFFT  : FFT-parameters:   40   80   72 Factor: 2.00


   CONVERGENCE PARAMETER FOR PSEUDOCHARGE: NCON=  9
   MAXIMAL VALUE OF RMT(JATOM)*ABSK(NKK) : RK  =27.57811


:VKCOUL :  VK-COUL convergence: 0.258E-06
       ATOMNUMBER=  1 Pr1        VCOUL-ZERO =  0.89493E+00
:EFG001:                        EFG         =     9.83863   *10**21  V / m**2
                               V20  TOT/SRF=    -4.35319    -0.09250
                               V22  TOT/SRF=    -7.32531    -0.01321
                               V22M TOT/SRF=     0.00000     0.00000
                               V21  TOT/SRF=     0.00000     0.00000
                               V21M TOT/SRF=     0.00000     0.00000

             -4.81200    0.00000    0.00000       -4.81200    0.00000    0.00000
              0.00000    9.83863    0.00000        0.00000    9.83863    0.00000
              0.00000    0.00000   -5.02664        0.00000    0.00000   -5.02664

         MAIN DIRECTIONS OF THE EFG   1.0000  0.0000  0.0000
                                      0.0000  1.0000  0.0000
                                      0.0000  0.0000  1.0000
:ANG001:  ANGLE WITH OLD X-AXIS =         0.0

:ETA001:                         ASYMM. ETA =     0.02182


     HELLMANN-FEYNMAN-FORCE IN mRy/a.u. = |F|  Fx       Fy             Fz
:FHF001:   1.ATOM   1332.861422593643      0.000000000000      0.000000000000  -1332.861422593643

:FIT001: LUSE= 13 SIGMA OF V-XC FIT FOR ATOM  1  0.2652947E-03
:FIT001: LUSE= 13 SIGMA OF V-XC FIT FOR ATOM  1  0.2652947E-03
:DEN  : DENSITY INTEGRAL  =        -14249.85279583   (Ry)
       ELS_POTENTIAL_AT Z=0 and Z=0.5:   1.15047   1.15047
       ELS_POTENTIAL_AT Y=0 and Y=0.5:  -0.05926  -0.05926
:VZERO:v0,v0c,v0x   0.32403   1.15047  -0.82644 v5,v5c,v5x   0.32403   1.15047  -0.82644
:VZERY:v0,v0c,v0x  -1.11049  -0.05926  -1.05123 v5,v5c,v5x  -1.11049  -0.05926  -1.05123
:VZERX:v0,v0c,v0x  -1.37234  -0.39343  -0.97890 v5,v5c,v5x  -1.37234  -0.39343  -0.97890
:LMAX-WF:   10   Non-Spherical LMAX:   4

          ATOMIC SPHERE DEPENDENT PARAMETERS FOR ATOM  Pr1       
:e__0001: OVERALL ENERGY PARAMETER IS    1.2520
          OVERALL BASIS SET ON ATOM IS LAPW
:E0_0001: E( 0)=    1.2520
             APW+lo
:E0_0001: E( 0)=   -1.1647   E(BOTTOM)=   -1.813   E(TOP)=   -0.516  4  5   264
             LOCAL ORBITAL
:E1_0001: E( 1)=    1.6520
             APW+lo
:E1_0001: E( 1)=    0.2988   E(BOTTOM)=   -0.676   E(TOP)=    1.274  3  4   271
             LOCAL ORBITAL
:E3_0001: E( 3)=    1.4873   E(BOTTOM)=    1.274   E(TOP)=    1.700  0  1   123
             APW+lo
:E2_0001: E( 2)=    1.2520   E(BOTTOM)=    1.051   E(TOP)= -200.000  2 -1   123
             APW+lo

       K=   0.06250   0.00000   0.06250            1
:RKM  : MATRIX SIZE   231LOs:  40  RKM= 8.49  WEIGHT= 4.00  PGR:    
       EIGENVALUES ARE:
:EIG00001:      -1.2844192   -1.1347214   -0.1460225    0.2509209    0.3487581
:EIG00006:       0.3854595    0.4208023    0.4285673    1.2706892    1.3953295
:EIG00011:       1.4053658    1.4091753    1.4154389    1.4301446    1.4650608
:EIG00016:       1.4924716    1.5082339    1.5142854    1.5267523    1.5278485
:EIG00021:       1.5449193    1.5503045    1.5509588    1.5873427    1.6047389
:EIG00026:       1.6607129    1.7236550    1.7388604    1.8250740    1.8789909
:EIG00031:       1.9785132    2.1758304    2.3043382    2.3115189    2.5952218
:EIG00036:       2.6391257    2.6847703    2.9838140    3.0366907    3.2373378
:EIG00041:       3.4323521    3.4664808    3.6345047    3.7249749    3.8681147
:EIG00046:       3.8742047    3.9186475    4.1008825    4.1240339    4.2616625
 
:EIG00051:       4.4053810    4.5801362    4.6995843    4.8134985    4.8884749
:EIG00056:       5.0025014    5.0788231    5.2885122    5.3045952    5.3133135
:EIG00061:       5.4002302    5.4740305    5.6510618    5.7411072    5.7526299
:EIG00066:       5.8097598    5.8296978    5.9001522    6.0026561    6.1367137
:EIG00071:       6.1542365    6.3236888    6.3382544    6.3621328    6.3749007
:EIG00076:       6.3977142    6.4620387    6.4826046    6.5172486    6.6104772
:EIG00081:       6.6245450    6.7227499    6.7433549    6.8336791    6.9487801
:EIG00086:       6.9800838    7.0646104    7.1233281    7.2066456    7.2741828
:EIG00091:       7.3889077    7.4230531    7.4850064    7.4888218    7.5019410
:EIG00096:       7.6753629    7.7092434    7.8474398    7.8836218    7.9278868
 
:EIG00101:       7.9765436    8.0185344    8.0416907    8.1507912    8.1787839
:EIG00106:       8.2656594    8.4199977    8.5244826    8.5963720    8.6718729
:EIG00111:       8.7428219    8.8104586    8.8476941
       ********************************************************

:KPT   :      NUMBER OF K-POINTS:   288
   0.0   0.0 angle (M,z), angle (M,x) deg
 
        SPIN-ORBIT EIGENVALUES:
     K=   0.06250   0.00000   0.06250            1
      MATRIX SIZE=  226   WEIGHT= 4.00
     EIGENVALUES ARE:
          -1.2844248   -1.2844248   -1.1347283   -1.1347283   -0.1665151
          -0.1665151    0.2147997    0.2147997    0.2364445    0.2364445
           0.4411549    0.4411549    0.4562123    0.4562123    0.4859270
           0.4859270    1.2706415    1.2706415    1.3945057    1.3945057
           1.4041958    1.4041958    1.4083584    1.4083584    1.4151016
           1.4151016    1.4293456    1.4293456    1.4636974    1.4636974
           1.4891791    1.4891791    1.5033870    1.5033870    1.5137806
           1.5137806    1.5282155    1.5282155    1.5319797    1.5319797

           1.5454574    1.5454574    1.5499817    1.5499817    1.5545805
           1.5545805    1.5889217    1.5889217    1.6059772    1.6059772
           1.6608307    1.6608307    1.7214241    1.7214241    1.7413279
           1.7413279    1.8256383    1.8256384    1.8790915    1.8790915
           1.9788022    1.9788022    2.1760585    2.1760585    2.3028948
           2.3028948    2.3133315    2.3133315    2.5958935    2.5958935
           2.6392740    2.6392740    2.6848155    2.6848155    2.9836335
           2.9836335    3.0363830    3.0363830    3.2367267    3.2367267

           3.4326485    3.4326485    3.4664947    3.4664947    3.6348379
           3.6348379    3.7245384    3.7245384    3.8678616    3.8678616
           3.8740325    3.8740325    3.9189787    3.9189787    4.0994341
           4.0994341    4.1258018    4.1258018    4.2621177    4.2621177
           4.4052224    4.4052224
       ********************************************************
:GAP (global)   :    0.0    Ry =     0.0   eV (metal)
:GAP (this spin):    0.0    Ry =     0.0   eV (metal)
         Bandranges (emin - emax) and occupancy:
:BAN00020:  20    1.193665    1.399908  1.00000000
:BAN00021:  21    1.271049    1.448543  1.00000000
:BAN00022:  22    1.271049    1.448543  1.00000000
:BAN00023:  23    1.332294    1.458371  0.96811970
:BAN00024:  24    1.332294    1.458371  0.96811968
:BAN00025:  25    1.394500    1.487092  0.60801957
:BAN00026:  26    1.394500    1.487092  0.60801955
:BAN00027:  27    1.415679    1.504275  0.36148492
:BAN00028:  28    1.415679    1.504275  0.36148490
:BAN00029:  29    1.431388    1.507464  0.06237585
:BAN00030:  30    1.431388    1.507464  0.06237582
:BAN00031:  31    1.452524    1.513274  0.00000000
:BAN00032:  32    1.452524    1.513274  0.00000000
:BAN00033:  33    1.491356    1.530451  0.00000000
:BAN00034:  34    1.491356    1.530451  0.00000000
:BAN00035:  35    1.501993    1.536562  0.00000000
        Energy to separate low and high energystates:    1.07167


:NOE  : NUMBER OF ELECTRONS          =   26.000

:FER  : F E R M I - ENERGY(TETRAH.M.)=   1.4504963383
:GMA  : POTENTIAL AND CHARGE CUT-OFF  12.00 Ry**.5

:POS001: ATOM   -1 X,Y,Z = 0.00000 0.89750 0.25000  MULT= 2  ZZ= 59.000  Pr1       

       LMMAX 16
       LM=   0 0  1 0  2 0  2 2  3 0  3 2  4 0  4 2  4 4  5 0  5 2  5 4  6 0  6 2  6 4  6 6

:CHA001: TOTAL VALENCE CHARGE INSIDE SPHERE   1 =  10.1263    (RMT=  2.3000 )
:PCS001: PARTIAL CHARGES SPHERE =  1 S,P,D,F,PX,PY,PZ,D-Z2,D-X2Y2,D-XY,D-XZ,D-YZ 
:QTL001: 1.9206 4.9499 1.0660 2.1810 1.6535 1.6450 1.6514 0.2101 0.1897 0.2194 0.2206 0.2262
        Q-s-low E-s-low   Q-p-low E-p-low   Q-d-low E-d-low   Q-f-low E-f-low
:EPL001:  1.8734 -1.1148    4.8424  0.1642    0.0618  0.1301    0.0215  0.1368
        Q-s-hi  E-s-hi    Q-p-hi  E-p-hi    Q-d-hi  E-d-hi    Q-f-hi  E-f-hi 
:EPH001:  0.0473  1.3379    0.1075  1.3499    1.0042  1.3201    2.1594  1.3971

                      VXX         VYY         VZZ       UP TO R
:VZZ001:            -4.87452     9.68711    -4.81260       2.300

:CHA  : TOTAL VALENCE CHARGE INSIDE UNIT CELL =      26.000000

:SUM  : SUM OF EIGENVALUES =          10.910599163


        1.ATOM      Pr1                  14 CORE STATES
       CORE-FORCE in mRy/a.u. = |F|      Fx             Fy             Fz
:FCO001:   1.ATOM   1336.788523906928      0.000000000000      0.000000000000   1336.788523906928

:1S 001: 1S               -3066.105274676 Ry
:2S 001: 2S                -491.855544580 Ry
:2PP001: 2P*               -464.954280071 Ry
:2P 001: 2P                -429.556886049 Ry
:3S 001: 3S                -104.955399573 Ry
:3PP001: 3P*                -93.492888446 Ry
:3P 001: 3P                 -86.485241180 Ry
:3DD001: 3D*                -66.410750664 Ry
:3D 001: 3D                 -64.899324084 Ry
:4S 001: 4S                 -19.621855508 Ry
:4PP001: 4P*                -15.327681242 Ry
:4P 001: 4P                 -13.798907706 Ry
:4DD001: 4D*                 -6.729422172 Ry
:4D 001: 4D                  -6.459591575 Ry
:CINT001 Core Integral Atom   1   45.998442

       DENSITY AT NUCLEUS
        JATOM        VALENCE       SEMI-CORE          CORE           TOTAL
:RTO001:   1      633.324262        0.000000   656826.669100   657459.993362
     
       CHARGES OF NEW CHARGE DENSITY
:NTO   : INTERSTITIAL CHARGE =     5.747456
:NPC   : PW Pseudocharge     =    18.110421
:NTO001: CHARGE SPHERE  1    =    56.124706

:NEC01: NUCLEAR AND ELECTRONIC CHARGE    118.00000   117.99687
     
       CHARGES OF OLD CHARGE DENSITY
:OTO   : INTERSTITIAL CHARGE =     5.758754
:OPC   : PW Pseudocharge     =    18.141984
:OTO001: CHARGE SPHERE  1    =    56.120623

:NEC02: NUCLEAR AND ELECTRONIC CHARGE    118.00000   118.00000
     
       CONVERGENCE TEST
:DTO001: DIFFERENCE IN SPHERE  1 =  0.0193605

:DIS  :  CHARGE DISTANCE       ( 0.0193605 for atom    1 spin 1)      0.0193605
 PW Mixed is          244
 
******************************************************
* MULTISECANT MIXING VER9 RELEASE 10.4.0              *
* Standard Mode with controls                        *
* Fixed density scale                                *
* Regularization       1.000E-04                     *
* Trust Upper Limit    5.000E+00                     *
* Max Number of Memory Steps    8                    *
******************************************************
 
:INFO : Forcing a restart
:PWTMP   1.2481E+02  1.9467E+02  2.2674E+02
:PLANE:  PW TOTAL      5.6417 DISTAN   6.51E-03  1.15E-01 %
:CHARG:  CLM/ATOM   1381.9315 DISTAN   2.82E-02  2.04E-03 %
 
Step History
        DMIX         DMIXT        Red     Pred      Trust     Lambda    MagRel    MagAbs     Beta
  1   3.5000E-02   3.5000E-02 -1.00E+00  1.00E+00 -1.00E+01  1.00E+00  3.50E-02  3.50E-02  1.00E+00
:INFO :  Note, Pratt in use
:TRUST:  Step 2.25E-01  Charge 7.50E-02 (e) CTO  2.50E-01 (e) PW  3.50E-01 (e)
:DIRM :  MEMORY  0/ 8 SCALE   1.000
Performing Pseudo Compensation
Final Pseudo Compensation Rescaling     1.00000E+00
:MIX  :   PRATT  REGULARIZATION:  1.00E-04 GREED: 0.15000                  
     
       CHARGES OF MIXED CHARGE DENSITY
:CTO   : INTERSTITIAL CHARGE =     5.757529
:CPC   : PW Pseudocharge     =    18.133611
:CTO001: CHARGE SPHERE  1    =    56.121235

:NEC03: NUCLEAR AND ELECTRONIC CHARGE    118.00000   118.00000

PW CHANGE     H    K    L      Current       Change    Residue
:PTO001:      0    0    0  1.05366142E-01 -4.233E-05 -1.317E-04
:PTO003:      0    2    0  2.16048298E-02 -7.186E-06 -1.119E-05
:PTO004:     -1    1    0  9.58689587E-02 -3.283E-05 -6.306E-05
:PTO005:      0    2   -1 -1.08120336E-01  3.416E-05  5.271E-05
:PTO006:      0    0   -2 -5.58443691E-02  1.830E-05  3.155E-05
:PTO007:     -1    1   -1 -1.06880413E-01  3.105E-05  5.718E-05
:PTO008:      0    2   -2 -1.24661766E-02  8.621E-07  2.695E-06
:PTO009:     -1    1   -2 -6.10613753E-02 -8.296E-06 -2.143E-05
:PTO011:     -1    3    0 -7.96985179E-03 -5.513E-06 -9.715E-06
:PTO012:     -1    3   -1 -2.96349503E-02 -4.087E-05 -9.380E-05
:PTO013:      0    4    0 -4.42287100E-03 -9.347E-06 -1.542E-05
:PTO014:      0    2   -3  1.05207669E-02  2.160E-05  3.673E-05

:ENE  : ********** TOTAL ENERGY IN Ry =       -36944.35054313

       TOTAL FORCE IN mRy/a.u. = |F|     Fx             Fy             Fz     with/without FOR in case.in2
:FOR001:   1.ATOM          3.927          0.000          0.000          3.927 partial forces
       TOTAL FORCE WITH RESPECT TO GLOBAL CARTESIAN COORDINATES:
:FCA001:   1.ATOM                         0.000          3.927          0.000 partial forces
       TOTAL FORCE WITH RESPECT TO THE GLOBAL COORDINATE SYSTEM:
:FGL001:   1.ATOM                 0.000000000     3.927101313     0.000000000 partial forces
 Flat Integration
 New Mode for Coulomb Integral
 Consistent 3/8+Simpson combinations
 Extension of core to zero
 LDM version in phi
 Fifth-order quadrature in outwin


            ---------
:ITE015: 15. ITERATION
            ---------

:NATO :    1 INDEPENDENT AND    2 TOTAL ATOMS IN UNITCELL
       SUBSTANCE: aU                                                          

       LATTICE                      = CXY 
:POT  : POTENTIAL OPTION EX_LDA EC_LDA VX_LDA VC_LDA
:LAT  : LATTICE CONSTANTS=  5.03393 10.21511  8.81892    1.571    1.571    1.571
:VOL  : UNIT CELL VOLUME =     226.74400
       MODE OF CALCULATION IS       = RELA
       NON-SPINPOLARIZED CALCULATION
:IFFT  : FFT-parameters:   40   80   72 Factor: 2.00


   CONVERGENCE PARAMETER FOR PSEUDOCHARGE: NCON=  9
   MAXIMAL VALUE OF RMT(JATOM)*ABSK(NKK) : RK  =27.57811


:VKCOUL :  VK-COUL convergence: 0.258E-06
       ATOMNUMBER=  1 Pr1        VCOUL-ZERO =  0.89452E+00
:EFG001:                        EFG         =     9.82503   *10**21  V / m**2
                               V20  TOT/SRF=    -4.34234    -0.09242
                               V22  TOT/SRF=    -7.31798    -0.01322
                               V22M TOT/SRF=     0.00000     0.00000
                               V21  TOT/SRF=     0.00000     0.00000
                               V21M TOT/SRF=     0.00000     0.00000

             -4.81093    0.00000    0.00000       -4.81093    0.00000    0.00000
              0.00000    9.82503    0.00000        0.00000    9.82503    0.00000
              0.00000    0.00000   -5.01410        0.00000    0.00000   -5.01410

         MAIN DIRECTIONS OF THE EFG   1.0000  0.0000  0.0000
                                      0.0000  1.0000  0.0000
                                      0.0000  0.0000  1.0000
:ANG001:  ANGLE WITH OLD X-AXIS =         0.0

:ETA001:                         ASYMM. ETA =     0.02068


     HELLMANN-FEYNMAN-FORCE IN mRy/a.u. = |F|  Fx       Fy             Fz
:FHF001:   1.ATOM   1331.936820696586      0.000000000000      0.000000000000  -1331.936820696586

:FIT001: LUSE= 13 SIGMA OF V-XC FIT FOR ATOM  1  0.2657778E-03
:FIT001: LUSE= 13 SIGMA OF V-XC FIT FOR ATOM  1  0.2657778E-03
:DEN  : DENSITY INTEGRAL  =        -14250.11510564   (Ry)
       ELS_POTENTIAL_AT Z=0 and Z=0.5:   1.15000   1.15000
       ELS_POTENTIAL_AT Y=0 and Y=0.5:  -0.05926  -0.05926
:VZERO:v0,v0c,v0x   0.32363   1.15000  -0.82638 v5,v5c,v5x   0.32363   1.15000  -0.82638
:VZERY:v0,v0c,v0x  -1.11035  -0.05926  -1.05109 v5,v5c,v5x  -1.11035  -0.05926  -1.05109
:VZERX:v0,v0c,v0x  -1.37202  -0.39321  -0.97881 v5,v5c,v5x  -1.37202  -0.39321  -0.97881
:LMAX-WF:   10   Non-Spherical LMAX:   4

          ATOMIC SPHERE DEPENDENT PARAMETERS FOR ATOM  Pr1       
:e__0001: OVERALL ENERGY PARAMETER IS    1.2510
          OVERALL BASIS SET ON ATOM IS LAPW
:E0_0001: E( 0)=    1.2510
             APW+lo
:E0_0001: E( 0)=   -1.1641   E(BOTTOM)=   -1.813   E(TOP)=   -0.515  4  5   267
             LOCAL ORBITAL
:E1_0001: E( 1)=    1.6510
             APW+lo
:E1_0001: E( 1)=    0.2992   E(BOTTOM)=   -0.676   E(TOP)=    1.275  3  4   275
             LOCAL ORBITAL
:E3_0001: E( 3)=    1.4887   E(BOTTOM)=    1.275   E(TOP)=    1.702  0  1   122
             APW+lo
:E2_0001: E( 2)=    1.2510   E(BOTTOM)=    1.051   E(TOP)= -200.000  2 -1   125
             APW+lo

       K=   0.06250   0.00000   0.06250            1
:RKM  : MATRIX SIZE   231LOs:  40  RKM= 8.49  WEIGHT= 4.00  PGR:    
       EIGENVALUES ARE:
:EIG00001:      -1.2840404   -1.1342541   -0.1459075    0.2512088    0.3490925
:EIG00006:       0.3857949    0.4211773    0.4289233    1.2705833    1.3960388
:EIG00011:       1.4062822    1.4099736    1.4158302    1.4311121    1.4658616
:EIG00016:       1.4937176    1.5095394    1.5156378    1.5280271    1.5291575
:EIG00021:       1.5459965    1.5514471    1.5523182    1.5888411    1.6058045
:EIG00026:       1.6613201    1.7237256    1.7392658    1.8252154    1.8791209
:EIG00031:       1.9786803    2.1760213    2.3044323    2.3117648    2.5953338
:EIG00036:       2.6392260    2.6848049    2.9837489    3.0366747    3.2373979
:EIG00041:       3.4323423    3.4664593    3.6343946    3.7249180    3.8680088
:EIG00046:       3.8740487    3.9185673    4.1007258    4.1239057    4.2614519
 
:EIG00051:       4.4052867    4.5800713    4.6995223    4.8134144    4.8885479
:EIG00056:       5.0024280    5.0787889    5.2882622    5.3044559    5.3131940
:EIG00061:       5.4003312    5.4739506    5.6510204    5.7409142    5.7524140
:EIG00066:       5.8095872    5.8297411    5.9002173    6.0025418    6.1365474
:EIG00071:       6.1540091    6.3235651    6.3380353    6.3619122    6.3747229
:EIG00076:       6.3974846    6.4618492    6.4825131    6.5170566    6.6102486
:EIG00081:       6.6243086    6.7225423    6.7431546    6.8334826    6.9484856
:EIG00086:       6.9798281    7.0643586    7.1229904    7.2064653    7.2740127
:EIG00091:       7.3887400    7.4227909    7.4847718    7.4887813    7.5019322
:EIG00096:       7.6750675    7.7091470    7.8472295    7.8834070    7.9277494
 
:EIG00101:       7.9762670    8.0182698    8.0414223    8.1507049    8.1784419
:EIG00106:       8.2655101    8.4198445    8.5244076    8.5962635    8.6715937
:EIG00111:       8.7425723    8.8101477    8.8474613
       ********************************************************

:KPT   :      NUMBER OF K-POINTS:   288
   0.0   0.0 angle (M,z), angle (M,x) deg
 
        SPIN-ORBIT EIGENVALUES:
     K=   0.06250   0.00000   0.06250            1
      MATRIX SIZE=  226   WEIGHT= 4.00
     EIGENVALUES ARE:
          -1.2840461   -1.2840461   -1.1342610   -1.1342610   -0.1663765
          -0.1663765    0.2151695    0.2151695    0.2367469    0.2367469
           0.4414728    0.4414728    0.4565447    0.4565447    0.4862718
           0.4862718    1.2705364    1.2705364    1.3952285    1.3952285
           1.4051143    1.4051143    1.4092210    1.4092210    1.4154468
           1.4154469    1.4303169    1.4303169    1.4645127    1.4645127
           1.4904326    1.4904326    1.5046861    1.5046861    1.5150929
           1.5150929    1.5295076    1.5295077    1.5332543    1.5332543

           1.5465554    1.5465554    1.5511471    1.5511471    1.5558830
           1.5558831    1.5904150    1.5904150    1.6070467    1.6070467
           1.6614462    1.6614462    1.7215562    1.7215562    1.7416816
           1.7416816    1.8257787    1.8257787    1.8792226    1.8792226
           1.9789693    1.9789693    2.1762492    2.1762492    2.3030153
           2.3030153    2.3135517    2.3135518    2.5960052    2.5960052
           2.6393743    2.6393743    2.6848504    2.6848504    2.9835686
           2.9835686    3.0363665    3.0363665    3.2367867    3.2367867

           3.4326380    3.4326380    3.4664737    3.4664737    3.6347283
           3.6347283    3.7244818    3.7244818    3.8677520    3.8677520
           3.8738802    3.8738802    3.9188983    3.9188983    4.0992798
           4.0992798    4.1256713    4.1256713    4.2619072    4.2619072
           4.4051282    4.4051282
       ********************************************************
:GAP (global)   :    0.0    Ry =     0.0   eV (metal)
:GAP (this spin):    0.0    Ry =     0.0   eV (metal)
         Bandranges (emin - emax) and occupancy:
:BAN00020:  20    1.193501    1.400453  1.00000000
:BAN00021:  21    1.270974    1.449656  1.00000000
:BAN00022:  22    1.270974    1.449656  1.00000000
:BAN00023:  23    1.332540    1.459380  0.96802617
:BAN00024:  24    1.332540    1.459380  0.96802616
:BAN00025:  25    1.395001    1.488185  0.60852675
:BAN00026:  26    1.395001    1.488185  0.60852673
:BAN00027:  27    1.416568    1.505616  0.36206323
:BAN00028:  28    1.416568    1.505616  0.36206322
:BAN00029:  29    1.432380    1.508693  0.06138388
:BAN00030:  30    1.432380    1.508693  0.06138386
:BAN00031:  31    1.453604    1.514563  0.00000000
:BAN00032:  32    1.453604    1.514563  0.00000000
:BAN00033:  33    1.492612    1.531840  0.00000000
:BAN00034:  34    1.492612    1.531840  0.00000000
:BAN00035:  35    1.503342    1.537871  0.00000000
        Energy to separate low and high energystates:    1.07150


:NOE  : NUMBER OF ELECTRONS          =   26.000

:FER  : F E R M I - ENERGY(TETRAH.M.)=   1.4515717896
:GMA  : POTENTIAL AND CHARGE CUT-OFF  12.00 Ry**.5

:POS001: ATOM   -1 X,Y,Z = 0.00000 0.89750 0.25000  MULT= 2  ZZ= 59.000  Pr1       

       LMMAX 16
       LM=   0 0  1 0  2 0  2 2  3 0  3 2  4 0  4 2  4 4  5 0  5 2  5 4  6 0  6 2  6 4  6 6

:CHA001: TOTAL VALENCE CHARGE INSIDE SPHERE   1 =  10.1202    (RMT=  2.3000 )
:PCS001: PARTIAL CHARGES SPHERE =  1 S,P,D,F,PX,PY,PZ,D-Z2,D-X2Y2,D-XY,D-XZ,D-YZ 
:QTL001: 1.9208 4.9499 1.0698 2.1709 1.6535 1.6450 1.6515 0.2110 0.1905 0.2200 0.2214 0.2268
        Q-s-low E-s-low   Q-p-low E-p-low   Q-d-low E-d-low   Q-f-low E-f-low
:EPL001:  1.8733 -1.1143    4.8417  0.1645    0.0618  0.1304    0.0216  0.1370
        Q-s-hi  E-s-hi    Q-p-hi  E-p-hi    Q-d-hi  E-d-hi    Q-f-hi  E-f-hi 
:EPH001:  0.0475  1.3385    0.1082  1.3505    1.0079  1.3205    2.1494  1.3979

                      VXX         VYY         VZZ       UP TO R
:VZZ001:            -4.82963     9.71404    -4.88441       2.300

:CHA  : TOTAL VALENCE CHARGE INSIDE UNIT CELL =      26.000000

:SUM  : SUM OF EIGENVALUES =          10.919944644


        1.ATOM      Pr1                  14 CORE STATES
       CORE-FORCE in mRy/a.u. = |F|      Fx             Fy             Fz
:FCO001:   1.ATOM   1335.851469422085      0.000000000000      0.000000000000   1335.851469422085

:1S 001: 1S               -3066.102072410 Ry
:2S 001: 2S                -491.852337212 Ry
:2PP001: 2P*               -464.951073919 Ry
:2P 001: 2P                -429.553679547 Ry
:3S 001: 3S                -104.952281761 Ry
:3PP001: 3P*                -93.489762227 Ry
:3P 001: 3P                 -86.482130420 Ry
:3DD001: 3D*                -66.407611760 Ry
:3D 001: 3D                 -64.896188997 Ry
:4S 001: 4S                 -19.619545448 Ry
:4PP001: 4P*                -15.325421360 Ry
:4P 001: 4P                 -13.796725750 Ry
:4DD001: 4D*                 -6.727376947 Ry
:4D 001: 4D                  -6.457572800 Ry
:CINT001 Core Integral Atom   1   45.998440

       DENSITY AT NUCLEUS
        JATOM        VALENCE       SEMI-CORE          CORE           TOTAL
:RTO001:   1      633.326752        0.000000   656826.502584   657459.829337
     
       CHARGES OF NEW CHARGE DENSITY
:NTO   : INTERSTITIAL CHARGE =     5.759506
:NPC   : PW Pseudocharge     =    18.118978
:NTO001: CHARGE SPHERE  1    =    56.118679

:NEC01: NUCLEAR AND ELECTRONIC CHARGE    118.00000   117.99686
     
       CHARGES OF OLD CHARGE DENSITY
:OTO   : INTERSTITIAL CHARGE =     5.757529
:OPC   : PW Pseudocharge     =    18.133611
:OTO001: CHARGE SPHERE  1    =    56.121235

:NEC02: NUCLEAR AND ELECTRONIC CHARGE    118.00000   118.00000
     
       CONVERGENCE TEST
:DTO001: DIFFERENCE IN SPHERE  1 =  0.0041504

:DIS  :  CHARGE DISTANCE       ( 0.0041504 for atom    1 spin 1)      0.0041504
 PW Mixed is          244
 
******************************************************
* MULTISECANT MIXING VER9 RELEASE 10.4.0              *
* Standard Mode with controls                        *
* Fixed density scale                                *
* Restart from converged density                     *
* Regularization       1.000E-04                     *
* Trust Upper Limit    5.000E+00                     *
* Max Number of Memory Steps    8                    *
******************************************************
 
:INFO : Forcing a restart
:PWTMP   1.2481E+02  1.9467E+02  2.2674E+02
:PLANE:  PW TOTAL      5.6398 DISTAN   2.04E-03  3.62E-02 %
:CHARG:  CLM/ATOM   1381.9317 DISTAN   8.29E-03  6.00E-04 %
 
Step History
        DMIX         DMIXT        Red     Pred      Trust     Lambda    MagRel    MagAbs     Beta
  1   3.5000E-02   3.5000E-02 -1.00E+00  1.00E+00 -1.00E+01  1.00E+00  3.50E-02  3.50E-02  1.00E+00
  2   1.5000E-01   1.5000E-01 -1.00E+00  1.00E+00 -1.00E+01  1.00E+00  1.50E-01  4.34E-03  1.00E+00
:JACOBIANS    1.127E-02   8.070E-02
  
:NORMS:  1/Froebius, Min, Max, Used   0.4227E-01  0.4227E-01  0.1830E+00  0.4227E-01
:INFO :  Number of Memory Steps    1 Skipping    0
:PREDicted Charge, CTotal, PW Trust    6.913E-04   1.383E-03   5.964E-03
:PREDicted DMix, Beta, BLim   5.0000E-02  1.1287E+00  3.0507E+00

Eigenvalues, unscaled except for SY+YY
   #     SY Real        SY Imag          SS             YY         SY+YY Real      SY+YY Imag
   1   1.830202E-01   0.000000E+00   4.226648E-02   1.000000E+00   1.183020E+00   0.000000E+00
 
:BLIM :  VZERO Control Off
:TRUST:  Step 3.00E+00  Charge 7.50E-02 (e) CTO  2.50E-01 (e) PW  3.50E-01 (e)
:DIRM :  MEMORY  1/8  SCALE   1.000 RED  0.30 PRED  1.00 NEXT  0.93 
:TRAVE:  Charge 1.64E-04 (e) CTO  3.28E-04 (e) PW  5.14E-04 (e)
:DIRP :  |MSR1|= 4.215E-04 |PRATT|= 2.043E-03 ANGLE=  36.2 DEGREES
:DIRQ :  |MSR1|= 8.729E-04 |PRATT|= 8.293E-03 ANGLE=  14.9 DEGREES
:DIRT :  |MSR1|= 9.694E-04 |PRATT|= 8.541E-03 ANGLE=  21.8 DEGREES
:MIX  :   MSR1   REGULARIZATION:  1.00E-04 GREED: 0.07125  Newton 1.00  0.1135                
     
       CHARGES OF MIXED CHARGE DENSITY
:CTO   : INTERSTITIAL CHARGE =     5.757858
:CPC   : PW Pseudocharge     =    18.132348
:CTO001: CHARGE SPHERE  1    =    56.121071

:NEC03: NUCLEAR AND ELECTRONIC CHARGE    118.00000   118.00000

PW CHANGE     H    K    L      Current       Change    Residue
:PTO001:      0    0    0  1.05362022E-01 -4.120E-06  1.514E-06
:PTO003:      0    2    0  2.16028330E-02 -1.997E-06 -1.460E-05
:PTO004:     -1    1    0  9.58623155E-02 -6.643E-06 -3.725E-05
:PTO005:      0    2   -1 -1.08113944E-01  6.392E-06  3.081E-05
:PTO006:      0    0   -2 -5.58408324E-02  3.537E-06  1.829E-05
:PTO007:     -1    1   -1 -1.06873827E-01  6.586E-06  3.872E-05
:PTO008:      0    2   -2 -1.24660199E-02  1.567E-07  8.763E-07
:PTO009:     -1    1   -2 -6.10620562E-02 -6.810E-07  2.369E-06
:PTO011:     -1    3    0 -7.97073533E-03 -8.835E-07 -3.270E-06
:PTO012:     -1    3   -1 -2.96427319E-02 -7.782E-06 -4.204E-05
:PTO013:      0    4    0 -4.42439385E-03 -1.523E-06 -5.732E-06
:PTO014:      0    2   -3  1.05245322E-02  3.765E-06  1.644E-05

:ENE  : ********** TOTAL ENERGY IN Ry =       -36944.35047530

       TOTAL FORCE IN mRy/a.u. = |F|     Fx             Fy             Fz     with/without FOR in case.in2
:FOR001:   1.ATOM          3.915          0.000          0.000          3.915 partial forces
       TOTAL FORCE WITH RESPECT TO GLOBAL CARTESIAN COORDINATES:
:FCA001:   1.ATOM                         0.000          3.915          0.000 partial forces
       TOTAL FORCE WITH RESPECT TO THE GLOBAL COORDINATE SYSTEM:
:FGL001:   1.ATOM                 0.000000000     3.914648725     0.000000000 partial forces
 Flat Integration
 New Mode for Coulomb Integral
 Consistent 3/8+Simpson combinations
 Extension of core to zero
 LDM version in phi
 Fifth-order quadrature in outwin


            ---------
:ITE016: 16. ITERATION
            ---------

:NATO :    1 INDEPENDENT AND    2 TOTAL ATOMS IN UNITCELL
       SUBSTANCE: aU                                                          

       LATTICE                      = CXY 
:POT  : POTENTIAL OPTION EX_LDA EC_LDA VX_LDA VC_LDA
:LAT  : LATTICE CONSTANTS=  5.03393 10.21511  8.81892    1.571    1.571    1.571
:VOL  : UNIT CELL VOLUME =     226.74400
       MODE OF CALCULATION IS       = RELA
       NON-SPINPOLARIZED CALCULATION
:IFFT  : FFT-parameters:   40   80   72 Factor: 2.00


   CONVERGENCE PARAMETER FOR PSEUDOCHARGE: NCON=  9
   MAXIMAL VALUE OF RMT(JATOM)*ABSK(NKK) : RK  =27.57811


:VKCOUL :  VK-COUL convergence: 0.257E-06
       ATOMNUMBER=  1 Pr1        VCOUL-ZERO =  0.89449E+00
:EFG001:                        EFG         =     9.82009   *10**21  V / m**2
                               V20  TOT/SRF=    -4.34169    -0.09242
                               V22  TOT/SRF=    -7.31342    -0.01322
                               V22M TOT/SRF=     0.00000     0.00000
                               V21  TOT/SRF=     0.00000     0.00000
                               V21M TOT/SRF=     0.00000     0.00000

             -4.80675    0.00000    0.00000       -4.80675    0.00000    0.00000
              0.00000    9.82009    0.00000        0.00000    9.82009    0.00000
              0.00000    0.00000   -5.01335        0.00000    0.00000   -5.01335

         MAIN DIRECTIONS OF THE EFG   1.0000  0.0000  0.0000
                                      0.0000  1.0000  0.0000
                                      0.0000  0.0000  1.0000
:ANG001:  ANGLE WITH OLD X-AXIS =         0.0

:ETA001:                         ASYMM. ETA =     0.02104


     HELLMANN-FEYNMAN-FORCE IN mRy/a.u. = |F|  Fx       Fy             Fz
:FHF001:   1.ATOM   1332.042317578343      0.000000000000      0.000000000000  -1332.042317578343

:FIT001: LUSE= 13 SIGMA OF V-XC FIT FOR ATOM  1  0.2660084E-03
:FIT001: LUSE= 13 SIGMA OF V-XC FIT FOR ATOM  1  0.2660084E-03
:DEN  : DENSITY INTEGRAL  =        -14250.14018118   (Ry)
       ELS_POTENTIAL_AT Z=0 and Z=0.5:   1.14999   1.14999
       ELS_POTENTIAL_AT Y=0 and Y=0.5:  -0.05929  -0.05929
:VZERO:v0,v0c,v0x   0.32360   1.14999  -0.82639 v5,v5c,v5x   0.32360   1.14999  -0.82639
:VZERY:v0,v0c,v0x  -1.11036  -0.05929  -1.05107 v5,v5c,v5x  -1.11036  -0.05929  -1.05107
:VZERX:v0,v0c,v0x  -1.37199  -0.39317  -0.97882 v5,v5c,v5x  -1.37199  -0.39317  -0.97882
:LMAX-WF:   10   Non-Spherical LMAX:   4

          ATOMIC SPHERE DEPENDENT PARAMETERS FOR ATOM  Pr1       
:e__0001: OVERALL ENERGY PARAMETER IS    1.2514
          OVERALL BASIS SET ON ATOM IS LAPW
:E0_0001: E( 0)=    1.2514
             APW+lo
:E0_0001: E( 0)=   -1.1641   E(BOTTOM)=   -1.813   E(TOP)=   -0.515  4  5   265
             LOCAL ORBITAL
:E1_0001: E( 1)=    1.6514
             APW+lo
:E1_0001: E( 1)=    0.2992   E(BOTTOM)=   -0.676   E(TOP)=    1.275  3  4   267
             LOCAL ORBITAL
:E3_0001: E( 3)=    1.4888   E(BOTTOM)=    1.276   E(TOP)=    1.702  0  1   120
             APW+lo
:E2_0001: E( 2)=    1.2514   E(BOTTOM)=    1.051   E(TOP)= -200.000  2 -1   125
             APW+lo

       K=   0.06250   0.00000   0.06250            1
:RKM  : MATRIX SIZE   231LOs:  40  RKM= 8.49  WEIGHT= 4.00  PGR:    
       EIGENVALUES ARE:
:EIG00001:      -1.2840152   -1.1342211   -0.1459026    0.2512292    0.3491161
:EIG00006:       0.3858100    0.4212057    0.4289406    1.2705780    1.3961022
:EIG00011:       1.4063724    1.4100545    1.4158786    1.4312063    1.4659385
:EIG00016:       1.4938422    1.5096706    1.5157739    1.5281603    1.5292894
:EIG00021:       1.5460999    1.5515618    1.5524557    1.5889935    1.6059054
:EIG00026:       1.6613733    1.7237334    1.7393078    1.8252287    1.8791325
:EIG00031:       1.9786942    2.1760393    2.3044451    2.3117863    2.5953553
:EIG00036:       2.6392444    2.6848212    2.9837520    3.0366759    3.2373983
:EIG00041:       3.4323416    3.4664607    3.6343892    3.7249088    3.8679988
:EIG00046:       3.8740318    3.9185569    4.1007055    4.1238904    4.2614346
 
:EIG00051:       4.4052625    4.5800474    4.6995072    4.8133927    4.8885207
:EIG00056:       5.0024175    5.0787812    5.2882320    5.3044302    5.3131772
:EIG00061:       5.4003005    5.4739187    5.6510046    5.7408887    5.7523767
:EIG00066:       5.8095485    5.8296965    5.9001889    6.0025018    6.1365126
:EIG00071:       6.1539790    6.3235316    6.3380037    6.3618796    6.3746832
:EIG00076:       6.3974516    6.4618111    6.4824847    6.5170333    6.6102158
:EIG00081:       6.6242708    6.7225074    6.7431272    6.8334428    6.9484535
:EIG00086:       6.9797924    7.0643187    7.1229561    7.2064230    7.2739669
:EIG00091:       7.3886961    7.4227561    7.4847320    7.4887226    7.5018722
:EIG00096:       7.6750290    7.7090909    7.8471869    7.8833751    7.9276979
 
:EIG00101:       7.9762251    8.0182327    8.0413799    8.1506592    8.1784055
:EIG00106:       8.2654687    8.4197963    8.5243772    8.5962139    8.6715535
:EIG00111:       8.7425286    8.8101092    8.8474152
       ********************************************************

:KPT   :      NUMBER OF K-POINTS:   288
   0.0   0.0 angle (M,z), angle (M,x) deg
 
        SPIN-ORBIT EIGENVALUES:
     K=   0.06250   0.00000   0.06250            1
      MATRIX SIZE=  226   WEIGHT= 4.00
     EIGENVALUES ARE:
          -1.2840209   -1.2840209   -1.1342279   -1.1342279   -0.1663697
          -0.1663697    0.2151938    0.2151938    0.2367675    0.2367675
           0.4414914    0.4414914    0.4565610    0.4565610    0.4862950
           0.4862950    1.2705313    1.2705313    1.3952932    1.3952932
           1.4052047    1.4052047    1.4093090    1.4093090    1.4154900
           1.4154901    1.4304113    1.4304113    1.4645912    1.4645912
           1.4905576    1.4905576    1.5048187    1.5048187    1.5152237
           1.5152237    1.5296405    1.5296405    1.5333836    1.5333836

           1.5466615    1.5466615    1.5512636    1.5512637    1.5560151
           1.5560151    1.5905668    1.5905668    1.6071479    1.6071479
           1.6615002    1.6615002    1.7215702    1.7215702    1.7417184
           1.7417184    1.8257919    1.8257919    1.8792343    1.8792343
           1.9789832    1.9789832    2.1762672    2.1762672    2.3030295
           2.3030295    2.3135719    2.3135719    2.5960267    2.5960267
           2.6393927    2.6393927    2.6848666    2.6848666    2.9835718
           2.9835718    3.0363677    3.0363677    3.2367871    3.2367871

           3.4326373    3.4326373    3.4664752    3.4664752    3.6347228
           3.6347228    3.7244727    3.7244727    3.8677416    3.8677416
           3.8738636    3.8738636    3.9188879    3.9188879    4.0992599
           4.0992599    4.1256559    4.1256559    4.2618899    4.2618899
           4.4051040    4.4051040
       ********************************************************
:GAP (global)   :    0.0    Ry =     0.0   eV (metal)
:GAP (this spin):    0.0    Ry =     0.0   eV (metal)
         Bandranges (emin - emax) and occupancy:
:BAN00020:  20    1.193487    1.400507  1.00000000
:BAN00021:  21    1.270968    1.449768  1.00000000
:BAN00022:  22    1.270968    1.449768  1.00000000
:BAN00023:  23    1.332559    1.459480  0.96802011
:BAN00024:  24    1.332559    1.459480  0.96802010
:BAN00025:  25    1.395051    1.488296  0.60857588
:BAN00026:  26    1.395051    1.488296  0.60857585
:BAN00027:  27    1.416652    1.505751  0.36211448
:BAN00028:  28    1.416652    1.505751  0.36211446
:BAN00029:  29    1.432483    1.508820  0.06128957
:BAN00030:  30    1.432483    1.508820  0.06128955
:BAN00031:  31    1.453717    1.514691  0.00000000
:BAN00032:  32    1.453717    1.514691  0.00000000
:BAN00033:  33    1.492738    1.531983  0.00000000
:BAN00034:  34    1.492738    1.531983  0.00000000
:BAN00035:  35    1.503480    1.538001  0.00000000
        Energy to separate low and high energystates:    1.07149


:NOE  : NUMBER OF ELECTRONS          =   26.000

:FER  : F E R M I - ENERGY(TETRAH.M.)=   1.4516798967
:GMA  : POTENTIAL AND CHARGE CUT-OFF  12.00 Ry**.5

:POS001: ATOM   -1 X,Y,Z = 0.00000 0.89750 0.25000  MULT= 2  ZZ= 59.000  Pr1       

       LMMAX 16
       LM=   0 0  1 0  2 0  2 2  3 0  3 2  4 0  4 2  4 4  5 0  5 2  5 4  6 0  6 2  6 4  6 6

:CHA001: TOTAL VALENCE CHARGE INSIDE SPHERE   1 =  10.1197    (RMT=  2.3000 )
:PCS001: PARTIAL CHARGES SPHERE =  1 S,P,D,F,PX,PY,PZ,D-Z2,D-X2Y2,D-XY,D-XZ,D-YZ 
:QTL001: 1.9209 4.9499 1.0701 2.1699 1.6535 1.6450 1.6515 0.2111 0.1906 0.2201 0.2215 0.2269
        Q-s-low E-s-low   Q-p-low E-p-low   Q-d-low E-d-low   Q-f-low E-f-low
:EPL001:  1.8733 -1.1143    4.8416  0.1645    0.0618  0.1304    0.0216  0.1370
        Q-s-hi  E-s-hi    Q-p-hi  E-p-hi    Q-d-hi  E-d-hi    Q-f-hi  E-f-hi 
:EPH001:  0.0476  1.3385    0.1083  1.3505    1.0083  1.3206    2.1484  1.3980

                      VXX         VYY         VZZ       UP TO R
:VZZ001:            -4.81992     9.70940    -4.88948       2.300

:CHA  : TOTAL VALENCE CHARGE INSIDE UNIT CELL =      26.000000

:SUM  : SUM OF EIGENVALUES =          10.920704963


        1.ATOM      Pr1                  14 CORE STATES
       CORE-FORCE in mRy/a.u. = |F|      Fx             Fy             Fz
:FCO001:   1.ATOM   1335.822716591518      0.000000000000      0.000000000000   1335.822716591518

:1S 001: 1S               -3066.101818440 Ry
:2S 001: 2S                -491.852061125 Ry
:2PP001: 2P*               -464.950802852 Ry
:2P 001: 2P                -429.553406618 Ry
:3S 001: 3S                -104.951973850 Ry
:3PP001: 3P*                -93.489455590 Ry
:3P 001: 3P                 -86.481823413 Ry
:3DD001: 3D*                -66.407307484 Ry
:3D 001: 3D                 -64.895884376 Ry
:4S 001: 4S                 -19.619303150 Ry
:4PP001: 4P*                -15.325185059 Ry
:4P 001: 4P                 -13.796498060 Ry
:4DD001: 4D*                 -6.727165591 Ry
:4D 001: 4D                  -6.457364434 Ry
:CINT001 Core Integral Atom   1   45.998440

       DENSITY AT NUCLEUS
        JATOM        VALENCE       SEMI-CORE          CORE           TOTAL
:RTO001:   1      633.326687        0.000000   656826.492489   657459.819175
     
       CHARGES OF NEW CHARGE DENSITY
:NTO   : INTERSTITIAL CHARGE =     5.760636
:NPC   : PW Pseudocharge     =    18.119882
:NTO001: CHARGE SPHERE  1    =    56.118114

:NEC01: NUCLEAR AND ELECTRONIC CHARGE    118.00000   117.99686
     
       CHARGES OF OLD CHARGE DENSITY
:OTO   : INTERSTITIAL CHARGE =     5.757858
:OPC   : PW Pseudocharge     =    18.132348
:OTO001: CHARGE SPHERE  1    =    56.121071

:NEC02: NUCLEAR AND ELECTRONIC CHARGE    118.00000   118.00000
     
       CONVERGENCE TEST
:DTO001: DIFFERENCE IN SPHERE  1 =  0.0032762

:DIS  :  CHARGE DISTANCE       ( 0.0032762 for atom    1 spin 1)      0.0032762
 PW Mixed is          244
 
******************************************************
* MULTISECANT MIXING VER9 RELEASE 10.4.0              *
* Standard Mode with controls                        *
* Fixed density scale                                *
* Regularization       1.000E-04                     *
* Trust Upper Limit    5.000E+00                     *
* Max Number of Memory Steps    8                    *
******************************************************
 
:PWTMP   1.2481E+02  1.9467E+02  2.2674E+02
:PLANE:  PW TOTAL      5.6395 DISTAN   1.80E-03  3.20E-02 %
:CHARG:  CLM/ATOM   1381.9316 DISTAN   7.00E-03  5.07E-04 %
 
Step History
        DMIX         DMIXT        Red     Pred      Trust     Lambda    MagRel    MagAbs     Beta
  1   3.5000E-02   3.5000E-02 -1.00E+00  1.00E+00 -1.00E+01  1.00E+00  3.50E-02  3.50E-02  1.00E+00
  2   1.5000E-01   1.5000E-01  2.95E-01  1.00E+00 -1.00E+01  1.00E+00  1.50E-01  4.34E-03  1.00E+00
  3   7.1250E-02   7.1250E-02 -1.00E+00  9.28E-01  3.00E+00  1.00E+00  1.13E-01  9.69E-04  1.00E+00
:JACOBIANS    4.610E-02   4.717E-01
  
:NORMS:  1/Froebius, Min, Max, Used   0.2956E+00  0.2908E+00  0.7738E+00  0.3156E+00
:INFO :  Number of Memory Steps    2 Skipping    0
:INFO :  SLambda=    1.1838909578  Max    1.1838909578
:PREDicted Charge, CTotal, PW Trust    2.482E-03   4.964E-03   1.901E-04
:PREDicted DMix, Beta, BLim   7.5186E-01  4.8283E+00  7.8093E-01

Eigenvalues, unscaled except for SY+YY
   #     SY Real        SY Imag          SS             YY         SY+YY Real      SY+YY Imag
   1   1.853588E-02   0.000000E+00   1.663345E-01   1.967626E+00   5.869275E-02   0.000000E+00
   2   4.508914E-01   0.000000E+00   8.404390E-03   3.237428E-02   2.497058E+00   0.000000E+00
 
:INFO :  Singular value  2.497E+00 Weight  1.000E+00 Projection -1.853E-03
:INFO :  Singular value  5.869E-02 Weight  1.000E+00 Projection  3.873E-02
:RANK :  ACTIVE   2.00/2  = 100.00 % ; YY RANK   2.00/2  = 100.00 %
 
:BLIM :  VZERO Control Off
:TRUST:  Step 3.54E+00  Charge 7.50E-02 (e) CTO  2.50E-01 (e) PW  3.50E-01 (e)
:DIRM :  MEMORY  2/8  SCALE   1.000 RED  0.85 PRED  0.93 NEXT  0.31 
:TRAVE:  Charge 1.18E-03 (e) CTO  2.36E-03 (e) PW  4.98E-04 (e)
:DIRP :  |MSR1|= 1.639E-03 |PRATT|= 1.802E-03 ANGLE=  17.6 DEGREES
:DIRQ :  |MSR1|= 5.615E-03 |PRATT|= 7.002E-03 ANGLE=   6.1 DEGREES
:DIRT :  |MSR1|= 5.849E-03 |PRATT|= 7.230E-03 ANGLE=   7.7 DEGREES
:MIX  :   MSE1   REGULARIZATION:  1.97E-04 GREED: 0.17813  Newton 1.00  0.8090                
     
       CHARGES OF MIXED CHARGE DENSITY
:CTO   : INTERSTITIAL CHARGE =     5.762252
:CPC   : PW Pseudocharge     =    18.128828
:CTO001: CHARGE SPHERE  1    =    56.118874

:NEC03: NUCLEAR AND ELECTRONIC CHARGE    118.00000   118.00000

PW CHANGE     H    K    L      Current       Change    Residue
:PTO001:      0    0    0  1.05365876E-01  3.854E-06  1.461E-05
:PTO003:      0    2    0  2.15930590E-02 -9.774E-06 -1.240E-05
:PTO004:     -1    1    0  9.58328850E-02 -2.943E-05 -3.056E-05
:PTO005:      0    2   -1 -1.08088834E-01  2.511E-05  2.476E-05
:PTO006:      0    0   -2 -5.58264678E-02  1.436E-05  1.465E-05
:PTO007:     -1    1   -1 -1.06840865E-01  3.296E-05  3.383E-05
:PTO008:      0    2   -2 -1.24658688E-02  1.511E-07  3.598E-07
:PTO009:     -1    1   -2 -6.10593298E-02  2.726E-06  4.939E-06
:PTO011:     -1    3    0 -7.97314943E-03 -2.414E-06 -2.055E-06
:PTO012:     -1    3   -1 -2.96764758E-02 -3.374E-05 -3.322E-05
:PTO013:      0    4    0 -4.42961140E-03 -5.218E-06 -4.248E-06
:PTO014:      0    2   -3  1.05395709E-02  1.504E-05  1.325E-05

:ENE  : ********** TOTAL ENERGY IN Ry =       -36944.35047153

       TOTAL FORCE IN mRy/a.u. = |F|     Fx             Fy             Fz     with/without FOR in case.in2
:FOR001:   1.ATOM          3.780          0.000          0.000          3.780 partial forces
       TOTAL FORCE WITH RESPECT TO GLOBAL CARTESIAN COORDINATES:
:FCA001:   1.ATOM                         0.000          3.780          0.000 partial forces
       TOTAL FORCE WITH RESPECT TO THE GLOBAL COORDINATE SYSTEM:
:FGL001:   1.ATOM                 0.000000000     3.780399013     0.000000000 partial forces
 Flat Integration
 New Mode for Coulomb Integral
 Consistent 3/8+Simpson combinations
 Extension of core to zero
 LDM version in phi
 Fifth-order quadrature in outwin


            ---------
:ITE017: 17. ITERATION
            ---------

:NATO :    1 INDEPENDENT AND    2 TOTAL ATOMS IN UNITCELL
       SUBSTANCE: aU                                                          

       LATTICE                      = CXY 
:POT  : POTENTIAL OPTION EX_LDA EC_LDA VX_LDA VC_LDA
:LAT  : LATTICE CONSTANTS=  5.03393 10.21511  8.81892    1.571    1.571    1.571
:VOL  : UNIT CELL VOLUME =     226.74400
       MODE OF CALCULATION IS       = RELA
       NON-SPINPOLARIZED CALCULATION
:IFFT  : FFT-parameters:   40   80   72 Factor: 2.00


   CONVERGENCE PARAMETER FOR PSEUDOCHARGE: NCON=  9
   MAXIMAL VALUE OF RMT(JATOM)*ABSK(NKK) : RK  =27.57811


:VKCOUL :  VK-COUL convergence: 0.256E-06
       ATOMNUMBER=  1 Pr1        VCOUL-ZERO =  0.89455E+00
:EFG001:                        EFG         =     9.77133   *10**21  V / m**2
                               V20  TOT/SRF=    -4.34301    -0.09244
                               V22  TOT/SRF=    -7.26389    -0.01317
                               V22M TOT/SRF=     0.00000     0.00000
                               V21  TOT/SRF=     0.00000     0.00000
                               V21M TOT/SRF=     0.00000     0.00000

             -4.75645    0.00000    0.00000       -4.75645    0.00000    0.00000
              0.00000    9.77133    0.00000        0.00000    9.77133    0.00000
              0.00000    0.00000   -5.01488        0.00000    0.00000   -5.01488

         MAIN DIRECTIONS OF THE EFG   1.0000  0.0000  0.0000
                                      0.0000  1.0000  0.0000
                                      0.0000  0.0000  1.0000
:ANG001:  ANGLE WITH OLD X-AXIS =         0.0

:ETA001:                         ASYMM. ETA =     0.02645


     HELLMANN-FEYNMAN-FORCE IN mRy/a.u. = |F|  Fx       Fy             Fz
:FHF001:   1.ATOM   1332.214907137970      0.000000000000      0.000000000000  -1332.214907137970

:FIT001: LUSE= 13 SIGMA OF V-XC FIT FOR ATOM  1  0.2678811E-03
:FIT001: LUSE= 13 SIGMA OF V-XC FIT FOR ATOM  1  0.2678811E-03
:DEN  : DENSITY INTEGRAL  =        -14250.12483730   (Ry)
       ELS_POTENTIAL_AT Z=0 and Z=0.5:   1.15028   1.15028
       ELS_POTENTIAL_AT Y=0 and Y=0.5:  -0.05950  -0.05950
:VZERO:v0,v0c,v0x   0.32372   1.15028  -0.82657 v5,v5c,v5x   0.32372   1.15028  -0.82657
:VZERY:v0,v0c,v0x  -1.11060  -0.05950  -1.05109 v5,v5c,v5x  -1.11060  -0.05950  -1.05109
:VZERX:v0,v0c,v0x  -1.37206  -0.39310  -0.97896 v5,v5c,v5x  -1.37206  -0.39310  -0.97896
:LMAX-WF:   10   Non-Spherical LMAX:   4

          ATOMIC SPHERE DEPENDENT PARAMETERS FOR ATOM  Pr1       
:e__0001: OVERALL ENERGY PARAMETER IS    1.2516
          OVERALL BASIS SET ON ATOM IS LAPW
:E0_0001: E( 0)=    1.2516
             APW+lo
:E0_0001: E( 0)=   -1.1642   E(BOTTOM)=   -1.813   E(TOP)=   -0.515  4  5   270
             LOCAL ORBITAL
:E1_0001: E( 1)=    1.6516
             APW+lo
:E1_0001: E( 1)=    0.2991   E(BOTTOM)=   -0.676   E(TOP)=    1.275  3  4   273
             LOCAL ORBITAL
:E3_0001: E( 3)=    1.4888   E(BOTTOM)=    1.276   E(TOP)=    1.702  0  1   122
             APW+lo
:E2_0001: E( 2)=    1.2516   E(BOTTOM)=    1.051   E(TOP)= -200.000  2 -1   121
             APW+lo

       K=   0.06250   0.00000   0.06250            1
:RKM  : MATRIX SIZE   231LOs:  40  RKM= 8.49  WEIGHT= 4.00  PGR:    
       EIGENVALUES ARE:
:EIG00001:      -1.2841229   -1.1343408   -0.1459541    0.2511507    0.3490243
:EIG00006:       0.3856642    0.4211226    0.4287949    1.2706391    1.3960534
:EIG00011:       1.4063661    1.4100874    1.4159379    1.4311887    1.4659070
:EIG00016:       1.4938404    1.5096700    1.5157753    1.5281912    1.5292913
:EIG00021:       1.5460704    1.5515628    1.5524585    1.5889970    1.6058559
:EIG00026:       1.6613161    1.7237494    1.7393207    1.8252368    1.8791361
:EIG00031:       1.9786887    2.1760491    2.3044960    2.3117761    2.5954688
:EIG00036:       2.6393457    2.6849568    2.9838700    3.0367353    3.2374084
:EIG00041:       3.4323898    3.4665263    3.6344916    3.7249412    3.8680833
:EIG00046:       3.8740811    3.9186386    4.1007512    4.1239519    4.2615326
 
:EIG00051:       4.4052792    4.5800608    4.6995259    4.8134084    4.8884689
:EIG00056:       5.0024683    5.0788317    5.2882970    5.3045160    5.3132295
:EIG00061:       5.4002713    5.4739271    5.6510428    5.7409536    5.7524098
:EIG00066:       5.8095739    5.8296820    5.9001934    6.0025090    6.1365446
:EIG00071:       6.1540637    6.3235823    6.3380346    6.3619682    6.3747200
:EIG00076:       6.3975001    6.4618718    6.4825048    6.5171105    6.6102859
:EIG00081:       6.6243414    6.7225969    6.7432101    6.8335036    6.9485238
:EIG00086:       6.9798637    7.0643664    7.1230563    7.2064745    7.2740198
:EIG00091:       7.3887222    7.4228614    7.4847835    7.4886980    7.5018531
:EIG00096:       7.6751177    7.7091014    7.8472327    7.8834465    7.9277297
 
:EIG00101:       7.9762945    8.0183033    8.0414428    8.1506792    8.1785248
:EIG00106:       8.2654918    8.4198264    8.5244020    8.5962139    8.6716353
:EIG00111:       8.7425865    8.8102060    8.8474821
       ********************************************************

:KPT   :      NUMBER OF K-POINTS:   288
   0.0   0.0 angle (M,z), angle (M,x) deg
 
        SPIN-ORBIT EIGENVALUES:
     K=   0.06250   0.00000   0.06250            1
      MATRIX SIZE=  226   WEIGHT= 4.00
     EIGENVALUES ARE:
          -1.2841286   -1.2841286   -1.1343477   -1.1343477   -0.1664261
          -0.1664261    0.2150838    0.2150838    0.2366803    0.2366803
           0.4413815    0.4413815    0.4564256    0.4564256    0.4861981
           0.4861981    1.2705923    1.2705923    1.3952442    1.3952442
           1.4051991    1.4051991    1.4093388    1.4093388    1.4155518
           1.4155518    1.4303934    1.4303934    1.4645612    1.4645612
           1.4905530    1.4905530    1.5048331    1.5048331    1.5152160
           1.5152160    1.5296586    1.5296586    1.5333915    1.5333915

           1.5466360    1.5466360    1.5512593    1.5512593    1.5560213
           1.5560213    1.5905701    1.5905701    1.6070989    1.6070989
           1.6614435    1.6614435    1.7215857    1.7215857    1.7417314
           1.7417314    1.8258000    1.8258000    1.8792379    1.8792379
           1.9789776    1.9789776    2.1762770    2.1762770    2.3030703
           2.3030703    2.3135718    2.3135718    2.5961402    2.5961402
           2.6394941    2.6394941    2.6850021    2.6850021    2.9836896
           2.9836896    3.0364274    3.0364274    3.2367973    3.2367973

           3.4326855    3.4326855    3.4665407    3.4665407    3.6348247
           3.6348247    3.7245055    3.7245055    3.8678246    3.8678246
           3.8739147    3.8739147    3.9189696    3.9189696    4.0993057
           4.0993057    4.1257173    4.1257173    4.2619875    4.2619875
           4.4051207    4.4051207
       ********************************************************
:GAP (global)   :    0.0    Ry =     0.0   eV (metal)
:GAP (this spin):    0.0    Ry =     0.0   eV (metal)
         Bandranges (emin - emax) and occupancy:
:BAN00020:  20    1.193535    1.400504  1.00000000
:BAN00021:  21    1.271010    1.449769  1.00000000
:BAN00022:  22    1.271010    1.449769  1.00000000
:BAN00023:  23    1.332536    1.459474  0.96800540
:BAN00024:  24    1.332536    1.459474  0.96800539
:BAN00025:  25    1.395061    1.488309  0.60860730
:BAN00026:  26    1.395061    1.488309  0.60860728
:BAN00027:  27    1.416612    1.505751  0.36207384
:BAN00028:  28    1.416612    1.505751  0.36207381
:BAN00029:  29    1.432508    1.508847  0.06131350
:BAN00030:  30    1.432508    1.508847  0.06131348
:BAN00031:  31    1.453755    1.514678  0.00000000
:BAN00032:  32    1.453755    1.514678  0.00000000
:BAN00033:  33    1.492730    1.531996  0.00000000
:BAN00034:  34    1.492730    1.531996  0.00000000
:BAN00035:  35    1.503489    1.537988  0.00000000
        Energy to separate low and high energystates:    1.07155


:NOE  : NUMBER OF ELECTRONS          =   26.000

:FER  : F E R M I - ENERGY(TETRAH.M.)=   1.4516818739
:GMA  : POTENTIAL AND CHARGE CUT-OFF  12.00 Ry**.5

:POS001: ATOM   -1 X,Y,Z = 0.00000 0.89750 0.25000  MULT= 2  ZZ= 59.000  Pr1       

       LMMAX 16
       LM=   0 0  1 0  2 0  2 2  3 0  3 2  4 0  4 2  4 4  5 0  5 2  5 4  6 0  6 2  6 4  6 6

:CHA001: TOTAL VALENCE CHARGE INSIDE SPHERE   1 =  10.1201    (RMT=  2.3000 )
:PCS001: PARTIAL CHARGES SPHERE =  1 S,P,D,F,PX,PY,PZ,D-Z2,D-X2Y2,D-XY,D-XZ,D-YZ 
:QTL001: 1.9209 4.9501 1.0702 2.1702 1.6535 1.6450 1.6515 0.2111 0.1907 0.2201 0.2215 0.2269
        Q-s-low E-s-low   Q-p-low E-p-low   Q-d-low E-d-low   Q-f-low E-f-low
:EPL001:  1.8733 -1.1144    4.8418  0.1644    0.0618  0.1303    0.0216  0.1369
        Q-s-hi  E-s-hi    Q-p-hi  E-p-hi    Q-d-hi  E-d-hi    Q-f-hi  E-f-hi 
:EPH001:  0.0475  1.3385    0.1083  1.3505    1.0084  1.3206    2.1487  1.3980

                      VXX         VYY         VZZ       UP TO R
:VZZ001:            -4.78089     9.65728    -4.87639       2.300

:CHA  : TOTAL VALENCE CHARGE INSIDE UNIT CELL =      26.000000

:SUM  : SUM OF EIGENVALUES =          10.919365790


        1.ATOM      Pr1                  14 CORE STATES
       CORE-FORCE in mRy/a.u. = |F|      Fx             Fy             Fz
:FCO001:   1.ATOM   1335.065017221561      0.000000000000      0.000000000000   1335.065017221561

:1S 001: 1S               -3066.102513606 Ry
:2S 001: 2S                -491.852554278 Ry
:2PP001: 2P*               -464.951342105 Ry
:2P 001: 2P                -429.553928680 Ry
:3S 001: 3S                -104.952074571 Ry
:3PP001: 3P*                -93.489576815 Ry
:3P 001: 3P                 -86.481925715 Ry
:3DD001: 3D*                -66.407464148 Ry
:3D 001: 3D                 -64.896033943 Ry
:4S 001: 4S                 -19.619227992 Ry
:4PP001: 4P*                -15.325117750 Ry
:4P 001: 4P                 -13.796436056 Ry
:4DD001: 4D*                 -6.727125377 Ry
:4D 001: 4D                  -6.457326740 Ry
:CINT001 Core Integral Atom   1   45.998440

       DENSITY AT NUCLEUS
        JATOM        VALENCE       SEMI-CORE          CORE           TOTAL
:RTO001:   1      633.325573        0.000000   656826.560329   657459.885902
     
       CHARGES OF NEW CHARGE DENSITY
:NTO   : INTERSTITIAL CHARGE =     5.759766
:NPC   : PW Pseudocharge     =    18.120166
:NTO001: CHARGE SPHERE  1    =    56.118549

:NEC01: NUCLEAR AND ELECTRONIC CHARGE    118.00000   117.99686
     
       CHARGES OF OLD CHARGE DENSITY
:OTO   : INTERSTITIAL CHARGE =     5.762252
:OPC   : PW Pseudocharge     =    18.128828
:OTO001: CHARGE SPHERE  1    =    56.118874

:NEC02: NUCLEAR AND ELECTRONIC CHARGE    118.00000   118.00000
     
       CONVERGENCE TEST
:DTO001: DIFFERENCE IN SPHERE  1 =  0.0005225

:DIS  :  CHARGE DISTANCE       ( 0.0005225 for atom    1 spin 1)      0.0005225
 PW Mixed is          244
 
******************************************************
* MULTISECANT MIXING VER9 RELEASE 10.4.0              *
* Standard Mode with controls                        *
* Fixed density scale                                *
* Regularization       1.000E-04                     *
* Trust Upper Limit    5.000E+00                     *
* Max Number of Memory Steps    8                    *
******************************************************
 
:PWTMP   1.2481E+02  1.9467E+02  2.2674E+02
:PLANE:  PW TOTAL      5.6391 DISTAN   5.79E-04  1.03E-02 %
:CHARG:  CLM/ATOM   1381.9306 DISTAN   1.34E-03  9.70E-05 %
 
Step History
        DMIX         DMIXT        Red     Pred      Trust     Lambda    MagRel    MagAbs     Beta
  1   3.5000E-02   3.5000E-02 -1.00E+00  1.00E+00 -1.00E+01  1.00E+00  3.50E-02  3.50E-02  1.00E+00
  2   1.5000E-01   1.5000E-01  2.95E-01  1.00E+00 -1.00E+01  1.00E+00  1.50E-01  4.34E-03  1.00E+00
  3   7.1250E-02   7.1250E-02  8.46E-01  9.28E-01  3.00E+00  1.18E+00  1.13E-01  9.69E-04  1.00E+00
  4   1.7813E-01   1.7813E-01 -1.00E+00  3.11E-01  3.54E+00  1.00E+00  8.09E-01  5.85E-03  1.00E+00
:JACOBIANS    6.549E-02   7.050E-01
  
:NORMS:  1/Froebius, Min, Max, Used   0.7071E+00  0.4944E+00  0.9127E+00  0.7941E+00
:INFO :  Number of Memory Steps    3 Skipping    0
:INFO :  SLambda=    0.5437550631  Max    0.5437550631
:PREDicted Charge, CTotal, PW Trust    2.335E-03   4.670E-03   6.073E-04
:PREDicted DMix, Beta, BLim   5.2565E-02  1.0341E+00  1.7516E+00

Eigenvalues, unscaled except for SY+YY
   #     SY Real        SY Imag          SS             YY         SY+YY Real      SY+YY Imag
   1   1.754915E+00   0.000000E+00   1.473827E+00   2.337404E+00   3.272918E+00   0.000000E+00
   2   1.242104E-01   0.000000E+00   2.611772E-02   6.625384E-01   7.488064E-01   0.000000E+00
   3   2.539478E-05   0.000000E+00   1.116424E-05   5.808811E-05   7.305145E-05   0.000000E+00
 
:INFO :  Singular value  3.273E+00 Weight  1.000E+00 Projection -1.227E-04
:INFO :  Singular value  7.487E-01 Weight  1.000E+00 Projection -4.780E-04
:INFO :  Singular value  7.305E-05 Weight  8.898E-02 Projection -1.537E-02
:RANK :  ACTIVE   2.09/3  =  69.63 % ; YY RANK   2.06/3  =  68.61 %
 
:BLIM :  VZERO Control Off
:TRUST:  Step 4.73E+00  Charge 7.50E-02 (e) CTO  2.50E-01 (e) PW  3.50E-01 (e)
:DIRM :  MEMORY  3/8  SCALE   1.000 RED  0.20 PRED  0.31 NEXT  0.90 
:TRAVE:  Charge 6.60E-04 (e) CTO  1.32E-03 (e) PW  3.44E-04 (e)
:DIRP :  |MSR1|= 1.012E-04 |PRATT|= 5.792E-04 ANGLE=  36.0 DEGREES
:DIRQ :  |MSR1|= 3.433E-04 |PRATT|= 1.340E-03 ANGLE=  39.0 DEGREES
:DIRT :  |MSR1|= 3.579E-04 |PRATT|= 1.460E-03 ANGLE=  39.2 DEGREES
:MIX  :   MSD1   REGULARIZATION:  2.34E-04 GREED: 0.09128  Newton 1.00  0.2451                
     
       CHARGES OF MIXED CHARGE DENSITY
:CTO   : INTERSTITIAL CHARGE =     5.762530
:CPC   : PW Pseudocharge     =    18.128896
:CTO001: CHARGE SPHERE  1    =    56.118735

:NEC03: NUCLEAR AND ELECTRONIC CHARGE    118.00000   118.00000

PW CHANGE     H    K    L      Current       Change    Residue
:PTO001:      0    0    0  1.05367403E-01  1.527E-06  8.182E-06
:PTO003:      0    2    0  2.15936085E-02  5.495E-07  7.072E-06
:PTO004:     -1    1    0  9.58326870E-02 -1.980E-07  6.408E-06
:PTO005:      0    2   -1 -1.08089058E-01 -2.241E-07 -7.877E-06
:PTO006:      0    0   -2 -5.58266129E-02 -1.450E-07 -4.759E-06
:PTO007:     -1    1   -1 -1.06839350E-01  1.515E-06  2.677E-06
:PTO008:      0    2   -2 -1.24660242E-02 -1.555E-07 -1.116E-06
:PTO009:     -1    1   -2 -6.10585263E-02  8.035E-07  4.915E-06
:PTO011:     -1    3    0 -7.97291941E-03  2.300E-07  2.248E-06
:PTO012:     -1    3   -1 -2.96775103E-02 -1.034E-06  7.524E-07
:PTO013:      0    4    0 -4.42968910E-03 -7.771E-08  5.117E-07
:PTO014:      0    2   -3  1.05402268E-02  6.560E-07  1.567E-06

:ENE  : ********** TOTAL ENERGY IN Ry =       -36944.35046798

       TOTAL FORCE IN mRy/a.u. = |F|     Fx             Fy             Fz     with/without FOR in case.in2
:FOR001:   1.ATOM          2.850          0.000          0.000          2.850 partial forces
       TOTAL FORCE WITH RESPECT TO GLOBAL CARTESIAN COORDINATES:
:FCA001:   1.ATOM                         0.000          2.850          0.000 partial forces
       TOTAL FORCE WITH RESPECT TO THE GLOBAL COORDINATE SYSTEM:
:FGL001:   1.ATOM                 0.000000000     2.850110084     0.000000000 partial forces
 Flat Integration
 New Mode for Coulomb Integral
 Consistent 3/8+Simpson combinations
 Extension of core to zero
 LDM version in phi
 Fifth-order quadrature in outwin


            ---------
:ITE018: 18. ITERATION
            ---------

:NATO :    1 INDEPENDENT AND    2 TOTAL ATOMS IN UNITCELL
       SUBSTANCE: aU                                                          

       LATTICE                      = CXY 
:POT  : POTENTIAL OPTION EX_LDA EC_LDA VX_LDA VC_LDA
:LAT  : LATTICE CONSTANTS=  5.03393 10.21511  8.81892    1.571    1.571    1.571
:VOL  : UNIT CELL VOLUME =     226.74400
       MODE OF CALCULATION IS       = RELA
       NON-SPINPOLARIZED CALCULATION
:IFFT  : FFT-parameters:   40   80   72 Factor: 2.00


   CONVERGENCE PARAMETER FOR PSEUDOCHARGE: NCON=  9
   MAXIMAL VALUE OF RMT(JATOM)*ABSK(NKK) : RK  =27.57811


:VKCOUL :  VK-COUL convergence: 0.256E-06
       ATOMNUMBER=  1 Pr1        VCOUL-ZERO =  0.89457E+00
:EFG001:                        EFG         =     9.76242   *10**21  V / m**2
                               V20  TOT/SRF=    -4.34219    -0.09242
                               V22  TOT/SRF=    -7.25546    -0.01315
                               V22M TOT/SRF=     0.00000     0.00000
                               V21  TOT/SRF=     0.00000     0.00000
                               V21M TOT/SRF=     0.00000     0.00000

             -4.74850    0.00000    0.00000       -4.74850    0.00000    0.00000
              0.00000    9.76242    0.00000        0.00000    9.76242    0.00000
              0.00000    0.00000   -5.01392        0.00000    0.00000   -5.01392

         MAIN DIRECTIONS OF THE EFG   1.0000  0.0000  0.0000
                                      0.0000  1.0000  0.0000
                                      0.0000  0.0000  1.0000
:ANG001:  ANGLE WITH OLD X-AXIS =         0.0

:ETA001:                         ASYMM. ETA =     0.02719


     HELLMANN-FEYNMAN-FORCE IN mRy/a.u. = |F|  Fx       Fy             Fz
:FHF001:   1.ATOM   1331.508022123556      0.000000000000      0.000000000000  -1331.508022123556

:FIT001: LUSE= 13 SIGMA OF V-XC FIT FOR ATOM  1  0.2680559E-03
:FIT001: LUSE= 13 SIGMA OF V-XC FIT FOR ATOM  1  0.2680559E-03
:DEN  : DENSITY INTEGRAL  =        -14250.12264300   (Ry)
       ELS_POTENTIAL_AT Z=0 and Z=0.5:   1.15031   1.15031
       ELS_POTENTIAL_AT Y=0 and Y=0.5:  -0.05950  -0.05950
:VZERO:v0,v0c,v0x   0.32373   1.15031  -0.82658 v5,v5c,v5x   0.32373   1.15031  -0.82658
:VZERY:v0,v0c,v0x  -1.11060  -0.05950  -1.05110 v5,v5c,v5x  -1.11060  -0.05950  -1.05110
:VZERX:v0,v0c,v0x  -1.37208  -0.39311  -0.97897 v5,v5c,v5x  -1.37208  -0.39311  -0.97897
:LMAX-WF:   10   Non-Spherical LMAX:   4

          ATOMIC SPHERE DEPENDENT PARAMETERS FOR ATOM  Pr1       
:e__0001: OVERALL ENERGY PARAMETER IS    1.2516
          OVERALL BASIS SET ON ATOM IS LAPW
:E0_0001: E( 0)=    1.2516
             APW+lo
:E0_0001: E( 0)=   -1.1642   E(BOTTOM)=   -1.813   E(TOP)=   -0.515  4  5   267
             LOCAL ORBITAL
:E1_0001: E( 1)=    1.6516
             APW+lo
:E1_0001: E( 1)=    0.2991   E(BOTTOM)=   -0.676   E(TOP)=    1.275  3  4   274
             LOCAL ORBITAL
:E3_0001: E( 3)=    1.4888   E(BOTTOM)=    1.276   E(TOP)=    1.702  0  1   120
             APW+lo
:E2_0001: E( 2)=    1.2516   E(BOTTOM)=    1.051   E(TOP)= -200.000  2 -1   121
             APW+lo

       K=   0.06250   0.00000   0.06250            1
:RKM  : MATRIX SIZE   231LOs:  40  RKM= 8.49  WEIGHT= 4.00  PGR:    
       EIGENVALUES ARE:
:EIG00001:      -1.2841209   -1.1343402   -0.1459497    0.2511496    0.3490231
:EIG00006:       0.3856711    0.4211220    0.4288011    1.2706482    1.3960614
:EIG00011:       1.4063705    1.4100883    1.4159431    1.4311928    1.4659082
:EIG00016:       1.4938421    1.5096698    1.5157753    1.5281862    1.5292908
:EIG00021:       1.5460738    1.5515637    1.5524573    1.5889922    1.6058594
:EIG00026:       1.6613232    1.7237557    1.7393243    1.8252453    1.8791441
:EIG00031:       1.9786974    2.1760563    2.3045069    2.3117804    2.5954822
:EIG00036:       2.6393609    2.6849677    2.9838831    3.0367473    3.2374161
:EIG00041:       3.4324011    3.4665370    3.6345027    3.7249549    3.8680944
:EIG00046:       3.8740975    3.9186477    4.1007667    4.1239628    4.2615454
 
:EIG00051:       4.4052874    4.5800694    4.6995356    4.8134165    4.8884727
:EIG00056:       5.0024774    5.0788412    5.2883083    5.3045259    5.3132406
:EIG00061:       5.4002773    5.4739318    5.6510520    5.7409648    5.7524204
:EIG00066:       5.8095847    5.8296872    5.9001968    6.0025180    6.1365563
:EIG00071:       6.1540768    6.3235918    6.3380474    6.3619792    6.3747307
:EIG00076:       6.3975139    6.4618815    6.4825165    6.5171213    6.6103002
:EIG00081:       6.6243526    6.7226088    6.7432207    6.8335132    6.9485377
:EIG00086:       6.9798747    7.0643781    7.1230702    7.2064837    7.2740287
:EIG00091:       7.3887322    7.4228755    7.4847953    7.4887033    7.5018580
:EIG00096:       7.6751328    7.7091077    7.8472436    7.8834574    7.9277395
 
:EIG00101:       7.9763065    8.0183165    8.0414545    8.1506869    8.1785404
:EIG00106:       8.2655010    8.4198340    8.5244117    8.5962228    8.6716474
:EIG00111:       8.7425974    8.8102203    8.8474930
       ********************************************************

:KPT   :      NUMBER OF K-POINTS:   288
   0.0   0.0 angle (M,z), angle (M,x) deg
 
        SPIN-ORBIT EIGENVALUES:
     K=   0.06250   0.00000   0.06250            1
      MATRIX SIZE=  226   WEIGHT= 4.00
     EIGENVALUES ARE:
          -1.2841266   -1.2841266   -1.1343470   -1.1343470   -0.1664221
          -0.1664221    0.2150846    0.2150846    0.2366804    0.2366804
           0.4413841    0.4413841    0.4564312    0.4564312    0.4861997
           0.4861998    1.2706013    1.2706013    1.3952521    1.3952521
           1.4052035    1.4052035    1.4093387    1.4093387    1.4155578
           1.4155578    1.4303975    1.4303975    1.4645624    1.4645624
           1.4905545    1.4905545    1.5048318    1.5048318    1.5152166
           1.5152166    1.5296555    1.5296555    1.5333902    1.5333902

           1.5466391    1.5466391    1.5512595    1.5512596    1.5560208
           1.5560209    1.5905654    1.5905654    1.6071024    1.6071024
           1.6614504    1.6614504    1.7215914    1.7215914    1.7417355
           1.7417355    1.8258085    1.8258086    1.8792459    1.8792459
           1.9789863    1.9789863    2.1762843    2.1762843    2.3030800
           2.3030800    2.3135772    2.3135772    2.5961536    2.5961536
           2.6395093    2.6395093    2.6850131    2.6850131    2.9837027
           2.9837027    3.0364394    3.0364394    3.2368050    3.2368050

           3.4326968    3.4326968    3.4665513    3.4665513    3.6348359
           3.6348359    3.7245192    3.7245192    3.8678361    3.8678361
           3.8739307    3.8739307    3.9189787    3.9189787    4.0993210
           4.0993210    4.1257284    4.1257284    4.2620003    4.2620003
           4.4051290    4.4051290
       ********************************************************
:GAP (global)   :    0.0    Ry =     0.0   eV (metal)
:GAP (this spin):    0.0    Ry =     0.0   eV (metal)
         Bandranges (emin - emax) and occupancy:
:BAN00020:  20    1.193548    1.400508  1.00000000
:BAN00021:  21    1.271023    1.449768  1.00000000
:BAN00022:  22    1.271023    1.449768  1.00000000
:BAN00023:  23    1.332546    1.459475  0.96802075
:BAN00024:  24    1.332546    1.459475  0.96802074
:BAN00025:  25    1.395066    1.488308  0.60860719
:BAN00026:  26    1.395066    1.488308  0.60860717
:BAN00027:  27    1.416617    1.505751  0.36206380
:BAN00028:  28    1.416617    1.505751  0.36206378
:BAN00029:  29    1.432509    1.508844  0.06130830
:BAN00030:  30    1.432509    1.508844  0.06130828
:BAN00031:  31    1.453753    1.514678  0.00000000
:BAN00032:  32    1.453753    1.514678  0.00000000
:BAN00033:  33    1.492727    1.531992  0.00000000
:BAN00034:  34    1.492727    1.531992  0.00000000
:BAN00035:  35    1.503486    1.537988  0.00000000
        Energy to separate low and high energystates:    1.07156


:NOE  : NUMBER OF ELECTRONS          =   26.000

:FER  : F E R M I - ENERGY(TETRAH.M.)=   1.4516819910
:GMA  : POTENTIAL AND CHARGE CUT-OFF  12.00 Ry**.5

:POS001: ATOM   -1 X,Y,Z = 0.00000 0.89750 0.25000  MULT= 2  ZZ= 59.000  Pr1       

       LMMAX 16
       LM=   0 0  1 0  2 0  2 2  3 0  3 2  4 0  4 2  4 4  5 0  5 2  5 4  6 0  6 2  6 4  6 6

:CHA001: TOTAL VALENCE CHARGE INSIDE SPHERE   1 =  10.1202    (RMT=  2.3000 )
:PCS001: PARTIAL CHARGES SPHERE =  1 S,P,D,F,PX,PY,PZ,D-Z2,D-X2Y2,D-XY,D-XZ,D-YZ 
:QTL001: 1.9209 4.9501 1.0702 2.1703 1.6535 1.6450 1.6515 0.2110 0.1906 0.2201 0.2215 0.2269
        Q-s-low E-s-low   Q-p-low E-p-low   Q-d-low E-d-low   Q-f-low E-f-low
:EPL001:  1.8733 -1.1144    4.8418  0.1644    0.0618  0.1303    0.0216  0.1369
        Q-s-hi  E-s-hi    Q-p-hi  E-p-hi    Q-d-hi  E-d-hi    Q-f-hi  E-f-hi 
:EPH001:  0.0475  1.3385    0.1082  1.3505    1.0083  1.3206    2.1488  1.3980

                      VXX         VYY         VZZ       UP TO R
:VZZ001:            -4.78333     9.66252    -4.87918       2.300

:CHA  : TOTAL VALENCE CHARGE INSIDE UNIT CELL =      26.000000

:SUM  : SUM OF EIGENVALUES =          10.919476244


        1.ATOM      Pr1                  14 CORE STATES
       CORE-FORCE in mRy/a.u. = |F|      Fx             Fy             Fz
:FCO001:   1.ATOM   1334.456601007004      0.000000000000      0.000000000000   1334.456601007004

:1S 001: 1S               -3066.102570887 Ry
:2S 001: 2S                -491.852603753 Ry
:2PP001: 2P*               -464.951393540 Ry
:2P 001: 2P                -429.553979387 Ry
:3S 001: 3S                -104.952103011 Ry
:3PP001: 3P*                -93.489606427 Ry
:3P 001: 3P                 -86.481954091 Ry
:3DD001: 3D*                -66.407495913 Ry
:3D 001: 3D                 -64.896065282 Ry
:4S 001: 4S                 -19.619233930 Ry
:4PP001: 4P*                -15.325123474 Ry
:4P 001: 4P                 -13.796441005 Ry
:4DD001: 4D*                 -6.727130028 Ry
:4D 001: 4D                  -6.457331205 Ry
:CINT001 Core Integral Atom   1   45.998440

       DENSITY AT NUCLEUS
        JATOM        VALENCE       SEMI-CORE          CORE           TOTAL
:RTO001:   1      633.325802        0.000000   656826.565906   657459.891708
     
       CHARGES OF NEW CHARGE DENSITY
:NTO   : INTERSTITIAL CHARGE =     5.759648
:NPC   : PW Pseudocharge     =    18.120106
:NTO001: CHARGE SPHERE  1    =    56.118608

:NEC01: NUCLEAR AND ELECTRONIC CHARGE    118.00000   117.99686
     
       CHARGES OF OLD CHARGE DENSITY
:OTO   : INTERSTITIAL CHARGE =     5.762530
:OPC   : PW Pseudocharge     =    18.128896
:OTO001: CHARGE SPHERE  1    =    56.118735

:NEC02: NUCLEAR AND ELECTRONIC CHARGE    118.00000   118.00000
     
       CONVERGENCE TEST
:DTO001: DIFFERENCE IN SPHERE  1 =  0.0003718

:DIS  :  CHARGE DISTANCE       ( 0.0003718 for atom    1 spin 1)      0.0003718
 PW Mixed is          244
 
******************************************************
* MULTISECANT MIXING VER9 RELEASE 10.4.0              *
* Standard Mode with controls                        *
* Fixed density scale                                *
* Regularization       1.000E-04                     *
* Trust Upper Limit    5.000E+00                     *
* Max Number of Memory Steps    8                    *
******************************************************
 
:PWTMP   1.2481E+02  1.9467E+02  2.2674E+02
:PLANE:  PW TOTAL      5.6391 DISTAN   4.85E-04  8.59E-03 %
:CHARG:  CLM/ATOM   1381.9306 DISTAN   9.79E-04  7.08E-05 %
 
Step History
        DMIX         DMIXT        Red     Pred      Trust     Lambda    MagRel    MagAbs     Beta
  1   3.5000E-02   3.5000E-02 -1.00E+00  1.00E+00 -1.00E+01  1.00E+00  3.50E-02  3.50E-02  1.00E+00
  2   1.5000E-01   1.5000E-01  2.95E-01  1.00E+00 -1.00E+01  1.00E+00  1.50E-01  4.34E-03  1.00E+00
  3   7.1250E-02   7.1250E-02  8.46E-01  9.28E-01  3.00E+00  1.18E+00  1.13E-01  9.69E-04  1.00E+00
  4   1.7813E-01   1.7813E-01  2.02E-01  3.11E-01  3.54E+00  5.44E-01  8.09E-01  5.85E-03  1.00E+00
  5   9.1283E-02   9.1283E-02 -1.00E+00  9.03E-01  4.73E+00  1.00E+00  2.45E-01  3.58E-04  1.00E+00
:JACOBIANS    9.663E-02   1.035E+00
  
:NORMS:  1/Froebius, Min, Max, Used   0.7366E+00  0.4181E+00  0.9285E+00  0.9087E+00
:INFO :  Number of Memory Steps    4 Skipping    0
:INFO :  SLambda=    1.0000000000  Max    1.0000000000
:PREDicted Charge, CTotal, PW Trust    3.421E-04   6.841E-04   6.127E-04
:PREDicted DMix, Beta, BLim   4.5638E-01  2.3058E+00  2.3404E+00

Eigenvalues, unscaled except for SY+YY
   #     SY Real        SY Imag          SS             YY         SY+YY Real      SY+YY Imag
   1   2.158754E+00   0.000000E+00   2.010287E+00   2.434572E+00   4.566508E+00   0.000000E+00
   2   3.522415E-01   0.000000E+00   1.433097E-01   1.252794E+00   1.615069E+00   0.000000E+00
   3   7.689507E-02   0.000000E+00   1.676692E-02   3.126324E-01   4.063125E-01   0.000000E+00
   4   2.728506E-07   0.000000E+00   2.399628E-07   1.489337E-06   1.759651E-06   0.000000E+00
 
:INFO :  Singular value  4.571E+00 Weight  1.000E+00 Projection -1.802E-04
:INFO :  Singular value  1.614E+00 Weight  1.000E+00 Projection -6.082E-04
:INFO :  Singular value  4.062E-01 Weight  1.000E+00 Projection  1.373E-03
:INFO :  Singular value  1.760E-06 Weight  5.224E-05 Projection  9.812E-06
:RANK :  ACTIVE   3.00/4  =  75.00 % ; YY RANK   3.00/4  =  75.00 %
 
:BLIM :  VZERO Control Off
:TRUST:  Step 6.30E+00  Charge 6.00E-02 (e) CTO  2.00E-01 (e) PW  2.80E-01 (e)
:DIRM :  MEMORY  4/8  SCALE   1.000 RED  0.75 PRED  0.90 NEXT  0.52 
:TRAVE:  Charge 4.14E-04 (e) CTO  8.28E-04 (e) PW  3.99E-04 (e)
:DIRP :  |MSR1|= 2.605E-04 |PRATT|= 4.847E-04 ANGLE=  13.7 DEGREES
:DIRQ :  |MSR1|= 6.016E-04 |PRATT|= 9.788E-04 ANGLE=  26.3 DEGREES
:DIRT :  |MSR1|= 6.556E-04 |PRATT|= 1.092E-03 ANGLE=  24.7 DEGREES
:MIX  :   MSR1   REGULARIZATION:  2.43E-04 GREED: 0.22821  Newton 1.00  0.6002                
     
       CHARGES OF MIXED CHARGE DENSITY
:CTO   : INTERSTITIAL CHARGE =     5.762867
:CPC   : PW Pseudocharge     =    18.129383
:CTO001: CHARGE SPHERE  1    =    56.118567

:NEC03: NUCLEAR AND ELECTRONIC CHARGE    118.00000   118.00000

PW CHANGE     H    K    L      Current       Change    Residue
:PTO001:      0    0    0  1.05371037E-01  3.634E-06  5.868E-06
:PTO003:      0    2    0  2.15962421E-02  2.634E-06  6.169E-06
:PTO004:     -1    1    0  9.58355548E-02  2.868E-06  7.232E-06
:PTO005:      0    2   -1 -1.08092268E-01 -3.210E-06 -7.730E-06
:PTO006:      0    0   -2 -5.58285218E-02 -1.909E-06 -4.625E-06
:PTO007:     -1    1   -1 -1.06838345E-01  1.005E-06  2.382E-07
:PTO008:      0    2   -2 -1.24662438E-02 -2.195E-07 -6.040E-07
:PTO009:     -1    1   -2 -6.10563268E-02  2.200E-06  3.943E-06
:PTO011:     -1    3    0 -7.97196666E-03  9.528E-07  1.978E-06
:PTO012:     -1    3   -1 -2.96775878E-02 -7.750E-08  1.858E-06
:PTO013:      0    4    0 -4.42944712E-03  2.420E-07  6.582E-07
:PTO014:      0    2   -3  1.05409549E-02  7.281E-07  7.481E-07

:ENE  : ********** TOTAL ENERGY IN Ry =       -36944.35046808

       TOTAL FORCE IN mRy/a.u. = |F|     Fx             Fy             Fz     with/without FOR in case.in2
:FOR001:   1.ATOM          2.949          0.000          0.000          2.949 partial forces
       TOTAL FORCE WITH RESPECT TO GLOBAL CARTESIAN COORDINATES:
:FCA001:   1.ATOM                         0.000          2.949          0.000 partial forces
       TOTAL FORCE WITH RESPECT TO THE GLOBAL COORDINATE SYSTEM:
:FGL001:   1.ATOM                 0.000000000     2.948578883     0.000000000 partial forces
 Flat Integration
 New Mode for Coulomb Integral
 Consistent 3/8+Simpson combinations
 Extension of core to zero
 LDM version in phi
 Fifth-order quadrature in outwin


            ---------
:ITE019: 19. ITERATION
            ---------

:NATO :    1 INDEPENDENT AND    2 TOTAL ATOMS IN UNITCELL
       SUBSTANCE: aU                                                          

       LATTICE                      = CXY 
:POT  : POTENTIAL OPTION EX_LDA EC_LDA VX_LDA VC_LDA
:LAT  : LATTICE CONSTANTS=  5.03393 10.21511  8.81892    1.571    1.571    1.571
:VOL  : UNIT CELL VOLUME =     226.74400
       MODE OF CALCULATION IS       = RELA
       NON-SPINPOLARIZED CALCULATION
:IFFT  : FFT-parameters:   40   80   72 Factor: 2.00


   CONVERGENCE PARAMETER FOR PSEUDOCHARGE: NCON=  9
   MAXIMAL VALUE OF RMT(JATOM)*ABSK(NKK) : RK  =27.57811


:VKCOUL :  VK-COUL convergence: 0.255E-06
       ATOMNUMBER=  1 Pr1        VCOUL-ZERO =  0.89460E+00
:EFG001:                        EFG         =     9.74216   *10**21  V / m**2
                               V20  TOT/SRF=    -4.34142    -0.09237
                               V22  TOT/SRF=    -7.23564    -0.01310
                               V22M TOT/SRF=     0.00000     0.00000
                               V21  TOT/SRF=     0.00000     0.00000
                               V21M TOT/SRF=     0.00000     0.00000

             -4.72911    0.00000    0.00000       -4.72911    0.00000    0.00000
              0.00000    9.74216    0.00000        0.00000    9.74216    0.00000
              0.00000    0.00000   -5.01304        0.00000    0.00000   -5.01304

         MAIN DIRECTIONS OF THE EFG   1.0000  0.0000  0.0000
                                      0.0000  1.0000  0.0000
                                      0.0000  0.0000  1.0000
:ANG001:  ANGLE WITH OLD X-AXIS =         0.0

:ETA001:                         ASYMM. ETA =     0.02914


     HELLMANN-FEYNMAN-FORCE IN mRy/a.u. = |F|  Fx       Fy             Fz
:FHF001:   1.ATOM   1329.560547048675      0.000000000000      0.000000000000  -1329.560547048675

:FIT001: LUSE= 13 SIGMA OF V-XC FIT FOR ATOM  1  0.2684674E-03
:FIT001: LUSE= 13 SIGMA OF V-XC FIT FOR ATOM  1  0.2684674E-03
:DEN  : DENSITY INTEGRAL  =        -14250.12601063   (Ry)
       ELS_POTENTIAL_AT Z=0 and Z=0.5:   1.15035   1.15035
       ELS_POTENTIAL_AT Y=0 and Y=0.5:  -0.05947  -0.05947
:VZERO:v0,v0c,v0x   0.32376   1.15035  -0.82659 v5,v5c,v5x   0.32376   1.15035  -0.82659
:VZERY:v0,v0c,v0x  -1.11059  -0.05947  -1.05112 v5,v5c,v5x  -1.11059  -0.05947  -1.05112
:VZERX:v0,v0c,v0x  -1.37211  -0.39312  -0.97899 v5,v5c,v5x  -1.37211  -0.39312  -0.97899
:LMAX-WF:   10   Non-Spherical LMAX:   4

          ATOMIC SPHERE DEPENDENT PARAMETERS FOR ATOM  Pr1       
:e__0001: OVERALL ENERGY PARAMETER IS    1.2517
          OVERALL BASIS SET ON ATOM IS LAPW
:E0_0001: E( 0)=    1.2517
             APW+lo
:E0_0001: E( 0)=   -1.1642   E(BOTTOM)=   -1.813   E(TOP)=   -0.515  4  5   265
             LOCAL ORBITAL
:E1_0001: E( 1)=    1.6517
             APW+lo
:E1_0001: E( 1)=    0.2992   E(BOTTOM)=   -0.676   E(TOP)=    1.275  3  4   275
             LOCAL ORBITAL
:E3_0001: E( 3)=    1.4888   E(BOTTOM)=    1.276   E(TOP)=    1.702  0  1   119
             APW+lo
:E2_0001: E( 2)=    1.2517   E(BOTTOM)=    1.051   E(TOP)= -200.000  2 -1   124
             APW+lo

       K=   0.06250   0.00000   0.06250            1
:RKM  : MATRIX SIZE   231LOs:  40  RKM= 8.49  WEIGHT= 4.00  PGR:    
       EIGENVALUES ARE:
:EIG00001:      -1.2840855   -1.1343053   -0.1459192    0.2511728    0.3490489
:EIG00006:       0.3857193    0.4211487    0.4288477    1.2706733    1.3961148
:EIG00011:       1.4064147    1.4101190    1.4159727    1.4312392    1.4659462
:EIG00016:       1.4938869    1.5097128    1.5158188    1.5282139    1.5293325
:EIG00021:       1.5461214    1.5516046    1.5524993    1.5890295    1.6059090
:EIG00026:       1.6613721    1.7237830    1.7393542    1.8252795    1.8791770
:EIG00031:       1.9787342    2.1760885    2.3045422    2.3118104    2.5955184
:EIG00036:       2.6394023    2.6849938    2.9839132    3.0367830    3.2374480
:EIG00041:       3.4324362    3.4665680    3.6345280    3.7249967    3.8681229
[...]
:JACOBIANS    2.395E-01   1.435E+00
  
:NORMS:  1/Froebius, Min, Max, Used   0.7371E+00  0.4794E+00  0.9429E+00  0.9173E+00
:INFO :  Number of Memory Steps    5 Skipping    0
:INFO :  SLambda=    1.1404094595  Max    1.1404094595
:PREDicted Charge, CTotal, PW Trust    1.499E-04   2.998E-04   8.264E-04
:PREDicted DMix, Beta, BLim   5.9476E-01  1.2527E+00  5.5424E+00

Eigenvalues, unscaled except for SY+YY
   #     SY Real        SY Imag          SS             YY         SY+YY Real      SY+YY Imag
   1   2.407340E+00   0.000000E+00   2.308028E+00   2.743085E+00   5.466548E+00   0.000000E+00
   2   7.057876E-01   0.000000E+00   3.865823E-01   1.585248E+00   2.387018E+00   0.000000E+00
   3   1.180923E-01   0.000000E+00   2.157160E-02   6.700959E-01   8.296783E-01   0.000000E+00
   4   2.139046E-07   0.000000E+00   4.893468E-04   1.569254E-03   1.675445E-06   0.000000E+00
   5   9.484263E-04   0.000000E+00   3.199918E-08   1.424979E-06   2.750030E-03   0.000000E+00
 
:INFO :  Singular value  5.469E+00 Weight  1.000E+00 Projection -3.477E-06
:INFO :  Singular value  2.388E+00 Weight  1.000E+00 Projection -1.464E-04
:INFO :  Singular value  8.289E-01 Weight  1.000E+00 Projection -1.380E-04
:INFO :  Singular value  2.750E-03 Weight  9.901E-01 Projection -9.052E-03
:INFO :  Singular value  1.675E-06 Weight  3.730E-05 Projection  7.460E-07
:RANK :  ACTIVE   3.99/5  =  79.80 % ; YY RANK   3.97/5  =  79.41 %
 
:BLIM :  VZERO Control Off
:TRUST:  Step 8.40E+00  Charge 4.80E-02 (e) CTO  1.60E-01 (e) PW  2.24E-01 (e)
:DIRM :  MEMORY  5/8  SCALE   1.000 RED  0.38 PRED  0.52 NEXT  0.31 
:TRAVE:  Charge 2.11E-04 (e) CTO  4.22E-04 (e) PW  3.47E-04 (e)
:DIRP :  |MSR1|= 2.035E-04 |PRATT|= 2.257E-04 ANGLE=   4.6 DEGREES
:DIRQ :  |MSR1|= 2.417E-04 |PRATT|= 3.459E-04 ANGLE=  10.6 DEGREES
:DIRT :  |MSR1|= 3.159E-04 |PRATT|= 4.130E-04 ANGLE=  11.3 DEGREES
:MIX  :   MSE1   REGULARIZATION:  2.74E-04 GREED: 0.35000  Newton 1.00  0.7649                
     
       CHARGES OF MIXED CHARGE DENSITY
:CTO   : INTERSTITIAL CHARGE =     5.762852
:CPC   : PW Pseudocharge     =    18.129935
:CTO001: CHARGE SPHERE  1    =    56.118574

:NEC03: NUCLEAR AND ELECTRONIC CHARGE    118.00000   118.00000

PW CHANGE     H    K    L      Current       Change    Residue
:PTO001:      0    0    0  1.05373406E-01  2.369E-06  2.754E-06
:PTO003:      0    2    0  2.15972216E-02  9.794E-07  1.143E-06
:PTO004:     -1    1    0  9.58394418E-02  3.887E-06  4.647E-06
:PTO005:      0    2   -1 -1.08095835E-01 -3.567E-06 -3.891E-06
:PTO006:      0    0   -2 -5.58304441E-02 -1.922E-06 -2.143E-06
:PTO007:     -1    1   -1 -1.06841076E-01 -2.731E-06 -3.043E-06
:PTO008:      0    2   -2 -1.24658125E-02  4.312E-07  6.145E-07
:PTO009:     -1    1   -2 -6.10550139E-02  1.313E-06  1.576E-06
:PTO011:     -1    3    0 -7.97143460E-03  5.321E-07  6.297E-07
:PTO012:     -1    3   -1 -2.96752085E-02  2.379E-06  2.461E-06
:PTO013:      0    4    0 -4.42888088E-03  5.662E-07  5.887E-07
:PTO014:      0    2   -3  1.05401900E-02 -7.649E-07 -6.313E-07

:ENE  : ********** TOTAL ENERGY IN Ry =       -36944.35046792

       TOTAL FORCE IN mRy/a.u. = |F|     Fx             Fy             Fz     with/without FOR in case.in2
:FOR001:   1.ATOM          3.340          0.000          0.000          3.340 partial forces
       TOTAL FORCE WITH RESPECT TO GLOBAL CARTESIAN COORDINATES:
:FCA001:   1.ATOM                         0.000          3.340          0.000 partial forces
       TOTAL FORCE WITH RESPECT TO THE GLOBAL COORDINATE SYSTEM:
:FGL001:   1.ATOM                 0.000000000     3.339764416     0.000000000 partial forces
 Flat Integration
 New Mode for Coulomb Integral
 Consistent 3/8+Simpson combinations
 Extension of core to zero
 LDM version in phi
 Fifth-order quadrature in outwin


            ---------
:ITE020: 20. ITERATION
            ---------

:NATO :    1 INDEPENDENT AND    2 TOTAL ATOMS IN UNITCELL
       SUBSTANCE: aU                                                          

       LATTICE                      = CXY 
:POT  : POTENTIAL OPTION EX_LDA EC_LDA VX_LDA VC_LDA
:LAT  : LATTICE CONSTANTS=  5.03393 10.21511  8.81892    1.571    1.571    1.571
:VOL  : UNIT CELL VOLUME =     226.74400
       MODE OF CALCULATION IS       = RELA
       NON-SPINPOLARIZED CALCULATION
:IFFT  : FFT-parameters:   40   80   72 Factor: 2.00


   CONVERGENCE PARAMETER FOR PSEUDOCHARGE: NCON=  9
   MAXIMAL VALUE OF RMT(JATOM)*ABSK(NKK) : RK  =27.57811


:VKCOUL :  VK-COUL convergence: 0.255E-06
       ATOMNUMBER=  1 Pr1        VCOUL-ZERO =  0.89462E+00
:EFG001:                        EFG         =     9.73936   *10**21  V / m**2
                               V20  TOT/SRF=    -4.34424    -0.09236
                               V22  TOT/SRF=    -7.23121    -0.01311
                               V22M TOT/SRF=     0.00000     0.00000
                               V21  TOT/SRF=     0.00000     0.00000
                               V21M TOT/SRF=     0.00000     0.00000

             -4.72307    0.00000    0.00000       -4.72307    0.00000    0.00000
              0.00000    9.73936    0.00000        0.00000    9.73936    0.00000
              0.00000    0.00000   -5.01629        0.00000    0.00000   -5.01629

         MAIN DIRECTIONS OF THE EFG   1.0000  0.0000  0.0000
                                      0.0000  1.0000  0.0000
                                      0.0000  0.0000  1.0000
:ANG001:  ANGLE WITH OLD X-AXIS =         0.0

:ETA001:                         ASYMM. ETA =     0.03011


     HELLMANN-FEYNMAN-FORCE IN mRy/a.u. = |F|  Fx       Fy             Fz
:FHF001:   1.ATOM   1329.851633418541      0.000000000000      0.000000000000  -1329.851633418541

:FIT001: LUSE= 13 SIGMA OF V-XC FIT FOR ATOM  1  0.2686533E-03
:FIT001: LUSE= 13 SIGMA OF V-XC FIT FOR ATOM  1  0.2686533E-03
:DEN  : DENSITY INTEGRAL  =        -14250.12758437   (Ry)
       ELS_POTENTIAL_AT Z=0 and Z=0.5:   1.15037   1.15037
       ELS_POTENTIAL_AT Y=0 and Y=0.5:  -0.05945  -0.05945
:VZERO:v0,v0c,v0x   0.32378   1.15037  -0.82659 v5,v5c,v5x   0.32378   1.15037  -0.82659
:VZERY:v0,v0c,v0x  -1.11058  -0.05945  -1.05113 v5,v5c,v5x  -1.11058  -0.05945  -1.05113
:VZERX:v0,v0c,v0x  -1.37212  -0.39313  -0.97899 v5,v5c,v5x  -1.37212  -0.39313  -0.97899
:LMAX-WF:   10   Non-Spherical LMAX:   4

          ATOMIC SPHERE DEPENDENT PARAMETERS FOR ATOM  Pr1       
:e__0001: OVERALL ENERGY PARAMETER IS    1.2517
          OVERALL BASIS SET ON ATOM IS LAPW
:E0_0001: E( 0)=    1.2517
             APW+lo
:E0_0001: E( 0)=   -1.1642   E(BOTTOM)=   -1.813   E(TOP)=   -0.515  4  5   268
             LOCAL ORBITAL
:E1_0001: E( 1)=    1.6517
             APW+lo
:E1_0001: E( 1)=    0.2992   E(BOTTOM)=   -0.676   E(TOP)=    1.275  3  4   273
             LOCAL ORBITAL
:E3_0001: E( 3)=    1.4889   E(BOTTOM)=    1.276   E(TOP)=    1.702  0  1   117
             APW+lo
:E2_0001: E( 2)=    1.2517   E(BOTTOM)=    1.051   E(TOP)= -200.000  2 -1   121
             APW+lo

       K=   0.06250   0.00000   0.06250            1
:RKM  : MATRIX SIZE   231LOs:  40  RKM= 8.49  WEIGHT= 4.00  PGR:    
       EIGENVALUES ARE:
:EIG00001:      -1.2840622   -1.1342823   -0.1458957    0.2511964    0.3490727
:EIG00006:       0.3857412    0.4211717    0.4288694    1.2706923    1.3961335
:EIG00011:       1.4064307    1.4101375    1.4159905    1.4312561    1.4659661
:EIG00016:       1.4939008    1.5097277    1.5158326    1.5282296    1.5293471
:EIG00021:       1.5461368    1.5516201    1.5525145    1.5890457    1.6059255
:EIG00026:       1.6613915    1.7238028    1.7393737    1.8252979    1.8791956
:EIG00031:       1.9787527    2.1761068    2.3045595    2.3118314    2.5955337
:EIG00036:       2.6394174    2.6850088    2.9839289    3.0368016    3.2374680
:EIG00041:       3.4324540    3.4665853    3.6345431    3.7250145    3.8681392
:EIG00046:       3.8741594    3.9186896    4.1008277    4.1240112    4.2615900
 
:EIG00051:       4.4053356    4.5801198    4.6995915    4.8134652    4.8885276
:EIG00056:       5.0025244    5.0788906    5.2883549    5.3045721    5.3132909
:EIG00061:       5.4003348    5.4739763    5.6511026    5.7410154    5.7524715
:EIG00066:       5.8096394    5.8297405    5.9002451    6.0025729    6.1366121
:EIG00071:       6.1541261    6.3236413    6.3381032    6.3620245    6.3747841
:EIG00076:       6.3975702    6.4619285    6.4825748    6.5171656    6.6103556
:EIG00081:       6.6243995    6.7226573    6.7432675    6.8335598    6.9485898
:EIG00086:       6.9799198    7.0644314    7.1231177    7.2065324    7.2740779
:EIG00091:       7.3887872    7.4229263    7.4848484    7.4887599    7.5019150
:EIG00096:       7.6751870    7.7091623    7.8472957    7.8835051    7.9277950
 
:EIG00101:       7.9763555    8.0183687    8.0415041    8.1507395    8.1785912
:EIG00106:       8.2655554    8.4198861    8.5244654    8.5962803    8.6716951
:EIG00111:       8.7426465    8.8102714    8.8475434
       ********************************************************

:KPT   :      NUMBER OF K-POINTS:   288
   0.0   0.0 angle (M,z), angle (M,x) deg
 
        SPIN-ORBIT EIGENVALUES:
     K=   0.06250   0.00000   0.06250            1
      MATRIX SIZE=  226   WEIGHT= 4.00
     EIGENVALUES ARE:
          -1.2840679   -1.2840679   -1.1342892   -1.1342892   -0.1663680
          -0.1663680    0.2151403    0.2151403    0.2367305    0.2367305
           0.4414419    0.4414419    0.4564972    0.4564973    0.4862546
           0.4862546    1.2706455    1.2706455    1.3953242    1.3953242
           1.4052635    1.4052635    1.4093879    1.4093879    1.4156053
           1.4156053    1.4304608    1.4304608    1.4646202    1.4646202
           1.4906138    1.4906138    1.5048846    1.5048846    1.5152766
           1.5152766    1.5297044    1.5297044    1.5334438    1.5334438

           1.5467015    1.5467015    1.5513165    1.5513165    1.5560775
           1.5560775    1.5906190    1.5906190    1.6071684    1.6071684
           1.6615186    1.6615186    1.7216386    1.7216386    1.7417848
           1.7417848    1.8258612    1.8258612    1.8792974    1.8792974
           1.9790416    1.9790416    2.1763347    2.1763347    2.3031324
           2.3031324    2.3136285    2.3136285    2.5962051    2.5962051
           2.6395658    2.6395658    2.6850542    2.6850542    2.9837486
           2.9837486    3.0364937    3.0364937    3.2368569    3.2368569

           3.4327498    3.4327498    3.4665995    3.4665995    3.6348764
           3.6348764    3.7245786    3.7245786    3.8678818    3.8678818
           3.8739916    3.8739916    3.9190206    3.9190206    4.0993814
           4.0993814    4.1257773    4.1257773    4.2620450    4.2620450
           4.4051772    4.4051772
       ********************************************************
:GAP (global)   :    0.0    Ry =     0.0   eV (metal)
:GAP (this spin):    0.0    Ry =     0.0   eV (metal)
         Bandranges (emin - emax) and occupancy:
:BAN00020:  20    1.193602    1.400565  1.00000000
:BAN00021:  21    1.271077    1.449821  1.00000000
:BAN00022:  22    1.271077    1.449821  1.00000000
:BAN00023:  23    1.332611    1.459531  0.96804402
:BAN00024:  24    1.332611    1.459531  0.96804401
:BAN00025:  25    1.395119    1.488359  0.60860042
:BAN00026:  26    1.395119    1.488359  0.60860041
:BAN00027:  27    1.416684    1.505809  0.36206333
:BAN00028:  28    1.416684    1.505809  0.36206332
:BAN00029:  29    1.432562    1.508891  0.06129226
:BAN00030:  30    1.432562    1.508891  0.06129224
:BAN00031:  31    1.453799    1.514737  0.00000000
:BAN00032:  32    1.453799    1.514737  0.00000000
:BAN00033:  33    1.492783    1.532044  0.00000000
:BAN00034:  34    1.492783    1.532044  0.00000000
:BAN00035:  35    1.503538    1.538047  0.00000000
        Energy to separate low and high energystates:    1.07162


:NOE  : NUMBER OF ELECTRONS          =   26.000

:FER  : F E R M I - ENERGY(TETRAH.M.)=   1.4517365125
:GMA  : POTENTIAL AND CHARGE CUT-OFF  12.00 Ry**.5

:POS001: ATOM   -1 X,Y,Z = 0.00000 0.89750 0.25000  MULT= 2  ZZ= 59.000  Pr1       

       LMMAX 16
       LM=   0 0  1 0  2 0  2 2  3 0  3 2  4 0  4 2  4 4  5 0  5 2  5 4  6 0  6 2  6 4  6 6

:CHA001: TOTAL VALENCE CHARGE INSIDE SPHERE   1 =  10.1201    (RMT=  2.3000 )
:PCS001: PARTIAL CHARGES SPHERE =  1 S,P,D,F,PX,PY,PZ,D-Z2,D-X2Y2,D-XY,D-XZ,D-YZ 
:QTL001: 1.9209 4.9501 1.0702 2.1703 1.6535 1.6450 1.6515 0.2111 0.1906 0.2201 0.2215 0.2269
        Q-s-low E-s-low   Q-p-low E-p-low   Q-d-low E-d-low   Q-f-low E-f-low
:EPL001:  1.8733 -1.1143    4.8418  0.1645    0.0618  0.1304    0.0216  0.1369
        Q-s-hi  E-s-hi    Q-p-hi  E-p-hi    Q-d-hi  E-d-hi    Q-f-hi  E-f-hi 
:EPH001:  0.0475  1.3386    0.1082  1.3506    1.0084  1.3206    2.1487  1.3981

                      VXX         VYY         VZZ       UP TO R
:VZZ001:            -4.79201     9.67752    -4.88551       2.300

:CHA  : TOTAL VALENCE CHARGE INSIDE UNIT CELL =      26.000000

:SUM  : SUM OF EIGENVALUES =          10.920934307


        1.ATOM      Pr1                  14 CORE STATES
       CORE-FORCE in mRy/a.u. = |F|      Fx             Fy             Fz
:FCO001:   1.ATOM   1333.239983032472      0.000000000000      0.000000000000   1333.239983032472

:1S 001: 1S               -3066.102515694 Ry
:2S 001: 2S                -491.852571807 Ry
:2PP001: 2P*               -464.951357472 Ry
:2P 001: 2P                -429.553944886 Ry
:3S 001: 3S                -104.952083718 Ry
:3PP001: 3P*                -93.489586719 Ry
:3P 001: 3P                 -86.481934244 Ry
:3DD001: 3D*                -66.407476448 Ry
:3D 001: 3D                 -64.896045880 Ry
:4S 001: 4S                 -19.619181958 Ry
:4PP001: 4P*                -15.325070300 Ry
:4P 001: 4P                 -13.796385583 Ry
:4DD001: 4D*                 -6.727073006 Ry
:4D 001: 4D                  -6.457273650 Ry
:CINT001 Core Integral Atom   1   45.998440

       DENSITY AT NUCLEUS
        JATOM        VALENCE       SEMI-CORE          CORE           TOTAL
:RTO001:   1      633.325921        0.000000   656826.567126   657459.893047
     
       CHARGES OF NEW CHARGE DENSITY
:NTO   : INTERSTITIAL CHARGE =     5.759729
:NPC   : PW Pseudocharge     =    18.120073
:NTO001: CHARGE SPHERE  1    =    56.118568

:NEC01: NUCLEAR AND ELECTRONIC CHARGE    118.00000   117.99686
     
       CHARGES OF OLD CHARGE DENSITY
:OTO   : INTERSTITIAL CHARGE =     5.762852
:OPC   : PW Pseudocharge     =    18.129935
:OTO001: CHARGE SPHERE  1    =    56.118574

:NEC02: NUCLEAR AND ELECTRONIC CHARGE    118.00000   118.00000
     
       CONVERGENCE TEST
:DTO001: DIFFERENCE IN SPHERE  1 =  0.0000273

:DIS  :  CHARGE DISTANCE       ( 0.0000273 for atom    1 spin 1)      0.0000273
 PW Mixed is          244
 
******************************************************
* MULTISECANT MIXING VER9 RELEASE 10.4.0              *
* Standard Mode with controls                        *
* Fixed density scale                                *
* Regularization       1.000E-04                     *
* Trust Upper Limit    5.000E+00                     *
* Max Number of Memory Steps    8                    *
******************************************************
 
:PWTMP   1.2481E+02  1.9467E+02  2.2674E+02
:PLANE:  PW TOTAL      5.6394 DISTAN   1.49E-05  2.64E-04 %
:CHARG:  CLM/ATOM   1381.9306 DISTAN   4.89E-05  3.54E-06 %
 
Step History
        DMIX         DMIXT        Red     Pred      Trust     Lambda    MagRel    MagAbs     Beta
  1   3.5000E-02   3.5000E-02 -1.00E+00  1.00E+00 -1.00E+01  1.00E+00  3.50E-02  3.50E-02  1.00E+00
  2   1.5000E-01   1.5000E-01  2.95E-01  1.00E+00 -1.00E+01  1.00E+00  1.50E-01  4.34E-03  1.00E+00
  3   7.1250E-02   7.1250E-02  8.46E-01  9.28E-01  3.00E+00  1.18E+00  1.13E-01  9.69E-04  1.00E+00
  4   1.7813E-01   1.7813E-01  2.02E-01  3.11E-01  3.54E+00  5.44E-01  8.09E-01  5.85E-03  1.00E+00
  5   9.1283E-02   9.1283E-02  7.48E-01  9.03E-01  4.73E+00  1.00E+00  2.45E-01  3.58E-04  1.00E+00
  6   2.2821E-01   2.2821E-01  3.78E-01  5.23E-01  6.30E+00  1.14E+00  6.00E-01  6.56E-04  1.00E+00
  7   3.5000E-01   3.5000E-01 -1.00E+00  3.13E-01  8.40E+00  1.00E+00  7.65E-01  3.16E-04  1.00E+00
:JACOBIANS    3.250E-01   1.685E+00
  
:NORMS:  1/Froebius, Min, Max, Used   0.7771E+00  0.4937E+00  0.9669E+00  0.9638E+00
:INFO :  Number of Memory Steps    6 Skipping    0
:INFO :  SLambda=    0.7806385404  Max    0.7806385404
:PREDicted Charge, CTotal, PW Trust    7.000E-06   1.400E-05   3.187E-04
:PREDicted DMix, Beta, BLim   1.2199E-01  1.0325E+00  1.0492E+01

Eigenvalues, unscaled except for SY+YY
   #     SY Real        SY Imag          SS             YY         SY+YY Real      SY+YY Imag
   1   2.430287E+00   0.000000E+00   2.400122E+00   2.584022E+00   4.475217E+00   0.000000E+00
   2   1.458536E+00   0.000000E+00   1.116672E+00   2.242946E+00   3.349955E+00   0.000000E+00
   3   2.328743E-01   0.000000E+00   8.630109E-02   7.127397E-01   8.701984E-01   0.000000E+00
   4   1.057470E-01   0.000000E+00   2.026858E-02   4.602159E-01   6.046583E-01   0.000000E+00
   5   2.130430E-07   0.000000E+00   1.765636E-05   7.431033E-05   1.583267E-06   0.000000E+00
   6   3.627287E-05   0.000000E+00   3.185649E-08   1.419778E-06   1.033750E-04   0.000000E+00
 
:INFO :  Singular value  4.478E+00 Weight  1.000E+00 Projection  6.664E-06
:INFO :  Singular value  3.352E+00 Weight  1.000E+00 Projection  6.207E-06
:INFO :  Singular value  8.701E-01 Weight  1.000E+00 Projection  1.784E-05
:INFO :  Singular value  6.040E-01 Weight  1.000E+00 Projection -3.015E-05
:INFO :  Singular value  1.034E-04 Weight  1.380E-01 Projection -6.314E-04
:INFO :  Singular value  1.583E-06 Weight  3.754E-05 Projection  7.706E-08
:RANK :  ACTIVE   4.14/6  =  68.97 % ; YY RANK   4.08/6  =  67.94 %
 
:BLIM :  VZERO Control Off
:TRUST:  Step 1.12E+01  Charge 3.84E-02 (e) CTO  1.28E-01 (e) PW  1.79E-01 (e)
:DIRM :  MEMORY  6/8  SCALE   1.000 RED  0.12 PRED  0.31 NEXT  0.79 
:TRAVE:  Charge 1.06E-04 (e) CTO  2.13E-04 (e) PW  1.81E-04 (e)
:DIRP :  |MSR1|= 1.082E-05 |PRATT|= 1.489E-05 ANGLE=  48.7 DEGREES
:DIRQ :  |MSR1|= 2.134E-05 |PRATT|= 4.887E-05 ANGLE=  24.6 DEGREES
:DIRT :  |MSR1|= 2.393E-05 |PRATT|= 5.109E-05 ANGLE=  30.4 DEGREES
:MIX  :   MSD1   REGULARIZATION:  2.58E-04 GREED: 0.19085  Newton 1.00  0.4684                
     
       CHARGES OF MIXED CHARGE DENSITY
:CTO   : INTERSTITIAL CHARGE =     5.762856
:CPC   : PW Pseudocharge     =    18.129960
:CTO001: CHARGE SPHERE  1    =    56.118572

:NEC03: NUCLEAR AND ELECTRONIC CHARGE    118.00000   118.00000

PW CHANGE     H    K    L      Current       Change    Residue
:PTO001:      0    0    0  1.05373532E-01  1.258E-07  7.326E-08
:PTO003:      0    2    0  2.15971769E-02 -4.465E-08 -2.917E-07
:PTO004:     -1    1    0  9.58396006E-02  1.588E-07 -9.203E-09
:PTO005:      0    2   -1 -1.08096027E-01 -1.923E-07 -1.495E-07
:PTO006:      0    0   -2 -5.58305327E-02 -8.857E-08 -3.389E-08
:PTO007:     -1    1   -1 -1.06841279E-01 -2.029E-07 -3.437E-07
:PTO008:      0    2   -2 -1.24657637E-02  4.881E-08  9.501E-08
:PTO009:     -1    1   -2 -6.10548945E-02  1.194E-07  2.350E-07
:PTO011:     -1    3    0 -7.97143590E-03 -1.307E-09 -8.536E-08
:PTO012:     -1    3   -1 -2.96750802E-02  1.283E-07  1.446E-07
:PTO013:      0    4    0 -4.42886042E-03  2.046E-08 -8.401E-09
:PTO014:      0    2   -3  1.05401710E-02 -1.902E-08  3.371E-08

:ENE  : ********** TOTAL ENERGY IN Ry =       -36944.35046843

       TOTAL FORCE IN mRy/a.u. = |F|     Fx             Fy             Fz     with/without FOR in case.in2
:FOR001:   1.ATOM          3.388          0.000          0.000          3.388 partial forces
       TOTAL FORCE WITH RESPECT TO GLOBAL CARTESIAN COORDINATES:
:FCA001:   1.ATOM                         0.000          3.388          0.000 partial forces
       TOTAL FORCE WITH RESPECT TO THE GLOBAL COORDINATE SYSTEM:
:FGL001:   1.ATOM                 0.000000000     3.388349614     0.000000000 partial forces
