
:LABEL1: Calculations in /home/ykent/GWIEN/example/Pr/aU/V22/case
:LABEL2: on didymium-2.cmpgroup.ameslab.gov at Fri Jul 10 14:29:26 CDT 2020
:LABEL3: using WIEN2k_19.1 (Release 25/6/2019) in /home/ykent/opt/src/WIEN2k_19.1
:LABEL4: using the command: run_lapw -so -i 70 -cc 0.0001
 Flat Integration
 New Mode for Coulomb Integral
 Consistent 3/8+Simpson combinations
 Extension of core to zero
 LDM version in phi
 Fifth-order quadrature in outwin


            ---------
:ITE015: 15. ITERATION
            ---------

:NATO :    1 INDEPENDENT AND    2 TOTAL ATOMS IN UNITCELL
       SUBSTANCE: aU                                                          

       LATTICE                      = CXY 
:POT  : POTENTIAL OPTION EX_LDA EC_LDA VX_LDA VC_LDA
:LAT  : LATTICE CONSTANTS=  6.76640 13.73073 11.85402    1.571    1.571    1.571
:VOL  : UNIT CELL VOLUME =     550.66398
       MODE OF CALCULATION IS       = RELA
       NON-SPINPOLARIZED CALCULATION
:IFFT  : FFT-parameters:   54  108   96 Factor: 2.00


   CONVERGENCE PARAMETER FOR PSEUDOCHARGE: NCON=  9
   MAXIMAL VALUE OF RMT(JATOM)*ABSK(NKK) : RK  =27.59515


:VKCOUL :  VK-COUL convergence: 0.144E-06
       ATOMNUMBER=  1 Pr1        VCOUL-ZERO = -0.55541E-01
:EFG001:                        EFG         =    -6.48019   *10**21  V / m**2
                               V20  TOT/SRF=    -5.61201    -0.01724
                               V22  TOT/SRF=     0.23583     0.00168
                               V22M TOT/SRF=     0.00000     0.00000
                               V21  TOT/SRF=     0.00000     0.00000
                               V21M TOT/SRF=     0.00000     0.00000

              3.47593    0.00000    0.00000        3.47593    0.00000    0.00000
              0.00000    3.00426    0.00000        0.00000    3.00426    0.00000
              0.00000    0.00000   -6.48019        0.00000    0.00000   -6.48019

         MAIN DIRECTIONS OF THE EFG   1.0000  0.0000  0.0000
                                      0.0000  1.0000  0.0000
                                      0.0000  0.0000  1.0000
:ANG001:  ANGLE WITH OLD X-AXIS =         0.0

:ETA001:                         ASYMM. ETA =     0.07279


     HELLMANN-FEYNMAN-FORCE IN mRy/a.u. = |F|  Fx       Fy             Fz
:FHF001:   1.ATOM   1136.826910613126      0.000000000000      0.000000000000  -1136.826910613126

:FIT001: LUSE= 13 SIGMA OF V-XC FIT FOR ATOM  1  0.5885679E-04
:FIT001: LUSE= 13 SIGMA OF V-XC FIT FOR ATOM  1  0.5885679E-04
:DEN  : DENSITY INTEGRAL  =        -14136.30450292   (Ry)
       ELS_POTENTIAL_AT Z=0 and Z=0.5:   0.65353   0.65353
       ELS_POTENTIAL_AT Y=0 and Y=0.5:   0.08425   0.08425
:VZERO:v0,v0c,v0x   0.11350   0.65353  -0.54004 v5,v5c,v5x   0.11350   0.65353  -0.54004
:VZERY:v0,v0c,v0x  -0.63992   0.08425  -0.72417 v5,v5c,v5x  -0.63992   0.08425  -0.72417
:VZERX:v0,v0c,v0x  -1.06564  -0.36588  -0.69976 v5,v5c,v5x  -1.06564  -0.36588  -0.69976
:LMAX-WF:   10   Non-Spherical LMAX:   4

          ATOMIC SPHERE DEPENDENT PARAMETERS FOR ATOM  Pr1       
:e__0001: OVERALL ENERGY PARAMETER IS    0.3252
          OVERALL BASIS SET ON ATOM IS LAPW
:E0_0001: E( 0)=    0.3252
             APW+lo
:E0_0001: E( 0)=   -2.1565   E(BOTTOM)=   -2.793   E(TOP)=   -1.520  4  5   162
             LOCAL ORBITAL
:E1_0001: E( 1)=    0.7252
             APW+lo
:E1_0001: E( 1)=   -0.6874   E(BOTTOM)=   -1.646   E(TOP)=    0.271  3  4   195
             LOCAL ORBITAL
:E3_0001: E( 3)=    0.5048   E(BOTTOM)=    0.295   E(TOP)=    0.715  0  1   123
             APW+lo
:E2_0001: E( 2)=    0.3252   E(BOTTOM)=    0.094   E(TOP)= -200.000  2 -1    97
             APW+lo

       K=   0.06250   0.00000   0.06250            1
:RKM  : MATRIX SIZE   509LOs:  40  RKM= 8.50  WEIGHT= 4.00  PGR:    
       EIGENVALUES ARE:
:EIG00001:      -2.1215206   -2.1132302   -0.8321505   -0.7810687   -0.7693085
:EIG00006:      -0.7646219   -0.7598752   -0.7598291    0.2913275    0.4364770
:EIG00011:       0.5213890    0.5221742    0.5225577    0.5242861    0.5264447
:EIG00016:       0.5347798    0.5375261    0.5376623    0.5399316    0.5420685
:EIG00021:       0.5443789    0.5481353    0.5489510    0.5525099    0.5880159
:EIG00026:       0.6007407    0.6594139    0.6844656    0.6938488    0.7339863
:EIG00031:       0.7489014    0.8164533    0.8594194    0.8947630    1.1387118
:EIG00036:       1.1892732    1.2771552    1.2807912    1.4211761    1.4739759
:EIG00041:       1.5079166    1.6094521    1.6662730    1.6890713    1.7596315
:EIG00046:       1.8368130    1.8429252    1.8763338    1.9448863    2.0189261
 
:EIG00051:       2.0684368    2.1225202    2.1402224    2.1887543    2.2118767
:EIG00056:       2.2955135    2.3376803    2.3504855    2.4401948    2.4739128
:EIG00061:       2.5351213    2.5675326    2.6827905    2.7695053    2.7834344
:EIG00066:       2.8708555    2.9073601    2.9217096    2.9306555    3.0196368
:EIG00071:       3.0283801    3.0737659    3.0976655    3.1303443    3.1438940
:EIG00076:       3.1847400    3.2248118    3.2556360    3.2844581    3.3047367
:EIG00081:       3.3457754    3.3900045    3.3991352    3.4377306    3.4910716
:EIG00086:       3.5178617    3.5879088    3.5960563    3.6266910    3.6357729
:EIG00091:       3.6698612    3.6869533    3.7359133    3.7383237    3.7429631
:EIG00096:       3.8054908    3.8264287    3.8323543    3.8465131    3.9263512
 
:EIG00101:       3.9770736    4.1028951    4.1078154    4.1607971    4.2005243
:EIG00106:       4.2159839    4.2472133    4.2495986    4.2995837    4.3272585
:EIG00111:       4.3921803    4.4086111    4.4317950    4.4473166    4.4769457
:EIG00116:       4.5393145    4.6101566    4.6470353    4.6477323    4.6754095
:EIG00121:       4.7065962    4.7960574    4.7979616    4.8338658    4.8862495
:EIG00126:       4.9504486    4.9583294    4.9995042    5.0488841    5.0688581
:EIG00131:       5.0929245    5.1386929    5.1733586    5.1899436    5.2037647
:EIG00136:       5.2580878    5.3022776    5.3490175    5.3632946    5.3932988
:EIG00141:       5.4056010    5.4090201    5.4579953    5.5086584    5.5180551
:EIG00146:       5.5392649    5.5614875    5.5656980    5.5670967    5.6661347
 
:EIG00151:       5.6739865    5.7035380    5.7785769    5.8040771    5.8203441
:EIG00156:       5.9308644    6.0058519    6.0224248    6.0651919    6.0806192
:EIG00161:       6.1062772    6.1837534    6.2232465    6.2289925    6.2350641
:EIG00166:       6.3057483    6.3397175    6.3451890    6.3727890    6.3916153
:EIG00171:       6.4113815    6.4748821    6.4929175    6.5126262    6.5667917
:EIG00176:       6.5670387    6.6060954    6.6300381    6.6645330    6.6780584
:EIG00181:       6.7522984    6.7669024    6.7726026    6.7994216    6.8378162
:EIG00186:       6.8404785    6.8537849    6.9327260    6.9415522    6.9493417
:EIG00191:       7.0008627    7.0121063    7.0566687    7.0710052    7.1023762
:EIG00196:       7.1173052    7.1174463    7.1527970    7.1580953    7.2029095
 
:EIG00201:       7.2232995    7.2821209    7.2841051    7.2927137    7.3459980
:EIG00206:       7.3540897    7.3696364    7.4250713    7.4536911    7.4826732
:EIG00211:       7.4863206    7.5325564    7.5361731    7.5527987    7.5661125
:EIG00216:       7.6012977    7.6108876    7.6119636    7.6400068    7.6818756
:EIG00221:       7.7062255    7.7518966    7.7541057    7.7614305    7.7689698
:EIG00226:       7.7801315    7.8167804    7.8219434    7.8606051    7.9197749
:EIG00231:       7.9224197    7.9659833    8.0050725    8.0148758    8.0247822
       ********************************************************

:KPT   :      NUMBER OF K-POINTS:   288
   0.0   0.0 angle (M,z), angle (M,x) deg
 
        SPIN-ORBIT EIGENVALUES:
     K=   0.06250   0.00000   0.06250            1
      MATRIX SIZE=  470   WEIGHT= 4.00
     EIGENVALUES ARE:
          -2.1215206   -2.1215206   -2.1132303   -2.1132303   -0.9355472
          -0.9355471   -0.9108637   -0.9108637   -0.7466335   -0.7466335
          -0.7016957   -0.7016957   -0.6994024   -0.6994024   -0.6934203
          -0.6934203    0.2913518    0.2913518    0.4363511    0.4363511
           0.5136182    0.5136182    0.5154366    0.5154366    0.5158528
           0.5158528    0.5170545    0.5170545    0.5190939    0.5190939
           0.5213618    0.5213618    0.5389773    0.5389773    0.5445246
           0.5445246    0.5471337    0.5471337    0.5479113    0.5479113

           0.5516624    0.5516624    0.5544000    0.5544000    0.5551656
           0.5551656    0.5584786    0.5584786    0.5885760    0.5885760
           0.6006073    0.6006073    0.6593916    0.6593918    0.6821788
           0.6821788    0.6957804    0.6957804    0.7345251    0.7345252
           0.7488801    0.7488801    0.8162550    0.8162551    0.8597271
           0.8597271    0.8948994    0.8948994    1.1387097    1.1387097
           1.1894694    1.1894694    1.2771130    1.2771130    1.2808327
           1.2808327    1.4206729    1.4206729    1.4732645    1.4732645

           1.5079130    1.5079130    1.6070320    1.6070320    1.6657278
           1.6657278    1.6898945    1.6898945    1.7602466    1.7602466
           1.8349996    1.8349996    1.8412434    1.8412434    1.8786756
           1.8786756    1.9453110    1.9453110    2.0183847    2.0183847
           2.0681229    2.0681229    2.1201280    2.1201280    2.1418658
           2.1418658    2.1903372    2.1903372    2.2126571    2.2126571
           2.2954275    2.2954275    2.3375353    2.3375353    2.3510978
           2.3510978    2.4401204    2.4401204    2.4736681    2.4736681

           2.5383300    2.5383300    2.5677354    2.5677354    2.6827160
           2.6827160    2.7696117    2.7696117    2.7835395    2.7835395
           2.8705202    2.8705202    2.9073415    2.9073415    2.9217705
           2.9217705    2.9308821    2.9308821    3.0197931    3.0197931
           3.0284751    3.0284751    3.0738161    3.0738161    3.0977139
           3.0977139    3.1297117    3.1297117    3.1448220    3.1448220
           3.1848697    3.1848697    3.2259943    3.2259943    3.2557116
           3.2557116    3.2844687    3.2844687    3.3051239    3.3051239

           3.3459878    3.3459878    3.3900207    3.3900207    3.3992114
           3.3992114    3.4378858    3.4378858    3.4910957    3.4910957
           3.5179816    3.5179816    3.5880087    3.5880087    3.5960447
           3.5960447    3.6266707    3.6266707    3.6358243    3.6358243
           3.6698726    3.6698726    3.6869969    3.6869969    3.7352158
           3.7352158    3.7385870    3.7385870    3.7431200    3.7431200
           3.8054745    3.8054745    3.8258997    3.8258997    3.8330453
           3.8330453    3.8465993    3.8465993    3.9263836    3.9263836

           3.9768853    3.9768853    4.1007406    4.1007406    4.1093103
           4.1093103    4.1616934    4.1616934    4.2004027    4.2004027
           4.2161099    4.2161099    4.2470330    4.2470330    4.2507441
           4.2507441    4.2997739    4.2997739    4.3273633    4.3273633
           4.3922062    4.3922062    4.4087903    4.4087903    4.4320937
           4.4320937    4.4474453    4.4474453    4.4769654    4.4769654

       ********************************************************
:GAP (global)   :    0.0    Ry =     0.0   eV (metal)
:GAP (this spin):    0.0    Ry =     0.0   eV (metal)
         Bandranges (emin - emax) and occupancy:
:BAN00018:  18    0.287082    0.494358  1.00000000
:BAN00019:  19    0.390913    0.505022  1.00000000
:BAN00020:  20    0.390913    0.505022  1.00000000
:BAN00021:  21    0.476859    0.513618  1.00000000
:BAN00022:  22    0.476859    0.513618  1.00000000
:BAN00023:  23    0.505720    0.516512  1.00000000
:BAN00024:  24    0.505720    0.516512  1.00000000
:BAN00025:  25    0.510737    0.521614  0.80246232
:BAN00026:  26    0.510737    0.521614  0.80246208
:BAN00027:  27    0.515521    0.521983  0.19753792
:BAN00028:  28    0.515521    0.521983  0.19753767
:BAN00029:  29    0.518267    0.526158  0.00000000
:BAN00030:  30    0.518267    0.526158  0.00000000
:BAN00031:  31    0.520372    0.530283  0.00000000
:BAN00032:  32    0.520372    0.530283  0.00000000
:BAN00033:  33    0.523386    0.539195  0.00000000
        Energy to separate low and high energystates:    0.23708


:NOE  : NUMBER OF ELECTRONS          =   26.000

:FER  : F E R M I - ENERGY(TETRAH.M.)=   0.5177344094
:GMA  : POTENTIAL AND CHARGE CUT-OFF  12.00 Ry**.5

:POS001: ATOM   -1 X,Y,Z = 0.00000 0.89750 0.25000  MULT= 2  ZZ= 59.000  Pr1       

       LMMAX 16
       LM=   0 0  1 0  2 0  2 2  3 0  3 2  4 0  4 2  4 4  5 0  5 2  5 4  6 0  6 2  6 4  6 6

:CHA001: TOTAL VALENCE CHARGE INSIDE SPHERE   1 =   9.6579    (RMT=  2.3000 )
:PCS001: PARTIAL CHARGES SPHERE =  1 S,P,D,F,PX,PY,PZ,D-Z2,D-X2Y2,D-XY,D-XZ,D-YZ 
:QTL001: 1.9373 5.0165 0.3960 2.3080 1.6700 1.6700 1.6765 0.0704 0.0707 0.0948 0.0740 0.0861
        Q-s-low E-s-low   Q-p-low E-p-low   Q-d-low E-d-low   Q-f-low E-f-low
:EPL001:  1.8698 -2.1135    4.9625 -0.7955    0.0008 -0.7830    0.0002 -0.7905
        Q-s-hi  E-s-hi    Q-p-hi  E-p-hi    Q-d-hi  E-d-hi    Q-f-hi  E-f-hi 
:EPH001:  0.0675  0.4236    0.0540  0.4582    0.3952  0.4783    2.3078  0.5096

                      VXX         VYY         VZZ       UP TO R
:VZZ001:             3.69273     0.13014    -3.82287       2.300

:CHA  : TOTAL VALENCE CHARGE INSIDE UNIT CELL =      26.000000

:SUM  : SUM OF EIGENVALUES =         -13.131418285


        1.ATOM      Pr1                  14 CORE STATES
       CORE-FORCE in mRy/a.u. = |F|      Fx             Fy             Fz
:FCO001:   1.ATOM   1106.279207165558      0.000000000000      0.000000000000   1106.279207165558

:1S 001: 1S               -3067.081736836 Ry
:2S 001: 2S                -492.832002484 Ry
:2PP001: 2P*               -465.931814742 Ry
:2P 001: 2P                -430.534075091 Ry
:3S 001: 3S                -105.915804175 Ry
:3PP001: 3P*                -94.453956352 Ry
:3P 001: 3P                 -87.445860297 Ry
:3DD001: 3D*                -67.373743200 Ry
:3D 001: 3D                 -65.862073749 Ry
:4S 001: 4S                 -20.593812524 Ry
:4PP001: 4P*                -16.300988303 Ry
:4P 001: 4P                 -14.774067048 Ry
:4DD001: 4D*                 -7.708095715 Ry
:4D 001: 4D                  -7.438870020 Ry
:CINT001 Core Integral Atom   1   45.998480

       DENSITY AT NUCLEUS
        JATOM        VALENCE       SEMI-CORE          CORE           TOTAL
:RTO001:   1      645.538491        0.000000   656824.878856   657470.417347
     
       CHARGES OF NEW CHARGE DENSITY
:NTO   : INTERSTITIAL CHARGE =     6.684263
:NPC   : PW Pseudocharge     =    16.739965
:NTO001: CHARGE SPHERE  1    =    55.656348

:NEC01: NUCLEAR AND ELECTRONIC CHARGE    118.00000   117.99696
     
       CHARGES OF OLD CHARGE DENSITY
:OTO   : INTERSTITIAL CHARGE =     7.021795
:OPC   : PW Pseudocharge     =    16.835139
:OTO001: CHARGE SPHERE  1    =    55.489102

:NEC02: NUCLEAR AND ELECTRONIC CHARGE    118.00000   118.00000
     
       CONVERGENCE TEST
:DTO001: DIFFERENCE IN SPHERE  1 =  0.2731921

:DIS  :  CHARGE DISTANCE       ( 0.2731921 for atom    1 spin 1)      0.2731921
 PW Mixed is          560
 
******************************************************
* MULTISECANT MIXING VER9 RELEASE 10.4.0              *
* Standard Mode with controls                        *
* Fixed density scale                                *
* Regularization       1.000E-04                     *
* Trust Upper Limit    5.000E+00                     *
* Max Number of Memory Steps    8                    *
******************************************************
 
:PWTMP   4.4873E+02  1.9467E+02  5.5066E+02
:PLANE:  PW TOTAL      4.3178 DISTAN   4.03E-02  9.33E-01 %
:CHARG:  CLM/ATOM   1381.9385 DISTAN   4.55E-01  3.29E-02 %
 
Step History
        DMIX         DMIXT        Red     Pred      Trust     Lambda    MagRel    MagAbs     Beta
  1   3.5000E-02   3.5000E-02 -1.00E+00  1.00E+00 -1.00E+01  1.00E+00  3.50E-02  3.50E-02  1.00E+00
:INFO :  Note, Pratt in use
:TRUST:  Step 3.75E-02  Charge 7.50E-02 (e) CTO  2.50E-01 (e) PW  3.50E-01 (e)
:DIRM :  MEMORY  0/ 8 SCALE   1.000
Performing Pseudo Compensation
Final Pseudo Compensation Rescaling     1.00000E+00
:MIX  :   PRATT  REGULARIZATION:  1.00E-04 GREED: 0.02500                  
     
       CHARGES OF MIXED CHARGE DENSITY
:CTO   : INTERSTITIAL CHARGE =     7.013433
:CPC   : PW Pseudocharge     =    16.816462
:CTO001: CHARGE SPHERE  1    =    55.493283

:NEC03: NUCLEAR AND ELECTRONIC CHARGE    118.00000   118.00000

PW CHANGE     H    K    L      Current       Change    Residue
:PTO001:      0    0    0  4.32748392E-02 -4.910E-05 -7.664E-04
:PTO003:      0    2    0  1.26731426E-02 -9.857E-06  3.862E-05
:PTO004:     -1    1    0  6.30090948E-02 -5.995E-05 -2.328E-04
:PTO005:      0    2   -1 -7.36464940E-02  6.026E-05 -1.169E-04
:PTO006:      0    0   -2 -3.80845157E-02  3.405E-05  5.021E-05
:PTO007:     -1    1   -1 -8.08606780E-02  6.677E-05 -5.673E-05
:PTO008:      0    2   -2 -1.36653373E-02  1.070E-05  2.123E-05
:PTO009:     -1    1   -2 -7.15850832E-02  4.720E-05 -1.338E-05
:PTO011:     -1    3    0 -1.21117594E-02  8.189E-06  1.014E-04
:PTO012:     -1    3   -1 -5.53745888E-02  1.749E-05 -5.198E-05
:PTO013:      0    4    0 -1.04213446E-02  2.320E-07 -5.813E-05
:PTO014:      0    2   -3  2.37980017E-02 -3.519E-06  1.964E-06

:ENE  : ********** TOTAL ENERGY IN Ry =       -36944.17443890

       TOTAL FORCE IN mRy/a.u. = |F|     Fx             Fy             Fz     with/without FOR in case.in2
:FOR001:   1.ATOM         30.548          0.000          0.000        -30.548 partial forces
       TOTAL FORCE WITH RESPECT TO GLOBAL CARTESIAN COORDINATES:
:FCA001:   1.ATOM                         0.000        -30.548          0.000 partial forces
       TOTAL FORCE WITH RESPECT TO THE GLOBAL COORDINATE SYSTEM:
:FGL001:   1.ATOM                 0.000000000   -30.547703448     0.000000000 partial forces
 Flat Integration
 New Mode for Coulomb Integral
 Consistent 3/8+Simpson combinations
 Extension of core to zero
 LDM version in phi
 Fifth-order quadrature in outwin


            ---------
:ITE016: 16. ITERATION
            ---------

:NATO :    1 INDEPENDENT AND    2 TOTAL ATOMS IN UNITCELL
       SUBSTANCE: aU                                                          

       LATTICE                      = CXY 
:POT  : POTENTIAL OPTION EX_LDA EC_LDA VX_LDA VC_LDA
:LAT  : LATTICE CONSTANTS=  6.76640 13.73073 11.85402    1.571    1.571    1.571
:VOL  : UNIT CELL VOLUME =     550.66398
       MODE OF CALCULATION IS       = RELA
       NON-SPINPOLARIZED CALCULATION
:IFFT  : FFT-parameters:   54  108   96 Factor: 2.00


   CONVERGENCE PARAMETER FOR PSEUDOCHARGE: NCON=  9
   MAXIMAL VALUE OF RMT(JATOM)*ABSK(NKK) : RK  =27.59515


:VKCOUL :  VK-COUL convergence: 0.143E-06
       ATOMNUMBER=  1 Pr1        VCOUL-ZERO = -0.55440E-01
:EFG001:                        EFG         =    -6.41406   *10**21  V / m**2
                               V20  TOT/SRF=    -5.55474    -0.01691
                               V22  TOT/SRF=     0.27461     0.00193
                               V22M TOT/SRF=     0.00000     0.00000
                               V21  TOT/SRF=     0.00000     0.00000
                               V21M TOT/SRF=     0.00000     0.00000

              3.48164    0.00000    0.00000        3.48164    0.00000    0.00000
              0.00000    2.93242    0.00000        0.00000    2.93242    0.00000
              0.00000    0.00000   -6.41406        0.00000    0.00000   -6.41406

         MAIN DIRECTIONS OF THE EFG   1.0000  0.0000  0.0000
                                      0.0000  1.0000  0.0000
                                      0.0000  0.0000  1.0000
:ANG001:  ANGLE WITH OLD X-AXIS =         0.0

:ETA001:                         ASYMM. ETA =     0.08563


     HELLMANN-FEYNMAN-FORCE IN mRy/a.u. = |F|  Fx       Fy             Fz
:FHF001:   1.ATOM   1136.868516345904      0.000000000000      0.000000000000  -1136.868516345904

:FIT001: LUSE= 13 SIGMA OF V-XC FIT FOR ATOM  1  0.5820286E-04
:FIT001: LUSE= 13 SIGMA OF V-XC FIT FOR ATOM  1  0.5820286E-04
:DEN  : DENSITY INTEGRAL  =        -14137.13830931   (Ry)
       ELS_POTENTIAL_AT Z=0 and Z=0.5:   0.65263   0.65263
       ELS_POTENTIAL_AT Y=0 and Y=0.5:   0.08416   0.08416
:VZERO:v0,v0c,v0x   0.11284   0.65263  -0.53979 v5,v5c,v5x   0.11284   0.65263  -0.53979
:VZERY:v0,v0c,v0x  -0.63973   0.08416  -0.72389 v5,v5c,v5x  -0.63973   0.08416  -0.72389
:VZERX:v0,v0c,v0x  -1.06489  -0.36541  -0.69948 v5,v5c,v5x  -1.06489  -0.36541  -0.69948
:LMAX-WF:   10   Non-Spherical LMAX:   4

          ATOMIC SPHERE DEPENDENT PARAMETERS FOR ATOM  Pr1       
:e__0001: OVERALL ENERGY PARAMETER IS    0.3202
          OVERALL BASIS SET ON ATOM IS LAPW
:E0_0001: E( 0)=    0.3202
             APW+lo
:E0_0001: E( 0)=   -2.1536   E(BOTTOM)=   -2.791   E(TOP)=   -1.516  4  5   167
             LOCAL ORBITAL
:E1_0001: E( 1)=    0.7202
             APW+lo
:E1_0001: E( 1)=   -0.6849   E(BOTTOM)=   -1.644   E(TOP)=    0.275  3  4   201
             LOCAL ORBITAL
:E3_0001: E( 3)=    0.5100   E(BOTTOM)=    0.299   E(TOP)=    0.721  0  1   122
             APW+lo
:E2_0001: E( 2)=    0.3202   E(BOTTOM)=    0.096   E(TOP)= -200.000  2 -1    94
             APW+lo

       K=   0.06250   0.00000   0.06250            1
:RKM  : MATRIX SIZE   509LOs:  40  RKM= 8.50  WEIGHT= 4.00  PGR:    
       EIGENVALUES ARE:
:EIG00001:      -2.1187942   -2.1104717   -0.8303216   -0.7791087   -0.7673114
:EIG00006:      -0.7624048   -0.7577490   -0.7576404    0.2911289    0.4365322
:EIG00011:       0.5258487    0.5267626    0.5271068    0.5289271    0.5308950
:EIG00016:       0.5398103    0.5425306    0.5427082    0.5449871    0.5468754
:EIG00021:       0.5494866    0.5531938    0.5539585    0.5574894    0.5894984
:EIG00026:       0.6016357    0.6600768    0.6850251    0.6944269    0.7345949
:EIG00031:       0.7495909    0.8172094    0.8603207    0.8956957    1.1394857
:EIG00036:       1.1894424    1.2773011    1.2808165    1.4211829    1.4739287
:EIG00041:       1.5080466    1.6096143    1.6665329    1.6892829    1.7601098
:EIG00046:       1.8370264    1.8429246    1.8765880    1.9450263    2.0193858
 
:EIG00051:       2.0686926    2.1227232    2.1403013    2.1892173    2.2121700
:EIG00056:       2.2955726    2.3383642    2.3504171    2.4403939    2.4742385
:EIG00061:       2.5355640    2.5675550    2.6830896    2.7697416    2.7832409
:EIG00066:       2.8708619    2.9077038    2.9221162    2.9306578    3.0196714
:EIG00071:       3.0281482    3.0737212    3.0976687    3.1304099    3.1439013
:EIG00076:       3.1849289    3.2247228    3.2556975    3.2843602    3.3048042
:EIG00081:       3.3457913    3.3897295    3.3990053    3.4377911    3.4908805
:EIG00086:       3.5175916    3.5877358    3.5957134    3.6263954    3.6357676
:EIG00091:       3.6695728    3.6868522    3.7360541    3.7380940    3.7430899
:EIG00096:       3.8052340    3.8263711    3.8320814    3.8462181    3.9260264
 
:EIG00101:       3.9771215    4.1027720    4.1078841    4.1606283    4.2003581
:EIG00106:       4.2158188    4.2470501    4.2493794    4.2994463    4.3270577
:EIG00111:       4.3922152    4.4082831    4.4318931    4.4468230    4.4769357
:EIG00116:       4.5393880    4.6104740    4.6468023    4.6480917    4.6756952
:EIG00121:       4.7064083    4.7960132    4.7982403    4.8338125    4.8859888
:EIG00126:       4.9506569    4.9583373    4.9994797    5.0487423    5.0689531
:EIG00131:       5.0926801    5.1385482    5.1733198    5.1897740    5.2037590
:EIG00136:       5.2578889    5.3021780    5.3487813    5.3634723    5.3932154
:EIG00141:       5.4056016    5.4090768    5.4579834    5.5083022    5.5184570
:EIG00146:       5.5390810    5.5612528    5.5656404    5.5667930    5.6658813
 
:EIG00151:       5.6743080    5.7032452    5.7783863    5.8039625    5.8202779
:EIG00156:       5.9306059    6.0057411    6.0225506    6.0651302    6.0805774
:EIG00161:       6.1062734    6.1834927    6.2231649    6.2291657    6.2351043
:EIG00166:       6.3057868    6.3396284    6.3451400    6.3726751    6.3916726
:EIG00171:       6.4114610    6.4749546    6.4929999    6.5128524    6.5671203
:EIG00176:       6.5672432    6.6062145    6.6304427    6.6645441    6.6782630
:EIG00181:       6.7524606    6.7670921    6.7725420    6.7991626    6.8380047
:EIG00186:       6.8403755    6.8535740    6.9328485    6.9415497    6.9494435
:EIG00191:       7.0007713    7.0120527    7.0566917    7.0709199    7.1025076
:EIG00196:       7.1171408    7.1175554    7.1526368    7.1580435    7.2029524
 
:EIG00201:       7.2230071    7.2819137    7.2838760    7.2927793    7.3462684
:EIG00206:       7.3541987    7.3695964    7.4249023    7.4536033    7.4827384
:EIG00211:       7.4861348    7.5325102    7.5360754    7.5527468    7.5660250
:EIG00216:       7.6012844    7.6108404    7.6118526    7.6397890    7.6815898
:EIG00221:       7.7059572    7.7516350    7.7538443    7.7612486    7.7686916
:EIG00226:       7.7799783    7.8165916    7.8217521    7.8604016    7.9196464
:EIG00231:       7.9222555    7.9657669    8.0046990    8.0148624
       ********************************************************

:KPT   :      NUMBER OF K-POINTS:   288
   0.0   0.0 angle (M,z), angle (M,x) deg
 
        SPIN-ORBIT EIGENVALUES:
     K=   0.06250   0.00000   0.06250            1
      MATRIX SIZE=  468   WEIGHT= 4.00
     EIGENVALUES ARE:
          -2.1187942   -2.1187942   -2.1104718   -2.1104718   -0.9334280
          -0.9334280   -0.9086230   -0.9086230   -0.7447881   -0.7447881
          -0.6996423   -0.6996423   -0.6973848   -0.6973848   -0.6913641
          -0.6913641    0.2911534    0.2911534    0.4364117    0.4364117
           0.5182443    0.5182443    0.5201675    0.5201675    0.5206463
           0.5206463    0.5218051    0.5218051    0.5239096    0.5239096
           0.5264469    0.5264469    0.5433056    0.5433056    0.5494008
           0.5494008    0.5520532    0.5520532    0.5528222    0.5528222

           0.5564964    0.5564964    0.5592884    0.5592884    0.5601444
           0.5601444    0.5634291    0.5634291    0.5902345    0.5902345
           0.6015728    0.6015728    0.6601109    0.6601111    0.6827430
           0.6827430    0.6963476    0.6963477    0.7351311    0.7351311
           0.7495711    0.7495711    0.8170125    0.8170126    0.8606262
           0.8606262    0.8958306    0.8958306    1.1394821    1.1394821
           1.1896400    1.1896400    1.2772583    1.2772583    1.2808596
           1.2808596    1.4206820    1.4206820    1.4732197    1.4732197

           1.5080424    1.5080424    1.6072029    1.6072029    1.6659785
           1.6659785    1.6901071    1.6901071    1.7607221    1.7607221
           1.8351604    1.8351604    1.8413213    1.8413213    1.8789078
           1.8789078    1.9454594    1.9454594    2.0188386    2.0188386
           2.0683794    2.0683794    2.1203233    2.1203233    2.1419577
           2.1419577    2.1907670    2.1907670    2.2129678    2.2129678
           2.2954981    2.2954981    2.3381666    2.3381666    2.3510719
           2.3510719    2.4403228    2.4403228    2.4739967    2.4739967

           2.5387667    2.5387667    2.5677610    2.5677610    2.6830148
           2.6830148    2.7698464    2.7698464    2.7833471    2.7833471
           2.8705325    2.8705325    2.9076831    2.9076831    2.9221694
           2.9221694    2.9308868    2.9308868    3.0198260    3.0198260
           3.0282452    3.0282452    3.0737711    3.0737711    3.0977175
           3.0977175    3.1297725    3.1297725    3.1448344    3.1448344
           3.1850585    3.1850585    3.2259070    3.2259070    3.2557729
           3.2557729    3.2843725    3.2843725    3.3051888    3.3051888

           3.3460036    3.3460036    3.3897458    3.3897458    3.3990827
           3.3990827    3.4379458    3.4379458    3.4909048    3.4909048
           3.5177113    3.5177113    3.5878357    3.5878357    3.5957021
           3.5957021    3.6263755    3.6263755    3.6358186    3.6358186
           3.6695846    3.6695846    3.6868962    3.6868962    3.7353220
           3.7353220    3.7383935    3.7383935    3.7432424    3.7432424
           3.8052182    3.8052182    3.8258237    3.8258237    3.8327934
           3.8327934    3.8463046    3.8463046    3.9260591    3.9260591

           3.9769327    3.9769327    4.1006588    4.1006588    4.1093303
           4.1093303    4.1615303    4.1615303    4.2002398    4.2002398
           4.2159449    4.2159449    4.2468424    4.2468424    4.2505493
           4.2505493    4.2996373    4.2996373    4.3271629    4.3271629
           4.3922387    4.3922387    4.4084672    4.4084672    4.4321856
           4.4321856    4.4469567    4.4469567    4.4769554    4.4769554

       ********************************************************
:GAP (global)   :    0.0    Ry =     0.0   eV (metal)
:GAP (this spin):    0.0    Ry =     0.0   eV (metal)
         Bandranges (emin - emax) and occupancy:
:BAN00018:  18    0.286880    0.495610  1.00000000
:BAN00019:  19    0.390814    0.507832  1.00000000
:BAN00020:  20    0.390814    0.507832  1.00000000
:BAN00021:  21    0.477474    0.518244  1.00000000
:BAN00022:  22    0.477474    0.518244  1.00000000
:BAN00023:  23    0.508442    0.520930  1.00000000
:BAN00024:  24    0.508442    0.520930  1.00000000
:BAN00025:  25    0.514730    0.526569  0.80728933
:BAN00026:  26    0.514730    0.526569  0.80728902
:BAN00027:  27    0.520050    0.527010  0.19271104
:BAN00028:  28    0.520050    0.527010  0.19271060
:BAN00029:  29    0.523081    0.530085  0.00000000
:BAN00030:  30    0.523081    0.530085  0.00000000
:BAN00031:  31    0.525348    0.534250  0.00000000
:BAN00032:  32    0.525348    0.534250  0.00000000
:BAN00033:  33    0.528258    0.543520  0.00000000
        Energy to separate low and high energystates:    0.23688


:NOE  : NUMBER OF ELECTRONS          =   26.000

:FER  : F E R M I - ENERGY(TETRAH.M.)=   0.5224343423
:GMA  : POTENTIAL AND CHARGE CUT-OFF  12.00 Ry**.5

:POS001: ATOM   -1 X,Y,Z = 0.00000 0.89750 0.25000  MULT= 2  ZZ= 59.000  Pr1       

       LMMAX 16
       LM=   0 0  1 0  2 0  2 2  3 0  3 2  4 0  4 2  4 4  5 0  5 2  5 4  6 0  6 2  6 4  6 6

:CHA001: TOTAL VALENCE CHARGE INSIDE SPHERE   1 =   9.5744    (RMT=  2.3000 )
:PCS001: PARTIAL CHARGES SPHERE =  1 S,P,D,F,PX,PY,PZ,D-Z2,D-X2Y2,D-XY,D-XZ,D-YZ 
:QTL001: 1.9377 5.0172 0.4206 2.1988 1.6699 1.6701 1.6772 0.0758 0.0759 0.0980 0.0788 0.0920
        Q-s-low E-s-low   Q-p-low E-p-low   Q-d-low E-d-low   Q-f-low E-f-low
:EPL001:  1.8695 -2.1107    4.9602 -0.7935    0.0008 -0.7809    0.0002 -0.7886
        Q-s-hi  E-s-hi    Q-p-hi  E-p-hi    Q-d-hi  E-d-hi    Q-f-hi  E-f-hi 
:EPH001:  0.0682  0.4244    0.0570  0.4614    0.4198  0.4813    2.1986  0.5137

                      VXX         VYY         VZZ       UP TO R
:VZZ001:             4.02728     1.26159    -5.28887       2.300

:CHA  : TOTAL VALENCE CHARGE INSIDE UNIT CELL =      26.000000

:SUM  : SUM OF EIGENVALUES =         -13.072514592


        1.ATOM      Pr1                  14 CORE STATES
       CORE-FORCE in mRy/a.u. = |F|      Fx             Fy             Fz
:FCO001:   1.ATOM   1106.253103379184      0.000000000000      0.000000000000   1106.253103379184

:1S 001: 1S               -3067.072222652 Ry
:2S 001: 2S                -492.822469545 Ry
:2PP001: 2P*               -465.922285930 Ry
:2P 001: 2P                -430.524544990 Ry
:3S 001: 3S                -105.906477665 Ry
:3PP001: 3P*                -94.444610260 Ry
:3P 001: 3P                 -87.436550593 Ry
:3DD001: 3D*                -67.364367325 Ry
:3D 001: 3D                 -65.852706832 Ry
:4S 001: 4S                 -20.586413079 Ry
:4PP001: 4P*                -16.293710572 Ry
:4P 001: 4P                 -14.766977405 Ry
:4DD001: 4D*                 -7.701341721 Ry
:4D 001: 4D                  -7.432180458 Ry
:CINT001 Core Integral Atom   1   45.998475

       DENSITY AT NUCLEUS
        JATOM        VALENCE       SEMI-CORE          CORE           TOTAL
:RTO001:   1      645.443361        0.000000   656824.480499   657469.923860
     
       CHARGES OF NEW CHARGE DENSITY
:NTO   : INTERSTITIAL CHARGE =     6.851244
:NPC   : PW Pseudocharge     =    16.777750
:NTO001: CHARGE SPHERE  1    =    55.572852

:NEC01: NUCLEAR AND ELECTRONIC CHARGE    118.00000   117.99695
     
       CHARGES OF OLD CHARGE DENSITY
:OTO   : INTERSTITIAL CHARGE =     7.013433
:OPC   : PW Pseudocharge     =    16.816462
:OTO001: CHARGE SPHERE  1    =    55.493283

:NEC02: NUCLEAR AND ELECTRONIC CHARGE    118.00000   118.00000
     
       CONVERGENCE TEST
:DTO001: DIFFERENCE IN SPHERE  1 =  0.1337827

:DIS  :  CHARGE DISTANCE       ( 0.1337827 for atom    1 spin 1)      0.1337827
 PW Mixed is          560
 
******************************************************
* MULTISECANT MIXING VER9 RELEASE 10.4.0              *
* Slow Mode, cautious                                *
* Fixed density scale                                *
* Regularization       1.000E-04                     *
* Step Trust Radius    0.75000                       *
* Trust Upper Limit    2.000E+00                     *
* Max Number of Memory Steps   12                    *
******************************************************
 
:PWTMP   4.4873E+02  1.9467E+02  5.5066E+02
:PLANE:  PW TOTAL      4.3144 DISTAN   1.96E-02  4.55E-01 %
:CHARG:  CLM/ATOM   1381.9391 DISTAN   2.79E-01  2.02E-02 %
 
Step History
        DMIX         DMIXT        Red     Pred      Trust     Lambda    MagRel    MagAbs     Beta
  1   3.5000E-02   3.5000E-02 -1.00E+00  1.00E+00 -1.00E+01  1.00E+00  3.50E-02  3.50E-02  1.00E+00
  2   2.5000E-02   2.5000E-02 -1.00E+00  1.00E+00 -1.00E+01  1.00E+00  2.50E-02  1.14E-02  1.00E+00
:JACOBIANS    9.132E-04   2.536E-02
  
:TRUST:  Step 3.04E-02  Charge 7.50E-02 (e) CTO  2.50E-01 (e) PW  3.50E-01 (e)
:DIRM :  MEMORY  1/12 SCALE   1.000
:MIX  :   PRATT  REGULARIZATION:  1.00E-04 GREED: 0.03036  Expand 1.21  0.0304                
     
       CHARGES OF MIXED CHARGE DENSITY
:CTO   : INTERSTITIAL CHARGE =     7.004679
:CPC   : PW Pseudocharge     =    16.796909
:CTO001: CHARGE SPHERE  1    =    55.497661

:NEC03: NUCLEAR AND ELECTRONIC CHARGE    118.00000   118.00000

PW CHANGE     H    K    L      Current       Change    Residue
:PTO001:      0    0    0  4.32234330E-02 -5.141E-05 -3.457E-04
:PTO003:      0    2    0  1.26628229E-02 -1.032E-05  2.955E-05
:PTO004:     -1    1    0  6.29463304E-02 -6.276E-05 -1.096E-04
:PTO005:      0    2   -1 -7.35834026E-02  6.309E-05 -1.306E-04
:PTO006:      0    0   -2 -3.80488687E-02  3.565E-05 -1.687E-06
:PTO007:     -1    1   -1 -8.07907764E-02  6.990E-05 -6.844E-05
:PTO008:      0    2   -2 -1.36541359E-02  1.120E-05  1.141E-05
:PTO009:     -1    1   -2 -7.15356686E-02  4.941E-05 -2.793E-05
:PTO011:     -1    3    0 -1.21031859E-02  8.574E-06  7.130E-05
:PTO012:     -1    3   -1 -5.53562764E-02  1.831E-05 -2.961E-05
:PTO013:      0    4    0 -1.04211017E-02  2.428E-07 -2.953E-05
:PTO014:      0    2   -3  2.37943174E-02 -3.684E-06 -4.501E-06

:ENE  : ********** TOTAL ENERGY IN Ry =       -36944.17248647

       TOTAL FORCE IN mRy/a.u. = |F|     Fx             Fy             Fz     with/without FOR in case.in2
:FOR001:   1.ATOM         30.615          0.000          0.000        -30.615 partial forces
       TOTAL FORCE WITH RESPECT TO GLOBAL CARTESIAN COORDINATES:
:FCA001:   1.ATOM                         0.000        -30.615          0.000 partial forces
       TOTAL FORCE WITH RESPECT TO THE GLOBAL COORDINATE SYSTEM:
:FGL001:   1.ATOM                 0.000000000   -30.615412967     0.000000000 partial forces
 Flat Integration
 New Mode for Coulomb Integral
 Consistent 3/8+Simpson combinations
 Extension of core to zero
 LDM version in phi
 Fifth-order quadrature in outwin


            ---------
:ITE017: 17. ITERATION
            ---------

:NATO :    1 INDEPENDENT AND    2 TOTAL ATOMS IN UNITCELL
       SUBSTANCE: aU                                                          

       LATTICE                      = CXY 
:POT  : POTENTIAL OPTION EX_LDA EC_LDA VX_LDA VC_LDA
:LAT  : LATTICE CONSTANTS=  6.76640 13.73073 11.85402    1.571    1.571    1.571
:VOL  : UNIT CELL VOLUME =     550.66398
       MODE OF CALCULATION IS       = RELA
       NON-SPINPOLARIZED CALCULATION
:IFFT  : FFT-parameters:   54  108   96 Factor: 2.00


   CONVERGENCE PARAMETER FOR PSEUDOCHARGE: NCON=  9
   MAXIMAL VALUE OF RMT(JATOM)*ABSK(NKK) : RK  =27.59515


:VKCOUL :  VK-COUL convergence: 0.142E-06
       ATOMNUMBER=  1 Pr1        VCOUL-ZERO = -0.55335E-01
:EFG001:                        EFG         =    -6.34483   *10**21  V / m**2
                               V20  TOT/SRF=    -5.49479    -0.01655
                               V22  TOT/SRF=     0.31520     0.00218
                               V22M TOT/SRF=     0.00000     0.00000
                               V21  TOT/SRF=     0.00000     0.00000
                               V21M TOT/SRF=     0.00000     0.00000

              3.48762    0.00000    0.00000        3.48762    0.00000    0.00000
              0.00000    2.85722    0.00000        0.00000    2.85722    0.00000
              0.00000    0.00000   -6.34483        0.00000    0.00000   -6.34483

         MAIN DIRECTIONS OF THE EFG   1.0000  0.0000  0.0000
                                      0.0000  1.0000  0.0000
                                      0.0000  0.0000  1.0000
:ANG001:  ANGLE WITH OLD X-AXIS =         0.0

:ETA001:                         ASYMM. ETA =     0.09936


     HELLMANN-FEYNMAN-FORCE IN mRy/a.u. = |F|  Fx       Fy             Fz
:FHF001:   1.ATOM   1136.912073456500      0.000000000000      0.000000000000  -1136.912073456500

:FIT001: LUSE= 13 SIGMA OF V-XC FIT FOR ATOM  1  0.5752265E-04
:FIT001: LUSE= 13 SIGMA OF V-XC FIT FOR ATOM  1  0.5752265E-04
:DEN  : DENSITY INTEGRAL  =        -14138.01129297   (Ry)
       ELS_POTENTIAL_AT Z=0 and Z=0.5:   0.65169   0.65169
       ELS_POTENTIAL_AT Y=0 and Y=0.5:   0.08406   0.08406
:VZERO:v0,v0c,v0x   0.11215   0.65169  -0.53954 v5,v5c,v5x   0.11215   0.65169  -0.53954
:VZERY:v0,v0c,v0x  -0.63953   0.08406  -0.72360 v5,v5c,v5x  -0.63953   0.08406  -0.72360
:VZERX:v0,v0c,v0x  -1.06410  -0.36491  -0.69919 v5,v5c,v5x  -1.06410  -0.36491  -0.69919
:LMAX-WF:   10   Non-Spherical LMAX:   4

          ATOMIC SPHERE DEPENDENT PARAMETERS FOR ATOM  Pr1       
:e__0001: OVERALL ENERGY PARAMETER IS    0.3217
          OVERALL BASIS SET ON ATOM IS LAPW
:E0_0001: E( 0)=    0.3217
             APW+lo
:E0_0001: E( 0)=   -2.1506   E(BOTTOM)=   -2.788   E(TOP)=   -1.513  4  5   167
             LOCAL ORBITAL
:E1_0001: E( 1)=    0.7217
             APW+lo
:E1_0001: E( 1)=   -0.6822   E(BOTTOM)=   -1.642   E(TOP)=    0.278  3  4   196
             LOCAL ORBITAL
:E3_0001: E( 3)=    0.5153   E(BOTTOM)=    0.304   E(TOP)=    0.727  0  1   121
             APW+lo
:E2_0001: E( 2)=    0.3217   E(BOTTOM)=    0.098   E(TOP)= -200.000  2 -1    96
             APW+lo

       K=   0.06250   0.00000   0.06250            1
:RKM  : MATRIX SIZE   509LOs:  40  RKM= 8.50  WEIGHT= 4.00  PGR:    
       EIGENVALUES ARE:
:EIG00001:      -2.1159414   -2.1075853   -0.8284095   -0.7770586   -0.7652223
:EIG00006:      -0.7600855   -0.7555729   -0.7553025    0.2909213    0.4365807
:EIG00011:       0.5303953    0.5315100    0.5318607    0.5337498    0.5355400
:EIG00016:       0.5450647    0.5477595    0.5479805    0.5502691    0.5518961
:EIG00021:       0.5548215    0.5584451    0.5591410    0.5626999    0.5911907
:EIG00026:       0.6026558    0.6608183    0.6856174    0.6950359    0.7352366
:EIG00031:       0.7503171    0.8180020    0.8612646    0.8966702    1.1402913
:EIG00036:       1.1896275    1.2774603    1.2808490    1.4211935    1.4738813
:EIG00041:       1.5081833    1.6097842    1.6667962    1.6894989    1.7605831
:EIG00046:       1.8372377    1.8429128    1.8768434    1.9451501    2.0198347
 
:EIG00051:       2.0689390    2.1229142    2.1403718    2.1896578    2.2124496
:EIG00056:       2.2956285    2.3390186    2.3503236    2.4405755    2.4745660
:EIG00061:       2.5359943    2.5675332    2.6833521    2.7699210    2.7830064
:EIG00066:       2.8708459    2.9080459    2.9225005    2.9306073    3.0196722
:EIG00071:       3.0278923    3.0736533    3.0976366    3.1304583    3.1438937
:EIG00076:       3.1850533    3.2246123    3.2557012    3.2842461    3.3048392
:EIG00081:       3.3457873    3.3894142    3.3988538    3.4378242    3.4906561
:EIG00086:       3.5172812    3.5875335    3.5953372    3.6260733    3.6356776
:EIG00091:       3.6692510    3.6866974    3.7361087    3.7378196    3.7431586
:EIG00096:       3.8049408    3.8262518    3.8317752    3.8458788    3.9256520
 
:EIG00101:       3.9771067    4.1025500    4.1078838    4.1603907    4.2001272
:EIG00106:       4.2155866    4.2468184    4.2491215    4.2992375    4.3267834
:EIG00111:       4.3921790    4.4079115    4.4319116    4.4462905    4.4768883
:EIG00116:       4.5393446    4.6106190    4.6464884    4.6482788    4.6758046
:EIG00121:       4.7061518    4.7958708    4.7982755    4.8336623    4.8856659
:EIG00126:       4.9507080    4.9582176    4.9993850    5.0485302    5.0689067
:EIG00131:       5.0923847    5.1383521    5.1731843    5.1894958    5.2036110
:EIG00136:       5.2575948    5.3019715    5.3484836    5.3634376    5.3929959
:EIG00141:       5.4054783    5.4089523    5.4578564    5.5078828    5.5185302
:EIG00146:       5.5388019    5.5609319    5.5654119    5.5664053    5.6655510
 
:EIG00151:       5.6743800    5.7028688    5.7780877    5.8037128    5.8201069
:EIG00156:       5.9302868    6.0055497    6.0225049    6.0649300    6.0804165
:EIG00161:       6.1061662    6.1831230    6.2229491    6.2291415    6.2350023
:EIG00166:       6.3056417    6.3393940    6.3449420    6.3724213    6.3914793
:EIG00171:       6.4113343    6.4748155    6.4928866    6.5128101    6.5669847
:EIG00176:       6.5674271    6.6061092    6.6305079    6.6644110    6.6782323
:EIG00181:       6.7524158    6.7670331    6.7723331    6.7987919    6.8379450
:EIG00186:       6.8401397    6.8532498    6.9327899    6.9413342    6.9492704
:EIG00191:       7.0004989    7.0117841    7.0564863    7.0706687    7.1023924
:EIG00196:       7.1168467    7.1174028    7.1523387    7.1578303    7.2027612
 
:EIG00201:       7.2225835    7.2815626    7.2835178    7.2925854    7.3462023
:EIG00206:       7.3540303    7.3693901    7.4245793    7.4533428    7.4825900
:EIG00211:       7.4858073    7.5322668    7.5358290    7.5524887    7.5657634
:EIG00216:       7.6010769    7.6106010    7.6115949    7.6394598    7.6811840
:EIG00221:       7.7055587    7.7512711    7.7534678    7.7608990    7.7682899
:EIG00226:       7.7796544    7.8162335    7.8214099    7.8600624    7.9192867
:EIG00231:       7.9219142    7.9654311    8.0042186    8.0146408
       ********************************************************

:KPT   :      NUMBER OF K-POINTS:   288
   0.0   0.0 angle (M,z), angle (M,x) deg
 
        SPIN-ORBIT EIGENVALUES:
     K=   0.06250   0.00000   0.06250            1
      MATRIX SIZE=  468   WEIGHT= 4.00
     EIGENVALUES ARE:
          -2.1159414   -2.1159414   -2.1075853   -2.1075853   -0.9312137
          -0.9312137   -0.9062843   -0.9062843   -0.7428584   -0.7428584
          -0.6974948   -0.6974948   -0.6952749   -0.6952749   -0.6892137
          -0.6892137    0.2909459    0.2909459    0.4364647    0.4364647
           0.5230111    0.5230111    0.5250953    0.5250953    0.5256449
           0.5256449    0.5267513    0.5267514    0.5289194    0.5289194
           0.5317638    0.5317638    0.5477494    0.5477494    0.5544778
           0.5544778    0.5571785    0.5571785    0.5579670    0.5579670

           0.5615045    0.5615045    0.5643458    0.5643458    0.5653229
           0.5653229    0.5686075    0.5686075    0.5921476    0.5921476
           0.6026887    0.6026887    0.6609156    0.6609158    0.6833398
           0.6833398    0.6969459    0.6969459    0.7357701    0.7357701
           0.7502989    0.7502990    0.8178064    0.8178065    0.8615679
           0.8615679    0.8968036    0.8968036    1.1402859    1.1402859
           1.1898265    1.1898265    1.2774167    1.2774167    1.2808941
           1.2808941    1.4206947    1.4206947    1.4731746    1.4731746

           1.5081782    1.5081782    1.6073807    1.6073807    1.6662322
           1.6662322    1.6903233    1.6903233    1.7611926    1.7611926
           1.8353138    1.8353138    1.8413929    1.8413929    1.8791395
           1.8791395    1.9455908    1.9455908    2.0192815    2.0192815
           2.0686267    2.0686267    2.1205053    2.1205053    2.1420409
           2.1420409    2.1911745    2.1911745    2.2132651    2.2132651
           2.2955647    2.2955647    2.3387637    2.3387637    2.3510257
           2.3510257    2.4405079    2.4405079    2.4743258    2.4743258

           2.5391907    2.5391907    2.5677429    2.5677429    2.6832766
           2.6832766    2.7700242    2.7700242    2.7831140    2.7831140
           2.8705218    2.8705218    2.9080224    2.9080224    2.9225459
           2.9225459    2.9308395    2.9308395    3.0198248    3.0198248
           3.0279915    3.0279915    3.0737028    3.0737028    3.0976858
           3.0976858    3.1298157    3.1298157    3.1448317    3.1448317
           3.1851830    3.1851830    3.2257981    3.2257981    3.2557766
           3.2557766    3.2842599    3.2842599    3.3052217    3.3052217

           3.3459994    3.3459994    3.3894306    3.3894306    3.3989325
           3.3989325    3.4379784    3.4379784    3.4906806    3.4906806
           3.5174006    3.5174006    3.5876333    3.5876333    3.5953262
           3.5953262    3.6260538    3.6260538    3.6357285    3.6357285
           3.6692630    3.6692630    3.6867415    3.6867415    3.7353407
           3.7353407    3.7381570    3.7381570    3.7433064    3.7433064
           3.8049255    3.8049255    3.8256876    3.8256876    3.8325065
           3.8325065    3.8459656    3.8459656    3.9256850    3.9256850

           3.9769168    3.9769168    4.1004855    4.1004855    4.1092728
           4.1092728    4.1612989    4.1612989    4.2000116    4.2000116
           4.2157122    4.2157122    4.2465922    4.2465922    4.2503073
           4.2503073    4.2994293    4.2994293    4.3268893    4.3268893
           4.3921996    4.3921996    4.4081001    4.4081001    4.4321978
           4.4321978    4.4464292    4.4464292    4.4769081    4.4769081

       ********************************************************
:GAP (global)   :    0.0    Ry =     0.0   eV (metal)
:GAP (this spin):    0.0    Ry =     0.0   eV (metal)
         Bandranges (emin - emax) and occupancy:
:BAN00018:  18    0.286669    0.496696  1.00000000
:BAN00019:  19    0.390710    0.510420  1.00000000
:BAN00020:  20    0.390710    0.510420  1.00000000
:BAN00021:  21    0.478032    0.523011  1.00000000
:BAN00022:  22    0.478032    0.523011  1.00000000
:BAN00023:  23    0.510996    0.525141  1.00000000
:BAN00024:  24    0.510996    0.525141  1.00000000
:BAN00025:  25    0.518811    0.531722  0.81300812
:BAN00026:  26    0.518811    0.531722  0.81300794
:BAN00027:  27    0.524736    0.532250  0.18699520
:BAN00028:  28    0.524736    0.532250  0.18699485
:BAN00029:  29    0.528090    0.534550  0.00000000
:BAN00030:  30    0.528090    0.534550  0.00000000
:BAN00031:  31    0.530478    0.538174  0.00000000
:BAN00032:  32    0.530478    0.538174  0.00000000
:BAN00033:  33    0.533385    0.547950  0.00000000
        Energy to separate low and high energystates:    0.23667


:NOE  : NUMBER OF ELECTRONS          =   26.000

:FER  : F E R M I - ENERGY(TETRAH.M.)=   0.5273220345
:GMA  : POTENTIAL AND CHARGE CUT-OFF  12.00 Ry**.5

:POS001: ATOM   -1 X,Y,Z = 0.00000 0.89750 0.25000  MULT= 2  ZZ= 59.000  Pr1       

       LMMAX 16
       LM=   0 0  1 0  2 0  2 2  3 0  3 2  4 0  4 2  4 4  5 0  5 2  5 4  6 0  6 2  6 4  6 6

:CHA001: TOTAL VALENCE CHARGE INSIDE SPHERE   1 =   9.4884    (RMT=  2.3000 )
:PCS001: PARTIAL CHARGES SPHERE =  1 S,P,D,F,PX,PY,PZ,D-Z2,D-X2Y2,D-XY,D-XZ,D-YZ 
:QTL001: 1.9380 5.0180 0.4462 2.0861 1.6699 1.6703 1.6778 0.0815 0.0816 0.1011 0.0839 0.0980
        Q-s-low E-s-low   Q-p-low E-p-low   Q-d-low E-d-low   Q-f-low E-f-low
:EPL001:  1.8692 -2.1078    4.9578 -0.7914    0.0008 -0.7787    0.0002 -0.7865
        Q-s-hi  E-s-hi    Q-p-hi  E-p-hi    Q-d-hi  E-d-hi    Q-f-hi  E-f-hi 
:EPH001:  0.0688  0.4253    0.0602  0.4647    0.4454  0.4844    2.0859  0.5180

                      VXX         VYY         VZZ       UP TO R
:VZZ001:             4.33594     2.33592    -6.67186       2.300

:CHA  : TOTAL VALENCE CHARGE INSIDE UNIT CELL =      26.000006

:SUM  : SUM OF EIGENVALUES =         -13.012149923


        1.ATOM      Pr1                  14 CORE STATES
       CORE-FORCE in mRy/a.u. = |F|      Fx             Fy             Fz
:FCO001:   1.ATOM   1106.225816426776      0.000000000000      0.000000000000   1106.225816426776

:1S 001: 1S               -3067.062262237 Ry
:2S 001: 2S                -492.812489495 Ry
:2PP001: 2P*               -465.912310202 Ry
:2P 001: 2P                -430.514567913 Ry
:3S 001: 3S                -105.896713724 Ry
:3PP001: 3P*                -94.434825821 Ry
:3P 001: 3P                 -87.426804247 Ry
:3DD001: 3D*                -67.354551708 Ry
:3D 001: 3D                 -65.842900592 Ry
:4S 001: 4S                 -20.578666723 Ry
:4PP001: 4P*                -16.286091693 Ry
:4P 001: 4P                 -14.759555473 Ry
:4DD001: 4D*                 -7.694271444 Ry
:4D 001: 4D                  -7.425177660 Ry
:CINT001 Core Integral Atom   1   45.998470

       DENSITY AT NUCLEUS
        JATOM        VALENCE       SEMI-CORE          CORE           TOTAL
:RTO001:   1      645.319137        0.000000   656824.063407   657469.382545
     
       CHARGES OF NEW CHARGE DENSITY
:NTO   : INTERSTITIAL CHARGE =     7.023130
:NPC   : PW Pseudocharge     =    16.817083
:NTO001: CHARGE SPHERE  1    =    55.486907

:NEC01: NUCLEAR AND ELECTRONIC CHARGE    118.00000   117.99694
     
       CHARGES OF OLD CHARGE DENSITY
:OTO   : INTERSTITIAL CHARGE =     7.004679
:OPC   : PW Pseudocharge     =    16.796909
:OTO001: CHARGE SPHERE  1    =    55.497661

:NEC02: NUCLEAR AND ELECTRONIC CHARGE    118.00000   118.00000
     
       CONVERGENCE TEST
:DTO001: DIFFERENCE IN SPHERE  1 =  0.0166677

:DIS  :  CHARGE DISTANCE       ( 0.0166677 for atom    1 spin 1)      0.0166677
 PW Mixed is          560
 
******************************************************
* MULTISECANT MIXING VER9 RELEASE 10.4.0              *
* Slow Mode, cautious                                *
* Fixed density scale                                *
* Regularization       1.000E-04                     *
* Step Trust Radius    0.75000                       *
* Trust Upper Limit    2.000E+00                     *
* Max Number of Memory Steps   12                    *
******************************************************
 
:PWTMP   4.4873E+02  1.9467E+02  5.5066E+02
:PLANE:  PW TOTAL      4.3109 DISTAN   1.08E-02  2.50E-01 %
:CHARG:  CLM/ATOM   1381.9397 DISTAN   1.85E-01  1.34E-02 %
 
Step History
        DMIX         DMIXT        Red     Pred      Trust     Lambda    MagRel    MagAbs     Beta
  1   3.5000E-02   3.5000E-02 -1.00E+00  1.00E+00 -1.00E+01  1.00E+00  3.50E-02  3.50E-02  1.00E+00
  2   2.5000E-02   2.5000E-02  6.14E-01  1.00E+00 -1.00E+01  1.00E+00  2.50E-02  1.14E-02  1.00E+00
  3   3.0361E-02   3.0361E-02 -1.00E+00  1.00E+00 -1.00E+01  1.00E+00  3.04E-02  8.50E-03  1.00E+00
:JACOBIANS    1.512E-03   3.861E-02
  
:NORMS:  1/Froebius, Min, Max, Used   0.6217E-01  0.2181E-01  0.6217E-01  0.6217E-01
:INFO :  Number of Memory Steps    2 Skipping    0
:INFO :  SLambda=    0.4514985214  Max    0.4514985214
:PREDicted Charge, CTotal, PW Trust    3.987E-03   7.975E-03   9.116E-03
:PREDicted DMix, Beta, BLim   1.9491E-02  5.5863E-01  2.1240E-01

Eigenvalues, unscaled except for SY+YY
   #     SY Real        SY Imag          SS             YY         SY+YY Real      SY+YY Imag
   1   4.052314E-15   0.000000E+00   7.730815E-03   1.999853E+00   1.461952E-04   0.000000E+00
   2   1.059654E-01   0.000000E+00   0.000000E+00   1.468009E-04   2.047697E+00   0.000000E+00
 
:INFO :  Singular value  2.048E+00 Weight  1.000E+00 Projection -2.390E-03
:INFO :  Singular value  1.462E-04 Weight  3.483E-01 Projection  3.546E+00
:RANK :  ACTIVE   1.35/2  =  67.41 % ; YY RANK   1.35/2  =  67.51 %
 
:DLIM :  Beta Active  8.000E-01
:BLIM :  VZERO Control Off
:TRUST:  Step 3.33E-01  Charge 7.50E-02 (e) CTO  2.50E-01 (e) PW  3.50E-01 (e)
:DIRM :  MEMORY  2/12 SCALE   1.000 RED  0.66 PRED  1.00 NEXT  0.89 BETA  0.80
:TRAVE:  Charge 6.19E-04 (e) CTO  1.24E-03 (e) PW  1.25E-03 (e)
:DIRP :  |MSR1|= 6.733E-04 |PRATT|= 1.079E-02 ANGLE=  32.4 DEGREES
:DIRQ :  |MSR1|= 3.662E-03 |PRATT|= 1.846E-01 ANGLE=  21.0 DEGREES
:DIRT :  |MSR1|= 3.723E-03 |PRATT|= 1.849E-01 ANGLE=  22.2 DEGREES
:MIX  :   MSD1   REGULARIZATION:  2.00E-04 GREED: 0.02484  Newton 1.00  0.0201                
     
       CHARGES OF MIXED CHARGE DENSITY
:CTO   : INTERSTITIAL CHARGE =     7.005917
:CPC   : PW Pseudocharge     =    16.799219
:CTO001: CHARGE SPHERE  1    =    55.497042

:NEC03: NUCLEAR AND ELECTRONIC CHARGE    118.00000   118.00000

PW CHANGE     H    K    L      Current       Change    Residue
:PTO001:      0    0    0  4.32298759E-02  6.443E-06  8.898E-05
:PTO003:      0    2    0  1.26636434E-02  8.205E-07  2.527E-05
:PTO004:     -1    1    0  6.29518794E-02  5.549E-06  2.113E-05
:PTO005:      0    2   -1 -7.35919603E-02 -8.558E-06 -1.504E-04
:PTO006:      0    0   -2 -3.80535687E-02 -4.700E-06 -5.392E-05
:PTO007:     -1    1   -1 -8.07983393E-02 -7.563E-06 -8.639E-05
:PTO008:      0    2   -2 -1.36552953E-02 -1.159E-06  2.848E-06
:PTO009:     -1    1   -2 -7.15422106E-02 -6.542E-06 -3.436E-05
:PTO011:     -1    3    0 -1.21033159E-02 -1.300E-07  4.336E-05
:PTO012:     -1    3   -1 -5.53581721E-02 -1.896E-06 -5.953E-06
:PTO013:      0    4    0 -1.04209136E-02  1.882E-07 -1.926E-06
:PTO014:      0    2   -3  2.37945096E-02  1.922E-07 -1.227E-05

:ENE  : ********** TOTAL ENERGY IN Ry =       -36944.17182778

       TOTAL FORCE IN mRy/a.u. = |F|     Fx             Fy             Fz     with/without FOR in case.in2
:FOR001:   1.ATOM         30.686          0.000          0.000        -30.686 partial forces
       TOTAL FORCE WITH RESPECT TO GLOBAL CARTESIAN COORDINATES:
:FCA001:   1.ATOM                         0.000        -30.686          0.000 partial forces
       TOTAL FORCE WITH RESPECT TO THE GLOBAL COORDINATE SYSTEM:
:FGL001:   1.ATOM                 0.000000000   -30.686257030     0.000000000 partial forces
 Flat Integration
 New Mode for Coulomb Integral
 Consistent 3/8+Simpson combinations
 Extension of core to zero
 LDM version in phi
 Fifth-order quadrature in outwin


            ---------
:ITE018: 18. ITERATION
            ---------

:NATO :    1 INDEPENDENT AND    2 TOTAL ATOMS IN UNITCELL
       SUBSTANCE: aU                                                          

       LATTICE                      = CXY 
:POT  : POTENTIAL OPTION EX_LDA EC_LDA VX_LDA VC_LDA
:LAT  : LATTICE CONSTANTS=  6.76640 13.73073 11.85402    1.571    1.571    1.571
:VOL  : UNIT CELL VOLUME =     550.66398
       MODE OF CALCULATION IS       = RELA
       NON-SPINPOLARIZED CALCULATION
:IFFT  : FFT-parameters:   54  108   96 Factor: 2.00


   CONVERGENCE PARAMETER FOR PSEUDOCHARGE: NCON=  9
   MAXIMAL VALUE OF RMT(JATOM)*ABSK(NKK) : RK  =27.59515


:VKCOUL :  VK-COUL convergence: 0.142E-06
       ATOMNUMBER=  1 Pr1        VCOUL-ZERO = -0.55360E-01
:EFG001:                        EFG         =    -6.37738   *10**21  V / m**2
                               V20  TOT/SRF=    -5.52297    -0.01665
                               V22  TOT/SRF=     0.32493     0.00228
                               V22M TOT/SRF=     0.00000     0.00000
                               V21  TOT/SRF=     0.00000     0.00000
                               V21M TOT/SRF=     0.00000     0.00000

              3.51362    0.00000    0.00000        3.51362    0.00000    0.00000
              0.00000    2.86376    0.00000        0.00000    2.86376    0.00000
              0.00000    0.00000   -6.37738        0.00000    0.00000   -6.37738

         MAIN DIRECTIONS OF THE EFG   1.0000  0.0000  0.0000
                                      0.0000  1.0000  0.0000
                                      0.0000  0.0000  1.0000
:ANG001:  ANGLE WITH OLD X-AXIS =         0.0

:ETA001:                         ASYMM. ETA =     0.10190


     HELLMANN-FEYNMAN-FORCE IN mRy/a.u. = |F|  Fx       Fy             Fz
:FHF001:   1.ATOM   1138.011875964074      0.000000000000      0.000000000000  -1138.011875964074

:FIT001: LUSE= 13 SIGMA OF V-XC FIT FOR ATOM  1  0.5718477E-04
:FIT001: LUSE= 13 SIGMA OF V-XC FIT FOR ATOM  1  0.5718477E-04
:DEN  : DENSITY INTEGRAL  =        -14137.89891233   (Ry)
       ELS_POTENTIAL_AT Z=0 and Z=0.5:   0.65180   0.65180
       ELS_POTENTIAL_AT Y=0 and Y=0.5:   0.08407   0.08407
:VZERO:v0,v0c,v0x   0.11223   0.65180  -0.53957 v5,v5c,v5x   0.11223   0.65180  -0.53957
:VZERY:v0,v0c,v0x  -0.63957   0.08407  -0.72364 v5,v5c,v5x  -0.63957   0.08407  -0.72364
:VZERX:v0,v0c,v0x  -1.06421  -0.36497  -0.69923 v5,v5c,v5x  -1.06421  -0.36497  -0.69923
:LMAX-WF:   10   Non-Spherical LMAX:   4

          ATOMIC SPHERE DEPENDENT PARAMETERS FOR ATOM  Pr1       
:e__0001: OVERALL ENERGY PARAMETER IS    0.3254
          OVERALL BASIS SET ON ATOM IS LAPW
:E0_0001: E( 0)=    0.3254
             APW+lo
:E0_0001: E( 0)=   -2.1510   E(BOTTOM)=   -2.789   E(TOP)=   -1.513  4  5   166
             LOCAL ORBITAL
:E1_0001: E( 1)=    0.7254
             APW+lo
:E1_0001: E( 1)=   -0.6825   E(BOTTOM)=   -1.643   E(TOP)=    0.278  3  4   200
             LOCAL ORBITAL
:E3_0001: E( 3)=    0.5147   E(BOTTOM)=    0.303   E(TOP)=    0.726  0  1   122
             APW+lo
:E2_0001: E( 2)=    0.3254   E(BOTTOM)=    0.097   E(TOP)= -200.000  2 -1   101
             APW+lo

       K=   0.06250   0.00000   0.06250            1
:RKM  : MATRIX SIZE   509LOs:  40  RKM= 8.50  WEIGHT= 4.00  PGR:    
       EIGENVALUES ARE:
:EIG00001:      -2.1163009   -2.1079484   -0.8287019   -0.7772843   -0.7654509
:EIG00006:      -0.7603685   -0.7558988   -0.7555870    0.2909493    0.4365737
:EIG00011:       0.5298751    0.5309050    0.5312593    0.5331961    0.5349745
:EIG00016:       0.5443952    0.5471078    0.5473041    0.5495924    0.5512864
:EIG00021:       0.5541820    0.5578685    0.5585145    0.5620391    0.5909707
:EIG00026:       0.6025459    0.6607121    0.6855480    0.6949361    0.7351685
:EIG00031:       0.7502389    0.8178830    0.8611283    0.8965276    1.1401711
:EIG00036:       1.1896196    1.2774554    1.2808450    1.4211949    1.4738813
:EIG00041:       1.5081614    1.6097552    1.6667616    1.6894608    1.7605092
:EIG00046:       1.8372004    1.8429070    1.8768138    1.9451246    2.0197512
 
:EIG00051:       2.0689042    2.1228788    2.1403557    2.1895807    2.2124027
:EIG00056:       2.2956251    2.3388992    2.3503226    2.4405475    2.4745122
:EIG00061:       2.5359142    2.5675077    2.6832925    2.7698536    2.7830066
:EIG00066:       2.8708243    2.9079984    2.9224308    2.9305737    3.0196571
:EIG00071:       3.0279099    3.0736492    3.0976209    3.1304380    3.1438938
:EIG00076:       3.1849946    3.2246168    3.2556591    3.2842581    3.3048186
:EIG00081:       3.3457738    3.3894448    3.3988600    3.4377970    3.4906690
:EIG00086:       3.5173051    3.5875513    3.5953725    3.6261031    3.6356423
:EIG00091:       3.6692793    3.6866866    3.7360544    3.7378400    3.7431035
:EIG00096:       3.8049547    3.8262282    3.8317978    3.8459030    3.9256838
 
:EIG00101:       3.9770578    4.1025241    4.1078292    4.1603887    4.2001265
:EIG00106:       4.2155782    4.2468158    4.2491391    4.2992252    4.3267854
:EIG00111:       4.3921375    4.4079412    4.4318632    4.4463483    4.4768644
:EIG00116:       4.5392771    4.6104833    4.6464884    4.6481397    4.6756716
:EIG00121:       4.7061398    4.7958306    4.7981155    4.8336238    4.8856744
:EIG00126:       4.9506046    4.9581559    4.9993499    5.0485134    5.0688246
:EIG00131:       5.0923968    5.1383458    5.1731464    5.1894682    5.2035444
:EIG00136:       5.2575822    5.3019396    5.3484926    5.3633205    5.3929446
:EIG00141:       5.4054174    5.4088592    5.4578080    5.5079141    5.5183187
:EIG00146:       5.5387832    5.5609335    5.5653347    5.5664156    5.6655536
 
:EIG00151:       5.6742145    5.7028784    5.7780722    5.8036737    5.8200701
:EIG00156:       5.9302987    6.0055339    6.0224107    6.0648718    6.0803679
:EIG00161:       6.1061170    6.1831083    6.2228999    6.2290225    6.2349384
:EIG00166:       6.3055555    6.3393344    6.3448759    6.3723756    6.3913586
:EIG00171:       6.4112201    6.4747122    6.4927898    6.5126414    6.5668621
:EIG00176:       6.5672376    6.6059855    6.6302854    6.6643392    6.6780876
:EIG00181:       6.7522925    6.7668882    6.7722751    6.7987775    6.8378036
:EIG00186:       6.8400843    6.8532267    6.9326884    6.9412348    6.9491244
:EIG00191:       7.0004308    7.0116923    7.0563850    7.0706006    7.1022588
:EIG00196:       7.1168087    7.1172635    7.1522946    7.1577607    7.2026505
 
:EIG00201:       7.2225646    7.2815260    7.2834961    7.2924564    7.3460054
:EIG00206:       7.3538866    7.3693193    7.4245315    7.4532761    7.4824861
:EIG00211:       7.4857696    7.5321774    7.5357731    7.5523998    7.5656938
:EIG00216:       7.6009896    7.6105178    7.6115433    7.6394399    7.6811774
:EIG00221:       7.7055406    7.7512588    7.7534554    7.7608498    7.7682733
:EIG00226:       7.7795986    7.8161864    7.8213746    7.8600316    7.9192002
:EIG00231:       7.9218557    7.9654049    8.0042290    8.0145472    8.0242614
       ********************************************************

:KPT   :      NUMBER OF K-POINTS:   288
   0.0   0.0 angle (M,z), angle (M,x) deg
 
        SPIN-ORBIT EIGENVALUES:
     K=   0.06250   0.00000   0.06250            1
      MATRIX SIZE=  470   WEIGHT= 4.00
     EIGENVALUES ARE:
          -2.1163009   -2.1163009   -2.1079484   -2.1079484   -0.9315058
          -0.9315058   -0.9065847   -0.9065847   -0.7431145   -0.7431145
          -0.6977497   -0.6977497   -0.6955199   -0.6955199   -0.6895137
          -0.6895137    0.2909739    0.2909739    0.4364572    0.4364572
           0.5224196    0.5224196    0.5245041    0.5245041    0.5250643
           0.5250643    0.5261485    0.5261485    0.5282987    0.5282987
           0.5310824    0.5310824    0.5471896    0.5471896    0.5538676
           0.5538676    0.5565650    0.5565650    0.5573111    0.5573111

           0.5608776    0.5608777    0.5637662    0.5637662    0.5646998
           0.5646998    0.5679597    0.5679597    0.5918992    0.5918992
           0.6025660    0.6025660    0.6608013    0.6608013    0.6832644
           0.6832644    0.6968522    0.6968523    0.7357023    0.7357023
           0.7502203    0.7502203    0.8176872    0.8176873    0.8614318
           0.8614318    0.8966611    0.8966611    1.1401660    1.1401660
           1.1898184    1.1898184    1.2774118    1.2774118    1.2808899
           1.2808899    1.4206957    1.4206957    1.4731743    1.4731743

           1.5081562    1.5081562    1.6073501    1.6073501    1.6661977
           1.6661977    1.6902856    1.6902856    1.7611189    1.7611189
           1.8352855    1.8352855    1.8413745    1.8413745    1.8791115
           1.8791115    1.9455633    1.9455633    2.0191990    2.0191990
           2.0685917    2.0685917    2.1204713    2.1204713    2.1420223
           2.1420223    2.1911017    2.1911017    2.2132163    2.2132163
           2.2955588    2.2955588    2.3386534    2.3386534    2.3510169
           2.3510169    2.4404793    2.4404793    2.4742709    2.4742709

           2.5391115    2.5391115    2.5677171    2.5677171    2.6832169
           2.6832169    2.7699572    2.7699572    2.7831141    2.7831141
           2.8704992    2.8704992    2.9079746    2.9079746    2.9224772
           2.9224772    2.9308058    2.9308058    3.0198098    3.0198098
           3.0280088    3.0280088    3.0736988    3.0736988    3.0976700
           3.0976700    3.1297966    3.1297966    3.1448301    3.1448301
           3.1851243    3.1851243    3.2258023    3.2258023    3.2557346
           3.2557346    3.2842715    3.2842715    3.3052017    3.3052017

           3.3459858    3.3459858    3.3894612    3.3894612    3.3989386
           3.3989386    3.4379513    3.4379513    3.4906935    3.4906935
           3.5174246    3.5174246    3.5876511    3.5876511    3.5953614
           3.5953614    3.6260835    3.6260835    3.6356933    3.6356933
           3.6692912    3.6692912    3.6867307    3.6867307    3.7352951
           3.7352951    3.7381682    3.7381683    3.7432521    3.7432521
           3.8049393    3.8049393    3.8256683    3.8256683    3.8325243
           3.8325243    3.8459897    3.8459897    3.9257168    3.9257168

           3.9768676    3.9768676    4.1004548    4.1004548    4.1092241
           4.1092241    4.1612955    4.1612955    4.2000100    4.2000100
           4.2157036    4.2157036    4.2465972    4.2465972    4.2503177
           4.2503177    4.2994168    4.2994168    4.3268913    4.3268913
           4.3921584    4.3921584    4.4081289    4.4081289    4.4321504
           4.4321504    4.4464861    4.4464861    4.4768842    4.4768842

       ********************************************************
:GAP (global)   :    0.0    Ry =     0.0   eV (metal)
:GAP (this spin):    0.0    Ry =     0.0   eV (metal)
         Bandranges (emin - emax) and occupancy:
:BAN00018:  18    0.286698    0.496581  1.00000000
:BAN00019:  19    0.390726    0.510114  1.00000000
:BAN00020:  20    0.390726    0.510114  1.00000000
:BAN00021:  21    0.477973    0.522420  1.00000000
:BAN00022:  22    0.477973    0.522420  1.00000000
:BAN00023:  23    0.510691    0.524545  1.00000000
:BAN00024:  24    0.510691    0.524545  1.00000000
:BAN00025:  25    0.518319    0.531074  0.81223631
:BAN00026:  26    0.518319    0.531074  0.81223618
:BAN00027:  27    0.524152    0.531619  0.18776394
:BAN00028:  28    0.524152    0.531619  0.18776356
:BAN00029:  29    0.527461    0.534013  0.00000000
:BAN00030:  30    0.527461    0.534013  0.00000000
:BAN00031:  31    0.529834    0.537698  0.00000000
:BAN00032:  32    0.529834    0.537698  0.00000000
:BAN00033:  33    0.532762    0.547392  0.00000000
        Energy to separate low and high energystates:    0.23670


:NOE  : NUMBER OF ELECTRONS          =   26.000

:FER  : F E R M I - ENERGY(TETRAH.M.)=   0.5267160867
:GMA  : POTENTIAL AND CHARGE CUT-OFF  12.00 Ry**.5

:POS001: ATOM   -1 X,Y,Z = 0.00000 0.89750 0.25000  MULT= 2  ZZ= 59.000  Pr1       

       LMMAX 16
       LM=   0 0  1 0  2 0  2 2  3 0  3 2  4 0  4 2  4 4  5 0  5 2  5 4  6 0  6 2  6 4  6 6

:CHA001: TOTAL VALENCE CHARGE INSIDE SPHERE   1 =   9.4990    (RMT=  2.3000 )
:PCS001: PARTIAL CHARGES SPHERE =  1 S,P,D,F,PX,PY,PZ,D-Z2,D-X2Y2,D-XY,D-XZ,D-YZ 
:QTL001: 1.9380 5.0179 0.4431 2.0999 1.6699 1.6703 1.6778 0.0808 0.0810 0.1008 0.0833 0.0973
        Q-s-low E-s-low   Q-p-low E-p-low   Q-d-low E-d-low   Q-f-low E-f-low
:EPL001:  1.8692 -2.1082    4.9581 -0.7917    0.0008 -0.7790    0.0002 -0.7868
        Q-s-hi  E-s-hi    Q-p-hi  E-p-hi    Q-d-hi  E-d-hi    Q-f-hi  E-f-hi 
:EPH001:  0.0687  0.4252    0.0598  0.4643    0.4423  0.4840    2.0997  0.5175

                      VXX         VYY         VZZ       UP TO R
:VZZ001:             3.99340     2.28812    -6.28153       2.300

:CHA  : TOTAL VALENCE CHARGE INSIDE UNIT CELL =      26.000000

:SUM  : SUM OF EIGENVALUES =         -13.019660610


        1.ATOM      Pr1                  14 CORE STATES
       CORE-FORCE in mRy/a.u. = |F|      Fx             Fy             Fz
:FCO001:   1.ATOM   1107.111621165106      0.000000000000      0.000000000000   1107.111621165106

:1S 001: 1S               -3067.063657792 Ry
:2S 001: 2S                -492.813846745 Ry
:2PP001: 2P*               -465.913675994 Ry
:2P 001: 2P                -430.515930478 Ry
:3S 001: 3S                -105.897967164 Ry
:3PP001: 3P*                -94.436085926 Ry
:3P 001: 3P                 -87.428055651 Ry
:3DD001: 3D*                -67.355822580 Ry
:3D 001: 3D                 -65.844168860 Ry
:4S 001: 4S                 -20.579617334 Ry
:4PP001: 4P*                -16.287026728 Ry
:4P 001: 4P                 -14.760465189 Ry
:4DD001: 4D*                 -7.695138406 Ry
:4D 001: 4D                  -7.426036114 Ry
:CINT001 Core Integral Atom   1   45.998470

       DENSITY AT NUCLEUS
        JATOM        VALENCE       SEMI-CORE          CORE           TOTAL
:RTO001:   1      645.334242        0.000000   656824.132383   657469.466625
     
       CHARGES OF NEW CHARGE DENSITY
:NTO   : INTERSTITIAL CHARGE =     7.002096
:NPC   : PW Pseudocharge     =    16.812393
:NTO001: CHARGE SPHERE  1    =    55.497421

:NEC01: NUCLEAR AND ELECTRONIC CHARGE    118.00000   117.99694
     
       CHARGES OF OLD CHARGE DENSITY
:OTO   : INTERSTITIAL CHARGE =     7.005917
:OPC   : PW Pseudocharge     =    16.799219
:OTO001: CHARGE SPHERE  1    =    55.497042

:NEC02: NUCLEAR AND ELECTRONIC CHARGE    118.00000   118.00000
     
       CONVERGENCE TEST
:DTO001: DIFFERENCE IN SPHERE  1 =  0.0139391

:DIS  :  CHARGE DISTANCE       ( 0.0139391 for atom    1 spin 1)      0.0139391
 PW Mixed is          560
 
******************************************************
* MULTISECANT MIXING VER9 RELEASE 10.4.0              *
* Slow Mode, cautious                                *
* Fixed density scale                                *
* Regularization       1.000E-04                     *
* Step Trust Radius    0.75000                       *
* Trust Upper Limit    2.000E+00                     *
* Max Number of Memory Steps   12                    *
******************************************************
 
:PWTMP   4.4873E+02  1.9467E+02  5.5066E+02
:PLANE:  PW TOTAL      4.3113 DISTAN   9.62E-03  2.23E-01 %
:CHARG:  CLM/ATOM   1381.9394 DISTAN   1.81E-01  1.31E-02 %
 
Step History
        DMIX         DMIXT        Red     Pred      Trust     Lambda    MagRel    MagAbs     Beta
  1   3.5000E-02   3.5000E-02 -1.00E+00  1.00E+00 -1.00E+01  1.00E+00  3.50E-02  3.50E-02  1.00E+00
  2   2.5000E-02   2.5000E-02  6.14E-01  1.00E+00 -1.00E+01  1.00E+00  2.50E-02  1.14E-02  1.00E+00
  3   3.0361E-02   3.0361E-02  6.60E-01  1.00E+00 -1.00E+01  4.51E-01  3.04E-02  8.50E-03  1.00E+00
  4   2.4836E-02   2.4836E-02 -1.00E+00  8.86E-01  3.33E-01  1.00E+00  2.01E-02  3.72E-03  8.00E-01
:JACOBIANS    1.903E-03   1.343E-01
  
:NORMS:  1/Froebius, Min, Max, Used   0.9464E-01  0.7699E-01  0.1805E+00  0.1076E+00
:INFO :  Number of Memory Steps    3 Skipping    0
:INFO :  SLambda=    1.9348721855  Max    1.9348721855
:PREDicted Charge, CTotal, PW Trust    1.348E-03   2.697E-03   1.328E-03
:PREDicted DMix, Beta, BLim   1.7967E-01  5.7041E+00  1.9890E-01

Eigenvalues, unscaled except for SY+YY
   #     SY Real        SY Imag          SS             YY         SY+YY Real      SY+YY Imag
   1   1.427161E-01   0.000000E+00   1.821978E-02   2.816788E+00   3.093190E+00   0.000000E+00
   2   8.749719E-16   0.000000E+00   8.651391E-03   1.830355E-01   1.758739E-04   0.000000E+00
   3   3.333807E-02   0.000000E+00   0.000000E+00   1.761799E-04   2.472768E-01   0.000000E+00
 
:INFO :  Singular value  3.093E+00 Weight  1.000E+00 Projection -8.786E-03
:INFO :  Singular value  2.473E-01 Weight  1.000E+00 Projection -3.206E-01
:INFO :  Singular value  1.759E-04 Weight  2.805E-01 Projection -2.730E+00
:RANK :  ACTIVE   2.28/3  =  76.02 % ; YY RANK   2.28/3  =  76.04 %
 
:BLIM :  VZERO Control Off
:TRUST:  Step 2.28E-01  Charge 7.50E-02 (e) CTO  2.50E-01 (e) PW  3.50E-01 (e)
:DTRUS:  Lambda    6.127E-02 Increment    3.638E-12 Iterations   104 DMIX    5.629E-02
:INFOA:  Angle SubSpace to MSR1      0.00
:DIRM :  MEMORY  3/12 SCALE   1.000 RED  0.98 PRED  0.89 NEXT  0.77 
:INFO :  Limited by Atoms F by Step T

:TRAVE:  Charge 8.67E-04 (e) CTO  1.73E-03 (e) PW  1.07E-03 (e)
:DIRP :  |MSR1|= 1.576E-03 |PRATT|= 9.619E-03 ANGLE=  40.8 DEGREES
:DIRQ :  |MSR1|= 4.120E-02 |PRATT|= 1.806E-01 ANGLE=  10.6 DEGREES
:DIRT :  |MSR1|= 4.123E-02 |PRATT|= 1.809E-01 ANGLE=  10.8 DEGREES
:MIX  :   MSE1   REGULARIZATION:  2.82E-04 GREED: 0.06209  LMStep 0.91  0.2280 Step           
     
       CHARGES OF MIXED CHARGE DENSITY
:CTO   : INTERSTITIAL CHARGE =     7.008148
:CPC   : PW Pseudocharge     =    16.799486
:CTO001: CHARGE SPHERE  1    =    55.495926

:NEC03: NUCLEAR AND ELECTRONIC CHARGE    118.00000   118.00000

PW CHANGE     H    K    L      Current       Change    Residue
:PTO001:      0    0    0  4.32344127E-02  4.537E-06  3.589E-05
:PTO003:      0    2    0  1.26612597E-02 -2.384E-06  2.875E-05
:PTO004:     -1    1    0  6.29362915E-02 -1.559E-05  1.258E-05
:PTO005:      0    2   -1 -7.36053466E-02 -1.339E-05 -1.492E-04
:PTO006:      0    0   -2 -3.80561787E-02 -2.610E-06 -4.265E-05
:PTO007:     -1    1   -1 -8.07921537E-02  6.186E-06 -8.568E-05
:PTO008:      0    2   -2 -1.36538142E-02  1.481E-06  3.363E-06
:PTO009:     -1    1   -2 -7.15465386E-02 -4.328E-06 -2.794E-05
:PTO011:     -1    3    0 -1.20942659E-02  9.050E-06  4.557E-05
:PTO012:     -1    3   -1 -5.53594587E-02 -1.287E-06 -1.580E-05
:PTO013:      0    4    0 -1.04197139E-02  1.200E-06 -7.183E-06
:PTO014:      0    2   -3  2.37899051E-02 -4.605E-06 -1.451E-05

:ENE  : ********** TOTAL ENERGY IN Ry =       -36944.17184179

       TOTAL FORCE IN mRy/a.u. = |F|     Fx             Fy             Fz     with/without FOR in case.in2
:FOR001:   1.ATOM         30.900          0.000          0.000        -30.900 partial forces
       TOTAL FORCE WITH RESPECT TO GLOBAL CARTESIAN COORDINATES:
:FCA001:   1.ATOM                         0.000        -30.900          0.000 partial forces
       TOTAL FORCE WITH RESPECT TO THE GLOBAL COORDINATE SYSTEM:
:FGL001:   1.ATOM                 0.000000000   -30.900254799     0.000000000 partial forces
 Flat Integration
 New Mode for Coulomb Integral
 Consistent 3/8+Simpson combinations
 Extension of core to zero
 LDM version in phi
 Fifth-order quadrature in outwin


            ---------
:ITE019: 19. ITERATION
            ---------

:NATO :    1 INDEPENDENT AND    2 TOTAL ATOMS IN UNITCELL
       SUBSTANCE: aU                                                          

       LATTICE                      = CXY 
:POT  : POTENTIAL OPTION EX_LDA EC_LDA VX_LDA VC_LDA
:LAT  : LATTICE CONSTANTS=  6.76640 13.73073 11.85402    1.571    1.571    1.571
:VOL  : UNIT CELL VOLUME =     550.66398
       MODE OF CALCULATION IS       = RELA
       NON-SPINPOLARIZED CALCULATION
:IFFT  : FFT-parameters:   54  108   96 Factor: 2.00


   CONVERGENCE PARAMETER FOR PSEUDOCHARGE: NCON=  9
   MAXIMAL VALUE OF RMT(JATOM)*ABSK(NKK) : RK  =27.59515


:VKCOUL :  VK-COUL convergence: 0.135E-06
       ATOMNUMBER=  1 Pr1        VCOUL-ZERO = -0.55486E-01
:EFG001:                        EFG         =    -6.49484   *10**21  V / m**2
                               V20  TOT/SRF=    -5.62470    -0.01672
                               V22  TOT/SRF=     0.36023     0.00308
                               V22M TOT/SRF=     0.00000     0.00000
                               V21  TOT/SRF=     0.00000     0.00000
                               V21M TOT/SRF=     0.00000     0.00000

              3.60765    0.00000    0.00000        3.60765    0.00000    0.00000
              0.00000    2.88719    0.00000        0.00000    2.88719    0.00000
              0.00000    0.00000   -6.49484        0.00000    0.00000   -6.49484

         MAIN DIRECTIONS OF THE EFG   1.0000  0.0000  0.0000
                                      0.0000  1.0000  0.0000
                                      0.0000  0.0000  1.0000
:ANG001:  ANGLE WITH OLD X-AXIS =         0.0

:ETA001:                         ASYMM. ETA =     0.11093


     HELLMANN-FEYNMAN-FORCE IN mRy/a.u. = |F|  Fx       Fy             Fz
:FHF001:   1.ATOM   1148.019320664335      0.000000000000      0.000000000000  -1148.019320664335

:FIT001: LUSE= 13 SIGMA OF V-XC FIT FOR ATOM  1  0.5303646E-04
:FIT001: LUSE= 13 SIGMA OF V-XC FIT FOR ATOM  1  0.5303646E-04
:DEN  : DENSITY INTEGRAL  =        -14137.79052749   (Ry)
       ELS_POTENTIAL_AT Z=0 and Z=0.5:   0.65187   0.65187
       ELS_POTENTIAL_AT Y=0 and Y=0.5:   0.08401   0.08401
:VZERO:v0,v0c,v0x   0.11224   0.65187  -0.53963 v5,v5c,v5x   0.11224   0.65187  -0.53963
:VZERY:v0,v0c,v0x  -0.63969   0.08401  -0.72370 v5,v5c,v5x  -0.63969   0.08401  -0.72370
:VZERX:v0,v0c,v0x  -1.06431  -0.36501  -0.69929 v5,v5c,v5x  -1.06431  -0.36501  -0.69929
:LMAX-WF:   10   Non-Spherical LMAX:   4

          ATOMIC SPHERE DEPENDENT PARAMETERS FOR ATOM  Pr1       
:e__0001: OVERALL ENERGY PARAMETER IS    0.3263
          OVERALL BASIS SET ON ATOM IS LAPW
:E0_0001: E( 0)=    0.3263
             APW+lo
:E0_0001: E( 0)=   -2.1513   E(BOTTOM)=   -2.789   E(TOP)=   -1.513  4  5   166
             LOCAL ORBITAL
:E1_0001: E( 1)=    0.7263
             APW+lo
:E1_0001: E( 1)=   -0.6828   E(BOTTOM)=   -1.643   E(TOP)=    0.277  3  4   201
             LOCAL ORBITAL
:E3_0001: E( 3)=    0.5143   E(BOTTOM)=    0.303   E(TOP)=    0.726  0  1   123
             APW+lo
:E2_0001: E( 2)=    0.3263   E(BOTTOM)=    0.097   E(TOP)= -200.000  2 -1    94
             APW+lo

       K=   0.06250   0.00000   0.06250            1
:RKM  : MATRIX SIZE   509LOs:  40  RKM= 8.50  WEIGHT= 4.00  PGR:    
       EIGENVALUES ARE:
:EIG00001:      -2.1165691   -2.1082160   -0.8291335   -0.7773379   -0.7654992
:EIG00006:      -0.7605699   -0.7563491   -0.7557857    0.2909858    0.4365573
:EIG00011:       0.5296665    0.5304720    0.5309039    0.5330654    0.5347704
:EIG00016:       0.5439521    0.5466960    0.5468306    0.5491249    0.5510278
:EIG00021:       0.5539163    0.5578320    0.5582315    0.5616598    0.5908285
:EIG00026:       0.6025797    0.6606211    0.6855085    0.6947316    0.7351463
:EIG00031:       0.7502092    0.8177226    0.8609574    0.8963191    1.1400080
:EIG00036:       1.1897058    1.2775354    1.2808587    1.4212525    1.4738925
:EIG00041:       1.5081232    1.6097159    1.6667693    1.6894131    1.7604732
:EIG00046:       1.8371699    1.8429272    1.8768391    1.9451505    2.0196590
 
:EIG00051:       2.0689067    2.1228442    2.1403501    2.1895432    2.2124086
:EIG00056:       2.2956495    2.3388230    2.3503076    2.4405853    2.4744511
:EIG00061:       2.5358342    2.5674932    2.6832948    2.7698036    2.7829643
:EIG00066:       2.8707748    2.9079935    2.9224122    2.9305156    3.0196747
:EIG00071:       3.0278925    3.0736558    3.0976333    3.1304253    3.1439495
:EIG00076:       3.1849814    3.2246511    3.2556276    3.2842985    3.3048407
:EIG00081:       3.3457606    3.3895189    3.3988585    3.4377744    3.4906787
:EIG00086:       3.5173388    3.5876104    3.5954037    3.6261233    3.6356493
:EIG00091:       3.6693056    3.6866703    3.7360638    3.7378731    3.7430799
:EIG00096:       3.8049433    3.8262066    3.8317871    3.8459262    3.9257346
 
:EIG00101:       3.9769627    4.1025406    4.1077400    4.1604309    4.2001542
:EIG00106:       4.2155774    4.2468466    4.2491588    4.2992365    4.3268186
:EIG00111:       4.3921259    4.4079724    4.4318806    4.4464063    4.4768368
:EIG00116:       4.5392554    4.6103966    4.6464942    4.6480594    4.6756030
:EIG00121:       4.7061179    4.7958104    4.7980609    4.8336058    4.8856965
:EIG00126:       4.9505920    4.9581348    4.9993026    5.0484798    5.0687991
:EIG00131:       5.0924090    5.1383371    5.1731564    5.1894536    5.2035257
:EIG00136:       5.2576076    5.3019615    5.3485141    5.3632827    5.3929445
[...]
       NON-SPINPOLARIZED CALCULATION
:IFFT  : FFT-parameters:   54  108   96 Factor: 2.00


   CONVERGENCE PARAMETER FOR PSEUDOCHARGE: NCON=  9
   MAXIMAL VALUE OF RMT(JATOM)*ABSK(NKK) : RK  =27.59515


:VKCOUL :  VK-COUL convergence: 0.114E-06
       ATOMNUMBER=  1 Pr1        VCOUL-ZERO = -0.55039E-01
:EFG001:                        EFG         =    -6.25248   *10**21  V / m**2
                               V20  TOT/SRF=    -5.41481    -0.01513
                               V22  TOT/SRF=     0.36771     0.00274
                               V22M TOT/SRF=     0.00000     0.00000
                               V21  TOT/SRF=     0.00000     0.00000
                               V21M TOT/SRF=     0.00000     0.00000

              3.49395    0.00000    0.00000        3.49395    0.00000    0.00000
              0.00000    2.75854    0.00000        0.00000    2.75854    0.00000
              0.00000    0.00000   -6.25248        0.00000    0.00000   -6.25248

         MAIN DIRECTIONS OF THE EFG   1.0000  0.0000  0.0000
                                      0.0000  1.0000  0.0000
                                      0.0000  0.0000  1.0000
:ANG001:  ANGLE WITH OLD X-AXIS =         0.0

:ETA001:                         ASYMM. ETA =     0.11762


     HELLMANN-FEYNMAN-FORCE IN mRy/a.u. = |F|  Fx       Fy             Fz
:FHF001:   1.ATOM   1117.023411903292      0.000000000000      0.000000000000  -1117.023411903292

:FIT001: LUSE= 13 SIGMA OF V-XC FIT FOR ATOM  1  0.4022769E-04
:FIT001: LUSE= 13 SIGMA OF V-XC FIT FOR ATOM  1  0.4022769E-04
:DEN  : DENSITY INTEGRAL  =        -14137.83292526   (Ry)
       ELS_POTENTIAL_AT Z=0 and Z=0.5:   0.65264   0.65264
       ELS_POTENTIAL_AT Y=0 and Y=0.5:   0.08466   0.08466
:VZERO:v0,v0c,v0x   0.11281   0.65264  -0.53984 v5,v5c,v5x   0.11281   0.65264  -0.53984
:VZERY:v0,v0c,v0x  -0.63945   0.08466  -0.72411 v5,v5c,v5x  -0.63945   0.08466  -0.72411
:VZERX:v0,v0c,v0x  -1.06499  -0.36545  -0.69954 v5,v5c,v5x  -1.06499  -0.36545  -0.69954
:LMAX-WF:   10   Non-Spherical LMAX:   4

          ATOMIC SPHERE DEPENDENT PARAMETERS FOR ATOM  Pr1       
:e__0001: OVERALL ENERGY PARAMETER IS    0.3273
          OVERALL BASIS SET ON ATOM IS LAPW
:E0_0001: E( 0)=    0.3273
             APW+lo
:E0_0001: E( 0)=   -2.1507   E(BOTTOM)=   -2.788   E(TOP)=   -1.513  4  5   167
             LOCAL ORBITAL
:E1_0001: E( 1)=    0.7273
             APW+lo
:E1_0001: E( 1)=   -0.6822   E(BOTTOM)=   -1.642   E(TOP)=    0.278  3  4   194
             LOCAL ORBITAL
:E3_0001: E( 3)=    0.5153   E(BOTTOM)=    0.304   E(TOP)=    0.727  0  1   124
             APW+lo
:E2_0001: E( 2)=    0.3273   E(BOTTOM)=    0.098   E(TOP)= -200.000  2 -1    97
             APW+lo

       K=   0.06250   0.00000   0.06250            1
:RKM  : MATRIX SIZE   509LOs:  40  RKM= 8.50  WEIGHT= 4.00  PGR:    
       EIGENVALUES ARE:
:EIG00001:      -2.1159808   -2.1076276   -0.8284020   -0.7770529   -0.7652195
:EIG00006:      -0.7600127   -0.7556016   -0.7552332    0.2914472    0.4369258
:EIG00011:       0.5304095    0.5315332    0.5316852    0.5338512    0.5356169
:EIG00016:       0.5450686    0.5476256    0.5479226    0.5502018    0.5517841
:EIG00021:       0.5549280    0.5586347    0.5592194    0.5626002    0.5914330
:EIG00026:       0.6030650    0.6612076    0.6858615    0.6951948    0.7354762
:EIG00031:       0.7505431    0.8183972    0.8615543    0.8968035    1.1405893
:EIG00036:       1.1901969    1.2779917    1.2812764    1.4218204    1.4745802
:EIG00041:       1.5085442    1.6102854    1.6672575    1.6899810    1.7609235
:EIG00046:       1.8376740    1.8435178    1.8772651    1.9457160    2.0201186
 
:EIG00051:       2.0691936    2.1232042    2.1407493    2.1899714    2.2128077
:EIG00056:       2.2959749    2.3392521    2.3506365    2.4409661    2.4749098
:EIG00061:       2.5363001    2.5678618    2.6837585    2.7703096    2.7834529
:EIG00066:       2.8712342    2.9084476    2.9229336    2.9309993    3.0200894
:EIG00071:       3.0283563    3.0740455    3.0981080    3.1309074    3.1444103
:EIG00076:       3.1854706    3.2252521    3.2561130    3.2847552    3.3052596
:EIG00081:       3.3462647    3.3898830    3.3993991    3.4382982    3.4911705
:EIG00086:       3.5177541    3.5880382    3.5958965    3.6266190    3.6360569
:EIG00091:       3.6697505    3.6871053    3.7364769    3.7383111    3.7436260
:EIG00096:       3.8054979    3.8266204    3.8321887    3.8463393    3.9260697
 
:EIG00101:       3.9774193    4.1029936    4.1082045    4.1608545    4.2005974
:EIG00106:       4.2160681    4.2472586    4.2495488    4.2996928    4.3271707
:EIG00111:       4.3926011    4.4084226    4.4323179    4.4468685    4.4773768
:EIG00116:       4.5396662    4.6109001    4.6468879    4.6485032    4.6760863
:EIG00121:       4.7065986    4.7962971    4.7985932    4.8340551    4.8861397
:EIG00126:       4.9510958    4.9585536    4.9997119    5.0488894    5.0692778
:EIG00131:       5.0928874    5.1388651    5.1736337    5.1899032    5.2039292
:EIG00136:       5.2580222    5.3024507    5.3489118    5.3636288    5.3933678
:EIG00141:       5.4057806    5.4092209    5.4581978    5.5083278    5.5186172
:EIG00146:       5.5392111    5.5614729    5.5657613    5.5668744    5.6660065
 
:EIG00151:       5.6745824    5.7032977    5.7785748    5.8040788    5.8205185
:EIG00156:       5.9307094    6.0059603    6.0228019    6.0653047    6.0807241
:EIG00161:       6.1064701    6.1835107    6.2233543    6.2294701    6.2353160
:EIG00166:       6.3059144    6.3397894    6.3452613    6.3728107    6.3917621
:EIG00171:       6.4116888    6.4750703    6.4930951    6.5129428    6.5671727
:EIG00176:       6.5676518    6.6063069    6.6306490    6.6647181    6.6784858
:EIG00181:       6.7526979    6.7672828    6.7727105    6.7992434    6.8381559
:EIG00186:       6.8405488    6.8536539    6.9330823    6.9416542    6.9494853
:EIG00191:       7.0008416    7.0121485    7.0567968    7.0710318    7.1027214
:EIG00196:       7.1172518    7.1176325    7.1526458    7.1581896    7.2030667
 
:EIG00201:       7.2230460    7.2820183    7.2839723    7.2928642    7.3464339
:EIG00206:       7.3542516    7.3697336    7.4249848    7.4536798    7.4828829
:EIG00211:       7.4861970    7.5324797    7.5362366    7.5528308    7.5661335
:EIG00216:       7.6014550    7.6109704    7.6119825    7.6398752    7.6816179
:EIG00221:       7.7060681    7.7517723    7.7538973    7.7613277    7.7688374
:EIG00226:       7.7801186    7.8166331    7.8217932    7.8605123    7.9196328
:EIG00231:       7.9222505    7.9658733    8.0046937    8.0150110    8.0246938
       ********************************************************

:KPT   :      NUMBER OF K-POINTS:   288
   0.0   0.0 angle (M,z), angle (M,x) deg
 
        SPIN-ORBIT EIGENVALUES:
     K=   0.06250   0.00000   0.06250            1
      MATRIX SIZE=  470   WEIGHT= 4.00
     EIGENVALUES ARE:
          -2.1159808   -2.1159808   -2.1076276   -2.1076276   -0.9312111
          -0.9312111   -0.9062887   -0.9062886   -0.7428322   -0.7428322
          -0.6974464   -0.6974464   -0.6952416   -0.6952416   -0.6891979
          -0.6891979    0.2914717    0.2914717    0.4368093    0.4368093
           0.5229587    0.5229587    0.5250540    0.5250540    0.5257253
           0.5257253    0.5267496    0.5267496    0.5288955    0.5288955
           0.5317255    0.5317255    0.5476884    0.5476884    0.5544704
           0.5544704    0.5572271    0.5572271    0.5579440    0.5579440

           0.5615254    0.5615254    0.5644400    0.5644401    0.5653755
           0.5653755    0.5685404    0.5685404    0.5923698    0.5923698
           0.6030895    0.6030895    0.6612911    0.6612912    0.6835813
           0.6835813    0.6971139    0.6971139    0.7360105    0.7360105
           0.7505253    0.7505253    0.8181993    0.8181994    0.8618584
           0.8618584    0.8969379    0.8969380    1.1405843    1.1405843
           1.1903957    1.1903957    1.2779478    1.2779478    1.2813217
           1.2813217    1.4213216    1.4213216    1.4738688    1.4738688

           1.5085443    1.5085443    1.6078781    1.6078781    1.6666936
           1.6666936    1.6908039    1.6908039    1.7615346    1.7615346
           1.8357911    1.8357911    1.8419339    1.8419339    1.8795837
           1.8795837    1.9461492    1.9461492    2.0195663    2.0195663
           2.0688851    2.0688851    2.1208103    2.1208103    2.1424064
           2.1424064    2.1914973    2.1914974    2.2136143    2.2136143
           2.2959088    2.2959088    2.3390069    2.3390069    2.3513308
           2.3513308    2.4409006    2.4409006    2.4746660    2.4746660

           2.5394963    2.5394963    2.5680709    2.5680709    2.6836829
           2.6836829    2.7704132    2.7704132    2.7835606    2.7835606
           2.8709103    2.8709103    2.9084236    2.9084236    2.9229784
           2.9229784    2.9312316    2.9312316    3.0202421    3.0202421
           3.0284550    3.0284550    3.0740956    3.0740956    3.0981570
           3.0981570    3.1302686    3.1302686    3.1453428    3.1453428
           3.1856006    3.1856006    3.2264373    3.2264373    3.2561885
           3.2561885    3.2847684    3.2847684    3.3056433    3.3056433

           3.3464771    3.3464771    3.3898994    3.3898994    3.3994774
           3.3994774    3.4384522    3.4384522    3.4911950    3.4911950
           3.5178737    3.5178737    3.5881380    3.5881380    3.5958852
           3.5958852    3.6265994    3.6265994    3.6361081    3.6361081
           3.6697623    3.6697623    3.6871494    3.6871494    3.7357341
           3.7357341    3.7386257    3.7386257    3.7437707    3.7437707
           3.8054819    3.8054819    3.8260641    3.8260641    3.8329132
           3.8329132    3.8464259    3.8464259    3.9261026    3.9261026

           3.9772288    3.9772288    4.1009014    4.1009014    4.1096246
           4.1096246    4.1617595    4.1617595    4.2004806    4.2004806
           4.2161933    4.2161933    4.2470275    4.2470275    4.2507395
           4.2507395    4.2998844    4.2998844    4.3272783    4.3272783
           4.3926216    4.3926216    4.4086100    4.4086100    4.4326056
           4.4326056    4.4470053    4.4470053    4.4773968    4.4773968

       ********************************************************
:GAP (global)   :    0.0    Ry =     0.0   eV (metal)
:GAP (this spin):    0.0    Ry =     0.0   eV (metal)
         Bandranges (emin - emax) and occupancy:
:BAN00018:  18    0.287200    0.497164  1.00000000
:BAN00019:  19    0.391185    0.510560  1.00000000
:BAN00020:  20    0.391185    0.510560  1.00000000
:BAN00021:  21    0.478379    0.522959  1.00000000
:BAN00022:  22    0.478379    0.522959  1.00000000
:BAN00023:  23    0.511141    0.525063  1.00000000
:BAN00024:  24    0.511141    0.525063  1.00000000
:BAN00025:  25    0.518929    0.531525  0.81281659
:BAN00026:  26    0.518929    0.531525  0.81281631
:BAN00027:  27    0.524690    0.532156  0.18718381
:BAN00028:  28    0.524690    0.532156  0.18718328
:BAN00029:  29    0.528008    0.534637  0.00000000
:BAN00030:  30    0.528008    0.534637  0.00000000
:BAN00031:  31    0.530432    0.538299  0.00000000
:BAN00032:  32    0.530432    0.538299  0.00000000
:BAN00033:  33    0.533404    0.547886  0.00000000
        Energy to separate low and high energystates:    0.23720


:NOE  : NUMBER OF ELECTRONS          =   26.000

:FER  : F E R M I - ENERGY(TETRAH.M.)=   0.5272899584
:GMA  : POTENTIAL AND CHARGE CUT-OFF  12.00 Ry**.5

:POS001: ATOM   -1 X,Y,Z = 0.00000 0.89750 0.25000  MULT= 2  ZZ= 59.000  Pr1       

       LMMAX 16
       LM=   0 0  1 0  2 0  2 2  3 0  3 2  4 0  4 2  4 4  5 0  5 2  5 4  6 0  6 2  6 4  6 6

:CHA001: TOTAL VALENCE CHARGE INSIDE SPHERE   1 =   9.4960    (RMT=  2.3000 )
:PCS001: PARTIAL CHARGES SPHERE =  1 S,P,D,F,PX,PY,PZ,D-Z2,D-X2Y2,D-XY,D-XZ,D-YZ 
:QTL001: 1.9380 5.0180 0.4444 2.0954 1.6699 1.6703 1.6778 0.0811 0.0813 0.1008 0.0837 0.0976
        Q-s-low E-s-low   Q-p-low E-p-low   Q-d-low E-d-low   Q-f-low E-f-low
:EPL001:  1.8692 -2.1079    4.9582 -0.7914    0.0008 -0.7787    0.0002 -0.7866
        Q-s-hi  E-s-hi    Q-p-hi  E-p-hi    Q-d-hi  E-d-hi    Q-f-hi  E-f-hi 
:EPH001:  0.0688  0.4257    0.0599  0.4648    0.4437  0.4846    2.0952  0.5181

                      VXX         VYY         VZZ       UP TO R
:VZZ001:             3.48312     2.75132    -6.23445       2.300

:CHA  : TOTAL VALENCE CHARGE INSIDE UNIT CELL =      26.000000

:SUM  : SUM OF EIGENVALUES =         -13.009615662


        1.ATOM      Pr1                  14 CORE STATES
       CORE-FORCE in mRy/a.u. = |F|      Fx             Fy             Fz
:FCO001:   1.ATOM   1084.783103825121      0.000000000000      0.000000000000   1084.783103825121

:1S 001: 1S               -3067.067615828 Ry
:2S 001: 2S                -492.816735047 Ry
:2PP001: 2P*               -465.916802055 Ry
:2P 001: 2P                -430.518967436 Ry
:3S 001: 3S                -105.898795623 Ry
:3PP001: 3P*                -94.437025603 Ry
:3P 001: 3P                 -87.428887203 Ry
:3DD001: 3D*                -67.356949662 Ry
:3D 001: 3D                 -65.845257049 Ry
:4S 001: 4S                 -20.578959458 Ry
:4PP001: 4P*                -16.286373504 Ry
:4P 001: 4P                 -14.759783981 Ry
:4DD001: 4D*                 -7.694477166 Ry
:4D 001: 4D                  -7.425370071 Ry
:CINT001 Core Integral Atom   1   45.998470

       DENSITY AT NUCLEUS
        JATOM        VALENCE       SEMI-CORE          CORE           TOTAL
:RTO001:   1      645.310617        0.000000   656824.602186   657469.912803
     
       CHARGES OF NEW CHARGE DENSITY
:NTO   : INTERSTITIAL CHARGE =     7.008063
:NPC   : PW Pseudocharge     =    16.815265
:NTO001: CHARGE SPHERE  1    =    55.494438

:NEC01: NUCLEAR AND ELECTRONIC CHARGE    118.00000   117.99694
     
       CHARGES OF OLD CHARGE DENSITY
:OTO   : INTERSTITIAL CHARGE =     7.011128
:OPC   : PW Pseudocharge     =    16.822594
:OTO001: CHARGE SPHERE  1    =    55.494436

:NEC02: NUCLEAR AND ELECTRONIC CHARGE    118.00000   118.00000
     
       CONVERGENCE TEST
:DTO001: DIFFERENCE IN SPHERE  1 =  0.0000095

:DIS  :  CHARGE DISTANCE       ( 0.0000095 for atom    1 spin 1)      0.0000095
 PW Mixed is          560
 
******************************************************
* MULTISECANT MIXING VER9 RELEASE 10.4.0              *
* Standard Mode with controls                        *
* Fixed density scale                                *
* Regularization       1.000E-04                     *
* Trust Upper Limit    5.000E+00                     *
* Max Number of Memory Steps    8                    *
******************************************************
 
:PWTMP   4.4873E+02  1.9467E+02  5.5066E+02
:PLANE:  PW TOTAL      4.3156 DISTAN   7.78E-06  1.80E-04 %
:CHARG:  CLM/ATOM   1381.9338 DISTAN   4.46E-05  3.22E-06 %
 
Step History
        DMIX         DMIXT        Red     Pred      Trust     Lambda    MagRel    MagAbs     Beta
  6   1.5522E-01   1.4727E-01  5.06E-01  4.47E-01  5.16E-01  7.58E-01  5.16E-01  7.57E-02  1.00E+00
  7   1.1318E-01   1.1318E-01  4.52E-01  5.65E-01  6.88E-01  1.14E+00  5.57E-01  4.13E-02  1.00E+00
  8   9.1804E-02   9.1804E-02  6.64E-01  7.73E-01  9.18E-01  1.70E+00  2.00E-01  6.72E-03  1.00E+00
  9   2.2951E-01   2.2951E-01  2.81E-01  3.93E-01  1.22E+00  8.33E-01  5.46E-01  1.21E-02  1.00E+00
 10   1.8404E-01   1.8404E-01  6.45E-01  6.99E-01  1.63E+00  1.11E+00  4.93E-01  3.08E-03  1.00E+00
 11   3.5000E-01   3.5000E-01  1.19E-01  2.57E-01  2.18E+00  1.07E+00  7.22E-01  2.92E-03  1.00E+00
 12   2.5926E-01   2.5926E-01  8.53E-01  6.87E-01  2.90E+00  1.60E+00  4.53E-01  2.17E-04  1.00E+00
 13   3.5000E-01   3.5000E-01  5.62E-01  1.78E-01  3.40E+00  1.72E+00  3.79E-01  1.55E-04  1.00E+00
 14   2.8378E-01   2.8378E-01 -1.00E+00  1.06E-01  4.53E+00  1.00E+00  6.84E-02  1.57E-05  9.95E-01
:JACOBIANS    2.181E-01   3.205E+00
  
:NORMS:  1/Froebius, Min, Max, Used   0.6527E+00  0.4608E+00  0.9768E+00  0.8814E+00
:INFO :  Number of Memory Steps    8 Skipping    5
:INFO :  SLambda=    1.9111176419  Max    1.9111176419
:PREDicted Charge, CTotal, PW Trust    2.675E-06   5.350E-06   3.653E-07
:PREDicted DMix, Beta, BLim   5.0774E-02  1.2572E+00  2.2400E+00

Eigenvalues, unscaled except for SY+YY
   #     SY Real        SY Imag          SS             YY         SY+YY Real      SY+YY Imag
   1   2.227476E+00   0.000000E+00   2.131618E+00   2.743562E+00   6.685868E+00   0.000000E+00
   2   9.964435E-01   0.000000E+00   8.151508E-01   2.109721E+00   3.867808E+00   0.000000E+00
   3   6.046064E-01   0.000000E+00   3.297564E-01   1.327319E+00   2.851948E+00   0.000000E+00
   4   2.865912E-01   0.000000E+00   1.252506E-01   1.028681E+00   1.324612E+00   0.000000E+00
   5   6.283513E-02   0.000000E+00   4.389421E-03   6.772416E-01   1.092045E+00   0.000000E+00
   6   1.672693E-02   0.000000E+00   1.383168E-03   9.738508E-02   1.774813E-01   0.000000E+00
   7   1.898653E-04   0.000000E+00   9.483860E-04   1.538670E-02   1.211383E-03   0.000000E+00
   8   3.511506E-03   0.000000E+00   5.921484E-05   7.035247E-04   2.262597E-02   0.000000E+00
 
:INFO :  Singular value  6.695E+00 Weight  1.000E+00 Projection  5.783E-06
:INFO :  Singular value  3.874E+00 Weight  1.000E+00 Projection  9.236E-06
:INFO :  Singular value  2.848E+00 Weight  1.000E+00 Projection  2.631E-06
:INFO :  Singular value  1.324E+00 Weight  1.000E+00 Projection -1.344E-05
:INFO :  Singular value  1.092E+00 Weight  1.000E+00 Projection  3.082E-05
:INFO :  Singular value  1.774E-01 Weight  1.000E+00 Projection  4.565E-05
:INFO :  Singular value  2.262E-02 Weight  9.999E-01 Projection  8.967E-06
:INFO :  Singular value  1.211E-03 Weight  9.512E-01 Projection -4.555E-04
:RANK :  ACTIVE   7.95/8  =  99.39 % ; YY RANK   7.87/8  =  98.35 %
 
:BLIM :  VZERO Control Off
:TRUST:  Step 6.04E+00  Charge 1.26E-02 (e) CTO  4.19E-02 (e) PW  5.87E-02 (e)
:DIRM :  MEMORY  8/8  SCALE   1.000 RED  0.20 PRED  0.11 NEXT  0.28 
:TRAVE:  Charge 1.18E-05 (e) CTO  2.37E-05 (e) PW  1.07E-04 (e)
:DIRP :  |MSR1|= 3.299E-06 |PRATT|= 7.785E-06 ANGLE=  12.6 DEGREES
:DIRQ :  |MSR1|= 1.138E-05 |PRATT|= 4.456E-05 ANGLE=  48.8 DEGREES
:DIRT :  |MSR1|= 1.185E-05 |PRATT|= 4.524E-05 ANGLE=  47.9 DEGREES
:MIX  :   MSE1   REGULARIZATION:  2.74E-04 GREED: 0.17267  Newton 1.00  0.2618                
     
       CHARGES OF MIXED CHARGE DENSITY
:CTO   : INTERSTITIAL CHARGE =     7.011130
:CPC   : PW Pseudocharge     =    16.822601
:CTO001: CHARGE SPHERE  1    =    55.494435

:NEC03: NUCLEAR AND ELECTRONIC CHARGE    118.00000   118.00000

PW CHANGE     H    K    L      Current       Change    Residue
:PTO001:      0    0    0  4.32818044E-02  1.700E-08  2.285E-08
:PTO003:      0    2    0  1.26931640E-02  7.797E-09 -3.320E-09
:PTO004:     -1    1    0  6.30028552E-02  5.138E-08  1.329E-07
:PTO005:      0    2   -1 -7.37269272E-02 -2.457E-08 -6.367E-08
:PTO006:      0    0   -2 -3.80968038E-02  7.992E-09  3.657E-08
:PTO007:     -1    1   -1 -8.08898523E-02 -2.505E-08 -8.124E-08
:PTO008:      0    2   -2 -1.36555451E-02 -1.293E-08 -2.262E-08
:PTO009:     -1    1   -2 -7.15689913E-02 -3.532E-08 -1.004E-07
:PTO011:     -1    3    0 -1.20525562E-02  2.916E-08  5.491E-08
:PTO012:     -1    3   -1 -5.53829320E-02 -2.013E-08 -5.916E-08
:PTO013:      0    4    0 -1.04222350E-02 -3.407E-09 -1.547E-08
:PTO014:      0    2   -3  2.37796827E-02  6.508E-09  2.307E-08

:ENE  : ********** TOTAL ENERGY IN Ry =       -36944.17181842

       TOTAL FORCE IN mRy/a.u. = |F|     Fx             Fy             Fz     with/without FOR in case.in2
:FOR001:   1.ATOM         32.240          0.000          0.000        -32.240 partial forces
       TOTAL FORCE WITH RESPECT TO GLOBAL CARTESIAN COORDINATES:
:FCA001:   1.ATOM                         0.000        -32.240          0.000 partial forces
       TOTAL FORCE WITH RESPECT TO THE GLOBAL COORDINATE SYSTEM:
:FGL001:   1.ATOM                 0.000000000   -32.240308078     0.000000000 partial forces
