
:LABEL1: Calculations in /home/ykent/GWIEN/example/Pr/aU/V19/case
:LABEL2: on didymium-2.cmpgroup.ameslab.gov at Fri Jul 10 14:29:26 CDT 2020
:LABEL3: using WIEN2k_19.1 (Release 25/6/2019) in /home/ykent/opt/src/WIEN2k_19.1
:LABEL4: using the command: run_lapw -so -i 70 -cc 0.0001
 Flat Integration
 New Mode for Coulomb Integral
 Consistent 3/8+Simpson combinations
 Extension of core to zero
 LDM version in phi
 Fifth-order quadrature in outwin


            ---------
:ITE015: 15. ITERATION
            ---------

:NATO :    1 INDEPENDENT AND    2 TOTAL ATOMS IN UNITCELL
       SUBSTANCE: aU                                                          

       LATTICE                      = CXY 
:POT  : POTENTIAL OPTION EX_LDA EC_LDA VX_LDA VC_LDA
:LAT  : LATTICE CONSTANTS=  6.56123 13.31438 11.49459    1.571    1.571    1.571
:VOL  : UNIT CELL VOLUME =     502.07598
       MODE OF CALCULATION IS       = RELA
       NON-SPINPOLARIZED CALCULATION
:IFFT  : FFT-parameters:   54  108   90 Factor: 2.00


   CONVERGENCE PARAMETER FOR PSEUDOCHARGE: NCON=  9
   MAXIMAL VALUE OF RMT(JATOM)*ABSK(NKK) : RK  =27.59428


:VKCOUL :  VK-COUL convergence: 0.159E-06
       ATOMNUMBER=  1 Pr1        VCOUL-ZERO =  0.23520E-01
:EFG001:                        EFG         =    -7.42176   *10**21  V / m**2
                               V20  TOT/SRF=    -6.42744    -0.02311
                               V22  TOT/SRF=     0.04058     0.00073
                               V22M TOT/SRF=     0.00000     0.00000
                               V21  TOT/SRF=     0.00000     0.00000
                               V21M TOT/SRF=     0.00000     0.00000

              3.75146    0.00000    0.00000        3.75146    0.00000    0.00000
              0.00000    3.67030    0.00000        0.00000    3.67030    0.00000
              0.00000    0.00000   -7.42176        0.00000    0.00000   -7.42176

         MAIN DIRECTIONS OF THE EFG   1.0000  0.0000  0.0000
                                      0.0000  1.0000  0.0000
                                      0.0000  0.0000  1.0000
:ANG001:  ANGLE WITH OLD X-AXIS =         0.0

:ETA001:                         ASYMM. ETA =     0.01094


     HELLMANN-FEYNMAN-FORCE IN mRy/a.u. = |F|  Fx       Fy             Fz
:FHF001:   1.ATOM   1284.156039637272      0.000000000000      0.000000000000  -1284.156039637272

:FIT001: LUSE= 13 SIGMA OF V-XC FIT FOR ATOM  1  0.5763682E-04
:FIT001: LUSE= 13 SIGMA OF V-XC FIT FOR ATOM  1  0.5763682E-04
:DEN  : DENSITY INTEGRAL  =        -14143.85649202   (Ry)
       ELS_POTENTIAL_AT Z=0 and Z=0.5:   0.69548   0.69548
       ELS_POTENTIAL_AT Y=0 and Y=0.5:   0.07692   0.07692
:VZERO:v0,v0c,v0x   0.13236   0.69548  -0.56312 v5,v5c,v5x   0.13236   0.69548  -0.56312
:VZERY:v0,v0c,v0x  -0.67784   0.07692  -0.75476 v5,v5c,v5x  -0.67784   0.07692  -0.75476
:VZERX:v0,v0c,v0x  -1.09783  -0.37273  -0.72510 v5,v5c,v5x  -1.09783  -0.37273  -0.72510
:LMAX-WF:   10   Non-Spherical LMAX:   4

          ATOMIC SPHERE DEPENDENT PARAMETERS FOR ATOM  Pr1       
:e__0001: OVERALL ENERGY PARAMETER IS    0.3898
          OVERALL BASIS SET ON ATOM IS LAPW
:E0_0001: E( 0)=    0.3898
             APW+lo
:E0_0001: E( 0)=   -2.0831   E(BOTTOM)=   -2.719   E(TOP)=   -1.447  4  5   172
             LOCAL ORBITAL
:E1_0001: E( 1)=    0.7898
             APW+lo
:E1_0001: E( 1)=   -0.6134   E(BOTTOM)=   -1.571   E(TOP)=    0.344  3  4   196
             LOCAL ORBITAL
:E3_0001: E( 3)=    0.5724   E(BOTTOM)=    0.364   E(TOP)=    0.781  0  1   120
             APW+lo
:E2_0001: E( 2)=    0.3898   E(BOTTOM)=    0.170   E(TOP)= -200.000  2 -1    98
             APW+lo

       K=   0.06250   0.00000   0.06250            1
:RKM  : MATRIX SIZE   463LOs:  40  RKM= 8.50  WEIGHT= 4.00  PGR:    
       EIGENVALUES ARE:
:EIG00001:      -2.0518640   -2.0400915   -0.7716469   -0.7057297   -0.6906533
:EIG00006:      -0.6846926   -0.6785277   -0.6784030    0.3563150    0.4963166
:EIG00011:       0.5850033    0.5858061    0.5859726    0.5879753    0.5916633
:EIG00016:       0.6009572    0.6042372    0.6048561    0.6072950    0.6095963
:EIG00021:       0.6131077    0.6165870    0.6173515    0.6220045    0.6565467
:EIG00026:       0.6704264    0.7422861    0.7598018    0.7784628    0.8145190
:EIG00031:       0.8307401    0.9097803    0.9541312    0.9953040    1.2728412
:EIG00036:       1.2943461    1.3828731    1.3834426    1.5380310    1.5910004
:EIG00041:       1.6452879    1.7474497    1.8174097    1.8355319    1.9255549
:EIG00046:       1.9860222    1.9972395    2.0513138    2.1101412    2.1979406
 
:EIG00051:       2.2467373    2.3017081    2.3168615    2.3837559    2.4097552
:EIG00056:       2.4889535    2.5296532    2.5442709    2.6386420    2.6879980
:EIG00061:       2.7574112    2.7672807    2.9019417    2.9836508    2.9893539
:EIG00066:       3.0867346    3.1459009    3.1565313    3.1674872    3.2458646
:EIG00071:       3.2488065    3.2987101    3.3250542    3.3748323    3.3913789
:EIG00076:       3.4306895    3.4657056    3.5030333    3.5293591    3.5548775
:EIG00081:       3.5883622    3.6280457    3.6405638    3.7016716    3.7341119
:EIG00086:       3.7628268    3.8501277    3.8503243    3.8854357    3.8986045
:EIG00091:       3.9317197    3.9589828    3.9983115    4.0071061    4.0172910
:EIG00096:       4.0693075    4.1034012    4.1091205    4.1214579    4.2026356
 
:EIG00101:       4.2698483    4.3942941    4.4031690    4.4630895    4.4999178
:EIG00106:       4.5055691    4.5518687    4.5592487    4.6036534    4.6352018
:EIG00111:       4.7174075    4.7322067    4.7564737    4.7825617    4.8400243
:EIG00116:       4.8798776    4.9561039    4.9642050    4.9964448    5.0259006
:EIG00121:       5.0398971    5.1279772    5.1611299    5.1863142    5.2319649
:EIG00126:       5.3180330    5.3335668    5.3683742    5.4115838    5.4457610
:EIG00131:       5.4483965    5.5167919    5.5471565    5.5477095    5.5724080
:EIG00136:       5.6416717    5.6798835    5.7295572    5.7424626    5.7722974
:EIG00141:       5.7876243    5.7994510    5.8462733    5.8856378    5.9363940
:EIG00146:       5.9419238    5.9472402    5.9524922    5.9746626    6.0629072
 
:EIG00151:       6.1036177    6.1054240    6.1937760    6.2032410    6.2600486
:EIG00156:       6.3543490    6.4417494    6.4678726    6.5017247    6.5194257
:EIG00161:       6.5849088    6.6166181    6.6652772    6.6885888    6.6905244
:EIG00166:       6.7578463    6.7736894    6.7831749    6.8207557    6.8664134
:EIG00171:       6.8827751    6.9461196    6.9796595    6.9826848    7.0445167
:EIG00176:       7.0637363    7.0729322    7.1223779    7.1349034    7.1731795
:EIG00181:       7.2308646    7.2434626    7.2583163    7.2732181    7.3242180
:EIG00186:       7.3348883    7.3572113    7.4486185    7.4660950    7.4693260
:EIG00191:       7.5044487    7.5257111    7.5835069    7.5854428    7.6130631
:EIG00196:       7.6220467    7.6386471    7.6756585    7.6800363    7.7275564
 
:EIG00201:       7.7286606    7.7845706    7.7985291    7.8219547    7.8860122
:EIG00206:       7.8916954    7.9031841    7.9533679    7.9911699    8.0033385
:EIG00211:       8.0197562    8.0694737    8.0822527
       ********************************************************

:KPT   :      NUMBER OF K-POINTS:   288
   0.0   0.0 angle (M,z), angle (M,x) deg
 
        SPIN-ORBIT EIGENVALUES:
     K=   0.06250   0.00000   0.06250            1
      MATRIX SIZE=  426   WEIGHT= 4.00
     EIGENVALUES ARE:
          -2.0518640   -2.0518640   -2.0400916   -2.0400916   -0.8658143
          -0.8658143   -0.8320275   -0.8320275   -0.6786377   -0.6786377
          -0.6222745   -0.6222745   -0.6195770   -0.6195770   -0.6119143
          -0.6119143    0.3563474    0.3563474    0.4961880    0.4961880
           0.5780592    0.5780592    0.5798039    0.5798039    0.5803897
           0.5803897    0.5819841    0.5819841    0.5849794    0.5849794
           0.5881896    0.5881896    0.6046392    0.6046392    0.6107081
           0.6107081    0.6142048    0.6142048    0.6150317    0.6150317

           0.6191667    0.6191668    0.6223819    0.6223819    0.6230808
           0.6230808    0.6274700    0.6274700    0.6572545    0.6572545
           0.6703546    0.6703546    0.7415852    0.7415853    0.7594840
           0.7594840    0.7791948    0.7791948    0.8150292    0.8150292
           0.8307635    0.8307635    0.9096044    0.9096044    0.9544233
           0.9544233    0.9954310    0.9954310    1.2727417    1.2727417
           1.2946561    1.2946561    1.3825784    1.3825784    1.3837510
           1.3837510    1.5376017    1.5376017    1.5904160    1.5904160

           1.6452276    1.6452276    1.7456781    1.7456781    1.8160823
           1.8160823    1.8366362    1.8366362    1.9260515    1.9260515
           1.9855897    1.9855897    1.9952458    1.9952458    2.0522348
           2.0522348    2.1107757    2.1107757    2.1975053    2.1975053
           2.2463478    2.2463478    2.2988497    2.2988497    2.3189041
           2.3189041    2.3844329    2.3844329    2.4110623    2.4110623
           2.4889435    2.4889435    2.5288201    2.5288201    2.5454912
           2.5454912    2.6387612    2.6387612    2.6877408    2.6877408

           2.7602472    2.7602472    2.7682120    2.7682120    2.9018460
           2.9018460    2.9835997    2.9835997    2.9896281    2.9896281
           3.0866261    3.0866261    3.1456646    3.1456646    3.1569828
           3.1569828    3.1673120    3.1673120    3.2458470    3.2458470
           3.2491090    3.2491090    3.2987297    3.2987297    3.3251114
           3.3251114    3.3741633    3.3741633    3.3922521    3.3922521
           3.4308834    3.4308834    3.4671250    3.4671250    3.5031114
           3.5031114    3.5294433    3.5294433    3.5552621    3.5552621

           3.5885379    3.5885379    3.6280639    3.6280639    3.6407749
           3.6407749    3.7018143    3.7018143    3.7341696    3.7341696
           3.7629354    3.7629354    3.8500526    3.8500526    3.8505114
           3.8505114    3.8854385    3.8854385    3.8986641    3.8986641
           3.9317408    3.9317408    3.9590335    3.9590335    3.9982670
           3.9982670    4.0069385    4.0069385    4.0172866    4.0172866
           4.0693343    4.0693343    4.1027934    4.1027934    4.1098299
           4.1098299    4.1215643    4.1215643    4.2026896    4.2026896

           4.2696965    4.2696965    4.3926324    4.3926324    4.4040493
           4.4040493    4.4638966    4.4638966    4.4998103    4.4998103

       ********************************************************
:GAP (global)   :    0.0    Ry =     0.0   eV (metal)
:GAP (this spin):    0.0    Ry =     0.0   eV (metal)
         Bandranges (emin - emax) and occupancy:
:BAN00018:  18    0.351579    0.559670  1.00000000
:BAN00019:  19    0.459032    0.567731  1.00000000
:BAN00020:  20    0.459032    0.567731  1.00000000
:BAN00021:  21    0.531697    0.579187  1.00000000
:BAN00022:  22    0.531697    0.579187  1.00000000
:BAN00023:  23    0.566612    0.582152  1.00000000
:BAN00024:  24    0.566612    0.582152  1.00000000
:BAN00025:  25    0.573593    0.588212  0.80271926
:BAN00026:  26    0.573593    0.588212  0.80271899
:BAN00027:  27    0.580547    0.588768  0.19728103
:BAN00028:  28    0.580547    0.588768  0.19728071
:BAN00029:  29    0.584000    0.593006  0.00000000
:BAN00030:  30    0.584000    0.593006  0.00000000
:BAN00031:  31    0.586785    0.597090  0.00000000
:BAN00032:  32    0.586785    0.597090  0.00000000
:BAN00033:  33    0.590495    0.604931  0.00000000
        Energy to separate low and high energystates:    0.30158


:NOE  : NUMBER OF ELECTRONS          =   26.000

:FER  : F E R M I - ENERGY(TETRAH.M.)=   0.5833569702
:GMA  : POTENTIAL AND CHARGE CUT-OFF  12.00 Ry**.5

:POS001: ATOM   -1 X,Y,Z = 0.00000 0.89750 0.25000  MULT= 2  ZZ= 59.000  Pr1       

       LMMAX 16
       LM=   0 0  1 0  2 0  2 2  3 0  3 2  4 0  4 2  4 4  5 0  5 2  5 4  6 0  6 2  6 4  6 6

:CHA001: TOTAL VALENCE CHARGE INSIDE SPHERE   1 =   9.6359    (RMT=  2.3000 )
:PCS001: PARTIAL CHARGES SPHERE =  1 S,P,D,F,PX,PY,PZ,D-Z2,D-X2Y2,D-XY,D-XZ,D-YZ 
:QTL001: 1.9391 5.0132 0.4491 2.2343 1.6686 1.6684 1.6761 0.0813 0.0801 0.1034 0.0858 0.0984
        Q-s-low E-s-low   Q-p-low E-p-low   Q-d-low E-d-low   Q-f-low E-f-low
:EPL001:  1.8696 -2.0403    4.9542 -0.7229    0.0013 -0.7145    0.0004 -0.7238
        Q-s-hi  E-s-hi    Q-p-hi  E-p-hi    Q-d-hi  E-d-hi    Q-f-hi  E-f-hi 
:EPH001:  0.0695  0.4890    0.0590  0.5245    0.4478  0.5396    2.2339  0.5730

                      VXX         VYY         VZZ       UP TO R
:VZZ001:             3.69752     1.87372    -5.57124       2.300

:CHA  : TOTAL VALENCE CHARGE INSIDE UNIT CELL =      26.000000

:SUM  : SUM OF EIGENVALUES =         -11.339228996


        1.ATOM      Pr1                  14 CORE STATES
       CORE-FORCE in mRy/a.u. = |F|      Fx             Fy             Fz
:FCO001:   1.ATOM   1255.358429090799      0.000000000000      0.000000000000   1255.358429090799

:1S 001: 1S               -3067.017212992 Ry
:2S 001: 2S                -492.768835232 Ry
:2PP001: 2P*               -465.868289959 Ry
:2P 001: 2P                -430.470681604 Ry
:3S 001: 3S                -105.855752565 Ry
:3PP001: 3P*                -94.393763065 Ry
:3P 001: 3P                 -87.385764578 Ry
:3DD001: 3D*                -67.313257206 Ry
:3D 001: 3D                 -65.801634504 Ry
:4S 001: 4S                 -20.531537597 Ry
:4PP001: 4P*                -16.238403390 Ry
:4P 001: 4P                 -14.711063309 Ry
:4DD001: 4D*                 -7.644219040 Ry
:4D 001: 4D                  -7.374842245 Ry
:CINT001 Core Integral Atom   1   45.998489

       DENSITY AT NUCLEUS
        JATOM        VALENCE       SEMI-CORE          CORE           TOTAL
:RTO001:   1      647.099625        0.000000   656825.113509   657472.213134
     
       CHARGES OF NEW CHARGE DENSITY
:NTO   : INTERSTITIAL CHARGE =     6.728285
:NPC   : PW Pseudocharge     =    16.809368
:NTO001: CHARGE SPHERE  1    =    55.634346

:NEC01: NUCLEAR AND ELECTRONIC CHARGE    118.00000   117.99698
     
       CHARGES OF OLD CHARGE DENSITY
:OTO   : INTERSTITIAL CHARGE =     6.989061
:OPC   : PW Pseudocharge     =    16.891075
:OTO001: CHARGE SPHERE  1    =    55.505469

:NEC02: NUCLEAR AND ELECTRONIC CHARGE    118.00000   118.00000
     
       CONVERGENCE TEST
:DTO001: DIFFERENCE IN SPHERE  1 =  0.2165071

:DIS  :  CHARGE DISTANCE       ( 0.2165071 for atom    1 spin 1)      0.2165071
 PW Mixed is          517
 
******************************************************
* MULTISECANT MIXING VER9 RELEASE 10.4.0              *
* Standard Mode with controls                        *
* Fixed density scale                                *
* Regularization       1.000E-04                     *
* Trust Upper Limit    5.000E+00                     *
* Max Number of Memory Steps    8                    *
******************************************************
 
:PWTMP   4.0015E+02  1.9467E+02  5.0208E+02
:PLANE:  PW TOTAL      4.5311 DISTAN   3.45E-02  7.61E-01 %
:CHARG:  CLM/ATOM   1381.9448 DISTAN   3.46E-01  2.50E-02 %
 
Step History
        DMIX         DMIXT        Red     Pred      Trust     Lambda    MagRel    MagAbs     Beta
  1   3.5000E-02   3.5000E-02 -1.00E+00  1.00E+00 -1.00E+01  1.00E+00  3.50E-02  3.50E-02  1.00E+00
:INFO :  Note, Pratt in use
:TRUST:  Step 3.75E-02  Charge 7.50E-02 (e) CTO  2.50E-01 (e) PW  3.50E-01 (e)
:DIRM :  MEMORY  0/ 8 SCALE   1.000
Performing Pseudo Compensation
Final Pseudo Compensation Rescaling     1.00000E+00
:MIX  :   PRATT  REGULARIZATION:  1.00E-04 GREED: 0.02500                  
     
       CHARGES OF MIXED CHARGE DENSITY
:CTO   : INTERSTITIAL CHARGE =     6.982617
:CPC   : PW Pseudocharge     =    16.875683
:CTO001: CHARGE SPHERE  1    =    55.508691

:NEC03: NUCLEAR AND ELECTRONIC CHARGE    118.00000   118.00000

PW CHANGE     H    K    L      Current       Change    Residue
:PTO001:      0    0    0  4.75193030E-02 -4.349E-05 -6.611E-04
:PTO003:      0    2    0  1.34739336E-02 -8.209E-06  4.545E-05
:PTO004:     -1    1    0  6.65996212E-02 -5.042E-05 -1.764E-04
:PTO005:      0    2   -1 -7.76116083E-02  5.097E-05 -1.022E-04
:PTO006:      0    0   -2 -4.01615200E-02  2.868E-05  3.655E-05
:PTO007:     -1    1   -1 -8.46096854E-02  5.554E-05 -4.452E-05
:PTO008:      0    2   -2 -1.40361288E-02  8.504E-06  2.651E-05
:PTO009:     -1    1   -2 -7.29206116E-02  3.423E-05 -3.010E-05
:PTO011:     -1    3    0 -1.21161574E-02  5.613E-06  9.262E-05
:PTO012:     -1    3   -1 -5.47913783E-02  6.152E-06 -5.143E-05
:PTO013:      0    4    0 -1.01624332E-02 -1.491E-06 -3.599E-05
:PTO014:      0    2   -3  2.32682371E-02  1.558E-06 -8.178E-07

:ENE  : ********** TOTAL ENERGY IN Ry =       -36944.20850710

       TOTAL FORCE IN mRy/a.u. = |F|     Fx             Fy             Fz     with/without FOR in case.in2
:FOR001:   1.ATOM         28.798          0.000          0.000        -28.798 partial forces
       TOTAL FORCE WITH RESPECT TO GLOBAL CARTESIAN COORDINATES:
:FCA001:   1.ATOM                         0.000        -28.798          0.000 partial forces
       TOTAL FORCE WITH RESPECT TO THE GLOBAL COORDINATE SYSTEM:
:FGL001:   1.ATOM                 0.000000000   -28.797610546     0.000000000 partial forces
 Flat Integration
 New Mode for Coulomb Integral
 Consistent 3/8+Simpson combinations
 Extension of core to zero
 LDM version in phi
 Fifth-order quadrature in outwin


            ---------
:ITE016: 16. ITERATION
            ---------

:NATO :    1 INDEPENDENT AND    2 TOTAL ATOMS IN UNITCELL
       SUBSTANCE: aU                                                          

       LATTICE                      = CXY 
:POT  : POTENTIAL OPTION EX_LDA EC_LDA VX_LDA VC_LDA
:LAT  : LATTICE CONSTANTS=  6.56123 13.31438 11.49459    1.571    1.571    1.571
:VOL  : UNIT CELL VOLUME =     502.07598
       MODE OF CALCULATION IS       = RELA
       NON-SPINPOLARIZED CALCULATION
:IFFT  : FFT-parameters:   54  108   90 Factor: 2.00


   CONVERGENCE PARAMETER FOR PSEUDOCHARGE: NCON=  9
   MAXIMAL VALUE OF RMT(JATOM)*ABSK(NKK) : RK  =27.59428


:VKCOUL :  VK-COUL convergence: 0.158E-06
       ATOMNUMBER=  1 Pr1        VCOUL-ZERO =  0.23489E-01
:EFG001:                        EFG         =    -7.37601   *10**21  V / m**2
                               V20  TOT/SRF=    -6.38781    -0.02286
                               V22  TOT/SRF=     0.06247     0.00089
                               V22M TOT/SRF=     0.00000     0.00000
                               V21  TOT/SRF=     0.00000     0.00000
                               V21M TOT/SRF=     0.00000     0.00000

              3.75048    0.00000    0.00000        3.75048    0.00000    0.00000
              0.00000    3.62553    0.00000        0.00000    3.62553    0.00000
              0.00000    0.00000   -7.37601        0.00000    0.00000   -7.37601

         MAIN DIRECTIONS OF THE EFG   1.0000  0.0000  0.0000
                                      0.0000  1.0000  0.0000
                                      0.0000  0.0000  1.0000
:ANG001:  ANGLE WITH OLD X-AXIS =         0.0

:ETA001:                         ASYMM. ETA =     0.01694


     HELLMANN-FEYNMAN-FORCE IN mRy/a.u. = |F|  Fx       Fy             Fz
:FHF001:   1.ATOM   1283.872497140569      0.000000000000      0.000000000000  -1283.872497140569

:FIT001: LUSE= 13 SIGMA OF V-XC FIT FOR ATOM  1  0.5717736E-04
:FIT001: LUSE= 13 SIGMA OF V-XC FIT FOR ATOM  1  0.5717736E-04
:DEN  : DENSITY INTEGRAL  =        -14144.50152654   (Ry)
       ELS_POTENTIAL_AT Z=0 and Z=0.5:   0.69472   0.69472
       ELS_POTENTIAL_AT Y=0 and Y=0.5:   0.07686   0.07686
:VZERO:v0,v0c,v0x   0.13179   0.69472  -0.56293 v5,v5c,v5x   0.13179   0.69472  -0.56293
:VZERY:v0,v0c,v0x  -0.67767   0.07686  -0.75452 v5,v5c,v5x  -0.67767   0.07686  -0.75452
:VZERX:v0,v0c,v0x  -1.09720  -0.37232  -0.72488 v5,v5c,v5x  -1.09720  -0.37232  -0.72488
:LMAX-WF:   10   Non-Spherical LMAX:   4

          ATOMIC SPHERE DEPENDENT PARAMETERS FOR ATOM  Pr1       
:e__0001: OVERALL ENERGY PARAMETER IS    0.3855
          OVERALL BASIS SET ON ATOM IS LAPW
:E0_0001: E( 0)=    0.3855
             APW+lo
:E0_0001: E( 0)=   -2.0810   E(BOTTOM)=   -2.717   E(TOP)=   -1.445  4  5   174
             LOCAL ORBITAL
:E1_0001: E( 1)=    0.7855
             APW+lo
:E1_0001: E( 1)=   -0.6115   E(BOTTOM)=   -1.570   E(TOP)=    0.347  3  4   192
             LOCAL ORBITAL
:E3_0001: E( 3)=    0.5764   E(BOTTOM)=    0.368   E(TOP)=    0.785  0  1   124
             APW+lo
:E2_0001: E( 2)=    0.3855   E(BOTTOM)=    0.171   E(TOP)= -200.000  2 -1    88
             APW+lo

       K=   0.06250   0.00000   0.06250            1
:RKM  : MATRIX SIZE   463LOs:  40  RKM= 8.50  WEIGHT= 4.00  PGR:    
       EIGENVALUES ARE:
:EIG00001:      -2.0498388   -2.0380329   -0.7703335   -0.7042789   -0.6891674
:EIG00006:      -0.6830659   -0.6768848   -0.6768557    0.3561262    0.4963220
:EIG00011:       0.5883436    0.5892947    0.5894635    0.5914595    0.5950275
:EIG00016:       0.6047901    0.6080713    0.6087168    0.6111650    0.6133064
:EIG00021:       0.6170314    0.6204392    0.6211354    0.6258548    0.6577742
:EIG00026:       0.6711451    0.7428649    0.7601947    0.7788319    0.8149373
:EIG00031:       0.8312267    0.9103055    0.9547822    0.9959912    1.2733722
:EIG00036:       1.2944616    1.3829971    1.3834502    1.5379994    1.5909405
:EIG00041:       1.6453650    1.7475334    1.8175579    1.8356840    1.9258857
:EIG00046:       1.9861532    1.9971878    2.0514613    2.1101945    2.1982078
 
:EIG00051:       2.2468854    2.3017893    2.3169490    2.3839973    2.4100470
:EIG00056:       2.4889840    2.5295738    2.5448055    2.6387624    2.6882300
:EIG00061:       2.7577463    2.7672542    2.9021733    2.9834441    2.9894214
:EIG00066:       3.0867682    3.1458808    3.1566925    3.1677603    3.2456038
:EIG00071:       3.2487237    3.2986199    3.3250146    3.3748522    3.3913253
:EIG00076:       3.4308305    3.4655749    3.5030273    3.5292372    3.5549076
:EIG00081:       3.5882487    3.6277946    3.6404248    3.7017504    3.7339296
:EIG00086:       3.7625442    3.8499476    3.8499768    3.8851963    3.8985834
:EIG00091:       3.9314612    3.9588754    3.9980350    4.0071955    4.0174045
:EIG00096:       4.0690585    4.1031439    4.1090320    4.1212045    4.2023510
 
:EIG00101:       4.2698288    4.3941301    4.4031786    4.4629745    4.4996804
:EIG00106:       4.5053676    4.5516727    4.5590841    4.6035286    4.6349542
:EIG00111:       4.7170873    4.7323290    4.7560869    4.7826320    4.8398903
:EIG00116:       4.8799568    4.9562120    4.9639282    4.9965976    5.0261511
:EIG00121:       5.0399163    5.1278255    5.1612932    5.1861247    5.2319007
:EIG00126:       5.3179558    5.3337084    5.3683095    5.4114914    5.4458299
:EIG00131:       5.4481798    5.5166340    5.5470578    5.5475702    5.5723899
:EIG00136:       5.6415253    5.6797326    5.7293300    5.7423528    5.7722417
:EIG00141:       5.7875796    5.7996292    5.8461628    5.8853248    5.9366617
:EIG00146:       5.9417630    5.9469417    5.9524055    5.9745961    6.0626471
 
:EIG00151:       6.1037709    6.1051368    6.1936959    6.2029583    6.2601233
:EIG00156:       6.3541391    6.4416143    6.4677034    6.5015173    6.5195301
:EIG00161:       6.5850133    6.6163877    6.6651595    6.6886170    6.6906139
:EIG00166:       6.7578280    6.7735437    6.7830995    6.8206397    6.8664774
:EIG00171:       6.8828805    6.9461378    6.9797825    6.9827375    7.0445685
:EIG00176:       7.0639511    7.0731066    7.1223460    7.1351505    7.1732487
:EIG00181:       7.2309199    7.2433296    7.2582972    7.2731664    7.3240560
:EIG00186:       7.3346899    7.3574416    7.4486131    7.4661221    7.4694582
:EIG00191:       7.5042987    7.5256070    7.5834738    7.5852769    7.6128411
:EIG00196:       7.6220597    7.6384407    7.6756531    7.6799382    7.7273943
 
:EIG00201:       7.7287579    7.7843999    7.7982585    7.8219952    7.8859256
:EIG00206:       7.8918191    7.9032050    7.9532503    7.9911267    8.0032208
:EIG00211:       8.0196850    8.0694044    8.0821782
       ********************************************************

:KPT   :      NUMBER OF K-POINTS:   288
   0.0   0.0 angle (M,z), angle (M,x) deg
 
        SPIN-ORBIT EIGENVALUES:
     K=   0.06250   0.00000   0.06250            1
      MATRIX SIZE=  426   WEIGHT= 4.00
     EIGENVALUES ARE:
          -2.0498388   -2.0498388   -2.0380330   -2.0380330   -0.8642741
          -0.8642741   -0.8303670   -0.8303670   -0.6772883   -0.6772883
          -0.6207605   -0.6207605   -0.6180853   -0.6180853   -0.6103960
          -0.6103960    0.3561588    0.3561588    0.4961976    0.4961976
           0.5815433    0.5815433    0.5834094    0.5834094    0.5840008
           0.5840008    0.5855801    0.5855801    0.5886068    0.5886068
           0.5920758    0.5920758    0.6079670    0.6079670    0.6144472
           0.6144472    0.6179858    0.6179858    0.6187910    0.6187910

           0.6228610    0.6228610    0.6260956    0.6260956    0.6268823
           0.6268823    0.6313006    0.6313006    0.6586174    0.6586174
           0.6711312    0.6711312    0.7422086    0.7422086    0.7598660
           0.7598660    0.7795653    0.7795653    0.8154460    0.8154460
           0.8312508    0.8312508    0.9101307    0.9101308    0.9550727
           0.9550727    0.9961172    0.9961172    1.2732700    1.2732700
           1.2947742    1.2947742    1.3826699    1.3826699    1.3837918
           1.3837918    1.5375715    1.5375715    1.5903568    1.5903568

           1.6453049    1.6453049    1.7457662    1.7457662    1.8162295
           1.8162295    1.8367853    1.8367853    1.9263800    1.9263800
           1.9857136    1.9857136    1.9952121    1.9952121    2.0523733
           2.0523733    2.1108353    2.1108353    2.1977711    2.1977711
           2.2464938    2.2464938    2.2989337    2.2989337    2.3189915
           2.3189915    2.3846582    2.3846582    2.4113584    2.4113584
           2.4889805    2.4889805    2.5287679    2.5287679    2.5459929
           2.5459929    2.6388845    2.6388845    2.6879760    2.6879760

           2.7605362    2.7605362    2.7682278    2.7682278    2.9020772
           2.9020772    2.9833978    2.9833978    2.9896904    2.9896904
           3.0866614    3.0866614    3.1456509    3.1456509    3.1571377
           3.1571377    3.1675813    3.1675813    3.2455927    3.2455927
           3.2490203    3.2490203    3.2986391    3.2986391    3.3250719
           3.3250719    3.3741789    3.3741789    3.3922036    3.3922036
           3.4310241    3.4310241    3.4669948    3.4669948    3.5031052
           3.5031052    3.5293234    3.5293234    3.5552899    3.5552899

           3.5884239    3.5884239    3.6278130    3.6278130    3.6406369
           3.6406369    3.7018925    3.7018925    3.7339877    3.7339877
           3.7626527    3.7626527    3.8497844    3.8497844    3.8502523
           3.8502523    3.8851993    3.8851993    3.8986429    3.8986429
           3.9314825    3.9314825    3.9589263    3.9589263    3.9979934
           3.9979934    4.0070242    4.0070242    4.0173988    4.0173988
           4.0690855    4.0690855    4.1025528    4.1025528    4.1097246
           4.1097246    4.1213129    4.1213129    4.2024052    4.2024052

           4.2696768    4.2696768    4.3924928    4.3924928    4.4040297
           4.4040297    4.4637819    4.4637819    4.4995780    4.4995780

       ********************************************************
:GAP (global)   :    0.0    Ry =     0.0   eV (metal)
:GAP (this spin):    0.0    Ry =     0.0   eV (metal)
         Bandranges (emin - emax) and occupancy:
:BAN00018:  18    0.351387    0.561033  1.00000000
:BAN00019:  19    0.458931    0.569623  1.00000000
:BAN00020:  20    0.458931    0.569623  1.00000000
:BAN00021:  21    0.532054    0.581877  1.00000000
:BAN00022:  22    0.532054    0.581877  1.00000000
:BAN00023:  23    0.568410    0.585591  1.00000000
:BAN00024:  24    0.568410    0.585591  1.00000000
:BAN00025:  25    0.576491    0.592031  0.80480691
:BAN00026:  26    0.576491    0.592031  0.80480664
:BAN00027:  27    0.583922    0.592633  0.19519335
:BAN00028:  28    0.583922    0.592633  0.19519310
:BAN00029:  29    0.587649    0.595993  0.00000000
:BAN00030:  30    0.587649    0.595993  0.00000000
:BAN00031:  31    0.590588    0.600324  0.00000000
:BAN00032:  32    0.590588    0.600324  0.00000000
:BAN00033:  33    0.594281    0.608260  0.00000000
        Energy to separate low and high energystates:    0.30139


:NOE  : NUMBER OF ELECTRONS          =   26.000

:FER  : F E R M I - ENERGY(TETRAH.M.)=   0.5869145223
:GMA  : POTENTIAL AND CHARGE CUT-OFF  12.00 Ry**.5

:POS001: ATOM   -1 X,Y,Z = 0.00000 0.89750 0.25000  MULT= 2  ZZ= 59.000  Pr1       

       LMMAX 16
       LM=   0 0  1 0  2 0  2 2  3 0  3 2  4 0  4 2  4 4  5 0  5 2  5 4  6 0  6 2  6 4  6 6

:CHA001: TOTAL VALENCE CHARGE INSIDE SPHERE   1 =   9.5786    (RMT=  2.3000 )
:PCS001: PARTIAL CHARGES SPHERE =  1 S,P,D,F,PX,PY,PZ,D-Z2,D-X2Y2,D-XY,D-XZ,D-YZ 
:QTL001: 1.9395 5.0137 0.4668 2.1584 1.6686 1.6686 1.6766 0.0852 0.0840 0.1057 0.0893 0.1025
        Q-s-low E-s-low   Q-p-low E-p-low   Q-d-low E-d-low   Q-f-low E-f-low
:EPL001:  1.8694 -2.0382    4.9524 -0.7214    0.0013 -0.7130    0.0004 -0.7224
        Q-s-hi  E-s-hi    Q-p-hi  E-p-hi    Q-d-hi  E-d-hi    Q-f-hi  E-f-hi 
:EPH001:  0.0700  0.4897    0.0614  0.5268    0.4655  0.5417    2.1581  0.5761

                      VXX         VYY         VZZ       UP TO R
:VZZ001:             4.01610     2.40444    -6.42055       2.300

:CHA  : TOTAL VALENCE CHARGE INSIDE UNIT CELL =      26.000000

:SUM  : SUM OF EIGENVALUES =         -11.295918465


        1.ATOM      Pr1                  14 CORE STATES
       CORE-FORCE in mRy/a.u. = |F|      Fx             Fy             Fz
:FCO001:   1.ATOM   1255.113941589564      0.000000000000      0.000000000000   1255.113941589564

:1S 001: 1S               -3067.009812028 Ry
:2S 001: 2S                -492.761418686 Ry
:2PP001: 2P*               -465.860876830 Ry
:2P 001: 2P                -430.463267398 Ry
:3S 001: 3S                -105.848498813 Ry
:3PP001: 3P*                -94.386493825 Ry
:3P 001: 3P                 -87.378524170 Ry
:3DD001: 3D*                -67.305964411 Ry
:3D 001: 3D                 -65.794348800 Ry
:4S 001: 4S                 -20.525811843 Ry
:4PP001: 4P*                -16.232773997 Ry
:4P 001: 4P                 -14.705582925 Ry
:4DD001: 4D*                 -7.639003978 Ry
:4D 001: 4D                  -7.369678176 Ry
:CINT001 Core Integral Atom   1   45.998485

       DENSITY AT NUCLEUS
        JATOM        VALENCE       SEMI-CORE          CORE           TOTAL
:RTO001:   1      647.053325        0.000000   656824.797958   657471.851283
     
       CHARGES OF NEW CHARGE DENSITY
:NTO   : INTERSTITIAL CHARGE =     6.842743
:NPC   : PW Pseudocharge     =    16.838066
:NTO001: CHARGE SPHERE  1    =    55.577113

:NEC01: NUCLEAR AND ELECTRONIC CHARGE    118.00000   117.99697
     
       CHARGES OF OLD CHARGE DENSITY
:OTO   : INTERSTITIAL CHARGE =     6.982617
:OPC   : PW Pseudocharge     =    16.875683
:OTO001: CHARGE SPHERE  1    =    55.508691

:NEC02: NUCLEAR AND ELECTRONIC CHARGE    118.00000   118.00000
     
       CONVERGENCE TEST
:DTO001: DIFFERENCE IN SPHERE  1 =  0.1184409

:DIS  :  CHARGE DISTANCE       ( 0.1184409 for atom    1 spin 1)      0.1184409
 PW Mixed is          517
 
******************************************************
* MULTISECANT MIXING VER9 RELEASE 10.4.0              *
* Slow Mode, cautious                                *
* Fixed density scale                                *
* Regularization       1.000E-04                     *
* Step Trust Radius    0.75000                       *
* Trust Upper Limit    2.000E+00                     *
* Max Number of Memory Steps   12                    *
******************************************************
 
:PWTMP   4.0015E+02  1.9467E+02  5.0208E+02
:PLANE:  PW TOTAL      4.5283 DISTAN   1.83E-02  4.05E-01 %
:CHARG:  CLM/ATOM   1381.9453 DISTAN   2.21E-01  1.60E-02 %
 
Step History
        DMIX         DMIXT        Red     Pred      Trust     Lambda    MagRel    MagAbs     Beta
  1   3.5000E-02   3.5000E-02 -1.00E+00  1.00E+00 -1.00E+01  1.00E+00  3.50E-02  3.50E-02  1.00E+00
  2   2.5000E-02   2.5000E-02 -1.00E+00  1.00E+00 -1.00E+01  1.00E+00  2.50E-02  8.68E-03  1.00E+00
:JACOBIANS    1.341E-03   2.808E-02
  
:TRUST:  Step 2.95E-02  Charge 7.50E-02 (e) CTO  2.50E-01 (e) PW  3.50E-01 (e)
:DIRM :  MEMORY  1/12 SCALE   1.000
:MIX  :   PRATT  REGULARIZATION:  1.00E-04 GREED: 0.02952  Expand 1.18  0.0295                
     
       CHARGES OF MIXED CHARGE DENSITY
:CTO   : INTERSTITIAL CHARGE =     6.974422
:CPC   : PW Pseudocharge     =    16.856109
:CTO001: CHARGE SPHERE  1    =    55.512789

:NEC03: NUCLEAR AND ELECTRONIC CHARGE    118.00000   118.00000

PW CHANGE     H    K    L      Current       Change    Residue
:PTO001:      0    0    0  4.74639930E-02 -5.531E-05 -3.326E-04
:PTO003:      0    2    0  1.34634940E-02 -1.044E-05  3.466E-05
:PTO004:     -1    1    0  6.65354973E-02 -6.412E-05 -8.679E-05
:PTO005:      0    2   -1 -7.75467887E-02  6.482E-05 -1.240E-04
:PTO006:      0    0   -2 -4.01250440E-02  3.648E-05 -2.370E-06
:PTO007:     -1    1   -1 -8.45390476E-02  7.064E-05 -5.907E-05
:PTO008:      0    2   -2 -1.40253141E-02  1.081E-05  1.627E-05
:PTO009:     -1    1   -2 -7.28770748E-02  4.354E-05 -3.642E-05
:PTO011:     -1    3    0 -1.21090187E-02  7.139E-06  6.705E-05
:PTO012:     -1    3   -1 -5.47835557E-02  7.823E-06 -3.224E-05
:PTO013:      0    4    0 -1.01643298E-02 -1.897E-06 -1.781E-05
:PTO014:      0    2   -3  2.32702193E-02  1.982E-06 -5.208E-06

:ENE  : ********** TOTAL ENERGY IN Ry =       -36944.20725586

       TOTAL FORCE IN mRy/a.u. = |F|     Fx             Fy             Fz     with/without FOR in case.in2
:FOR001:   1.ATOM         28.759          0.000          0.000        -28.759 partial forces
       TOTAL FORCE WITH RESPECT TO GLOBAL CARTESIAN COORDINATES:
:FCA001:   1.ATOM                         0.000        -28.759          0.000 partial forces
       TOTAL FORCE WITH RESPECT TO THE GLOBAL COORDINATE SYSTEM:
:FGL001:   1.ATOM                 0.000000000   -28.758555551     0.000000000 partial forces
 Flat Integration
 New Mode for Coulomb Integral
 Consistent 3/8+Simpson combinations
 Extension of core to zero
 LDM version in phi
 Fifth-order quadrature in outwin


            ---------
:ITE017: 17. ITERATION
            ---------

:NATO :    1 INDEPENDENT AND    2 TOTAL ATOMS IN UNITCELL
       SUBSTANCE: aU                                                          

       LATTICE                      = CXY 
:POT  : POTENTIAL OPTION EX_LDA EC_LDA VX_LDA VC_LDA
:LAT  : LATTICE CONSTANTS=  6.56123 13.31438 11.49459    1.571    1.571    1.571
:VOL  : UNIT CELL VOLUME =     502.07598
       MODE OF CALCULATION IS       = RELA
       NON-SPINPOLARIZED CALCULATION
:IFFT  : FFT-parameters:   54  108   90 Factor: 2.00


   CONVERGENCE PARAMETER FOR PSEUDOCHARGE: NCON=  9
   MAXIMAL VALUE OF RMT(JATOM)*ABSK(NKK) : RK  =27.59428


:VKCOUL :  VK-COUL convergence: 0.157E-06
       ATOMNUMBER=  1 Pr1        VCOUL-ZERO =  0.23449E-01
:EFG001:                        EFG         =    -7.31782   *10**21  V / m**2
                               V20  TOT/SRF=    -6.33742    -0.02255
                               V22  TOT/SRF=     0.09031     0.00109
                               V22M TOT/SRF=     0.00000     0.00000
                               V21  TOT/SRF=     0.00000     0.00000
                               V21M TOT/SRF=     0.00000     0.00000

              3.74922    0.00000    0.00000        3.74922    0.00000    0.00000
              0.00000    3.56860    0.00000        0.00000    3.56860    0.00000
              0.00000    0.00000   -7.31782        0.00000    0.00000   -7.31782

         MAIN DIRECTIONS OF THE EFG   1.0000  0.0000  0.0000
                                      0.0000  1.0000  0.0000
                                      0.0000  0.0000  1.0000
:ANG001:  ANGLE WITH OLD X-AXIS =         0.0

:ETA001:                         ASYMM. ETA =     0.02468


     HELLMANN-FEYNMAN-FORCE IN mRy/a.u. = |F|  Fx       Fy             Fz
:FHF001:   1.ATOM   1283.509313422890      0.000000000000      0.000000000000  -1283.509313422890

:FIT001: LUSE= 13 SIGMA OF V-XC FIT FOR ATOM  1  0.5659582E-04
:FIT001: LUSE= 13 SIGMA OF V-XC FIT FOR ATOM  1  0.5659582E-04
:DEN  : DENSITY INTEGRAL  =        -14145.32193962   (Ry)
       ELS_POTENTIAL_AT Z=0 and Z=0.5:   0.69375   0.69375
       ELS_POTENTIAL_AT Y=0 and Y=0.5:   0.07678   0.07678
:VZERO:v0,v0c,v0x   0.13107   0.69375  -0.56268 v5,v5c,v5x   0.13107   0.69375  -0.56268
:VZERY:v0,v0c,v0x  -0.67745   0.07678  -0.75422 v5,v5c,v5x  -0.67745   0.07678  -0.75422
:VZERX:v0,v0c,v0x  -1.09640  -0.37180  -0.72460 v5,v5c,v5x  -1.09640  -0.37180  -0.72460
:LMAX-WF:   10   Non-Spherical LMAX:   4

          ATOMIC SPHERE DEPENDENT PARAMETERS FOR ATOM  Pr1       
:e__0001: OVERALL ENERGY PARAMETER IS    0.3864
          OVERALL BASIS SET ON ATOM IS LAPW
:E0_0001: E( 0)=    0.3864
             APW+lo
:E0_0001: E( 0)=   -2.0782   E(BOTTOM)=   -2.715   E(TOP)=   -1.441  4  5   176
             LOCAL ORBITAL
:E1_0001: E( 1)=    0.7864
             APW+lo
:E1_0001: E( 1)=   -0.6091   E(BOTTOM)=   -1.568   E(TOP)=    0.350  3  4   188
             LOCAL ORBITAL
:E3_0001: E( 3)=    0.5814   E(BOTTOM)=    0.372   E(TOP)=    0.791  0  1   119
             APW+lo
:E2_0001: E( 2)=    0.3864   E(BOTTOM)=    0.172   E(TOP)= -200.000  2 -1    91
             APW+lo

       K=   0.06250   0.00000   0.06250            1
:RKM  : MATRIX SIZE   463LOs:  40  RKM= 8.50  WEIGHT= 4.00  PGR:    
       EIGENVALUES ARE:
:EIG00001:      -2.0472645   -2.0354161   -0.7686651   -0.7024353   -0.6872790
:EIG00006:      -0.6809984   -0.6748892   -0.6747967    0.3558864    0.4963206
:EIG00011:       0.5924958    0.5936939    0.5938944    0.5958575    0.5992874
:EIG00016:       0.6096551    0.6129387    0.6136186    0.6160770    0.6180135
:EIG00021:       0.6220121    0.6253005    0.6258902    0.6307516    0.6594564
:EIG00026:       0.6721349    0.7436381    0.7607001    0.7793027    0.8154733
:EIG00031:       0.8318493    0.9109740    0.9556100    0.9968628    1.2740421
:EIG00036:       1.2946153    1.3831592    1.3834646    1.5379617    1.5908652
:EIG00041:       1.6454629    1.7476384    1.8177354    1.8358698    1.9262728
:EIG00046:       1.9863045    1.9971097    2.0516365    2.1102366    2.1985131
 
:EIG00051:       2.2470475    2.3018763    2.3170341    2.3842611    2.4103755
:EIG00056:       2.4890121    2.5294477    2.5454070    2.6388853    2.6885085
:EIG00061:       2.7581284    2.7671661    2.9023997    2.9831468    2.9894403
:EIG00066:       3.0867683    3.1457992    3.1568738    3.1680581    3.2452588
:EIG00071:       3.2485790    3.2984710    3.3249245    3.3748571    3.3912360
:EIG00076:       3.4309251    3.4653878    3.5029480    3.5290680    3.5548995
:EIG00081:       3.5880775    3.6274412    3.6402283    3.7018121    3.7336653
:EIG00086:       3.7621515    3.8495154    3.8496933    3.8848736    3.8984552
:EIG00091:       3.9311024    3.9586839    3.9976578    4.0072006    4.0174553
:EIG00096:       4.0687124    4.1027917    4.1088524    4.1208409    4.2019481
 
:EIG00101:       4.2697311    4.3938312    4.4031155    4.4627511    4.4993144
:EIG00106:       4.5050465    4.5513544    4.5588362    4.6032882    4.6345830
:EIG00111:       4.7166426    4.7323592    4.7555727    4.7826094    4.8396869
:EIG00116:       4.8799071    4.9561767    4.9635186    4.9966048    5.0262255
:EIG00121:       5.0398057    5.1275357    5.1612375    5.1858021    5.2317135
:EIG00126:       5.3177264    5.3337008    5.3681434    5.4112745    5.4457366
:EIG00131:       5.4478589    5.5163780    5.5468362    5.5472708    5.5722007
:EIG00136:       5.6412203    5.6794379    5.7289785    5.7420720    5.7720021
:EIG00141:       5.7873929    5.7995707    5.8459244    5.8848620    5.9366402
:EIG00146:       5.9414380    5.9464895    5.9521279    5.9743381    6.0622460
 
:EIG00151:       6.1036939    6.1046981    6.1934492    6.2025120    6.2600331
:EIG00156:       6.3538011    6.4413438    6.4673677    6.5011377    6.5194459
:EIG00161:       6.5850068    6.6159861    6.6648821    6.6884748    6.6905051
:EIG00166:       6.7576012    6.7732304    6.7828448    6.8203415    6.8662527
:EIG00171:       6.8827378    6.9459176    6.9796451    6.9825625    7.0443811
:EIG00176:       7.0639234    7.0730631    7.1221336    7.1351103    7.1731059
:EIG00181:       7.2307508    7.2430234    7.2580377    7.2728999    7.3237202
:EIG00186:       7.3343169    7.3574153    7.4483824    7.4658913    7.4693829
:EIG00191:       7.5039316    7.5252593    7.5832010    7.5849282    7.6124432
:EIG00196:       7.6218276    7.6380503    7.6753838    7.6796545    7.7270034
 
:EIG00201:       7.7285559    7.7840235    7.7978140    7.8217595    7.8856427
:EIG00206:       7.8916353    7.9029727    7.9529101    7.9908330    8.0029007
:EIG00211:       8.0193634    8.0690979    8.0818938
       ********************************************************

:KPT   :      NUMBER OF K-POINTS:   288
   0.0   0.0 angle (M,z), angle (M,x) deg
 
        SPIN-ORBIT EIGENVALUES:
     K=   0.06250   0.00000   0.06250            1
      MATRIX SIZE=  426   WEIGHT= 4.00
     EIGENVALUES ARE:
          -2.0472645   -2.0472645   -2.0354161   -2.0354161   -0.8623187
          -0.8623187   -0.8282579   -0.8282579   -0.6755738   -0.6755738
          -0.6188366   -0.6188366   -0.6161898   -0.6161898   -0.6084660
          -0.6084660    0.3559192    0.3559192    0.4962008    0.4962008
           0.5859132    0.5859132    0.5879753    0.5879753    0.5885737
           0.5885737    0.5901252    0.5901252    0.5931868    0.5931868
           0.5970117    0.5970118    0.6121437    0.6121437    0.6191817
           0.6191817    0.6227761    0.6227761    0.6235689    0.6235689

           0.6275165    0.6275165    0.6307589    0.6307589    0.6316976
           0.6316976    0.6361700    0.6361700    0.6604953    0.6604953
           0.6722112    0.6722112    0.7430406    0.7430407    0.7603577
           0.7603577    0.7800382    0.7800383    0.8159802    0.8159802
           0.8318743    0.8318744    0.9108006    0.9108006    0.9558986
           0.9558986    0.9969874    0.9969874    1.2739364    1.2739364
           1.2949312    1.2949312    1.3827831    1.3827831    1.3838560
           1.3838560    1.5375355    1.5375355    1.5902823    1.5902823

           1.6454030    1.6454030    1.7458764    1.7458764    1.8164058
           1.8164058    1.8369666    1.8369666    1.9267645    1.9267645
           1.9858556    1.9858556    1.9951559    1.9951559    2.0525369
           2.0525369    2.1108845    2.1108845    2.1980745    2.1980745
           2.2466538    2.2466538    2.2990213    2.2990213    2.3190782
           2.3190782    2.3849026    2.3849026    2.4116926    2.4116926
           2.4890161    2.4890161    2.5286712    2.5286712    2.5465580
           2.5465580    2.6390113    2.6390113    2.6882572    2.6882572

           2.7608534    2.7608534    2.7682009    2.7682009    2.9023029
           2.9023029    2.9831054    2.9831054    2.9897045    2.9897045
           3.0866634    3.0866634    3.1455778    3.1455778    3.1573102
           3.1573102    3.1678746    3.1678746    3.2452547    3.2452547
           3.2488696    3.2488696    3.2984899    3.2984899    3.3249819
           3.3249819    3.3741779    3.3741779    3.3921206    3.3921206
           3.4311186    3.4311186    3.4668083    3.4668083    3.5030259
           3.5030259    3.5291565    3.5291565    3.5552795    3.5552795

           3.5882521    3.5882521    3.6274597    3.6274597    3.6404418
           3.6404418    3.7019534    3.7019534    3.7337239    3.7337239
           3.7622600    3.7622600    3.8493836    3.8493836    3.8499376
           3.8499376    3.8848768    3.8848768    3.8985147    3.8985147
           3.9311239    3.9311239    3.9587351    3.9587351    3.9976191
           3.9976191    4.0070261    4.0070261    4.0174477    4.0174477
           4.0687397    4.0687397    4.1022174    4.1022174    4.1095284
           4.1095284    4.1209518    4.1209518    4.2020026    4.2020026

           4.2695784    4.2695784    4.3922266    4.3922266    4.4039269
           4.4039269    4.4635603    4.4635603    4.4992183    4.4992183

       ********************************************************
:GAP (global)   :    0.0    Ry =     0.0   eV (metal)
:GAP (this spin):    0.0    Ry =     0.0   eV (metal)
         Bandranges (emin - emax) and occupancy:
:BAN00018:  18    0.351143    0.562482  1.00000000
:BAN00019:  19    0.458801    0.572195  1.00000000
:BAN00020:  20    0.458801    0.572195  1.00000000
:BAN00021:  21    0.532456    0.585913  1.00000000
:BAN00022:  22    0.532456    0.585913  1.00000000
:BAN00023:  23    0.570506    0.589806  1.00000000
:BAN00024:  24    0.570506    0.589806  1.00000000
:BAN00025:  25    0.580069    0.596869  0.80560439
:BAN00026:  26    0.580069    0.596869  0.80560426
:BAN00027:  27    0.588209    0.597531  0.19439579
:BAN00028:  28    0.588209    0.597531  0.19439555
:BAN00029:  29    0.592263    0.600014  0.00000000
:BAN00030:  30    0.592263    0.600014  0.00000000
:BAN00031:  31    0.595333    0.604381  0.00000000
:BAN00032:  32    0.595333    0.604381  0.00000000
:BAN00033:  33    0.599093    0.612430  0.00000000
        Energy to separate low and high energystates:    0.30114


:NOE  : NUMBER OF ELECTRONS          =   26.000

:FER  : F E R M I - ENERGY(TETRAH.M.)=   0.5914042415
:GMA  : POTENTIAL AND CHARGE CUT-OFF  12.00 Ry**.5

:POS001: ATOM   -1 X,Y,Z = 0.00000 0.89750 0.25000  MULT= 2  ZZ= 59.000  Pr1       

       LMMAX 16
       LM=   0 0  1 0  2 0  2 2  3 0  3 2  4 0  4 2  4 4  5 0  5 2  5 4  6 0  6 2  6 4  6 6

:CHA001: TOTAL VALENCE CHARGE INSIDE SPHERE   1 =   9.5072    (RMT=  2.3000 )
:PCS001: PARTIAL CHARGES SPHERE =  1 S,P,D,F,PX,PY,PZ,D-Z2,D-X2Y2,D-XY,D-XZ,D-YZ 
:QTL001: 1.9399 5.0145 0.4890 2.0636 1.6686 1.6687 1.6772 0.0901 0.0890 0.1086 0.0938 0.1076
        Q-s-low E-s-low   Q-p-low E-p-low   Q-d-low E-d-low   Q-f-low E-f-low
:EPL001:  1.8691 -2.0356    4.9501 -0.7195    0.0013 -0.7110    0.0004 -0.7205
        Q-s-hi  E-s-hi    Q-p-hi  E-p-hi    Q-d-hi  E-d-hi    Q-f-hi  E-f-hi 
:EPH001:  0.0707  0.4906    0.0644  0.5295    0.4877  0.5443    2.0633  0.5800

                      VXX         VYY         VZZ       UP TO R
:VZZ001:             4.40520     3.06387    -7.46906       2.300

:CHA  : TOTAL VALENCE CHARGE INSIDE UNIT CELL =      26.000000

:SUM  : SUM OF EIGENVALUES =         -11.241788988


        1.ATOM      Pr1                  14 CORE STATES
       CORE-FORCE in mRy/a.u. = |F|      Fx             Fy             Fz
:FCO001:   1.ATOM   1254.800994899680      0.000000000000      0.000000000000   1254.800994899680

:1S 001: 1S               -3067.000399479 Ry
:2S 001: 2S                -492.751986319 Ry
:2PP001: 2P*               -465.851448808 Ry
:2P 001: 2P                -430.453838007 Ry
:3S 001: 3S                -105.839273485 Ry
:3PP001: 3P*                -94.377248800 Ry
:3P 001: 3P                 -87.369315812 Ry
:3DD001: 3D*                -67.296689429 Ry
:3D 001: 3D                 -65.785082836 Ry
:4S 001: 4S                 -20.518529944 Ry
:4PP001: 4P*                -16.225614696 Ry
:4P 001: 4P                 -14.698613166 Ry
:4DD001: 4D*                 -7.632371879 Ry
:4D 001: 4D                  -7.363110952 Ry
:CINT001 Core Integral Atom   1   45.998480

       DENSITY AT NUCLEUS
        JATOM        VALENCE       SEMI-CORE          CORE           TOTAL
:RTO001:   1      646.975596        0.000000   656824.396596   657471.372192
     
       CHARGES OF NEW CHARGE DENSITY
:NTO   : INTERSTITIAL CHARGE =     6.985580
:NPC   : PW Pseudocharge     =    16.874012
:NTO001: CHARGE SPHERE  1    =    55.505690

:NEC01: NUCLEAR AND ELECTRONIC CHARGE    118.00000   117.99696
     
       CHARGES OF OLD CHARGE DENSITY
:OTO   : INTERSTITIAL CHARGE =     6.974422
:OPC   : PW Pseudocharge     =    16.856109
:OTO001: CHARGE SPHERE  1    =    55.512789

:NEC02: NUCLEAR AND ELECTRONIC CHARGE    118.00000   118.00000
     
       CONVERGENCE TEST
:DTO001: DIFFERENCE IN SPHERE  1 =  0.0122525

:DIS  :  CHARGE DISTANCE       ( 0.0122525 for atom    1 spin 1)      0.0122525
 PW Mixed is          517
 
******************************************************
* MULTISECANT MIXING VER9 RELEASE 10.4.0              *
* Slow Mode, cautious                                *
* Fixed density scale                                *
* Regularization       1.000E-04                     *
* Step Trust Radius    0.75000                       *
* Trust Upper Limit    2.000E+00                     *
* Max Number of Memory Steps   12                    *
******************************************************
 
:PWTMP   4.0015E+02  1.9467E+02  5.0208E+02
:PLANE:  PW TOTAL      4.5247 DISTAN   9.67E-03  2.14E-01 %
:CHARG:  CLM/ATOM   1381.9459 DISTAN   1.30E-01  9.40E-03 %
 
Step History
        DMIX         DMIXT        Red     Pred      Trust     Lambda    MagRel    MagAbs     Beta
  1   3.5000E-02   3.5000E-02 -1.00E+00  1.00E+00 -1.00E+01  1.00E+00  3.50E-02  3.50E-02  1.00E+00
  2   2.5000E-02   2.5000E-02  6.38E-01  1.00E+00 -1.00E+01  1.00E+00  2.50E-02  8.68E-03  1.00E+00
  3   2.9518E-02   2.9518E-02 -1.00E+00  1.00E+00 -1.00E+01  1.00E+00  2.95E-02  6.54E-03  1.00E+00
:JACOBIANS    2.068E-03   4.217E-02
  
:NORMS:  1/Froebius, Min, Max, Used   0.7006E-01  0.2558E-01  0.7006E-01  0.7006E-01
:INFO :  Number of Memory Steps    2 Skipping    0
:INFO :  SLambda=    0.7728233552  Max    0.7728233552
:PREDicted Charge, CTotal, PW Trust    4.234E-03   8.468E-03   1.113E-02
:PREDicted DMix, Beta, BLim   3.2027E-02  6.8811E-01  2.5190E-01

Eigenvalues, unscaled except for SY+YY
   #     SY Real        SY Imag          SS             YY         SY+YY Real      SY+YY Imag
   1   7.355228E-16   0.000000E+00   9.817730E-03   1.999949E+00   5.071751E-05   0.000000E+00
   2   1.188665E-01   0.000000E+00   0.000000E+00   5.102919E-05   2.091812E+00   0.000000E+00
 
:INFO :  Singular value  2.092E+00 Weight  1.000E+00 Projection -3.064E-03
:INFO :  Singular value  5.072E-05 Weight  6.042E-02 Projection  5.178E-01
:RANK :  ACTIVE   1.06/2  =  53.02 % ; YY RANK   1.06/2  =  53.06 %
 
:DLIM :  Beta Active  8.000E-01
:BLIM :  VZERO Control Off
:TRUST:  Step 3.33E-01  Charge 7.50E-02 (e) CTO  2.50E-01 (e) PW  3.50E-01 (e)
:DIRM :  MEMORY  2/12 SCALE   1.000 RED  0.59 PRED  1.00 NEXT  0.99 BETA  0.80
:TRAVE:  Charge 2.50E-04 (e) CTO  5.01E-04 (e) PW  4.62E-04 (e)
:DIRP :  |MSR1|= 2.747E-04 |PRATT|= 9.670E-03 ANGLE=   4.3 DEGREES
:DIRQ :  |MSR1|= 3.982E-03 |PRATT|= 1.299E-01 ANGLE=   1.8 DEGREES
:DIRT :  |MSR1|= 3.992E-03 |PRATT|= 1.302E-01 ANGLE=   1.8 DEGREES
:MIX  :   MSD1   REGULARIZATION:  2.00E-04 GREED: 0.03089  Newton 1.00  0.0307                
     
       CHARGES OF MIXED CHARGE DENSITY
:CTO   : INTERSTITIAL CHARGE =     6.974923
:CPC   : PW Pseudocharge     =    16.856800
:CTO001: CHARGE SPHERE  1    =    55.512539

:NEC03: NUCLEAR AND ELECTRONIC CHARGE    118.00000   118.00000

PW CHANGE     H    K    L      Current       Change    Residue
:PTO001:      0    0    0  4.74663670E-02  2.374E-06  7.856E-05
:PTO003:      0    2    0  1.34640859E-02  5.918E-07  2.426E-05
:PTO004:     -1    1    0  6.65359770E-02  4.797E-07  2.615E-05
:PTO005:      0    2   -1 -7.75511070E-02 -4.318E-06 -1.543E-04
:PTO006:      0    0   -2 -4.01264344E-02 -1.390E-06 -5.012E-05
:PTO007:     -1    1   -1 -8.45410438E-02 -1.996E-06 -8.319E-05
:PTO008:      0    2   -2 -1.40251454E-02  1.687E-07  5.454E-06
:PTO009:     -1    1   -2 -7.28781778E-02 -1.103E-06 -4.075E-05
:PTO011:     -1    3    0 -1.21079097E-02  1.109E-06  3.673E-05
:PTO012:     -1    3   -1 -5.47837429E-02 -1.872E-07 -7.016E-06
:PTO013:      0    4    0 -1.01641757E-02  1.541E-07  4.066E-06
:PTO014:      0    2   -3  2.32698921E-02 -3.272E-07 -1.219E-05

:ENE  : ********** TOTAL ENERGY IN Ry =       -36944.20668653

       TOTAL FORCE IN mRy/a.u. = |F|     Fx             Fy             Fz     with/without FOR in case.in2
:FOR001:   1.ATOM         28.708          0.000          0.000        -28.708 partial forces
       TOTAL FORCE WITH RESPECT TO GLOBAL CARTESIAN COORDINATES:
:FCA001:   1.ATOM                         0.000        -28.708          0.000 partial forces
       TOTAL FORCE WITH RESPECT TO THE GLOBAL COORDINATE SYSTEM:
:FGL001:   1.ATOM                 0.000000000   -28.708318523     0.000000000 partial forces
 Flat Integration
 New Mode for Coulomb Integral
 Consistent 3/8+Simpson combinations
 Extension of core to zero
 LDM version in phi
 Fifth-order quadrature in outwin


            ---------
:ITE018: 18. ITERATION
            ---------

:NATO :    1 INDEPENDENT AND    2 TOTAL ATOMS IN UNITCELL
       SUBSTANCE: aU                                                          

       LATTICE                      = CXY 
:POT  : POTENTIAL OPTION EX_LDA EC_LDA VX_LDA VC_LDA
:LAT  : LATTICE CONSTANTS=  6.56123 13.31438 11.49459    1.571    1.571    1.571
:VOL  : UNIT CELL VOLUME =     502.07598
       MODE OF CALCULATION IS       = RELA
       NON-SPINPOLARIZED CALCULATION
:IFFT  : FFT-parameters:   54  108   90 Factor: 2.00


   CONVERGENCE PARAMETER FOR PSEUDOCHARGE: NCON=  9
   MAXIMAL VALUE OF RMT(JATOM)*ABSK(NKK) : RK  =27.59428


:VKCOUL :  VK-COUL convergence: 0.156E-06
       ATOMNUMBER=  1 Pr1        VCOUL-ZERO =  0.23444E-01
:EFG001:                        EFG         =    -7.32404   *10**21  V / m**2
                               V20  TOT/SRF=    -6.34280    -0.02252
                               V22  TOT/SRF=     0.10848     0.00121
                               V22M TOT/SRF=     0.00000     0.00000
                               V21  TOT/SRF=     0.00000     0.00000
                               V21M TOT/SRF=     0.00000     0.00000

              3.77050    0.00000    0.00000        3.77050    0.00000    0.00000
              0.00000    3.55354    0.00000        0.00000    3.55354    0.00000
              0.00000    0.00000   -7.32404        0.00000    0.00000   -7.32404

         MAIN DIRECTIONS OF THE EFG   1.0000  0.0000  0.0000
                                      0.0000  1.0000  0.0000
                                      0.0000  0.0000  1.0000
:ANG001:  ANGLE WITH OLD X-AXIS =         0.0

:ETA001:                         ASYMM. ETA =     0.02962


     HELLMANN-FEYNMAN-FORCE IN mRy/a.u. = |F|  Fx       Fy             Fz
:FHF001:   1.ATOM   1283.101474656023      0.000000000000      0.000000000000  -1283.101474656023

:FIT001: LUSE= 13 SIGMA OF V-XC FIT FOR ATOM  1  0.5617313E-04
:FIT001: LUSE= 13 SIGMA OF V-XC FIT FOR ATOM  1  0.5617313E-04
:DEN  : DENSITY INTEGRAL  =        -14145.28669858   (Ry)
       ELS_POTENTIAL_AT Z=0 and Z=0.5:   0.69379   0.69379
       ELS_POTENTIAL_AT Y=0 and Y=0.5:   0.07678   0.07678
:VZERO:v0,v0c,v0x   0.13109   0.69379  -0.56270 v5,v5c,v5x   0.13109   0.69379  -0.56270
:VZERY:v0,v0c,v0x  -0.67746   0.07678  -0.75424 v5,v5c,v5x  -0.67746   0.07678  -0.75424
:VZERX:v0,v0c,v0x  -1.09644  -0.37183  -0.72462 v5,v5c,v5x  -1.09644  -0.37183  -0.72462
:LMAX-WF:   10   Non-Spherical LMAX:   4

          ATOMIC SPHERE DEPENDENT PARAMETERS FOR ATOM  Pr1       
:e__0001: OVERALL ENERGY PARAMETER IS    0.3898
          OVERALL BASIS SET ON ATOM IS LAPW
:E0_0001: E( 0)=    0.3898
             APW+lo
:E0_0001: E( 0)=   -2.0783   E(BOTTOM)=   -2.715   E(TOP)=   -1.442  4  5   174
             LOCAL ORBITAL
:E1_0001: E( 1)=    0.7898
             APW+lo
:E1_0001: E( 1)=   -0.6092   E(BOTTOM)=   -1.568   E(TOP)=    0.350  3  4   196
             LOCAL ORBITAL
:E3_0001: E( 3)=    0.5812   E(BOTTOM)=    0.372   E(TOP)=    0.791  0  1   117
             APW+lo
:E2_0001: E( 2)=    0.3898   E(BOTTOM)=    0.172   E(TOP)= -200.000  2 -1    93
             APW+lo

       K=   0.06250   0.00000   0.06250            1
:RKM  : MATRIX SIZE   463LOs:  40  RKM= 8.50  WEIGHT= 4.00  PGR:    
       EIGENVALUES ARE:
:EIG00001:      -2.0473660   -2.0355187   -0.7687671   -0.7025052   -0.6873496
:EIG00006:      -0.6810529   -0.6750035   -0.6748512    0.3558990    0.4963152
:EIG00011:       0.5923799    0.5935449    0.5936941    0.5957243    0.5991086
:EIG00016:       0.6094847    0.6127570    0.6134345    0.6158886    0.6178251
:EIG00021:       0.6218382    0.6251757    0.6257501    0.6305330    0.6594012
:EIG00026:       0.6721203    0.7435985    0.7606747    0.7792674    0.8154588
:EIG00031:       0.8318325    0.9109440    0.9555705    0.9968092    1.2740065
:EIG00036:       1.2946236    1.3831663    1.3834591    1.5379732    1.5908719
:EIG00041:       1.6454530    1.7476331    1.8177291    1.8358587    1.9262354
:EIG00046:       1.9862919    1.9971106    2.0516282    2.1102269    2.1984803
 
:EIG00051:       2.2470290    2.3018561    2.3170184    2.3842275    2.4103471
:EIG00056:       2.4890077    2.5294368    2.5453447    2.6388711    2.6884866
:EIG00061:       2.7580850    2.7671369    2.9023613    2.9831331    2.9894041
:EIG00066:       3.0867410    3.1457700    3.1568585    3.1680317    3.2452605
:EIG00071:       3.2485693    3.2984613    3.3249116    3.3748466    3.3912374
:EIG00076:       3.4308821    3.4653932    3.5029126    3.5290722    3.5548814
:EIG00081:       3.5880726    3.6274413    3.6402303    3.7017924    3.7336599
:EIG00086:       3.7621507    3.8495255    3.8496958    3.8848766    3.8984102
:EIG00091:       3.9311007    3.9586599    3.9976604    4.0071494    4.0174107
:EIG00096:       4.0687105    4.1027880    4.1088240    4.1208325    4.2019445
 
:EIG00101:       4.2696896    4.3937976    4.4030716    4.4627222    4.4992996
:EIG00106:       4.5050260    4.5513340    4.5588284    4.6032558    4.6345699
:EIG00111:       4.7166405    4.7322915    4.7555834    4.7825561    4.8396792
:EIG00116:       4.8798285    4.9560884    4.9635041    4.9965080    5.0260968
:EIG00121:       5.0397358    5.1274990    5.1611055    5.1857713    5.2316648
:EIG00126:       5.3176675    5.3336074    5.3680983    5.4112255    5.4456488
:EIG00131:       5.4478482    5.5163606    5.5467972    5.5472167    5.5721232
:EIG00136:       5.6411709    5.6794007    5.7289610    5.7420127    5.7719257
:EIG00141:       5.7873321    5.7994247    5.8458841    5.8848488    5.9364646
:EIG00146:       5.9413867    5.9464710    5.9520467    5.9742558    6.0622247
 
:EIG00151:       6.1035565    6.1046792    6.1933876    6.2024863    6.2599419
:EIG00156:       6.3537775    6.4413068    6.4673170    6.5010841    6.5193410
:EIG00161:       6.5849373    6.6159430    6.6648281    6.6883937    6.6903967
:EIG00166:       6.7575068    6.7731741    6.7827711    6.8202746    6.8661082
:EIG00171:       6.8826012    6.9458049    6.9794915    6.9824461    7.0442493
:EIG00176:       7.0637743    7.0729248    7.1220498    7.1349267    7.1729925
:EIG00181:       7.2306331    7.2429645    7.2579305    7.2728028    7.3236657
:EIG00186:       7.3342678    7.3572481    7.4482773    7.4657615    7.4692617
:EIG00191:       7.5038562    7.5251633    7.5830983    7.5848702    7.6123993
:EIG00196:       7.6217103    7.6379969    7.6752590    7.6795827    7.7269213
 
:EIG00201:       7.7283989    7.7839573    7.7977824    7.8216228    7.8855676
:EIG00206:       7.8914674    7.9028496    7.9528268    7.9907205    8.0028259
:EIG00211:       8.0192589    8.0689882    8.0818085
       ********************************************************

:KPT   :      NUMBER OF K-POINTS:   288
   0.0   0.0 angle (M,z), angle (M,x) deg
 
        SPIN-ORBIT EIGENVALUES:
     K=   0.06250   0.00000   0.06250            1
      MATRIX SIZE=  426   WEIGHT= 4.00
     EIGENVALUES ARE:
          -2.0473661   -2.0473661   -2.0355187   -2.0355187   -0.8624081
          -0.8624081   -0.8283428   -0.8283428   -0.6756531   -0.6756531
          -0.6188968   -0.6188968   -0.6162533   -0.6162533   -0.6085562
          -0.6085562    0.3559318    0.3559318    0.4961952    0.4961952
           0.5857666    0.5857666    0.5878023    0.5878023    0.5884290
           0.5884290    0.5899595    0.5899595    0.5930085    0.5930085
           0.5968286    0.5968286    0.6119792    0.6119792    0.6190209
           0.6190209    0.6226079    0.6226079    0.6233825    0.6233825

           0.6273529    0.6273530    0.6306210    0.6306210    0.6315435
           0.6315435    0.6359610    0.6359610    0.6604330    0.6604330
           0.6721933    0.6721933    0.7429981    0.7429982    0.7603327
           0.7603327    0.7800032    0.7800032    0.8159658    0.8159658
           0.8318574    0.8318574    0.9107703    0.9107703    0.9558592
           0.9558592    0.9969339    0.9969339    1.2739010    1.2739010
           1.2949392    1.2949392    1.3827862    1.3827862    1.3838545
           1.3838545    1.5375469    1.5375469    1.5902888    1.5902888

           1.6453931    1.6453931    1.7458707    1.7458707    1.8163988
           1.8163988    1.8369560    1.8369560    1.9267275    1.9267275
           1.9858435    1.9858435    1.9951552    1.9951552    2.0525291
           2.0525291    2.1108738    2.1108738    2.1980417    2.1980417
           2.2466358    2.2466358    2.2990019    2.2990019    2.3190612
           2.3190612    2.3848698    2.3848698    2.4116642    2.4116642
           2.4890110    2.4890110    2.5286581    2.5286581    2.5464981
           2.5464981    2.6389971    2.6389971    2.6882345    2.6882345

           2.7608123    2.7608123    2.7681702    2.7681702    2.9022644
           2.9022644    2.9830912    2.9830912    2.9896691    2.9896691
           3.0866359    3.0866359    3.1455488    3.1455488    3.1572946
           3.1572946    3.1678483    3.1678483    3.2452559    3.2452559
           3.2488603    3.2488603    3.2984802    3.2984802    3.3249691
           3.3249691    3.3741678    3.3741678    3.3921213    3.3921213
           3.4310758    3.4310758    3.4668137    3.4668137    3.5029907
           3.5029907    3.5291604    3.5291604    3.5552618    3.5552618

           3.5882472    3.5882472    3.6274598    3.6274598    3.6404438
           3.6404438    3.7019337    3.7019337    3.7337184    3.7337184
           3.7622592    3.7622592    3.8493921    3.8493921    3.8499416
           3.8499416    3.8848798    3.8848798    3.8984698    3.8984698
           3.9311222    3.9311222    3.9587110    3.9587110    3.9976214
           3.9976214    4.0069755    4.0069755    4.0174030    4.0174030
           4.0687378    4.0687378    4.1022114    4.1022114    4.1095023
           4.1095023    4.1209431    4.1209431    4.2019990    4.2019990

           4.2695367    4.2695367    4.3921919    4.3921919    4.4038841
           4.4038841    4.4635319    4.4635319    4.4992030    4.4992030

       ********************************************************
:GAP (global)   :    0.0    Ry =     0.0   eV (metal)
:GAP (this spin):    0.0    Ry =     0.0   eV (metal)
         Bandranges (emin - emax) and occupancy:
:BAN00018:  18    0.351157    0.562431  1.00000000
:BAN00019:  19    0.458807    0.572092  1.00000000
:BAN00020:  20    0.458807    0.572092  1.00000000
:BAN00021:  21    0.532445    0.585767  1.00000000
:BAN00022:  22    0.532445    0.585767  1.00000000
:BAN00023:  23    0.570425    0.589660  1.00000000
:BAN00024:  24    0.570425    0.589660  1.00000000
:BAN00025:  25    0.579968    0.596678  0.80525512
:BAN00026:  26    0.579968    0.596678  0.80525498
:BAN00027:  27    0.588045    0.597356  0.19474508
:BAN00028:  28    0.588045    0.597356  0.19474481
:BAN00029:  29    0.592083    0.599877  0.00000000
:BAN00030:  30    0.592083    0.599877  0.00000000
:BAN00031:  31    0.595157    0.604231  0.00000000
:BAN00032:  32    0.595157    0.604231  0.00000000
:BAN00033:  33    0.598929    0.612265  0.00000000
        Energy to separate low and high energystates:    0.30116


:NOE  : NUMBER OF ELECTRONS          =   26.000

:FER  : F E R M I - ENERGY(TETRAH.M.)=   0.5912337156
:GMA  : POTENTIAL AND CHARGE CUT-OFF  12.00 Ry**.5

:POS001: ATOM   -1 X,Y,Z = 0.00000 0.89750 0.25000  MULT= 2  ZZ= 59.000  Pr1       

       LMMAX 16
       LM=   0 0  1 0  2 0  2 2  3 0  3 2  4 0  4 2  4 4  5 0  5 2  5 4  6 0  6 2  6 4  6 6

:CHA001: TOTAL VALENCE CHARGE INSIDE SPHERE   1 =   9.5098    (RMT=  2.3000 )
:PCS001: PARTIAL CHARGES SPHERE =  1 S,P,D,F,PX,PY,PZ,D-Z2,D-X2Y2,D-XY,D-XZ,D-YZ 
:QTL001: 1.9399 5.0144 0.4883 2.0671 1.6686 1.6687 1.6772 0.0899 0.0889 0.1085 0.0936 0.1074
        Q-s-low E-s-low   Q-p-low E-p-low   Q-d-low E-d-low   Q-f-low E-f-low
:EPL001:  1.8692 -2.0357    4.9501 -0.7196    0.0013 -0.7111    0.0004 -0.7206
        Q-s-hi  E-s-hi    Q-p-hi  E-p-hi    Q-d-hi  E-d-hi    Q-f-hi  E-f-hi 
:EPH001:  0.0707  0.4905    0.0643  0.5294    0.4870  0.5442    2.0667  0.5798

                      VXX         VYY         VZZ       UP TO R
:VZZ001:             4.19130     3.20602    -7.39732       2.300

:CHA  : TOTAL VALENCE CHARGE INSIDE UNIT CELL =      26.000000

:SUM  : SUM OF EIGENVALUES =         -11.243862583


        1.ATOM      Pr1                  14 CORE STATES
       CORE-FORCE in mRy/a.u. = |F|      Fx             Fy             Fz
:FCO001:   1.ATOM   1254.245424375988      0.000000000000      0.000000000000   1254.245424375988

:1S 001: 1S               -3067.000928270 Ry
:2S 001: 2S                -492.752470441 Ry
:2PP001: 2P*               -465.851942836 Ry
:2P 001: 2P                -430.454328318 Ry
:3S 001: 3S                -105.839665147 Ry
:3PP001: 3P*                -94.377645718 Ry
:3P 001: 3P                 -87.369707031 Ry
:3DD001: 3D*                -67.297095013 Ry
:3D 001: 3D                 -65.785486507 Ry
:4S 001: 4S                 -20.518793223 Ry
:4PP001: 4P*                -16.225873684 Ry
:4P 001: 4P                 -14.698864170 Ry
:4DD001: 4D*                 -7.632611183 Ry
:4D 001: 4D                  -7.363347688 Ry
:CINT001 Core Integral Atom   1   45.998481

       DENSITY AT NUCLEUS
        JATOM        VALENCE       SEMI-CORE          CORE           TOTAL
:RTO001:   1      646.977239        0.000000   656824.430395   657471.407634
     
       CHARGES OF NEW CHARGE DENSITY
:NTO   : INTERSTITIAL CHARGE =     6.980386
:NPC   : PW Pseudocharge     =    16.872807
:NTO001: CHARGE SPHERE  1    =    55.508287

:NEC01: NUCLEAR AND ELECTRONIC CHARGE    118.00000   117.99696
     
       CHARGES OF OLD CHARGE DENSITY
:OTO   : INTERSTITIAL CHARGE =     6.974923
:OPC   : PW Pseudocharge     =    16.856800
:OTO001: CHARGE SPHERE  1    =    55.512539

:NEC02: NUCLEAR AND ELECTRONIC CHARGE    118.00000   118.00000
     
       CONVERGENCE TEST
:DTO001: DIFFERENCE IN SPHERE  1 =  0.0107704

:DIS  :  CHARGE DISTANCE       ( 0.0107704 for atom    1 spin 1)      0.0107704
 PW Mixed is          517
 
******************************************************
* MULTISECANT MIXING VER9 RELEASE 10.4.0              *
* Slow Mode, cautious                                *
* Fixed density scale                                *
* Regularization       1.000E-04                     *
* Step Trust Radius    0.75000                       *
* Trust Upper Limit    2.000E+00                     *
* Max Number of Memory Steps   12                    *
******************************************************
 
:PWTMP   4.0015E+02  1.9467E+02  5.0208E+02
:PLANE:  PW TOTAL      4.5248 DISTAN   9.17E-03  2.03E-01 %
:CHARG:  CLM/ATOM   1381.9456 DISTAN   1.24E-01  9.00E-03 %
 
Step History
        DMIX         DMIXT        Red     Pred      Trust     Lambda    MagRel    MagAbs     Beta
  1   3.5000E-02   3.5000E-02 -1.00E+00  1.00E+00 -1.00E+01  1.00E+00  3.50E-02  3.50E-02  1.00E+00
  2   2.5000E-02   2.5000E-02  6.38E-01  1.00E+00 -1.00E+01  1.00E+00  2.50E-02  8.68E-03  1.00E+00
  3   2.9518E-02   2.9518E-02  5.88E-01  1.00E+00 -1.00E+01  7.73E-01  2.95E-02  6.54E-03  1.00E+00
  4   3.0893E-02   3.0893E-02 -1.00E+00  9.89E-01  3.33E-01  1.00E+00  3.07E-02  3.99E-03  8.00E-01
:JACOBIANS    2.683E-03   1.815E-01
  
:NORMS:  1/Froebius, Min, Max, Used   0.2171E+00  0.9873E-01  0.2386E+00  0.2386E+00
:INFO :  Number of Memory Steps    3 Skipping    0
:INFO :  SLambda=    1.3070485325  Max    1.3070485325
:PREDicted Charge, CTotal, PW Trust    1.433E-03   2.865E-03   1.397E-03
:PREDicted DMix, Beta, BLim   2.5892E-01  6.2412E+00  3.1235E-01

Eigenvalues, unscaled except for SY+YY
   #     SY Real        SY Imag          SS             YY         SY+YY Real      SY+YY Imag
   1  -1.665335E-16   0.000000E+00   1.323385E-01   2.324360E+00   2.503520E+00   0.000000E+00
   2   1.262451E-01   0.000000E+00   9.051019E-03   6.755875E-01   5.108427E-05   0.000000E+00
   3   1.902075E-01   0.000000E+00   4.724034E-18   5.252158E-05   9.100478E-01   0.000000E+00
 
:INFO :  Singular value  2.504E+00 Weight  1.000E+00 Projection  1.212E-02
:INFO :  Singular value  9.100E-01 Weight  1.000E+00 Projection -1.255E-01
:INFO :  Singular value  5.108E-05 Weight  4.608E-02 Projection -3.041E-01
:RANK :  ACTIVE   2.05/3  =  68.20 % ; YY RANK   2.05/3  =  68.29 %
 
:BLIM :  VZERO Control Off
:TRUST:  Step 3.03E-01  Charge 7.50E-02 (e) CTO  2.50E-01 (e) PW  3.50E-01 (e)
:DTRUS:  Lambda    1.235E-01 Increment    7.276E-12 Iterations   102 DMIX    5.892E-02
:INFOA:  Angle SubSpace to MSR1      0.03
:DIRM :  MEMORY  3/12 SCALE   1.000 RED  0.96 PRED  0.99 NEXT  0.82 
:INFO :  Limited by Atoms F by Step T

:TRAVE:  Charge 6.47E-04 (e) CTO  1.29E-03 (e) PW  9.09E-04 (e)
:DIRP :  |MSR1|= 1.800E-03 |PRATT|= 9.173E-03 ANGLE=  38.5 DEGREES
:DIRQ :  |MSR1|= 3.771E-02 |PRATT|= 1.244E-01 ANGLE=   4.4 DEGREES
:DIRT :  |MSR1|= 3.775E-02 |PRATT|= 1.247E-01 ANGLE=   5.2 DEGREES
:MIX  :   MSE1   REGULARIZATION:  2.32E-04 GREED: 0.07723  LMStep 0.76  0.3026 Step           
     
       CHARGES OF MIXED CHARGE DENSITY
:CTO   : INTERSTITIAL CHARGE =     6.977010
:CPC   : PW Pseudocharge     =    16.858211
:CTO001: CHARGE SPHERE  1    =    55.511495

:NEC03: NUCLEAR AND ELECTRONIC CHARGE    118.00000   118.00000

PW CHANGE     H    K    L      Current       Change    Residue
:PTO001:      0    0    0  4.74733339E-02  6.967E-06  6.345E-05
:PTO003:      0    2    0  1.34683570E-02  4.271E-06  2.626E-05
:PTO004:     -1    1    0  6.65280951E-02 -7.882E-06  3.004E-05
:PTO005:      0    2   -1 -7.75742076E-02 -2.310E-05 -1.498E-04
:PTO006:      0    0   -2 -4.01278742E-02 -1.440E-06 -4.514E-05
:PTO007:     -1    1   -1 -8.45431562E-02 -2.112E-06 -8.468E-05
:PTO008:      0    2   -2 -1.40204291E-02  4.716E-06  5.748E-06
:PTO009:     -1    1   -2 -7.28760851E-02  2.093E-06 -3.912E-05
:PTO011:     -1    3    0 -1.20949233E-02  1.299E-05  3.737E-05
:PTO012:     -1    3   -1 -5.47856699E-02 -1.927E-06 -1.104E-05
:PTO013:      0    4    0 -1.01632115E-02  9.642E-07  3.316E-06
:PTO014:      0    2   -3  2.32653162E-02 -4.576E-06 -1.459E-05

:ENE  : ********** TOTAL ENERGY IN Ry =       -36944.20669450

       TOTAL FORCE IN mRy/a.u. = |F|     Fx             Fy             Fz     with/without FOR in case.in2
:FOR001:   1.ATOM         28.856          0.000          0.000        -28.856 partial forces
       TOTAL FORCE WITH RESPECT TO GLOBAL CARTESIAN COORDINATES:
:FCA001:   1.ATOM                         0.000        -28.856          0.000 partial forces
       TOTAL FORCE WITH RESPECT TO THE GLOBAL COORDINATE SYSTEM:
:FGL001:   1.ATOM                 0.000000000   -28.856050280     0.000000000 partial forces
 Flat Integration
 New Mode for Coulomb Integral
 Consistent 3/8+Simpson combinations
 Extension of core to zero
 LDM version in phi
 Fifth-order quadrature in outwin


            ---------
:ITE019: 19. ITERATION
            ---------

:NATO :    1 INDEPENDENT AND    2 TOTAL ATOMS IN UNITCELL
       SUBSTANCE: aU                                                          

       LATTICE                      = CXY 
:POT  : POTENTIAL OPTION EX_LDA EC_LDA VX_LDA VC_LDA
:LAT  : LATTICE CONSTANTS=  6.56123 13.31438 11.49459    1.571    1.571    1.571
:VOL  : UNIT CELL VOLUME =     502.07598
       MODE OF CALCULATION IS       = RELA
       NON-SPINPOLARIZED CALCULATION
:IFFT  : FFT-parameters:   54  108   90 Factor: 2.00


   CONVERGENCE PARAMETER FOR PSEUDOCHARGE: NCON=  9
   MAXIMAL VALUE OF RMT(JATOM)*ABSK(NKK) : RK  =27.59428


:VKCOUL :  VK-COUL convergence: 0.149E-06
       ATOMNUMBER=  1 Pr1        VCOUL-ZERO =  0.23412E-01
:EFG001:                        EFG         =    -7.34034   *10**21  V / m**2
                               V20  TOT/SRF=    -6.35692    -0.02209
                               V22  TOT/SRF=     0.16025     0.00168
                               V22M TOT/SRF=     0.00000     0.00000
                               V21  TOT/SRF=     0.00000     0.00000
                               V21M TOT/SRF=     0.00000     0.00000

              3.83042    0.00000    0.00000        3.83042    0.00000    0.00000
              0.00000    3.50992    0.00000        0.00000    3.50992    0.00000
              0.00000    0.00000   -7.34034        0.00000    0.00000   -7.34034

         MAIN DIRECTIONS OF THE EFG   1.0000  0.0000  0.0000
                                      0.0000  1.0000  0.0000
                                      0.0000  0.0000  1.0000
:ANG001:  ANGLE WITH OLD X-AXIS =         0.0

:ETA001:                         ASYMM. ETA =     0.04366


     HELLMANN-FEYNMAN-FORCE IN mRy/a.u. = |F|  Fx       Fy             Fz
:FHF001:   1.ATOM   1278.381062987173      0.000000000000      0.000000000000  -1278.381062987173

:FIT001: LUSE= 13 SIGMA OF V-XC FIT FOR ATOM  1  0.5221628E-04
:FIT001: LUSE= 13 SIGMA OF V-XC FIT FOR ATOM  1  0.5221628E-04
:DEN  : DENSITY INTEGRAL  =        -14145.21846842   (Ry)
       ELS_POTENTIAL_AT Z=0 and Z=0.5:   0.69398   0.69398
       ELS_POTENTIAL_AT Y=0 and Y=0.5:   0.07687   0.07687
:VZERO:v0,v0c,v0x   0.13117   0.69398  -0.56280 v5,v5c,v5x   0.13117   0.69398  -0.56280
:VZERY:v0,v0c,v0x  -0.67750   0.07687  -0.75437 v5,v5c,v5x  -0.67750   0.07687  -0.75437
:VZERX:v0,v0c,v0x  -1.09658  -0.37187  -0.72471 v5,v5c,v5x  -1.09658  -0.37187  -0.72471
:LMAX-WF:   10   Non-Spherical LMAX:   4

          ATOMIC SPHERE DEPENDENT PARAMETERS FOR ATOM  Pr1       
:e__0001: OVERALL ENERGY PARAMETER IS    0.3907
          OVERALL BASIS SET ON ATOM IS LAPW
:E0_0001: E( 0)=    0.3907
             APW+lo
:E0_0001: E( 0)=   -2.0784   E(BOTTOM)=   -2.715   E(TOP)=   -1.442  4  5   174
             LOCAL ORBITAL
:E1_0001: E( 1)=    0.7907
             APW+lo
:E1_0001: E( 1)=   -0.6093   E(BOTTOM)=   -1.568   E(TOP)=    0.350  3  4   195
             LOCAL ORBITAL
:E3_0001: E( 3)=    0.5811   E(BOTTOM)=    0.372   E(TOP)=    0.791  0  1   127
             APW+lo
:E2_0001: E( 2)=    0.3907   E(BOTTOM)=    0.172   E(TOP)= -200.000  2 -1    95
             APW+lo

       K=   0.06250   0.00000   0.06250            1
:RKM  : MATRIX SIZE   463LOs:  40  RKM= 8.50  WEIGHT= 4.00  PGR:    
       EIGENVALUES ARE:
:EIG00001:      -2.0474815   -2.0356338   -0.7689593   -0.7025778   -0.6874213
:EIG00006:      -0.6810792   -0.6752111   -0.6748764    0.3559604    0.4963031
:EIG00011:       0.5923752    0.5934770    0.5934938    0.5957276    0.5989989
:EIG00016:       0.6094062    0.6126163    0.6133042    0.6157488    0.6177021
:EIG00021:       0.6217802    0.6252568    0.6257562    0.6303321    0.6593940
:EIG00026:       0.6722026    0.7435680    0.7606457    0.7792029    0.8154494
:EIG00031:       0.8318211    0.9109407    0.9555342    0.9967073    1.2739752
:EIG00036:       1.2947234    1.3832459    1.3834818    1.5380803    1.5909685
:EIG00041:       1.6454512    1.7476741    1.8177793    1.8358945    1.9262303
:EIG00046:       1.9863233    1.9971933    2.0516700    2.1103035    2.1984772
 
:EIG00051:       2.2470196    2.3018404    2.3170194    2.3842270    2.4103603
:EIG00056:       2.4890231    2.5294318    2.5453250    2.6388997    2.6884780
:EIG00061:       2.7580598    2.7671316    2.9023961    2.9831459    2.9894168
:EIG00066:       3.0867476    3.1457684    3.1569002    3.1680844    3.2452898
:EIG00071:       3.2486091    3.2984992    3.3249583    3.3748734    3.3913142
:EIG00076:       3.4309170    3.4654933    3.5029347    3.5291349    3.5549222
:EIG00081:       3.5881224    3.6275004    3.6402901    3.7018333    3.7337032
:EIG00086:       3.7622014    3.8496048    3.8497638    3.8849320    3.8984310
:EIG00091:       3.9311436    3.9586683    3.9977054    4.0071717    4.0174657
:EIG00096:       4.0687713    4.1028021    4.1088368    4.1208677    4.2019801
 
:EIG00101:       4.2696731    4.3938397    4.4030585    4.4627571    4.4993576
:EIG00106:       4.5050718    4.5513807    4.5588633    4.6032873    4.6346017
:EIG00111:       4.7166918    4.7322997    4.7556543    4.7825840    4.8397281
:EIG00116:       4.8798279    4.9560862    4.9635326    4.9964965    5.0260847
:EIG00121:       5.0397455    5.1275401    5.1611201    5.1857996    5.2316891
:EIG00126:       5.3176867    5.3336358    5.3680775    5.4112180    5.4456692
:EIG00131:       5.4478885    5.5164074    5.5468339    5.5472328    5.5721368
:EIG00136:       5.6412006    5.6794574    5.7289943    5.7420239    5.7719421
:EIG00141:       5.7873340    5.7994001    5.8459038    5.8848959    5.9364410
:EIG00146:       5.9414016    5.9465165    5.9520729    5.9742667    6.0622572
 
:EIG00151:       6.1035428    6.1047235    6.1934350    6.2025338    6.2599482
:EIG00156:       6.3538057    6.4413420    6.4673374    6.5010765    6.5193505
:EIG00161:       6.5849355    6.6159562    6.6648635    6.6884054    6.6904107
:EIG00166:       6.7575084    6.7731940    6.7827798    6.8202947    6.8661181
:EIG00171:       6.8826107    6.9458117    6.9794433    6.9824313    7.0442060
:EIG00176:       7.0637607    7.0729050    7.1220426    7.1348954    7.1729929
:EIG00181:       7.2306279    7.2429935    7.2579482    7.2728135    7.3236950
:EIG00186:       7.3342882    7.3572115    7.4482889    7.4657527    7.4692606
:EIG00191:       7.5038821    7.5251887    7.5831275    7.5848957    7.6124373
:EIG00196:       7.6217280    7.6380037    7.6752589    7.6795991    7.7269477
 
:EIG00201:       7.7284072    7.7839931    7.7978341    7.8216274    7.8855900
:EIG00206:       7.8914489    7.9028625    7.9528603    7.9907244    8.0028315
:EIG00211:       8.0192879    8.0689440    8.0818342
       ********************************************************

:KPT   :      NUMBER OF K-POINTS:   288
   0.0   0.0 angle (M,z), angle (M,x) deg
 
        SPIN-ORBIT EIGENVALUES:
     K=   0.06250   0.00000   0.06250            1
      MATRIX SIZE=  426   WEIGHT= 4.00
     EIGENVALUES ARE:
          -2.0474815   -2.0474815   -2.0356339   -2.0356339   -0.8625378
          -0.8625378   -0.8284472   -0.8284472   -0.6757704   -0.6757704
          -0.6189452   -0.6189452   -0.6163109   -0.6163109   -0.6086946
          -0.6086946    0.3559931    0.3559931    0.4961830    0.4961830
           0.5856861    0.5856861    0.5876948    0.5876948    0.5884163
           0.5884163    0.5898835    0.5898835    0.5928956    0.5928956
           0.5967129    0.5967129    0.6118416    0.6118417    0.6189559
           0.6189559    0.6225431    0.6225431    0.6232632    0.6232632

           0.6272717    0.6272718    0.6306402    0.6306402    0.6315119
           0.6315119    0.6357897    0.6357897    0.6604225    0.6604225
           0.6722740    0.6722740    0.7429617    0.7429618    0.7603077
           0.7603077    0.7799386    0.7799386    0.8159565    0.8159565
           0.8318460    0.8318460    0.9107665    0.9107665    0.9558233
           0.9558233    0.9968324    0.9968324    1.2738705    1.2738705
[...]
 New Mode for Coulomb Integral
 Consistent 3/8+Simpson combinations
 Extension of core to zero
 LDM version in phi
 Fifth-order quadrature in outwin


            ---------
:ITE025: 25. ITERATION
            ---------

:NATO :    1 INDEPENDENT AND    2 TOTAL ATOMS IN UNITCELL
       SUBSTANCE: aU                                                          

       LATTICE                      = CXY 
:POT  : POTENTIAL OPTION EX_LDA EC_LDA VX_LDA VC_LDA
:LAT  : LATTICE CONSTANTS=  6.56123 13.31438 11.49459    1.571    1.571    1.571
:VOL  : UNIT CELL VOLUME =     502.07598
       MODE OF CALCULATION IS       = RELA
       NON-SPINPOLARIZED CALCULATION
:IFFT  : FFT-parameters:   54  108   90 Factor: 2.00


   CONVERGENCE PARAMETER FOR PSEUDOCHARGE: NCON=  9
   MAXIMAL VALUE OF RMT(JATOM)*ABSK(NKK) : RK  =27.59428


:VKCOUL :  VK-COUL convergence: 0.134E-06
       ATOMNUMBER=  1 Pr1        VCOUL-ZERO =  0.23787E-01
:EFG001:                        EFG         =    -7.21332   *10**21  V / m**2
                               V20  TOT/SRF=    -6.24692    -0.02121
                               V22  TOT/SRF=     0.16407     0.00170
                               V22M TOT/SRF=     0.00000     0.00000
                               V21  TOT/SRF=     0.00000     0.00000
                               V21M TOT/SRF=     0.00000     0.00000

              3.77073    0.00000    0.00000        3.77073    0.00000    0.00000
              0.00000    3.44259    0.00000        0.00000    3.44259    0.00000
              0.00000    0.00000   -7.21332        0.00000    0.00000   -7.21332

         MAIN DIRECTIONS OF THE EFG   1.0000  0.0000  0.0000
                                      0.0000  1.0000  0.0000
                                      0.0000  0.0000  1.0000
:ANG001:  ANGLE WITH OLD X-AXIS =         0.0

:ETA001:                         ASYMM. ETA =     0.04549


     HELLMANN-FEYNMAN-FORCE IN mRy/a.u. = |F|  Fx       Fy             Fz
:FHF001:   1.ATOM   1262.043161781973      0.000000000000      0.000000000000  -1262.043161781973

:FIT001: LUSE= 13 SIGMA OF V-XC FIT FOR ATOM  1  0.4403065E-04
:FIT001: LUSE= 13 SIGMA OF V-XC FIT FOR ATOM  1  0.4403065E-04
:DEN  : DENSITY INTEGRAL  =        -14145.20471030   (Ry)
       ELS_POTENTIAL_AT Z=0 and Z=0.5:   0.69474   0.69474
       ELS_POTENTIAL_AT Y=0 and Y=0.5:   0.07734   0.07734
:VZERO:v0,v0c,v0x   0.13175   0.69474  -0.56299 v5,v5c,v5x   0.13175   0.69474  -0.56299
:VZERY:v0,v0c,v0x  -0.67742   0.07734  -0.75476 v5,v5c,v5x  -0.67742   0.07734  -0.75476
:VZERX:v0,v0c,v0x  -1.09727  -0.37231  -0.72496 v5,v5c,v5x  -1.09727  -0.37231  -0.72496
:LMAX-WF:   10   Non-Spherical LMAX:   4

          ATOMIC SPHERE DEPENDENT PARAMETERS FOR ATOM  Pr1       
:e__0001: OVERALL ENERGY PARAMETER IS    0.3915
          OVERALL BASIS SET ON ATOM IS LAPW
:E0_0001: E( 0)=    0.3915
             APW+lo
:E0_0001: E( 0)=   -2.0781   E(BOTTOM)=   -2.715   E(TOP)=   -1.441  4  5   175
             LOCAL ORBITAL
:E1_0001: E( 1)=    0.7915
             APW+lo
:E1_0001: E( 1)=   -0.6090   E(BOTTOM)=   -1.568   E(TOP)=    0.350  3  4   187
             LOCAL ORBITAL
:E3_0001: E( 3)=    0.5816   E(BOTTOM)=    0.372   E(TOP)=    0.791  0  1   121
             APW+lo
:E2_0001: E( 2)=    0.3915   E(BOTTOM)=    0.172   E(TOP)= -200.000  2 -1    92
             APW+lo

       K=   0.06250   0.00000   0.06250            1
:RKM  : MATRIX SIZE   463LOs:  40  RKM= 8.50  WEIGHT= 4.00  PGR:    
       EIGENVALUES ARE:
:EIG00001:      -2.0471591   -2.0353133   -0.7685532   -0.7023049   -0.6871511
:EIG00006:      -0.6807931   -0.6748145   -0.6745941    0.3564495    0.4967037
:EIG00011:       0.5927740    0.5939537    0.5939648    0.5961737    0.5995249
:EIG00016:       0.6099209    0.6130838    0.6138074    0.6162640    0.6181512
:EIG00021:       0.6222928    0.6256915    0.6262233    0.6308702    0.6598120
:EIG00026:       0.6726234    0.7440300    0.7610061    0.7796181    0.8157945
:EIG00031:       0.8321555    0.9114211    0.9559664    0.9970778    1.2744111
:EIG00036:       1.2952283    1.3837233    1.3839454    1.5386448    1.5915720
:EIG00041:       1.6458832    1.7481815    1.8182544    1.8363973    1.9266716
:EIG00046:       1.9867914    1.9977453    2.0521171    2.1108380    2.1989178
 
:EIG00051:       2.2473763    2.3022530    2.3174019    2.3846684    2.4107282
:EIG00056:       2.4894087    2.5298140    2.5457043    2.6393161    2.6888884
:EIG00061:       2.7584772    2.7675488    2.9028377    2.9836287    2.9898698
:EIG00066:       3.0871984    3.1462208    3.1573476    3.1685441    3.2457715
:EIG00071:       3.2490425    3.2989315    3.3254211    3.3753295    3.3917951
:EIG00076:       3.4313785    3.4660466    3.5033958    3.5296093    3.5553563
:EIG00081:       3.5886105    3.6279410    3.6407690    3.7023067    3.7341758
:EIG00086:       3.7626675    3.8501355    3.8502335    3.8854338    3.8988641
:EIG00091:       3.9316204    3.9591140    3.9981635    4.0075909    4.0179723
:EIG00096:       4.0692946    4.1032395    4.1092674    4.1213279    4.2024086
 
:EIG00101:       4.2701121    4.3943115    4.4035063    4.4632057    4.4998374
:EIG00106:       4.5055617    4.5518410    4.5592945    4.6037476    4.6350347
:EIG00111:       4.7171822    4.7327593    4.7561546    4.7830260    4.8402150
:EIG00116:       4.8802626    4.9565372    4.9639758    4.9969220    5.0265191
:EIG00121:       5.0402104    5.1280328    5.1616034    5.1862698    5.2321455
:EIG00126:       5.3181401    5.3341177    5.3684985    5.4116472    5.4461369
:EIG00131:       5.4483594    5.5168998    5.5473093    5.5476936    5.5725649
:EIG00136:       5.6416599    5.6799524    5.7294336    5.7424594    5.7723852
:EIG00141:       5.7877604    5.7997849    5.8463436    5.8853336    5.9368360
:EIG00146:       5.9418428    5.9469859    5.9525230    5.9747424    6.0627120
 
:EIG00151:       6.1039702    6.1051751    6.1939203    6.2030060    6.2603821
:EIG00156:       6.3542428    6.4417862    6.4677992    6.5015212    6.5197741
:EIG00161:       6.5853143    6.6163910    6.6653399    6.6888026    6.6908745
:EIG00166:       6.7579124    6.7736716    6.7832263    6.8207543    6.8665469
:EIG00171:       6.8830828    6.9462163    6.9798491    6.9828038    7.0446131
:EIG00176:       7.0641737    7.0733102    7.1224674    7.1353272    7.1734440
:EIG00181:       7.2310653    7.2434673    7.2584286    7.2732600    7.3241716
:EIG00186:       7.3347407    7.3576328    7.4487399    7.4661868    7.4696987
:EIG00191:       7.5043353    7.5256643    7.5835677    7.5853602    7.6129181
:EIG00196:       7.6221930    7.6384276    7.6757063    7.6800611    7.7274236
 
:EIG00201:       7.7288527    7.7844799    7.7983165    7.8220646    7.8860292
:EIG00206:       7.8918533    7.9033388    7.9533353    7.9911678    8.0032530
:EIG00211:       8.0197548    8.0693386    8.0823002    8.0913304
       ********************************************************

:KPT   :      NUMBER OF K-POINTS:   288
   0.0   0.0 angle (M,z), angle (M,x) deg
 
        SPIN-ORBIT EIGENVALUES:
     K=   0.06250   0.00000   0.06250            1
      MATRIX SIZE=  428   WEIGHT= 4.00
     EIGENVALUES ARE:
          -2.0471591   -2.0471591   -2.0353134   -2.0353134   -0.8622054
          -0.8622054   -0.8281397   -0.8281397   -0.6754334   -0.6754334
          -0.6186652   -0.6186652   -0.6160303   -0.6160303   -0.6083405
          -0.6083405    0.3564822    0.3564822    0.4965836    0.4965836
           0.5861390    0.5861390    0.5881564    0.5881564    0.5888463
           0.5888463    0.5903674    0.5903674    0.5933963    0.5933963
           0.5972278    0.5972278    0.6123138    0.6123138    0.6194211
           0.6194211    0.6230303    0.6230303    0.6237709    0.6237709

           0.6277695    0.6277695    0.6310865    0.6310865    0.6319815
           0.6319815    0.6363173    0.6363173    0.6608419    0.6608419
           0.6726949    0.6726949    0.7434121    0.7434121    0.7606829
           0.7606829    0.7803485    0.7803485    0.8163013    0.8163013
           0.8321810    0.8321810    0.9112456    0.9112457    0.9562557
           0.9562557    0.9972033    0.9972033    1.2743066    1.2743066
           1.2955429    1.2955430    1.3833200    1.3833200    1.3843640
           1.3843640    1.5382184    1.5382184    1.5909870    1.5909870

           1.6458252    1.6458252    1.7464177    1.7464177    1.8169221
           1.8169221    1.8374930    1.8374930    1.9271649    1.9271649
           1.9863473    1.9863473    1.9957753    1.9957753    2.0530286
           2.0530286    2.1114799    2.1114799    2.1984748    2.1984748
           2.2469877    2.2469877    2.2993998    2.2993998    2.3194434
           2.3194434    2.3853138    2.3853138    2.4120411    2.4120411
           2.4894078    2.4894078    2.5290383    2.5290383    2.5468553
           2.5468553    2.6394433    2.6394433    2.6886347    2.6886347

           2.7612072    2.7612072    2.7685774    2.7685774    2.9027408
           2.9027408    2.9835863    2.9835863    2.9901349    2.9901349
           3.0870930    3.0870930    3.1460005    3.1460005    3.1577826
           3.1577826    3.1683578    3.1683578    3.2457656    3.2457656
           3.2493345    3.2493345    3.2989505    3.2989505    3.3254785
           3.3254785    3.3746524    3.3746524    3.3926747    3.3926747
           3.4315722    3.4315722    3.4674658    3.4674658    3.5034739
           3.5034739    3.5296968    3.5296968    3.5557374    3.5557374

           3.5887855    3.5887855    3.6279596    3.6279596    3.6409819
           3.6409819    3.7024477    3.7024477    3.7342346    3.7342346
           3.7627762    3.7627762    3.8499844    3.8499844    3.8504966
           3.8504966    3.8854365    3.8854365    3.8989238    3.8989238
           3.9316419    3.9316419    3.9591647    3.9591647    3.9981245
           3.9981245    4.0074194    4.0074194    4.0179614    4.0179614
           4.0693215    4.0693215    4.1026625    4.1026625    4.1099452
           4.1099452    4.1214379    4.1214379    4.2024627    4.2024627

           4.2699589    4.2699589    4.3926942    4.3926942    4.4043314
           4.4043314    4.4640144    4.4640144    4.4997391    4.4997391

       ********************************************************
:GAP (global)   :    0.0    Ry =     0.0   eV (metal)
:GAP (this spin):    0.0    Ry =     0.0   eV (metal)
         Bandranges (emin - emax) and occupancy:
:BAN00018:  18    0.351712    0.562910  1.00000000
:BAN00019:  19    0.459302    0.572452  1.00000000
:BAN00020:  20    0.459302    0.572452  1.00000000
:BAN00021:  21    0.532867    0.586139  1.00000000
:BAN00022:  22    0.532867    0.586139  1.00000000
:BAN00023:  23    0.570804    0.590084  1.00000000
:BAN00024:  24    0.570804    0.590084  1.00000000
:BAN00025:  25    0.580411    0.596955  0.80608766
:BAN00026:  26    0.580411    0.596955  0.80608747
:BAN00027:  27    0.588391    0.597671  0.19391258
:BAN00028:  28    0.588391    0.597671  0.19391229
:BAN00029:  29    0.592427    0.600296  0.00000000
:BAN00030:  30    0.592427    0.600296  0.00000000
:BAN00031:  31    0.595541    0.604617  0.00000000
:BAN00032:  32    0.595541    0.604617  0.00000000
:BAN00033:  33    0.599340    0.612596  0.00000000
        Energy to separate low and high energystates:    0.30171


:NOE  : NUMBER OF ELECTRONS          =   26.000

:FER  : F E R M I - ENERGY(TETRAH.M.)=   0.5916066566
:GMA  : POTENTIAL AND CHARGE CUT-OFF  12.00 Ry**.5

:POS001: ATOM   -1 X,Y,Z = 0.00000 0.89750 0.25000  MULT= 2  ZZ= 59.000  Pr1       

       LMMAX 16
       LM=   0 0  1 0  2 0  2 2  3 0  3 2  4 0  4 2  4 4  5 0  5 2  5 4  6 0  6 2  6 4  6 6

:CHA001: TOTAL VALENCE CHARGE INSIDE SPHERE   1 =   9.5111    (RMT=  2.3000 )
:PCS001: PARTIAL CHARGES SPHERE =  1 S,P,D,F,PX,PY,PZ,D-Z2,D-X2Y2,D-XY,D-XZ,D-YZ 
:QTL001: 1.9398 5.0145 0.4883 2.0683 1.6686 1.6688 1.6772 0.0900 0.0889 0.1083 0.0938 0.1074
        Q-s-low E-s-low   Q-p-low E-p-low   Q-d-low E-d-low   Q-f-low E-f-low
:EPL001:  1.8692 -2.0355    4.9504 -0.7194    0.0013 -0.7109    0.0004 -0.7205
        Q-s-hi  E-s-hi    Q-p-hi  E-p-hi    Q-d-hi  E-d-hi    Q-f-hi  E-f-hi 
:EPH001:  0.0707  0.4910    0.0642  0.5299    0.4870  0.5447    2.0679  0.5802

                      VXX         VYY         VZZ       UP TO R
:VZZ001:             3.75788     3.43266    -7.19054       2.300

:CHA  : TOTAL VALENCE CHARGE INSIDE UNIT CELL =      26.000000

:SUM  : SUM OF EIGENVALUES =         -11.235916708


        1.ATOM      Pr1                  14 CORE STATES
       CORE-FORCE in mRy/a.u. = |F|      Fx             Fy             Fz
:FCO001:   1.ATOM   1231.979415626932      0.000000000000      0.000000000000   1231.979415626932

:1S 001: 1S               -3067.004656448 Ry
:2S 001: 2S                -492.755278010 Ry
:2PP001: 2P*               -465.854956070 Ry
:2P 001: 2P                -430.457264520 Ry
:3S 001: 3S                -105.840671819 Ry
:3PP001: 3P*                -94.378749878 Ry
:3P 001: 3P                 -87.370715798 Ry
:3DD001: 3D*                -67.298364110 Ry
:3D 001: 3D                 -65.786721415 Ry
:4S 001: 4S                 -20.518445245 Ry
:4PP001: 4P*                -16.225526367 Ry
:4P 001: 4P                 -14.698487085 Ry
:4DD001: 4D*                 -7.632242350 Ry
:4D 001: 4D                  -7.362972836 Ry
:CINT001 Core Integral Atom   1   45.998480

       DENSITY AT NUCLEUS
        JATOM        VALENCE       SEMI-CORE          CORE           TOTAL
:RTO001:   1      646.960494        0.000000   656824.850051   657471.810545
     
       CHARGES OF NEW CHARGE DENSITY
:NTO   : INTERSTITIAL CHARGE =     6.977701
:NPC   : PW Pseudocharge     =    16.873709
:NTO001: CHARGE SPHERE  1    =    55.509629

:NEC01: NUCLEAR AND ELECTRONIC CHARGE    118.00000   117.99696
     
       CHARGES OF OLD CHARGE DENSITY
:OTO   : INTERSTITIAL CHARGE =     6.980701
:OPC   : PW Pseudocharge     =    16.880905
:OTO001: CHARGE SPHERE  1    =    55.509649

:NEC02: NUCLEAR AND ELECTRONIC CHARGE    118.00000   118.00000
     
       CONVERGENCE TEST
:DTO001: DIFFERENCE IN SPHERE  1 =  0.0000599

:DIS  :  CHARGE DISTANCE       ( 0.0000599 for atom    1 spin 1)      0.0000599
 PW Mixed is          517
 
******************************************************
* MULTISECANT MIXING VER9 RELEASE 10.4.0              *
* Standard Mode with controls                        *
* Fixed density scale                                *
* Regularization       1.000E-04                     *
* Trust Upper Limit    5.000E+00                     *
* Max Number of Memory Steps    8                    *
******************************************************
 
:PWTMP   4.0015E+02  1.9467E+02  5.0208E+02
:PLANE:  PW TOTAL      4.5297 DISTAN   4.72E-05  1.04E-03 %
:CHARG:  CLM/ATOM   1381.9408 DISTAN   1.40E-04  1.01E-05 %
 
Step History
        DMIX         DMIXT        Red     Pred      Trust     Lambda    MagRel    MagAbs     Beta
  3   2.9518E-02   2.9518E-02  5.88E-01  1.00E+00 -1.00E+01  7.73E-01  2.95E-02  6.54E-03  1.00E+00
  4   3.0893E-02   3.0893E-02  9.58E-01  9.89E-01  3.33E-01  1.31E+00  3.07E-02  3.99E-03  8.00E-01
  5   7.7232E-02   5.8915E-02  6.74E-01  8.17E-01  3.03E-01  9.99E-01  3.03E-01  3.78E-02  1.00E+00
  6   1.9308E-01   1.7383E-01  4.14E-01  4.45E-01  6.02E-01  9.20E-01  6.02E-01  5.06E-02  1.00E+00
  7   1.2400E-01   1.2400E-01  3.48E-01  4.75E-01  8.02E-01  8.85E-01  7.31E-01  2.54E-02  1.00E+00
  8   8.5845E-02   8.5845E-02  7.80E-01  9.33E-01  1.07E+00  1.33E+00  1.50E-01  1.82E-03  1.00E+00
  9   2.1461E-01   2.1461E-01  2.06E-01  2.51E-01  1.37E+00  1.87E+00  5.74E-01  5.43E-03  1.00E+00
 10   1.3226E-01   1.3226E-01  6.90E-01  7.98E-01  2.30E+00  1.30E+00  2.63E-01  5.13E-04  1.00E+00
 11   3.3064E-01   3.3064E-01 -1.00E+00  1.85E-01  3.06E+00  1.00E+00  8.53E-01  1.15E-03  1.00E+00
:JACOBIANS    5.617E-01   1.888E+00
  
:NORMS:  1/Froebius, Min, Max, Used   0.8432E+00  0.3993E+00  0.9665E+00  0.9637E+00
:INFO :  Number of Memory Steps    8 Skipping    2
:INFO :  SLambda=    1.2449567347  Max    1.2449567347
:PREDicted Charge, CTotal, PW Trust    2.373E-05   4.746E-05   1.294E-03
:PREDicted DMix, Beta, BLim   1.8795E-01  1.0229E+00  1.0156E+01

Eigenvalues, unscaled except for SY+YY
   #     SY Real        SY Imag          SS             YY         SY+YY Real      SY+YY Imag
   1   3.640603E+00   0.000000E+00   3.538144E+00   3.809764E+00   8.341623E+00   0.000000E+00
   2   1.941515E+00   0.000000E+00   1.790803E+00   2.306238E+00   4.704361E+00   0.000000E+00
   3   7.419515E-01   0.000000E+00   3.547756E-01   1.541305E+00   2.481381E+00   0.000000E+00
   4   2.685268E-02   0.000000E+00   2.744146E-03   2.662789E-01   3.017122E-01   0.000000E+00
   5   6.106247E-03   0.000000E+00   6.060971E-04   6.162445E-02   6.965183E-02   0.000000E+00
   6   1.080398E-03   0.000000E+00   1.619506E-04   1.449893E-02   1.653612E-02   0.000000E+00
   7   4.524146E-08   0.000000E+00   1.857235E-05   2.915107E-04   3.614800E-07   0.000000E+00
   8   9.892439E-05   0.000000E+00   9.814399E-09   3.040983E-07   4.288196E-04   0.000000E+00
 
:INFO :  Singular value  8.343E+00 Weight  1.000E+00 Projection -3.857E-07
:INFO :  Singular value  4.704E+00 Weight  1.000E+00 Projection -1.808E-05
:INFO :  Singular value  2.481E+00 Weight  1.000E+00 Projection -2.329E-05
:INFO :  Singular value  3.017E-01 Weight  1.000E+00 Projection  9.312E-05
:INFO :  Singular value  6.965E-02 Weight  1.000E+00 Projection  3.142E-04
:INFO :  Singular value  1.654E-02 Weight  9.995E-01 Projection -4.342E-05
:INFO :  Singular value  4.288E-04 Weight  5.589E-01 Projection -1.840E-03
:INFO :  Singular value  3.615E-07 Weight  9.003E-07 Projection  3.587E-08
:RANK :  ACTIVE   6.56/8  =  81.98 % ; YY RANK   6.37/8  =  79.61 %
 
:BLIM :  VZERO Control Off
:TRUST:  Step 6.27E+00  Charge 2.46E-02 (e) CTO  8.19E-02 (e) PW  1.15E-01 (e)
:DIRM :  MEMORY  8/8  SCALE   1.000 RED  0.11 PRED  0.18 NEXT  0.69 
:TRAVE:  Charge 3.23E-05 (e) CTO  6.46E-05 (e) PW  6.80E-04 (e)
:DIRP :  |MSR1|= 2.991E-05 |PRATT|= 4.719E-05 ANGLE=  11.5 DEGREES
:DIRQ :  |MSR1|= 3.332E-05 |PRATT|= 1.399E-04 ANGLE=  30.1 DEGREES
:DIRT :  |MSR1|= 4.478E-05 |PRATT|= 1.476E-04 ANGLE=  35.0 DEGREES
:MIX  :   MSE1   REGULARIZATION:  3.81E-04 GREED: 0.21313  Newton 1.00  0.3033                
     
       CHARGES OF MIXED CHARGE DENSITY
:CTO   : INTERSTITIAL CHARGE =     6.980704
:CPC   : PW Pseudocharge     =    16.881004
:CTO001: CHARGE SPHERE  1    =    55.509648

:NEC03: NUCLEAR AND ELECTRONIC CHARGE    118.00000   118.00000

PW CHANGE     H    K    L      Current       Change    Residue
:PTO001:      0    0    0  4.75260907E-02  2.026E-07  3.885E-07
:PTO003:      0    2    0  1.34925771E-02  1.177E-07  1.934E-07
:PTO004:     -1    1    0  6.65971480E-02  2.824E-07  2.159E-07
:PTO005:      0    2   -1 -7.76931784E-02 -4.477E-07 -8.210E-07
:PTO006:      0    0   -2 -4.01719655E-02 -2.085E-07 -3.103E-07
:PTO007:     -1    1   -1 -8.46346212E-02 -4.627E-07 -7.976E-07
:PTO008:      0    2   -2 -1.40236855E-02 -7.270E-08 -1.006E-07
:PTO009:     -1    1   -2 -7.29162390E-02 -2.367E-07 -3.660E-07
:PTO011:     -1    3    0 -1.20675180E-02  1.728E-08  4.951E-08
:PTO012:     -1    3   -1 -5.48059897E-02 -6.249E-08 -7.006E-08
:PTO013:      0    4    0 -1.01590443E-02 -1.734E-08 -4.551E-08
:PTO014:      0    2   -3  2.32551142E-02  3.100E-08  1.075E-07

:ENE  : ********** TOTAL ENERGY IN Ry =       -36944.20668427

       TOTAL FORCE IN mRy/a.u. = |F|     Fx             Fy             Fz     with/without FOR in case.in2
:FOR001:   1.ATOM         30.064          0.000          0.000        -30.064 partial forces
       TOTAL FORCE WITH RESPECT TO GLOBAL CARTESIAN COORDINATES:
:FCA001:   1.ATOM                         0.000        -30.064          0.000 partial forces
       TOTAL FORCE WITH RESPECT TO THE GLOBAL COORDINATE SYSTEM:
:FGL001:   1.ATOM                 0.000000000   -30.063746155     0.000000000 partial forces
