
:LABEL1: Calculations in /home/ykent/GWIEN/example/Pr/aU/V3/case
:LABEL2: on didymium-2.cmpgroup.ameslab.gov at Fri Jul 10 14:12:04 CDT 2020
:LABEL3: using WIEN2k_19.1 (Release 25/6/2019) in /home/ykent/opt/src/WIEN2k_19.1
:LABEL4: using the command: run_lapw -so -i 70 -cc 0.0001

:LABEL1: Calculations in /home/ykent/GWIEN/example/Pr/aU/V3/case
:LABEL2: on didymium-2.cmpgroup.ameslab.gov at Fri Jul 10 14:12:28 CDT 2020
:LABEL3: using WIEN2k_19.1 (Release 25/6/2019) in /home/ykent/opt/src/WIEN2k_19.1
:LABEL4: using the command: run_lapw -so -i 70 -cc 0.0001
 Flat Integration
 New Mode for Coulomb Integral
 Consistent 3/8+Simpson combinations
 Extension of core to zero
 LDM version in phi
 Fifth-order quadrature in outwin


            ---------
:ITE014: 14. ITERATION
            ---------

:NATO :    1 INDEPENDENT AND    2 TOTAL ATOMS IN UNITCELL
       SUBSTANCE: aU                                                          

       LATTICE                      = CXY 
:POT  : POTENTIAL OPTION EX_LDA EC_LDA VX_LDA VC_LDA
:LAT  : LATTICE CONSTANTS=  5.15104 10.45276  9.02408    1.571    1.571    1.571
:VOL  : UNIT CELL VOLUME =     242.93998
       MODE OF CALCULATION IS       = RELA
       NON-SPINPOLARIZED CALCULATION
:IFFT  : FFT-parameters:   40   80   72 Factor: 2.00


   CONVERGENCE PARAMETER FOR PSEUDOCHARGE: NCON=  9
   MAXIMAL VALUE OF RMT(JATOM)*ABSK(NKK) : RK  =27.58363


:VKCOUL :  VK-COUL convergence: 0.242E-06
       ATOMNUMBER=  1 Pr1        VCOUL-ZERO =  0.80849E+00
:EFG001:                        EFG         =     9.80200   *10**21  V / m**2
                               V20  TOT/SRF=    -5.69375    -0.08447
                               V22  TOT/SRF=    -6.51471    -0.01387
                               V22M TOT/SRF=     0.00000     0.00000
                               V21  TOT/SRF=     0.00000     0.00000
                               V21M TOT/SRF=     0.00000     0.00000

             -3.22743    0.00000    0.00000       -3.22743    0.00000    0.00000
              0.00000    9.80200    0.00000        0.00000    9.80200    0.00000
              0.00000    0.00000   -6.57457        0.00000    0.00000   -6.57457

         MAIN DIRECTIONS OF THE EFG   1.0000  0.0000  0.0000
                                      0.0000  1.0000  0.0000
                                      0.0000  0.0000  1.0000
:ANG001:  ANGLE WITH OLD X-AXIS =         0.0

:ETA001:                         ASYMM. ETA =     0.34148


     HELLMANN-FEYNMAN-FORCE IN mRy/a.u. = |F|  Fx       Fy             Fz
:FHF001:   1.ATOM   1440.591051159022      0.000000000000      0.000000000000  -1440.591051159022

:FIT001: LUSE= 13 SIGMA OF V-XC FIT FOR ATOM  1  0.1777622E-03
:FIT001: LUSE= 13 SIGMA OF V-XC FIT FOR ATOM  1  0.1777622E-03
:DEN  : DENSITY INTEGRAL  =        -14237.25174970   (Ry)
       ELS_POTENTIAL_AT Z=0 and Z=0.5:   1.10489   1.10489
       ELS_POTENTIAL_AT Y=0 and Y=0.5:  -0.04138  -0.04138
:VZERO:v0,v0c,v0x   0.30670   1.10489  -0.79819 v5,v5c,v5x   0.30670   1.10489  -0.79819
:VZERY:v0,v0c,v0x  -1.06500  -0.04138  -1.02362 v5,v5c,v5x  -1.06500  -0.04138  -1.02362
:VZERX:v0,v0c,v0x  -1.34943  -0.39539  -0.95405 v5,v5c,v5x  -1.34943  -0.39539  -0.95405
:LMAX-WF:   10   Non-Spherical LMAX:   4

          ATOMIC SPHERE DEPENDENT PARAMETERS FOR ATOM  Pr1       
:e__0001: OVERALL ENERGY PARAMETER IS    1.1520
          OVERALL BASIS SET ON ATOM IS LAPW
:E0_0001: E( 0)=    1.1520
             APW+lo
:E0_0001: E( 0)=   -1.2662   E(BOTTOM)=   -1.911   E(TOP)=   -0.621  4  5   254
             LOCAL ORBITAL
:E1_0001: E( 1)=    1.5520
             APW+lo
:E1_0001: E( 1)=    0.1991   E(BOTTOM)=   -0.772   E(TOP)=    1.170  3  4   261
             LOCAL ORBITAL
:E3_0001: E( 3)=    1.3810   E(BOTTOM)=    1.171   E(TOP)=    1.592  0  1   120
             APW+lo
:E2_0001: E( 2)=    1.1520   E(BOTTOM)=    0.958   E(TOP)= -200.000  2 -1   119
             APW+lo

       K=   0.06250   0.00000   0.06250            1
:RKM  : MATRIX SIZE   251LOs:  40  RKM= 8.49  WEIGHT= 4.00  PGR:    
       EIGENVALUES ARE:
:EIG00001:      -1.3583954   -1.2338166   -0.2069589    0.1421158    0.2267332
:EIG00006:       0.2586740    0.2904183    0.2958025    1.1814725    1.2769953
:EIG00011:       1.3056292    1.3131783    1.3182444    1.3339267    1.3619552
:EIG00016:       1.3890819    1.4029147    1.4079551    1.4175833    1.4202821
:EIG00021:       1.4357993    1.4369222    1.4399240    1.4723094    1.4892814
:EIG00026:       1.5370824    1.6119212    1.6229306    1.7075126    1.7576637
:EIG00031:       1.8431415    2.0342273    2.1289960    2.1580693    2.4460904
:EIG00036:       2.4911892    2.5338662    2.8179237    2.8517048    3.0205132
:EIG00041:       3.2248507    3.2614837    3.4303369    3.5068413    3.6525912
:EIG00046:       3.6597512    3.6958969    3.8759746    3.8952942    4.0358364
 
:EIG00051:       4.1642766    4.3219003    4.4154785    4.5440917    4.5925399
:EIG00056:       4.6980614    4.7698352    4.9887541    5.0182408    5.0262572
:EIG00061:       5.0575399    5.1809675    5.2956932    5.4286111    5.4647071
:EIG00066:       5.4819889    5.5107025    5.5336408    5.6816913    5.7877243
:EIG00071:       5.8253489    5.9523664    5.9958724    6.0375902    6.0421219
:EIG00076:       6.0686876    6.1217711    6.1325714    6.1692067    6.2652605
:EIG00081:       6.2863518    6.3618741    6.3807906    6.4783928    6.5462079
:EIG00086:       6.5811977    6.6878230    6.7659740    6.8121901    6.8823421
:EIG00091:       6.9628376    7.0210663    7.0598869    7.0848028    7.0897924
:EIG00096:       7.2623991    7.2976193    7.4036808    7.4067288    7.4611317
 
:EIG00101:       7.5689194    7.5737156    7.6301832    7.6932263    7.7474809
:EIG00106:       7.7676973    7.9099419    8.0129959    8.0785944    8.2189362
:EIG00111:       8.3082447    8.3507635    8.3754282    8.4844989    8.5597211
:EIG00116:       8.6055074
       ********************************************************

:KPT   :      NUMBER OF K-POINTS:   288
   0.0   0.0 angle (M,z), angle (M,x) deg
 
        SPIN-ORBIT EIGENVALUES:
     K=   0.06250   0.00000   0.06250            1
      MATRIX SIZE=  232   WEIGHT= 4.00
     EIGENVALUES ARE:
          -1.3583997   -1.3583997   -1.2338214   -1.2338214   -0.2305060
          -0.2305060    0.0926210    0.0926210    0.1263688    0.1263688
           0.3157419    0.3157419    0.3266273    0.3266273    0.3556300
           0.3556300    1.1813996    1.1813996    1.2770704    1.2770704
           1.3046062    1.3046062    1.3118882    1.3118882    1.3169738
           1.3169738    1.3329489    1.3329489    1.3602406    1.3602406
           1.3849677    1.3849677    1.3975717    1.3975717    1.4074825
           1.4074825    1.4207951    1.4207951    1.4236143    1.4236143

           1.4357426    1.4357426    1.4381999    1.4381999    1.4433283
           1.4433283    1.4741052    1.4741052    1.4906138    1.4906138
           1.5372731    1.5372731    1.6091032    1.6091032    1.6259210
           1.6259210    1.7080656    1.7080656    1.7577239    1.7577239
           1.8434489    1.8434489    2.0344487    2.0344487    2.1288330
           2.1288330    2.1586268    2.1586268    2.4467062    2.4467062
           2.4913097    2.4913097    2.5338968    2.5338968    2.8176990
           2.8176990    2.8515016    2.8515016    3.0199081    3.0199081

           3.2252749    3.2252749    3.2612875    3.2612875    3.4305705
           3.4305705    3.5063976    3.5063976    3.6524398    3.6524398
           3.6594417    3.6594417    3.6962079    3.6962079    3.8741738
           3.8741738    3.8972938    3.8972938    4.0362464    4.0362464
           4.1640761    4.1640761    4.3209764    4.3209764    4.4150340
           4.4150340
       ********************************************************
:GAP (global)   :    0.0    Ry =     0.0   eV (metal)
:GAP (this spin):    0.0    Ry =     0.0   eV (metal)
         Bandranges (emin - emax) and occupancy:
:BAN00020:  20    1.116415    1.300159  1.00000000
:BAN00021:  21    1.182095    1.348682  1.00000000
:BAN00022:  22    1.182095    1.348682  1.00000000
:BAN00023:  23    1.244986    1.357312  0.97661692
:BAN00024:  24    1.244986    1.357312  0.97661692
:BAN00025:  25    1.300671    1.381552  0.61483419
:BAN00026:  26    1.300671    1.381552  0.61483417
:BAN00027:  27    1.320436    1.397812  0.37081987
:BAN00028:  28    1.320436    1.397812  0.37081983
:BAN00029:  29    1.335433    1.399300  0.03772906
:BAN00030:  30    1.335433    1.399300  0.03772904
:BAN00031:  31    1.353989    1.406231  0.00000000
:BAN00032:  32    1.353989    1.406231  0.00000000
:BAN00033:  33    1.386786    1.421455  0.00000000
:BAN00034:  34    1.386786    1.421455  0.00000000
:BAN00035:  35    1.395340    1.426938  0.00000000
        Energy to separate low and high energystates:    1.00301


:NOE  : NUMBER OF ELECTRONS          =   26.000

:FER  : F E R M I - ENERGY(TETRAH.M.)=   1.3503413524
:GMA  : POTENTIAL AND CHARGE CUT-OFF  12.00 Ry**.5

:POS001: ATOM   -1 X,Y,Z = 0.00000 0.89750 0.25000  MULT= 2  ZZ= 59.000  Pr1       

       LMMAX 16
       LM=   0 0  1 0  2 0  2 2  3 0  3 2  4 0  4 2  4 4  5 0  5 2  5 4  6 0  6 2  6 4  6 6

:CHA001: TOTAL VALENCE CHARGE INSIDE SPHERE   1 =  10.0236    (RMT=  2.3000 )
:PCS001: PARTIAL CHARGES SPHERE =  1 S,P,D,F,PX,PY,PZ,D-Z2,D-X2Y2,D-XY,D-XZ,D-YZ 
:QTL001: 1.9232 4.9511 1.0004 2.1426 1.6528 1.6452 1.6531 0.1971 0.1778 0.2054 0.2072 0.2129
        Q-s-low E-s-low   Q-p-low E-p-low   Q-d-low E-d-low   Q-f-low E-f-low
:EPL001:  1.8716 -1.2187    4.8516  0.0668    0.0460  0.0351    0.0156  0.0358
        Q-s-hi  E-s-hi    Q-p-hi  E-p-hi    Q-d-hi  E-d-hi    Q-f-hi  E-f-hi 
:EPH001:  0.0515  1.2507    0.0994  1.2598    0.9544  1.2315    2.1270  1.3030

                      VXX         VYY         VZZ       UP TO R
:VZZ001:            -3.34191     9.63362    -6.29171       2.300

:CHA  : TOTAL VALENCE CHARGE INSIDE UNIT CELL =      26.000000

:SUM  : SUM OF EIGENVALUES =           8.437363192


        1.ATOM      Pr1                  14 CORE STATES
       CORE-FORCE in mRy/a.u. = |F|      Fx             Fy             Fz
:FCO001:   1.ATOM   1451.111057835681      0.000000000000      0.000000000000   1451.111057835681

:1S 001: 1S               -3066.215189448 Ry
:2S 001: 2S                -491.966243897 Ry
:2PP001: 2P*               -465.064905567 Ry
:2P 001: 2P                -429.667545081 Ry
:3S 001: 3S                -105.065916572 Ry
:3PP001: 3P*                -93.603407204 Ry
:3P 001: 3P                 -86.595756063 Ry
:3DD001: 3D*                -66.521337538 Ry
:3D 001: 3D                 -65.009907012 Ry
:4S 001: 4S                 -19.732011956 Ry
:4PP001: 4P*                -15.437768594 Ry
:4P 001: 4P                 -13.908902940 Ry
:4DD001: 4D*                 -6.839145403 Ry
:4D 001: 4D                  -6.569267626 Ry
:CINT001 Core Integral Atom   1   45.998461

       DENSITY AT NUCLEUS
        JATOM        VALENCE       SEMI-CORE          CORE           TOTAL
:RTO001:   1      635.958706        0.000000   656826.714900   657462.673606
     
       CHARGES OF NEW CHARGE DENSITY
:NTO   : INTERSTITIAL CHARGE =     5.952701
:NPC   : PW Pseudocharge     =    17.916596
:NTO001: CHARGE SPHERE  1    =    56.022105

:NEC01: NUCLEAR AND ELECTRONIC CHARGE    118.00000   117.99691
     
       CHARGES OF OLD CHARGE DENSITY
:OTO   : INTERSTITIAL CHARGE =     5.969404
:OPC   : PW Pseudocharge     =    17.949855
:OTO001: CHARGE SPHERE  1    =    56.015298

:NEC02: NUCLEAR AND ELECTRONIC CHARGE    118.00000   118.00000
     
       CONVERGENCE TEST
:DTO001: DIFFERENCE IN SPHERE  1 =  0.0243159

:DIS  :  CHARGE DISTANCE       ( 0.0243159 for atom    1 spin 1)      0.0243159
 PW Mixed is          264
 
******************************************************
* MULTISECANT MIXING VER9 RELEASE 10.4.0              *
* Standard Mode with controls                        *
* Fixed density scale                                *
* Regularization       1.000E-04                     *
* Trust Upper Limit    5.000E+00                     *
* Max Number of Memory Steps    8                    *
******************************************************
 
:INFO : Forcing a restart
:PWTMP   1.4101E+02  1.9467E+02  2.4294E+02
:PLANE:  PW TOTAL      5.7550 DISTAN   7.60E-03  1.32E-01 %
:CHARG:  CLM/ATOM   1381.9361 DISTAN   3.50E-02  2.53E-03 %
 
Step History
        DMIX         DMIXT        Red     Pred      Trust     Lambda    MagRel    MagAbs     Beta
  1   3.5000E-02   3.5000E-02 -1.00E+00  1.00E+00 -1.00E+01  1.00E+00  3.50E-02  3.50E-02  1.00E+00
:INFO :  Note, Pratt in use
:TRUST:  Step 2.25E-01  Charge 7.50E-02 (e) CTO  2.50E-01 (e) PW  3.50E-01 (e)
:DIRM :  MEMORY  0/ 8 SCALE   1.000
Performing Pseudo Compensation
Final Pseudo Compensation Rescaling     1.00000E+00
:MIX  :   PRATT  REGULARIZATION:  1.00E-04 GREED: 0.15000                  
     
       CHARGES OF MIXED CHARGE DENSITY
:CTO   : INTERSTITIAL CHARGE =     5.967362
:CPC   : PW Pseudocharge     =    17.940790
:CTO001: CHARGE SPHERE  1    =    56.016319

:NEC03: NUCLEAR AND ELECTRONIC CHARGE    118.00000   118.00000

PW CHANGE     H    K    L      Current       Change    Residue
:PTO001:      0    0    0  9.84117645E-02 -4.572E-05 -1.547E-04
:PTO003:      0    2    0  2.08185925E-02 -6.420E-06 -3.889E-06
:PTO004:     -1    1    0  9.38769697E-02 -3.476E-05 -6.145E-05
:PTO005:      0    2   -1 -1.06127545E-01  3.653E-05  5.076E-05
:PTO006:      0    0   -2 -5.49037989E-02  1.912E-05  2.776E-05
:PTO007:     -1    1   -1 -1.06284174E-01  3.449E-05  5.611E-05
:PTO008:      0    2   -2 -1.30040229E-02  2.192E-06  5.641E-06
:PTO009:     -1    1   -2 -6.39740212E-02 -1.751E-06 -1.122E-05
:PTO011:     -1    3    0 -8.65845666E-03 -4.062E-06 -6.771E-06
:PTO012:     -1    3   -1 -3.30256967E-02 -3.369E-05 -7.895E-05
:PTO013:      0    4    0 -5.11110989E-03 -7.877E-06 -1.229E-05
:PTO014:      0    2   -3  1.20704185E-02  1.829E-05  2.978E-05

:ENE  : ********** TOTAL ENERGY IN Ry =       -36944.36775132

       TOTAL FORCE IN mRy/a.u. = |F|     Fx             Fy             Fz     with/without FOR in case.in2
:FOR001:   1.ATOM         10.520          0.000          0.000         10.520 partial forces
       TOTAL FORCE WITH RESPECT TO GLOBAL CARTESIAN COORDINATES:
:FCA001:   1.ATOM                         0.000         10.520          0.000 partial forces
       TOTAL FORCE WITH RESPECT TO THE GLOBAL COORDINATE SYSTEM:
:FGL001:   1.ATOM                 0.000000000    10.520006677     0.000000000 partial forces
 Flat Integration
 New Mode for Coulomb Integral
 Consistent 3/8+Simpson combinations
 Extension of core to zero
 LDM version in phi
 Fifth-order quadrature in outwin


            ---------
:ITE015: 15. ITERATION
            ---------

:NATO :    1 INDEPENDENT AND    2 TOTAL ATOMS IN UNITCELL
       SUBSTANCE: aU                                                          

       LATTICE                      = CXY 
:POT  : POTENTIAL OPTION EX_LDA EC_LDA VX_LDA VC_LDA
:LAT  : LATTICE CONSTANTS=  5.15104 10.45276  9.02408    1.571    1.571    1.571
:VOL  : UNIT CELL VOLUME =     242.93998
       MODE OF CALCULATION IS       = RELA
       NON-SPINPOLARIZED CALCULATION
:IFFT  : FFT-parameters:   40   80   72 Factor: 2.00


   CONVERGENCE PARAMETER FOR PSEUDOCHARGE: NCON=  9
   MAXIMAL VALUE OF RMT(JATOM)*ABSK(NKK) : RK  =27.58363


:VKCOUL :  VK-COUL convergence: 0.242E-06
       ATOMNUMBER=  1 Pr1        VCOUL-ZERO =  0.80805E+00
:EFG001:                        EFG         =     9.78516   *10**21  V / m**2
                               V20  TOT/SRF=    -5.67197    -0.08437
                               V22  TOT/SRF=    -6.51044    -0.01387
                               V22M TOT/SRF=     0.00000     0.00000
                               V21  TOT/SRF=     0.00000     0.00000
                               V21M TOT/SRF=     0.00000     0.00000

             -3.23573    0.00000    0.00000       -3.23573    0.00000    0.00000
              0.00000    9.78516    0.00000        0.00000    9.78516    0.00000
              0.00000    0.00000   -6.54942        0.00000    0.00000   -6.54942

         MAIN DIRECTIONS OF THE EFG   1.0000  0.0000  0.0000
                                      0.0000  1.0000  0.0000
                                      0.0000  0.0000  1.0000
:ANG001:  ANGLE WITH OLD X-AXIS =         0.0

:ETA001:                         ASYMM. ETA =     0.33864


     HELLMANN-FEYNMAN-FORCE IN mRy/a.u. = |F|  Fx       Fy             Fz
:FHF001:   1.ATOM   1438.335402854562      0.000000000000      0.000000000000  -1438.335402854562

:FIT001: LUSE= 13 SIGMA OF V-XC FIT FOR ATOM  1  0.1780909E-03
:FIT001: LUSE= 13 SIGMA OF V-XC FIT FOR ATOM  1  0.1780909E-03
:DEN  : DENSITY INTEGRAL  =        -14237.60041518   (Ry)
       ELS_POTENTIAL_AT Z=0 and Z=0.5:   1.10435   1.10435
       ELS_POTENTIAL_AT Y=0 and Y=0.5:  -0.04135  -0.04135
:VZERO:v0,v0c,v0x   0.30624   1.10435  -0.79811 v5,v5c,v5x   0.30624   1.10435  -0.79811
:VZERY:v0,v0c,v0x  -1.06481  -0.04135  -1.02346 v5,v5c,v5x  -1.06481  -0.04135  -1.02346
:VZERX:v0,v0c,v0x  -1.34906  -0.39513  -0.95393 v5,v5c,v5x  -1.34906  -0.39513  -0.95393
:LMAX-WF:   10   Non-Spherical LMAX:   4

          ATOMIC SPHERE DEPENDENT PARAMETERS FOR ATOM  Pr1       
:e__0001: OVERALL ENERGY PARAMETER IS    1.1509
          OVERALL BASIS SET ON ATOM IS LAPW
:E0_0001: E( 0)=    1.1509
             APW+lo
:E0_0001: E( 0)=   -1.2654   E(BOTTOM)=   -1.911   E(TOP)=   -0.620  4  5   253
             LOCAL ORBITAL
:E1_0001: E( 1)=    1.5509
             APW+lo
:E1_0001: E( 1)=    0.1997   E(BOTTOM)=   -0.771   E(TOP)=    1.171  3  4   263
             LOCAL ORBITAL
:E3_0001: E( 3)=    1.3830   E(BOTTOM)=    1.172   E(TOP)=    1.594  0  1   121
             APW+lo
:E2_0001: E( 2)=    1.1509   E(BOTTOM)=    0.958   E(TOP)= -200.000  2 -1   126
             APW+lo

       K=   0.06250   0.00000   0.06250            1
:RKM  : MATRIX SIZE   251LOs:  40  RKM= 8.49  WEIGHT= 4.00  PGR:    
       EIGENVALUES ARE:
:EIG00001:      -1.3577727   -1.2330894   -0.2066999    0.1425923    0.2272683
:EIG00006:       0.2592175    0.2910006    0.2963707    1.1814041    1.2770674
:EIG00011:       1.3066787    1.3145018    1.3197377    1.3353060    1.3632338
:EIG00016:       1.3908152    1.4047231    1.4098060    1.4193780    1.4220487
:EIG00021:       1.4372487    1.4385428    1.4418237    1.4743402    1.4907375
:EIG00026:       1.5379507    1.6120808    1.6234907    1.7077473    1.7578928
:EIG00031:       1.8434154    2.0345321    2.1291809    2.1584397    2.4462764
:EIG00036:       2.4913622    2.5339600    2.8178933    2.8517609    3.0206517
:EIG00041:       3.2249111    3.2615049    3.4302649    3.5068536    3.6525260
:EIG00046:       3.6596145    3.6958629    3.8758423    3.8952040    4.0356372
 
:EIG00051:       4.1642210    4.3218761    4.4154976    4.5440477    4.5927000
:EIG00056:       4.6980479    4.7698517    4.9886990    5.0181373    5.0260469
:EIG00061:       5.0577213    5.1808667    5.2957176    5.4284991    5.4644942
:EIG00066:       5.4821069    5.5105276    5.5337218    5.6816064    5.7875865
:EIG00071:       5.8251312    5.9522785    5.9956730    6.0373777    6.0419647
:EIG00076:       6.0684859    6.1216874    6.1323847    6.1690244    6.2650302
:EIG00081:       6.2861105    6.3616953    6.3805773    6.4781476    6.5458976
:EIG00086:       6.5809485    6.6875538    6.7656155    6.8120588    6.8821386
:EIG00091:       6.9626653    7.0207933    7.0597948    7.0848161    7.0896941
:EIG00096:       7.2620776    7.2975449    7.4034794    7.4065335    7.4610141
 
:EIG00101:       7.5686694    7.5734345    7.6298920    7.6931515    7.7473372
:EIG00106:       7.7673311    7.9097986    8.0129504    8.0785022    8.2186288
:EIG00111:       8.3079632    8.3504712    8.3752078    8.4844017    8.5595116
:EIG00116:       8.6053223
       ********************************************************

:KPT   :      NUMBER OF K-POINTS:   288
   0.0   0.0 angle (M,z), angle (M,x) deg
 
        SPIN-ORBIT EIGENVALUES:
     K=   0.06250   0.00000   0.06250            1
      MATRIX SIZE=  232   WEIGHT= 4.00
     EIGENVALUES ARE:
          -1.3577770   -1.3577770   -1.2330942   -1.2330942   -0.2302094
          -0.2302094    0.0932172    0.0932172    0.1268488    0.1268488
           0.3162575    0.3162575    0.3271610    0.3271610    0.3561756
           0.3561756    1.1813323    1.1813323    1.2771485    1.2771485
           1.3056730    1.3056730    1.3132233    1.3132233    1.3184736
           1.3184736    1.3343372    1.3343372    1.3615486    1.3615486
           1.3867235    1.3867235    1.3993481    1.3993481    1.4092786
           1.4092786    1.4225877    1.4225878    1.4253564    1.4253564

           1.4373172    1.4373172    1.4397173    1.4397174    1.4451876
           1.4451876    1.4761288    1.4761288    1.4920785    1.4920785
           1.5381548    1.5381548    1.6093640    1.6093640    1.6263932
           1.6263932    1.7082991    1.7082991    1.7579546    1.7579546
           1.8437229    1.8437229    2.0347532    2.0347532    2.1290222
           2.1290222    2.1589938    2.1589938    2.4468920    2.4468920
           2.4914829    2.4914829    2.5339908    2.5339908    2.8176692
           2.8176692    2.8515569    2.8515569    3.0200465    3.0200465

           3.2253349    3.2253349    3.2613089    3.2613089    3.4304992
           3.4304992    3.5064099    3.5064099    3.6523713    3.6523713
           3.6593084    3.6593084    3.6961738    3.6961738    3.8740458
           3.8740458    3.8971996    3.8971996    4.0360475    4.0360475
           4.1640205    4.1640205    4.3209538    4.3209538    4.4150525
           4.4150525
       ********************************************************
:GAP (global)   :    0.0    Ry =     0.0   eV (metal)
:GAP (this spin):    0.0    Ry =     0.0   eV (metal)
         Bandranges (emin - emax) and occupancy:
:BAN00020:  20    1.116279    1.300771  1.00000000
:BAN00021:  21    1.182064    1.350222  1.00000000
:BAN00022:  22    1.182064    1.350222  1.00000000
:BAN00023:  23    1.245394    1.358756  0.97655551
:BAN00024:  24    1.245394    1.358756  0.97655550
:BAN00025:  25    1.301496    1.383378  0.61530280
:BAN00026:  26    1.301496    1.383378  0.61530278
:BAN00027:  27    1.321705    1.399664  0.37136154
:BAN00028:  28    1.321705    1.399664  0.37136153
:BAN00029:  29    1.336802    1.401033  0.03678018
:BAN00030:  30    1.336802    1.401033  0.03678016
:BAN00031:  31    1.355506    1.408020  0.00000000
:BAN00032:  32    1.355506    1.408020  0.00000000
:BAN00033:  33    1.388503    1.423333  0.00000000
:BAN00034:  34    1.388503    1.423333  0.00000000
:BAN00035:  35    1.397189    1.428779  0.00000000
        Energy to separate low and high energystates:    1.00287


:NOE  : NUMBER OF ELECTRONS          =   26.000

:FER  : F E R M I - ENERGY(TETRAH.M.)=   1.3518311416
:GMA  : POTENTIAL AND CHARGE CUT-OFF  12.00 Ry**.5

:POS001: ATOM   -1 X,Y,Z = 0.00000 0.89750 0.25000  MULT= 2  ZZ= 59.000  Pr1       

       LMMAX 16
       LM=   0 0  1 0  2 0  2 2  3 0  3 2  4 0  4 2  4 4  5 0  5 2  5 4  6 0  6 2  6 4  6 6

:CHA001: TOTAL VALENCE CHARGE INSIDE SPHERE   1 =  10.0145    (RMT=  2.3000 )
:PCS001: PARTIAL CHARGES SPHERE =  1 S,P,D,F,PX,PY,PZ,D-Z2,D-X2Y2,D-XY,D-XZ,D-YZ 
:QTL001: 1.9235 4.9512 1.0055 2.1278 1.6528 1.6452 1.6532 0.1982 0.1789 0.2062 0.2084 0.2139
        Q-s-low E-s-low   Q-p-low E-p-low   Q-d-low E-d-low   Q-f-low E-f-low
:EPL001:  1.8715 -1.2180    4.8507  0.0672    0.0460  0.0355    0.0156  0.0362
        Q-s-hi  E-s-hi    Q-p-hi  E-p-hi    Q-d-hi  E-d-hi    Q-f-hi  E-f-hi 
:EPH001:  0.0520  1.2515    0.1004  1.2607    0.9595  1.2322    2.1122  1.3042

                      VXX         VYY         VZZ       UP TO R
:VZZ001:            -3.27466     9.67590    -6.40123       2.300

:CHA  : TOTAL VALENCE CHARGE INSIDE UNIT CELL =      26.000000

:SUM  : SUM OF EIGENVALUES =           8.452118377


        1.ATOM      Pr1                  14 CORE STATES
       CORE-FORCE in mRy/a.u. = |F|      Fx             Fy             Fz
:FCO001:   1.ATOM   1448.957192346442      0.000000000000      0.000000000000   1448.957192346442

:1S 001: 1S               -3066.210993769 Ry
:2S 001: 2S                -491.962038897 Ry
:2PP001: 2P*               -465.060702603 Ry
:2P 001: 2P                -429.663341475 Ry
:3S 001: 3S                -105.061821106 Ry
:3PP001: 3P*                -93.599301306 Ry
:3P 001: 3P                 -86.591669520 Ry
:3DD001: 3D*                -66.517215886 Ry
:3D 001: 3D                 -65.005790119 Ry
:4S 001: 4S                 -19.728936020 Ry
:4PP001: 4P*                -15.434756195 Ry
:4P 001: 4P                 -13.905989158 Ry
:4DD001: 4D*                 -6.836404885 Ry
:4D 001: 4D                  -6.566560612 Ry
:CINT001 Core Integral Atom   1   45.998458

       DENSITY AT NUCLEUS
        JATOM        VALENCE       SEMI-CORE          CORE           TOTAL
:RTO001:   1      636.011479        0.000000   656826.505156   657462.516634
     
       CHARGES OF NEW CHARGE DENSITY
:NTO   : INTERSTITIAL CHARGE =     5.971062
:NPC   : PW Pseudocharge     =    17.928087
:NTO001: CHARGE SPHERE  1    =    56.012921

:NEC01: NUCLEAR AND ELECTRONIC CHARGE    118.00000   117.99691
     
       CHARGES OF OLD CHARGE DENSITY
:OTO   : INTERSTITIAL CHARGE =     5.967362
:OPC   : PW Pseudocharge     =    17.940790
:OTO001: CHARGE SPHERE  1    =    56.016319

:NEC02: NUCLEAR AND ELECTRONIC CHARGE    118.00000   118.00000
     
       CONVERGENCE TEST
:DTO001: DIFFERENCE IN SPHERE  1 =  0.0039331

:DIS  :  CHARGE DISTANCE       ( 0.0039331 for atom    1 spin 1)      0.0039331
 PW Mixed is          264
 
******************************************************
* MULTISECANT MIXING VER9 RELEASE 10.4.0              *
* Standard Mode with controls                        *
* Fixed density scale                                *
* Restart from converged density                     *
* Regularization       1.000E-04                     *
* Trust Upper Limit    5.000E+00                     *
* Max Number of Memory Steps    8                    *
******************************************************
 
:INFO : Forcing a restart
:PWTMP   1.4101E+02  1.9467E+02  2.4294E+02
:PLANE:  PW TOTAL      5.7528 DISTAN   2.12E-03  3.68E-02 %
:CHARG:  CLM/ATOM   1381.9363 DISTAN   7.96E-03  5.76E-04 %
 
Step History
        DMIX         DMIXT        Red     Pred      Trust     Lambda    MagRel    MagAbs     Beta
  1   3.5000E-02   3.5000E-02 -1.00E+00  1.00E+00 -1.00E+01  1.00E+00  3.50E-02  3.50E-02  1.00E+00
  2   1.5000E-01   1.5000E-01 -1.00E+00  1.00E+00 -1.00E+01  1.00E+00  1.50E-01  5.37E-03  1.00E+00
:JACOBIANS    7.966E-03   7.294E-02
  
:NORMS:  1/Froebius, Min, Max, Used   0.3109E-01  0.3109E-01  0.1610E+00  0.3109E-01
:INFO :  Number of Memory Steps    1 Skipping    0
:PREDicted Charge, CTotal, PW Trust    1.035E-03   2.070E-03   6.534E-03
:PREDicted DMix, Beta, BLim   5.0000E-02  1.0135E+00  3.0857E+00

Eigenvalues, unscaled except for SY+YY
   #     SY Real        SY Imag          SS             YY         SY+YY Real      SY+YY Imag
   1   1.609559E-01   0.000000E+00   3.108827E-02   1.000000E+00   1.160956E+00   0.000000E+00
 
:BLIM :  VZERO Control Off
:TRUST:  Step 3.00E+00  Charge 7.50E-02 (e) CTO  2.50E-01 (e) PW  3.50E-01 (e)
:DIRM :  MEMORY  1/8  SCALE   1.000 RED  0.23 PRED  1.00 NEXT  1.00 
:TRAVE:  Charge 2.38E-04 (e) CTO  4.76E-04 (e) PW  7.57E-05 (e)
:DIRP :  |MSR1|= 1.701E-04 |PRATT|= 2.120E-03 ANGLE=  10.6 DEGREES
:DIRQ :  |MSR1|= 5.867E-04 |PRATT|= 7.961E-03 ANGLE=   3.5 DEGREES
:DIRT :  |MSR1|= 6.109E-04 |PRATT|= 8.239E-03 ANGLE=   4.6 DEGREES
:MIX  :   MSR1   REGULARIZATION:  1.00E-04 GREED: 0.07125  Newton 1.00  0.0742                
     
       CHARGES OF MIXED CHARGE DENSITY
:CTO   : INTERSTITIAL CHARGE =     5.967838
:CPC   : PW Pseudocharge     =    17.940444
:CTO001: CHARGE SPHERE  1    =    56.016081

:NEC03: NUCLEAR AND ELECTRONIC CHARGE    118.00000   118.00000

PW CHANGE     H    K    L      Current       Change    Residue
:PTO001:      0    0    0  9.84123010E-02  5.365E-07  1.393E-05
:PTO003:      0    2    0  2.08175789E-02 -1.014E-06 -1.289E-05
:PTO004:     -1    1    0  9.38740360E-02 -2.934E-06 -3.494E-05
:PTO005:      0    2   -1 -1.06125074E-01  2.472E-06  2.806E-05
:PTO006:      0    0   -2 -5.49024987E-02  1.300E-06  1.479E-05
:PTO007:     -1    1   -1 -1.06281288E-01  2.886E-06  3.426E-05
:PTO008:      0    2   -2 -1.30039061E-02  1.168E-07  1.283E-06
:PTO009:     -1    1   -2 -6.39735608E-02  4.604E-07  6.554E-06
:PTO011:     -1    3    0 -8.65880395E-03 -3.473E-07 -4.139E-06
:PTO012:     -1    3   -1 -3.30286973E-02 -3.001E-06 -3.630E-05
:PTO013:      0    4    0 -5.11154842E-03 -4.385E-07 -4.762E-06
:PTO014:      0    2   -3  1.20717451E-02  1.327E-06  1.534E-05

:ENE  : ********** TOTAL ENERGY IN Ry =       -36944.36767255

       TOTAL FORCE IN mRy/a.u. = |F|     Fx             Fy             Fz     with/without FOR in case.in2
:FOR001:   1.ATOM         10.622          0.000          0.000         10.622 partial forces
       TOTAL FORCE WITH RESPECT TO GLOBAL CARTESIAN COORDINATES:
:FCA001:   1.ATOM                         0.000         10.622          0.000 partial forces
       TOTAL FORCE WITH RESPECT TO THE GLOBAL COORDINATE SYSTEM:
:FGL001:   1.ATOM                 0.000000000    10.621789492     0.000000000 partial forces
 Flat Integration
 New Mode for Coulomb Integral
 Consistent 3/8+Simpson combinations
 Extension of core to zero
 LDM version in phi
 Fifth-order quadrature in outwin


            ---------
:ITE016: 16. ITERATION
            ---------

:NATO :    1 INDEPENDENT AND    2 TOTAL ATOMS IN UNITCELL
       SUBSTANCE: aU                                                          

       LATTICE                      = CXY 
:POT  : POTENTIAL OPTION EX_LDA EC_LDA VX_LDA VC_LDA
:LAT  : LATTICE CONSTANTS=  5.15104 10.45276  9.02408    1.571    1.571    1.571
:VOL  : UNIT CELL VOLUME =     242.93998
       MODE OF CALCULATION IS       = RELA
       NON-SPINPOLARIZED CALCULATION
:IFFT  : FFT-parameters:   40   80   72 Factor: 2.00


   CONVERGENCE PARAMETER FOR PSEUDOCHARGE: NCON=  9
   MAXIMAL VALUE OF RMT(JATOM)*ABSK(NKK) : RK  =27.58363


:VKCOUL :  VK-COUL convergence: 0.242E-06
       ATOMNUMBER=  1 Pr1        VCOUL-ZERO =  0.80806E+00
:EFG001:                        EFG         =     9.78122   *10**21  V / m**2
                               V20  TOT/SRF=    -5.66979    -0.08438
                               V22  TOT/SRF=    -6.50776    -0.01387
                               V22M TOT/SRF=     0.00000     0.00000
                               V21  TOT/SRF=     0.00000     0.00000
                               V21M TOT/SRF=     0.00000     0.00000

             -3.23431    0.00000    0.00000       -3.23431    0.00000    0.00000
              0.00000    9.78122    0.00000        0.00000    9.78122    0.00000
              0.00000    0.00000   -6.54691        0.00000    0.00000   -6.54691

         MAIN DIRECTIONS OF THE EFG   1.0000  0.0000  0.0000
                                      0.0000  1.0000  0.0000
                                      0.0000  0.0000  1.0000
:ANG001:  ANGLE WITH OLD X-AXIS =         0.0

:ETA001:                         ASYMM. ETA =     0.33867


     HELLMANN-FEYNMAN-FORCE IN mRy/a.u. = |F|  Fx       Fy             Fz
:FHF001:   1.ATOM   1438.303112129381      0.000000000000      0.000000000000  -1438.303112129381

:FIT001: LUSE= 13 SIGMA OF V-XC FIT FOR ATOM  1  0.1782148E-03
:FIT001: LUSE= 13 SIGMA OF V-XC FIT FOR ATOM  1  0.1782148E-03
:DEN  : DENSITY INTEGRAL  =        -14237.59593655   (Ry)
       ELS_POTENTIAL_AT Z=0 and Z=0.5:   1.10438   1.10438
       ELS_POTENTIAL_AT Y=0 and Y=0.5:  -0.04137  -0.04137
:VZERO:v0,v0c,v0x   0.30625   1.10438  -0.79813 v5,v5c,v5x   0.30625   1.10438  -0.79813
:VZERY:v0,v0c,v0x  -1.06484  -0.04137  -1.02347 v5,v5c,v5x  -1.06484  -0.04137  -1.02347
:VZERX:v0,v0c,v0x  -1.34907  -0.39513  -0.95394 v5,v5c,v5x  -1.34907  -0.39513  -0.95394
:LMAX-WF:   10   Non-Spherical LMAX:   4

          ATOMIC SPHERE DEPENDENT PARAMETERS FOR ATOM  Pr1       
:e__0001: OVERALL ENERGY PARAMETER IS    1.1515
          OVERALL BASIS SET ON ATOM IS LAPW
:E0_0001: E( 0)=    1.1515
             APW+lo
:E0_0001: E( 0)=   -1.2654   E(BOTTOM)=   -1.911   E(TOP)=   -0.620  4  5   250
             LOCAL ORBITAL
:E1_0001: E( 1)=    1.5515
             APW+lo
:E1_0001: E( 1)=    0.1997   E(BOTTOM)=   -0.772   E(TOP)=    1.171  3  4   260
             LOCAL ORBITAL
:E3_0001: E( 3)=    1.3830   E(BOTTOM)=    1.172   E(TOP)=    1.594  0  1   117
             APW+lo
:E2_0001: E( 2)=    1.1515   E(BOTTOM)=    0.958   E(TOP)= -200.000  2 -1   123
             APW+lo

       K=   0.06250   0.00000   0.06250            1
:RKM  : MATRIX SIZE   251LOs:  40  RKM= 8.49  WEIGHT= 4.00  PGR:    
       EIGENVALUES ARE:
:EIG00001:      -1.3577918   -1.2331103   -0.2067104    0.1425784    0.2272528
:EIG00006:       0.2591937    0.2909851    0.2963467    1.1814096    1.2770737
:EIG00011:       1.3066628    1.3144893    1.3197296    1.3352926    1.3632203
:EIG00016:       1.3908006    1.4047088    1.4097916    1.4193639    1.4220390
:EIG00021:       1.4372325    1.4385298    1.4418101    1.4743261    1.4907191
:EIG00026:       1.5379352    1.6120792    1.6234863    1.7077439    1.7578889
:EIG00031:       1.8434096    2.0345268    2.1291820    2.1584317    2.4462849
:EIG00036:       2.4913697    2.5339716    2.8179024    2.8517618    3.0206445
:EIG00041:       3.2249110    3.2615071    3.4302695    3.5068493    3.6525254
:EIG00046:       3.6596150    3.6958584    3.8758389    3.8952012    4.0356415
 
:EIG00051:       4.1642055    4.3218587    4.4154856    4.5440323    4.5926618
:EIG00056:       4.6980430    4.7698464    4.9886927    5.0181205    5.0260389
:EIG00061:       5.0576751    5.1808457    5.2957034    5.4284918    5.4644780
:EIG00066:       5.4820514    5.5105072    5.5336820    5.6815763    5.7875682
:EIG00071:       5.8251232    5.9522558    5.9956643    6.0373666    6.0419422
:EIG00076:       6.0684731    6.1216683    6.1323655    6.1690186    6.2650217
:EIG00081:       6.2860964    6.3616748    6.3805686    6.4781334    6.5458970
:EIG00086:       6.5809374    6.6875410    6.7656157    6.8120268    6.8821128
:EIG00091:       6.9626400    7.0207850    7.0597516    7.0847535    7.0896576
:EIG00096:       7.2620726    7.2974946    7.4034677    7.4065043    7.4609786
 
:EIG00101:       7.5686554    7.5734188    7.6298764    7.6931179    7.7473080
:EIG00106:       7.7673307    7.9097643    8.0129266    8.0784674    8.2186177
:EIG00111:       8.3079458    8.3504547    8.3751841    8.4843644    8.5594763
:EIG00116:       8.6052858
       ********************************************************

:KPT   :      NUMBER OF K-POINTS:   288
   0.0   0.0 angle (M,z), angle (M,x) deg
 
        SPIN-ORBIT EIGENVALUES:
     K=   0.06250   0.00000   0.06250            1
      MATRIX SIZE=  232   WEIGHT= 4.00
     EIGENVALUES ARE:
          -1.3577961   -1.3577961   -1.2331150   -1.2331150   -0.2302208
          -0.2302208    0.0931980    0.0931980    0.1268339    0.1268339
           0.3162390    0.3162390    0.3271388    0.3271388    0.3561583
           0.3561583    1.1813377    1.1813377    1.2771547    1.2771547
           1.3056570    1.3056570    1.3132108    1.3132108    1.3184654
           1.3184654    1.3343236    1.3343237    1.3615350    1.3615350
           1.3867085    1.3867085    1.3993360    1.3993360    1.4092632
           1.4092632    1.4225740    1.4225740    1.4253453    1.4253453

           1.4373024    1.4373024    1.4397030    1.4397031    1.4451744
           1.4451744    1.4761147    1.4761147    1.4920601    1.4920601
           1.5381393    1.5381393    1.6093616    1.6093616    1.6263895
           1.6263895    1.7082958    1.7082958    1.7579507    1.7579507
           1.8437171    1.8437171    2.0347479    2.0347479    2.1290231
           2.1290231    2.1589860    2.1589860    2.4469004    2.4469004
           2.4914904    2.4914904    2.5340024    2.5340024    2.8176783
           2.8176783    2.8515578    2.8515578    3.0200393    3.0200393

           3.2253348    3.2253348    3.2613111    3.2613111    3.4305037
           3.4305037    3.5064057    3.5064057    3.6523709    3.6523709
           3.6593086    3.6593086    3.6961693    3.6961693    3.8740424
           3.8740424    3.8971967    3.8971967    4.0360517    4.0360517
           4.1640051    4.1640051    4.3209362    4.3209362    4.4150406
           4.4150406
       ********************************************************
:GAP (global)   :    0.0    Ry =     0.0   eV (metal)
:GAP (this spin):    0.0    Ry =     0.0   eV (metal)
         Bandranges (emin - emax) and occupancy:
:BAN00020:  20    1.116283    1.300764  1.00000000
:BAN00021:  21    1.182067    1.350210  1.00000000
:BAN00022:  22    1.182067    1.350210  1.00000000
:BAN00023:  23    1.245385    1.358743  0.97655609
:BAN00024:  24    1.245385    1.358743  0.97655609
:BAN00025:  25    1.301490    1.383364  0.61530555
:BAN00026:  26    1.301490    1.383364  0.61530551
:BAN00027:  27    1.321689    1.399650  0.37135718
:BAN00028:  28    1.321689    1.399650  0.37135716
:BAN00029:  29    1.336794    1.401022  0.03678122
:BAN00030:  30    1.336794    1.401022  0.03678120
:BAN00031:  31    1.355498    1.408003  0.00000000
:BAN00032:  32    1.355498    1.408003  0.00000000
:BAN00033:  33    1.388490    1.423319  0.00000000
:BAN00034:  34    1.388490    1.423319  0.00000000
:BAN00035:  35    1.397176    1.428766  0.00000000
        Energy to separate low and high energystates:    1.00287


:NOE  : NUMBER OF ELECTRONS          =   26.000

:FER  : F E R M I - ENERGY(TETRAH.M.)=   1.3518196589
:GMA  : POTENTIAL AND CHARGE CUT-OFF  12.00 Ry**.5

:POS001: ATOM   -1 X,Y,Z = 0.00000 0.89750 0.25000  MULT= 2  ZZ= 59.000  Pr1       

       LMMAX 16
       LM=   0 0  1 0  2 0  2 2  3 0  3 2  4 0  4 2  4 4  5 0  5 2  5 4  6 0  6 2  6 4  6 6

:CHA001: TOTAL VALENCE CHARGE INSIDE SPHERE   1 =  10.0146    (RMT=  2.3000 )
:PCS001: PARTIAL CHARGES SPHERE =  1 S,P,D,F,PX,PY,PZ,D-Z2,D-X2Y2,D-XY,D-XZ,D-YZ 
:QTL001: 1.9235 4.9512 1.0055 2.1280 1.6528 1.6452 1.6532 0.1982 0.1789 0.2062 0.2083 0.2139
        Q-s-low E-s-low   Q-p-low E-p-low   Q-d-low E-d-low   Q-f-low E-f-low
:EPL001:  1.8715 -1.2180    4.8508  0.0672    0.0460  0.0355    0.0156  0.0362
        Q-s-hi  E-s-hi    Q-p-hi  E-p-hi    Q-d-hi  E-d-hi    Q-f-hi  E-f-hi 
:EPH001:  0.0520  1.2515    0.1004  1.2607    0.9595  1.2321    2.1123  1.3042

                      VXX         VYY         VZZ       UP TO R
:VZZ001:            -3.26946     9.66787    -6.39840       2.300

:CHA  : TOTAL VALENCE CHARGE INSIDE UNIT CELL =      26.000000

:SUM  : SUM OF EIGENVALUES =           8.451798797


        1.ATOM      Pr1                  14 CORE STATES
       CORE-FORCE in mRy/a.u. = |F|      Fx             Fy             Fz
:FCO001:   1.ATOM   1448.786912183350      0.000000000000      0.000000000000   1448.786912183350

:1S 001: 1S               -3066.211109534 Ry
:2S 001: 2S                -491.962129588 Ry
:2PP001: 2P*               -465.060798965 Ry
:2P 001: 2P                -429.663435718 Ry
:3S 001: 3S                -105.061863221 Ry
:3PP001: 3P*                -93.599345987 Ry
:3P 001: 3P                 -86.591711772 Ry
:3DD001: 3D*                -66.517264954 Ry
:3D 001: 3D                 -65.005838292 Ry
:4S 001: 4S                 -19.728949941 Ry
:4PP001: 4P*                -15.434770589 Ry
:4P 001: 4P                 -13.906003477 Ry
:4DD001: 4D*                 -6.836420502 Ry
:4D 001: 4D                  -6.566576284 Ry
:CINT001 Core Integral Atom   1   45.998458

       DENSITY AT NUCLEUS
        JATOM        VALENCE       SEMI-CORE          CORE           TOTAL
:RTO001:   1      636.010549        0.000000   656826.514981   657462.525531
     
       CHARGES OF NEW CHARGE DENSITY
:NTO   : INTERSTITIAL CHARGE =     5.970838
:NPC   : PW Pseudocharge     =    17.928047
:NTO001: CHARGE SPHERE  1    =    56.013034

:NEC01: NUCLEAR AND ELECTRONIC CHARGE    118.00000   117.99691
     
       CHARGES OF OLD CHARGE DENSITY
:OTO   : INTERSTITIAL CHARGE =     5.967838
:OPC   : PW Pseudocharge     =    17.940444
:OTO001: CHARGE SPHERE  1    =    56.016081

:NEC02: NUCLEAR AND ELECTRONIC CHARGE    118.00000   118.00000
     
       CONVERGENCE TEST
:DTO001: DIFFERENCE IN SPHERE  1 =  0.0036218

:DIS  :  CHARGE DISTANCE       ( 0.0036218 for atom    1 spin 1)      0.0036218
 PW Mixed is          264
 
******************************************************
* MULTISECANT MIXING VER9 RELEASE 10.4.0              *
* Standard Mode with controls                        *
* Fixed density scale                                *
* Regularization       1.000E-04                     *
* Trust Upper Limit    5.000E+00                     *
* Max Number of Memory Steps    8                    *
******************************************************
 
:PWTMP   1.4101E+02  1.9467E+02  2.4294E+02
:PLANE:  PW TOTAL      5.7527 DISTAN   1.92E-03  3.34E-02 %
:CHARG:  CLM/ATOM   1381.9362 DISTAN   7.26E-03  5.26E-04 %
 
Step History
        DMIX         DMIXT        Red     Pred      Trust     Lambda    MagRel    MagAbs     Beta
  1   3.5000E-02   3.5000E-02 -1.00E+00  1.00E+00 -1.00E+01  1.00E+00  3.50E-02  3.50E-02  1.00E+00
  2   1.5000E-01   1.5000E-01  2.30E-01  1.00E+00 -1.00E+01  1.00E+00  1.50E-01  5.37E-03  1.00E+00
  3   7.1250E-02   7.1250E-02 -1.00E+00  9.98E-01  3.00E+00  1.00E+00  7.42E-02  6.11E-04  1.00E+00
:JACOBIANS    4.156E-02   4.614E-01
  
:NORMS:  1/Froebius, Min, Max, Used   0.5643E+00  0.4612E+00  0.7707E+00  0.7224E+00
:INFO :  Number of Memory Steps    2 Skipping    0
:INFO :  SLambda=    1.1806262205  Max    1.1806262205
:PREDicted Charge, CTotal, PW Trust    2.644E-03   5.289E-03   4.545E-04
:PREDicted DMix, Beta, BLim   7.5895E-01  5.9037E+00  9.0329E-01

Eigenvalues, unscaled except for SY+YY
   #     SY Real        SY Imag          SS             YY         SY+YY Real      SY+YY Imag
   1   1.593458E-01   0.000000E+00   6.099259E-01   1.168797E+00   1.187253E+00   0.000000E+00
   2   7.132005E-01   0.000000E+00   2.686829E-02   8.312033E-01   1.842899E+00   0.000000E+00
 
:INFO :  Singular value  1.847E+00 Weight  1.000E+00 Projection -7.237E-03
:INFO :  Singular value  1.184E+00 Weight  1.000E+00 Projection -2.893E-03
:RANK :  ACTIVE   2.00/2  = 100.00 % ; YY RANK   2.00/2  = 100.00 %
 
:BLIM :  VZERO Control Off
:TRUST:  Step 3.29E+00  Charge 7.50E-02 (e) CTO  2.50E-01 (e) PW  3.50E-01 (e)
:DIRM :  MEMORY  2/8  SCALE   1.000 RED  0.91 PRED  1.00 NEXT  0.32 
:TRAVE:  Charge 1.26E-03 (e) CTO  2.52E-03 (e) PW  2.94E-04 (e)
:DIRP :  |MSR1|= 1.731E-03 |PRATT|= 1.921E-03 ANGLE=  13.2 DEGREES
:DIRQ :  |MSR1|= 5.841E-03 |PRATT|= 7.265E-03 ANGLE=   5.4 DEGREES
:DIRT :  |MSR1|= 6.092E-03 |PRATT|= 7.514E-03 ANGLE=   6.5 DEGREES
:MIX  :   MSE1   REGULARIZATION:  1.17E-04 GREED: 0.17813  Newton 1.00  0.8108                
     
       CHARGES OF MIXED CHARGE DENSITY
:CTO   : INTERSTITIAL CHARGE =     5.972399
:CPC   : PW Pseudocharge     =    17.936767
:CTO001: CHARGE SPHERE  1    =    56.013800

:NEC03: NUCLEAR AND ELECTRONIC CHARGE    118.00000   118.00000

PW CHANGE     H    K    L      Current       Change    Residue
:PTO001:      0    0    0  9.84159406E-02  3.640E-06  1.231E-05
:PTO003:      0    2    0  2.08092680E-02 -8.311E-06 -1.066E-05
:PTO004:     -1    1    0  9.38449535E-02 -2.908E-05 -3.115E-05
:PTO005:      0    2   -1 -1.06100907E-01  2.417E-05  2.460E-05
:PTO006:      0    0   -2 -5.48899182E-02  1.258E-05  1.291E-05
:PTO007:     -1    1   -1 -1.06250433E-01  3.086E-05  3.170E-05
:PTO008:      0    2   -2 -1.30030066E-02  8.995E-07  9.986E-07
:PTO009:     -1    1   -2 -6.39683419E-02  5.219E-06  6.310E-06
:PTO011:     -1    3    0 -8.66192902E-03 -3.125E-06 -3.522E-06
:PTO012:     -1    3   -1 -3.30599821E-02 -3.128E-05 -3.334E-05
:PTO013:      0    4    0 -5.11629336E-03 -4.745E-06 -4.386E-06
:PTO014:      0    2   -3  1.20863961E-02  1.465E-05  1.440E-05

:ENE  : ********** TOTAL ENERGY IN Ry =       -36944.36767535

       TOTAL FORCE IN mRy/a.u. = |F|     Fx             Fy             Fz     with/without FOR in case.in2
:FOR001:   1.ATOM         10.484          0.000          0.000         10.484 partial forces
       TOTAL FORCE WITH RESPECT TO GLOBAL CARTESIAN COORDINATES:
:FCA001:   1.ATOM                         0.000         10.484          0.000 partial forces
       TOTAL FORCE WITH RESPECT TO THE GLOBAL COORDINATE SYSTEM:
:FGL001:   1.ATOM                 0.000000000    10.483800054     0.000000000 partial forces
 Flat Integration
 New Mode for Coulomb Integral
 Consistent 3/8+Simpson combinations
 Extension of core to zero
 LDM version in phi
 Fifth-order quadrature in outwin


            ---------
:ITE017: 17. ITERATION
            ---------

:NATO :    1 INDEPENDENT AND    2 TOTAL ATOMS IN UNITCELL
       SUBSTANCE: aU                                                          

       LATTICE                      = CXY 
:POT  : POTENTIAL OPTION EX_LDA EC_LDA VX_LDA VC_LDA
:LAT  : LATTICE CONSTANTS=  5.15104 10.45276  9.02408    1.571    1.571    1.571
:VOL  : UNIT CELL VOLUME =     242.93998
       MODE OF CALCULATION IS       = RELA
       NON-SPINPOLARIZED CALCULATION
:IFFT  : FFT-parameters:   40   80   72 Factor: 2.00


   CONVERGENCE PARAMETER FOR PSEUDOCHARGE: NCON=  9
   MAXIMAL VALUE OF RMT(JATOM)*ABSK(NKK) : RK  =27.58363


:VKCOUL :  VK-COUL convergence: 0.241E-06
       ATOMNUMBER=  1 Pr1        VCOUL-ZERO =  0.80809E+00
:EFG001:                        EFG         =     9.72576   *10**21  V / m**2
                               V20  TOT/SRF=    -5.64323    -0.08439
                               V22  TOT/SRF=    -6.46764    -0.01378
                               V22M TOT/SRF=     0.00000     0.00000
                               V21  TOT/SRF=     0.00000     0.00000
                               V21M TOT/SRF=     0.00000     0.00000

             -3.20952    0.00000    0.00000       -3.20952    0.00000    0.00000
              0.00000    9.72576    0.00000        0.00000    9.72576    0.00000
              0.00000    0.00000   -6.51625        0.00000    0.00000   -6.51625

         MAIN DIRECTIONS OF THE EFG   1.0000  0.0000  0.0000
                                      0.0000  1.0000  0.0000
                                      0.0000  0.0000  1.0000
:ANG001:  ANGLE WITH OLD X-AXIS =         0.0

:ETA001:                         ASYMM. ETA =     0.34000


     HELLMANN-FEYNMAN-FORCE IN mRy/a.u. = |F|  Fx       Fy             Fz
:FHF001:   1.ATOM   1436.210051915908      0.000000000000      0.000000000000  -1436.210051915908

:FIT001: LUSE= 13 SIGMA OF V-XC FIT FOR ATOM  1  0.1795560E-03
:FIT001: LUSE= 13 SIGMA OF V-XC FIT FOR ATOM  1  0.1795560E-03
:DEN  : DENSITY INTEGRAL  =        -14237.57618005   (Ry)
       ELS_POTENTIAL_AT Z=0 and Z=0.5:   1.10467   1.10467
       ELS_POTENTIAL_AT Y=0 and Y=0.5:  -0.04157  -0.04157
:VZERO:v0,v0c,v0x   0.30636   1.10467  -0.79830 v5,v5c,v5x   0.30636   1.10467  -0.79830
:VZERY:v0,v0c,v0x  -1.06506  -0.04157  -1.02350 v5,v5c,v5x  -1.06506  -0.04157  -1.02350
:VZERX:v0,v0c,v0x  -1.34914  -0.39506  -0.95408 v5,v5c,v5x  -1.34914  -0.39506  -0.95408
:LMAX-WF:   10   Non-Spherical LMAX:   4

          ATOMIC SPHERE DEPENDENT PARAMETERS FOR ATOM  Pr1       
:e__0001: OVERALL ENERGY PARAMETER IS    1.1517
          OVERALL BASIS SET ON ATOM IS LAPW
:E0_0001: E( 0)=    1.1517
             APW+lo
:E0_0001: E( 0)=   -1.2656   E(BOTTOM)=   -1.911   E(TOP)=   -0.620  4  5   264
             LOCAL ORBITAL
:E1_0001: E( 1)=    1.5517
             APW+lo
:E1_0001: E( 1)=    0.1996   E(BOTTOM)=   -0.772   E(TOP)=    1.171  3  4   258
             LOCAL ORBITAL
:E3_0001: E( 3)=    1.3829   E(BOTTOM)=    1.172   E(TOP)=    1.594  0  1   116
             APW+lo
:E2_0001: E( 2)=    1.1517   E(BOTTOM)=    0.958   E(TOP)= -200.000  2 -1   119
             APW+lo

       K=   0.06250   0.00000   0.06250            1
:RKM  : MATRIX SIZE   251LOs:  40  RKM= 8.49  WEIGHT= 4.00  PGR:    
       EIGENVALUES ARE:
:EIG00001:      -1.3579200   -1.2332486   -0.2067859    0.1424790    0.2271430
:EIG00006:       0.2590321    0.2908784    0.2961840    1.1814619    1.2771491
:EIG00011:       1.3066074    1.3144780    1.3197455    1.3352736    1.3631818
:EIG00016:       1.3907933    1.4047046    1.4097898    1.4193601    1.4220582
:EIG00021:       1.4371953    1.4385257    1.4418165    1.4743277    1.4906653
:EIG00026:       1.5378710    1.6120809    1.6234863    1.7077433    1.7578830
:EIG00031:       1.8433920    2.0345164    2.1292213    2.1583999    2.4463941
:EIG00036:       2.4914745    2.5341012    2.8180115    2.8518075    3.0206466
:EIG00041:       3.2249490    3.2615660    3.4303581    3.5068736    3.6525977
:EIG00046:       3.6596677    3.6959279    3.8758871    3.8952514    4.0357290
 
:EIG00051:       4.1642162    4.3218709    4.4154882    4.5440347    4.5926033
:EIG00056:       4.6980799    4.7698896    4.9887369    5.0181936    5.0260819
:EIG00061:       5.0576394    5.1808435    5.2957281    5.4285468    5.4645016
:EIG00066:       5.4820260    5.5105233    5.5336721    5.6815753    5.7875955
:EIG00071:       5.8251913    5.9522931    5.9956833    6.0374447    6.0419732
:EIG00076:       6.0685001    6.1216870    6.1324177    6.1690854    6.2650862
:EIG00081:       6.2861561    6.3617411    6.3806411    6.4781928    6.5459671
:EIG00086:       6.5809910    6.6875715    6.7657038    6.8120558    6.8821732
:EIG00091:       6.9626578    7.0208735    7.0597590    7.0847141    7.0896745
:EIG00096:       7.2621600    7.2974941    7.4035289    7.4065392    7.4610064
 
:EIG00101:       7.5687044    7.5734703    7.6299360    7.6931319    7.7473187
:EIG00106:       7.7674372    7.9097827    8.0129460    8.0784697    8.2186943
:EIG00111:       8.3080011    8.3505132    8.3752543    8.4843948    8.5595242
:EIG00116:       8.6053430
       ********************************************************

:KPT   :      NUMBER OF K-POINTS:   288
   0.0   0.0 angle (M,z), angle (M,x) deg
 
        SPIN-ORBIT EIGENVALUES:
     K=   0.06250   0.00000   0.06250            1
      MATRIX SIZE=  232   WEIGHT= 4.00
     EIGENVALUES ARE:
          -1.3579243   -1.3579243   -1.2332533   -1.2332533   -0.2303020
          -0.2303020    0.0930668    0.0930668    0.1267285    0.1267285
           0.3161113    0.3161113    0.3269878    0.3269878    0.3560401
           0.3560401    1.1813900    1.1813900    1.2772297    1.2772297
           1.3056028    1.3056028    1.3131994    1.3131994    1.3184814
           1.3184814    1.3343043    1.3343043    1.3614986    1.3614986
           1.3866983    1.3866983    1.3993461    1.3993461    1.4092508
           1.4092508    1.4225719    1.4225719    1.4253561    1.4253561

           1.4372831    1.4372831    1.4396821    1.4396821    1.4451826
           1.4451826    1.4761160    1.4761160    1.4920068    1.4920068
           1.5380756    1.5380756    1.6093631    1.6093631    1.6263893
           1.6263893    1.7082952    1.7082952    1.7579447    1.7579447
           1.8436993    1.8436993    2.0347376    2.0347376    2.1290611
           2.1290611    2.1589554    2.1589554    2.4470096    2.4470096
           2.4915952    2.4915952    2.5341319    2.5341319    2.8177871
           2.8177871    2.8516039    2.8516039    3.0200414    3.0200414

           3.2253728    3.2253728    3.2613700    3.2613700    3.4305918
           3.4305918    3.5064304    3.5064304    3.6524428    3.6524428
           3.6593618    3.6593618    3.6962388    3.6962388    3.8740901
           3.8740901    3.8972476    3.8972476    4.0361389    4.0361389
           4.1640159    4.1640159    4.3209482    4.3209482    4.4150434
           4.4150434
       ********************************************************
:GAP (global)   :    0.0    Ry =     0.0   eV (metal)
:GAP (this spin):    0.0    Ry =     0.0   eV (metal)
         Bandranges (emin - emax) and occupancy:
:BAN00020:  20    1.116324    1.300754  1.00000000
:BAN00021:  21    1.182106    1.350205  1.00000000
:BAN00022:  22    1.182106    1.350205  1.00000000
:BAN00023:  23    1.245351    1.358728  0.97656983
:BAN00024:  24    1.245351    1.358728  0.97656982
:BAN00025:  25    1.301494    1.383361  0.61537258
:BAN00026:  26    1.301494    1.383361  0.61537256
:BAN00027:  27    1.321648    1.399648  0.37132977
:BAN00028:  28    1.321648    1.399648  0.37132976
:BAN00029:  29    1.336815    1.401036  0.03672785
:BAN00030:  30    1.336815    1.401036  0.03672784
:BAN00031:  31    1.355527    1.407981  0.00000000
:BAN00032:  32    1.355527    1.407981  0.00000000
:BAN00033:  33    1.388484    1.423317  0.00000000
:BAN00034:  34    1.388484    1.423317  0.00000000
:BAN00035:  35    1.397182    1.428771  0.00000000
        Energy to separate low and high energystates:    1.00292


:NOE  : NUMBER OF ELECTRONS          =   26.000

:FER  : F E R M I - ENERGY(TETRAH.M.)=   1.3518173961
:GMA  : POTENTIAL AND CHARGE CUT-OFF  12.00 Ry**.5

:POS001: ATOM   -1 X,Y,Z = 0.00000 0.89750 0.25000  MULT= 2  ZZ= 59.000  Pr1       

       LMMAX 16
       LM=   0 0  1 0  2 0  2 2  3 0  3 2  4 0  4 2  4 4  5 0  5 2  5 4  6 0  6 2  6 4  6 6

:CHA001: TOTAL VALENCE CHARGE INSIDE SPHERE   1 =  10.0150    (RMT=  2.3000 )
:PCS001: PARTIAL CHARGES SPHERE =  1 S,P,D,F,PX,PY,PZ,D-Z2,D-X2Y2,D-XY,D-XZ,D-YZ 
:QTL001: 1.9235 4.9513 1.0056 2.1282 1.6528 1.6452 1.6532 0.1982 0.1790 0.2062 0.2084 0.2139
        Q-s-low E-s-low   Q-p-low E-p-low   Q-d-low E-d-low   Q-f-low E-f-low
:EPL001:  1.8716 -1.2182    4.8509  0.0671    0.0460  0.0353    0.0156  0.0360
        Q-s-hi  E-s-hi    Q-p-hi  E-p-hi    Q-d-hi  E-d-hi    Q-f-hi  E-f-hi 
:EPH001:  0.0520  1.2515    0.1004  1.2607    0.9596  1.2322    2.1126  1.3042

                      VXX         VYY         VZZ       UP TO R
:VZZ001:            -3.22807     9.61626    -6.38819       2.300

:CHA  : TOTAL VALENCE CHARGE INSIDE UNIT CELL =      26.000000

:SUM  : SUM OF EIGENVALUES =           8.450076178


        1.ATOM      Pr1                  14 CORE STATES
       CORE-FORCE in mRy/a.u. = |F|      Fx             Fy             Fz
:FCO001:   1.ATOM   1445.668203257837      0.000000000000      0.000000000000   1445.668203257837

:1S 001: 1S               -3066.211952756 Ry
:2S 001: 2S                -491.962734510 Ry
:2PP001: 2P*               -465.061458106 Ry
:2P 001: 2P                -429.664074615 Ry
:3S 001: 3S                -105.062004701 Ry
:3PP001: 3P*                -93.599511731 Ry
:3P 001: 3P                 -86.591854985 Ry
:3DD001: 3D*                -66.517472607 Ry
:3D 001: 3D                 -65.006037529 Ry
:4S 001: 4S                 -19.728871142 Ry
:4PP001: 4P*                -15.434700109 Ry
:4P 001: 4P                 -13.905937877 Ry
:4DD001: 4D*                 -6.836378183 Ry
:4D 001: 4D                  -6.566536488 Ry
:CINT001 Core Integral Atom   1   45.998458

       DENSITY AT NUCLEUS
        JATOM        VALENCE       SEMI-CORE          CORE           TOTAL
:RTO001:   1      636.006423        0.000000   656826.597900   657462.604323
     
       CHARGES OF NEW CHARGE DENSITY
:NTO   : INTERSTITIAL CHARGE =     5.969929
:NPC   : PW Pseudocharge     =    17.928403
:NTO001: CHARGE SPHERE  1    =    56.013488

:NEC01: NUCLEAR AND ELECTRONIC CHARGE    118.00000   117.99691
     
       CHARGES OF OLD CHARGE DENSITY
:OTO   : INTERSTITIAL CHARGE =     5.972399
:OPC   : PW Pseudocharge     =    17.936767
:OTO001: CHARGE SPHERE  1    =    56.013800

:NEC02: NUCLEAR AND ELECTRONIC CHARGE    118.00000   118.00000
     
       CONVERGENCE TEST
:DTO001: DIFFERENCE IN SPHERE  1 =  0.0005323

:DIS  :  CHARGE DISTANCE       ( 0.0005323 for atom    1 spin 1)      0.0005323
 PW Mixed is          264
 
******************************************************
* MULTISECANT MIXING VER9 RELEASE 10.4.0              *
* Standard Mode with controls                        *
* Fixed density scale                                *
* Regularization       1.000E-04                     *
* Trust Upper Limit    5.000E+00                     *
* Max Number of Memory Steps    8                    *
******************************************************
 
:PWTMP   1.4101E+02  1.9467E+02  2.4294E+02
:PLANE:  PW TOTAL      5.7522 DISTAN   5.07E-04  8.81E-03 %
:CHARG:  CLM/ATOM   1381.9350 DISTAN   1.38E-03  1.00E-04 %
 
Step History
        DMIX         DMIXT        Red     Pred      Trust     Lambda    MagRel    MagAbs     Beta
  1   3.5000E-02   3.5000E-02 -1.00E+00  1.00E+00 -1.00E+01  1.00E+00  3.50E-02  3.50E-02  1.00E+00
  2   1.5000E-01   1.5000E-01  2.30E-01  1.00E+00 -1.00E+01  1.00E+00  1.50E-01  5.37E-03  1.00E+00
  3   7.1250E-02   7.1250E-02  9.12E-01  9.98E-01  3.00E+00  1.18E+00  7.42E-02  6.11E-04  1.00E+00
  4   1.7813E-01   1.7813E-01 -1.00E+00  3.18E-01  3.29E+00  1.00E+00  8.11E-01  6.09E-03  1.00E+00
:JACOBIANS    6.223E-02   7.169E-01
  
:NORMS:  1/Froebius, Min, Max, Used   0.7200E+00  0.4721E+00  0.9113E+00  0.8412E+00
:INFO :  Number of Memory Steps    3 Skipping    0
:INFO :  SLambda=    0.5920021802  Max    0.5920021802
:PREDicted Charge, CTotal, PW Trust    2.470E-03   4.940E-03   6.659E-04
:PREDicted DMix, Beta, BLim   1.1500E-01  1.0540E+00  1.5334E+00

Eigenvalues, unscaled except for SY+YY
   #     SY Real        SY Imag          SS             YY         SY+YY Real      SY+YY Imag
   1   1.764448E+00   0.000000E+00   1.532566E+00   2.165712E+00   3.204336E+00   0.000000E+00
   2   1.295092E-01   0.000000E+00   2.265284E-02   8.341905E-01   9.167914E-01   0.000000E+00
   3   3.741128E-05   0.000000E+00   1.507624E-05   9.717251E-05   1.212163E-04   0.000000E+00
 
:INFO :  Singular value  3.205E+00 Weight  1.000E+00 Projection -2.247E-04
:INFO :  Singular value  9.166E-01 Weight  1.000E+00 Projection  3.242E-04
:INFO :  Singular value  1.212E-04 Weight  2.385E-01 Projection -3.066E-02
:RANK :  ACTIVE   2.24/3  =  74.62 % ; YY RANK   2.17/3  =  72.25 %
 
:BLIM :  VZERO Control Off
:TRUST:  Step 4.39E+00  Charge 7.50E-02 (e) CTO  2.50E-01 (e) PW  3.50E-01 (e)
:DIRM :  MEMORY  3/8  SCALE   1.000 RED  0.20 PRED  0.32 NEXT  0.81 
:TRAVE:  Charge 7.19E-04 (e) CTO  1.44E-03 (e) PW  2.54E-04 (e)
:DIRP :  |MSR1|= 1.305E-04 |PRATT|= 5.070E-04 ANGLE=  40.4 DEGREES
:DIRQ :  |MSR1|= 4.841E-04 |PRATT|= 1.382E-03 ANGLE=  34.7 DEGREES
:DIRT :  |MSR1|= 5.014E-04 |PRATT|= 1.472E-03 ANGLE=  35.5 DEGREES
:MIX  :   MSD1   REGULARIZATION:  2.17E-04 GREED: 0.12250  Newton 1.00  0.3405                
     
       CHARGES OF MIXED CHARGE DENSITY
:CTO   : INTERSTITIAL CHARGE =     5.972757
:CPC   : PW Pseudocharge     =    17.936778
:CTO001: CHARGE SPHERE  1    =    56.013621

:NEC03: NUCLEAR AND ELECTRONIC CHARGE    118.00000   118.00000

PW CHANGE     H    K    L      Current       Change    Residue
:PTO001:      0    0    0  9.84174590E-02  1.518E-06  6.397E-06
:PTO003:      0    2    0  2.08100949E-02  8.269E-07  6.396E-06
:PTO004:     -1    1    0  9.38446935E-02 -2.601E-07  6.139E-06
:PTO005:      0    2   -1 -1.06101133E-01 -2.257E-07 -7.024E-06
:PTO006:      0    0   -2 -5.48901302E-02 -2.120E-07 -4.151E-06
:PTO007:     -1    1   -1 -1.06248378E-01  2.054E-06  2.837E-06
:PTO008:      0    2   -2 -1.30030988E-02 -9.214E-08 -5.875E-07
:PTO009:     -1    1   -2 -6.39672977E-02  1.044E-06  4.094E-06
:PTO011:     -1    3    0 -8.66171403E-03  2.150E-07  1.924E-06
:PTO012:     -1    3   -1 -3.30617590E-02 -1.777E-06 -1.232E-06
:PTO013:      0    4    0 -5.11650760E-03 -2.142E-07  4.110E-08
:PTO014:      0    2   -3  1.20876263E-02  1.230E-06  2.761E-06

:ENE  : ********** TOTAL ENERGY IN Ry =       -36944.36767043

       TOTAL FORCE IN mRy/a.u. = |F|     Fx             Fy             Fz     with/without FOR in case.in2
:FOR001:   1.ATOM          9.458          0.000          0.000          9.458 partial forces
       TOTAL FORCE WITH RESPECT TO GLOBAL CARTESIAN COORDINATES:
:FCA001:   1.ATOM                         0.000          9.458          0.000 partial forces
       TOTAL FORCE WITH RESPECT TO THE GLOBAL COORDINATE SYSTEM:
:FGL001:   1.ATOM                 0.000000000     9.458151342     0.000000000 partial forces
 Flat Integration
 New Mode for Coulomb Integral
 Consistent 3/8+Simpson combinations
 Extension of core to zero
 LDM version in phi
 Fifth-order quadrature in outwin


            ---------
:ITE018: 18. ITERATION
            ---------

:NATO :    1 INDEPENDENT AND    2 TOTAL ATOMS IN UNITCELL
       SUBSTANCE: aU                                                          

       LATTICE                      = CXY 
:POT  : POTENTIAL OPTION EX_LDA EC_LDA VX_LDA VC_LDA
:LAT  : LATTICE CONSTANTS=  5.15104 10.45276  9.02408    1.571    1.571    1.571
:VOL  : UNIT CELL VOLUME =     242.93998
       MODE OF CALCULATION IS       = RELA
       NON-SPINPOLARIZED CALCULATION
:IFFT  : FFT-parameters:   40   80   72 Factor: 2.00


   CONVERGENCE PARAMETER FOR PSEUDOCHARGE: NCON=  9
   MAXIMAL VALUE OF RMT(JATOM)*ABSK(NKK) : RK  =27.58363


:VKCOUL :  VK-COUL convergence: 0.241E-06
       ATOMNUMBER=  1 Pr1        VCOUL-ZERO =  0.80811E+00
:EFG001:                        EFG         =     9.71239   *10**21  V / m**2
                               V20  TOT/SRF=    -5.63963    -0.08436
                               V22  TOT/SRF=    -6.45635    -0.01375
                               V22M TOT/SRF=     0.00000     0.00000
                               V21  TOT/SRF=     0.00000     0.00000
                               V21M TOT/SRF=     0.00000     0.00000

             -3.20031    0.00000    0.00000       -3.20031    0.00000    0.00000
              0.00000    9.71239    0.00000        0.00000    9.71239    0.00000
              0.00000    0.00000   -6.51209        0.00000    0.00000   -6.51209

         MAIN DIRECTIONS OF THE EFG   1.0000  0.0000  0.0000
                                      0.0000  1.0000  0.0000
                                      0.0000  0.0000  1.0000
:ANG001:  ANGLE WITH OLD X-AXIS =         0.0

:ETA001:                         ASYMM. ETA =     0.34098


     HELLMANN-FEYNMAN-FORCE IN mRy/a.u. = |F|  Fx       Fy             Fz
:FHF001:   1.ATOM   1435.047995542935      0.000000000000      0.000000000000  -1435.047995542935

:FIT001: LUSE= 13 SIGMA OF V-XC FIT FOR ATOM  1  0.1797426E-03
:FIT001: LUSE= 13 SIGMA OF V-XC FIT FOR ATOM  1  0.1797426E-03
:DEN  : DENSITY INTEGRAL  =        -14237.57471871   (Ry)
       ELS_POTENTIAL_AT Z=0 and Z=0.5:   1.10469   1.10469
       ELS_POTENTIAL_AT Y=0 and Y=0.5:  -0.04156  -0.04156
:VZERO:v0,v0c,v0x   0.30638   1.10469  -0.79832 v5,v5c,v5x   0.30638   1.10469  -0.79832
:VZERY:v0,v0c,v0x  -1.06506  -0.04156  -1.02351 v5,v5c,v5x  -1.06506  -0.04156  -1.02351
:VZERX:v0,v0c,v0x  -1.34916  -0.39506  -0.95410 v5,v5c,v5x  -1.34916  -0.39506  -0.95410
:LMAX-WF:   10   Non-Spherical LMAX:   4

          ATOMIC SPHERE DEPENDENT PARAMETERS FOR ATOM  Pr1       
:e__0001: OVERALL ENERGY PARAMETER IS    1.1518
          OVERALL BASIS SET ON ATOM IS LAPW
:E0_0001: E( 0)=    1.1518
             APW+lo
:E0_0001: E( 0)=   -1.2656   E(BOTTOM)=   -1.911   E(TOP)=   -0.620  4  5   258
             LOCAL ORBITAL
:E1_0001: E( 1)=    1.5518
             APW+lo
:E1_0001: E( 1)=    0.1996   E(BOTTOM)=   -0.772   E(TOP)=    1.171  3  4   260
             LOCAL ORBITAL
:E3_0001: E( 3)=    1.3830   E(BOTTOM)=    1.172   E(TOP)=    1.594  0  1   118
             APW+lo
:E2_0001: E( 2)=    1.1518   E(BOTTOM)=    0.958   E(TOP)= -200.000  2 -1   121
             APW+lo

       K=   0.06250   0.00000   0.06250            1
:RKM  : MATRIX SIZE   251LOs:  40  RKM= 8.49  WEIGHT= 4.00  PGR:    
       EIGENVALUES ARE:
:EIG00001:      -1.3579169   -1.2332466   -0.2067825    0.1424770    0.2271416
:EIG00006:       0.2590425    0.2908771    0.2961937    1.1814703    1.2771621
:EIG00011:       1.3066221    1.3144892    1.3197453    1.3352841    1.3631855
:EIG00016:       1.3908026    1.4047116    1.4097973    1.4193669    1.4220569
:EIG00021:       1.4372063    1.4385333    1.4418232    1.4743292    1.4906767
:EIG00026:       1.5378839    1.6120869    1.6234911    1.7077534    1.7578924
:EIG00031:       1.8434022    2.0345244    2.1292333    2.1584044    2.4464105
:EIG00036:       2.4914936    2.5341127    2.8180257    2.8518209    3.0206554
:EIG00041:       3.2249604    3.2615785    3.4303689    3.5068894    3.6526090
:EIG00046:       3.6596866    3.6959369    3.8759050    3.8952624    4.0357415
 
:EIG00051:       4.1642248    4.3218805    4.4154984    4.5440427    4.5926081
:EIG00056:       4.6980887    4.7698998    4.9887484    5.0182030    5.0260926
:EIG00061:       5.0576474    5.1808482    5.2957383    5.4285572    5.4645121
:EIG00066:       5.4820330    5.5105353    5.5336764    5.6815851    5.7876084
:EIG00071:       5.8252043    5.9523032    5.9956973    6.0374550    6.0419852
:EIG00076:       6.0685142    6.1217008    6.1324278    6.1690957    6.2651018
:EIG00081:       6.2861675    6.3617522    6.3806511    6.4782039    6.5459807
:EIG00086:       6.5810015    6.6875846    6.7657172    6.8120653    6.8821830
:EIG00091:       6.9626691    7.0208881    7.0597688    7.0847206    7.0896847
:EIG00096:       7.2621762    7.2975017    7.4035397    7.4065520    7.4610167
 
:EIG00101:       7.5687178    7.5734825    7.6299485    7.6931409    7.7473283
:EIG00106:       7.7674534    7.9097913    8.0129575    8.0784814    8.2187066
:EIG00111:       8.3080119    8.3505257    8.3752658    8.4844051    8.5595329
:EIG00116:       8.6053527
       ********************************************************

:KPT   :      NUMBER OF K-POINTS:   288
   0.0   0.0 angle (M,z), angle (M,x) deg
 
        SPIN-ORBIT EIGENVALUES:
     K=   0.06250   0.00000   0.06250            1
      MATRIX SIZE=  232   WEIGHT= 4.00
     EIGENVALUES ARE:
          -1.3579213   -1.3579213   -1.2332513   -1.2332513   -0.2302989
          -0.2302989    0.0930686    0.0930686    0.1267284    0.1267284
           0.3161152    0.3161152    0.3269959    0.3269959    0.3560420
           0.3560420    1.1813984    1.1813984    1.2772427    1.2772427
           1.3056174    1.3056174    1.3132104    1.3132104    1.3184812
           1.3184812    1.3343147    1.3343147    1.3615023    1.3615023
           1.3867074    1.3867074    1.3993512    1.3993512    1.4092592
           1.4092592    1.4225778    1.4225778    1.4253580    1.4253580

           1.4372929    1.4372929    1.4396900    1.4396900    1.4451894
           1.4451894    1.4761176    1.4761176    1.4920182    1.4920182
           1.5380883    1.5380883    1.6093686    1.6093686    1.6263946
           1.6263946    1.7083053    1.7083053    1.7579541    1.7579541
           1.8437096    1.8437096    2.0347456    2.0347456    2.1290729
           2.1290729    2.1589601    2.1589601    2.4470260    2.4470260
           2.4916142    2.4916142    2.5341434    2.5341434    2.8178013
           2.8178013    2.8516173    2.8516173    3.0200502    3.0200502

           3.2253843    3.2253843    3.2613824    3.2613824    3.4306026
           3.4306026    3.5064461    3.5064461    3.6524544    3.6524544
           3.6593805    3.6593805    3.6962478    3.6962478    3.8741075
           3.8741075    3.8972590    3.8972590    4.0361514    4.0361514
           4.1640244    4.1640244    4.3209578    4.3209578    4.4150535
           4.4150535
       ********************************************************
:GAP (global)   :    0.0    Ry =     0.0   eV (metal)
:GAP (this spin):    0.0    Ry =     0.0   eV (metal)
         Bandranges (emin - emax) and occupancy:
:BAN00020:  20    1.116338    1.300762  1.00000000
:BAN00021:  21    1.182120    1.350210  1.00000000
:BAN00022:  22    1.182120    1.350210  1.00000000
:BAN00023:  23    1.245365    1.358735  0.97659523
:BAN00024:  24    1.245365    1.358735  0.97659522
:BAN00025:  25    1.301502    1.383365  0.61537031
:BAN00026:  26    1.301502    1.383365  0.61537028
:BAN00027:  27    1.321660    1.399656  0.37131212
:BAN00028:  28    1.321660    1.399656  0.37131211
:BAN00029:  29    1.336821    1.401039  0.03672236
:BAN00030:  30    1.336821    1.401039  0.03672235
:BAN00031:  31    1.355529    1.407989  0.00000000
:BAN00032:  32    1.355529    1.407989  0.00000000
:BAN00033:  33    1.388488    1.423323  0.00000000
:BAN00034:  34    1.388488    1.423323  0.00000000
:BAN00035:  35    1.397184    1.428775  0.00000000
        Energy to separate low and high energystates:    1.00294


:NOE  : NUMBER OF ELECTRONS          =   26.000

:FER  : F E R M I - ENERGY(TETRAH.M.)=   1.3518228755
:GMA  : POTENTIAL AND CHARGE CUT-OFF  12.00 Ry**.5

:POS001: ATOM   -1 X,Y,Z = 0.00000 0.89750 0.25000  MULT= 2  ZZ= 59.000  Pr1       

       LMMAX 16
       LM=   0 0  1 0  2 0  2 2  3 0  3 2  4 0  4 2  4 4  5 0  5 2  5 4  6 0  6 2  6 4  6 6

:CHA001: TOTAL VALENCE CHARGE INSIDE SPHERE   1 =  10.0151    (RMT=  2.3000 )
:PCS001: PARTIAL CHARGES SPHERE =  1 S,P,D,F,PX,PY,PZ,D-Z2,D-X2Y2,D-XY,D-XZ,D-YZ 
:QTL001: 1.9235 4.9513 1.0056 2.1283 1.6529 1.6452 1.6532 0.1982 0.1790 0.2062 0.2084 0.2139
        Q-s-low E-s-low   Q-p-low E-p-low   Q-d-low E-d-low   Q-f-low E-f-low
:EPL001:  1.8716 -1.2182    4.8509  0.0671    0.0460  0.0354    0.0156  0.0360
        Q-s-hi  E-s-hi    Q-p-hi  E-p-hi    Q-d-hi  E-d-hi    Q-f-hi  E-f-hi 
:EPH001:  0.0520  1.2515    0.1003  1.2607    0.9596  1.2322    2.1127  1.3042

                      VXX         VYY         VZZ       UP TO R
:VZZ001:            -3.23284     9.62554    -6.39270       2.300

:CHA  : TOTAL VALENCE CHARGE INSIDE UNIT CELL =      26.000000

:SUM  : SUM OF EIGENVALUES =           8.450230157


        1.ATOM      Pr1                  14 CORE STATES
       CORE-FORCE in mRy/a.u. = |F|      Fx             Fy             Fz
:FCO001:   1.ATOM   1444.644301932787      0.000000000000      0.000000000000   1444.644301932787

:1S 001: 1S               -3066.212011073 Ry
:2S 001: 2S                -491.962782915 Ry
:2PP001: 2P*               -465.061509049 Ry
:2P 001: 2P                -429.664124616 Ry
:3S 001: 3S                -105.062025162 Ry
:3PP001: 3P*                -93.599533740 Ry
:3P 001: 3P                 -86.591875383 Ry
:3DD001: 3D*                -66.517497519 Ry
:3D 001: 3D                 -65.006061880 Ry
:4S 001: 4S                 -19.728864717 Ry
:4PP001: 4P*                -15.434693690 Ry
:4P 001: 4P                 -13.905930839 Ry
:4DD001: 4D*                 -6.836371624 Ry
:4D 001: 4D                  -6.566529835 Ry
:CINT001 Core Integral Atom   1   45.998458

       DENSITY AT NUCLEUS
        JATOM        VALENCE       SEMI-CORE          CORE           TOTAL
:RTO001:   1      636.006352        0.000000   656826.604518   657462.610870
     
       CHARGES OF NEW CHARGE DENSITY
:NTO   : INTERSTITIAL CHARGE =     5.969856
:NPC   : PW Pseudocharge     =    17.928385
:NTO001: CHARGE SPHERE  1    =    56.013524

:NEC01: NUCLEAR AND ELECTRONIC CHARGE    118.00000   117.99691
     
       CHARGES OF OLD CHARGE DENSITY
:OTO   : INTERSTITIAL CHARGE =     5.972757
:OPC   : PW Pseudocharge     =    17.936778
:OTO001: CHARGE SPHERE  1    =    56.013621

:NEC02: NUCLEAR AND ELECTRONIC CHARGE    118.00000   118.00000
     
       CONVERGENCE TEST
:DTO001: DIFFERENCE IN SPHERE  1 =  0.0003493

:DIS  :  CHARGE DISTANCE       ( 0.0003493 for atom    1 spin 1)      0.0003493
 PW Mixed is          264
 
******************************************************
* MULTISECANT MIXING VER9 RELEASE 10.4.0              *
* Standard Mode with controls                        *
* Fixed density scale                                *
* Regularization       1.000E-04                     *
* Trust Upper Limit    5.000E+00                     *
* Max Number of Memory Steps    8                    *
******************************************************
 
:PWTMP   1.4101E+02  1.9467E+02  2.4294E+02
:PLANE:  PW TOTAL      5.7523 DISTAN   4.05E-04  7.04E-03 %
:CHARG:  CLM/ATOM   1381.9349 DISTAN   8.52E-04  6.16E-05 %
 
Step History
        DMIX         DMIXT        Red     Pred      Trust     Lambda    MagRel    MagAbs     Beta
  1   3.5000E-02   3.5000E-02 -1.00E+00  1.00E+00 -1.00E+01  1.00E+00  3.50E-02  3.50E-02  1.00E+00
  2   1.5000E-01   1.5000E-01  2.30E-01  1.00E+00 -1.00E+01  1.00E+00  1.50E-01  5.37E-03  1.00E+00
  3   7.1250E-02   7.1250E-02  9.12E-01  9.98E-01  3.00E+00  1.18E+00  7.42E-02  6.11E-04  1.00E+00
  4   1.7813E-01   1.7813E-01  1.96E-01  3.18E-01  3.29E+00  5.92E-01  8.11E-01  6.09E-03  1.00E+00
  5   1.2250E-01   1.2250E-01 -1.00E+00  8.09E-01  4.39E+00  1.00E+00  3.41E-01  5.01E-04  1.00E+00
:JACOBIANS    8.709E-02   1.024E+00
  
:NORMS:  1/Froebius, Min, Max, Used   0.7458E+00  0.5302E+00  0.9262E+00  0.9228E+00
:INFO :  Number of Memory Steps    4 Skipping    0
:INFO :  SLambda=    1.0000000000  Max    1.0000000000
:PREDicted Charge, CTotal, PW Trust    3.260E-04   6.520E-04   5.140E-04
:PREDicted DMix, Beta, BLim   3.8934E-01  1.6500E+00  2.5633E+00

Eigenvalues, unscaled except for SY+YY
   #     SY Real        SY Imag          SS             YY         SY+YY Real      SY+YY Imag
   1   2.226776E+00   0.000000E+00   2.083349E+00   2.446477E+00   4.669643E+00   0.000000E+00
   2   2.806381E-01   0.000000E+00   1.221467E-01   9.774080E-01   1.215703E+00   0.000000E+00
   3   1.137642E-01   0.000000E+00   1.941801E-02   5.761135E-01   7.358310E-01   0.000000E+00
   4   8.750185E-07   0.000000E+00   5.888943E-07   1.382026E-06   2.304130E-06   0.000000E+00
 
:INFO :  Singular value  4.672E+00 Weight  1.000E+00 Projection -1.664E-04
:INFO :  Singular value  1.216E+00 Weight  1.000E+00 Projection -6.078E-04
:INFO :  Singular value  7.354E-01 Weight  1.000E+00 Projection -6.661E-04
:INFO :  Singular value  2.304E-06 Weight  8.869E-05 Projection  4.469E-05
:RANK :  ACTIVE   3.00/4  =  75.00 % ; YY RANK   3.00/4  =  75.00 %
 
:BLIM :  VZERO Control Off
:TRUST:  Step 5.85E+00  Charge 6.00E-02 (e) CTO  2.00E-01 (e) PW  2.80E-01 (e)
:DIRM :  MEMORY  4/8  SCALE   1.000 RED  0.64 PRED  0.81 NEXT  0.67 
:TRAVE:  Charge 4.16E-04 (e) CTO  8.32E-04 (e) PW  2.97E-04 (e)
:DIRP :  |MSR1|= 1.953E-04 |PRATT|= 4.052E-04 ANGLE=  12.8 DEGREES
:DIRQ :  |MSR1|= 4.726E-04 |PRATT|= 8.517E-04 ANGLE=  23.2 DEGREES
:DIRT :  |MSR1|= 5.114E-04 |PRATT|= 9.432E-04 ANGLE=  22.0 DEGREES
:MIX  :   MSR1   REGULARIZATION:  2.45E-04 GREED: 0.25779  Newton 1.00  0.5422                
     
       CHARGES OF MIXED CHARGE DENSITY
:CTO   : INTERSTITIAL CHARGE =     5.972984
:CPC   : PW Pseudocharge     =    17.937139
:CTO001: CHARGE SPHERE  1    =    56.013508

:NEC03: NUCLEAR AND ELECTRONIC CHARGE    118.00000   118.00000

PW CHANGE     H    K    L      Current       Change    Residue
:PTO001:      0    0    0  9.84198750E-02  2.416E-06  4.507E-06
:PTO003:      0    2    0  2.08120993E-02  2.004E-06  4.863E-06
:PTO004:     -1    1    0  9.38474554E-02  2.762E-06  7.158E-06
:PTO005:      0    2   -1 -1.06103858E-01 -2.725E-06 -6.792E-06
:PTO006:      0    0   -2 -5.48916787E-02 -1.549E-06 -3.839E-06
:PTO007:     -1    1   -1 -1.06248010E-01  3.682E-07 -4.512E-07
:PTO008:      0    2   -2 -1.30030283E-02  7.050E-08  2.730E-08
:PTO009:     -1    1   -2 -6.39657808E-02  1.517E-06  2.935E-06
:PTO011:     -1    3    0 -8.66102086E-03  6.932E-07  1.646E-06
:PTO012:     -1    3   -1 -3.30621619E-02 -4.029E-07  7.299E-07
:PTO013:      0    4    0 -5.11641910E-03  8.850E-08  3.582E-07
:PTO014:      0    2   -3  1.20884897E-02  8.634E-07  1.227E-06

:ENE  : ********** TOTAL ENERGY IN Ry =       -36944.36767037

       TOTAL FORCE IN mRy/a.u. = |F|     Fx             Fy             Fz     with/without FOR in case.in2
:FOR001:   1.ATOM          9.596          0.000          0.000          9.596 partial forces
       TOTAL FORCE WITH RESPECT TO GLOBAL CARTESIAN COORDINATES:
:FCA001:   1.ATOM                         0.000          9.596          0.000 partial forces
       TOTAL FORCE WITH RESPECT TO THE GLOBAL COORDINATE SYSTEM:
:FGL001:   1.ATOM                 0.000000000     9.596306390     0.000000000 partial forces
 Flat Integration
 New Mode for Coulomb Integral
 Consistent 3/8+Simpson combinations
 Extension of core to zero
 LDM version in phi
 Fifth-order quadrature in outwin


            ---------
:ITE019: 19. ITERATION
            ---------

:NATO :    1 INDEPENDENT AND    2 TOTAL ATOMS IN UNITCELL
       SUBSTANCE: aU                                                          

       LATTICE                      = CXY 
:POT  : POTENTIAL OPTION EX_LDA EC_LDA VX_LDA VC_LDA
:LAT  : LATTICE CONSTANTS=  5.15104 10.45276  9.02408    1.571    1.571    1.571
:VOL  : UNIT CELL VOLUME =     242.93998
       MODE OF CALCULATION IS       = RELA
       NON-SPINPOLARIZED CALCULATION
:IFFT  : FFT-parameters:   40   80   72 Factor: 2.00


   CONVERGENCE PARAMETER FOR PSEUDOCHARGE: NCON=  9
   MAXIMAL VALUE OF RMT(JATOM)*ABSK(NKK) : RK  =27.58363


:VKCOUL :  VK-COUL convergence: 0.241E-06
       ATOMNUMBER=  1 Pr1        VCOUL-ZERO =  0.80813E+00
:EFG001:                        EFG         =     9.69717   *10**21  V / m**2
                               V20  TOT/SRF=    -5.63763    -0.08432
                               V22  TOT/SRF=    -6.44228    -0.01373
                               V22M TOT/SRF=     0.00000     0.00000
                               V21  TOT/SRF=     0.00000     0.00000
                               V21M TOT/SRF=     0.00000     0.00000

             -3.18739    0.00000    0.00000       -3.18739    0.00000    0.00000
              0.00000    9.69717    0.00000        0.00000    9.69717    0.00000
              0.00000    0.00000   -6.50978        0.00000    0.00000   -6.50978

         MAIN DIRECTIONS OF THE EFG   1.0000  0.0000  0.0000
                                      0.0000  1.0000  0.0000
                                      0.0000  0.0000  1.0000
:ANG001:  ANGLE WITH OLD X-AXIS =         0.0

:ETA001:                         ASYMM. ETA =     0.34261


     HELLMANN-FEYNMAN-FORCE IN mRy/a.u. = |F|  Fx       Fy             Fz
:FHF001:   1.ATOM   1433.602137940185      0.000000000000      0.000000000000  -1433.602137940185

:FIT001: LUSE= 13 SIGMA OF V-XC FIT FOR ATOM  1  0.1800080E-03
:FIT001: LUSE= 13 SIGMA OF V-XC FIT FOR ATOM  1  0.1800080E-03
:DEN  : DENSITY INTEGRAL  =        -14237.57710832   (Ry)
       ELS_POTENTIAL_AT Z=0 and Z=0.5:   1.10472   1.10472
       ELS_POTENTIAL_AT Y=0 and Y=0.5:  -0.04153  -0.04153
:VZERO:v0,v0c,v0x   0.30639   1.10472  -0.79833 v5,v5c,v5x   0.30639   1.10472  -0.79833
:VZERY:v0,v0c,v0x  -1.06505  -0.04153  -1.02352 v5,v5c,v5x  -1.06505  -0.04153  -1.02352
:VZERX:v0,v0c,v0x  -1.34918  -0.39507  -0.95411 v5,v5c,v5x  -1.34918  -0.39507  -0.95411
:LMAX-WF:   10   Non-Spherical LMAX:   4

          ATOMIC SPHERE DEPENDENT PARAMETERS FOR ATOM  Pr1       
:e__0001: OVERALL ENERGY PARAMETER IS    1.1518
          OVERALL BASIS SET ON ATOM IS LAPW
:E0_0001: E( 0)=    1.1518
             APW+lo
:E0_0001: E( 0)=   -1.2656   E(BOTTOM)=   -1.911   E(TOP)=   -0.620  4  5   256
             LOCAL ORBITAL
:E1_0001: E( 1)=    1.5518
             APW+lo
:E1_0001: E( 1)=    0.1996   E(BOTTOM)=   -0.772   E(TOP)=    1.171  3  4   256
             LOCAL ORBITAL
:E3_0001: E( 3)=    1.3830   E(BOTTOM)=    1.172   E(TOP)=    1.594  0  1   121
             APW+lo
:E2_0001: E( 2)=    1.1518   E(BOTTOM)=    0.958   E(TOP)= -200.000  2 -1   121
             APW+lo

       K=   0.06250   0.00000   0.06250            1
:RKM  : MATRIX SIZE   251LOs:  40  RKM= 8.49  WEIGHT= 4.00  PGR:    
       EIGENVALUES ARE:
:EIG00001:      -1.3578917   -1.2332219   -0.2067605    0.1424942    0.2271608
:EIG00006:       0.2590752    0.2908962    0.2962252    1.1814864    1.2771826
[...]
  
:NORMS:  1/Froebius, Min, Max, Used   0.7468E+00  0.4607E+00  0.9244E+00  0.9240E+00
:INFO :  Number of Memory Steps    5 Skipping    0
:INFO :  SLambda=    1.1688761524  Max    1.1688761524
:PREDicted Charge, CTotal, PW Trust    1.047E-04   2.093E-04   6.987E-04
:PREDicted DMix, Beta, BLim   6.4721E-01  1.3441E+00  5.9180E+00

Eigenvalues, unscaled except for SY+YY
   #     SY Real        SY Imag          SS             YY         SY+YY Real      SY+YY Imag
   1   2.480885E+00   0.000000E+00   2.365180E+00   2.770123E+00   5.650688E+00   0.000000E+00
   2   6.663059E-01   0.000000E+00   4.007158E-01   1.381746E+00   2.168863E+00   0.000000E+00
   3   1.254789E-01   0.000000E+00   1.997386E-02   8.344763E-01   9.912253E-01   0.000000E+00
   4   5.243771E-08   0.000000E+00   2.990090E-03   1.365477E-02   2.272356E-02   0.000000E+00
   5   6.976304E-03   0.000000E+00   1.003917E-08   3.081593E-07   3.654735E-07   0.000000E+00
 
:INFO :  Singular value  5.651E+00 Weight  1.000E+00 Projection -2.252E-05
:INFO :  Singular value  2.172E+00 Weight  1.000E+00 Projection -2.052E-04
:INFO :  Singular value  9.895E-01 Weight  1.000E+00 Projection  1.956E-04
:INFO :  Singular value  2.272E-02 Weight  9.999E-01 Projection -2.916E-03
:INFO :  Singular value  3.655E-07 Weight  1.741E-06 Projection -1.480E-07
:RANK :  ACTIVE   4.00/5  =  80.00 % ; YY RANK   4.00/5  =  79.99 %
 
:BLIM :  VZERO Control Off
:TRUST:  Step 7.80E+00  Charge 4.80E-02 (e) CTO  1.60E-01 (e) PW  2.24E-01 (e)
:DIRM :  MEMORY  5/8  SCALE   1.000 RED  0.47 PRED  0.67 NEXT  0.35 
:TRAVE:  Charge 2.09E-04 (e) CTO  4.18E-04 (e) PW  2.87E-04 (e)
:DIRP :  |MSR1|= 1.768E-04 |PRATT|= 2.076E-04 ANGLE=   5.8 DEGREES
:DIRQ :  |MSR1|= 2.605E-04 |PRATT|= 3.895E-04 ANGLE=  14.2 DEGREES
:DIRT :  |MSR1|= 3.148E-04 |PRATT|= 4.414E-04 ANGLE=  13.9 DEGREES
:MIX  :   MSE1   REGULARIZATION:  2.77E-04 GREED: 0.35000  Newton 1.00  0.7132                
     
       CHARGES OF MIXED CHARGE DENSITY
:CTO   : INTERSTITIAL CHARGE =     5.972987
:CPC   : PW Pseudocharge     =    17.937612
:CTO001: CHARGE SPHERE  1    =    56.013506

:NEC03: NUCLEAR AND ELECTRONIC CHARGE    118.00000   118.00000

PW CHANGE     H    K    L      Current       Change    Residue
:PTO001:      0    0    0  9.84218370E-02  1.962E-06  2.569E-06
:PTO003:      0    2    0  2.08129447E-02  8.455E-07  9.656E-07
:PTO004:     -1    1    0  9.38509254E-02  3.470E-06  4.198E-06
:PTO005:      0    2   -1 -1.06107165E-01 -3.307E-06 -3.752E-06
:PTO006:      0    0   -2 -5.48933451E-02 -1.666E-06 -1.891E-06
:PTO007:     -1    1   -1 -1.06250222E-01 -2.212E-06 -2.453E-06
:PTO008:      0    2   -2 -1.30026102E-02  4.180E-07  6.047E-07
:PTO009:     -1    1   -2 -6.39647891E-02  9.917E-07  1.345E-06
:PTO011:     -1    3    0 -8.66057818E-03  4.427E-07  5.432E-07
:PTO012:     -1    3   -1 -3.30607290E-02  1.433E-06  1.517E-06
:PTO013:      0    4    0 -5.11609018E-03  3.289E-07  3.358E-07
:PTO014:      0    2   -3  1.20882414E-02 -2.484E-07 -8.347E-08

:ENE  : ********** TOTAL ENERGY IN Ry =       -36944.36767048

       TOTAL FORCE IN mRy/a.u. = |F|     Fx             Fy             Fz     with/without FOR in case.in2
:FOR001:   1.ATOM          9.879          0.000          0.000          9.879 partial forces
       TOTAL FORCE WITH RESPECT TO GLOBAL CARTESIAN COORDINATES:
:FCA001:   1.ATOM                         0.000          9.879          0.000 partial forces
       TOTAL FORCE WITH RESPECT TO THE GLOBAL COORDINATE SYSTEM:
:FGL001:   1.ATOM                 0.000000000     9.878703851     0.000000000 partial forces
 Flat Integration
 New Mode for Coulomb Integral
 Consistent 3/8+Simpson combinations
 Extension of core to zero
 LDM version in phi
 Fifth-order quadrature in outwin


            ---------
:ITE020: 20. ITERATION
            ---------

:NATO :    1 INDEPENDENT AND    2 TOTAL ATOMS IN UNITCELL
       SUBSTANCE: aU                                                          

       LATTICE                      = CXY 
:POT  : POTENTIAL OPTION EX_LDA EC_LDA VX_LDA VC_LDA
:LAT  : LATTICE CONSTANTS=  5.15104 10.45276  9.02408    1.571    1.571    1.571
:VOL  : UNIT CELL VOLUME =     242.93998
       MODE OF CALCULATION IS       = RELA
       NON-SPINPOLARIZED CALCULATION
:IFFT  : FFT-parameters:   40   80   72 Factor: 2.00


   CONVERGENCE PARAMETER FOR PSEUDOCHARGE: NCON=  9
   MAXIMAL VALUE OF RMT(JATOM)*ABSK(NKK) : RK  =27.58363


:VKCOUL :  VK-COUL convergence: 0.241E-06
       ATOMNUMBER=  1 Pr1        VCOUL-ZERO =  0.80815E+00
:EFG001:                        EFG         =     9.69285   *10**21  V / m**2
                               V20  TOT/SRF=    -5.63902    -0.08431
                               V22  TOT/SRF=    -6.43716    -0.01373
                               V22M TOT/SRF=     0.00000     0.00000
                               V21  TOT/SRF=     0.00000     0.00000
                               V21M TOT/SRF=     0.00000     0.00000

             -3.18147    0.00000    0.00000       -3.18147    0.00000    0.00000
              0.00000    9.69285    0.00000        0.00000    9.69285    0.00000
              0.00000    0.00000   -6.51137        0.00000    0.00000   -6.51137

         MAIN DIRECTIONS OF THE EFG   1.0000  0.0000  0.0000
                                      0.0000  1.0000  0.0000
                                      0.0000  0.0000  1.0000
:ANG001:  ANGLE WITH OLD X-AXIS =         0.0

:ETA001:                         ASYMM. ETA =     0.34354


     HELLMANN-FEYNMAN-FORCE IN mRy/a.u. = |F|  Fx       Fy             Fz
:FHF001:   1.ATOM   1433.899654135434      0.000000000000      0.000000000000  -1433.899654135434

:FIT001: LUSE= 13 SIGMA OF V-XC FIT FOR ATOM  1  0.1801596E-03
:FIT001: LUSE= 13 SIGMA OF V-XC FIT FOR ATOM  1  0.1801596E-03
:DEN  : DENSITY INTEGRAL  =        -14237.57778117   (Ry)
       ELS_POTENTIAL_AT Z=0 and Z=0.5:   1.10473   1.10473
       ELS_POTENTIAL_AT Y=0 and Y=0.5:  -0.04152  -0.04152
:VZERO:v0,v0c,v0x   0.30641   1.10473  -0.79833 v5,v5c,v5x   0.30641   1.10473  -0.79833
:VZERY:v0,v0c,v0x  -1.06505  -0.04152  -1.02353 v5,v5c,v5x  -1.06505  -0.04152  -1.02353
:VZERX:v0,v0c,v0x  -1.34919  -0.39508  -0.95411 v5,v5c,v5x  -1.34919  -0.39508  -0.95411
:LMAX-WF:   10   Non-Spherical LMAX:   4

          ATOMIC SPHERE DEPENDENT PARAMETERS FOR ATOM  Pr1       
:e__0001: OVERALL ENERGY PARAMETER IS    1.1518
          OVERALL BASIS SET ON ATOM IS LAPW
:E0_0001: E( 0)=    1.1518
             APW+lo
:E0_0001: E( 0)=   -1.2655   E(BOTTOM)=   -1.911   E(TOP)=   -0.620  4  5   255
             LOCAL ORBITAL
:E1_0001: E( 1)=    1.5518
             APW+lo
:E1_0001: E( 1)=    0.1996   E(BOTTOM)=   -0.772   E(TOP)=    1.171  3  4   266
             LOCAL ORBITAL
:E3_0001: E( 3)=    1.3830   E(BOTTOM)=    1.172   E(TOP)=    1.594  0  1   116
             APW+lo
:E2_0001: E( 2)=    1.1518   E(BOTTOM)=    0.958   E(TOP)= -200.000  2 -1   120
             APW+lo

       K=   0.06250   0.00000   0.06250            1
:RKM  : MATRIX SIZE   251LOs:  40  RKM= 8.49  WEIGHT= 4.00  PGR:    
       EIGENVALUES ARE:
:EIG00001:      -1.3578739   -1.2332045   -0.2067418    0.1425118    0.2271783
:EIG00006:       0.2590927    0.2909138    0.2962426    1.1815007    1.2771952
:EIG00011:       1.3066726    1.3145292    1.3197779    1.3353262    1.3632258
:EIG00016:       1.3908403    1.4047491    1.4098336    1.4194035    1.4220848
:EIG00021:       1.4372487    1.4385704    1.4418602    1.4743641    1.4907214
:EIG00026:       1.5379318    1.6121196    1.6235257    1.7077890    1.7579276
:EIG00031:       1.8434404    2.0345593    2.1292691    2.1584415    2.4464447
:EIG00036:       2.4915307    2.5341389    2.8180565    2.8518595    3.0206927
:EIG00041:       3.2249966    3.2616120    3.4303950    3.5069305    3.6526389
:EIG00046:       3.6597287    3.6959653    3.8759465    3.8952957    4.0357711
 
:EIG00051:       4.1642570    4.3219139    4.4155390    4.5440757    4.5926471
:EIG00056:       4.6981207    4.7699334    4.9887820    5.0182342    5.0261255
:EIG00061:       5.0576863    5.1808797    5.2957732    5.4285914    5.4645472
:EIG00066:       5.4820691    5.5105731    5.5337112    5.6816220    5.7876465
:EIG00071:       5.8252372    5.9523369    5.9957370    6.0374844    6.0420221
:EIG00076:       6.0685534    6.1217410    6.1324593    6.1691249    6.2651395
:EIG00081:       6.2861993    6.3617841    6.3806826    6.4782366    6.5460160
:EIG00086:       6.5810324    6.6876234    6.7657498    6.8120998    6.8822147
:EIG00091:       6.9627077    7.0209233    7.0598076    7.0847602    7.0897215
:EIG00096:       7.2622122    7.2975408    7.4035719    7.4065897    7.4610518
 
:EIG00101:       7.5687545    7.5735173    7.6299822    7.6931766    7.7473666
:EIG00106:       7.7674891    7.9098280    8.0129945    8.0785212    8.2187386
:EIG00111:       8.3080444    8.3505603    8.3752999    8.4844412    8.5595655
:EIG00116:       8.6053858
       ********************************************************

:KPT   :      NUMBER OF K-POINTS:   288
   0.0   0.0 angle (M,z), angle (M,x) deg
 
        SPIN-ORBIT EIGENVALUES:
     K=   0.06250   0.00000   0.06250            1
      MATRIX SIZE=  232   WEIGHT= 4.00
     EIGENVALUES ARE:
          -1.3578782   -1.3578782   -1.2332092   -1.2332092   -0.2302583
          -0.2302583    0.0931099    0.0931099    0.1267652    0.1267652
           0.3161570    0.3161570    0.3270431    0.3270431    0.3560821
           0.3560821    1.1814288    1.1814288    1.2772758    1.2772758
           1.3056676    1.3056676    1.3132504    1.3132504    1.3185139
           1.3185139    1.3343569    1.3343569    1.3615423    1.3615423
           1.3867458    1.3867458    1.3993844    1.3993844    1.4092982
           1.4092982    1.4226133    1.4226133    1.4253892    1.4253892

           1.4373326    1.4373326    1.4397296    1.4397296    1.4452258
           1.4452258    1.4761527    1.4761527    1.4920628    1.4920628
           1.5381362    1.5381362    1.6094014    1.6094014    1.6264291
           1.6264291    1.7083409    1.7083409    1.7579893    1.7579893
           1.8437478    1.8437478    2.0347805    2.0347805    2.1291087
           2.1291087    2.1589971    2.1589971    2.4470602    2.4470602
           2.4916513    2.4916514    2.5341696    2.5341696    2.8178321
           2.8178321    2.8516559    2.8516559    3.0200875    3.0200875

           3.2254205    3.2254205    3.2614159    3.2614159    3.4306289
           3.4306289    3.5064871    3.5064871    3.6524846    3.6524846
           3.6594221    3.6594221    3.6962762    3.6962762    3.8741485
           3.8741485    3.8972928    3.8972928    4.0361811    4.0361811
           4.1640567    4.1640567    4.3209913    4.3209913    4.4150941
           4.4150941
       ********************************************************
:GAP (global)   :    0.0    Ry =     0.0   eV (metal)
:GAP (this spin):    0.0    Ry =     0.0   eV (metal)
         Bandranges (emin - emax) and occupancy:
:BAN00020:  20    1.116374    1.300804  1.00000000
:BAN00021:  21    1.182157    1.350245  1.00000000
:BAN00022:  22    1.182157    1.350245  1.00000000
:BAN00023:  23    1.245410    1.358774  0.97659997
:BAN00024:  24    1.245410    1.358774  0.97659996
:BAN00025:  25    1.301538    1.383402  0.61535520
:BAN00026:  26    1.301538    1.383402  0.61535518
:BAN00027:  27    1.321705    1.399693  0.37131055
:BAN00028:  28    1.321705    1.399693  0.37131053
:BAN00029:  29    1.336854    1.401072  0.03673431
:BAN00030:  30    1.336854    1.401072  0.03673429
:BAN00031:  31    1.355559    1.408030  0.00000000
:BAN00032:  32    1.355559    1.408030  0.00000000
:BAN00033:  33    1.388525    1.423359  0.00000000
:BAN00034:  34    1.388525    1.423359  0.00000000
:BAN00035:  35    1.397218    1.428808  0.00000000
        Energy to separate low and high energystates:    1.00298


:NOE  : NUMBER OF ELECTRONS          =   26.000

:FER  : F E R M I - ENERGY(TETRAH.M.)=   1.3518590210
:GMA  : POTENTIAL AND CHARGE CUT-OFF  12.00 Ry**.5

:POS001: ATOM   -1 X,Y,Z = 0.00000 0.89750 0.25000  MULT= 2  ZZ= 59.000  Pr1       

       LMMAX 16
       LM=   0 0  1 0  2 0  2 2  3 0  3 2  4 0  4 2  4 4  5 0  5 2  5 4  6 0  6 2  6 4  6 6

:CHA001: TOTAL VALENCE CHARGE INSIDE SPHERE   1 =  10.0150    (RMT=  2.3000 )
:PCS001: PARTIAL CHARGES SPHERE =  1 S,P,D,F,PX,PY,PZ,D-Z2,D-X2Y2,D-XY,D-XZ,D-YZ 
:QTL001: 1.9235 4.9513 1.0056 2.1282 1.6529 1.6452 1.6532 0.1982 0.1790 0.2062 0.2084 0.2139
        Q-s-low E-s-low   Q-p-low E-p-low   Q-d-low E-d-low   Q-f-low E-f-low
:EPL001:  1.8716 -1.2181    4.8509  0.0671    0.0460  0.0354    0.0156  0.0361
        Q-s-hi  E-s-hi    Q-p-hi  E-p-hi    Q-d-hi  E-d-hi    Q-f-hi  E-f-hi 
:EPH001:  0.0520  1.2515    0.1004  1.2607    0.9595  1.2322    2.1126  1.3042

                      VXX         VYY         VZZ       UP TO R
:VZZ001:            -3.24035     9.63574    -6.39539       2.300

:CHA  : TOTAL VALENCE CHARGE INSIDE UNIT CELL =      26.000000

:SUM  : SUM OF EIGENVALUES =           8.451269072


        1.ATOM      Pr1                  14 CORE STATES
       CORE-FORCE in mRy/a.u. = |F|      Fx             Fy             Fz
:FCO001:   1.ATOM   1443.806049466776      0.000000000000      0.000000000000   1443.806049466776

:1S 001: 1S               -3066.211954737 Ry
:2S 001: 2S                -491.962755837 Ry
:2PP001: 2P*               -465.061476418 Ry
:2P 001: 2P                -429.664094080 Ry
:3S 001: 3S                -105.062023065 Ry
:3PP001: 3P*                -93.599530587 Ry
:3P 001: 3P                 -86.591872688 Ry
:3DD001: 3D*                -66.517493488 Ry
:3D 001: 3D                 -65.006058136 Ry
:4S 001: 4S                 -19.728836016 Ry
:4PP001: 4P*                -15.434663591 Ry
:4P 001: 4P                 -13.905898398 Ry
:4DD001: 4D*                 -6.836336978 Ry
:4D 001: 4D                  -6.566494595 Ry
:CINT001 Core Integral Atom   1   45.998458

       DENSITY AT NUCLEUS
        JATOM        VALENCE       SEMI-CORE          CORE           TOTAL
:RTO001:   1      636.006284        0.000000   656826.603521   657462.609805
     
       CHARGES OF NEW CHARGE DENSITY
:NTO   : INTERSTITIAL CHARGE =     5.969908
:NPC   : PW Pseudocharge     =    17.928327
:NTO001: CHARGE SPHERE  1    =    56.013499

:NEC01: NUCLEAR AND ELECTRONIC CHARGE    118.00000   117.99691
     
       CHARGES OF OLD CHARGE DENSITY
:OTO   : INTERSTITIAL CHARGE =     5.972987
:OPC   : PW Pseudocharge     =    17.937612
:OTO001: CHARGE SPHERE  1    =    56.013506

:NEC02: NUCLEAR AND ELECTRONIC CHARGE    118.00000   118.00000
     
       CONVERGENCE TEST
:DTO001: DIFFERENCE IN SPHERE  1 =  0.0000309

:DIS  :  CHARGE DISTANCE       ( 0.0000309 for atom    1 spin 1)      0.0000309
 PW Mixed is          264
 
******************************************************
* MULTISECANT MIXING VER9 RELEASE 10.4.0              *
* Standard Mode with controls                        *
* Fixed density scale                                *
* Regularization       1.000E-04                     *
* Trust Upper Limit    5.000E+00                     *
* Max Number of Memory Steps    8                    *
******************************************************
 
:PWTMP   1.4101E+02  1.9467E+02  2.4294E+02
:PLANE:  PW TOTAL      5.7526 DISTAN   1.75E-05  3.04E-04 %
:CHARG:  CLM/ATOM   1381.9351 DISTAN   6.10E-05  4.42E-06 %
 
Step History
        DMIX         DMIXT        Red     Pred      Trust     Lambda    MagRel    MagAbs     Beta
  1   3.5000E-02   3.5000E-02 -1.00E+00  1.00E+00 -1.00E+01  1.00E+00  3.50E-02  3.50E-02  1.00E+00
  2   1.5000E-01   1.5000E-01  2.30E-01  1.00E+00 -1.00E+01  1.00E+00  1.50E-01  5.37E-03  1.00E+00
  3   7.1250E-02   7.1250E-02  9.12E-01  9.98E-01  3.00E+00  1.18E+00  7.42E-02  6.11E-04  1.00E+00
  4   1.7813E-01   1.7813E-01  1.96E-01  3.18E-01  3.29E+00  5.92E-01  8.11E-01  6.09E-03  1.00E+00
  5   1.2250E-01   1.2250E-01  6.41E-01  8.09E-01  4.39E+00  1.00E+00  3.41E-01  5.01E-04  1.00E+00
  6   2.5779E-01   2.5779E-01  4.68E-01  6.74E-01  5.85E+00  1.17E+00  5.42E-01  5.11E-04  1.00E+00
  7   3.5000E-01   3.5000E-01 -1.00E+00  3.51E-01  7.80E+00  1.00E+00  7.13E-01  3.15E-04  1.00E+00
:JACOBIANS    2.846E-01   1.876E+00
  
:NORMS:  1/Froebius, Min, Max, Used   0.7758E+00  0.4774E+00  0.9633E+00  0.9519E+00
:INFO :  Number of Memory Steps    6 Skipping    0
:INFO :  SLambda=    0.7961802847  Max    0.7961802847
:PREDicted Charge, CTotal, PW Trust    1.078E-05   2.156E-05   3.158E-04
:PREDicted DMix, Beta, BLim   4.2468E-01  1.1030E+00  9.7465E+00

Eigenvalues, unscaled except for SY+YY
   #     SY Real        SY Imag          SS             YY         SY+YY Real      SY+YY Imag
   1   2.484214E+00   0.000000E+00   2.427111E+00   2.678626E+00   4.629245E+00   0.000000E+00
   2   1.472009E+00   0.000000E+00   1.113502E+00   2.195688E+00   3.367161E+00   0.000000E+00
   3   1.651870E-01   0.000000E+00   5.160566E-02   8.263261E-01   9.581339E-01   0.000000E+00
   4   9.458182E-02   0.000000E+00   1.862032E-02   2.983851E-01   4.011596E-01   0.000000E+00
   5   4.222348E-04   0.000000E+00   1.825239E-04   9.743119E-04   1.325034E-03   0.000000E+00
   6   4.444517E-08   0.000000E+00   6.509601E-09   3.004249E-07   3.350448E-07   0.000000E+00
 
:INFO :  Singular value  4.631E+00 Weight  1.000E+00 Projection  1.287E-05
:INFO :  Singular value  3.370E+00 Weight  1.000E+00 Projection  5.451E-06
:INFO :  Singular value  9.575E-01 Weight  1.000E+00 Projection -9.667E-06
:INFO :  Singular value  4.010E-01 Weight  1.000E+00 Projection -7.921E-05
:INFO :  Singular value  1.325E-03 Weight  9.607E-01 Projection -1.075E-03
:INFO :  Singular value  3.350E-07 Weight  1.565E-06 Projection  4.145E-08
:RANK :  ACTIVE   4.96/6  =  82.68 % ; YY RANK   4.93/6  =  82.16 %
 
:BLIM :  VZERO Control Off
:TRUST:  Step 1.04E+01  Charge 3.84E-02 (e) CTO  1.28E-01 (e) PW  1.79E-01 (e)
:DIRM :  MEMORY  6/8  SCALE   1.000 RED  0.14 PRED  0.35 NEXT  0.47 
:TRAVE:  Charge 1.08E-04 (e) CTO  2.16E-04 (e) PW  1.55E-04 (e)
:DIRP :  |MSR1|= 1.574E-05 |PRATT|= 1.751E-05 ANGLE=  28.7 DEGREES
:DIRQ :  |MSR1|= 4.209E-05 |PRATT|= 6.102E-05 ANGLE=  16.7 DEGREES
:DIRT :  |MSR1|= 4.493E-05 |PRATT|= 6.348E-05 ANGLE=  18.7 DEGREES
:MIX  :   MSD1   REGULARIZATION:  2.68E-04 GREED: 0.34784  Newton 1.00  0.7077                
     
       CHARGES OF MIXED CHARGE DENSITY
:CTO   : INTERSTITIAL CHARGE =     5.973001
:CPC   : PW Pseudocharge     =    17.937639
:CTO001: CHARGE SPHERE  1    =    56.013500

:NEC03: NUCLEAR AND ELECTRONIC CHARGE    118.00000   118.00000

PW CHANGE     H    K    L      Current       Change    Residue
:PTO001:      0    0    0  9.84220028E-02  1.658E-07  1.000E-07
:PTO003:      0    2    0  2.08128453E-02 -9.948E-08 -2.653E-07
:PTO004:     -1    1    0  9.38511127E-02  1.874E-07  7.284E-08
:PTO005:      0    2   -1 -1.06107410E-01 -2.451E-07 -1.675E-07
:PTO006:      0    0   -2 -5.48934577E-02 -1.126E-07 -6.590E-08
:PTO007:     -1    1   -1 -1.06250500E-01 -2.777E-07 -3.826E-07
:PTO008:      0    2   -2 -1.30025280E-02  8.228E-08  1.174E-07
:PTO009:     -1    1   -2 -6.39645849E-02  2.042E-07  2.783E-07
:PTO011:     -1    3    0 -8.66058947E-03 -1.129E-08 -5.981E-08
:PTO012:     -1    3   -1 -3.30605970E-02  1.320E-07  1.734E-07
:PTO013:      0    4    0 -5.11607404E-03  1.614E-08  9.703E-09
:PTO014:      0    2   -3  1.20882565E-02  1.513E-08  1.826E-08

:ENE  : ********** TOTAL ENERGY IN Ry =       -36944.36767093

       TOTAL FORCE IN mRy/a.u. = |F|     Fx             Fy             Fz     with/without FOR in case.in2
:FOR001:   1.ATOM          9.906          0.000          0.000          9.906 partial forces
       TOTAL FORCE WITH RESPECT TO GLOBAL CARTESIAN COORDINATES:
:FCA001:   1.ATOM                         0.000          9.906          0.000 partial forces
       TOTAL FORCE WITH RESPECT TO THE GLOBAL COORDINATE SYSTEM:
:FGL001:   1.ATOM                 0.000000000     9.906395331     0.000000000 partial forces
