
:LABEL1: Calculations in /home/ykent/GWIEN/example/Pr/aU/V20/case
:LABEL2: on didymium-2.cmpgroup.ameslab.gov at Fri Jul 10 14:29:26 CDT 2020
:LABEL3: using WIEN2k_19.1 (Release 25/6/2019) in /home/ykent/opt/src/WIEN2k_19.1
:LABEL4: using the command: run_lapw -so -i 70 -cc 0.0001
 Flat Integration
 New Mode for Coulomb Integral
 Consistent 3/8+Simpson combinations
 Extension of core to zero
 LDM version in phi
 Fifth-order quadrature in outwin


            ---------
:ITE015: 15. ITERATION
            ---------

:NATO :    1 INDEPENDENT AND    2 TOTAL ATOMS IN UNITCELL
       SUBSTANCE: aU                                                          

       LATTICE                      = CXY 
:POT  : POTENTIAL OPTION EX_LDA EC_LDA VX_LDA VC_LDA
:LAT  : LATTICE CONSTANTS=  6.63103 13.45604 11.61688    1.571    1.571    1.571
:VOL  : UNIT CELL VOLUME =     518.27193
       MODE OF CALCULATION IS       = RELA
       NON-SPINPOLARIZED CALCULATION
:IFFT  : FFT-parameters:   54  108   96 Factor: 2.00


   CONVERGENCE PARAMETER FOR PSEUDOCHARGE: NCON=  9
   MAXIMAL VALUE OF RMT(JATOM)*ABSK(NKK) : RK  =27.59967


:VKCOUL :  VK-COUL convergence: 0.109E-06
       ATOMNUMBER=  1 Pr1        VCOUL-ZERO = -0.41973E-02
:EFG001:                        EFG         =    -7.10575   *10**21  V / m**2
                               V20  TOT/SRF=    -6.15376    -0.02103
                               V22  TOT/SRF=     0.11505     0.00105
                               V22M TOT/SRF=     0.00000     0.00000
                               V21  TOT/SRF=     0.00000     0.00000
                               V21M TOT/SRF=     0.00000     0.00000

              3.66793    0.00000    0.00000        3.66793    0.00000    0.00000
              0.00000    3.43782    0.00000        0.00000    3.43782    0.00000
              0.00000    0.00000   -7.10575        0.00000    0.00000   -7.10575

         MAIN DIRECTIONS OF THE EFG   1.0000  0.0000  0.0000
                                      0.0000  1.0000  0.0000
                                      0.0000  0.0000  1.0000
:ANG001:  ANGLE WITH OLD X-AXIS =         0.0

:ETA001:                         ASYMM. ETA =     0.03238


     HELLMANN-FEYNMAN-FORCE IN mRy/a.u. = |F|  Fx       Fy             Fz
:FHF001:   1.ATOM   1231.364195051432      0.000000000000      0.000000000000  -1231.364195051432

:FIT001: LUSE= 13 SIGMA OF V-XC FIT FOR ATOM  1  0.5799907E-04
:FIT001: LUSE= 13 SIGMA OF V-XC FIT FOR ATOM  1  0.5799907E-04
:DEN  : DENSITY INTEGRAL  =        -14141.17647121   (Ry)
       ELS_POTENTIAL_AT Z=0 and Z=0.5:   0.68082   0.68082
       ELS_POTENTIAL_AT Y=0 and Y=0.5:   0.07959   0.07959
:VZERO:v0,v0c,v0x   0.12577   0.68082  -0.55505 v5,v5c,v5x   0.12577   0.68082  -0.55505
:VZERY:v0,v0c,v0x  -0.66454   0.07959  -0.74414 v5,v5c,v5x  -0.66454   0.07959  -0.74414
:VZERX:v0,v0c,v0x  -1.08675  -0.37045  -0.71630 v5,v5c,v5x  -1.08675  -0.37045  -0.71630
:LMAX-WF:   10   Non-Spherical LMAX:   4

          ATOMIC SPHERE DEPENDENT PARAMETERS FOR ATOM  Pr1       
:e__0001: OVERALL ENERGY PARAMETER IS    0.3670
          OVERALL BASIS SET ON ATOM IS LAPW
:E0_0001: E( 0)=    0.3670
             APW+lo
:E0_0001: E( 0)=   -2.1090   E(BOTTOM)=   -2.745   E(TOP)=   -1.473  4  5   172
             LOCAL ORBITAL
:E1_0001: E( 1)=    0.7670
             APW+lo
:E1_0001: E( 1)=   -0.6395   E(BOTTOM)=   -1.598   E(TOP)=    0.319  3  4   198
             LOCAL ORBITAL
:E3_0001: E( 3)=    0.5485   E(BOTTOM)=    0.340   E(TOP)=    0.757  0  1   124
             APW+lo
:E2_0001: E( 2)=    0.3670   E(BOTTOM)=    0.143   E(TOP)= -200.000  2 -1    97
             APW+lo

       K=   0.06250   0.00000   0.06250            1
:RKM  : MATRIX SIZE   473LOs:  40  RKM= 8.48  WEIGHT= 4.00  PGR:    
       EIGENVALUES ARE:
:EIG00001:      -2.0763232   -2.0658746   -0.7927432   -0.7322889   -0.7184357
:EIG00006:      -0.7129481   -0.7073121   -0.7072011    0.3330633    0.4751963
:EIG00011:       0.5624589    0.5633394    0.5637715    0.5655635    0.5687397
:EIG00016:       0.5774410    0.5807473    0.5812475    0.5835616    0.5857278
:EIG00021:       0.5886565    0.5924969    0.5932238    0.5974936    0.6323303
:EIG00026:       0.6457997    0.7134144    0.7332620    0.7481090    0.7860763
:EIG00031:       0.8018981    0.8766833    0.9207034    0.9598118    1.2256520
:EIG00036:       1.2574206    1.3453789    1.3473194    1.4969756    1.5497524
:EIG00041:       1.5967775    1.6990526    1.7643795    1.7838263    1.8671757
:EIG00046:       1.9335357    1.9430327    1.9897378    2.0520784    2.1350954
 
:EIG00051:       2.1840780    2.2393054    2.2538496    2.3153362    2.3395989
:EIG00056:       2.4206290    2.4665427    2.4711743    2.5686149    2.6122814
:EIG00061:       2.6786439    2.6969391    2.8245529    2.9124254    2.9134817
:EIG00066:       3.0103941    3.0644829    3.0746282    3.0806678    3.1691138
:EIG00071:       3.1697181    3.2200338    3.2450301    3.2882395    3.3041953
:EIG00076:       3.3437386    3.3811511    3.4159904    3.4428817    3.4665810
:EIG00081:       3.5041184    3.5444114    3.5552866    3.6077320    3.6490304
:EIG00086:       3.6772442    3.7576088    3.7613164    3.7941114    3.8062094
:EIG00091:       3.8395479    3.8628188    3.9071818    3.9118888    3.9204716
:EIG00096:       3.9764738    4.0080299    4.0097462    4.0245858    4.1048677
 
:EIG00101:       4.1671978    4.2926588    4.2997273    4.3564223    4.3951987
:EIG00106:       4.4040940    4.4452757    4.4493253    4.4967818    4.5276940
:EIG00111:       4.6091777    4.6114216    4.6474226    4.6583540    4.7123351
:EIG00116:       4.7594924    4.8351801    4.8528640    4.8747513    4.9020334
:EIG00121:       4.9208571    5.0116160    5.0338002    5.0634626    5.1090324
:EIG00126:       5.1919462    5.1985859    5.2391044    5.2848328    5.3125281
:EIG00131:       5.3226431    5.3837005    5.4154901    5.4221246    5.4423071
:EIG00136:       5.5058834    5.5478869    5.5951357    5.6104172    5.6385338
:EIG00141:       5.6530785    5.6618003    5.7094165    5.7535966    5.7897908
:EIG00146:       5.8005315    5.8135773    5.8136305    5.8308551    5.9239425
 
:EIG00151:       5.9536960    5.9637519    6.0463217    6.0648153    6.1041731
:EIG00156:       6.2051061    6.2893921    6.3169642    6.3533942    6.3565504
:EIG00161:       6.4138576    6.4643170    6.5097173    6.5213538    6.5284913
:EIG00166:       6.5998286    6.6214750    6.6307149    6.6630261    6.6988402
:EIG00171:       6.7162198    6.7779185    6.8140256    6.8179592    6.8783696
:EIG00176:       6.8908986    6.9096342    6.9598176    6.9622306    7.0002759
:EIG00181:       7.0639209    7.0771582    7.0849529    7.1044936    7.1548696
:EIG00186:       7.1679289    7.1737896    7.2681545    7.2829186    7.2859882
:EIG00191:       7.3292470    7.3453301    7.3994638    7.4072574    7.4398243
:EIG00196:       7.4452431    7.4615516    7.4888676    7.4979182    7.5451457
 
:EIG00201:       7.5505602    7.6089891    7.6188031    7.6378590    7.7024388
:EIG00206:       7.7030977    7.7155123    7.7697468    7.8022049    7.8226827
:EIG00211:       7.8327938    7.8819709    7.8908119    7.9030458    7.9122220
:EIG00216:       7.9557276    7.9640852    7.9660501    7.9874870    8.0271025
:EIG00221:       8.0470319
       ********************************************************

:KPT   :      NUMBER OF K-POINTS:   288
   0.0   0.0 angle (M,z), angle (M,x) deg
 
        SPIN-ORBIT EIGENVALUES:
     K=   0.06250   0.00000   0.06250            1
      MATRIX SIZE=  442   WEIGHT= 4.00
     EIGENVALUES ARE:
          -2.0763232   -2.0763232   -2.0658746   -2.0658746   -0.8902052
          -0.8902052   -0.8599424   -0.8599424   -0.7025749   -0.7025749
          -0.6503477   -0.6503477   -0.6477974   -0.6477974   -0.6407490
          -0.6407490    0.3330926    0.3330926    0.4750685    0.4750685
           0.5552493    0.5552493    0.5572689    0.5572689    0.5576807
           0.5576807    0.5591132    0.5591132    0.5617484    0.5617484
           0.5645928    0.5645928    0.5814477    0.5814477    0.5873638
           0.5873638    0.5904684    0.5904684    0.5913812    0.5913812

           0.5952883    0.5952883    0.5983455    0.5983455    0.5991036
           0.5991036    0.6031623    0.6031623    0.6329864    0.6329864
           0.6457084    0.6457084    0.7130029    0.7130031    0.7322904
           0.7322904    0.7491759    0.7491760    0.7865979    0.7865979
           0.8019040    0.8019040    0.8765004    0.8765005    0.9210004
           0.9210004    0.9599415    0.9599415    1.2256000    1.2256000
           1.2576787    1.2576787    1.3452796    1.3452796    1.3474272
           1.3474272    1.4965226    1.4965226    1.5491365    1.5491365

           1.5967247    1.5967247    1.6970801    1.6970801    1.7632746
           1.7632746    1.7848437    1.7848437    1.8677106    1.8677106
           1.9328799    1.9328799    1.9409501    1.9409501    1.9910816
           1.9910816    2.0526374    2.0526374    2.1346102    2.1346102
           2.1837302    2.1837302    2.2364214    2.2364214    2.2559365
           2.2559365    2.3162855    2.3162855    2.3407671    2.3407671
           2.4205894    2.4205894    2.4648674    2.4648674    2.4732670
           2.4732670    2.5686618    2.5686618    2.6120148    2.6120148

           2.6818569    2.6818569    2.6973675    2.6973675    2.8244644
           2.8244644    2.9121309    2.9121309    2.9139954    2.9139954
           3.0102263    3.0102263    3.0642599    3.0642599    3.0750269
           3.0750269    3.0805969    3.0805969    3.1688822    3.1688822
           3.1702196    3.1702196    3.2200652    3.2200652    3.2450840
           3.2450840    3.2876002    3.2876002    3.3050673    3.3050673
           3.3439072    3.3439072    3.3824911    3.3824911    3.4160671
           3.4160671    3.4429330    3.4429330    3.4669704    3.4669704

           3.5043126    3.5043126    3.5444287    3.5444287    3.5554458
           3.5554458    3.6078843    3.6078843    3.6490721    3.6490721
           3.6773555    3.6773555    3.7577136    3.7577136    3.7613160
           3.7613160    3.7941051    3.7941051    3.8062659    3.8062659
           3.8395659    3.8395659    3.8628675    3.8628675    3.9070595
           3.9070595    3.9117217    3.9117217    3.9205199    3.9205199
           3.9764884    3.9764884    4.0066812    4.0066812    4.0112162
           4.0112162    4.0246722    4.0246722    4.1049147    4.1049147

           4.1670294    4.1670294    4.2907441    4.2907441    4.3008849
           4.3008849    4.3572959    4.3572959    4.3951262    4.3951262
           4.4043911    4.4043911    4.4449105    4.4449105    4.4505620
           4.4505620    4.4970090    4.4970090
       ********************************************************
:GAP (global)   :    0.0    Ry =     0.0   eV (metal)
:GAP (this spin):    0.0    Ry =     0.0   eV (metal)
         Bandranges (emin - emax) and occupancy:
:BAN00018:  18    0.328504    0.536899  1.00000000
:BAN00019:  19    0.434900    0.545392  1.00000000
:BAN00020:  20    0.434900    0.545392  1.00000000
:BAN00021:  21    0.512378    0.555830  1.00000000
:BAN00022:  22    0.512378    0.555830  1.00000000
:BAN00023:  23    0.545237    0.558888  1.00000000
:BAN00024:  24    0.545237    0.558888  1.00000000
:BAN00025:  25    0.551469    0.564614  0.80283800
:BAN00026:  26    0.551469    0.564614  0.80283775
:BAN00027:  27    0.557522    0.564995  0.19716227
:BAN00028:  28    0.557522    0.564995  0.19716197
:BAN00029:  29    0.560795    0.569406  0.00000000
:BAN00030:  30    0.560795    0.569406  0.00000000
:BAN00031:  31    0.563243    0.573558  0.00000000
:BAN00032:  32    0.563243    0.573558  0.00000000
:BAN00033:  33    0.566587    0.581794  0.00000000
        Energy to separate low and high energystates:    0.27850


:NOE  : NUMBER OF ELECTRONS          =   26.000

:FER  : F E R M I - ENERGY(TETRAH.M.)=   0.5601652294
:GMA  : POTENTIAL AND CHARGE CUT-OFF  12.00 Ry**.5

:POS001: ATOM   -1 X,Y,Z = 0.00000 0.89750 0.25000  MULT= 2  ZZ= 59.000  Pr1       

       LMMAX 16
       LM=   0 0  1 0  2 0  2 2  3 0  3 2  4 0  4 2  4 4  5 0  5 2  5 4  6 0  6 2  6 4  6 6

:CHA001: TOTAL VALENCE CHARGE INSIDE SPHERE   1 =   9.6422    (RMT=  2.3000 )
:PCS001: PARTIAL CHARGES SPHERE =  1 S,P,D,F,PX,PY,PZ,D-Z2,D-X2Y2,D-XY,D-XZ,D-YZ 
:QTL001: 1.9385 5.0145 0.4304 2.2586 1.6691 1.6690 1.6763 0.0775 0.0768 0.1004 0.0816 0.0941
        Q-s-low E-s-low   Q-p-low E-p-low   Q-d-low E-d-low   Q-f-low E-f-low
:EPL001:  1.8697 -2.0661    4.9572 -0.7484    0.0011 -0.7386    0.0003 -0.7471
        Q-s-hi  E-s-hi    Q-p-hi  E-p-hi    Q-d-hi  E-d-hi    Q-f-hi  E-f-hi 
:EPH001:  0.0688  0.4658    0.0573  0.5011    0.4293  0.5180    2.2583  0.5506

                      VXX         VYY         VZZ       UP TO R
:VZZ001:             3.67682     1.31691    -4.99373       2.300

:CHA  : TOTAL VALENCE CHARGE INSIDE UNIT CELL =      26.000000

:SUM  : SUM OF EIGENVALUES =         -11.970774645


        1.ATOM      Pr1                  14 CORE STATES
       CORE-FORCE in mRy/a.u. = |F|      Fx             Fy             Fz
:FCO001:   1.ATOM   1202.056756427004      0.000000000000      0.000000000000   1202.056756427004

:1S 001: 1S               -3067.040111224 Ry
:2S 001: 2S                -492.791288515 Ry
:2PP001: 2P*               -465.890862687 Ry
:2P 001: 2P                -430.493210556 Ry
:3S 001: 3S                -105.877151070 Ry
:3PP001: 3P*                -94.415209334 Ry
:3P 001: 3P                 -87.407178039 Ry
:3DD001: 3D*                -67.334803410 Ry
:3D 001: 3D                 -65.823164898 Ry
:4S 001: 4S                 -20.553695911 Ry
:4PP001: 4P*                -16.260666630 Ry
:4P 001: 4P                 -14.733468461 Ry
:4DD001: 4D*                 -7.666919300 Ry
:4D 001: 4D                  -7.397593600 Ry
:CINT001 Core Integral Atom   1   45.998486

       DENSITY AT NUCLEUS
        JATOM        VALENCE       SEMI-CORE          CORE           TOTAL
:RTO001:   1      646.597377        0.000000   656825.031564   657471.628941
     
       CHARGES OF NEW CHARGE DENSITY
:NTO   : INTERSTITIAL CHARGE =     6.715667
:NPC   : PW Pseudocharge     =    16.783300
:NTO001: CHARGE SPHERE  1    =    55.640652

:NEC01: NUCLEAR AND ELECTRONIC CHARGE    118.00000   117.99697
     
       CHARGES OF OLD CHARGE DENSITY
:OTO   : INTERSTITIAL CHARGE =     7.001746
:OPC   : PW Pseudocharge     =    16.869410
:OTO001: CHARGE SPHERE  1    =    55.499127

:NEC02: NUCLEAR AND ELECTRONIC CHARGE    118.00000   118.00000
     
       CONVERGENCE TEST
:DTO001: DIFFERENCE IN SPHERE  1 =  0.2353313

:DIS  :  CHARGE DISTANCE       ( 0.2353313 for atom    1 spin 1)      0.2353313
 PW Mixed is          533
 
******************************************************
* MULTISECANT MIXING VER9 RELEASE 10.4.0              *
* Standard Mode with controls                        *
* Fixed density scale                                *
* Regularization       1.000E-04                     *
* Trust Upper Limit    5.000E+00                     *
* Max Number of Memory Steps    8                    *
******************************************************
 
:PWTMP   4.1634E+02  1.9467E+02  5.1827E+02
:PLANE:  PW TOTAL      4.4559 DISTAN   3.65E-02  8.19E-01 %
:CHARG:  CLM/ATOM   1381.9428 DISTAN   3.81E-01  2.76E-02 %
 
Step History
        DMIX         DMIXT        Red     Pred      Trust     Lambda    MagRel    MagAbs     Beta
  1   3.5000E-02   3.5000E-02 -1.00E+00  1.00E+00 -1.00E+01  1.00E+00  3.50E-02  3.50E-02  1.00E+00
:INFO :  Note, Pratt in use
:TRUST:  Step 3.75E-02  Charge 7.50E-02 (e) CTO  2.50E-01 (e) PW  3.50E-01 (e)
:DIRM :  MEMORY  0/ 8 SCALE   1.000
Performing Pseudo Compensation
Final Pseudo Compensation Rescaling     1.00000E+00
:MIX  :   PRATT  REGULARIZATION:  1.00E-04 GREED: 0.02500                  
     
       CHARGES OF MIXED CHARGE DENSITY
:CTO   : INTERSTITIAL CHARGE =     6.994670
:CPC   : PW Pseudocharge     =    16.853094
:CTO001: CHARGE SPHERE  1    =    55.502665

:NEC03: NUCLEAR AND ELECTRONIC CHARGE    118.00000   118.00000

PW CHANGE     H    K    L      Current       Change    Residue
:PTO001:      0    0    0  4.60139985E-02 -4.513E-05 -6.977E-04
:PTO003:      0    2    0  1.31941046E-02 -8.557E-06  4.546E-05
:PTO004:     -1    1    0  6.53538840E-02 -5.278E-05 -1.954E-04
:PTO005:      0    2   -1 -7.62368695E-02  5.302E-05 -1.096E-04
:PTO006:      0    0   -2 -3.94410358E-02  2.993E-05  4.005E-05
:PTO007:     -1    1   -1 -8.33203877E-02  5.805E-05 -4.929E-05
:PTO008:      0    2   -2 -1.39152056E-02  8.973E-06  2.517E-05
:PTO009:     -1    1   -2 -7.24945735E-02  3.692E-05 -2.827E-05
:PTO011:     -1    3    0 -1.21207391E-02  6.172E-06  9.673E-05
:PTO012:     -1    3   -1 -5.50314375E-02  8.143E-06 -5.489E-05
:PTO013:      0    4    0 -1.02581419E-02 -1.305E-06 -4.387E-05
:PTO014:      0    2   -3  2.34647983E-02  7.211E-07  2.095E-07

:ENE  : ********** TOTAL ENERGY IN Ry =       -36944.19692744

       TOTAL FORCE IN mRy/a.u. = |F|     Fx             Fy             Fz     with/without FOR in case.in2
:FOR001:   1.ATOM         29.307          0.000          0.000        -29.307 partial forces
       TOTAL FORCE WITH RESPECT TO GLOBAL CARTESIAN COORDINATES:
:FCA001:   1.ATOM                         0.000        -29.307          0.000 partial forces
       TOTAL FORCE WITH RESPECT TO THE GLOBAL COORDINATE SYSTEM:
:FGL001:   1.ATOM                 0.000000000   -29.307438624     0.000000000 partial forces
 Flat Integration
 New Mode for Coulomb Integral
 Consistent 3/8+Simpson combinations
 Extension of core to zero
 LDM version in phi
 Fifth-order quadrature in outwin


            ---------
:ITE016: 16. ITERATION
            ---------

:NATO :    1 INDEPENDENT AND    2 TOTAL ATOMS IN UNITCELL
       SUBSTANCE: aU                                                          

       LATTICE                      = CXY 
:POT  : POTENTIAL OPTION EX_LDA EC_LDA VX_LDA VC_LDA
:LAT  : LATTICE CONSTANTS=  6.63103 13.45604 11.61688    1.571    1.571    1.571
:VOL  : UNIT CELL VOLUME =     518.27193
       MODE OF CALCULATION IS       = RELA
       NON-SPINPOLARIZED CALCULATION
:IFFT  : FFT-parameters:   54  108   96 Factor: 2.00


   CONVERGENCE PARAMETER FOR PSEUDOCHARGE: NCON=  9
   MAXIMAL VALUE OF RMT(JATOM)*ABSK(NKK) : RK  =27.59967


:VKCOUL :  VK-COUL convergence: 0.108E-06
       ATOMNUMBER=  1 Pr1        VCOUL-ZERO = -0.41887E-02
:EFG001:                        EFG         =    -7.05338   *10**21  V / m**2
                               V20  TOT/SRF=    -6.10841    -0.02076
                               V22  TOT/SRF=     0.14179     0.00124
                               V22M TOT/SRF=     0.00000     0.00000
                               V21  TOT/SRF=     0.00000     0.00000
                               V21M TOT/SRF=     0.00000     0.00000

              3.66849    0.00000    0.00000        3.66849    0.00000    0.00000
              0.00000    3.38490    0.00000        0.00000    3.38490    0.00000
              0.00000    0.00000   -7.05338        0.00000    0.00000   -7.05338

         MAIN DIRECTIONS OF THE EFG   1.0000  0.0000  0.0000
                                      0.0000  1.0000  0.0000
                                      0.0000  0.0000  1.0000
:ANG001:  ANGLE WITH OLD X-AXIS =         0.0

:ETA001:                         ASYMM. ETA =     0.04021


     HELLMANN-FEYNMAN-FORCE IN mRy/a.u. = |F|  Fx       Fy             Fz
:FHF001:   1.ATOM   1231.186508950511      0.000000000000      0.000000000000  -1231.186508950511

:FIT001: LUSE= 13 SIGMA OF V-XC FIT FOR ATOM  1  0.5747744E-04
:FIT001: LUSE= 13 SIGMA OF V-XC FIT FOR ATOM  1  0.5747744E-04
:DEN  : DENSITY INTEGRAL  =        -14141.88368741   (Ry)
       ELS_POTENTIAL_AT Z=0 and Z=0.5:   0.68001   0.68001
       ELS_POTENTIAL_AT Y=0 and Y=0.5:   0.07952   0.07952
:VZERO:v0,v0c,v0x   0.12517   0.68001  -0.55484 v5,v5c,v5x   0.12517   0.68001  -0.55484
:VZERY:v0,v0c,v0x  -0.66436   0.07952  -0.74389 v5,v5c,v5x  -0.66436   0.07952  -0.74389
:VZERX:v0,v0c,v0x  -1.08608  -0.37002  -0.71606 v5,v5c,v5x  -1.08608  -0.37002  -0.71606
:LMAX-WF:   10   Non-Spherical LMAX:   4

          ATOMIC SPHERE DEPENDENT PARAMETERS FOR ATOM  Pr1       
:e__0001: OVERALL ENERGY PARAMETER IS    0.3624
          OVERALL BASIS SET ON ATOM IS LAPW
:E0_0001: E( 0)=    0.3624
             APW+lo
:E0_0001: E( 0)=   -2.1066   E(BOTTOM)=   -2.743   E(TOP)=   -1.470  4  5   174
             LOCAL ORBITAL
:E1_0001: E( 1)=    0.7624
             APW+lo
:E1_0001: E( 1)=   -0.6374   E(BOTTOM)=   -1.596   E(TOP)=    0.321  3  4   194
             LOCAL ORBITAL
:E3_0001: E( 3)=    0.5528   E(BOTTOM)=    0.343   E(TOP)=    0.762  0  1   126
             APW+lo
:E2_0001: E( 2)=    0.3624   E(BOTTOM)=    0.144   E(TOP)= -200.000  2 -1    93
             APW+lo

       K=   0.06250   0.00000   0.06250            1
:RKM  : MATRIX SIZE   473LOs:  40  RKM= 8.48  WEIGHT= 4.00  PGR:    
       EIGENVALUES ARE:
:EIG00001:      -2.0740694   -2.0635877   -0.7912625   -0.7306725   -0.7167833
:EIG00006:      -0.7111302   -0.7054795   -0.7054775    0.3328704    0.4752172
:EIG00011:       0.5661606    0.5671856    0.5676123    0.5694301    0.5724627
:EIG00016:       0.5816686    0.5849653    0.5854968    0.5878219    0.5897978
:EIG00021:       0.5929712    0.5967427    0.5974064    0.6017172    0.6336441
:EIG00026:       0.6465787    0.7140268    0.7337092    0.7485409    0.7865558
:EIG00031:       0.8024504    0.8772832    0.9214356    0.9605790    1.2262638
:EIG00036:       1.2575538    1.3455086    1.3473332    1.4969559    1.5496966
:EIG00041:       1.5968716    1.6991612    1.7645628    1.7839991    1.8675556
:EIG00046:       1.9336935    1.9429970    1.9899194    2.0521593    2.1354266
 
:EIG00051:       2.1842603    2.2394120    2.2539451    2.3156393    2.3399018
:EIG00056:       2.4206692    2.4664662    2.4717581    2.5687602    2.6125453
:EIG00061:       2.6790152    2.6969270    2.8248077    2.9125478    2.9132774
:EIG00066:       3.0104166    3.0646518    3.0746640    3.0809857    3.1690650
:EIG00071:       3.1694603    3.2199542    3.2450019    3.2882804    3.3041629
:EIG00076:       3.3438977    3.3810337    3.4160058    3.4427651    3.4666234
:EIG00081:       3.5040401    3.5441500    3.5551544    3.6078091    3.6488436
:EIG00086:       3.6769612    3.7574311    3.7609683    3.7938498    3.8061931
:EIG00091:       3.8392779    3.8627122    3.9069034    3.9119965    3.9206046
:EIG00096:       3.9762214    4.0077663    4.0096754    4.0243080    4.1045696
 
:EIG00101:       4.1671997    4.2925036    4.2997586    4.3562888    4.3949778
:EIG00106:       4.4039010    4.4450880    4.4491463    4.4966532    4.5274550
:EIG00111:       4.6088506    4.6115223    4.6469990    4.6584346    4.7122433
:EIG00116:       4.7595664    4.8353594    4.8525885    4.8749816    4.9023078
:EIG00121:       4.9207947    5.0114889    5.0340008    5.0633194    5.1089115
:EIG00126:       5.1918953    5.1987509    5.2390508    5.2847312    5.3126060
:EIG00131:       5.3224084    5.3835465    5.4154126    5.4219700    5.4422892
:EIG00136:       5.5057179    5.5477499    5.5949039    5.6103845    5.6384716
:EIG00141:       5.6530438    5.6619506    5.7093289    5.7532645    5.7902182
:EIG00146:       5.8003576    5.8133172    5.8133304    5.8308086    5.9236812
 
:EIG00151:       5.9539145    5.9634602    6.0461981    6.0645316    6.1042625
:EIG00156:       6.2048738    6.2892594    6.3168412    6.3534948    6.3563456
:EIG00161:       6.4139766    6.4640739    6.5096108    6.5213993    6.5286080
:EIG00166:       6.5998227    6.6213368    6.6306406    6.6629070    6.6989067
:EIG00171:       6.7163282    6.7779548    6.8140734    6.8181082    6.8784325
:EIG00176:       6.8912521    6.9097176    6.9601188    6.9622029    7.0003860
:EIG00181:       7.0640139    7.0770346    7.0850870    7.1042871    7.1547194
:EIG00186:       7.1677238    7.1740210    7.2681588    7.2830428    7.2860370
:EIG00191:       7.3291033    7.3452394    7.3994500    7.4071166    7.4396800
:EIG00196:       7.4452217    7.4614039    7.4888726    7.4978307    7.5452136
 
:EIG00201:       7.5503332    7.6087993    7.6185226    7.6379186    7.7025805
:EIG00206:       7.7030983    7.7155429    7.7696165    7.8021375    7.8225962
:EIG00211:       7.8326946    7.8819015    7.8907319    7.9030459    7.9121507
:EIG00216:       7.9555659    7.9640987    7.9660073    7.9873377    8.0268164
:EIG00221:       8.0467528
       ********************************************************

:KPT   :      NUMBER OF K-POINTS:   288
   0.0   0.0 angle (M,z), angle (M,x) deg
 
        SPIN-ORBIT EIGENVALUES:
     K=   0.06250   0.00000   0.06250            1
      MATRIX SIZE=  442   WEIGHT= 4.00
     EIGENVALUES ARE:
          -2.0740694   -2.0740694   -2.0635878   -2.0635878   -0.8884769
          -0.8884769   -0.8580942   -0.8580942   -0.7010650   -0.7010650
          -0.6486587   -0.6486587   -0.6461348   -0.6461348   -0.6390560
          -0.6390560    0.3328998    0.3328998    0.4750940    0.4750940
           0.5591091    0.5591091    0.5612458    0.5612458    0.5616745
           0.5616745    0.5630897    0.5630897    0.5657654    0.5657654
           0.5688717    0.5688717    0.5851065    0.5851065    0.5914770
           0.5914770    0.5946182    0.5946182    0.5955237    0.5955237

           0.5993580    0.5993580    0.6024428    0.6024428    0.6032868
           0.6032868    0.6073637    0.6073637    0.6344491    0.6344491
           0.6465498    0.6465498    0.7136662    0.7136663    0.7327265
           0.7327266    0.7496079    0.7496080    0.7870754    0.7870754
           0.8024573    0.8024573    0.8771017    0.8771017    0.9217308
           0.9217308    0.9607076    0.9607076    1.2262099    1.2262099
           1.2578136    1.2578136    1.3454038    1.3454038    1.3474474
           1.3474474    1.4965045    1.4965045    1.5490818    1.5490818

           1.5968189    1.5968189    1.6971941    1.6971941    1.7634543
           1.7634543    1.7850147    1.7850147    1.8680879    1.8680879
           1.9330240    1.9330240    1.9409424    1.9409424    1.9912511
           1.9912511    2.0527252    2.0527252    2.1349386    2.1349386
           2.1839110    2.1839110    2.2365295    2.2365295    2.2560340
           2.2560340    2.3165660    2.3165660    2.3410795    2.3410795
           2.4206376    2.4206376    2.4649071    2.4649071    2.4737276
           2.4737276    2.5688102    2.5688102    2.6122818    2.6122818

           2.6822139    2.6822139    2.6973660    2.6973660    2.8247188
           2.8247188    2.9121626    2.9121626    2.9138814    2.9138814
           3.0102515    3.0102515    3.0644254    3.0644254    3.0750678
           3.0750678    3.0809087    3.0809087    3.1687600    3.1687600
           3.1700356    3.1700356    3.2199854    3.2199854    3.2450560
           3.2450560    3.2876367    3.2876367    3.3050399    3.3050399
           3.3440661    3.3440661    3.3823745    3.3823745    3.4160825
           3.4160825    3.4428184    3.4428184    3.4670104    3.4670104

           3.5042337    3.5042337    3.5441674    3.5441674    3.5553148
           3.5553148    3.6079608    3.6079608    3.6488855    3.6488855
           3.6770724    3.6770724    3.7575353    3.7575353    3.7609688
           3.7609688    3.7938437    3.7938437    3.8062495    3.8062495
           3.8392961    3.8392961    3.8627611    3.8627611    3.9067920
           3.9067920    3.9118183    3.9118183    3.9206510    3.9206510
           3.9762364    3.9762364    4.0064764    4.0064764    4.0110880
           4.0110880    4.0243954    4.0243954    4.1046169    4.1046169

           4.1670311    4.1670311    4.2906215    4.2906215    4.3008777
           4.3008777    4.3571646    4.3571646    4.3949091    4.3949091
           4.4041974    4.4041974    4.4447197    4.4447197    4.4503838
           4.4503838    4.4968812    4.4968812
       ********************************************************
:GAP (global)   :    0.0    Ry =     0.0   eV (metal)
:GAP (this spin):    0.0    Ry =     0.0   eV (metal)
         Bandranges (emin - emax) and occupancy:
:BAN00018:  18    0.328307    0.538217  1.00000000
:BAN00019:  19    0.434799    0.547808  1.00000000
:BAN00020:  20    0.434799    0.547808  1.00000000
:BAN00021:  21    0.512816    0.559109  1.00000000
:BAN00022:  22    0.512816    0.559109  1.00000000
:BAN00023:  23    0.547323    0.562629  1.00000000
:BAN00024:  24    0.547323    0.562629  1.00000000
:BAN00025:  25    0.554744    0.568826  0.80655624
:BAN00026:  26    0.554744    0.568826  0.80655601
:BAN00027:  27    0.561247    0.569241  0.19344401
:BAN00028:  28    0.561247    0.569241  0.19344374
:BAN00029:  29    0.564827    0.572661  0.00000000
:BAN00030:  30    0.564827    0.572661  0.00000000
:BAN00031:  31    0.567366    0.577073  0.00000000
:BAN00032:  32    0.567366    0.577073  0.00000000
:BAN00033:  33    0.570740    0.585446  0.00000000
        Energy to separate low and high energystates:    0.27831


:NOE  : NUMBER OF ELECTRONS          =   26.000

:FER  : F E R M I - ENERGY(TETRAH.M.)=   0.5641011928
:GMA  : POTENTIAL AND CHARGE CUT-OFF  12.00 Ry**.5

:POS001: ATOM   -1 X,Y,Z = 0.00000 0.89750 0.25000  MULT= 2  ZZ= 59.000  Pr1       

       LMMAX 16
       LM=   0 0  1 0  2 0  2 2  3 0  3 2  4 0  4 2  4 4  5 0  5 2  5 4  6 0  6 2  6 4  6 6

:CHA001: TOTAL VALENCE CHARGE INSIDE SPHERE   1 =   9.5766    (RMT=  2.3000 )
:PCS001: PARTIAL CHARGES SPHERE =  1 S,P,D,F,PX,PY,PZ,D-Z2,D-X2Y2,D-XY,D-XZ,D-YZ 
:QTL001: 1.9389 5.0151 0.4503 2.1720 1.6691 1.6692 1.6769 0.0818 0.0811 0.1030 0.0856 0.0988
        Q-s-low E-s-low   Q-p-low E-p-low   Q-d-low E-d-low   Q-f-low E-f-low
:EPL001:  1.8695 -2.0638    4.9553 -0.7468    0.0011 -0.7369    0.0003 -0.7455
        Q-s-hi  E-s-hi    Q-p-hi  E-p-hi    Q-d-hi  E-d-hi    Q-f-hi  E-f-hi 
:EPH001:  0.0694  0.4665    0.0599  0.5036    0.4493  0.5204    2.1717  0.5540

                      VXX         VYY         VZZ       UP TO R
:VZZ001:             4.01168     2.02933    -6.04102       2.300

:CHA  : TOTAL VALENCE CHARGE INSIDE UNIT CELL =      26.000000

:SUM  : SUM OF EIGENVALUES =         -11.922410533


        1.ATOM      Pr1                  14 CORE STATES
       CORE-FORCE in mRy/a.u. = |F|      Fx             Fy             Fz
:FCO001:   1.ATOM   1201.892266544840      0.000000000000      0.000000000000   1201.892266544840

:1S 001: 1S               -3067.032012763 Ry
:2S 001: 2S                -492.783173486 Ry
:2PP001: 2P*               -465.882751301 Ry
:2P 001: 2P                -430.485098027 Ry
:3S 001: 3S                -105.869213368 Ry
:3PP001: 3P*                -94.407254782 Ry
:3P 001: 3P                 -87.399254830 Ry
:3DD001: 3D*                -67.326823235 Ry
:3D 001: 3D                 -65.815192434 Ry
:4S 001: 4S                 -20.547418759 Ry
:4PP001: 4P*                -16.254494254 Ry
:4P 001: 4P                 -14.727458068 Ry
:4DD001: 4D*                 -7.661197556 Ry
:4D 001: 4D                  -7.391927310 Ry
:CINT001 Core Integral Atom   1   45.998482

       DENSITY AT NUCLEUS
        JATOM        VALENCE       SEMI-CORE          CORE           TOTAL
:RTO001:   1      646.536566        0.000000   656824.688502   657471.225068
     
       CHARGES OF NEW CHARGE DENSITY
:NTO   : INTERSTITIAL CHARGE =     6.846869
:NPC   : PW Pseudocharge     =    16.815058
:NTO001: CHARGE SPHERE  1    =    55.575047

:NEC01: NUCLEAR AND ELECTRONIC CHARGE    118.00000   117.99696
     
       CHARGES OF OLD CHARGE DENSITY
:OTO   : INTERSTITIAL CHARGE =     6.994670
:OPC   : PW Pseudocharge     =    16.853094
:OTO001: CHARGE SPHERE  1    =    55.502665

:NEC02: NUCLEAR AND ELECTRONIC CHARGE    118.00000   118.00000
     
       CONVERGENCE TEST
:DTO001: DIFFERENCE IN SPHERE  1 =  0.1239638

:DIS  :  CHARGE DISTANCE       ( 0.1239638 for atom    1 spin 1)      0.1239638
 PW Mixed is          533
 
******************************************************
* MULTISECANT MIXING VER9 RELEASE 10.4.0              *
* Slow Mode, cautious                                *
* Fixed density scale                                *
* Regularization       1.000E-04                     *
* Step Trust Radius    0.75000                       *
* Trust Upper Limit    2.000E+00                     *
* Max Number of Memory Steps   12                    *
******************************************************
 
:PWTMP   4.1634E+02  1.9467E+02  5.1827E+02
:PLANE:  PW TOTAL      4.4529 DISTAN   1.88E-02  4.23E-01 %
:CHARG:  CLM/ATOM   1381.9433 DISTAN   2.40E-01  1.74E-02 %
 
Step History
        DMIX         DMIXT        Red     Pred      Trust     Lambda    MagRel    MagAbs     Beta
  1   3.5000E-02   3.5000E-02 -1.00E+00  1.00E+00 -1.00E+01  1.00E+00  3.50E-02  3.50E-02  1.00E+00
  2   2.5000E-02   2.5000E-02 -1.00E+00  1.00E+00 -1.00E+01  1.00E+00  2.50E-02  9.56E-03  1.00E+00
:JACOBIANS    1.169E-03   2.701E-02
  
:TRUST:  Step 2.98E-02  Charge 7.50E-02 (e) CTO  2.50E-01 (e) PW  3.50E-01 (e)
:DIRM :  MEMORY  1/12 SCALE   1.000
:MIX  :   PRATT  REGULARIZATION:  1.00E-04 GREED: 0.02979  Expand 1.19  0.0298                
     
       CHARGES OF MIXED CHARGE DENSITY
:CTO   : INTERSTITIAL CHARGE =     6.986300
:CPC   : PW Pseudocharge     =    16.833794
:CTO001: CHARGE SPHERE  1    =    55.506850

:NEC03: NUCLEAR AND ELECTRONIC CHARGE    118.00000   118.00000

PW CHANGE     H    K    L      Current       Change    Residue
:PTO001:      0    0    0  4.59606096E-02 -5.339E-05 -3.383E-04
:PTO003:      0    2    0  1.31839828E-02 -1.012E-05  3.462E-05
:PTO004:     -1    1    0  6.52914485E-02 -6.244E-05 -9.528E-05
:PTO005:      0    2   -1 -7.61741527E-02  6.272E-05 -1.279E-04
:PTO006:      0    0   -2 -3.94056285E-02  3.541E-05 -2.474E-06
:PTO007:     -1    1   -1 -8.32517189E-02  6.867E-05 -6.136E-05
:PTO008:      0    2   -2 -1.39045920E-02  1.061E-05  1.567E-05
:PTO009:     -1    1   -2 -7.24509072E-02  4.367E-05 -3.502E-05
:PTO011:     -1    3    0 -1.21134383E-02  7.301E-06  6.963E-05
:PTO012:     -1    3   -1 -5.50218069E-02  9.631E-06 -3.263E-05
:PTO013:      0    4    0 -1.02596858E-02 -1.544E-06 -2.187E-05
:PTO014:      0    2   -3  2.34656519E-02  8.533E-07 -5.409E-06

:ENE  : ********** TOTAL ENERGY IN Ry =       -36944.19546345

       TOTAL FORCE IN mRy/a.u. = |F|     Fx             Fy             Fz     with/without FOR in case.in2
:FOR001:   1.ATOM         29.294          0.000          0.000        -29.294 partial forces
       TOTAL FORCE WITH RESPECT TO GLOBAL CARTESIAN COORDINATES:
:FCA001:   1.ATOM                         0.000        -29.294          0.000 partial forces
       TOTAL FORCE WITH RESPECT TO THE GLOBAL COORDINATE SYSTEM:
:FGL001:   1.ATOM                 0.000000000   -29.294242406     0.000000000 partial forces
 Flat Integration
 New Mode for Coulomb Integral
 Consistent 3/8+Simpson combinations
 Extension of core to zero
 LDM version in phi
 Fifth-order quadrature in outwin


            ---------
:ITE017: 17. ITERATION
            ---------

:NATO :    1 INDEPENDENT AND    2 TOTAL ATOMS IN UNITCELL
       SUBSTANCE: aU                                                          

       LATTICE                      = CXY 
:POT  : POTENTIAL OPTION EX_LDA EC_LDA VX_LDA VC_LDA
:LAT  : LATTICE CONSTANTS=  6.63103 13.45604 11.61688    1.571    1.571    1.571
:VOL  : UNIT CELL VOLUME =     518.27193
       MODE OF CALCULATION IS       = RELA
       NON-SPINPOLARIZED CALCULATION
:IFFT  : FFT-parameters:   54  108   96 Factor: 2.00


   CONVERGENCE PARAMETER FOR PSEUDOCHARGE: NCON=  9
   MAXIMAL VALUE OF RMT(JATOM)*ABSK(NKK) : RK  =27.59967


:VKCOUL :  VK-COUL convergence: 0.107E-06
       ATOMNUMBER=  1 Pr1        VCOUL-ZERO = -0.41784E-02
:EFG001:                        EFG         =    -6.99144   *10**21  V / m**2
                               V20  TOT/SRF=    -6.05476    -0.02043
                               V22  TOT/SRF=     0.17343     0.00147
                               V22M TOT/SRF=     0.00000     0.00000
                               V21  TOT/SRF=     0.00000     0.00000
                               V21M TOT/SRF=     0.00000     0.00000

              3.66915    0.00000    0.00000        3.66915    0.00000    0.00000
              0.00000    3.32229    0.00000        0.00000    3.32229    0.00000
              0.00000    0.00000   -6.99144        0.00000    0.00000   -6.99144

         MAIN DIRECTIONS OF THE EFG   1.0000  0.0000  0.0000
                                      0.0000  1.0000  0.0000
                                      0.0000  0.0000  1.0000
:ANG001:  ANGLE WITH OLD X-AXIS =         0.0

:ETA001:                         ASYMM. ETA =     0.04961


     HELLMANN-FEYNMAN-FORCE IN mRy/a.u. = |F|  Fx       Fy             Fz
:FHF001:   1.ATOM   1230.973130691628      0.000000000000      0.000000000000  -1230.973130691628

:FIT001: LUSE= 13 SIGMA OF V-XC FIT FOR ATOM  1  0.5686371E-04
:FIT001: LUSE= 13 SIGMA OF V-XC FIT FOR ATOM  1  0.5686371E-04
:DEN  : DENSITY INTEGRAL  =        -14142.72032122   (Ry)
       ELS_POTENTIAL_AT Z=0 and Z=0.5:   0.67905   0.67905
       ELS_POTENTIAL_AT Y=0 and Y=0.5:   0.07944   0.07944
:VZERO:v0,v0c,v0x   0.12446   0.67905  -0.55459 v5,v5c,v5x   0.12446   0.67905  -0.55459
:VZERY:v0,v0c,v0x  -0.66415   0.07944  -0.74359 v5,v5c,v5x  -0.66415   0.07944  -0.74359
:VZERX:v0,v0c,v0x  -1.08529  -0.36951  -0.71578 v5,v5c,v5x  -1.08529  -0.36951  -0.71578
:LMAX-WF:   10   Non-Spherical LMAX:   4

          ATOMIC SPHERE DEPENDENT PARAMETERS FOR ATOM  Pr1       
:e__0001: OVERALL ENERGY PARAMETER IS    0.3635
          OVERALL BASIS SET ON ATOM IS LAPW
:E0_0001: E( 0)=    0.3635
             APW+lo
:E0_0001: E( 0)=   -2.1038   E(BOTTOM)=   -2.741   E(TOP)=   -1.467  4  5   169
             LOCAL ORBITAL
:E1_0001: E( 1)=    0.7635
             APW+lo
:E1_0001: E( 1)=   -0.6349   E(BOTTOM)=   -1.594   E(TOP)=    0.325  3  4   197
             LOCAL ORBITAL
:E3_0001: E( 3)=    0.5580   E(BOTTOM)=    0.348   E(TOP)=    0.768  0  1   120
             APW+lo
:E2_0001: E( 2)=    0.3635   E(BOTTOM)=    0.146   E(TOP)= -200.000  2 -1    92
             APW+lo

       K=   0.06250   0.00000   0.06250            1
:RKM  : MATRIX SIZE   473LOs:  40  RKM= 8.48  WEIGHT= 4.00  PGR:    
       EIGENVALUES ARE:
:EIG00001:      -2.0714047   -2.0608838   -0.7895132   -0.7287621   -0.7148301
:EIG00006:      -0.7089814   -0.7034444   -0.7033088    0.3326425    0.4752333
:EIG00011:       0.5704378    0.5716920    0.5721454    0.5739701    0.5768484
:EIG00016:       0.5866592    0.5899454    0.5905151    0.5928509    0.5946007
:EIG00021:       0.5980650    0.6017247    0.6022950    0.6067126    0.6353254
:EIG00026:       0.6475786    0.7147918    0.7342442    0.7490537    0.7871271
:EIG00031:       0.8031077    0.8779937    0.9223017    0.9614845    1.2269822
:EIG00036:       1.2577185    1.3456673    1.3473548    1.4969353    1.5496320
:EIG00041:       1.5969830    1.6992886    1.7647695    1.7841966    1.8679736
:EIG00046:       1.9338661    1.9429428    1.9901225    2.0522304    2.1357845
 
:EIG00051:       2.1844515    2.2395208    2.2540366    2.3159548    2.3402227
:EIG00056:       2.4207080    2.4663518    2.4723770    2.5689031    2.6128422
:EIG00061:       2.6794145    2.6968618    2.8250476    2.9126246    2.9130024
:EIG00066:       3.0104089    3.0648135    3.0746685    3.0813152    3.1689692
:EIG00071:       3.1691424    3.2198305    3.2449305    3.2883087    3.3041058
:EIG00076:       3.3440049    3.3808753    3.4159566    3.4426142    3.4666314
:EIG00081:       3.5039228    3.5438092    3.5549800    3.6078648    3.6485931
:EIG00086:       3.6765952    3.7571973    3.7605379    3.7935243    3.8060789
:EIG00091:       3.8389324    3.8625341    3.9065501    3.9120207    3.9206753
:EIG00096:       3.9758956    4.0074313    4.0095269    4.0239434    4.1041788
 
:EIG00101:       4.1671324    4.2922294    4.2997213    4.3560599    4.3946547
:EIG00106:       4.4036101    4.4447996    4.4489004    4.4964255    4.5271137
:EIG00111:       4.6084301    4.6115355    4.6464785    4.6584288    4.7121010
:EIG00116:       4.7595145    4.8353915    4.8522042    4.8750610    4.9024045
:EIG00121:       4.9206209    5.0112432    5.0339772    5.0630614    5.1086843
:EIG00126:       5.1917049    5.1987661    5.2389093    5.2845241    5.3125306
:EIG00131:       5.3220896    5.3833131    5.4152247    5.4216748    5.4421120
:EIG00136:       5.5054167    5.5474854    5.5945719    5.6101795    5.6382419
:EIG00141:       5.6528779    5.6618774    5.7091240    5.7528148    5.7903160
:EIG00146:       5.8000460    5.8129026    5.8129277    5.8305797    5.9233051
 
:EIG00151:       5.9538993    5.9630436    6.0459270    6.0641095    6.1041958
:EIG00156:       6.2045378    6.2890132    6.3165674    6.3534141    6.3559924
:EIG00161:       6.4139876    6.4636828    6.5093569    6.5212845    6.5285300
:EIG00166:       6.5996217    6.6210445    6.6304022    6.6626232    6.6986951
:EIG00171:       6.7162001    6.7777649    6.8139088    6.8180000    6.8782637
:EIG00176:       6.8913693    6.9095729    6.9601176    6.9620119    7.0002809
:EIG00181:       7.0638971    7.0767496    7.0849669    7.1039160    7.1544144
:EIG00186:       7.1673678    7.1739959    7.2679531    7.2829589    7.2858250
:EIG00191:       7.3287619    7.3449190    7.3992008    7.4068032    7.4393594
:EIG00196:       7.4449826    7.4610670    7.4886355    7.4975697    7.5450084
 
:EIG00201:       7.5499144    7.6084271    7.6180960    7.6377027    7.7024154
:EIG00206:       7.7028754    7.7153382    7.7692817    7.8018489    7.8223183
:EIG00211:       7.8323766    7.8816138    7.8904625    7.9027908    7.9118664
:EIG00216:       7.9552327    7.9638907    7.9657431    7.9870265    8.0263689
:EIG00221:       8.0463077
       ********************************************************

:KPT   :      NUMBER OF K-POINTS:   288
   0.0   0.0 angle (M,z), angle (M,x) deg
 
        SPIN-ORBIT EIGENVALUES:
     K=   0.06250   0.00000   0.06250            1
      MATRIX SIZE=  442   WEIGHT= 4.00
     EIGENVALUES ARE:
          -2.0714048   -2.0714048   -2.0608839   -2.0608839   -0.8864359
          -0.8864359   -0.8559108   -0.8559108   -0.6992807   -0.6992807
          -0.6466626   -0.6466626   -0.6441699   -0.6441699   -0.6370543
          -0.6370543    0.3326721    0.3326721    0.4751147    0.4751147
           0.5636097    0.5636097    0.5659263    0.5659263    0.5663804
           0.5663804    0.5677652    0.5677652    0.5704849    0.5704849
           0.5739270    0.5739270    0.5893690    0.5893690    0.5963193
           0.5963193    0.5995080    0.5995080    0.6004221    0.6004221

           0.6041266    0.6041266    0.6072302    0.6072302    0.6082095
           0.6082095    0.6123307    0.6123307    0.6363341    0.6363341
           0.6476419    0.6476419    0.7144942    0.7144943    0.7332481
           0.7332481    0.7501213    0.7501213    0.7876447    0.7876447
           0.8031158    0.8031158    0.8778134    0.8778135    0.9225949
           0.9225949    0.9616116    0.9616116    1.2269262    1.2269262
           1.2579803    1.2579803    1.3455549    1.3455549    1.3474776
           1.3474776    1.4964858    1.4964858    1.5490184    1.5490184

           1.5969302    1.5969302    1.6973275    1.6973275    1.7636570
           1.7636570    1.7852096    1.7852096    1.8685032    1.8685032
           1.9331797    1.9331797    1.9409209    1.9409209    1.9914397
           1.9914397    2.0528035    2.0528035    2.1352934    2.1352934
           2.1841011    2.1841011    2.2366377    2.2366377    2.2561287
           2.2561287    2.3168563    2.3168563    2.3414115    2.3414115
           2.4206850    2.4206850    2.4649051    2.4649051    2.4742260
           2.4742260    2.5689569    2.5689569    2.6125810    2.6125810

           2.6825959    2.6825959    2.6973146    2.6973146    2.8249580
           2.8249580    2.9121109    2.9121109    2.9137349    2.9137349
           3.0102464    3.0102464    3.0645824    3.0645824    3.0750783
           3.0750783    3.0812317    3.0812317    3.1685689    3.1685689
           3.1698137    3.1698137    3.2198613    3.2198613    3.2449849
           3.2449849    3.2876593    3.2876593    3.3049886    3.3049886
           3.3441733    3.3441733    3.3822170    3.3822170    3.4160332
           3.4160332    3.4426695    3.4426695    3.4670160    3.4670160

           3.5041159    3.5041159    3.5438267    3.5438267    3.5551419
           3.5551419    3.6080159    3.6080159    3.6486354    3.6486354
           3.6767063    3.6767063    3.7573006    3.7573006    3.7605395
           3.7605395    3.7935185    3.7935185    3.8061353    3.8061353
           3.8389507    3.8389507    3.8625833    3.8625833    3.9064479
           3.9064479    3.9118334    3.9118334    3.9207190    3.9207190
           3.9759108    3.9759108    4.0061951    4.0061951    4.0108872
           4.0108872    4.0240320    4.0240320    4.1042264    4.1042264

           4.1669629    4.1669629    4.2903885    4.2903885    4.3007913
           4.3007913    4.3569395    4.3569395    4.3945901    4.3945901
           4.4039051    4.4039051    4.4444350    4.4444350    4.4501326
           4.4501326    4.4966543    4.4966543
       ********************************************************
:GAP (global)   :    0.0    Ry =     0.0   eV (metal)
:GAP (this spin):    0.0    Ry =     0.0   eV (metal)
         Bandranges (emin - emax) and occupancy:
:BAN00018:  18    0.328076    0.539531  1.00000000
:BAN00019:  19    0.434678    0.550434  1.00000000
:BAN00020:  20    0.434678    0.550434  1.00000000
:BAN00021:  21    0.513272    0.563610  1.00000000
:BAN00022:  22    0.513272    0.563610  1.00000000
:BAN00023:  23    0.549565    0.566843  1.00000000
:BAN00024:  24    0.549565    0.566843  1.00000000
:BAN00025:  25    0.558503    0.573784  0.80946298
:BAN00026:  26    0.558503    0.573784  0.80946280
:BAN00027:  27    0.565657    0.574248  0.19053729
:BAN00028:  28    0.565657    0.574248  0.19053692
:BAN00029:  29    0.569568    0.576714  0.00000000
:BAN00030:  30    0.569568    0.576714  0.00000000
:BAN00031:  31    0.572244    0.581129  0.00000000
:BAN00032:  32    0.572244    0.581129  0.00000000
:BAN00033:  33    0.575660    0.589692  0.00000000
        Energy to separate low and high energystates:    0.27808


:NOE  : NUMBER OF ELECTRONS          =   26.000

:FER  : F E R M I - ENERGY(TETRAH.M.)=   0.5687227544
:GMA  : POTENTIAL AND CHARGE CUT-OFF  12.00 Ry**.5

:POS001: ATOM   -1 X,Y,Z = 0.00000 0.89750 0.25000  MULT= 2  ZZ= 59.000  Pr1       

       LMMAX 16
       LM=   0 0  1 0  2 0  2 2  3 0  3 2  4 0  4 2  4 4  5 0  5 2  5 4  6 0  6 2  6 4  6 6

:CHA001: TOTAL VALENCE CHARGE INSIDE SPHERE   1 =   9.5006    (RMT=  2.3000 )
:PCS001: PARTIAL CHARGES SPHERE =  1 S,P,D,F,PX,PY,PZ,D-Z2,D-X2Y2,D-XY,D-XZ,D-YZ 
:QTL001: 1.9393 5.0159 0.4736 2.0716 1.6691 1.6693 1.6775 0.0870 0.0864 0.1059 0.0902 0.1041
        Q-s-low E-s-low   Q-p-low E-p-low   Q-d-low E-d-low   Q-f-low E-f-low
:EPL001:  1.8692 -2.0611    4.9529 -0.7448    0.0011 -0.7349    0.0003 -0.7437
        Q-s-hi  E-s-hi    Q-p-hi  E-p-hi    Q-d-hi  E-d-hi    Q-f-hi  E-f-hi 
:EPH001:  0.0701  0.4674    0.0630  0.5066    0.4726  0.5232    2.0713  0.5580

                      VXX         VYY         VZZ       UP TO R
:VZZ001:             4.38545     2.82206    -7.20750       2.300

:CHA  : TOTAL VALENCE CHARGE INSIDE UNIT CELL =      26.000000

:SUM  : SUM OF EIGENVALUES =         -11.866255187


        1.ATOM      Pr1                  14 CORE STATES
       CORE-FORCE in mRy/a.u. = |F|      Fx             Fy             Fz
:FCO001:   1.ATOM   1201.695209791023      0.000000000000      0.000000000000   1201.695209791023

:1S 001: 1S               -3067.022433022 Ry
:2S 001: 2S                -492.773574147 Ry
:2PP001: 2P*               -465.873156270 Ry
:2P 001: 2P                -430.475501644 Ry
:3S 001: 3S                -105.859823788 Ry
:3PP001: 3P*                -94.397845272 Ry
:3P 001: 3P                 -87.389882394 Ry
:3DD001: 3D*                -67.317383414 Ry
:3D 001: 3D                 -65.805761736 Ry
:4S 001: 4S                 -20.539993586 Ry
:4PP001: 4P*                -16.247193069 Ry
:4P 001: 4P                 -14.720348530 Ry
:4DD001: 4D*                 -7.654429700 Ry
:4D 001: 4D                  -7.385225072 Ry
:CINT001 Core Integral Atom   1   45.998477

       DENSITY AT NUCLEUS
        JATOM        VALENCE       SEMI-CORE          CORE           TOTAL
:RTO001:   1      646.443351        0.000000   656824.282644   657470.725995
     
       CHARGES OF NEW CHARGE DENSITY
:NTO   : INTERSTITIAL CHARGE =     6.998884
:NPC   : PW Pseudocharge     =    16.852132
:NTO001: CHARGE SPHERE  1    =    55.499034

:NEC01: NUCLEAR AND ELECTRONIC CHARGE    118.00000   117.99695
     
       CHARGES OF OLD CHARGE DENSITY
:OTO   : INTERSTITIAL CHARGE =     6.986300
:OPC   : PW Pseudocharge     =    16.833794
:OTO001: CHARGE SPHERE  1    =    55.506850

:NEC02: NUCLEAR AND ELECTRONIC CHARGE    118.00000   118.00000
     
       CONVERGENCE TEST
:DTO001: DIFFERENCE IN SPHERE  1 =  0.0131989

:DIS  :  CHARGE DISTANCE       ( 0.0131989 for atom    1 spin 1)      0.0131989
 PW Mixed is          533
 
******************************************************
* MULTISECANT MIXING VER9 RELEASE 10.4.0              *
* Slow Mode, cautious                                *
* Fixed density scale                                *
* Regularization       1.000E-04                     *
* Step Trust Radius    0.75000                       *
* Trust Upper Limit    2.000E+00                     *
* Max Number of Memory Steps   12                    *
******************************************************
 
:PWTMP   4.1634E+02  1.9467E+02  5.1827E+02
:PLANE:  PW TOTAL      4.4495 DISTAN   1.00E-02  2.26E-01 %
:CHARG:  CLM/ATOM   1381.9438 DISTAN   1.48E-01  1.07E-02 %
 
Step History
        DMIX         DMIXT        Red     Pred      Trust     Lambda    MagRel    MagAbs     Beta
  1   3.5000E-02   3.5000E-02 -1.00E+00  1.00E+00 -1.00E+01  1.00E+00  3.50E-02  3.50E-02  1.00E+00
  2   2.5000E-02   2.5000E-02  6.29E-01  1.00E+00 -1.00E+01  1.00E+00  2.50E-02  9.56E-03  1.00E+00
  3   2.9791E-02   2.9791E-02 -1.00E+00  1.00E+00 -1.00E+01  1.00E+00  2.98E-02  7.17E-03  1.00E+00
:JACOBIANS    1.839E-03   4.034E-02
  
:NORMS:  1/Froebius, Min, Max, Used   0.6712E-01  0.2249E-01  0.6712E-01  0.6712E-01
:INFO :  Number of Memory Steps    2 Skipping    0
:INFO :  SLambda=    0.7128418406  Max    0.7128418406
:PREDicted Charge, CTotal, PW Trust    4.206E-03   8.413E-03   1.045E-02
:PREDicted DMix, Beta, BLim   2.6788E-02  6.5013E-01  2.3766E-01

Eigenvalues, unscaled except for SY+YY
   #     SY Real        SY Imag          SS             YY         SY+YY Real      SY+YY Imag
   1  -9.228729E-16   0.000000E+00   9.010177E-03   1.999932E+00   6.771560E-05   0.000000E+00
   2   1.139193E-01   0.000000E+00   0.000000E+00   6.827632E-05   2.081139E+00   0.000000E+00
 
:INFO :  Singular value  2.081E+00 Weight  1.000E+00 Projection -3.269E-03
:INFO :  Singular value  6.772E-05 Weight  1.029E-01 Projection  1.162E+00
:RANK :  ACTIVE   1.10/2  =  55.14 % ; YY RANK   1.10/2  =  55.22 %
 
:DLIM :  Beta Active  8.000E-01
:BLIM :  VZERO Control Off
:TRUST:  Step 3.33E-01  Charge 7.50E-02 (e) CTO  2.50E-01 (e) PW  3.50E-01 (e)
:DIRM :  MEMORY  2/12 SCALE   1.000 RED  0.62 PRED  1.00 NEXT  0.97 BETA  0.80
:TRAVE:  Charge 3.32E-04 (e) CTO  6.65E-04 (e) PW  6.35E-04 (e)
:DIRP :  |MSR1|= 3.497E-04 |PRATT|= 1.004E-02 ANGLE=  12.0 DEGREES
:DIRQ :  |MSR1|= 3.973E-03 |PRATT|= 1.484E-01 ANGLE=   5.1 DEGREES
:DIRT :  |MSR1|= 3.989E-03 |PRATT|= 1.487E-01 ANGLE=   5.3 DEGREES
:MIX  :   MSD1   REGULARIZATION:  2.00E-04 GREED: 0.02834  Newton 1.00  0.0268                
     
       CHARGES OF MIXED CHARGE DENSITY
:CTO   : INTERSTITIAL CHARGE =     6.986964
:CPC   : PW Pseudocharge     =    16.834820
:CTO001: CHARGE SPHERE  1    =    55.506518

:NEC03: NUCLEAR AND ELECTRONIC CHARGE    118.00000   118.00000

PW CHANGE     H    K    L      Current       Change    Residue
:PTO001:      0    0    0  4.59638704E-02  3.261E-06  7.970E-05
:PTO003:      0    2    0  1.31846399E-02  6.571E-07  2.618E-05
:PTO004:     -1    1    0  6.52930374E-02  1.589E-06  2.227E-05
:PTO005:      0    2   -1 -7.61792442E-02 -5.092E-06 -1.535E-04
:PTO006:      0    0   -2 -3.94076998E-02 -2.071E-06 -5.100E-05
:PTO007:     -1    1   -1 -8.32547227E-02 -3.004E-06 -8.276E-05
:PTO008:      0    2   -2 -1.39046810E-02 -8.897E-08  6.361E-06
:PTO009:     -1    1   -2 -7.24529363E-02 -2.029E-06 -3.837E-05
:PTO011:     -1    3    0 -1.21125410E-02  8.973E-07  4.007E-05
:PTO012:     -1    3   -1 -5.50221576E-02 -3.507E-07 -6.049E-06
:PTO013:      0    4    0 -1.02595138E-02  1.719E-07  2.626E-06
:PTO014:      0    2   -3  2.34653349E-02 -3.170E-07 -1.325E-05

:ENE  : ********** TOTAL ENERGY IN Ry =       -36944.19486017

       TOTAL FORCE IN mRy/a.u. = |F|     Fx             Fy             Fz     with/without FOR in case.in2
:FOR001:   1.ATOM         29.278          0.000          0.000        -29.278 partial forces
       TOTAL FORCE WITH RESPECT TO GLOBAL CARTESIAN COORDINATES:
:FCA001:   1.ATOM                         0.000        -29.278          0.000 partial forces
       TOTAL FORCE WITH RESPECT TO THE GLOBAL COORDINATE SYSTEM:
:FGL001:   1.ATOM                 0.000000000   -29.277920901     0.000000000 partial forces
 Flat Integration
 New Mode for Coulomb Integral
 Consistent 3/8+Simpson combinations
 Extension of core to zero
 LDM version in phi
 Fifth-order quadrature in outwin


            ---------
:ITE018: 18. ITERATION
            ---------

:NATO :    1 INDEPENDENT AND    2 TOTAL ATOMS IN UNITCELL
       SUBSTANCE: aU                                                          

       LATTICE                      = CXY 
:POT  : POTENTIAL OPTION EX_LDA EC_LDA VX_LDA VC_LDA
:LAT  : LATTICE CONSTANTS=  6.63103 13.45604 11.61688    1.571    1.571    1.571
:VOL  : UNIT CELL VOLUME =     518.27193
       MODE OF CALCULATION IS       = RELA
       NON-SPINPOLARIZED CALCULATION
:IFFT  : FFT-parameters:   54  108   96 Factor: 2.00


   CONVERGENCE PARAMETER FOR PSEUDOCHARGE: NCON=  9
   MAXIMAL VALUE OF RMT(JATOM)*ABSK(NKK) : RK  =27.59967


:VKCOUL :  VK-COUL convergence: 0.106E-06
       ATOMNUMBER=  1 Pr1        VCOUL-ZERO = -0.41871E-02
:EFG001:                        EFG         =    -7.00256   *10**21  V / m**2
                               V20  TOT/SRF=    -6.06440    -0.02043
                               V22  TOT/SRF=     0.18963     0.00157
                               V22M TOT/SRF=     0.00000     0.00000
                               V21  TOT/SRF=     0.00000     0.00000
                               V21M TOT/SRF=     0.00000     0.00000

              3.69091    0.00000    0.00000        3.69091    0.00000    0.00000
              0.00000    3.31165    0.00000        0.00000    3.31165    0.00000
              0.00000    0.00000   -7.00256        0.00000    0.00000   -7.00256

         MAIN DIRECTIONS OF THE EFG   1.0000  0.0000  0.0000
                                      0.0000  1.0000  0.0000
                                      0.0000  0.0000  1.0000
:ANG001:  ANGLE WITH OLD X-AXIS =         0.0

:ETA001:                         ASYMM. ETA =     0.05416


     HELLMANN-FEYNMAN-FORCE IN mRy/a.u. = |F|  Fx       Fy             Fz
:FHF001:   1.ATOM   1230.954600061041      0.000000000000      0.000000000000  -1230.954600061041

:FIT001: LUSE= 13 SIGMA OF V-XC FIT FOR ATOM  1  0.5645095E-04
:FIT001: LUSE= 13 SIGMA OF V-XC FIT FOR ATOM  1  0.5645095E-04
:DEN  : DENSITY INTEGRAL  =        -14142.66697849   (Ry)
       ELS_POTENTIAL_AT Z=0 and Z=0.5:   0.67911   0.67911
       ELS_POTENTIAL_AT Y=0 and Y=0.5:   0.07945   0.07945
:VZERO:v0,v0c,v0x   0.12450   0.67911  -0.55461 v5,v5c,v5x   0.12450   0.67911  -0.55461
:VZERY:v0,v0c,v0x  -0.66417   0.07945  -0.74362 v5,v5c,v5x  -0.66417   0.07945  -0.74362
:VZERX:v0,v0c,v0x  -1.08534  -0.36954  -0.71580 v5,v5c,v5x  -1.08534  -0.36954  -0.71580
:LMAX-WF:   10   Non-Spherical LMAX:   4

          ATOMIC SPHERE DEPENDENT PARAMETERS FOR ATOM  Pr1       
:e__0001: OVERALL ENERGY PARAMETER IS    0.3670
          OVERALL BASIS SET ON ATOM IS LAPW
:E0_0001: E( 0)=    0.3670
             APW+lo
:E0_0001: E( 0)=   -2.1039   E(BOTTOM)=   -2.741   E(TOP)=   -1.467  4  5   170
             LOCAL ORBITAL
:E1_0001: E( 1)=    0.7670
             APW+lo
:E1_0001: E( 1)=   -0.6350   E(BOTTOM)=   -1.594   E(TOP)=    0.324  3  4   194
             LOCAL ORBITAL
:E3_0001: E( 3)=    0.5577   E(BOTTOM)=    0.348   E(TOP)=    0.768  0  1   117
             APW+lo
:E2_0001: E( 2)=    0.3670   E(BOTTOM)=    0.146   E(TOP)= -200.000  2 -1    95
             APW+lo

       K=   0.06250   0.00000   0.06250            1
:RKM  : MATRIX SIZE   473LOs:  40  RKM= 8.48  WEIGHT= 4.00  PGR:    
       EIGENVALUES ARE:
:EIG00001:      -2.0715659   -2.0610468   -0.7896574   -0.7288700   -0.7149395
:EIG00006:      -0.7090880   -0.7036062   -0.7034158    0.3326581    0.4752272
:EIG00011:       0.5702268    0.5714354    0.5718493    0.5737404    0.5765786
:EIG00016:       0.5863738    0.5896525    0.5902171    0.5925483    0.5943112
:EIG00021:       0.5977807    0.6014924    0.6020429    0.6063891    0.6352301
:EIG00026:       0.6475401    0.7147360    0.7342078    0.7490031    0.7870995
:EIG00031:       0.8030759    0.8779439    0.9222401    0.9614101    1.2269270
:EIG00036:       1.2577216    1.3456705    1.3473482    1.4969439    1.5496370
:EIG00041:       1.5969698    1.6992778    1.7647559    1.7841787    1.8679274
:EIG00046:       1.9338473    1.9429417    1.9901085    2.0522165    2.1357392
 
:EIG00051:       2.1844284    2.2394984    2.2540193    2.3159123    2.3401884
:EIG00056:       2.4207030    2.4663428    2.4723014    2.5688848    2.6128126
:EIG00061:       2.6793627    2.6968335    2.8250042    2.9125813    2.9129920
:EIG00066:       3.0103832    3.0647880    3.0746414    3.0812786    3.1689588
:EIG00071:       3.1691481    3.2198221    3.2449168    3.2882951    3.3041067
:EIG00076:       3.3439572    3.3808806    3.4159198    3.4426202    3.4666122
:EIG00081:       3.5039175    3.5438156    3.5549834    3.6078422    3.6485922
:EIG00086:       3.6766002    3.7572027    3.7605537    3.7935336    3.8060359
:EIG00091:       3.8389379    3.8625133    3.9065585    3.9119685    3.9206272
:EIG00096:       3.9758978    4.0074338    4.0094987    4.0239435    4.1041829
 
:EIG00101:       4.1670896    4.2921971    4.2996742    4.3560371    4.3946439
:EIG00106:       4.4035926    4.4447830    4.4488979    4.4963979    4.5271038
:EIG00111:       4.6084363    4.6114747    4.6464997    4.6583770    4.7120902
:EIG00116:       4.7594386    4.8352900    4.8521946    4.8749505    4.9022738
:EIG00121:       4.9205708    5.0112071    5.0338378    5.0630269    5.1086494
:EIG00126:       5.1916446    5.1986701    5.2388674    5.2844825    5.3124450
:EIG00131:       5.3220859    5.3832989    5.4151856    5.4216285    5.4420372
:EIG00136:       5.5053770    5.5474489    5.5945608    5.6101053    5.6381712
:EIG00141:       5.6528181    5.6617441    5.7090822    5.7528127    5.7900911
:EIG00146:       5.8000050    5.8128895    5.8129087    5.8304958    5.9232900
 
:EIG00151:       5.9537517    5.9630307    6.0458787    6.0640889    6.1041073
:EIG00156:       6.2045241    6.2889826    6.3165137    6.3533121    6.3559442
:EIG00161:       6.4139191    6.4636464    6.5093032    6.5212052    6.5284191
:EIG00166:       6.5995307    6.6209887    6.6303319    6.6625619    6.6985550
:EIG00171:       6.7160680    6.7776542    6.8138018    6.8178441    6.8781329
:EIG00176:       6.8912048    6.9094461    6.9599216    6.9619341    7.0001586
:EIG00181:       7.0637794    7.0766915    7.0848243    7.1038672    7.1543628
:EIG00186:       7.1673256    7.1738311    7.2678522    7.2828395    7.2856891
:EIG00191:       7.3286904    7.3448235    7.3990954    7.4067409    7.4393003
:EIG00196:       7.4448789    7.4609971    7.4885158    7.4974982    7.5448690
 
:EIG00201:       7.5498560    7.6083696    7.6180717    7.6375637    7.7022459
:EIG00206:       7.7027720    7.7152192    7.7692040    7.8017520    7.8222413
:EIG00211:       7.8322877    7.8815111    7.8903844    7.9026679    7.9117736
:EIG00216:       7.9551774    7.9637834    7.9656421    7.9869710    8.0263387
:EIG00221:       8.0462740
       ********************************************************

:KPT   :      NUMBER OF K-POINTS:   288
   0.0   0.0 angle (M,z), angle (M,x) deg
 
        SPIN-ORBIT EIGENVALUES:
     K=   0.06250   0.00000   0.06250            1
      MATRIX SIZE=  442   WEIGHT= 4.00
     EIGENVALUES ARE:
          -2.0715660   -2.0715660   -2.0610469   -2.0610469   -0.8865714
          -0.8865714   -0.8560448   -0.8560448   -0.6994008   -0.6994008
          -0.6467682   -0.6467682   -0.6442764   -0.6442764   -0.6371915
          -0.6371915    0.3326877    0.3326877    0.4751084    0.4751084
           0.5633604    0.5633604    0.5656529    0.5656529    0.5661327
           0.5661327    0.5674967    0.5674967    0.5702045    0.5702045
           0.5736288    0.5736288    0.5891108    0.5891108    0.5960520
           0.5960520    0.5992346    0.5992346    0.6001261    0.6001261

           0.6038541    0.6038541    0.6069874    0.6069874    0.6079474
           0.6079474    0.6120174    0.6120174    0.6362269    0.6362269
           0.6475979    0.6475979    0.7144342    0.7144343    0.7332114
           0.7332114    0.7500717    0.7500718    0.7876172    0.7876172
           0.8030838    0.8030838    0.8777634    0.8777634    0.9225335
           0.9225335    0.9615373    0.9615373    1.2268711    1.2268711
           1.2579832    1.2579832    1.3455577    1.3455577    1.3474712
           1.3474712    1.4964942    1.4964942    1.5490232    1.5490232

           1.5969171    1.5969171    1.6973161    1.6973161    1.7636429
           1.7636429    1.7851922    1.7851922    1.8684574    1.8684574
           1.9331622    1.9331622    1.9409169    1.9409169    1.9914266
           1.9914266    2.0527884    2.0527884    2.1352483    2.1352483
           2.1840784    2.1840784    2.2366160    2.2366160    2.2561102
           2.2561102    2.3168155    2.3168155    2.3413768    2.3413768
           2.4206789    2.4206789    2.4648862    2.4648862    2.4741608
           2.4741608    2.5689385    2.5689385    2.6125505    2.6125505

           2.6825456    2.6825456    2.6972858    2.6972858    2.8249145
           2.8249145    2.9120805    2.9120805    2.9137119    2.9137119
           3.0102204    3.0102204    3.0645566    3.0645566    3.0750513
           3.0750513    3.0811956    3.0811956    3.1685660    3.1685660
           3.1698119    3.1698119    3.2198529    3.2198529    3.2449712
           3.2449712    3.2876462    3.2876462    3.3049886    3.3049886
           3.3441257    3.3441257    3.3822223    3.3822223    3.4159965
           3.4159965    3.4426753    3.4426753    3.4669974    3.4669974

           3.5041106    3.5041106    3.5438332    3.5438332    3.5551452
           3.5551452    3.6079934    3.6079934    3.6486345    3.6486345
           3.6767113    3.6767113    3.7573061    3.7573061    3.7605551
           3.7605551    3.7935277    3.7935277    3.8060924    3.8060924
           3.8389561    3.8389561    3.8625625    3.8625625    3.9064549
           3.9064549    3.9117829    3.9117829    3.9206708    3.9206708
           3.9759129    3.9759129    4.0061891    4.0061891    4.0108674
           4.0108674    4.0240319    4.0240319    4.1042304    4.1042304

           4.1669199    4.1669199    4.2903542    4.2903542    4.3007464
           4.3007464    4.3569170    4.3569170    4.3945788    4.3945788
           4.4038874    4.4038874    4.4444219    4.4444219    4.4501273
           4.4501273    4.4966266    4.4966266
       ********************************************************
:GAP (global)   :    0.0    Ry =     0.0   eV (metal)
:GAP (this spin):    0.0    Ry =     0.0   eV (metal)
         Bandranges (emin - emax) and occupancy:
:BAN00018:  18    0.328092    0.539462  1.00000000
:BAN00019:  19    0.434686    0.550276  1.00000000
:BAN00020:  20    0.434686    0.550276  1.00000000
:BAN00021:  21    0.513250    0.563360  1.00000000
:BAN00022:  22    0.513250    0.563360  1.00000000
:BAN00023:  23    0.549434    0.566612  1.00000000
:BAN00024:  24    0.549434    0.566612  1.00000000
:BAN00025:  25    0.558317    0.573489  0.80894577
:BAN00026:  26    0.558317    0.573489  0.80894561
:BAN00027:  27    0.565395    0.573967  0.19105454
:BAN00028:  28    0.565395    0.573967  0.19105408
:BAN00029:  29    0.569283    0.576486  0.00000000
:BAN00030:  30    0.569283    0.576486  0.00000000
:BAN00031:  31    0.571957    0.580897  0.00000000
:BAN00032:  32    0.571957    0.580897  0.00000000
:BAN00033:  33    0.575384    0.589434  0.00000000
        Energy to separate low and high energystates:    0.27809


:NOE  : NUMBER OF ELECTRONS          =   26.000

:FER  : F E R M I - ENERGY(TETRAH.M.)=   0.5684497225
:GMA  : POTENTIAL AND CHARGE CUT-OFF  12.00 Ry**.5

:POS001: ATOM   -1 X,Y,Z = 0.00000 0.89750 0.25000  MULT= 2  ZZ= 59.000  Pr1       

       LMMAX 16
       LM=   0 0  1 0  2 0  2 2  3 0  3 2  4 0  4 2  4 4  5 0  5 2  5 4  6 0  6 2  6 4  6 6

:CHA001: TOTAL VALENCE CHARGE INSIDE SPHERE   1 =   9.5049    (RMT=  2.3000 )
:PCS001: PARTIAL CHARGES SPHERE =  1 S,P,D,F,PX,PY,PZ,D-Z2,D-X2Y2,D-XY,D-XZ,D-YZ 
:QTL001: 1.9392 5.0159 0.4724 2.0773 1.6691 1.6693 1.6775 0.0867 0.0861 0.1057 0.0900 0.1038
        Q-s-low E-s-low   Q-p-low E-p-low   Q-d-low E-d-low   Q-f-low E-f-low
:EPL001:  1.8692 -2.0613    4.9531 -0.7450    0.0011 -0.7350    0.0003 -0.7438
        Q-s-hi  E-s-hi    Q-p-hi  E-p-hi    Q-d-hi  E-d-hi    Q-f-hi  E-f-hi 
:EPH001:  0.0701  0.4674    0.0628  0.5064    0.4713  0.5230    2.0770  0.5578

                      VXX         VYY         VZZ       UP TO R
:VZZ001:             4.14468     2.93591    -7.08058       2.300

:CHA  : TOTAL VALENCE CHARGE INSIDE UNIT CELL =      26.000000

:SUM  : SUM OF EIGENVALUES =         -11.869587445


        1.ATOM      Pr1                  14 CORE STATES
       CORE-FORCE in mRy/a.u. = |F|      Fx             Fy             Fz
:FCO001:   1.ATOM   1201.525748130611      0.000000000000      0.000000000000   1201.525748130611

:1S 001: 1S               -3067.023162771 Ry
:2S 001: 2S                -492.774261810 Ry
:2PP001: 2P*               -465.873853276 Ry
:2P 001: 2P                -430.476195139 Ry
:3S 001: 3S                -105.860418263 Ry
:3PP001: 3P*                -94.398445234 Ry
:3P 001: 3P                 -87.390476040 Ry
:3DD001: 3D*                -67.317992369 Ry
:3D 001: 3D                 -65.806368649 Ry
:4S 001: 4S                 -20.540419243 Ry
:4PP001: 4P*                -16.247611732 Ry
:4P 001: 4P                 -14.720755086 Ry
:4DD001: 4D*                 -7.654817121 Ry
:4D 001: 4D                  -7.385608511 Ry
:CINT001 Core Integral Atom   1   45.998477

       DENSITY AT NUCLEUS
        JATOM        VALENCE       SEMI-CORE          CORE           TOTAL
:RTO001:   1      646.447711        0.000000   656824.324417   657470.772128
     
       CHARGES OF NEW CHARGE DENSITY
:NTO   : INTERSTITIAL CHARGE =     6.990209
:NPC   : PW Pseudocharge     =    16.850108
:NTO001: CHARGE SPHERE  1    =    55.503372

:NEC01: NUCLEAR AND ELECTRONIC CHARGE    118.00000   117.99695
     
       CHARGES OF OLD CHARGE DENSITY
:OTO   : INTERSTITIAL CHARGE =     6.986964
:OPC   : PW Pseudocharge     =    16.834820
:OTO001: CHARGE SPHERE  1    =    55.506518

:NEC02: NUCLEAR AND ELECTRONIC CHARGE    118.00000   118.00000
     
       CONVERGENCE TEST
:DTO001: DIFFERENCE IN SPHERE  1 =  0.0113191

:DIS  :  CHARGE DISTANCE       ( 0.0113191 for atom    1 spin 1)      0.0113191
 PW Mixed is          533
 
******************************************************
* MULTISECANT MIXING VER9 RELEASE 10.4.0              *
* Slow Mode, cautious                                *
* Fixed density scale                                *
* Regularization       1.000E-04                     *
* Step Trust Radius    0.75000                       *
* Trust Upper Limit    2.000E+00                     *
* Max Number of Memory Steps   12                    *
******************************************************
 
:PWTMP   4.1634E+02  1.9467E+02  5.1827E+02
:PLANE:  PW TOTAL      4.4497 DISTAN   9.37E-03  2.11E-01 %
:CHARG:  CLM/ATOM   1381.9436 DISTAN   1.43E-01  1.03E-02 %
 
Step History
        DMIX         DMIXT        Red     Pred      Trust     Lambda    MagRel    MagAbs     Beta
  1   3.5000E-02   3.5000E-02 -1.00E+00  1.00E+00 -1.00E+01  1.00E+00  3.50E-02  3.50E-02  1.00E+00
  2   2.5000E-02   2.5000E-02  6.29E-01  1.00E+00 -1.00E+01  1.00E+00  2.50E-02  9.56E-03  1.00E+00
  3   2.9791E-02   2.9791E-02  6.18E-01  1.00E+00 -1.00E+01  7.13E-01  2.98E-02  7.17E-03  1.00E+00
  4   2.8342E-02   2.8342E-02 -1.00E+00  9.68E-01  3.33E-01  1.00E+00  2.68E-02  3.99E-03  8.00E-01
:JACOBIANS    2.366E-03   1.720E-01
  
:NORMS:  1/Froebius, Min, Max, Used   0.1749E+00  0.8394E-01  0.1941E+00  0.1800E+00
:INFO :  Number of Memory Steps    3 Skipping    0
:INFO :  SLambda=    1.2973694764  Max    1.2973694764
:PREDicted Charge, CTotal, PW Trust    1.450E-03   2.901E-03   1.171E-03
:PREDicted DMix, Beta, BLim   2.3977E-01  6.6356E+00  2.9520E-01

Eigenvalues, unscaled except for SY+YY
   #     SY Real        SY Imag          SS             YY         SY+YY Real      SY+YY Imag
   1  -2.636780E-16   0.000000E+00   8.307270E-02   2.563796E+00   2.748921E+00   0.000000E+00
   2   1.053035E-01   0.000000E+00   8.732294E-03   4.361343E-01   6.546813E-05   0.000000E+00
   3   1.482592E-01   0.000000E+00   1.494479E-19   6.937341E-05   5.799779E-01   0.000000E+00
 
:INFO :  Singular value  2.749E+00 Weight  1.000E+00 Projection  8.503E-03
:INFO :  Singular value  5.800E-01 Weight  1.000E+00 Projection -1.781E-01
:INFO :  Singular value  6.547E-05 Weight  6.121E-02 Projection -4.934E-01
:RANK :  ACTIVE   2.06/3  =  68.71 % ; YY RANK   2.07/3  =  68.94 %
 
:BLIM :  VZERO Control Off
:TRUST:  Step 2.73E-01  Charge 7.50E-02 (e) CTO  2.50E-01 (e) PW  3.50E-01 (e)
:DTRUS:  Lambda    1.495E-01 Increment    7.276E-12 Iterations    99 DMIX    5.165E-02
:INFOA:  Angle SubSpace to MSR1      0.08
:DIRM :  MEMORY  3/12 SCALE   1.000 RED  0.96 PRED  0.97 NEXT  0.81 
:INFO :  Limited by Atoms F by Step T

:TRAVE:  Charge 6.39E-04 (e) CTO  1.28E-03 (e) PW  7.85E-04 (e)
:DIRP :  |MSR1|= 1.706E-03 |PRATT|= 9.371E-03 ANGLE=  42.3 DEGREES
:DIRQ :  |MSR1|= 3.912E-02 |PRATT|= 1.430E-01 ANGLE=   4.7 DEGREES
:DIRT :  |MSR1|= 3.916E-02 |PRATT|= 1.433E-01 ANGLE=   5.3 DEGREES
:MIX  :   MSE1   REGULARIZATION:  2.56E-04 GREED: 0.07085  LMStep 0.73  0.2732 Step           
     
       CHARGES OF MIXED CHARGE DENSITY
:CTO   : INTERSTITIAL CHARGE =     6.988857
:CPC   : PW Pseudocharge     =    16.835415
:CTO001: CHARGE SPHERE  1    =    55.505572

:NEC03: NUCLEAR AND ELECTRONIC CHARGE    118.00000   118.00000

PW CHANGE     H    K    L      Current       Change    Residue
:PTO001:      0    0    0  4.59686705E-02  4.800E-06  5.581E-05
:PTO003:      0    2    0  1.31875487E-02  2.909E-06  2.843E-05
:PTO004:     -1    1    0  6.52823232E-02 -1.071E-05  2.343E-05
:PTO005:      0    2   -1 -7.61976983E-02 -1.845E-05 -1.496E-04
:PTO006:      0    0   -2 -3.94083375E-02 -6.377E-07 -4.471E-05
:PTO007:     -1    1   -1 -8.32523550E-02  2.368E-06 -8.406E-05
:PTO008:      0    2   -2 -1.39001376E-02  4.543E-06  6.832E-06
:PTO009:     -1    1   -2 -7.24498515E-02  3.085E-06 -3.611E-05
:PTO011:     -1    3    0 -1.20999564E-02  1.258E-05  4.116E-05
:PTO012:     -1    3   -1 -5.50232548E-02 -1.097E-06 -1.127E-05
:PTO013:      0    4    0 -1.02588046E-02  7.092E-07  1.034E-06
:PTO014:      0    2   -3  2.34607211E-02 -4.614E-06 -1.560E-05

:ENE  : ********** TOTAL ENERGY IN Ry =       -36944.19486721

       TOTAL FORCE IN mRy/a.u. = |F|     Fx             Fy             Fz     with/without FOR in case.in2
:FOR001:   1.ATOM         29.429          0.000          0.000        -29.429 partial forces
       TOTAL FORCE WITH RESPECT TO GLOBAL CARTESIAN COORDINATES:
:FCA001:   1.ATOM                         0.000        -29.429          0.000 partial forces
       TOTAL FORCE WITH RESPECT TO THE GLOBAL COORDINATE SYSTEM:
:FGL001:   1.ATOM                 0.000000000   -29.428851930     0.000000000 partial forces
 Flat Integration
 New Mode for Coulomb Integral
 Consistent 3/8+Simpson combinations
 Extension of core to zero
 LDM version in phi
 Fifth-order quadrature in outwin


            ---------
:ITE019: 19. ITERATION
            ---------

:NATO :    1 INDEPENDENT AND    2 TOTAL ATOMS IN UNITCELL
       SUBSTANCE: aU                                                          

       LATTICE                      = CXY 
:POT  : POTENTIAL OPTION EX_LDA EC_LDA VX_LDA VC_LDA
:LAT  : LATTICE CONSTANTS=  6.63103 13.45604 11.61688    1.571    1.571    1.571
:VOL  : UNIT CELL VOLUME =     518.27193
       MODE OF CALCULATION IS       = RELA
       NON-SPINPOLARIZED CALCULATION
:IFFT  : FFT-parameters:   54  108   96 Factor: 2.00


   CONVERGENCE PARAMETER FOR PSEUDOCHARGE: NCON=  9
   MAXIMAL VALUE OF RMT(JATOM)*ABSK(NKK) : RK  =27.59967


:VKCOUL :  VK-COUL convergence: 0.968E-07
       ATOMNUMBER=  1 Pr1        VCOUL-ZERO = -0.42371E-02
:EFG001:                        EFG         =    -7.03423   *10**21  V / m**2
                               V20  TOT/SRF=    -6.09182    -0.02008
                               V22  TOT/SRF=     0.23801     0.00209
                               V22M TOT/SRF=     0.00000     0.00000
                               V21  TOT/SRF=     0.00000     0.00000
                               V21M TOT/SRF=     0.00000     0.00000

              3.75513    0.00000    0.00000        3.75513    0.00000    0.00000
              0.00000    3.27910    0.00000        0.00000    3.27910    0.00000
              0.00000    0.00000   -7.03423        0.00000    0.00000   -7.03423

         MAIN DIRECTIONS OF THE EFG   1.0000  0.0000  0.0000
                                      0.0000  1.0000  0.0000
                                      0.0000  0.0000  1.0000
:ANG001:  ANGLE WITH OLD X-AXIS =         0.0

:ETA001:                         ASYMM. ETA =     0.06767


     HELLMANN-FEYNMAN-FORCE IN mRy/a.u. = |F|  Fx       Fy             Fz
:FHF001:   1.ATOM   1229.608260151042      0.000000000000      0.000000000000  -1229.608260151042

:FIT001: LUSE= 13 SIGMA OF V-XC FIT FOR ATOM  1  0.5239885E-04
:FIT001: LUSE= 13 SIGMA OF V-XC FIT FOR ATOM  1  0.5239885E-04
:DEN  : DENSITY INTEGRAL  =        -14142.60273096   (Ry)
       ELS_POTENTIAL_AT Z=0 and Z=0.5:   0.67924   0.67924
       ELS_POTENTIAL_AT Y=0 and Y=0.5:   0.07951   0.07951
:VZERO:v0,v0c,v0x   0.12455   0.67924  -0.55470 v5,v5c,v5x   0.12455   0.67924  -0.55470
:VZERY:v0,v0c,v0x  -0.66420   0.07951  -0.74372 v5,v5c,v5x  -0.66420   0.07951  -0.74372
:VZERX:v0,v0c,v0x  -1.08545  -0.36957  -0.71588 v5,v5c,v5x  -1.08545  -0.36957  -0.71588
:LMAX-WF:   10   Non-Spherical LMAX:   4

          ATOMIC SPHERE DEPENDENT PARAMETERS FOR ATOM  Pr1       
:e__0001: OVERALL ENERGY PARAMETER IS    0.3680
          OVERALL BASIS SET ON ATOM IS LAPW
:E0_0001: E( 0)=    0.3680
             APW+lo
:E0_0001: E( 0)=   -2.1041   E(BOTTOM)=   -2.741   E(TOP)=   -1.467  4  5   171
             LOCAL ORBITAL
:E1_0001: E( 1)=    0.7680
             APW+lo
:E1_0001: E( 1)=   -0.6351   E(BOTTOM)=   -1.595   E(TOP)=    0.324  3  4   197
             LOCAL ORBITAL
:E3_0001: E( 3)=    0.5576   E(BOTTOM)=    0.347   E(TOP)=    0.768  0  1   126
             APW+lo
:E2_0001: E( 2)=    0.3680   E(BOTTOM)=    0.146   E(TOP)= -200.000  2 -1    92
             APW+lo

       K=   0.06250   0.00000   0.06250            1
:RKM  : MATRIX SIZE   473LOs:  40  RKM= 8.48  WEIGHT= 4.00  PGR:    
       EIGENVALUES ARE:
:EIG00001:      -2.0716753   -2.0611555   -0.7898645   -0.7289223   -0.7149894
:EIG00006:      -0.7091188   -0.7038253   -0.7034452    0.3327023    0.4752090
:EIG00011:       0.5702284    0.5713532    0.5716710    0.5737740    0.5765047
:EIG00016:       0.5862934    0.5895143    0.5900866    0.5924103    0.5942109
:EIG00021:       0.5977457    0.6016014    0.6020542    0.6062152    0.6352144
:EIG00026:       0.6476195    0.7147044    0.7341787    0.7489098    0.7870878
:EIG00031:       0.8030627    0.8779193    0.9221879    0.9612982    1.2268756
:EIG00036:       1.2578084    1.3457426    1.3473575    1.4970301    1.5497109
:EIG00041:       1.5969560    1.6992987    1.7647894    1.7841943    1.8679159
:EIG00046:       1.9338613    1.9430021    1.9901393    2.0522749    2.1357145
 
:EIG00051:       2.1844142    2.2394739    2.2540158    2.3159021    2.3402011
:EIG00056:       2.4207113    2.4663287    2.4722743    2.5689078    2.6127944
:EIG00061:       2.6793291    2.6968178    2.8250292    2.9125775    2.9129849
:EIG00066:       3.0103711    3.0647985    3.0746413    3.0813160    3.1689874
:EIG00071:       3.1691557    3.2198423    3.2449479    3.2883085    3.3041686
:EIG00076:       3.3439759    3.3809584    3.4159236    3.4426692    3.4666413
:EIG00081:       3.5039479    3.5438597    3.5550270    3.6078658    3.6486214
:EIG00086:       3.6766321    3.7572551    3.7606060    3.7935715    3.8060441
:EIG00091:       3.8389649    3.8625099    3.9065883    3.9119848    3.9206626
:EIG00096:       3.9759341    4.0074335    4.0094981    4.0239617    4.1042065
 
:EIG00101:       4.1670543    4.2922216    4.2996408    4.3560630    4.3946848
:EIG00106:       4.4036172    4.4448132    4.4489185    4.4964155    4.5271211
:EIG00111:       4.6084699    4.6114737    4.6465522    4.6583944    4.7121177
:EIG00116:       4.7594255    4.8352660    4.8522068    4.8749173    4.9022462
:EIG00121:       4.9205690    5.0112271    5.0338340    5.0630320    5.1086635
:EIG00126:       5.1916445    5.1986844    5.2388358    5.2844609    5.3124492
:EIG00131:       5.3221134    5.3833281    5.4152098    5.4216301    5.4420325
:EIG00136:       5.5053937    5.5474872    5.5945793    5.6100926    5.6381748
:EIG00141:       5.6528017    5.6617176    5.7090861    5.7528460    5.7900323
:EIG00146:       5.8000070    5.8129193    5.8129534    5.8304897    5.9233084
 
:EIG00151:       5.9537216    5.9630577    6.0459160    6.0641178    6.1041059
:EIG00156:       6.2045400    6.2890054    6.3165174    6.3533070    6.3559176
:EIG00161:       6.4139117    6.4636432    6.5093194    6.5212097    6.5284178
:EIG00166:       6.5995227    6.6209877    6.6303212    6.6625679    6.6985540
:EIG00171:       6.7160613    6.7776492    6.8137840    6.8177777    6.8780733
:EIG00176:       6.8911900    6.9094055    6.9598732    6.9619141    7.0001390
:EIG00181:       7.0637578    7.0767026    7.0848085    7.1038802    7.1543772
:EIG00186:       7.1673305    7.1737803    7.2678473    7.2828275    7.2856631
:EIG00191:       7.3286992    7.3448324    7.3991119    7.4067466    7.4393127
:EIG00196:       7.4448849    7.4609830    7.4884953    7.4974964    7.5448689
 
:EIG00201:       7.5498728    7.6083894    7.6181039    7.6375573    7.7022175
:EIG00206:       7.7027746    7.7152151    7.7692172    7.8017442    7.8222326
:EIG00211:       7.8323031    7.8814557    7.8903951    7.9026638    7.9117715
:EIG00216:       7.9551958    7.9637968    7.9656395    7.9869804    8.0263719
:EIG00221:       8.0463157
       ********************************************************

:KPT   :      NUMBER OF K-POINTS:   288
   0.0   0.0 angle (M,z), angle (M,x) deg
 
        SPIN-ORBIT EIGENVALUES:
[...]
       SUBSTANCE: aU                                                          

       LATTICE                      = CXY 
:POT  : POTENTIAL OPTION EX_LDA EC_LDA VX_LDA VC_LDA
:LAT  : LATTICE CONSTANTS=  6.63103 13.45604 11.61688    1.571    1.571    1.571
:VOL  : UNIT CELL VOLUME =     518.27193
       MODE OF CALCULATION IS       = RELA
       NON-SPINPOLARIZED CALCULATION
:IFFT  : FFT-parameters:   54  108   96 Factor: 2.00


   CONVERGENCE PARAMETER FOR PSEUDOCHARGE: NCON=  9
   MAXIMAL VALUE OF RMT(JATOM)*ABSK(NKK) : RK  =27.59967


:VKCOUL :  VK-COUL convergence: 0.746E-07
       ATOMNUMBER=  1 Pr1        VCOUL-ZERO = -0.38566E-02
:EFG001:                        EFG         =    -6.89707   *10**21  V / m**2
                               V20  TOT/SRF=    -5.97303    -0.01905
                               V22  TOT/SRF=     0.24849     0.00209
                               V22M TOT/SRF=     0.00000     0.00000
                               V21  TOT/SRF=     0.00000     0.00000
                               V21M TOT/SRF=     0.00000     0.00000

              3.69702    0.00000    0.00000        3.69702    0.00000    0.00000
              0.00000    3.20005    0.00000        0.00000    3.20005    0.00000
              0.00000    0.00000   -6.89707        0.00000    0.00000   -6.89707

         MAIN DIRECTIONS OF THE EFG   1.0000  0.0000  0.0000
                                      0.0000  1.0000  0.0000
                                      0.0000  0.0000  1.0000
:ANG001:  ANGLE WITH OLD X-AXIS =         0.0

:ETA001:                         ASYMM. ETA =     0.07206


     HELLMANN-FEYNMAN-FORCE IN mRy/a.u. = |F|  Fx       Fy             Fz
:FHF001:   1.ATOM   1211.147726431780      0.000000000000      0.000000000000  -1211.147726431780

:FIT001: LUSE= 13 SIGMA OF V-XC FIT FOR ATOM  1  0.4274716E-04
:FIT001: LUSE= 13 SIGMA OF V-XC FIT FOR ATOM  1  0.4274716E-04
:DEN  : DENSITY INTEGRAL  =        -14142.58742600   (Ry)
       ELS_POTENTIAL_AT Z=0 and Z=0.5:   0.68002   0.68002
       ELS_POTENTIAL_AT Y=0 and Y=0.5:   0.08004   0.08004
:VZERO:v0,v0c,v0x   0.12513   0.68002  -0.55489 v5,v5c,v5x   0.12513   0.68002  -0.55489
:VZERY:v0,v0c,v0x  -0.66409   0.08004  -0.74413 v5,v5c,v5x  -0.66409   0.08004  -0.74413
:VZERX:v0,v0c,v0x  -1.08616  -0.37002  -0.71614 v5,v5c,v5x  -1.08616  -0.37002  -0.71614
:LMAX-WF:   10   Non-Spherical LMAX:   4

          ATOMIC SPHERE DEPENDENT PARAMETERS FOR ATOM  Pr1       
:e__0001: OVERALL ENERGY PARAMETER IS    0.3688
          OVERALL BASIS SET ON ATOM IS LAPW
:E0_0001: E( 0)=    0.3688
             APW+lo
:E0_0001: E( 0)=   -2.1037   E(BOTTOM)=   -2.741   E(TOP)=   -1.467  4  5   171
             LOCAL ORBITAL
:E1_0001: E( 1)=    0.7688
             APW+lo
:E1_0001: E( 1)=   -0.6348   E(BOTTOM)=   -1.594   E(TOP)=    0.325  3  4   197
             LOCAL ORBITAL
:E3_0001: E( 3)=    0.5581   E(BOTTOM)=    0.348   E(TOP)=    0.768  0  1   128
             APW+lo
:E2_0001: E( 2)=    0.3688   E(BOTTOM)=    0.146   E(TOP)= -200.000  2 -1    97
             APW+lo

       K=   0.06250   0.00000   0.06250            1
:RKM  : MATRIX SIZE   473LOs:  40  RKM= 8.48  WEIGHT= 4.00  PGR:    
       EIGENVALUES ARE:
:EIG00001:      -2.0713342   -2.0608159   -0.7894311   -0.7286586   -0.7147289
:EIG00006:      -0.7088109   -0.7033981   -0.7031413    0.3331910    0.4756019
:EIG00011:       0.5706494    0.5719016    0.5721481    0.5742415    0.5770598
:EIG00016:       0.5868634    0.5900184    0.5906391    0.5929838    0.5946734
:EIG00021:       0.5983179    0.6020716    0.6025664    0.6067831    0.6356490
:EIG00026:       0.6480493    0.7151859    0.7345331    0.7493176    0.7874248
:EIG00031:       0.8033920    0.8784267    0.9226381    0.9616733    1.2273252
:EIG00036:       1.2583171    1.3462207    1.3478140    1.4975999    1.5503384
:EIG00041:       1.5973809    1.6998177    1.7652680    1.7847089    1.8683558
:EIG00046:       1.9343362    1.9435694    1.9905830    2.0528232    2.1361492
 
:EIG00051:       2.1847552    2.2398720    2.2544021    2.3163358    2.3405753
:EIG00056:       2.4210856    2.4666988    2.4726557    2.5693199    2.6132105
:EIG00061:       2.6797502    2.6972225    2.8254771    2.9130394    2.9134701
:EIG00066:       3.0108231    3.0652427    3.0751019    3.0817864    3.1694180
:EIG00071:       3.1696359    3.2202702    3.2454180    3.2887706    3.3046515
:EIG00076:       3.3444465    3.3815299    3.4163902    3.4431458    3.4670764
:EIG00081:       3.5044400    3.5442944    3.5555238    3.6083532    3.6491059
:EIG00086:       3.6770936    3.7577232    3.7611351    3.7940790    3.8064756
:EIG00091:       3.8394410    3.8629562    3.9070436    3.9124069    3.9211831
:EIG00096:       3.9764685    4.0078656    4.0099244    4.0244180    4.1046218
 
:EIG00101:       4.1674906    4.2926975    4.3000885    4.3565130    4.3951628
:EIG00106:       4.4041117    4.4452699    4.4493459    4.4968810    4.5275414
:EIG00111:       4.6089586    4.6119400    4.6470556    4.6588401    4.7126179
:EIG00116:       4.7598567    4.8357221    4.8526427    4.8753406    4.9026891
:EIG00121:       4.9210447    5.0117234    5.0343283    5.0634962    5.1091272
:EIG00126:       5.1920899    5.1991753    5.2392523    5.2848864    5.3129224
:EIG00131:       5.3225934    5.3838336    5.4156896    5.4220930    5.4424574
:EIG00136:       5.5058513    5.5479888    5.5950157    5.6105085    5.6386173
:EIG00141:       5.6532277    5.6621037    5.7095208    5.7532737    5.7903909
:EIG00146:       5.8004537    5.8133839    5.8134471    5.8309719    5.9237663
 
:EIG00151:       5.9541455    5.9635002    6.0464072    6.0645876    6.1045333
:EIG00156:       6.2049741    6.2894475    6.3169700    6.3537368    6.3563579
:EIG00161:       6.4142810    6.4640764    6.5097949    6.5216045    6.5288871
:EIG00166:       6.5999216    6.6214713    6.6307660    6.6630271    6.6989838
:EIG00171:       6.7165430    6.7780492    6.8141457    6.8181847    6.8784781
:EIG00176:       6.8916244    6.9097961    6.9603073    6.9623398    7.0005908
:EIG00181:       7.0641982    7.0771737    7.0852653    7.1043497    7.1548573
:EIG00186:       7.1677812    7.1741975    7.2682955    7.2832686    7.2860935
:EIG00191:       7.3291466    7.3453099    7.3995467    7.4072142    7.4397971
:EIG00196:       7.4453546    7.4614002    7.4889277    7.4979603    7.5453133
 
:EIG00201:       7.5503598    7.6088846    7.6185898    7.6379926    7.7026208
:EIG00206:       7.7032270    7.7156846    7.7696928    7.8021834    7.8226496
:EIG00211:       7.8327699    7.8818385    7.8908697    7.9031245    7.9122391
:EIG00216:       7.9556454    7.9642927    7.9661130    7.9874396    8.0268430
:EIG00221:       8.0468260
       ********************************************************

:KPT   :      NUMBER OF K-POINTS:   288
   0.0   0.0 angle (M,z), angle (M,x) deg
 
        SPIN-ORBIT EIGENVALUES:
     K=   0.06250   0.00000   0.06250            1
      MATRIX SIZE=  442   WEIGHT= 4.00
     EIGENVALUES ARE:
          -2.0713342   -2.0713342   -2.0608159   -2.0608159   -0.8863435
          -0.8863435   -0.8558165   -0.8558165   -0.6991695   -0.6991695
          -0.6465184   -0.6465184   -0.6440402   -0.6440402   -0.6369564
          -0.6369564    0.3332205    0.3332206    0.4754830    0.4754830
           0.5637686    0.5637686    0.5660544    0.5660544    0.5666127
           0.5666127    0.5679501    0.5679501    0.5706422    0.5706422
           0.5740833    0.5740833    0.5894821    0.5894821    0.5964974
           0.5964974    0.5997179    0.5997180    0.6005753    0.6005753

           0.6043228    0.6043228    0.6075030    0.6075030    0.6084411
           0.6084411    0.6124327    0.6124327    0.6366462    0.6366462
           0.6481070    0.6481070    0.7148709    0.7148710    0.7335532
           0.7335532    0.7503815    0.7503815    0.7879429    0.7879429
           0.8034005    0.8034005    0.8782446    0.8782447    0.9229321
           0.9229321    0.9618013    0.9618013    1.2272697    1.2272697
           1.2585784    1.2585784    1.3461046    1.3461046    1.3479405
           1.3479405    1.4971503    1.4971503    1.5497223    1.5497223

           1.5973310    1.5973310    1.6978546    1.6978546    1.7641547
           1.7641547    1.7857208    1.7857208    1.8688872    1.8688872
           1.9336601    1.9336601    1.9415235    1.9415235    1.9919149
           1.9919149    2.0533898    2.0533898    2.1356572    2.1356572
           2.1844097    2.1844097    2.2369964    2.2369964    2.2564893
           2.2564893    2.3172437    2.3172437    2.3417580    2.3417580
           2.4210611    2.4210611    2.4652481    2.4652481    2.4745101
           2.4745101    2.5693755    2.5693755    2.6129467    2.6129467

           2.6829329    2.6829329    2.6976739    2.6976739    2.8253874
           2.8253874    2.9125463    2.9125463    2.9141824    2.9141824
           3.0106607    3.0106607    3.0650113    3.0650113    3.0755123
           3.0755123    3.0817020    3.0817020    3.1690382    3.1690382
           3.1702866    3.1702866    3.2203014    3.2203014    3.2454722
           3.2454722    3.2881248    3.2881248    3.3055294    3.3055294
           3.3446153    3.3446153    3.3828712    3.3828712    3.4164671
           3.4164671    3.4432005    3.4432005    3.4674622    3.4674622

           3.5046335    3.5046335    3.5443120    3.5443120    3.5556852
           3.5556852    3.6085041    3.6085041    3.6491484    3.6491484
           3.6772049    3.6772049    3.7578268    3.7578268    3.7611361
           3.7611361    3.7940731    3.7940731    3.8065323    3.8065323
           3.8394592    3.8394592    3.8630054    3.8630054    3.9069401
           3.9069401    3.9122244    3.9122244    3.9212226    3.9212226
           3.9764834    3.9764834    4.0066221    4.0066221    4.0112930
           4.0112930    4.0245064    4.0245064    4.1046694    4.1046694

           4.1673206    4.1673206    4.2908391    4.2908391    4.3011782
           4.3011782    4.3573920    4.3573920    4.3950967    4.3950967
           4.4044067    4.4044067    4.4448979    4.4448979    4.4505855
           4.4505855    4.4971096    4.4971096
       ********************************************************
:GAP (global)   :    0.0    Ry =     0.0   eV (metal)
:GAP (this spin):    0.0    Ry =     0.0   eV (metal)
         Bandranges (emin - emax) and occupancy:
:BAN00018:  18    0.328630    0.539979  1.00000000
:BAN00019:  19    0.435170    0.550653  1.00000000
:BAN00020:  20    0.435170    0.550653  1.00000000
:BAN00021:  21    0.513665    0.563769  1.00000000
:BAN00022:  22    0.513665    0.563769  1.00000000
:BAN00023:  23    0.549825    0.567090  1.00000000
:BAN00024:  24    0.549825    0.567090  1.00000000
:BAN00025:  25    0.558804    0.573807  0.81012099
:BAN00026:  26    0.558804    0.573807  0.81012083
:BAN00027:  27    0.565791    0.574359  0.18987921
:BAN00028:  28    0.565791    0.574359  0.18987897
:BAN00029:  29    0.569674    0.576957  0.00000000
:BAN00030:  30    0.569674    0.576957  0.00000000
:BAN00031:  31    0.572392    0.581314  0.00000000
:BAN00032:  32    0.572392    0.581314  0.00000000
:BAN00033:  33    0.575851    0.589800  0.00000000
        Energy to separate low and high energystates:    0.27863


:NOE  : NUMBER OF ELECTRONS          =   26.000

:FER  : F E R M I - ENERGY(TETRAH.M.)=   0.5688702867
:GMA  : POTENTIAL AND CHARGE CUT-OFF  12.00 Ry**.5

:POS001: ATOM   -1 X,Y,Z = 0.00000 0.89750 0.25000  MULT= 2  ZZ= 59.000  Pr1       

       LMMAX 16
       LM=   0 0  1 0  2 0  2 2  3 0  3 2  4 0  4 2  4 4  5 0  5 2  5 4  6 0  6 2  6 4  6 6

:CHA001: TOTAL VALENCE CHARGE INSIDE SPHERE   1 =   9.5052    (RMT=  2.3000 )
:PCS001: PARTIAL CHARGES SPHERE =  1 S,P,D,F,PX,PY,PZ,D-Z2,D-X2Y2,D-XY,D-XZ,D-YZ 
:QTL001: 1.9392 5.0160 0.4727 2.0771 1.6691 1.6694 1.6775 0.0868 0.0862 0.1056 0.0902 0.1039
        Q-s-low E-s-low   Q-p-low E-p-low   Q-d-low E-d-low   Q-f-low E-f-low
:EPL001:  1.8692 -2.0610    4.9532 -0.7447    0.0011 -0.7348    0.0003 -0.7436
        Q-s-hi  E-s-hi    Q-p-hi  E-p-hi    Q-d-hi  E-d-hi    Q-f-hi  E-f-hi 
:EPH001:  0.0701  0.4678    0.0627  0.5069    0.4716  0.5235    2.0768  0.5583

                      VXX         VYY         VZZ       UP TO R
:VZZ001:             3.68466     3.19121    -6.87587       2.300

:CHA  : TOTAL VALENCE CHARGE INSIDE UNIT CELL =      26.000000

:SUM  : SUM OF EIGENVALUES =         -11.861215321


        1.ATOM      Pr1                  14 CORE STATES
       CORE-FORCE in mRy/a.u. = |F|      Fx             Fy             Fz
:FCO001:   1.ATOM   1180.255541561862      0.000000000000      0.000000000000   1180.255541561862

:1S 001: 1S               -3067.026981110 Ry
:2S 001: 2S                -492.777119406 Ry
:2PP001: 2P*               -465.876925331 Ry
:2P 001: 2P                -430.479186857 Ry
:3S 001: 3S                -105.861399742 Ry
:3PP001: 3P*                -94.399528261 Ry
:3P 001: 3P                 -87.391459782 Ry
:3DD001: 3D*                -67.319247142 Ry
:3D 001: 3D                 -65.807587825 Ry
:4S 001: 4S                 -20.539997968 Ry
:4PP001: 4P*                -16.247191890 Ry
:4P 001: 4P                 -14.720305314 Ry
:4DD001: 4D*                 -7.654378175 Ry
:4D 001: 4D                  -7.385163703 Ry
:CINT001 Core Integral Atom   1   45.998477

       DENSITY AT NUCLEUS
        JATOM        VALENCE       SEMI-CORE          CORE           TOTAL
:RTO001:   1      646.429079        0.000000   656824.759828   657471.188906
     
       CHARGES OF NEW CHARGE DENSITY
:NTO   : INTERSTITIAL CHARGE =     6.989560
:NPC   : PW Pseudocharge     =    16.851507
:NTO001: CHARGE SPHERE  1    =    55.503696

:NEC01: NUCLEAR AND ELECTRONIC CHARGE    118.00000   117.99695
     
       CHARGES OF OLD CHARGE DENSITY
:OTO   : INTERSTITIAL CHARGE =     6.992604
:OPC   : PW Pseudocharge     =    16.858654
:OTO001: CHARGE SPHERE  1    =    55.503698

:NEC02: NUCLEAR AND ELECTRONIC CHARGE    118.00000   118.00000
     
       CONVERGENCE TEST
:DTO001: DIFFERENCE IN SPHERE  1 =  0.0000933

:DIS  :  CHARGE DISTANCE       ( 0.0000933 for atom    1 spin 1)      0.0000933
 PW Mixed is          533
 
******************************************************
* MULTISECANT MIXING VER9 RELEASE 10.4.0              *
* Standard Mode with controls                        *
* Fixed density scale                                *
* Regularization       1.000E-04                     *
* Trust Upper Limit    5.000E+00                     *
* Max Number of Memory Steps    8                    *
******************************************************
 
:PWTMP   4.1634E+02  1.9467E+02  5.1827E+02
:PLANE:  PW TOTAL      4.4542 DISTAN   6.67E-05  1.50E-03 %
:CHARG:  CLM/ATOM   1381.9386 DISTAN   1.90E-04  1.38E-05 %
 
Step History
        DMIX         DMIXT        Red     Pred      Trust     Lambda    MagRel    MagAbs     Beta
  3   2.9791E-02   2.9791E-02  6.18E-01  1.00E+00 -1.00E+01  7.13E-01  2.98E-02  7.17E-03  1.00E+00
  4   2.8342E-02   2.8342E-02  9.64E-01  9.68E-01  3.33E-01  1.30E+00  2.68E-02  3.99E-03  8.00E-01
  5   7.0854E-02   5.1652E-02  7.06E-01  8.13E-01  2.73E-01  1.01E+00  2.73E-01  3.92E-02  1.00E+00
  6   1.7714E-01   1.5918E-01  4.41E-01  4.67E-01  5.86E-01  8.75E-01  5.86E-01  5.93E-02  1.00E+00
  7   1.1602E-01   1.1602E-01  3.67E-01  4.97E-01  7.81E-01  8.75E-01  6.96E-01  3.11E-02  1.00E+00
  8   8.1927E-02   8.1927E-02  7.77E-01  9.26E-01  1.04E+00  1.31E+00  1.50E-01  2.46E-03  1.00E+00
  9   2.0482E-01   2.0482E-01  1.99E-01  2.42E-01  1.34E+00  1.28E+00  5.53E-01  7.03E-03  1.00E+00
 10   9.8347E-02   9.8347E-02  8.00E-01  9.03E-01  1.91E+00  1.23E+00  2.00E-01  5.06E-04  1.00E+00
 11   2.4587E-01   2.4587E-01 -1.00E+00  1.66E-01  2.39E+00  1.00E+00  8.80E-01  1.78E-03  1.00E+00
:JACOBIANS    4.365E-01   1.894E+00
  
:NORMS:  1/Froebius, Min, Max, Used   0.8387E+00  0.3928E+00  0.9660E+00  0.9614E+00
:INFO :  Number of Memory Steps    8 Skipping    2
:INFO :  SLambda=    0.8324741483  Max    0.8324741483
:PREDicted Charge, CTotal, PW Trust    4.849E-05   9.698E-05   1.745E-03
:PREDicted DMix, Beta, BLim   1.7675E-02  1.0155E+00  6.5628E+00

Eigenvalues, unscaled except for SY+YY
   #     SY Real        SY Imag          SS             YY         SY+YY Real      SY+YY Imag
   1   3.638433E+00   0.000000E+00   3.523716E+00   3.812642E+00   6.841099E+00   0.000000E+00
   2   1.907564E+00   0.000000E+00   1.765579E+00   2.211118E+00   3.777579E+00   0.000000E+00
   3   7.317316E-01   0.000000E+00   3.348641E-01   1.580786E+00   2.208748E+00   0.000000E+00
   4   2.870961E-02   0.000000E+00   2.668788E-03   3.139912E-01   3.402011E-01   0.000000E+00
   5   5.676483E-03   0.000000E+00   5.176049E-04   6.302273E-02   6.825012E-02   0.000000E+00
   6   1.184300E-03   0.000000E+00   8.478135E-05   1.839263E-02   1.973412E-02   0.000000E+00
   7   7.939806E-08   0.000000E+00   6.831119E-06   4.573629E-05   6.032537E-07   0.000000E+00
   8   1.676629E-05   0.000000E+00   1.365382E-08   5.321732E-07   6.001516E-05   0.000000E+00
 
:INFO :  Singular value  6.842E+00 Weight  1.000E+00 Projection  5.863E-06
:INFO :  Singular value  3.778E+00 Weight  1.000E+00 Projection -1.922E-05
:INFO :  Singular value  2.209E+00 Weight  1.000E+00 Projection -2.459E-05
:INFO :  Singular value  3.402E-01 Weight  1.000E+00 Projection  3.340E-05
:INFO :  Singular value  6.825E-02 Weight  1.000E+00 Projection  1.972E-04
:INFO :  Singular value  1.973E-02 Weight  9.996E-01 Projection  3.086E-04
:INFO :  Singular value  6.002E-05 Weight  2.418E-02 Projection -4.526E-04
:INFO :  Singular value  6.032E-07 Weight  2.503E-06 Projection  3.300E-07
:RANK :  ACTIVE   6.02/8  =  75.30 % ; YY RANK   6.01/8  =  75.17 %
 
:BLIM :  VZERO Control Off
:TRUST:  Step 4.25E+00  Charge 2.46E-02 (e) CTO  8.19E-02 (e) PW  1.15E-01 (e)
:DIRM :  MEMORY  8/8  SCALE   1.000 RED  0.10 PRED  0.17 NEXT  0.92 
:TRAVE:  Charge 4.05E-05 (e) CTO  8.09E-05 (e) PW  7.84E-04 (e)
:DIRP :  |MSR1|= 3.186E-05 |PRATT|= 6.671E-05 ANGLE=  21.1 DEGREES
:DIRQ :  |MSR1|= 3.057E-05 |PRATT|= 1.902E-04 ANGLE=  42.6 DEGREES
:DIRT :  |MSR1|= 4.415E-05 |PRATT|= 2.016E-04 ANGLE=  45.3 DEGREES
:MIX  :   MSD1   REGULARIZATION:  3.81E-04 GREED: 0.10155  Newton 1.00  0.2190                
     
       CHARGES OF MIXED CHARGE DENSITY
:CTO   : INTERSTITIAL CHARGE =     6.992603
:CPC   : PW Pseudocharge     =    16.858759
:CTO001: CHARGE SPHERE  1    =    55.503698

:NEC03: NUCLEAR AND ELECTRONIC CHARGE    118.00000   118.00000

PW CHANGE     H    K    L      Current       Change    Residue
:PTO001:      0    0    0  4.60209412E-02  2.017E-07  3.893E-07
:PTO003:      0    2    0  1.32137207E-02  1.338E-07  6.635E-07
:PTO004:     -1    1    0  6.53495106E-02  3.470E-07  3.094E-07
:PTO005:      0    2   -1 -7.63195333E-02 -4.254E-07 -1.046E-06
:PTO006:      0    0   -2 -3.94522750E-02 -2.383E-07 -4.850E-07
:PTO007:     -1    1   -1 -8.33468519E-02 -4.392E-07 -5.968E-07
:PTO008:      0    2   -2 -1.39019862E-02 -8.690E-08 -3.986E-07
:PTO009:     -1    1   -2 -7.24870072E-02 -2.513E-07 -5.621E-07
:PTO011:     -1    3    0 -1.20686011E-02  4.294E-08  3.732E-07
:PTO012:     -1    3   -1 -5.50444339E-02 -5.710E-08 -1.929E-07
:PTO013:      0    4    0 -1.02559476E-02 -1.080E-08 -2.440E-08
:PTO014:      0    2   -3  2.34496888E-02  3.176E-08  1.764E-07

:ENE  : ********** TOTAL ENERGY IN Ry =       -36944.19485265

       TOTAL FORCE IN mRy/a.u. = |F|     Fx             Fy             Fz     with/without FOR in case.in2
:FOR001:   1.ATOM         30.892          0.000          0.000        -30.892 partial forces
       TOTAL FORCE WITH RESPECT TO GLOBAL CARTESIAN COORDINATES:
:FCA001:   1.ATOM                         0.000        -30.892          0.000 partial forces
       TOTAL FORCE WITH RESPECT TO THE GLOBAL COORDINATE SYSTEM:
:FGL001:   1.ATOM                 0.000000000   -30.892184870     0.000000000 partial forces
