
:LABEL1: Calculations in /home/ykent/GWIEN/example/Pr/V15/case
:LABEL2: on didymium-2.cmpgroup.ameslab.gov at Wed Jul  8 16:41:54 CDT 2020
:LABEL3: using WIEN2k_19.1 (Release 25/6/2019) in /home/ykent/opt/src/WIEN2k_19.1
:LABEL4: using the command: run_lapw -so -i 70 -cc 0.0001
 Flat Integration
 New Mode for Coulomb Integral
 Consistent 3/8+Simpson combinations
 Extension of core to zero
 LDM version in phi
 Fifth-order quadrature in outwin


            ---------
:ITE015: 15. ITERATION
            ---------

:NATO :    1 INDEPENDENT AND    1 TOTAL ATOMS IN UNITCELL
       SUBSTANCE: blebleble                                                   

       LATTICE                      = F   
:POT  : POTENTIAL OPTION EX_LDA EC_LDA VX_LDA VC_LDA
:LAT  : LATTICE CONSTANTS= 10.43083 10.43083 10.43083    1.571    1.571    1.571
:VOL  : UNIT CELL VOLUME =     283.72435
       MODE OF CALCULATION IS       = RELA
       NON-SPINPOLARIZED CALCULATION
:IFFT  : FFT-parameters:   80   80   80 Factor: 2.00


   CONVERGENCE PARAMETER FOR PSEUDOCHARGE: NCON=  9
   MAXIMAL VALUE OF RMT(JATOM)*ABSK(NKK) : RK  =29.96737


:VKCOUL :  VK-COUL convergence: 0.340E-06
       ATOMNUMBER=  1 Pr         VCOUL-ZERO =  0.10972E+00
:FIT001: LUSE= 13 SIGMA OF V-XC FIT FOR ATOM  1  0.5135964E-04
:FIT001: LUSE= 13 SIGMA OF V-XC FIT FOR ATOM  1  0.5135964E-04
:DEN  : DENSITY INTEGRAL  =         -7064.59308518   (Ry)
       ELS_POTENTIAL_AT Z=0 and Z=0.5:  -2.34616  -2.34616
       ELS_POTENTIAL_AT Y=0 and Y=0.5:   0.00000   0.00000
:VZERO:v0,v0c,v0x  -3.27596  -2.34616  -0.92980 v5,v5c,v5x  -3.27596  -2.34616  -0.92980
:VZERY:v0,v0c,v0x  -0.66460   0.00000  -0.66460 v5,v5c,v5x  -0.66460   0.00000  -0.66460
:VZERX:v0,v0c,v0x  -0.66460   0.00000  -0.66460 v5,v5c,v5x  -0.66460   0.00000  -0.66460
:LMAX-WF:   10   Non-Spherical LMAX:   4

          ATOMIC SPHERE DEPENDENT PARAMETERS FOR ATOM  Pr        
:e__0001: OVERALL ENERGY PARAMETER IS    0.2663
          OVERALL BASIS SET ON ATOM IS LAPW
:E0_0001: E( 0)=    0.2663
             APW+lo
:E0_0001: E( 0)=   -2.2245   E(BOTTOM)=   -2.606   E(TOP)=   -1.843  4  5   158
             LOCAL ORBITAL
:E1_0001: E( 1)=    0.6663
             APW+lo
:E1_0001: E( 1)=   -0.8369   E(BOTTOM)=   -1.483   E(TOP)=   -0.191  3  4   165
             LOCAL ORBITAL
:E3_0001: E( 3)=    0.4519   E(BOTTOM)=    0.309   E(TOP)=    0.595  0  1   115
             APW+lo
:E2_0001: E( 2)=    0.2663   E(BOTTOM)=    0.093   E(TOP)= -200.000  2 -1    94
             APW+lo

       K=   0.00000   0.00000   0.00000            1
:RKM  : MATRIX SIZE   189LOs:  20  RKM= 7.82  WEIGHT= 1.00  PGR:    
       EIGENVALUES ARE:
:EIG00001:      -2.1799336   -0.8276656   -0.8276656   -0.8276656    0.2191685
:EIG00006:       0.4583060    0.4705446    0.4705446    0.4705446    0.4888141
:EIG00011:       0.4888141    0.4888141    0.5890678    0.5890678    0.5890678
:EIG00016:       0.7307607    0.7307607    1.1213248    1.3204626    1.3204626
:EIG00021:       1.3204626    1.4271404    1.9762165    1.9762165    1.9762165
:EIG00026:       2.0207774    2.0207774    2.0207774    2.2574785    2.2574785
:EIG00031:       2.5407347    2.7258291    2.7258291    2.7258291    3.1283566
:EIG00036:       3.1283566    3.3532420    3.3532420    3.3532420    3.3841584
:EIG00041:       3.3841584    3.3841584    3.5567775    3.5567775    3.5567775
:EIG00046:       3.7312542    3.8038534    3.8038534    3.8038534    3.8975462
 
:EIG00051:       3.8975462    3.9004727    3.9004727    3.9004727    3.9099089
:EIG00056:       3.9099089    3.9099089    4.0099395    4.0774491    4.2068057
:EIG00061:       4.2068057    4.2068057    4.2584508    4.2584508    4.2584508
:EIG00066:       4.4211282    5.4192519    5.4192519    5.4391843    5.6799291
:EIG00071:       5.6799291    5.6799291    6.0707255    6.0707255    6.2185666
:EIG00076:       6.2185666    6.2185666    6.2956114    6.2956114    6.2956114
:EIG00081:       6.5976549    6.5976549    6.5976549    6.6277727    6.6277727
:EIG00086:       6.6277727    6.6737763    6.6737763    6.7235426    6.7235426
:EIG00091:       6.7235426    6.8199460    6.8199460    6.8199460    6.8283059
:EIG00096:       6.8283059    6.8283059    6.8769057    6.9916635    7.0043484
 
:EIG00101:       7.0043484    7.0820350    7.0820350    7.0820350    7.1121314
:EIG00106:       7.1121314    7.1121314    7.1156764    7.1156764    7.1156764
:EIG00111:       7.1791799    7.1791799    7.3803264    7.4266780    7.7127517
:EIG00116:       7.7127517    7.7127517
       ********************************************************

:KPT   :      NUMBER OF K-POINTS:   165
   0.0   0.0 angle (M,z), angle (M,x) deg
 
        SPIN-ORBIT EIGENVALUES:
     K=   0.00000   0.00000   0.00000            1
      MATRIX SIZE=  234   WEIGHT= 1.00
     EIGENVALUES ARE:
          -2.1799336   -2.1799336   -0.9732109   -0.9732109   -0.7595530
          -0.7595530   -0.7595530   -0.7595530    0.2191685    0.2191685
           0.4525053    0.4525053    0.4589013    0.4589013    0.4589013
           0.4589013    0.4822714    0.4822714    0.4903967    0.4903967
           0.4966123    0.4966123    0.4966123    0.4966123    0.5853788
           0.5853788    0.5853788    0.5853788    0.5951977    0.5951977
           0.7311788    0.7311788    0.7311788    0.7311788    1.1213723
           1.1213723    1.3149541    1.3149541    1.3229413    1.3229413

           1.3229413    1.3229413    1.4271404    1.4271404    1.9555104
           1.9555104    1.9714878    1.9714878    1.9714878    1.9714878
           1.9851909    1.9851909    2.0543793    2.0543793    2.0543793
           2.0543793    2.2577590    2.2577590    2.2577590    2.2577590
           2.5407347    2.5407347    2.7253995    2.7253995    2.7260578
           2.7260578    2.7260578    2.7260578    3.1283357    3.1283357
           3.1283357    3.1283357    3.3519769    3.3519769    3.3519769
           3.3519769    3.3559997    3.3559997    3.3569152    3.3569152

           3.3989736    3.3989736    3.3989736    3.3989736    3.5567710
           3.5567710    3.5567808    3.5567808    3.5567808    3.5567808
           3.7312542    3.7312542    3.8038160    3.8038160    3.8038160
           3.8038160    3.8039325    3.8039325    3.8975462    3.8975462
           3.8975462    3.8975462    3.9003262    3.9003262    3.9005059
           3.9005059    3.9005059    3.9005059    3.9096137    3.9096137
           3.9096137    3.9096137    3.9105925    3.9105925    4.0099469
           4.0099469    4.0774491    4.0774491    4.2067492    4.2067492

           4.2067492    4.2067492    4.2069222    4.2069222    4.2576706
           4.2576706    4.2588863    4.2588863    4.2588863    4.2588863
           4.4211317    4.4211317
       ********************************************************
:GAP (global)   :    0.0    Ry =     0.0   eV (metal)
:GAP (this spin):    0.0    Ry =     0.0   eV (metal)
         Bandranges (emin - emax) and occupancy:
:BAN00004:   4   -0.996098   -0.973211  1.00000000
:BAN00005:   5   -0.802244   -0.759553  1.00000000
:BAN00006:   6   -0.802244   -0.759553  1.00000000
:BAN00007:   7   -0.786545   -0.759553  1.00000000
:BAN00008:   8   -0.786545   -0.759553  1.00000000
:BAN00009:   9    0.219169    0.442039  1.00000000
:BAN00010:  10    0.219169    0.442039  1.00000000
:BAN00011:  11    0.414628    0.457354  1.00000000
:BAN00012:  12    0.414628    0.457354  1.00000000
:BAN00013:  13    0.451976    0.460522  0.50000006
:BAN00014:  14    0.451976    0.460522  0.49999993
:BAN00015:  15    0.458901    0.466865  0.00000000
:BAN00016:  16    0.458901    0.466865  0.00000000
:BAN00017:  17    0.460748    0.485337  0.00000000
:BAN00018:  18    0.460748    0.485337  0.00000000
:BAN00019:  19    0.481093    0.490397  0.00000000
        Energy to separate low and high energystates:    0.16917


:NOE  : NUMBER OF ELECTRONS          =   13.000

:FER  : F E R M I - ENERGY(TETRAH.M.)=   0.4578688523
:GMA  : POTENTIAL AND CHARGE CUT-OFF  12.00 Ry**.5

:POS001: ATOM    1 X,Y,Z = 0.00000 0.00000 0.50000  MULT= 1  ZZ= 59.000  Pr        

       LMMAX  5
       LM=   0 0  4 0  4 4  6 0  6 4

:CHA001: TOTAL VALENCE CHARGE INSIDE SPHERE   1 =  10.2171    (RMT=  2.5000 )
:PCS001: PARTIAL CHARGES SPHERE =  1 S,P,D,F,      D-EG,D-T2G 
:QTL001: 2.0207 5.3519 0.4607 2.3836 0.0000 0.0000 0.0000 0.1700 0.2907 0.0000 0.0000 0.0000
        Q-s-low E-s-low   Q-p-low E-p-low   Q-d-low E-d-low   Q-f-low E-f-low
:EPL001:  1.9262 -2.1744    5.2992 -0.8545    0.0005 -0.8323    0.0001 -0.8384
        Q-s-hi  E-s-hi    Q-p-hi  E-p-hi    Q-d-hi  E-d-hi    Q-f-hi  E-f-hi 
:EPH001:  0.0946  0.3626    0.0528  0.3945    0.4602  0.4184    2.3835  0.4504

:CHA  : TOTAL VALENCE CHARGE INSIDE UNIT CELL =      13.000000

:SUM  : SUM OF EIGENVALUES =          -7.345161135


        1.ATOM      Pr                   14 CORE STATES
:1S 001: 1S               -3067.142086321 Ry
:2S 001: 2S                -492.892621812 Ry
:2PP001: 2P*               -465.992428628 Ry
:2P 001: 2P                -430.594694383 Ry
:3S 001: 3S                -105.976083982 Ry
:3PP001: 3P*                -94.514249002 Ry
:3P 001: 3P                 -87.506142914 Ry
:3DD001: 3D*                -67.434092539 Ry
:3D 001: 3D                 -65.922417406 Ry
:4S 001: 4S                 -20.654267791 Ry
:4PP001: 4P*                -16.361470485 Ry
:4P 001: 4P                 -14.834584481 Ry
:4DD001: 4D*                 -7.768696116 Ry
:4D 001: 4D                  -7.499483381 Ry
:CINT001 Core Integral Atom   1   45.999515

       DENSITY AT NUCLEUS
        JATOM        VALENCE       SEMI-CORE          CORE           TOTAL
:RTO001:   1      646.993832        0.000000   656824.812409   657471.806241
     
       CHARGES OF NEW CHARGE DENSITY
:NTO   : INTERSTITIAL CHARGE =     2.782933
:NPC   : PW Pseudocharge     =     7.469056
:NTO001: CHARGE SPHERE  1    =    56.216582

:NEC01: NUCLEAR AND ELECTRONIC CHARGE     59.00000    58.99951
     
       CHARGES OF OLD CHARGE DENSITY
:OTO   : INTERSTITIAL CHARGE =     2.967170
:OPC   : PW Pseudocharge     =     7.537236
:OTO001: CHARGE SPHERE  1    =    56.032830

:NEC02: NUCLEAR AND ELECTRONIC CHARGE     59.00000    59.00000
     
       CONVERGENCE TEST
:DTO001: DIFFERENCE IN SPHERE  1 =  0.3157272

:DIS  :  CHARGE DISTANCE       ( 0.3157272 for atom    1 spin 1)      0.3157272
 PW Mixed is           59
 
******************************************************
* MULTISECANT MIXING VER9 RELEASE 10.4.0              *
* Standard Mode with controls                        *
* Fixed density scale                                *
* Restart from converged density                     *
* Regularization       1.000E-04                     *
* Trust Upper Limit    5.000E+00                     *
* Max Number of Memory Steps    8                    *
******************************************************
 
:INFO : Forcing a restart
:PWTMP   2.1827E+02  1.2500E+02  2.8372E+02
:PLANE:  PW TOTAL      2.7583 DISTAN   3.60E-02  1.31E+00 %
:CHARG:  CLM/ATOM    977.1799 DISTAN   3.84E-01  3.93E-02 %
 
Step History
        DMIX         DMIXT        Red     Pred      Trust     Lambda    MagRel    MagAbs     Beta
  1   3.5000E-02   3.5000E-02 -1.00E+00  1.00E+00 -1.00E+01  1.00E+00  3.50E-02  3.50E-02  1.00E+00
:INFO :  Note, Pratt in use
:TRUST:  Step 1.75E-01  Charge 7.50E-02 (e) CTO  2.50E-01 (e) PW  3.50E-01 (e)
:DIRM :  MEMORY  0/ 8 SCALE   1.000
Performing Pseudo Compensation
Final Pseudo Compensation Rescaling     1.00000E+00
:MIX  :   PRATT  REGULARIZATION:  1.00E-04 GREED: 0.11636                  
     
       CHARGES OF MIXED CHARGE DENSITY
:CTO   : INTERSTITIAL CHARGE =     2.945788
:CPC   : PW Pseudocharge     =     7.504262
:CTO001: CHARGE SPHERE  1    =    56.054212

:NEC03: NUCLEAR AND ELECTRONIC CHARGE     59.00000    59.00000

PW CHANGE     H    K    L      Current       Change    Residue
:PTO001:      0    0    0  3.68316994E-02 -1.916E-04 -8.834E-04
:PTO002:     -1   -1   -1 -1.22502126E-01  4.797E-04  3.675E-04
:PTO003:      0    0   -2  7.39791240E-02 -2.575E-04  1.519E-04
:PTO004:      0   -2   -2  6.86335136E-02 -2.897E-04 -3.468E-04
:PTO005:     -1   -1   -3 -7.06329294E-02  2.227E-04 -9.520E-05
:PTO006:     -2   -2   -2  1.85875220E-02 -5.351E-05  3.047E-05
:PTO007:      0    0   -4  4.33086447E-03  1.164E-05  1.270E-04
:PTO008:     -1   -3   -3 -5.98884346E-03 -1.687E-05  1.910E-04
:PTO009:      0   -2   -4  2.75734172E-03  3.601E-05 -1.015E-04
:PTO010:     -2   -2   -4 -4.63072109E-03  6.564E-05  8.640E-05
:PTO011:     -3   -3   -3  2.35410789E-03 -2.633E-05 -9.866E-05
:PTO012:     -1   -1   -5  6.53913665E-03 -6.097E-05 -1.412E-04

:ENE  : ********** TOTAL ENERGY IN Ry =       -18472.08890881

 Flat Integration
 New Mode for Coulomb Integral
 Consistent 3/8+Simpson combinations
 Extension of core to zero
 LDM version in phi
 Fifth-order quadrature in outwin


            ---------
:ITE016: 16. ITERATION
            ---------

:NATO :    1 INDEPENDENT AND    1 TOTAL ATOMS IN UNITCELL
       SUBSTANCE: blebleble                                                   

       LATTICE                      = F   
:POT  : POTENTIAL OPTION EX_LDA EC_LDA VX_LDA VC_LDA
:LAT  : LATTICE CONSTANTS= 10.43083 10.43083 10.43083    1.571    1.571    1.571
:VOL  : UNIT CELL VOLUME =     283.72435
       MODE OF CALCULATION IS       = RELA
       NON-SPINPOLARIZED CALCULATION
:IFFT  : FFT-parameters:   80   80   80 Factor: 2.00


   CONVERGENCE PARAMETER FOR PSEUDOCHARGE: NCON=  9
   MAXIMAL VALUE OF RMT(JATOM)*ABSK(NKK) : RK  =29.96737


:VKCOUL :  VK-COUL convergence: 0.328E-06
       ATOMNUMBER=  1 Pr         VCOUL-ZERO =  0.10968E+00
:FIT001: LUSE= 13 SIGMA OF V-XC FIT FOR ATOM  1  0.4844795E-04
:FIT001: LUSE= 13 SIGMA OF V-XC FIT FOR ATOM  1  0.4844795E-04
:DEN  : DENSITY INTEGRAL  =         -7066.89419472   (Ry)
       ELS_POTENTIAL_AT Z=0 and Z=0.5:  -2.33169  -2.33169
       ELS_POTENTIAL_AT Y=0 and Y=0.5:   0.00000   0.00000
:VZERO:v0,v0c,v0x  -3.26047  -2.33169  -0.92878 v5,v5c,v5x  -3.26047  -2.33169  -0.92878
:VZERY:v0,v0c,v0x  -0.66328   0.00000  -0.66328 v5,v5c,v5x  -0.66328   0.00000  -0.66328
:VZERX:v0,v0c,v0x  -0.66328   0.00000  -0.66328 v5,v5c,v5x  -0.66328   0.00000  -0.66328
:LMAX-WF:   10   Non-Spherical LMAX:   4

          ATOMIC SPHERE DEPENDENT PARAMETERS FOR ATOM  Pr        
:e__0001: OVERALL ENERGY PARAMETER IS    0.2607
          OVERALL BASIS SET ON ATOM IS LAPW
:E0_0001: E( 0)=    0.2607
             APW+lo
:E0_0001: E( 0)=   -2.2086   E(BOTTOM)=   -2.592   E(TOP)=   -1.825  4  5   159
             LOCAL ORBITAL
:E1_0001: E( 1)=    0.6607
             APW+lo
:E1_0001: E( 1)=   -0.8233   E(BOTTOM)=   -1.473   E(TOP)=   -0.174  3  4   163
             LOCAL ORBITAL
:E3_0001: E( 3)=    0.4801   E(BOTTOM)=    0.334   E(TOP)=    0.626  0  1   119
             APW+lo
:E2_0001: E( 2)=    0.2607   E(BOTTOM)=    0.100   E(TOP)= -200.000  2 -1    98
             APW+lo

       K=   0.00000   0.00000   0.00000            1
:RKM  : MATRIX SIZE   189LOs:  20  RKM= 7.82  WEIGHT= 1.00  PGR:    
       EIGENVALUES ARE:
:EIG00001:      -2.1642495   -0.8154130   -0.8154130   -0.8154130    0.2189461
:EIG00006:       0.4843451    0.4979659    0.4979659    0.4979659    0.5177703
:EIG00011:       0.5177703    0.5177703    0.5923102    0.5923102    0.5923102
:EIG00016:       0.7355707    0.7355707    1.1233920    1.3212455    1.3212455
:EIG00021:       1.3212455    1.4245099    1.9806778    1.9806778    1.9806778
:EIG00026:       2.0239889    2.0239889    2.0239889    2.2602294    2.2602294
:EIG00031:       2.5426373    2.7266981    2.7266981    2.7266981    3.1302391
:EIG00036:       3.1302391    3.3544715    3.3544715    3.3544715    3.3839368
:EIG00041:       3.3839368    3.3839368    3.5571728    3.5571728    3.5571728
:EIG00046:       3.7321827    3.8026712    3.8026712    3.8026712    3.8958460
 
:EIG00051:       3.8958460    3.8992975    3.8992975    3.8992975    3.9089845
:EIG00056:       3.9089845    3.9089845    4.0083917    4.0774104    4.2045908
:EIG00061:       4.2045908    4.2045908    4.2567607    4.2567607    4.2567607
:EIG00066:       4.4192195    5.4197640    5.4197640    5.4393180    5.6798084
:EIG00071:       5.6798084    5.6798084    6.0755798    6.0755798    6.2237262
:EIG00076:       6.2237262    6.2237262    6.2985962    6.2985962    6.2985962
:EIG00081:       6.5991711    6.5991711    6.5991711    6.6279768    6.6279768
:EIG00086:       6.6279768    6.6728040    6.6728040    6.7228818    6.7228818
:EIG00091:       6.7228818    6.8199301    6.8199301    6.8199301    6.8279740
:EIG00096:       6.8279740    6.8279740    6.8764953    6.9907592    7.0051494
 
:EIG00101:       7.0051494    7.0805227    7.0805227    7.0805227    7.1099332
:EIG00106:       7.1099332    7.1099332    7.1141034    7.1141034    7.1141034
:EIG00111:       7.1775522    7.1775522    7.3773103    7.4280651    7.7100626
:EIG00116:       7.7100626    7.7100626
       ********************************************************

:KPT   :      NUMBER OF K-POINTS:   165
   0.0   0.0 angle (M,z), angle (M,x) deg
 
        SPIN-ORBIT EIGENVALUES:
     K=   0.00000   0.00000   0.00000            1
      MATRIX SIZE=  234   WEIGHT= 1.00
     EIGENVALUES ARE:
          -2.1642495   -2.1642495   -0.9602126   -0.9602126   -0.7476612
          -0.7476612   -0.7476612   -0.7476612    0.2189461    0.2189461
           0.4791018    0.4791018    0.4867233    0.4867233    0.4867233
           0.4867233    0.5095217    0.5095217    0.5188250    0.5188250
           0.5252321    0.5252321    0.5252321    0.5252321    0.5886801
           0.5886801    0.5886801    0.5886801    0.5983605    0.5983605
           0.7359725    0.7359725    0.7359725    0.7359725    1.1234449
           1.1234449    1.3158411    1.3158411    1.3236778    1.3236778

           1.3236778    1.3236778    1.4245099    1.4245099    1.9587459
           1.9587459    1.9759591    1.9759591    1.9759591    1.9759591
           1.9896294    1.9896294    2.0575652    2.0575652    2.0575652
           2.0575652    2.2605090    2.2605090    2.2605090    2.2605090
           2.5426373    2.5426373    2.7262593    2.7262593    2.7269317
           2.7269317    2.7269317    2.7269317    3.1302175    3.1302175
           3.1302175    3.1302175    3.3532028    3.3532028    3.3532028
           3.3532028    3.3565953    3.3565953    3.3572375    3.3572375

           3.3988073    3.3988073    3.3988073    3.3988073    3.5571663
           3.5571663    3.5571760    3.5571760    3.5571760    3.5571760
           3.7321827    3.7321827    3.8026344    3.8026344    3.8026344
           3.8026344    3.8027492    3.8027492    3.8958460    3.8958460
           3.8958460    3.8958460    3.8991477    3.8991477    3.8993317
           3.8993317    3.8993317    3.8993317    3.9086843    3.9086843
           3.9086843    3.9086843    3.9096792    3.9096792    4.0083994
           4.0083994    4.0774104    4.0774104    4.2045339    4.2045339

           4.2045339    4.2045339    4.2047082    4.2047082    4.2559784
           4.2559784    4.2571979    4.2571979    4.2571979    4.2571979
           4.4192231    4.4192231
       ********************************************************
:GAP (global)   :    0.0    Ry =     0.0   eV (metal)
:GAP (this spin):    0.0    Ry =     0.0   eV (metal)
         Bandranges (emin - emax) and occupancy:
:BAN00004:   4   -0.983650   -0.960213  1.00000000
:BAN00005:   5   -0.791261   -0.747661  1.00000000
:BAN00006:   6   -0.791261   -0.747661  1.00000000
:BAN00007:   7   -0.775244   -0.747661  1.00000000
:BAN00008:   8   -0.775244   -0.747661  1.00000000
:BAN00009:   9    0.218946    0.454536  1.00000000
:BAN00010:  10    0.218946    0.454536  1.00000000
:BAN00011:  11    0.416293    0.482091  1.00000000
:BAN00012:  12    0.416293    0.482091  1.00000000
:BAN00013:  13    0.473776    0.488419  0.50000006
:BAN00014:  14    0.473776    0.488419  0.49999994
:BAN00015:  15    0.486030    0.490138  0.00000000
:BAN00016:  16    0.486030    0.490138  0.00000000
:BAN00017:  17    0.488868    0.511835  0.00000000
:BAN00018:  18    0.488869    0.511835  0.00000000
:BAN00019:  19    0.504885    0.518825  0.00000000
        Energy to separate low and high energystates:    0.16895


:NOE  : NUMBER OF ELECTRONS          =   13.000

:FER  : F E R M I - ENERGY(TETRAH.M.)=   0.4833870724
:GMA  : POTENTIAL AND CHARGE CUT-OFF  12.00 Ry**.5

:POS001: ATOM    1 X,Y,Z = 0.00000 0.00000 0.50000  MULT= 1  ZZ= 59.000  Pr        

       LMMAX  5
       LM=   0 0  4 0  4 4  6 0  6 4

:CHA001: TOTAL VALENCE CHARGE INSIDE SPHERE   1 =   9.7964    (RMT=  2.5000 )
:PCS001: PARTIAL CHARGES SPHERE =  1 S,P,D,F,      D-EG,D-T2G 
:QTL001: 2.0233 5.3620 0.6145 1.7964 0.0000 0.0000 0.0000 0.2165 0.3980 0.0000 0.0000 0.0000
        Q-s-low E-s-low   Q-p-low E-p-low   Q-d-low E-d-low   Q-f-low E-f-low
:EPL001:  1.9251 -2.1585    5.2889 -0.8428    0.0005 -0.8208    0.0001 -0.8269
        Q-s-hi  E-s-hi    Q-p-hi  E-p-hi    Q-d-hi  E-d-hi    Q-f-hi  E-f-hi 
:EPH001:  0.0982  0.3674    0.0731  0.4162    0.6140  0.4347    1.7963  0.4731

:CHA  : TOTAL VALENCE CHARGE INSIDE UNIT CELL =      13.000000

:SUM  : SUM OF EIGENVALUES =          -7.180272035


        1.ATOM      Pr                   14 CORE STATES
:1S 001: 1S               -3067.089962926 Ry
:2S 001: 2S                -492.840376429 Ry
:2PP001: 2P*               -465.940209018 Ry
:2P 001: 2P                -430.542466456 Ry
:3S 001: 3S                -105.924929090 Ry
:3PP001: 3P*                -94.462989997 Ry
:3P 001: 3P                 -87.455078449 Ry
:3DD001: 3D*                -67.382674478 Ry
:3D 001: 3D                 -65.871047143 Ry
:4S 001: 4S                 -20.613458440 Ry
:4PP001: 4P*                -16.321316126 Ry
:4P 001: 4P                 -14.795441379 Ry
:4DD001: 4D*                 -7.731360650 Ry
:4D 001: 4D                  -7.462494543 Ry
:CINT001 Core Integral Atom   1   45.999505

       DENSITY AT NUCLEUS
        JATOM        VALENCE       SEMI-CORE          CORE           TOTAL
:RTO001:   1      646.110012        0.000000   656822.676241   657468.786254
     
       CHARGES OF NEW CHARGE DENSITY
:NTO   : INTERSTITIAL CHARGE =     3.203605
:NPC   : PW Pseudocharge     =     7.599174
:NTO001: CHARGE SPHERE  1    =    55.795900

:NEC01: NUCLEAR AND ELECTRONIC CHARGE     59.00000    58.99950
     
       CHARGES OF OLD CHARGE DENSITY
:OTO   : INTERSTITIAL CHARGE =     2.945788
:OPC   : PW Pseudocharge     =     7.504262
:OTO001: CHARGE SPHERE  1    =    56.054212

:NEC02: NUCLEAR AND ELECTRONIC CHARGE     59.00000    59.00000
     
       CONVERGENCE TEST
:DTO001: DIFFERENCE IN SPHERE  1 =  0.4269425

:DIS  :  CHARGE DISTANCE       ( 0.4269425 for atom    1 spin 1)      0.4269425
 PW Mixed is           59
 
******************************************************
* MULTISECANT MIXING VER9 RELEASE 10.4.0              *
* Standard Mode with controls                        *
* Fixed density scale                                *
* Restart from converged density                     *
* Regularization       1.000E-04                     *
* Trust Upper Limit    5.000E+00                     *
* Max Number of Memory Steps    8                    *
******************************************************
 
:INFO : Forcing a restart
:PWTMP   2.1827E+02  1.2500E+02  2.8372E+02
:PLANE:  PW TOTAL      2.7468 DISTAN   5.02E-02  1.83E+00 %
:CHARG:  CLM/ATOM    977.1821 DISTAN   4.62E-01  4.72E-02 %
 
Step History
        DMIX         DMIXT        Red     Pred      Trust     Lambda    MagRel    MagAbs     Beta
  1   3.5000E-02   3.5000E-02 -1.00E+00  1.00E+00 -1.00E+01  1.00E+00  3.50E-02  3.50E-02  1.00E+00
  2   1.1636E-01   1.1636E-01 -1.00E+00  1.00E+00 -1.00E+01  1.00E+00  1.16E-01  4.49E-02  1.00E+00
:JACOBIANS    6.695E-04   2.534E-02
  
:NORMS:  1/Froebius, Min, Max, Used   0.3810E-02  0.3810E-02  0.5190E-01  0.3810E-02
:INFO :  Number of Memory Steps    1 Skipping    0
:PREDicted Charge, CTotal, PW Trust    9.421E-03   9.421E-03   1.055E-02
:PREDicted DMix, Beta, BLim   1.9394E-02  4.4060E-01  6.7382E-01

Eigenvalues, unscaled except for SY+YY
   #     SY Real        SY Imag          SS             YY         SY+YY Real      SY+YY Imag
   1   5.190246E-02   0.000000E+00   3.810471E-03   1.000000E+00   1.051902E+00   0.000000E+00
 
:DLIM :  Beta Active  8.000E-01
:BLIM :  VZERO Control Off
:TRUST:  Step 3.00E+00  Charge 6.82E-02 (e) CTO  2.27E-01 (e) PW  3.18E-01 (e)
:DIRM :  MEMORY  1/8  SCALE   1.000 RED  1.20 PRED  1.00 NEXT  0.47 BETA  0.80
:TRAVE:  Charge 1.01E-02 (e) CTO  1.01E-02 (e) PW  1.11E-02 (e)
:DIRP :  |MSR1|= 5.274E-03 |PRATT|= 5.025E-02 ANGLE=  44.8 DEGREES
:DIRQ :  |MSR1|= 1.709E-02 |PRATT|= 4.617E-01 ANGLE=  28.8 DEGREES
:DIRT :  |MSR1|= 1.789E-02 |PRATT|= 4.644E-01 ANGLE=  31.2 DEGREES
:MIX  :   MSR1   REGULARIZATION:  1.00E-04 GREED: 0.04754  Newton 1.00  0.0385                
     
       CHARGES OF MIXED CHARGE DENSITY
:CTO   : INTERSTITIAL CHARGE =     2.955881
:CPC   : PW Pseudocharge     =     7.519253
:CTO001: CHARGE SPHERE  1    =    56.044119

:NEC03: NUCLEAR AND ELECTRONIC CHARGE     59.00000    59.00000

PW CHANGE     H    K    L      Current       Change    Residue
:PTO001:      0    0    0  3.69201071E-02  8.841E-05  1.249E-03
:PTO002:     -1   -1   -1 -1.22713884E-01 -2.118E-04 -3.278E-04
:PTO003:      0    0   -2  7.40980278E-02  1.189E-04 -1.737E-05
:PTO004:      0   -2   -2  6.87563333E-02  1.228E-04  1.144E-04
:PTO005:     -1   -1   -3 -7.07263329E-02 -9.340E-05  4.197E-04
:PTO006:     -2   -2   -2  1.86110441E-02  2.352E-05 -5.894E-05
:PTO007:      0    0   -4  4.32552799E-03 -5.336E-06 -1.672E-04
:PTO008:     -1   -3   -3 -5.97037398E-03  1.847E-05  2.787E-04
:PTO009:      0   -2   -4  2.72961768E-03 -2.772E-05 -4.255E-04
:PTO010:     -2   -2   -4 -4.66159837E-03 -3.088E-05 -1.814E-04
:PTO011:     -3   -3   -3  2.36289245E-03  8.785E-06 -1.782E-05
:PTO012:     -1   -1   -5  6.56856270E-03  2.943E-05  2.815E-04

:ENE  : ********** TOTAL ENERGY IN Ry =       -18472.09028657

 Flat Integration
 New Mode for Coulomb Integral
 Consistent 3/8+Simpson combinations
 Extension of core to zero
 LDM version in phi
 Fifth-order quadrature in outwin


            ---------
:ITE017: 17. ITERATION
            ---------

:NATO :    1 INDEPENDENT AND    1 TOTAL ATOMS IN UNITCELL
       SUBSTANCE: blebleble                                                   

       LATTICE                      = F   
:POT  : POTENTIAL OPTION EX_LDA EC_LDA VX_LDA VC_LDA
:LAT  : LATTICE CONSTANTS= 10.43083 10.43083 10.43083    1.571    1.571    1.571
:VOL  : UNIT CELL VOLUME =     283.72435
       MODE OF CALCULATION IS       = RELA
       NON-SPINPOLARIZED CALCULATION
:IFFT  : FFT-parameters:   80   80   80 Factor: 2.00


   CONVERGENCE PARAMETER FOR PSEUDOCHARGE: NCON=  9
   MAXIMAL VALUE OF RMT(JATOM)*ABSK(NKK) : RK  =29.96737


:VKCOUL :  VK-COUL convergence: 0.330E-06
       ATOMNUMBER=  1 Pr         VCOUL-ZERO =  0.10968E+00
:FIT001: LUSE= 13 SIGMA OF V-XC FIT FOR ATOM  1  0.4899094E-04
:FIT001: LUSE= 13 SIGMA OF V-XC FIT FOR ATOM  1  0.4899094E-04
:DEN  : DENSITY INTEGRAL  =         -7065.81744213   (Ry)
       ELS_POTENTIAL_AT Z=0 and Z=0.5:  -2.33836  -2.33836
       ELS_POTENTIAL_AT Y=0 and Y=0.5:   0.00000   0.00000
:VZERO:v0,v0c,v0x  -3.26770  -2.33836  -0.92933 v5,v5c,v5x  -3.26770  -2.33836  -0.92933
:VZERY:v0,v0c,v0x  -0.66390   0.00000  -0.66390 v5,v5c,v5x  -0.66390   0.00000  -0.66390
:VZERX:v0,v0c,v0x  -0.66390   0.00000  -0.66390 v5,v5c,v5x  -0.66390   0.00000  -0.66390
:LMAX-WF:   10   Non-Spherical LMAX:   4

          ATOMIC SPHERE DEPENDENT PARAMETERS FOR ATOM  Pr        
:e__0001: OVERALL ENERGY PARAMETER IS    0.2758
          OVERALL BASIS SET ON ATOM IS LAPW
:E0_0001: E( 0)=    0.2758
             APW+lo
:E0_0001: E( 0)=   -2.2160   E(BOTTOM)=   -2.598   E(TOP)=   -1.834  4  5   157
             LOCAL ORBITAL
:E1_0001: E( 1)=    0.6758
             APW+lo
:E1_0001: E( 1)=   -0.8297   E(BOTTOM)=   -1.478   E(TOP)=   -0.182  3  4   163
             LOCAL ORBITAL
:E3_0001: E( 3)=    0.4670   E(BOTTOM)=    0.323   E(TOP)=    0.611  0  1   117
             APW+lo
:E2_0001: E( 2)=    0.2758   E(BOTTOM)=    0.097   E(TOP)= -200.000  2 -1    92
             APW+lo

       K=   0.00000   0.00000   0.00000            1
:RKM  : MATRIX SIZE   189LOs:  20  RKM= 7.82  WEIGHT= 1.00  PGR:    
       EIGENVALUES ARE:
:EIG00001:      -2.1715624   -0.8211308   -0.8211308   -0.8211308    0.2190516
:EIG00006:       0.4722927    0.4852303    0.4852303    0.4852303    0.5043223
:EIG00011:       0.5043223    0.5043223    0.5907919    0.5907919    0.5907919
:EIG00016:       0.7333152    0.7333152    1.1223877    1.3208697    1.3208697
:EIG00021:       1.3208697    1.4257539    1.9783259    1.9783259    1.9783259
:EIG00026:       2.0224832    2.0224832    2.0224832    2.2586675    2.2586675
:EIG00031:       2.5417172    2.7262737    2.7262737    2.7262737    3.1289014
:EIG00036:       3.1289014    3.3534836    3.3534836    3.3534836    3.3840269
:EIG00041:       3.3840269    3.3840269    3.5568370    3.5568370    3.5568370
:EIG00046:       3.7316406    3.8031291    3.8031291    3.8031291    3.8966209
 
:EIG00051:       3.8966209    3.8998237    3.8998237    3.8998237    3.9094024
:EIG00056:       3.9094024    3.9094024    4.0090995    4.0772677    4.2055817
:EIG00061:       4.2055817    4.2055817    4.2575346    4.2575346    4.2575346
:EIG00066:       4.4201057    5.4188401    5.4188401    5.4388386    5.6797391
:EIG00071:       5.6797391    5.6797391    6.0714270    6.0714270    6.2192025
:EIG00076:       6.2192025    6.2192025    6.2967987    6.2967987    6.2967987
:EIG00081:       6.5971625    6.5971625    6.5971625    6.6272763    6.6272763
:EIG00086:       6.6272763    6.6731261    6.6731261    6.7230282    6.7230282
:EIG00091:       6.7230282    6.8194773    6.8194773    6.8194773    6.8278846
:EIG00096:       6.8278846    6.8278846    6.8762298    6.9911125    7.0037801
 
:EIG00101:       7.0037801    7.0810879    7.0810879    7.0810879    7.1109511
:EIG00106:       7.1109511    7.1109511    7.1146056    7.1146056    7.1146056
:EIG00111:       7.1779993    7.1779993    7.3787137    7.4268305    7.7112723
:EIG00116:       7.7112723    7.7112723
       ********************************************************

:KPT   :      NUMBER OF K-POINTS:   165
   0.0   0.0 angle (M,z), angle (M,x) deg
 
        SPIN-ORBIT EIGENVALUES:
     K=   0.00000   0.00000   0.00000            1
      MATRIX SIZE=  234   WEIGHT= 1.00
     EIGENVALUES ARE:
          -2.1715624   -2.1715624   -0.9662805   -0.9662805   -0.7532120
          -0.7532120   -0.7532120   -0.7532120    0.2190516    0.2190516
           0.4667926    0.4667926    0.4738032    0.4738032    0.4738032
           0.4738032    0.4968667    0.4968667    0.5056201    0.5056201
           0.5119383    0.5119383    0.5119383    0.5119383    0.5871320
           0.5871320    0.5871320    0.5871320    0.5968821    0.5968821
           0.7337249    0.7337249    0.7337249    0.7337249    1.1224379
           1.1224379    1.3154155    1.3154155    1.3233240    1.3233240

           1.3233240    1.3233240    1.4257539    1.4257539    1.9572137
           1.9572137    1.9735904    1.9735904    1.9735904    1.9735904
           1.9873093    1.9873093    2.0560775    2.0560775    2.0560776
           2.0560776    2.2589488    2.2589488    2.2589488    2.2589488
           2.5417172    2.5417172    2.7258391    2.7258391    2.7265050
           2.7265050    2.7265050    2.7265050    3.1288799    3.1288799
           3.1288799    3.1288799    3.3522130    3.3522130    3.3522130
           3.3522130    3.3562540    3.3562540    3.3567165    3.3567165

           3.3988789    3.3988789    3.3988789    3.3988789    3.5568305
           3.5568305    3.5568403    3.5568403    3.5568403    3.5568403
           3.7316407    3.7316407    3.8030919    3.8030919    3.8030919
           3.8030919    3.8032079    3.8032079    3.8966209    3.8966209
           3.8966209    3.8966209    3.8996755    3.8996755    3.8998575
           3.8998575    3.8998575    3.8998575    3.9091045    3.9091045
           3.9091045    3.9091045    3.9100919    3.9100919    4.0091070
           4.0091070    4.0772677    4.0772677    4.2055248    4.2055248

           4.2055248    4.2055248    4.2056990    4.2056990    4.2567526
           4.2567526    4.2579713    4.2579713    4.2579713    4.2579713
           4.4201092    4.4201092
       ********************************************************
:GAP (global)   :    0.0    Ry =     0.0   eV (metal)
:GAP (this spin):    0.0    Ry =     0.0   eV (metal)
         Bandranges (emin - emax) and occupancy:
:BAN00004:   4   -0.989460   -0.966280  1.00000000
:BAN00005:   5   -0.796386   -0.753212  1.00000000
:BAN00006:   6   -0.796386   -0.753212  1.00000000
:BAN00007:   7   -0.780517   -0.753212  1.00000000
:BAN00008:   8   -0.780517   -0.753212  1.00000000
:BAN00009:   9    0.219052    0.449880  1.00000000
:BAN00010:  10    0.219052    0.449880  1.00000000
:BAN00011:  11    0.415523    0.469998  1.00000000
:BAN00012:  12    0.415523    0.469998  1.00000000
:BAN00013:  13    0.464078    0.475502  0.50000009
:BAN00014:  14    0.464078    0.475502  0.49999991
:BAN00015:  15    0.473801    0.478191  0.00000000
:BAN00016:  16    0.473801    0.478191  0.00000000
:BAN00017:  17    0.475790    0.499653  0.00000000
:BAN00018:  18    0.475790    0.499653  0.00000000
:BAN00019:  19    0.494116    0.505620  0.00000000
        Energy to separate low and high energystates:    0.16905


:NOE  : NUMBER OF ELECTRONS          =   13.000

:FER  : F E R M I - ENERGY(TETRAH.M.)=   0.4717072333
:GMA  : POTENTIAL AND CHARGE CUT-OFF  12.00 Ry**.5

:POS001: ATOM    1 X,Y,Z = 0.00000 0.00000 0.50000  MULT= 1  ZZ= 59.000  Pr        

       LMMAX  5
       LM=   0 0  4 0  4 4  6 0  6 4

:CHA001: TOTAL VALENCE CHARGE INSIDE SPHERE   1 =   9.9836    (RMT=  2.5000 )
:PCS001: PARTIAL CHARGES SPHERE =  1 S,P,D,F,      D-EG,D-T2G 
:QTL001: 2.0224 5.3572 0.5463 2.0575 0.0000 0.0000 0.0000 0.1954 0.3510 0.0000 0.0000 0.0000
        Q-s-low E-s-low   Q-p-low E-p-low   Q-d-low E-d-low   Q-f-low E-f-low
:EPL001:  1.9256 -2.1659    5.2937 -0.8483    0.0005 -0.8262    0.0001 -0.8323
        Q-s-hi  E-s-hi    Q-p-hi  E-p-hi    Q-d-hi  E-d-hi    Q-f-hi  E-f-hi 
:EPH001:  0.0968  0.3654    0.0635  0.4067    0.5458  0.4276    2.0574  0.4628

:CHA  : TOTAL VALENCE CHARGE INSIDE UNIT CELL =      13.000000

:SUM  : SUM OF EIGENVALUES =          -7.255012077


        1.ATOM      Pr                   14 CORE STATES
:1S 001: 1S               -3067.114618510 Ry
:2S 001: 2S                -492.864989853 Ry
:2PP001: 2P*               -465.964832218 Ry
:2P 001: 2P                -430.567085364 Ry
:3S 001: 3S                -105.948852821 Ry
:3PP001: 3P*                -94.486971899 Ry
:3P 001: 3P                 -87.478960507 Ry
:3DD001: 3D*                -67.406746552 Ry
:3D 001: 3D                 -65.895093585 Ry
:4S 001: 4S                 -20.632445878 Ry
:4PP001: 4P*                -16.339998989 Ry
:4P 001: 4P                 -14.813651292 Ry
:4DD001: 4D*                 -7.748729779 Ry
:4D 001: 4D                  -7.479701864 Ry
:CINT001 Core Integral Atom   1   45.999510

       DENSITY AT NUCLEUS
        JATOM        VALENCE       SEMI-CORE          CORE           TOTAL
:RTO001:   1      646.617804        0.000000   656823.711610   657470.329414
     
       CHARGES OF NEW CHARGE DENSITY
:NTO   : INTERSTITIAL CHARGE =     3.016381
:NPC   : PW Pseudocharge     =     7.540917
:NTO001: CHARGE SPHERE  1    =    55.983128

:NEC01: NUCLEAR AND ELECTRONIC CHARGE     59.00000    58.99951
     
       CHARGES OF OLD CHARGE DENSITY
:OTO   : INTERSTITIAL CHARGE =     2.955881
:OPC   : PW Pseudocharge     =     7.519253
:OTO001: CHARGE SPHERE  1    =    56.044119

:NEC02: NUCLEAR AND ELECTRONIC CHARGE     59.00000    59.00000
     
       CONVERGENCE TEST
:DTO001: DIFFERENCE IN SPHERE  1 =  0.0975589

:DIS  :  CHARGE DISTANCE       ( 0.0975589 for atom    1 spin 1)      0.0975589
 PW Mixed is           59
 
******************************************************
* MULTISECANT MIXING VER9 RELEASE 10.4.0              *
* Standard Mode with controls                        *
* Fixed density scale                                *
* Regularization       1.000E-04                     *
* Trust Upper Limit    5.000E+00                     *
* Max Number of Memory Steps    8                    *
******************************************************
 
:PWTMP   2.1827E+02  1.2500E+02  2.8372E+02
:PLANE:  PW TOTAL      2.7520 DISTAN   1.25E-02  4.55E-01 %
:CHARG:  CLM/ATOM    977.1807 DISTAN   1.95E-01  1.99E-02 %
 
Step History
        DMIX         DMIXT        Red     Pred      Trust     Lambda    MagRel    MagAbs     Beta
  1   3.5000E-02   3.5000E-02 -1.00E+00  1.00E+00 -1.00E+01  1.00E+00  3.50E-02  3.50E-02  1.00E+00
  2   1.1636E-01   1.1636E-01  1.20E+00  1.00E+00 -1.00E+01  1.00E+00  1.16E-01  4.49E-02  1.00E+00
  3   4.7538E-02   4.7538E-02 -1.00E+00  4.68E-01  3.00E+00  1.00E+00  3.85E-02  1.79E-02  8.00E-01
:JACOBIANS    1.103E-03   2.046E-01
  
:NORMS:  1/Froebius, Min, Max, Used   0.6536E-01  0.6163E-01  0.3328E+00  0.7818E-01
:INFO :  Number of Memory Steps    2 Skipping    0
:INFO :  SLambda=    3.0000000000  Max    3.0000000000
:PREDicted Charge, CTotal, PW Trust    1.675E-02   1.675E-02   1.680E-02
:PREDicted DMix, Beta, BLim   3.2741E-01  2.3886E+00  3.3721E-01

Eigenvalues, unscaled except for SY+YY
   #     SY Real        SY Imag          SS             YY         SY+YY Real      SY+YY Imag
   1   1.028504E-01   0.000000E+00   7.555610E-03   1.989279E+00   2.297966E+00   0.000000E+00
   2   3.629679E-03   0.000000E+00   9.888282E-04   1.072119E-02   2.147399E-02   0.000000E+00
 
:INFO :  Singular value  2.298E+00 Weight  1.000E+00 Projection  5.366E-02
:INFO :  Singular value  2.147E-02 Weight  9.999E-01 Projection -1.668E+00
:RANK :  ACTIVE   2.00/2  = 100.00 % ; YY RANK   2.00/2  =  99.98 %
 
:BLIM :  VZERO Control Off
:TRUST:  Step 7.28E-01  Charge 6.82E-02 (e) CTO  2.27E-01 (e) PW  3.18E-01 (e)
:DIRM :  MEMORY  2/8  SCALE   1.000 RED  0.42 PRED  0.47 NEXT  0.29 
:TRAVE:  Charge 8.29E-03 (e) CTO  8.29E-03 (e) PW  8.27E-03 (e)
:DIRP :  |MSR1|= 2.448E-03 |PRATT|= 1.252E-02 ANGLE=  28.4 DEGREES
:DIRQ :  |MSR1|= 5.903E-02 |PRATT|= 1.947E-01 ANGLE=  21.3 DEGREES
:DIRT :  |MSR1|= 5.908E-02 |PRATT|= 1.951E-01 ANGLE=  21.4 DEGREES
:MIX  :   MSE1   REGULARIZATION:  1.99E-04 GREED: 0.11884  Newton 1.00  0.3029                
     
       CHARGES OF MIXED CHARGE DENSITY
:CTO   : INTERSTITIAL CHARGE =     2.962361
:CPC   : PW Pseudocharge     =     7.525235
:CTO001: CHARGE SPHERE  1    =    56.037639

:NEC03: NUCLEAR AND ELECTRONIC CHARGE     59.00000    59.00000

PW CHANGE     H    K    L      Current       Change    Residue
:PTO001:      0    0    0  3.69640308E-02  4.392E-05  2.956E-04
:PTO002:     -1   -1   -1 -1.22760448E-01 -4.656E-05 -2.319E-05
:PTO003:      0    0   -2  7.41440541E-02  4.603E-05  3.042E-05
:PTO004:      0   -2   -2  6.87392014E-02 -1.713E-05 -8.807E-05
:PTO005:     -1   -1   -3 -7.06857774E-02  4.056E-05  2.111E-04
:PTO006:     -2   -2   -2  1.86045956E-02 -6.448E-06 -3.118E-05
:PTO007:      0    0   -4  4.31902715E-03 -6.501E-06 -4.106E-05
:PTO008:     -1   -3   -3 -5.88491472E-03  8.546E-05  2.239E-04
:PTO009:      0   -2   -4  2.64076806E-03 -8.885E-05 -2.596E-04
:PTO010:     -2   -2   -4 -4.69089039E-03 -2.929E-05 -7.009E-05
:PTO011:     -3   -3   -3  2.35125940E-03 -1.163E-05 -4.088E-05
:PTO012:     -1   -1   -5  6.59506189E-03  2.650E-05  9.268E-05

:ENE  : ********** TOTAL ENERGY IN Ry =       -18472.08734121

 Flat Integration
 New Mode for Coulomb Integral
 Consistent 3/8+Simpson combinations
 Extension of core to zero
 LDM version in phi
 Fifth-order quadrature in outwin


            ---------
:ITE018: 18. ITERATION
            ---------

:NATO :    1 INDEPENDENT AND    1 TOTAL ATOMS IN UNITCELL
       SUBSTANCE: blebleble                                                   

       LATTICE                      = F   
:POT  : POTENTIAL OPTION EX_LDA EC_LDA VX_LDA VC_LDA
:LAT  : LATTICE CONSTANTS= 10.43083 10.43083 10.43083    1.571    1.571    1.571
:VOL  : UNIT CELL VOLUME =     283.72435
       MODE OF CALCULATION IS       = RELA
       NON-SPINPOLARIZED CALCULATION
:IFFT  : FFT-parameters:   80   80   80 Factor: 2.00


   CONVERGENCE PARAMETER FOR PSEUDOCHARGE: NCON=  9
   MAXIMAL VALUE OF RMT(JATOM)*ABSK(NKK) : RK  =29.96737


:VKCOUL :  VK-COUL convergence: 0.305E-06
       ATOMNUMBER=  1 Pr         VCOUL-ZERO =  0.10963E+00
:FIT001: LUSE= 13 SIGMA OF V-XC FIT FOR ATOM  1  0.4487900E-04
:FIT001: LUSE= 13 SIGMA OF V-XC FIT FOR ATOM  1  0.4487900E-04
:DEN  : DENSITY INTEGRAL  =         -7065.17230781   (Ry)
       ELS_POTENTIAL_AT Z=0 and Z=0.5:  -2.34185  -2.34185
       ELS_POTENTIAL_AT Y=0 and Y=0.5:   0.00000   0.00000
:VZERO:v0,v0c,v0x  -3.27183  -2.34185  -0.92998 v5,v5c,v5x  -3.27183  -2.34185  -0.92998
:VZERY:v0,v0c,v0x  -0.66428   0.00000  -0.66428 v5,v5c,v5x  -0.66428   0.00000  -0.66428
:VZERX:v0,v0c,v0x  -0.66428   0.00000  -0.66428 v5,v5c,v5x  -0.66428   0.00000  -0.66428
:LMAX-WF:   10   Non-Spherical LMAX:   4

          ATOMIC SPHERE DEPENDENT PARAMETERS FOR ATOM  Pr        
:e__0001: OVERALL ENERGY PARAMETER IS    0.2731
          OVERALL BASIS SET ON ATOM IS LAPW
:E0_0001: E( 0)=    0.2731
             APW+lo
:E0_0001: E( 0)=   -2.2203   E(BOTTOM)=   -2.602   E(TOP)=   -1.839  4  5   160
             LOCAL ORBITAL
:E1_0001: E( 1)=    0.6731
             APW+lo
:E1_0001: E( 1)=   -0.8333   E(BOTTOM)=   -1.481   E(TOP)=   -0.186  3  4   169
             LOCAL ORBITAL
:E3_0001: E( 3)=    0.4596   E(BOTTOM)=    0.316   E(TOP)=    0.603  0  1   116
             APW+lo
:E2_0001: E( 2)=    0.2731   E(BOTTOM)=    0.095   E(TOP)= -200.000  2 -1    94
             APW+lo

       K=   0.00000   0.00000   0.00000            1
:RKM  : MATRIX SIZE   189LOs:  20  RKM= 7.82  WEIGHT= 1.00  PGR:    
       EIGENVALUES ARE:
:EIG00001:      -2.1757488   -0.8244367   -0.8244367   -0.8244367    0.2191441
:EIG00006:       0.4654622    0.4780732    0.4780732    0.4780732    0.4968149
:EIG00011:       0.4968149    0.4968149    0.5898694    0.5898694    0.5898694
:EIG00016:       0.7319922    0.7319922    1.1218651    1.3207485    1.3207485
:EIG00021:       1.3207485    1.4265729    1.9772278    1.9772278    1.9772278
:EIG00026:       2.0216205    2.0216205    2.0216205    2.2580041    2.2580041
:EIG00031:       2.5412297    2.7260160    2.7260160    2.7260160    3.1285808
:EIG00036:       3.1285808    3.3532861    3.3532861    3.3532861    3.3841409
:EIG00041:       3.3841409    3.3841409    3.5567451    3.5567451    3.5567451
:EIG00046:       3.7315031    3.8034695    3.8034695    3.8034695    3.8970641
 
:EIG00051:       3.8970641    3.9001132    3.9001132    3.9001132    3.9096770
:EIG00056:       3.9096770    3.9096770    4.0094912    4.0773358    4.2062436
:EIG00061:       4.2062436    4.2062436    4.2580160    4.2580160    4.2580160
:EIG00066:       4.4206593    5.4189555    5.4189555    5.4389789    5.6798354
:EIG00071:       5.6798354    5.6798354    6.0707029    6.0707029    6.2185075
:EIG00076:       6.2185075    6.2185075    6.2961058    6.2961058    6.2961058
:EIG00081:       6.5971987    6.5971987    6.5971987    6.6274124    6.6274124
:EIG00086:       6.6274124    6.6734042    6.6734042    6.7232529    6.7232529
:EIG00091:       6.7232529    6.8196324    6.8196324    6.8196324    6.8280363
:EIG00096:       6.8280363    6.8280363    6.8765821    6.9913288    7.0039204
 
:EIG00101:       7.0039204    7.0815877    7.0815877    7.0815877    7.1115928
:EIG00106:       7.1115928    7.1115928    7.1151660    7.1151660    7.1151660
:EIG00111:       7.1785950    7.1785950    7.3795473    7.4266649    7.7120351
:EIG00116:       7.7120351    7.7120351
       ********************************************************

:KPT   :      NUMBER OF K-POINTS:   165
   0.0   0.0 angle (M,z), angle (M,x) deg
 
        SPIN-ORBIT EIGENVALUES:
     K=   0.00000   0.00000   0.00000            1
      MATRIX SIZE=  234   WEIGHT= 1.00
     EIGENVALUES ARE:
          -2.1757488   -2.1757488   -0.9697781   -0.9697781   -0.7564242
          -0.7564242   -0.7564242   -0.7564242    0.2191441    0.2191441
           0.4598272    0.4598272    0.4665485    0.4665485    0.4665485
           0.4665485    0.4897542    0.4897542    0.4982400    0.4982400
           0.5045116    0.5045116    0.5045116    0.5045116    0.5861944
           0.5861944    0.5861944    0.5861944    0.5959802    0.5959802
           0.7324061    0.7324061    0.7324061    0.7324061    1.1219140
           1.1219140    1.3152674    1.3152674    1.3232148    1.3232148

           1.3232148    1.3232148    1.4265729    1.4265729    1.9563476
           1.9563476    1.9724937    1.9724937    1.9724937    1.9724937
           1.9862101    1.9862101    2.0552208    2.0552208    2.0552208
           2.0552208    2.2582853    2.2582853    2.2582853    2.2582853
           2.5412297    2.5412297    2.7255837    2.7255837    2.7262462
           2.7262462    2.7262462    2.7262462    3.1285596    3.1285596
           3.1285596    3.1285596    3.3520179    3.3520179    3.3520179
           3.3520179    3.3560511    3.3560511    3.3568623    3.3568623

           3.3989754    3.3989754    3.3989754    3.3989754    3.5567386
           3.5567386    3.5567484    3.5567484    3.5567484    3.5567484
           3.7315031    3.7315031    3.8034321    3.8034321    3.8034321
           3.8034321    3.8035486    3.8035486    3.8970641    3.8970641
           3.8970641    3.8970641    3.8999658    3.8999658    3.9001469
           3.9001469    3.9001469    3.9001469    3.9093802    3.9093802
           3.9093802    3.9093802    3.9103638    3.9103638    4.0094987
           4.0094987    4.0773358    4.0773358    4.2061869    4.2061869

           4.2061869    4.2061869    4.2063606    4.2063606    4.2572356
           4.2572356    4.2584517    4.2584517    4.2584517    4.2584517
           4.4206628    4.4206628
       ********************************************************
:GAP (global)   :    0.0    Ry =     0.0   eV (metal)
:GAP (this spin):    0.0    Ry =     0.0   eV (metal)
         Bandranges (emin - emax) and occupancy:
:BAN00004:   4   -0.992812   -0.969778  1.00000000
:BAN00005:   5   -0.799356   -0.756424  1.00000000
:BAN00006:   6   -0.799356   -0.756424  1.00000000
:BAN00007:   7   -0.783572   -0.756424  1.00000000
:BAN00008:   8   -0.783572   -0.756424  1.00000000
:BAN00009:   9    0.219144    0.446372  1.00000000
:BAN00010:  10    0.219144    0.446372  1.00000000
:BAN00011:  11    0.415037    0.464535  1.00000000
:BAN00012:  12    0.415037    0.464535  1.00000000
:BAN00013:  13    0.458293    0.468235  0.50000007
:BAN00014:  14    0.458293    0.468235  0.49999993
:BAN00015:  15    0.466548    0.472676  0.00000000
:BAN00016:  16    0.466548    0.472676  0.00000000
:BAN00017:  17    0.468476    0.492709  0.00000000
:BAN00018:  18    0.468476    0.492709  0.00000000
:BAN00019:  19    0.487916    0.498240  0.00000000
        Energy to separate low and high energystates:    0.16914


:NOE  : NUMBER OF ELECTRONS          =   13.000

:FER  : F E R M I - ENERGY(TETRAH.M.)=   0.4650658896
:GMA  : POTENTIAL AND CHARGE CUT-OFF  12.00 Ry**.5

:POS001: ATOM    1 X,Y,Z = 0.00000 0.00000 0.50000  MULT= 1  ZZ= 59.000  Pr        

       LMMAX  5
       LM=   0 0  4 0  4 4  6 0  6 4

:CHA001: TOTAL VALENCE CHARGE INSIDE SPHERE   1 =  10.0993    (RMT=  2.5000 )
:PCS001: PARTIAL CHARGES SPHERE =  1 S,P,D,F,      D-EG,D-T2G 
:QTL001: 2.0217 5.3544 0.5041 2.2190 0.0000 0.0000 0.0000 0.1827 0.3214 0.0000 0.0000 0.0000
        Q-s-low E-s-low   Q-p-low E-p-low   Q-d-low E-d-low   Q-f-low E-f-low
:EPL001:  1.9259 -2.1701    5.2964 -0.8514    0.0005 -0.8293    0.0001 -0.8354
        Q-s-hi  E-s-hi    Q-p-hi  E-p-hi    Q-d-hi  E-d-hi    Q-f-hi  E-f-hi 
:EPH001:  0.0958  0.3641    0.0579  0.4006    0.5036  0.4231    2.2189  0.4569

:CHA  : TOTAL VALENCE CHARGE INSIDE UNIT CELL =      13.000000

:SUM  : SUM OF EIGENVALUES =          -7.299248403


        1.ATOM      Pr                   14 CORE STATES
:1S 001: 1S               -3067.131136895 Ry
:2S 001: 2S                -492.880859431 Ry
:2PP001: 2P*               -465.980844535 Ry
:2P 001: 2P                -430.583043820 Ry
:3S 001: 3S                -105.963175250 Ry
:3PP001: 3P*                -94.501389688 Ry
:3P 001: 3P                 -87.493261073 Ry
:3DD001: 3D*                -67.421318487 Ry
:3D 001: 3D                 -65.909629205 Ry
:4S 001: 4S                 -20.643124783 Ry
:4PP001: 4P*                -16.350505552 Ry
:4P 001: 4P                 -14.823871154 Ry
:4DD001: 4D*                 -7.758477261 Ry
:4D 001: 4D                  -7.489353825 Ry
:CINT001 Core Integral Atom   1   45.999512

       DENSITY AT NUCLEUS
        JATOM        VALENCE       SEMI-CORE          CORE           TOTAL
:RTO001:   1      646.819015        0.000000   656824.569903   657471.388919
     
       CHARGES OF NEW CHARGE DENSITY
:NTO   : INTERSTITIAL CHARGE =     2.900731
:NPC   : PW Pseudocharge     =     7.505761
:NTO001: CHARGE SPHERE  1    =    56.098781

:NEC01: NUCLEAR AND ELECTRONIC CHARGE     59.00000    58.99951
     
       CHARGES OF OLD CHARGE DENSITY
:OTO   : INTERSTITIAL CHARGE =     2.962361
:OPC   : PW Pseudocharge     =     7.525235
:OTO001: CHARGE SPHERE  1    =    56.037639

:NEC02: NUCLEAR AND ELECTRONIC CHARGE     59.00000    59.00000
     
       CONVERGENCE TEST
:DTO001: DIFFERENCE IN SPHERE  1 =  0.1063229

:DIS  :  CHARGE DISTANCE       ( 0.1063229 for atom    1 spin 1)      0.1063229
 PW Mixed is           59
 
******************************************************
* MULTISECANT MIXING VER9 RELEASE 10.4.0              *
* Standard Mode with controls                        *
* Fixed density scale                                *
* Regularization       1.000E-04                     *
* Trust Upper Limit    5.000E+00                     *
* Max Number of Memory Steps    8                    *
******************************************************
 
:PWTMP   2.1827E+02  1.2500E+02  2.8372E+02
:PLANE:  PW TOTAL      2.7535 DISTAN   1.16E-02  4.20E-01 %
:CHARG:  CLM/ATOM    977.1776 DISTAN   1.58E-01  1.61E-02 %
 
Step History
        DMIX         DMIXT        Red     Pred      Trust     Lambda    MagRel    MagAbs     Beta
  1   3.5000E-02   3.5000E-02 -1.00E+00  1.00E+00 -1.00E+01  1.00E+00  3.50E-02  3.50E-02  1.00E+00
  2   1.1636E-01   1.1636E-01  1.20E+00  1.00E+00 -1.00E+01  1.00E+00  1.16E-01  4.49E-02  1.00E+00
  3   4.7538E-02   4.7538E-02  4.20E-01  4.68E-01  3.00E+00  3.00E+00  3.85E-02  1.79E-02  8.00E-01
  4   1.1884E-01   1.1884E-01 -1.00E+00  2.88E-01  7.28E-01  1.00E+00  3.03E-01  5.91E-02  1.00E+00
:JACOBIANS    4.194E-03   6.315E-01
  
:NORMS:  1/Froebius, Min, Max, Used   0.2684E+00  0.2473E+00  0.9298E+00  0.2767E+00
:INFO :  Number of Memory Steps    3 Skipping    0
:INFO :  SLambda=    3.0000000000  Max    3.0000000000
:PREDicted Charge, CTotal, PW Trust    4.878E-03   4.878E-03   1.153E-03
:PREDicted DMix, Beta, BLim   3.1968E-01  2.5129E+00  8.5095E-01

Eigenvalues, unscaled except for SY+YY
   #     SY Real        SY Imag          SS             YY         SY+YY Real      SY+YY Imag
   1   2.315396E-01   0.000000E+00   2.092124E-01   2.732227E+00   3.126456E+00   0.000000E+00
   2   1.351803E-01   0.000000E+00   6.853575E-03   2.671912E-01   9.731067E-01   0.000000E+00
   3   6.005548E-05   0.000000E+00   6.190555E-06   5.814265E-04   7.773936E-04   0.000000E+00
 
:INFO :  Singular value  3.129E+00 Weight  1.000E+00 Projection -6.321E-02
:INFO :  Singular value  9.739E-01 Weight  1.000E+00 Projection -2.213E-01
:INFO :  Singular value  7.762E-04 Weight  8.898E-01 Projection  2.782E-01
:RANK :  ACTIVE   2.89/3  =  96.33 % ; YY RANK   2.82/3  =  93.97 %
 
:BLIM :  VZERO Control Off
:TRUST:  Step 1.36E+00  Charge 6.82E-02 (e) CTO  2.27E-01 (e) PW  3.18E-01 (e)
:DIRM :  MEMORY  3/8  SCALE   1.000 RED  0.81 PRED  0.29 NEXT  0.04 
:TRAVE:  Charge 4.93E-03 (e) CTO  4.93E-03 (e) PW  5.78E-03 (e)
:DIRP :  |MSR1|= 3.498E-03 |PRATT|= 1.157E-02 ANGLE=  64.3 DEGREES
:DIRQ :  |MSR1|= 8.881E-02 |PRATT|= 1.575E-01 ANGLE=  39.2 DEGREES
:DIRT :  |MSR1|= 8.888E-02 |PRATT|= 1.580E-01 ANGLE=  39.3 DEGREES
:MIX  :   MSE1   REGULARIZATION:  2.73E-04 GREED: 0.20496  Newton 1.00  0.5626                
     
       CHARGES OF MIXED CHARGE DENSITY
:CTO   : INTERSTITIAL CHARGE =     2.960784
:CPC   : PW Pseudocharge     =     7.519329
:CTO001: CHARGE SPHERE  1    =    56.039216

:NEC03: NUCLEAR AND ELECTRONIC CHARGE     59.00000    59.00000

PW CHANGE     H    K    L      Current       Change    Residue
:PTO001:      0    0    0  3.69376581E-02 -2.637E-05 -2.797E-04
:PTO002:     -1   -1   -1 -1.22627319E-01  1.331E-04  6.958E-05
:PTO003:      0    0   -2  7.41030156E-02 -4.104E-05  1.076E-04
:PTO004:      0   -2   -2  6.85967824E-02 -1.424E-04 -1.161E-04
:PTO005:     -1   -1   -3 -7.05464751E-02  1.393E-04 -3.906E-05
:PTO006:     -2   -2   -2  1.85770134E-02 -2.758E-05  1.914E-05
:PTO007:      0    0   -4  4.31647011E-03 -2.557E-06  4.318E-05
:PTO008:     -1   -3   -3 -5.78095257E-03  1.040E-04  1.146E-04
:PTO009:      0   -2   -4  2.53931787E-03 -1.015E-04 -9.027E-05
:PTO010:     -2   -2   -4 -4.69891119E-03 -8.021E-06  1.982E-05
:PTO011:     -3   -3   -3  2.32313454E-03 -2.812E-05 -4.670E-05
:PTO012:     -1   -1   -5  6.60331214E-03  8.250E-06 -3.377E-05

:ENE  : ********** TOTAL ENERGY IN Ry =       -18472.08741384

 Flat Integration
 New Mode for Coulomb Integral
 Consistent 3/8+Simpson combinations
 Extension of core to zero
 LDM version in phi
 Fifth-order quadrature in outwin


            ---------
:ITE019: 19. ITERATION
            ---------

:NATO :    1 INDEPENDENT AND    1 TOTAL ATOMS IN UNITCELL
       SUBSTANCE: blebleble                                                   

       LATTICE                      = F   
:POT  : POTENTIAL OPTION EX_LDA EC_LDA VX_LDA VC_LDA
:LAT  : LATTICE CONSTANTS= 10.43083 10.43083 10.43083    1.571    1.571    1.571
:VOL  : UNIT CELL VOLUME =     283.72435
       MODE OF CALCULATION IS       = RELA
       NON-SPINPOLARIZED CALCULATION
:IFFT  : FFT-parameters:   80   80   80 Factor: 2.00


   CONVERGENCE PARAMETER FOR PSEUDOCHARGE: NCON=  9
   MAXIMAL VALUE OF RMT(JATOM)*ABSK(NKK) : RK  =29.96737


:VKCOUL :  VK-COUL convergence: 0.266E-06
       ATOMNUMBER=  1 Pr         VCOUL-ZERO =  0.10960E+00
:FIT001: LUSE= 13 SIGMA OF V-XC FIT FOR ATOM  1  0.3849245E-04
:FIT001: LUSE= 13 SIGMA OF V-XC FIT FOR ATOM  1  0.3849245E-04
:DEN  : DENSITY INTEGRAL  =         -7065.41383352   (Ry)
       ELS_POTENTIAL_AT Z=0 and Z=0.5:  -2.33990  -2.33990
       ELS_POTENTIAL_AT Y=0 and Y=0.5:   0.00000   0.00000
:VZERO:v0,v0c,v0x  -3.27031  -2.33990  -0.93041 v5,v5c,v5x  -3.27031  -2.33990  -0.93041
:VZERY:v0,v0c,v0x  -0.66417   0.00000  -0.66417 v5,v5c,v5x  -0.66417   0.00000  -0.66417
:VZERX:v0,v0c,v0x  -0.66417   0.00000  -0.66417 v5,v5c,v5x  -0.66417   0.00000  -0.66417
:LMAX-WF:   10   Non-Spherical LMAX:   4

          ATOMIC SPHERE DEPENDENT PARAMETERS FOR ATOM  Pr        
:e__0001: OVERALL ENERGY PARAMETER IS    0.2677
          OVERALL BASIS SET ON ATOM IS LAPW
:E0_0001: E( 0)=    0.2677
             APW+lo
:E0_0001: E( 0)=   -2.2183   E(BOTTOM)=   -2.600   E(TOP)=   -1.836  4  5   156
             LOCAL ORBITAL
:E1_0001: E( 1)=    0.6677
             APW+lo
:E1_0001: E( 1)=   -0.8317   E(BOTTOM)=   -1.479   E(TOP)=   -0.184  3  4   163
             LOCAL ORBITAL
:E3_0001: E( 3)=    0.4633   E(BOTTOM)=    0.319   E(TOP)=    0.607  0  1   116
             APW+lo
:E2_0001: E( 2)=    0.2677   E(BOTTOM)=    0.096   E(TOP)= -200.000  2 -1    96
             APW+lo

       K=   0.00000   0.00000   0.00000            1
:RKM  : MATRIX SIZE   189LOs:  20  RKM= 7.82  WEIGHT= 1.00  PGR:    
       EIGENVALUES ARE:
:EIG00001:      -2.1738363   -0.8229783   -0.8229783   -0.8229783    0.2192005
:EIG00006:       0.4688140    0.4815898    0.4815898    0.4815898    0.5006069
:EIG00011:       0.5006069    0.5006069    0.5902291    0.5902291    0.5902291
:EIG00016:       0.7325528    0.7325528    1.1221801    1.3209831    1.3209831
:EIG00021:       1.3209831    1.4264530    1.9779067    1.9779067    1.9779067
:EIG00026:       2.0220382    2.0220382    2.0220382    2.2584427    2.2584427
:EIG00031:       2.5415253    2.7261212    2.7261212    2.7261212    3.1290486
:EIG00036:       3.1290486    3.3536201    3.3536201    3.3536201    3.3842252
:EIG00041:       3.3842252    3.3842252    3.5568406    3.5568406    3.5568406
:EIG00046:       3.7317904    3.8033958    3.8033958    3.8033958    3.8968891
 
:EIG00051:       3.8968891    3.8999769    3.8999769    3.8999769    3.9096395
:EIG00056:       3.9096395    3.9096395    4.0093238    4.0774364    4.2061089
:EIG00061:       4.2061089    4.2061089    4.2578916    4.2578916    4.2578916
:EIG00066:       4.4205282    5.4193411    5.4193411    5.4392368    5.6799364
:EIG00071:       5.6799364    5.6799364    6.0719450    6.0719450    6.2199249
:EIG00076:       6.2199249    6.2199249    6.2966132    6.2966132    6.2966132
:EIG00081:       6.5979124    6.5979124    6.5979124    6.6276901    6.6276901
:EIG00086:       6.6276901    6.6733459    6.6733459    6.7232693    6.7232693
:EIG00091:       6.7232693    6.8198353    6.8198353    6.8198353    6.8281031
:EIG00096:       6.8281031    6.8281031    6.8768602    6.9912219    7.0044555
 
:EIG00101:       7.0044555    7.0815635    7.0815635    7.0815635    7.1114388
:EIG00106:       7.1114388    7.1114388    7.1151852    7.1151852    7.1151852
:EIG00111:       7.1786262    7.1786262    7.3792661    7.4271038    7.7118094
:EIG00116:       7.7118094    7.7118094
       ********************************************************

:KPT   :      NUMBER OF K-POINTS:   165
   0.0   0.0 angle (M,z), angle (M,x) deg
 
        SPIN-ORBIT EIGENVALUES:
     K=   0.00000   0.00000   0.00000            1
      MATRIX SIZE=  234   WEIGHT= 1.00
     EIGENVALUES ARE:
          -2.1738363   -2.1738363   -0.9682216   -0.9682216   -0.7550121
          -0.7550121   -0.7550121   -0.7550121    0.2192005    0.2192005
           0.4632609    0.4632609    0.4701278    0.4701278    0.4701278
           0.4701278    0.4932496    0.4932496    0.5019538    0.5019538
           0.5082488    0.5082488    0.5082488    0.5082488    0.5865619
           0.5865619    0.5865619    0.5865619    0.5963296    0.5963296
           0.7329646    0.7329646    0.7329646    0.7329646    1.1222297
           1.1222297    1.3155150    1.3155150    1.3234435    1.3234435

           1.3234435    1.3234435    1.4264530    1.4264530    1.9567709
           1.9567709    1.9731783    1.9731783    1.9731783    1.9731783
           1.9868783    1.9868783    2.0556348    2.0556348    2.0556348
           2.0556348    2.2587232    2.2587232    2.2587232    2.2587232
           2.5415253    2.5415253    2.7256876    2.7256876    2.7263521
           2.7263521    2.7263521    2.7263521    3.1290274    3.1290274
           3.1290274    3.1290274    3.3523530    3.3523530    3.3523530
           3.3523530    3.3563825    3.3563825    3.3569411    3.3569411

           3.3990631    3.3990631    3.3990631    3.3990631    3.5568341
           3.5568341    3.5568438    3.5568438    3.5568438    3.5568438
           3.7317904    3.7317904    3.8033585    3.8033585    3.8033585
           3.8033585    3.8034748    3.8034748    3.8968891    3.8968891
           3.8968891    3.8968891    3.8998291    3.8998291    3.9000110
           3.9000110    3.9000110    3.9000110    3.9093417    3.9093417
           3.9093417    3.9093417    3.9103278    3.9103278    4.0093313
           4.0093313    4.0774364    4.0774364    4.2060522    4.2060522

           4.2060522    4.2060522    4.2062258    4.2062258    4.2571124
           4.2571124    4.2583268    4.2583268    4.2583268    4.2583268
           4.4205318    4.4205318
       ********************************************************
:GAP (global)   :    0.0    Ry =     0.0   eV (metal)
:GAP (this spin):    0.0    Ry =     0.0   eV (metal)
         Bandranges (emin - emax) and occupancy:
:BAN00004:   4   -0.991321   -0.968222  1.00000000
:BAN00005:   5   -0.798053   -0.755012  1.00000000
:BAN00006:   6   -0.798053   -0.755012  1.00000000
:BAN00007:   7   -0.782231   -0.755012  1.00000000
:BAN00008:   8   -0.782231   -0.755012  1.00000000
:BAN00009:   9    0.219201    0.448213  1.00000000
:BAN00010:  10    0.219201    0.448213  1.00000000
:BAN00011:  11    0.415232    0.467595  1.00000000
:BAN00012:  12    0.415232    0.467595  1.00000000
:BAN00013:  13    0.461180    0.471849  0.50000005
:BAN00014:  14    0.461180    0.471849  0.49999995
:BAN00015:  15    0.470128    0.475204  0.00000000
:BAN00016:  16    0.470128    0.475204  0.00000000
:BAN00017:  17    0.472132    0.496158  0.00000000
:BAN00018:  18    0.472132    0.496158  0.00000000
:BAN00019:  19    0.491083    0.501954  0.00000000
        Energy to separate low and high energystates:    0.16920


:NOE  : NUMBER OF ELECTRONS          =   13.000

:FER  : F E R M I - ENERGY(TETRAH.M.)=   0.4683866210
:GMA  : POTENTIAL AND CHARGE CUT-OFF  12.00 Ry**.5

:POS001: ATOM    1 X,Y,Z = 0.00000 0.00000 0.50000  MULT= 1  ZZ= 59.000  Pr        

       LMMAX  5
       LM=   0 0  4 0  4 4  6 0  6 4

:CHA001: TOTAL VALENCE CHARGE INSIDE SPHERE   1 =  10.0428    (RMT=  2.5000 )
:PCS001: PARTIAL CHARGES SPHERE =  1 S,P,D,F,      D-EG,D-T2G 
:QTL001: 2.0220 5.3558 0.5252 2.1396 0.0000 0.0000 0.0000 0.1889 0.3363 0.0000 0.0000 0.0000
        Q-s-low E-s-low   Q-p-low E-p-low   Q-d-low E-d-low   Q-f-low E-f-low
:EPL001:  1.9257 -2.1682    5.2952 -0.8500    0.0005 -0.8279    0.0001 -0.8340
        Q-s-hi  E-s-hi    Q-p-hi  E-p-hi    Q-d-hi  E-d-hi    Q-f-hi  E-f-hi 
:EPH001:  0.0963  0.3648    0.0606  0.4037    0.5247  0.4253    2.1395  0.4598

:CHA  : TOTAL VALENCE CHARGE INSIDE UNIT CELL =      13.000000

:SUM  : SUM OF EIGENVALUES =          -7.278452182


        1.ATOM      Pr                   14 CORE STATES
:1S 001: 1S               -3067.127925187 Ry
:2S 001: 2S                -492.876837157 Ry
:2PP001: 2P*               -465.977000324 Ry
:2P 001: 2P                -430.579133012 Ry
:3S 001: 3S                -105.957801210 Ry
:3PP001: 3P*                -94.496083215 Ry
:3P 001: 3P                 -87.487900270 Ry
:3DD001: 3D*                -67.416125717 Ry
:3D 001: 3D                 -65.904414245 Ry
:4S 001: 4S                 -20.637928739 Ry
:4PP001: 4P*                -16.345391105 Ry
:4P 001: 4P                 -14.818857837 Ry
:4DD001: 4D*                 -7.753693707 Ry
:4D 001: 4D                  -7.484608332 Ry
:CINT001 Core Integral Atom   1   45.999511

       DENSITY AT NUCLEUS
        JATOM        VALENCE       SEMI-CORE          CORE           TOTAL
:RTO001:   1      646.710083        0.000000   656824.654574   657471.364658
     
       CHARGES OF NEW CHARGE DENSITY
:NTO   : INTERSTITIAL CHARGE =     2.957243
:NPC   : PW Pseudocharge     =     7.523554
:NTO001: CHARGE SPHERE  1    =    56.042267

:NEC01: NUCLEAR AND ELECTRONIC CHARGE     59.00000    58.99951
     
       CHARGES OF OLD CHARGE DENSITY
:OTO   : INTERSTITIAL CHARGE =     2.960784
:OPC   : PW Pseudocharge     =     7.519329
:OTO001: CHARGE SPHERE  1    =    56.039216

:NEC02: NUCLEAR AND ELECTRONIC CHARGE     59.00000    59.00000
     
       CONVERGENCE TEST
:DTO001: DIFFERENCE IN SPHERE  1 =  0.0058525

:DIS  :  CHARGE DISTANCE       ( 0.0058525 for atom    1 spin 1)      0.0058525
 PW Mixed is           59
 
******************************************************
* MULTISECANT MIXING VER9 RELEASE 10.4.0              *
* Standard Mode with controls                        *
* Fixed density scale                                *
* Regularization       1.000E-04                     *
* Trust Upper Limit    5.000E+00                     *
* Max Number of Memory Steps    8                    *
******************************************************
 
:PWTMP   2.1827E+02  1.2500E+02  2.8372E+02
:PLANE:  PW TOTAL      2.7507 DISTAN   2.27E-03  8.24E-02 %
:CHARG:  CLM/ATOM    977.1750 DISTAN   2.26E-02  2.31E-03 %
 
Step History
        DMIX         DMIXT        Red     Pred      Trust     Lambda    MagRel    MagAbs     Beta
  1   3.5000E-02   3.5000E-02 -1.00E+00  1.00E+00 -1.00E+01  1.00E+00  3.50E-02  3.50E-02  1.00E+00
  2   1.1636E-01   1.1636E-01  1.20E+00  1.00E+00 -1.00E+01  1.00E+00  1.16E-01  4.49E-02  1.00E+00
  3   4.7538E-02   4.7538E-02  4.20E-01  4.68E-01  3.00E+00  3.00E+00  3.85E-02  1.79E-02  8.00E-01
  4   1.1884E-01   1.1884E-01  8.10E-01  2.88E-01  7.28E-01  3.00E+00  3.03E-01  5.91E-02  1.00E+00
  5   2.0496E-01   2.0496E-01 -1.00E+00  3.74E-02  1.36E+00  1.00E+00  5.63E-01  8.89E-02  1.00E+00
:JACOBIANS    7.032E-03   8.891E-01
  
:NORMS:  1/Froebius, Min, Max, Used   0.5884E+00  0.3347E+00  0.9903E+00  0.7451E+00
:INFO :  Number of Memory Steps    4 Skipping    0
:INFO :  SLambda=    1.1517114713  Max    1.1517114713
:PREDicted Charge, CTotal, PW Trust    1.262E-03   1.262E-03   3.095E-03
:PREDicted DMix, Beta, BLim   6.2023E-02  1.0929E+00  9.7806E-01

Eigenvalues, unscaled except for SY+YY
   #     SY Real        SY Imag          SS             YY         SY+YY Real      SY+YY Imag
   1   1.458789E+00   0.000000E+00   1.378479E+00   2.482804E+00   3.300023E+00   0.000000E+00
   2   1.191943E-01   0.000000E+00   6.178489E-03   1.516355E+00   2.516507E+00   0.000000E+00
   3   1.854760E-05   0.000000E+00   1.777541E-05   7.354637E-04   1.289574E-04   0.000000E+00
   4   8.973981E-05   0.000000E+00   3.267446E-06   1.056397E-04   8.465719E-04   0.000000E+00
 
:INFO :  Singular value  3.303E+00 Weight  1.000E+00 Projection -1.630E-02
:INFO :  Singular value  2.515E+00 Weight  1.000E+00 Projection -2.407E-03
:INFO :  Singular value  8.482E-04 Weight  9.211E-01 Projection  2.553E-01
:INFO :  Singular value  1.287E-04 Weight  2.118E-01 Projection -4.208E-04
:RANK :  ACTIVE   3.13/4  =  78.32 % ; YY RANK   3.05/4  =  76.27 %
 
:BLIM :  VZERO Control Off
:TRUST:  Step 1.81E+00  Charge 5.45E-02 (e) CTO  1.82E-01 (e) PW  2.55E-01 (e)
:DIRM :  MEMORY  4/8  SCALE   1.000 RED  0.14 PRED  0.04 NEXT  0.17 
:TRAVE:  Charge 2.62E-03 (e) CTO  2.62E-03 (e) PW  3.16E-03 (e)
:DIRP :  |MSR1|= 3.593E-04 |PRATT|= 2.267E-03 ANGLE=  40.8 DEGREES
:DIRQ :  |MSR1|= 9.794E-03 |PRATT|= 2.260E-02 ANGLE=  22.8 DEGREES
:DIRT :  |MSR1|= 9.801E-03 |PRATT|= 2.271E-02 ANGLE=  23.1 DEGREES
:MIX  :   MSE1   REGULARIZATION:  2.48E-04 GREED: 0.10481  Newton 1.00  0.4315                
     
       CHARGES OF MIXED CHARGE DENSITY
:CTO   : INTERSTITIAL CHARGE =     2.961085
:CPC   : PW Pseudocharge     =     7.520250
:CTO001: CHARGE SPHERE  1    =    56.038915

:NEC03: NUCLEAR AND ELECTRONIC CHARGE     59.00000    59.00000

PW CHANGE     H    K    L      Current       Change    Residue
:PTO001:      0    0    0  3.69419634E-02  4.305E-06  8.525E-06
:PTO002:     -1   -1   -1 -1.22637990E-01 -1.067E-05 -1.032E-04
:PTO003:      0    0   -2  7.41141303E-02  1.111E-05  8.491E-05
:PTO004:      0   -2   -2  6.85959946E-02 -7.879E-07  5.069E-05
:PTO005:     -1   -1   -3 -7.05459565E-02  5.185E-07 -7.165E-05
:PTO006:     -2   -2   -2  1.85783550E-02  1.342E-06  2.516E-05
:PTO007:      0    0   -4  4.31635258E-03 -1.175E-07  5.763E-06
:PTO008:     -1   -3   -3 -5.76862440E-03  1.233E-05  2.089E-05
:PTO009:      0   -2   -4  2.52586838E-03 -1.345E-05 -2.761E-05
:PTO010:     -2   -2   -4 -4.70172033E-03 -2.809E-06 -3.496E-06
:PTO011:     -3   -3   -3  2.32030347E-03 -2.831E-06 -8.242E-06
:PTO012:     -1   -1   -5  6.60675347E-03  3.441E-06  8.873E-06

:ENE  : ********** TOTAL ENERGY IN Ry =       -18472.08719721

 Flat Integration
 New Mode for Coulomb Integral
 Consistent 3/8+Simpson combinations
 Extension of core to zero
 LDM version in phi
 Fifth-order quadrature in outwin


            ---------
:ITE020: 20. ITERATION
            ---------

:NATO :    1 INDEPENDENT AND    1 TOTAL ATOMS IN UNITCELL
       SUBSTANCE: blebleble                                                   

       LATTICE                      = F   
:POT  : POTENTIAL OPTION EX_LDA EC_LDA VX_LDA VC_LDA
:LAT  : LATTICE CONSTANTS= 10.43083 10.43083 10.43083    1.571    1.571    1.571
:VOL  : UNIT CELL VOLUME =     283.72435
       MODE OF CALCULATION IS       = RELA
       NON-SPINPOLARIZED CALCULATION
:IFFT  : FFT-parameters:   80   80   80 Factor: 2.00


   CONVERGENCE PARAMETER FOR PSEUDOCHARGE: NCON=  9
   MAXIMAL VALUE OF RMT(JATOM)*ABSK(NKK) : RK  =29.96737


:VKCOUL :  VK-COUL convergence: 0.262E-06
       ATOMNUMBER=  1 Pr         VCOUL-ZERO =  0.10962E+00
:FIT001: LUSE= 13 SIGMA OF V-XC FIT FOR ATOM  1  0.3780895E-04
:FIT001: LUSE= 13 SIGMA OF V-XC FIT FOR ATOM  1  0.3780895E-04
:DEN  : DENSITY INTEGRAL  =         -7065.39400430   (Ry)
       ELS_POTENTIAL_AT Z=0 and Z=0.5:  -2.34013  -2.34013
       ELS_POTENTIAL_AT Y=0 and Y=0.5:   0.00000   0.00000
:VZERO:v0,v0c,v0x  -3.27064  -2.34013  -0.93051 v5,v5c,v5x  -3.27064  -2.34013  -0.93051
:VZERY:v0,v0c,v0x  -0.66420   0.00000  -0.66420 v5,v5c,v5x  -0.66420   0.00000  -0.66420
:VZERX:v0,v0c,v0x  -0.66420   0.00000  -0.66420 v5,v5c,v5x  -0.66420   0.00000  -0.66420
:LMAX-WF:   10   Non-Spherical LMAX:   4

          ATOMIC SPHERE DEPENDENT PARAMETERS FOR ATOM  Pr        
:e__0001: OVERALL ENERGY PARAMETER IS    0.2682
          OVERALL BASIS SET ON ATOM IS LAPW
:E0_0001: E( 0)=    0.2682
             APW+lo
:E0_0001: E( 0)=   -2.2185   E(BOTTOM)=   -2.601   E(TOP)=   -1.836  4  5   159
             LOCAL ORBITAL
:E1_0001: E( 1)=    0.6682
             APW+lo
:E1_0001: E( 1)=   -0.8318   E(BOTTOM)=   -1.479   E(TOP)=   -0.184  3  4   164
             LOCAL ORBITAL
:E3_0001: E( 3)=    0.4631   E(BOTTOM)=    0.319   E(TOP)=    0.607  0  1   119
             APW+lo
:E2_0001: E( 2)=    0.2682   E(BOTTOM)=    0.095   E(TOP)= -200.000  2 -1    96
             APW+lo

       K=   0.00000   0.00000   0.00000            1
:RKM  : MATRIX SIZE   189LOs:  20  RKM= 7.82  WEIGHT= 1.00  PGR:    
       EIGENVALUES ARE:
:EIG00001:      -2.1739630   -0.8230768   -0.8230768   -0.8230768    0.2192308
:EIG00006:       0.4686276    0.4813715    0.4813715    0.4813715    0.5003945
:EIG00011:       0.5003945    0.5003945    0.5902149    0.5902149    0.5902149
:EIG00016:       0.7325217    0.7325217    1.1221918    1.3210104    1.3210104
:EIG00021:       1.3210104    1.4265196    1.9778819    1.9778819    1.9778819
:EIG00026:       2.0220314    2.0220314    2.0220314    2.2584261    2.2584261
:EIG00031:       2.5415320    2.7261331    2.7261331    2.7261331    3.1290443
:EIG00036:       3.1290443    3.3536207    3.3536207    3.3536207    3.3842580
:EIG00041:       3.3842580    3.3842580    3.5568505    3.5568505    3.5568505
:EIG00046:       3.7318127    3.8034265    3.8034265    3.8034265    3.8969266
 
:EIG00051:       3.8969266    3.9000061    3.9000061    3.9000061    3.9096758
:EIG00056:       3.9096758    3.9096758    4.0093616    4.0774555    4.2061600
:EIG00061:       4.2061600    4.2061600    4.2579347    4.2579347    4.2579347
:EIG00066:       4.4205773    5.4193429    5.4193429    5.4392510    5.6799602
:EIG00071:       5.6799602    5.6799602    6.0718568    6.0718568    6.2198355
:EIG00076:       6.2198355    6.2198355    6.2965932    6.2965932    6.2965932
:EIG00081:       6.5978854    6.5978854    6.5978854    6.6276915    6.6276915
:EIG00086:       6.6276915    6.6733717    6.6733717    6.7232945    6.7232945
:EIG00091:       6.7232945    6.8198449    6.8198449    6.8198449    6.8281196
:EIG00096:       6.8281196    6.8281196    6.8768859    6.9912445    7.0044452
 
:EIG00101:       7.0044452    7.0816040    7.0816040    7.0816040    7.1114893
:EIG00106:       7.1114893    7.1114893    7.1152259    7.1152259    7.1152259
:EIG00111:       7.1786636    7.1786636    7.3793227    7.4271002    7.7118613
:EIG00116:       7.7118613    7.7118613
       ********************************************************

:KPT   :      NUMBER OF K-POINTS:   165
   0.0   0.0 angle (M,z), angle (M,x) deg
 
        SPIN-ORBIT EIGENVALUES:
     K=   0.00000   0.00000   0.00000            1
      MATRIX SIZE=  234   WEIGHT= 1.00
     EIGENVALUES ARE:
          -2.1739630   -2.1739630   -0.9683266   -0.9683266   -0.7551076
          -0.7551076   -0.7551076   -0.7551076    0.2192308    0.2192308
           0.4630696    0.4630696    0.4699089    0.4699089    0.4699089
           0.4699089    0.4930327    0.4930327    0.5017460    0.5017460
           0.5080364    0.5080364    0.5080364    0.5080364    0.5865471
           0.5865471    0.5865471    0.5865471    0.5963163    0.5963163
           0.7329338    0.7329338    0.7329338    0.7329338    1.1222413
           1.1222413    1.3155414    1.3155414    1.3234712    1.3234712

           1.3234712    1.3234712    1.4265196    1.4265196    1.9567632
           1.9567632    1.9731531    1.9731531    1.9731531    1.9731531
           1.9868543    1.9868543    2.0556285    2.0556285    2.0556285
           2.0556285    2.2587067    2.2587067    2.2587067    2.2587067
           2.5415320    2.5415320    2.7256996    2.7256996    2.7263639
           2.7263639    2.7263639    2.7263639    3.1290231    3.1290231
           3.1290231    3.1290231    3.3523536    3.3523536    3.3523536
           3.3523536    3.3563832    3.3563832    3.3569744    3.3569744

           3.3990955    3.3990955    3.3990955    3.3990955    3.5568440
           3.5568440    3.5568537    3.5568537    3.5568537    3.5568537
           3.7318127    3.7318127    3.8033892    3.8033892    3.8033892
           3.8033892    3.8035055    3.8035055    3.8969266    3.8969266
           3.8969266    3.8969266    3.8998583    3.8998583    3.9000403
           3.9000403    3.9000403    3.9000403    3.9093780    3.9093780
           3.9093780    3.9093780    3.9103640    3.9103640    4.0093692
           4.0093692    4.0774555    4.0774555    4.2061033    4.2061033

           4.2061033    4.2061033    4.2062769    4.2062769    4.2571556
           4.2571556    4.2583698    4.2583698    4.2583698    4.2583698
           4.4205809    4.4205809
       ********************************************************
:GAP (global)   :    0.0    Ry =     0.0   eV (metal)
:GAP (this spin):    0.0    Ry =     0.0   eV (metal)
         Bandranges (emin - emax) and occupancy:
:BAN00004:   4   -0.991421   -0.968327  1.00000000
:BAN00005:   5   -0.798139   -0.755108  1.00000000
:BAN00006:   6   -0.798139   -0.755108  1.00000000
:BAN00007:   7   -0.782321   -0.755108  1.00000000
:BAN00008:   8   -0.782321   -0.755108  1.00000000
:BAN00009:   9    0.219231    0.448120  1.00000000
:BAN00010:  10    0.219231    0.448120  1.00000000
:BAN00011:  11    0.415235    0.467434  1.00000000
:BAN00012:  12    0.415235    0.467434  1.00000000
:BAN00013:  13    0.461012    0.471635  0.50000005
:BAN00014:  14    0.461012    0.471635  0.49999995
:BAN00015:  15    0.469909    0.475039  0.00000000
:BAN00016:  16    0.469909    0.475039  0.00000000
:BAN00017:  17    0.471924    0.495963  0.00000000
:BAN00018:  18    0.471924    0.495963  0.00000000
:BAN00019:  19    0.490910    0.501746  0.00000000
        Energy to separate low and high energystates:    0.16923


:NOE  : NUMBER OF ELECTRONS          =   13.000

:FER  : F E R M I - ENERGY(TETRAH.M.)=   0.4681952142
:GMA  : POTENTIAL AND CHARGE CUT-OFF  12.00 Ry**.5

:POS001: ATOM    1 X,Y,Z = 0.00000 0.00000 0.50000  MULT= 1  ZZ= 59.000  Pr        

       LMMAX  5
       LM=   0 0  4 0  4 4  6 0  6 4

:CHA001: TOTAL VALENCE CHARGE INSIDE SPHERE   1 =  10.0465    (RMT=  2.5000 )
:PCS001: PARTIAL CHARGES SPHERE =  1 S,P,D,F,      D-EG,D-T2G 
:QTL001: 2.0220 5.3557 0.5238 2.1448 0.0000 0.0000 0.0000 0.1884 0.3354 0.0000 0.0000 0.0000
        Q-s-low E-s-low   Q-p-low E-p-low   Q-d-low E-d-low   Q-f-low E-f-low
:EPL001:  1.9258 -2.1683    5.2953 -0.8501    0.0005 -0.8280    0.0001 -0.8341
        Q-s-hi  E-s-hi    Q-p-hi  E-p-hi    Q-d-hi  E-d-hi    Q-f-hi  E-f-hi 
:EPH001:  0.0963  0.3648    0.0604  0.4035    0.5233  0.4252    2.1447  0.4597

:CHA  : TOTAL VALENCE CHARGE INSIDE UNIT CELL =      13.000000

:SUM  : SUM OF EIGENVALUES =          -7.279699791


        1.ATOM      Pr                   14 CORE STATES
:1S 001: 1S               -3067.128465305 Ry
:2S 001: 2S                -492.877350958 Ry
:2PP001: 2P*               -465.977520051 Ry
:2P 001: 2P                -430.579650494 Ry
:3S 001: 3S                -105.958246477 Ry
:3PP001: 3P*                -94.496532678 Ry
:3P 001: 3P                 -87.488344790 Ry
:3DD001: 3D*                -67.416582347 Ry
:3D 001: 3D                 -65.904869313 Ry
:4S 001: 4S                 -20.638239623 Ry
:4PP001: 4P*                -16.345697051 Ry
:4P 001: 4P                 -14.819154853 Ry
:4DD001: 4D*                 -7.753977631 Ry
:4D 001: 4D                  -7.484889398 Ry
:CINT001 Core Integral Atom   1   45.999511

       DENSITY AT NUCLEUS
        JATOM        VALENCE       SEMI-CORE          CORE           TOTAL
:RTO001:   1      646.715860        0.000000   656824.685417   657471.401277
     
       CHARGES OF NEW CHARGE DENSITY
:NTO   : INTERSTITIAL CHARGE =     2.953479
:NPC   : PW Pseudocharge     =     7.522454
:NTO001: CHARGE SPHERE  1    =    56.046031

:NEC01: NUCLEAR AND ELECTRONIC CHARGE     59.00000    58.99951
     
       CHARGES OF OLD CHARGE DENSITY
:OTO   : INTERSTITIAL CHARGE =     2.961085
:OPC   : PW Pseudocharge     =     7.520250
:OTO001: CHARGE SPHERE  1    =    56.038915

:NEC02: NUCLEAR AND ELECTRONIC CHARGE     59.00000    59.00000
     
       CONVERGENCE TEST
:DTO001: DIFFERENCE IN SPHERE  1 =  0.0122305

:DIS  :  CHARGE DISTANCE       ( 0.0122305 for atom    1 spin 1)      0.0122305
 PW Mixed is           59
 
******************************************************
* MULTISECANT MIXING VER9 RELEASE 10.4.0              *
* Standard Mode with controls                        *
* Fixed density scale                                *
* Regularization       1.000E-04                     *
* Trust Upper Limit    5.000E+00                     *
* Max Number of Memory Steps    8                    *
******************************************************
 
:PWTMP   2.1827E+02  1.2500E+02  2.8372E+02
:PLANE:  PW TOTAL      2.7510 DISTAN   2.12E-03  7.70E-02 %
:CHARG:  CLM/ATOM    977.1749 DISTAN   1.73E-02  1.77E-03 %
 
Step History
        DMIX         DMIXT        Red     Pred      Trust     Lambda    MagRel    MagAbs     Beta
  1   3.5000E-02   3.5000E-02 -1.00E+00  1.00E+00 -1.00E+01  1.00E+00  3.50E-02  3.50E-02  1.00E+00
  2   1.1636E-01   1.1636E-01  1.20E+00  1.00E+00 -1.00E+01  1.00E+00  1.16E-01  4.49E-02  1.00E+00
  3   4.7538E-02   4.7538E-02  4.20E-01  4.68E-01  3.00E+00  3.00E+00  3.85E-02  1.79E-02  8.00E-01
  4   1.1884E-01   1.1884E-01  8.10E-01  2.88E-01  7.28E-01  3.00E+00  3.03E-01  5.91E-02  1.00E+00
  5   2.0496E-01   2.0496E-01  1.44E-01  3.74E-02  1.36E+00  1.15E+00  5.63E-01  8.89E-02  1.00E+00
  6   1.0481E-01   1.0481E-01 -1.00E+00  1.65E-01  1.81E+00  1.00E+00  4.32E-01  9.80E-03  1.00E+00
:JACOBIANS    3.995E-02   1.258E+00
  
:NORMS:  1/Froebius, Min, Max, Used   0.6592E+00  0.3653E+00  0.1025E+01  0.8766E+00
:INFO :  Number of Memory Steps    5 Skipping    0
:INFO :  SLambda=    1.5275931254  Max    1.5275931254
:PREDicted Charge, CTotal, PW Trust    1.049E-05   1.049E-05   1.944E-03
:PREDicted DMix, Beta, BLim   3.1730E-01  2.0313E+00  8.7953E-01

Eigenvalues, unscaled except for SY+YY
   #     SY Real        SY Imag          SS             YY         SY+YY Real      SY+YY Imag
   1   2.254657E+00   0.000000E+00   2.162282E+00   2.813691E+00   5.882338E+00   0.000000E+00
[...]
 
Step History
        DMIX         DMIXT        Red     Pred      Trust     Lambda    MagRel    MagAbs     Beta
  2   1.1636E-01   1.1636E-01  1.20E+00  1.00E+00 -1.00E+01  1.00E+00  1.16E-01  4.49E-02  1.00E+00
  3   4.7538E-02   4.7538E-02  4.20E-01  4.68E-01  3.00E+00  3.00E+00  3.85E-02  1.79E-02  8.00E-01
  4   1.1884E-01   1.1884E-01  8.10E-01  2.88E-01  7.28E-01  3.00E+00  3.03E-01  5.91E-02  1.00E+00
  5   2.0496E-01   2.0496E-01  1.44E-01  3.74E-02  1.36E+00  1.15E+00  5.63E-01  8.89E-02  1.00E+00
  6   1.0481E-01   1.0481E-01  7.69E-01  1.65E-01  1.81E+00  1.53E+00  4.32E-01  9.80E-03  1.00E+00
  7   2.2175E-01   2.2175E-01  1.26E-01  1.56E-01  2.35E+00  1.92E+00  6.06E-01  1.06E-02  1.00E+00
  8   1.0448E-01   1.0448E-01  6.80E-01  7.57E-01  3.14E+00  1.04E+00  1.16E-01  2.57E-04  9.90E-01
  9   2.6121E-01   2.6121E-01  2.05E-01  1.81E-01  4.18E+00  1.57E+00  8.46E-01  1.27E-03  1.00E+00
 10   1.5038E-01   1.5038E-01 -1.00E+00  5.46E-01  5.58E+00  1.00E+00  2.00E-01  6.16E-05  9.80E-01
:JACOBIANS    2.312E-01   2.554E+00
  
:NORMS:  1/Froebius, Min, Max, Used   0.6910E+00  0.4736E+00  0.1011E+01  0.8517E+00
:INFO :  Number of Memory Steps    8 Skipping    1
:INFO :  SLambda=    1.6931026122  Max    1.6931026122
:PREDicted Charge, CTotal, PW Trust    4.935E-06   4.935E-06   4.327E-05
:PREDicted DMix, Beta, BLim   7.0055E-01  1.8039E+00  1.0508E+00

Eigenvalues, unscaled except for SY+YY
   #     SY Real        SY Imag          SS             YY         SY+YY Real      SY+YY Imag
   1   2.797059E+00   0.000000E+00   2.706067E+00   3.730750E+00   7.680928E+00   0.000000E+00
   2   1.199915E+00   0.000000E+00   1.031555E+00   2.806513E+00   4.488695E+00   0.000000E+00
   3   2.185779E-01   0.000000E+00   7.102445E-02   1.352453E+00   2.831705E+00   0.000000E+00
   4   4.412484E-02   0.000000E+00   7.256632E-03   9.859375E-02   1.986481E-01   0.000000E+00
   5   8.693092E-03   0.000000E+00   3.671321E-03   1.146915E-02   2.659762E-02   0.000000E+00
   6   3.822528E-05   0.000000E+00   7.567354E-06   2.162025E-04   2.751992E-04   0.000000E+00
   7   6.061887E-08   0.000000E+00   5.811919E-08   4.122683E-06   4.849632E-06   0.000000E+00
   8   4.004267E-07   0.000000E+00   9.850456E-09   2.467911E-07   3.408364E-07   0.000000E+00
 
:INFO :  Singular value  7.682E+00 Weight  1.000E+00 Projection  7.612E-05
:INFO :  Singular value  4.494E+00 Weight  1.000E+00 Projection  4.828E-05
:INFO :  Singular value  2.828E+00 Weight  1.000E+00 Projection -3.310E-05
:INFO :  Singular value  1.987E-01 Weight  1.000E+00 Projection -1.296E-06
:INFO :  Singular value  2.660E-02 Weight  9.998E-01 Projection  1.377E-03
:INFO :  Singular value  2.758E-04 Weight  3.533E-01 Projection  4.925E-04
:INFO :  Singular value  4.892E-06 Weight  1.719E-04 Projection  1.599E-06
:INFO :  Singular value  3.370E-07 Weight  8.161E-07 Projection  5.184E-09
:RANK :  ACTIVE   5.35/8  =  66.92 % ; YY RANK   5.25/8  =  65.63 %
 
:BLIM :  VZERO Control Off
:TRUST:  Step 7.23E+00  Charge 1.79E-02 (e) CTO  5.96E-02 (e) PW  8.34E-02 (e)
:DIRM :  MEMORY  8/8  SCALE   1.000 RED  0.77 PRED  0.55 NEXT  0.10 
:TRAVE:  Charge 1.08E-04 (e) CTO  1.08E-04 (e) PW  2.48E-04 (e)
:DIRP :  |MSR1|= 3.697E-05 |PRATT|= 2.949E-05 ANGLE=  31.2 DEGREES
:DIRQ :  |MSR1|= 1.752E-04 |PRATT|= 2.354E-04 ANGLE=  36.4 DEGREES
:DIRT :  |MSR1|= 1.791E-04 |PRATT|= 2.373E-04 ANGLE=  36.6 DEGREES
:MIX  :   MSE1   REGULARIZATION:  3.73E-04 GREED: 0.34294  Newton 1.00  0.7548                
     
       CHARGES OF MIXED CHARGE DENSITY
:CTO   : INTERSTITIAL CHARGE =     2.960726
:CPC   : PW Pseudocharge     =     7.525860
:CTO001: CHARGE SPHERE  1    =    56.039274

:NEC03: NUCLEAR AND ELECTRONIC CHARGE     59.00000    59.00000

PW CHANGE     H    K    L      Current       Change    Residue
:PTO001:      0    0    0  3.69604706E-02  2.724E-07 -1.749E-07
:PTO002:     -1   -1   -1 -1.22735258E-01 -1.627E-06 -1.197E-06
:PTO003:      0    0   -2  7.41851514E-02  1.093E-06  8.746E-07
:PTO004:      0   -2   -2  6.86487507E-02  1.147E-06  9.407E-07
:PTO005:     -1   -1   -3 -7.06140362E-02 -1.559E-06 -1.465E-06
:PTO006:     -2   -2   -2  1.85999694E-02  5.767E-07  5.795E-07
:PTO007:      0    0   -4  4.32153868E-03  1.266E-07  1.450E-07
:PTO008:     -1   -3   -3 -5.75660342E-03  3.875E-08 -5.478E-08
:PTO009:      0   -2   -4  2.51010553E-03 -1.793E-07 -9.713E-08
:PTO010:     -2   -2   -4 -4.70593841E-03  5.403E-09  9.240E-08
:PTO011:     -3   -3   -3  2.31661854E-03 -7.814E-08 -1.021E-07
:PTO012:     -1   -1   -5  6.61283354E-03  1.009E-07  4.687E-08

:ENE  : ********** TOTAL ENERGY IN Ry =       -18472.08719483

 Flat Integration
 New Mode for Coulomb Integral
 Consistent 3/8+Simpson combinations
 Extension of core to zero
 LDM version in phi
 Fifth-order quadrature in outwin


            ---------
:ITE025: 25. ITERATION
            ---------

:NATO :    1 INDEPENDENT AND    1 TOTAL ATOMS IN UNITCELL
       SUBSTANCE: blebleble                                                   

       LATTICE                      = F   
:POT  : POTENTIAL OPTION EX_LDA EC_LDA VX_LDA VC_LDA
:LAT  : LATTICE CONSTANTS= 10.43083 10.43083 10.43083    1.571    1.571    1.571
:VOL  : UNIT CELL VOLUME =     283.72435
       MODE OF CALCULATION IS       = RELA
       NON-SPINPOLARIZED CALCULATION
:IFFT  : FFT-parameters:   80   80   80 Factor: 2.00


   CONVERGENCE PARAMETER FOR PSEUDOCHARGE: NCON=  9
   MAXIMAL VALUE OF RMT(JATOM)*ABSK(NKK) : RK  =29.96737


:VKCOUL :  VK-COUL convergence: 0.257E-06
       ATOMNUMBER=  1 Pr         VCOUL-ZERO =  0.10976E+00
:FIT001: LUSE= 13 SIGMA OF V-XC FIT FOR ATOM  1  0.3679338E-04
:FIT001: LUSE= 13 SIGMA OF V-XC FIT FOR ATOM  1  0.3679338E-04
:DEN  : DENSITY INTEGRAL  =         -7065.45419835   (Ry)
       ELS_POTENTIAL_AT Z=0 and Z=0.5:  -2.34072  -2.34072
       ELS_POTENTIAL_AT Y=0 and Y=0.5:   0.00000   0.00000
:VZERO:v0,v0c,v0x  -3.27151  -2.34072  -0.93079 v5,v5c,v5x  -3.27151  -2.34072  -0.93079
:VZERY:v0,v0c,v0x  -0.66423   0.00000  -0.66423 v5,v5c,v5x  -0.66423   0.00000  -0.66423
:VZERX:v0,v0c,v0x  -0.66423   0.00000  -0.66423 v5,v5c,v5x  -0.66423   0.00000  -0.66423
:LMAX-WF:   10   Non-Spherical LMAX:   4

          ATOMIC SPHERE DEPENDENT PARAMETERS FOR ATOM  Pr        
:e__0001: OVERALL ENERGY PARAMETER IS    0.2687
          OVERALL BASIS SET ON ATOM IS LAPW
:E0_0001: E( 0)=    0.2687
             APW+lo
:E0_0001: E( 0)=   -2.2181   E(BOTTOM)=   -2.600   E(TOP)=   -1.836  4  5   163
             LOCAL ORBITAL
:E1_0001: E( 1)=    0.6687
             APW+lo
:E1_0001: E( 1)=   -0.8315   E(BOTTOM)=   -1.479   E(TOP)=   -0.184  3  4   165
             LOCAL ORBITAL
:E3_0001: E( 3)=    0.4636   E(BOTTOM)=    0.320   E(TOP)=    0.608  0  1   119
             APW+lo
:E2_0001: E( 2)=    0.2687   E(BOTTOM)=    0.096   E(TOP)= -200.000  2 -1    97
             APW+lo

       K=   0.00000   0.00000   0.00000            1
:RKM  : MATRIX SIZE   189LOs:  20  RKM= 7.82  WEIGHT= 1.00  PGR:    
       EIGENVALUES ARE:
:EIG00001:      -2.1736024   -0.8227640   -0.8227640   -0.8227640    0.2193696
:EIG00006:       0.4692022    0.4818982    0.4818982    0.4818982    0.5009853
:EIG00011:       0.5009853    0.5009853    0.5904005    0.5904005    0.5904005
:EIG00016:       0.7327241    0.7327241    1.1223728    1.3211680    1.3211680
:EIG00021:       1.3211680    1.4266448    1.9780772    1.9780772    1.9780772
:EIG00026:       2.0222233    2.0222233    2.0222233    2.2585784    2.2585784
:EIG00031:       2.5417037    2.7262864    2.7262864    2.7262864    3.1292027
:EIG00036:       3.1292027    3.3537698    3.3537698    3.3537698    3.3844036
:EIG00041:       3.3844036    3.3844036    3.5569911    3.5569911    3.5569911
:EIG00046:       3.7319748    3.8035382    3.8035382    3.8035382    3.8970387
 
:EIG00051:       3.8970387    3.9001192    3.9001192    3.9001192    3.9098145
:EIG00056:       3.9098145    3.9098145    4.0094853    4.0775884    4.2062714
:EIG00061:       4.2062714    4.2062714    4.2580567    4.2580567    4.2580567
:EIG00066:       4.4206977    5.4194697    5.4194697    5.4393767    5.6800967
:EIG00071:       5.6800967    5.6800967    6.0719788    6.0719788    6.2199710
:EIG00076:       6.2199710    6.2199710    6.2967615    6.2967615    6.2967615
:EIG00081:       6.5979986    6.5979986    6.5979986    6.6278046    6.6278046
:EIG00086:       6.6278046    6.6734915    6.6734915    6.7234223    6.7234223
:EIG00091:       6.7234223    6.8199695    6.8199695    6.8199695    6.8282444
:EIG00096:       6.8282444    6.8282444    6.8770125    6.9913614    7.0045617
 
:EIG00101:       7.0045617    7.0817220    7.0817220    7.0817220    7.1116011
:EIG00106:       7.1116011    7.1116011    7.1153446    7.1153446    7.1153446
:EIG00111:       7.1787742    7.1787742    7.3794191    7.4272464    7.7119615
:EIG00116:       7.7119615    7.7119615
       ********************************************************

:KPT   :      NUMBER OF K-POINTS:   165
   0.0   0.0 angle (M,z), angle (M,x) deg
 
        SPIN-ORBIT EIGENVALUES:
     K=   0.00000   0.00000   0.00000            1
      MATRIX SIZE=  234   WEIGHT= 1.00
     EIGENVALUES ARE:
          -2.1736024   -2.1736024   -0.9680036   -0.9680036   -0.7547999
          -0.7547999   -0.7547999   -0.7547999    0.2193696    0.2193696
           0.4636492    0.4636492    0.4704481    0.4704481    0.4704481
           0.4704481    0.4935566    0.4935566    0.5023325    0.5023325
           0.5086158    0.5086158    0.5086158    0.5086158    0.5867334
           0.5867334    0.5867334    0.5867334    0.5965008    0.5965008
           0.7331359    0.7331359    0.7331359    0.7331359    1.1224224
           1.1224224    1.3157005    1.3157005    1.3236282    1.3236282

           1.3236282    1.3236282    1.4266448    1.4266448    1.9569546
           1.9569546    1.9733481    1.9733481    1.9733481    1.9733481
           1.9870503    1.9870503    2.0558203    2.0558203    2.0558203
           2.0558203    2.2588590    2.2588590    2.2588590    2.2588590
           2.5417037    2.5417037    2.7258526    2.7258526    2.7265172
           2.7265172    2.7265172    2.7265172    3.1291815    3.1291815
           3.1291815    3.1291815    3.3525025    3.3525025    3.3525025
           3.3525025    3.3565327    3.3565327    3.3571180    3.3571180

           3.3992423    3.3992423    3.3992423    3.3992423    3.5569846
           3.5569846    3.5569944    3.5569944    3.5569944    3.5569944
           3.7319748    3.7319748    3.8035009    3.8035009    3.8035009
           3.8035009    3.8036173    3.8036173    3.8970387    3.8970387
           3.8970387    3.8970387    3.8999714    3.8999714    3.9001535
           3.9001535    3.9001535    3.9001535    3.9095165    3.9095165
           3.9095165    3.9095165    3.9105029    3.9105029    4.0094929
           4.0094929    4.0775884    4.0775884    4.2062147    4.2062147

           4.2062147    4.2062147    4.2063883    4.2063883    4.2572777
           4.2572777    4.2584918    4.2584918    4.2584918    4.2584918
           4.4207013    4.4207013
       ********************************************************
:GAP (global)   :    0.0    Ry =     0.0   eV (metal)
:GAP (this spin):    0.0    Ry =     0.0   eV (metal)
         Bandranges (emin - emax) and occupancy:
:BAN00004:   4   -0.991106   -0.968004  1.00000000
:BAN00005:   5   -0.797845   -0.754800  1.00000000
:BAN00006:   6   -0.797845   -0.754800  1.00000000
:BAN00007:   7   -0.782021   -0.754800  1.00000000
:BAN00008:   8   -0.782021   -0.754800  1.00000000
:BAN00009:   9    0.219370    0.448458  1.00000000
:BAN00010:  10    0.219370    0.448458  1.00000000
:BAN00011:  11    0.415400    0.467903  1.00000000
:BAN00012:  12    0.415400    0.467903  1.00000000
:BAN00013:  13    0.461475    0.472186  0.50000007
:BAN00014:  14    0.461475    0.472186  0.49999993
:BAN00015:  15    0.470448    0.475527  0.00000000
:BAN00016:  16    0.470448    0.475527  0.00000000
:BAN00017:  17    0.472505    0.496525  0.00000000
:BAN00018:  18    0.472505    0.496525  0.00000000
:BAN00019:  19    0.491408    0.502333  0.00000000
        Energy to separate low and high energystates:    0.16937


:NOE  : NUMBER OF ELECTRONS          =   13.000

:FER  : F E R M I - ENERGY(TETRAH.M.)=   0.4687148217
:GMA  : POTENTIAL AND CHARGE CUT-OFF  12.00 Ry**.5

:POS001: ATOM    1 X,Y,Z = 0.00000 0.00000 0.50000  MULT= 1  ZZ= 59.000  Pr        

       LMMAX  5
       LM=   0 0  4 0  4 4  6 0  6 4

:CHA001: TOTAL VALENCE CHARGE INSIDE SPHERE   1 =  10.0397    (RMT=  2.5000 )
:PCS001: PARTIAL CHARGES SPHERE =  1 S,P,D,F,      D-EG,D-T2G 
:QTL001: 2.0221 5.3559 0.5264 2.1353 0.0000 0.0000 0.0000 0.1892 0.3372 0.0000 0.0000 0.0000
        Q-s-low E-s-low   Q-p-low E-p-low   Q-d-low E-d-low   Q-f-low E-f-low
:EPL001:  1.9257 -2.1680    5.2951 -0.8498    0.0005 -0.8277    0.0001 -0.8338
        Q-s-hi  E-s-hi    Q-p-hi  E-p-hi    Q-d-hi  E-d-hi    Q-f-hi  E-f-hi 
:EPH001:  0.0963  0.3650    0.0607  0.4040    0.5259  0.4256    2.1352  0.4601

:CHA  : TOTAL VALENCE CHARGE INSIDE UNIT CELL =      13.000000

:SUM  : SUM OF EIGENVALUES =          -7.275471870


        1.ATOM      Pr                   14 CORE STATES
:1S 001: 1S               -3067.126477702 Ry
:2S 001: 2S                -492.875610270 Ry
:2PP001: 2P*               -465.975725933 Ry
:2P 001: 2P                -430.577876363 Ry
:3S 001: 3S                -105.956945468 Ry
:3PP001: 3P*                -94.495207444 Ry
:3P 001: 3P                 -87.487044519 Ry
:3DD001: 3D*                -67.415219142 Ry
:3D 001: 3D                 -65.903514748 Ry
:4S 001: 4S                 -20.637417478 Ry
:4PP001: 4P*                -16.344888242 Ry
:4P 001: 4P                 -14.818372357 Ry
:4DD001: 4D*                 -7.753232095 Ry
:4D 001: 4D                  -7.484152190 Ry
:CINT001 Core Integral Atom   1   45.999511

       DENSITY AT NUCLEUS
        JATOM        VALENCE       SEMI-CORE          CORE           TOTAL
:RTO001:   1      646.705376        0.000000   656824.544839   657471.250215
     
       CHARGES OF NEW CHARGE DENSITY
:NTO   : INTERSTITIAL CHARGE =     2.960251
:NPC   : PW Pseudocharge     =     7.524595
:NTO001: CHARGE SPHERE  1    =    56.039259

:NEC01: NUCLEAR AND ELECTRONIC CHARGE     59.00000    58.99951
     
       CHARGES OF OLD CHARGE DENSITY
:OTO   : INTERSTITIAL CHARGE =     2.960726
:OPC   : PW Pseudocharge     =     7.525860
:OTO001: CHARGE SPHERE  1    =    56.039274

:NEC02: NUCLEAR AND ELECTRONIC CHARGE     59.00000    59.00000
     
       CONVERGENCE TEST
:DTO001: DIFFERENCE IN SPHERE  1 =  0.0000209

:DIS  :  CHARGE DISTANCE       ( 0.0000209 for atom    1 spin 1)      0.0000209
 PW Mixed is           59
 
******************************************************
* MULTISECANT MIXING VER9 RELEASE 10.4.0              *
* Standard Mode with controls                        *
* Fixed density scale                                *
* Regularization       1.000E-04                     *
* Trust Upper Limit    5.000E+00                     *
* Max Number of Memory Steps    8                    *
******************************************************
 
:PWTMP   2.1827E+02  1.2500E+02  2.8372E+02
:PLANE:  PW TOTAL      2.7531 DISTAN   8.15E-06  2.96E-04 %
:CHARG:  CLM/ATOM    977.1757 DISTAN   4.08E-05  4.18E-06 %
 
Step History
        DMIX         DMIXT        Red     Pred      Trust     Lambda    MagRel    MagAbs     Beta
  3   4.7538E-02   4.7538E-02  4.20E-01  4.68E-01  3.00E+00  3.00E+00  3.85E-02  1.79E-02  8.00E-01
  4   1.1884E-01   1.1884E-01  8.10E-01  2.88E-01  7.28E-01  3.00E+00  3.03E-01  5.91E-02  1.00E+00
  5   2.0496E-01   2.0496E-01  1.44E-01  3.74E-02  1.36E+00  1.15E+00  5.63E-01  8.89E-02  1.00E+00
  6   1.0481E-01   1.0481E-01  7.69E-01  1.65E-01  1.81E+00  1.53E+00  4.32E-01  9.80E-03  1.00E+00
  7   2.2175E-01   2.2175E-01  1.26E-01  1.56E-01  2.35E+00  1.92E+00  6.06E-01  1.06E-02  1.00E+00
  8   1.0448E-01   1.0448E-01  6.80E-01  7.57E-01  3.14E+00  1.04E+00  1.16E-01  2.57E-04  9.90E-01
  9   2.6121E-01   2.6121E-01  2.05E-01  1.81E-01  4.18E+00  1.57E+00  8.46E-01  1.27E-03  1.00E+00
 10   1.5038E-01   1.5038E-01  7.71E-01  5.46E-01  5.58E+00  1.69E+00  2.00E-01  6.16E-05  9.80E-01
 11   3.4294E-01   3.4294E-01 -1.00E+00  9.70E-02  7.23E+00  1.00E+00  7.55E-01  1.79E-04  1.00E+00
:JACOBIANS    2.359E-01   2.806E+00
  
:NORMS:  1/Froebius, Min, Max, Used   0.7680E+00  0.5596E+00  0.1008E+01  0.9289E+00
:INFO :  Number of Memory Steps    8 Skipping    2
:INFO :  SLambda=    1.4992271902  Max    1.4992271902
:PREDicted Charge, CTotal, PW Trust    7.774E-06   7.774E-06   2.789E-05
:PREDicted DMix, Beta, BLim   5.0003E-02  8.9340E-01  7.9232E-01

Eigenvalues, unscaled except for SY+YY
   #     SY Real        SY Imag          SS             YY         SY+YY Real      SY+YY Imag
   1   3.414091E+00   0.000000E+00   3.318076E+00   3.845239E+00   8.795008E+00   0.000000E+00
   2   1.159684E+00   0.000000E+00   1.023542E+00   2.372257E+00   3.658176E+00   0.000000E+00
   3   4.211704E-01   0.000000E+00   3.164510E-01   1.178878E+00   2.041780E+00   0.000000E+00
   4   1.567284E-01   0.000000E+00   5.827727E-02   5.190054E-01   1.117148E+00   0.000000E+00
   5   3.173739E-02   0.000000E+00   2.528834E-03   8.455194E-02   1.589293E-01   0.000000E+00
   6   3.561479E-05   0.000000E+00   3.210981E-05   5.452343E-05   1.082474E-04   0.000000E+00
   7   4.361101E-06   0.000000E+00   1.012307E-06   1.347406E-05   2.052163E-05   0.000000E+00
   8   2.927566E-08   0.000000E+00   5.874564E-09   1.672330E-07   2.085702E-07   0.000000E+00
 
:INFO :  Singular value  8.795E+00 Weight  1.000E+00 Projection -1.317E-05
:INFO :  Singular value  3.661E+00 Weight  1.000E+00 Projection -7.617E-06
:INFO :  Singular value  2.040E+00 Weight  1.000E+00 Projection  1.036E-05
:INFO :  Singular value  1.117E+00 Weight  1.000E+00 Projection  2.792E-06
:INFO :  Singular value  1.589E-01 Weight  1.000E+00 Projection -3.335E-05
:INFO :  Singular value  1.138E-04 Weight  8.057E-02 Projection -2.558E-04
:INFO :  Singular value  1.960E-05 Weight  2.591E-03 Projection  2.923E-06
:INFO :  Singular value  2.077E-07 Weight  2.917E-07 Projection -6.169E-11
:RANK :  ACTIVE   5.08/8  =  63.54 % ; YY RANK   5.02/8  =  62.76 %
 
:DLIM :  Beta Active  9.200E-01
:BLIM :  VZERO Control Off
:TRUST:  Step 9.64E+00  Charge 1.43E-02 (e) CTO  4.77E-02 (e) PW  6.67E-02 (e)
:DIRM :  MEMORY  8/8  SCALE   1.000 RED  0.18 PRED  0.10 NEXT  0.55 BETA  0.92
:TRAVE:  Charge 5.48E-05 (e) CTO  5.48E-05 (e) PW  1.27E-04 (e)
:DIRP :  |MSR1|= 5.800E-06 |PRATT|= 8.152E-06 ANGLE=  16.5 DEGREES
:DIRQ :  |MSR1|= 2.235E-05 |PRATT|= 4.082E-05 ANGLE=  41.4 DEGREES
:DIRT :  |MSR1|= 2.309E-05 |PRATT|= 4.163E-05 ANGLE=  40.6 DEGREES
:MIX  :   MSE1   REGULARIZATION:  3.85E-04 GREED: 0.15456  Newton 1.00  0.5547                
     
       CHARGES OF MIXED CHARGE DENSITY
:CTO   : INTERSTITIAL CHARGE =     2.960727
:CPC   : PW Pseudocharge     =     7.525844
:CTO001: CHARGE SPHERE  1    =    56.039273

:NEC03: NUCLEAR AND ELECTRONIC CHARGE     59.00000    59.00000

PW CHANGE     H    K    L      Current       Change    Residue
:PTO001:      0    0    0  3.69604199E-02 -5.072E-08 -1.631E-08
:PTO002:     -1   -1   -1 -1.22734988E-01  2.700E-07  3.979E-07
:PTO003:      0    0   -2  7.41849573E-02 -1.942E-07 -3.130E-07
:PTO004:      0   -2   -2  6.86486116E-02 -1.391E-07 -1.785E-07
:PTO005:     -1   -1   -3 -7.06138665E-02  1.698E-07  2.334E-07
:PTO006:     -2   -2   -2  1.85999218E-02 -4.757E-08 -4.883E-08
:PTO007:      0    0   -4  4.32152755E-03 -1.112E-08 -1.786E-08
:PTO008:     -1   -3   -3 -5.75662946E-03 -2.604E-08 -2.510E-08
:PTO009:      0   -2   -4  2.51013827E-03  3.275E-08  2.458E-08
:PTO010:     -2   -2   -4 -4.70592526E-03  1.315E-08  1.047E-08
:PTO011:     -3   -3   -3  2.31662424E-03  5.694E-09  7.265E-09
:PTO012:     -1   -1   -5  6.61281818E-03 -1.536E-08 -1.002E-08

:ENE  : ********** TOTAL ENERGY IN Ry =       -18472.08719483

