
------- alpha_Pu_1.scf0 --------


            ---------
:ITE071: 71. ITERATION
            ---------

:NATO :    8 INDEPENDENT AND   16 TOTAL ATOMS IN UNITCELL
       SUBSTANCE: alpha_Pu                                                    

       LATTICE                      = P   
:POT  : POTENTIAL OPTION    5
:LAT  : LATTICE CONSTANTS= 11.06595  8.63312 19.62747    1.571    1.777    1.571
:VOL  : UNIT CELL VOLUME =    1835.54645
       MODE OF CALCULATION IS       = RELA
       NON-SPINPOLARIZED CALCULATION
:IFFT  : FFT-parameters:   90   72  160 Factor: 2.00
       ATOMNUMBER=  1 Pu  0+     VCOUL-ZERO =  0.81651E+00
:EFG001:                        EFG         =   -18.55351   *10**21  V / m**2
                               V20  TOT/SRF=     9.66246    -0.12358
                               V22  TOT/SRF=     2.70331     0.12958
                               V22M TOT/SRF=   -12.69015    -0.09988
                               V21  TOT/SRF=     0.00000     0.00000
                               V21M TOT/SRF=     0.00000     0.00000

             -2.87532  -12.69015    0.00000        7.39626    0.00000    0.00000
            -12.69015   -8.28193    0.00000        0.00000  -18.55351    0.00000
              0.00000    0.00000   11.15725        0.00000    0.00000   11.15725

         MAIN DIRECTIONS OF THE EFG   1.0000  0.8094  0.0000
                                     -0.8094  1.0000  0.0000
                                      0.0000  0.0000  1.0000
:ANG001:  ANGLE WITH OLD X-AXIS =        39.0

:ETA001:                         ASYMM. ETA =     0.20271


       ATOMNUMBER=  2 Pu  0+     VCOUL-ZERO =  0.83176E+00
:EFG002:                        EFG         =   -23.73742   *10**21  V / m**2
                               V20  TOT/SRF=     8.71555     0.01762
                               V22  TOT/SRF=   -14.88008    -0.11561
                               V22M TOT/SRF=    11.33484     0.09809
                               V21  TOT/SRF=     0.00000     0.00000
                               V21M TOT/SRF=     0.00000     0.00000

            -19.91200   11.33484    0.00000      -23.73742    0.00000    0.00000
             11.33484    9.84815    0.00000        0.00000   13.67356    0.00000
              0.00000    0.00000   10.06385        0.00000    0.00000   10.06385

         MAIN DIRECTIONS OF THE EFG   1.0000  0.3375  0.0000
                                     -0.3375  1.0000  0.0000
                                      0.0000  0.0000  1.0000
:ANG002:  ANGLE WITH OLD X-AXIS =        18.6

:ETA002:                         ASYMM. ETA =     0.15207


       ATOMNUMBER=  3 Pu  0+     VCOUL-ZERO =  0.83001E+00
:EFG003:                        EFG         =   -16.81831   *10**21  V / m**2
                               V20  TOT/SRF=     3.11160    -0.00239
                               V22  TOT/SRF=    -4.65528     0.00054
                               V22M TOT/SRF=   -14.28228    -0.01071
                               V21  TOT/SRF=     0.00000     0.00000
                               V21M TOT/SRF=     0.00000     0.00000

             -6.45177  -14.28228    0.00000      -16.81831    0.00000    0.00000
            -14.28228    2.85879    0.00000        0.00000   13.22534    0.00000
              0.00000    0.00000    3.59297        0.00000    0.00000    3.59297

         MAIN DIRECTIONS OF THE EFG   1.0000 -0.7258  0.0000
                                      0.7258  1.0000  0.0000
                                      0.0000  0.0000  1.0000
:ANG003:  ANGLE WITH OLD X-AXIS =        36.0

:ETA003:                         ASYMM. ETA =     0.57273


       ATOMNUMBER=  4 Pu  0+     VCOUL-ZERO =  0.83253E+00
:EFG004:                        EFG         =   -18.24497   *10**21  V / m**2
                               V20  TOT/SRF=     2.43845    -0.01636
                               V22  TOT/SRF=    -1.09424     0.01710
                               V22M TOT/SRF=    16.80154     0.03677
                               V21  TOT/SRF=     0.00000     0.00000
                               V21M TOT/SRF=     0.00000     0.00000

             -2.50208   16.80154    0.00000      -18.24497    0.00000    0.00000
             16.80154   -0.31360    0.00000        0.00000   15.42929    0.00000
              0.00000    0.00000    2.81568        0.00000    0.00000    2.81568

         MAIN DIRECTIONS OF THE EFG   1.0000  0.9370  0.0000
                                     -0.9370  1.0000  0.0000
                                      0.0000  0.0000  1.0000
:ANG004:  ANGLE WITH OLD X-AXIS =        43.1

:ETA004:                         ASYMM. ETA =     0.69135


       ATOMNUMBER=  5 Pu  0+     VCOUL-ZERO =  0.83700E+00
:EFG005:                        EFG         =   -39.29952   *10**21  V / m**2
                               V20  TOT/SRF=    12.32949     0.02310
                               V22  TOT/SRF=   -32.07426    -0.14686
                               V22M TOT/SRF=     2.61995     0.05380
                               V21  TOT/SRF=     0.00000     0.00000
                               V21M TOT/SRF=     0.00000     0.00000

            -39.19269    2.61995    0.00000      -39.29952    0.00000    0.00000
              2.61995   24.95583    0.00000        0.00000   25.06265    0.00000
              0.00000    0.00000   14.23686        0.00000    0.00000   14.23686

         MAIN DIRECTIONS OF THE EFG   1.0000  0.0408  0.0000
                                     -0.0408  1.0000  0.0000
                                      0.0000  0.0000  1.0000
:ANG005:  ANGLE WITH OLD X-AXIS =         2.3

:ETA005:                         ASYMM. ETA =     0.27547


       ATOMNUMBER=  6 Pu  0+     VCOUL-ZERO =  0.83834E+00
:EFG006:                        EFG         =   -18.48812   *10**21  V / m**2
                               V20  TOT/SRF=    12.39489    -0.00121
                               V22  TOT/SRF=    -7.05695    -0.01179
                               V22M TOT/SRF=    -8.86634    -0.06844
                               V21  TOT/SRF=     0.00000     0.00000
                               V21M TOT/SRF=     0.00000     0.00000

            -14.21314   -8.86634    0.00000      -18.48812    0.00000    0.00000
             -8.86634   -0.09925    0.00000        0.00000    4.17573    0.00000
              0.00000    0.00000   14.31238        0.00000    0.00000   14.31238

         MAIN DIRECTIONS OF THE EFG   1.0000 -0.4822  0.0000
                                      0.4822  1.0000  0.0000
                                      0.0000  0.0000  1.0000
:ANG006:  ANGLE WITH OLD X-AXIS =        25.7

:ETA006:                         ASYMM. ETA =     0.54828


       ATOMNUMBER=  7 Pu  0+     VCOUL-ZERO =  0.82902E+00
:EFG007:                        EFG         =   -21.30397   *10**21  V / m**2
                               V20  TOT/SRF=    11.74637     0.00176
                               V22  TOT/SRF=     7.55511     0.11803
                               V22M TOT/SRF=    12.40220     0.02611
                               V21  TOT/SRF=     0.00000     0.00000
                               V21M TOT/SRF=     0.00000     0.00000

              0.77334   12.40220    0.00000        7.74043    0.00000    0.00000
             12.40220  -14.33687    0.00000        0.00000  -21.30397    0.00000
              0.00000    0.00000   13.56354        0.00000    0.00000   13.56354

         MAIN DIRECTIONS OF THE EFG   1.0000 -0.5618  0.0000
                                      0.5618  1.0000  0.0000
                                      0.0000  0.0000  1.0000
:ANG007:  ANGLE WITH OLD X-AXIS =        29.3

:ETA007:                         ASYMM. ETA =     0.27333


       ATOMNUMBER=  8 Pu  0+     VCOUL-ZERO =  0.84928E+00
:EFG008:                        EFG         =   -45.84049   *10**21  V / m**2
                               V20  TOT/SRF=    11.84050     0.05301
                               V22  TOT/SRF=   -38.20941    -0.06046
                               V22M TOT/SRF=     7.83472    -0.00451
                               V21  TOT/SRF=     0.00000     0.00000
                               V21M TOT/SRF=     0.00000     0.00000

            -45.04552    7.83472    0.00000      -45.84049    0.00000    0.00000
              7.83472   31.37329    0.00000        0.00000   32.16826    0.00000
              0.00000    0.00000   13.67223        0.00000    0.00000   13.67223

         MAIN DIRECTIONS OF THE EFG   1.0000  0.1015  0.0000
                                     -0.1015  1.0000  0.0000
                                      0.0000  0.0000  1.0000
:ANG008:  ANGLE WITH OLD X-AXIS =         5.8

:ETA008:                         ASYMM. ETA =     0.40349


     HELLMANN-FEYNMAN-FORCE IN mRy/a.u. = |F|  Fx       Fy             Fz
:FHF001:   1.ATOM       3219.692       3150.064        665.967          0.000

     HELLMANN-FEYNMAN-FORCE IN mRy/a.u. = |F|  Fx       Fy             Fz
:FHF002:   2.ATOM       1783.001       -329.514       1752.288          0.000

     HELLMANN-FEYNMAN-FORCE IN mRy/a.u. = |F|  Fx       Fy             Fz
:FHF003:   3.ATOM       6130.955       4761.260       3862.513          0.000

     HELLMANN-FEYNMAN-FORCE IN mRy/a.u. = |F|  Fx       Fy             Fz
:FHF004:   4.ATOM       3472.203      -3438.127       -485.256          0.000

     HELLMANN-FEYNMAN-FORCE IN mRy/a.u. = |F|  Fx       Fy             Fz
:FHF005:   5.ATOM       2082.506       1081.440       1779.696          0.000

     HELLMANN-FEYNMAN-FORCE IN mRy/a.u. = |F|  Fx       Fy             Fz
:FHF006:   6.ATOM       5663.395       4569.032       3346.341          0.000

     HELLMANN-FEYNMAN-FORCE IN mRy/a.u. = |F|  Fx       Fy             Fz
:FHF007:   7.ATOM       5730.073      -3968.983       4132.905          0.000

     HELLMANN-FEYNMAN-FORCE IN mRy/a.u. = |F|  Fx       Fy             Fz
:FHF008:   8.ATOM       1397.659       1275.786        570.808          0.000

:FIT001: LUSE= 13 SIGMA OF V-XC FIT FOR ATOM  1  0.7941404E-03
:FIT001: LUSE= 13 SIGMA OF V-XC FIT FOR ATOM  1  0.7941404E-03
:FIT002: LUSE= 13 SIGMA OF V-XC FIT FOR ATOM  2  0.4228676E-03
:FIT002: LUSE= 13 SIGMA OF V-XC FIT FOR ATOM  2  0.4228676E-03
:FIT003: LUSE= 13 SIGMA OF V-XC FIT FOR ATOM  3  0.4434270E-03
:FIT003: LUSE= 13 SIGMA OF V-XC FIT FOR ATOM  3  0.4434270E-03
:FIT004: LUSE= 13 SIGMA OF V-XC FIT FOR ATOM  4  0.4563838E-03
:FIT004: LUSE= 13 SIGMA OF V-XC FIT FOR ATOM  4  0.4563838E-03
:FIT005: LUSE= 13 SIGMA OF V-XC FIT FOR ATOM  5  0.3763233E-03
:FIT005: LUSE= 13 SIGMA OF V-XC FIT FOR ATOM  5  0.3763233E-03
:FIT006: LUSE= 13 SIGMA OF V-XC FIT FOR ATOM  6  0.2920950E-03
:FIT006: LUSE= 13 SIGMA OF V-XC FIT FOR ATOM  6  0.2920950E-03
:FIT007: LUSE= 13 SIGMA OF V-XC FIT FOR ATOM  7  0.7602571E-03
:FIT007: LUSE= 13 SIGMA OF V-XC FIT FOR ATOM  7  0.7602571E-03
:FIT008: LUSE= 13 SIGMA OF V-XC FIT FOR ATOM  8  0.2082882E-03
:FIT008: LUSE= 13 SIGMA OF V-XC FIT FOR ATOM  8  0.2082882E-03
:DEN  : DENSITY INTEGRAL  =       -350942.06055372   (Ry)
       ELS_POTENTIAL_AT Z=0 and Z=0.5:   1.06308   0.50508
       ELS_POTENTIAL_AT Y=0 and Y=0.5:   1.34892   1.34892
:VZERO:v0,v0c,v0x   0.14846   1.06308  -0.91462 v5,v5c,v5x  -0.46362   0.50508  -0.96870
:VZERY:v0,v0c,v0x   0.47515   1.34892  -0.87377 v5,v5c,v5x   0.47515   1.34892  -0.87377
:VZERX:v0,v0c,v0x  -0.84256   0.16765  -1.01021 v5,v5c,v5x  -0.73584   0.26598  -1.00182

------- alpha_Pu_1.scf1 --------

          ATOMIC SPHERE DEPENDENT PARAMETERS FOR ATOM  Pu  0+    
:e__0001: OVERALL ENERGY PARAMETER IS    1.4663
          OVERALL BASIS SET ON ATOM IS LAPW
:E0_0001: E( 0)=    1.4663
             APW+lo
:E0_0001: E( 0)=   -1.7525   E(BOTTOM)=   -2.530   E(TOP)=   -0.975
             LOCAL ORBITAL
:E1_0001: E( 1)=   -0.8380   E(BOTTOM)=   -0.838   E(TOP)= -200.000
             APW+lo
:E1_0001: E( 1)=    1.4663
             LOCAL ORBITAL
:E3_0001: E( 3)=    1.4663   E(BOTTOM)=    1.206   E(TOP)= -200.000
             APW+lo
:E2_0001: E( 2)=    1.4663   E(BOTTOM)=    1.361   E(TOP)= -200.000
             APW+lo

          ATOMIC SPHERE DEPENDENT PARAMETERS FOR ATOM  Pu  0+    
:e__0002: OVERALL ENERGY PARAMETER IS    1.4663
          OVERALL BASIS SET ON ATOM IS LAPW
:E0_0002: E( 0)=    1.4663
             APW+lo
:E0_0002: E( 0)=   -1.7495   E(BOTTOM)=   -2.524   E(TOP)=   -0.975
             LOCAL ORBITAL
:E1_0002: E( 1)=   -0.8280   E(BOTTOM)=   -0.828   E(TOP)= -200.000
             APW+lo
:E1_0002: E( 1)=    1.4663
             LOCAL ORBITAL
:E3_0002: E( 3)=    1.4663   E(BOTTOM)=    1.211   E(TOP)= -200.000
             APW+lo
:E2_0002: E( 2)=    1.4663   E(BOTTOM)=    1.371   E(TOP)= -200.000
             APW+lo

          ATOMIC SPHERE DEPENDENT PARAMETERS FOR ATOM  Pu  0+    
:e__0003: OVERALL ENERGY PARAMETER IS    1.4663
          OVERALL BASIS SET ON ATOM IS LAPW
:E0_0003: E( 0)=    1.4663
             APW+lo
:E0_0003: E( 0)=   -1.7475   E(BOTTOM)=   -2.523   E(TOP)=   -0.972
             LOCAL ORBITAL
:E1_0003: E( 1)=   -0.8280   E(BOTTOM)=   -0.828   E(TOP)= -200.000
             APW+lo
:E1_0003: E( 1)=    1.4663
             LOCAL ORBITAL
:E3_0003: E( 3)=    1.4663   E(BOTTOM)=    1.211   E(TOP)= -200.000
             APW+lo
:E2_0003: E( 2)=    1.4663   E(BOTTOM)=    1.371   E(TOP)= -200.000
             APW+lo

          ATOMIC SPHERE DEPENDENT PARAMETERS FOR ATOM  Pu  0+    
:e__0004: OVERALL ENERGY PARAMETER IS    1.4663
          OVERALL BASIS SET ON ATOM IS LAPW
:E0_0004: E( 0)=    1.4663
             APW+lo
:E0_0004: E( 0)=   -1.7480   E(BOTTOM)=   -2.523   E(TOP)=   -0.973
             LOCAL ORBITAL
:E1_0004: E( 1)=   -0.8280   E(BOTTOM)=   -0.828   E(TOP)= -200.000
             APW+lo
:E1_0004: E( 1)=    1.4663
             LOCAL ORBITAL
:E3_0004: E( 3)=    1.4663   E(BOTTOM)=    1.211   E(TOP)= -200.000
             APW+lo
:E2_0004: E( 2)=    1.4663   E(BOTTOM)=    1.371   E(TOP)= -200.000
             APW+lo

          ATOMIC SPHERE DEPENDENT PARAMETERS FOR ATOM  Pu  0+    
:e__0005: OVERALL ENERGY PARAMETER IS    1.4663
          OVERALL BASIS SET ON ATOM IS LAPW
:E0_0005: E( 0)=    1.4663
             APW+lo
:E0_0005: E( 0)=   -1.7470   E(BOTTOM)=   -2.521   E(TOP)=   -0.973
             LOCAL ORBITAL
:E1_0005: E( 1)=   -0.8240   E(BOTTOM)=   -0.824   E(TOP)= -200.000
             APW+lo
:E1_0005: E( 1)=    1.4663
             LOCAL ORBITAL
:E3_0005: E( 3)=    1.4663   E(BOTTOM)=    1.216   E(TOP)= -200.000
             APW+lo
:E2_0005: E( 2)=    1.4663   E(BOTTOM)=    1.376   E(TOP)= -200.000
             APW+lo

          ATOMIC SPHERE DEPENDENT PARAMETERS FOR ATOM  Pu  0+    
:e__0006: OVERALL ENERGY PARAMETER IS    1.4663
          OVERALL BASIS SET ON ATOM IS LAPW
:E0_0006: E( 0)=    1.4663
             APW+lo
:E0_0006: E( 0)=   -1.7460   E(BOTTOM)=   -2.520   E(TOP)=   -0.972
             LOCAL ORBITAL
:E1_0006: E( 1)=   -0.8240   E(BOTTOM)=   -0.824   E(TOP)= -200.000
             APW+lo
:E1_0006: E( 1)=    1.4663
             LOCAL ORBITAL
:E3_0006: E( 3)=    1.4663   E(BOTTOM)=    1.216   E(TOP)= -200.000
             APW+lo
:E2_0006: E( 2)=    1.4663   E(BOTTOM)=    1.376   E(TOP)= -200.000
             APW+lo

          ATOMIC SPHERE DEPENDENT PARAMETERS FOR ATOM  Pu  0+    
:e__0007: OVERALL ENERGY PARAMETER IS    1.4663
          OVERALL BASIS SET ON ATOM IS LAPW
:E0_0007: E( 0)=    1.4663
             APW+lo
:E0_0007: E( 0)=   -1.7475   E(BOTTOM)=   -2.523   E(TOP)=   -0.972
             LOCAL ORBITAL
:E1_0007: E( 1)=   -0.8280   E(BOTTOM)=   -0.828   E(TOP)= -200.000
             APW+lo
:E1_0007: E( 1)=    1.4663
             LOCAL ORBITAL
:E3_0007: E( 3)=    1.4663   E(BOTTOM)=    1.211   E(TOP)= -200.000
             APW+lo
:E2_0007: E( 2)=    1.4663   E(BOTTOM)=    1.371   E(TOP)= -200.000
             APW+lo

          ATOMIC SPHERE DEPENDENT PARAMETERS FOR ATOM  Pu  0+    
:e__0008: OVERALL ENERGY PARAMETER IS    1.4663
          OVERALL BASIS SET ON ATOM IS LAPW
:E0_0008: E( 0)=    1.4663
             APW+lo
:E0_0008: E( 0)=   -1.7400   E(BOTTOM)=   -2.512   E(TOP)=   -0.968
             LOCAL ORBITAL
:E1_0008: E( 1)=   -0.8140   E(BOTTOM)=   -0.814   E(TOP)= -200.000
             APW+lo
:E1_0008: E( 1)=    1.4663
             LOCAL ORBITAL
:E3_0008: E( 3)=    1.4663   E(BOTTOM)=    1.226   E(TOP)= -200.000
             APW+lo
:E2_0008: E( 2)=    1.4663   E(BOTTOM)=    1.391   E(TOP)= -200.000
             APW+lo

       K=   0.00000   0.00000   0.00000            1
:RKM  : MATRIX SIZE 2229LOs: 320  RKM= 8.49  WEIGHT= 1.00  PGR:    
       EIGENVALUES ARE:
:EIG00001:      -1.8223400   -1.7926562   -1.7866092   -1.7592190   -1.7389859
:EIG00006:      -1.7350996   -1.7199117   -1.7098092   -1.7070895   -1.6876674
:EIG00011:      -1.6807532   -1.6721986   -1.6546273   -1.6501602   -1.6429582
:EIG00016:      -1.6285357   -0.0607728   -0.0467575   -0.0467413   -0.0153512
:EIG00021:      -0.0131456   -0.0048185    0.0028179    0.0066210    0.0595242
:EIG00026:       0.0638494    0.0653682    0.0862916    0.0881272    0.1048773
:EIG00031:       0.1093097    0.1096430    0.1130897    0.1153903    0.1457758
:EIG00036:       0.1592246    0.2040125    0.2056566    0.2624824    0.2822787
:EIG00041:       0.2925002    0.3176777    0.3356843    0.3430270    0.3797274
:EIG00046:       0.3828655    0.4065759    0.4155096    0.4183284    0.4246404
 
:EIG00051:       0.4324117    0.4493798    0.4548213    0.4591703    0.4731133
:EIG00056:       0.4782276    0.4860948    0.5039023    0.5075398    0.5115118
:EIG00061:       0.5217364    0.5266874    0.5519067    0.5616897    1.3645586
:EIG00066:       1.3973721    1.4207627    1.4230463    1.4365602    1.4428954
:EIG00071:       1.4466333    1.4564210    1.4726214    1.4757209    1.4794874
:EIG00076:       1.4822157    1.4960566    1.5018460    1.5089398    1.5114212
:EIG00081:       1.5172019    1.5246204    1.5286635    1.5392200    1.5541201
:EIG00086:       1.5544832    1.5551637    1.5582395    1.5602629    1.5606484
:EIG00091:       1.5677116    1.5708446    1.5728332    1.5753272    1.5754707
:EIG00096:       1.5818535    1.5883451    1.5883830    1.5901073    1.5930556
 
:EIG00101:       1.5930795    1.5935865    1.5976261    1.5992577    1.6004230
:EIG00106:       1.6030002    1.6037934    1.6050632    1.6075555    1.6152778
:EIG00111:       1.6180288    1.6204660    1.6226320    1.6228542    1.6257321
:EIG00116:       1.6289794    1.6330817    1.6331104    1.6386703    1.6414022
:EIG00121:       1.6523207    1.6599727    1.6622792    1.6656356    1.6735963
:EIG00126:       1.6735994    1.6835921    1.6908801    1.6914592    1.6936530
:EIG00131:       1.6963991    1.7034146    1.7088877    1.7102391    1.7115326
:EIG00136:       1.7146851    1.7256588    1.7268615    1.7270841    1.7278678
:EIG00141:       1.7297792    1.7299404    1.7323135    1.7337634    1.7435764
:EIG00146:       1.7449464    1.7503709    1.7506832    1.7544300    1.7564493
 
:EIG00151:       1.7646577    1.7650903    1.7655997    1.7701482    1.7701675
:EIG00156:       1.7766614    1.7803309    1.7819444    1.7820044    1.7823919
:EIG00161:       1.7833727    1.7860932    1.7872185    1.7892566    1.7902943
:EIG00166:       1.7920217    1.7932286    1.7958855    1.7969029    1.8017234
:EIG00171:       1.8022738    1.8037390    1.8109919    1.8110349    1.8131526
:EIG00176:       1.8149947    1.8160183    1.8160897    1.8163735    1.8205937
:EIG00181:       1.8212859    1.8271854    1.8299986    1.8382747    1.8395170
:EIG00186:       1.8411140    1.8431199    1.8454638    1.8461903    1.8534611
:EIG00191:       1.8548794    1.8584031    1.8660866    1.8690064    1.8853011
:EIG00196:       1.8869858    1.8939429    1.9272445    1.9469992    1.9475756
 
:EIG00201:       1.9577071    1.9725888    1.9796556    1.9833014    1.9969132
:EIG00206:       2.0007838    2.0171187    2.0181663    2.0228541    2.0511175
:EIG00211:       2.0522869    2.0555099    2.0676996    2.0851225    2.0944300
:EIG00216:       2.1306572    2.1406675    2.1419506    2.1746882    2.1820080
:EIG00221:       2.1908385    2.1910367    2.2205087    2.2319328    2.2367981
:EIG00226:       2.2406566    2.2652515    2.2853451    2.2914361    2.2951408
:EIG00231:       2.3100629    2.3354593    2.3475242    2.3514740    2.3589239
:EIG00236:       2.3932386    2.3960824    2.4039381    2.4167223    2.4492929
:EIG00241:       2.4588562    2.4638323    2.4659914    2.4889437    2.5201960
:EIG00246:       2.5281635    2.5373892    2.5574965    2.5796171    2.5826552
 
:EIG00251:       2.6077343    2.6136888    2.6272611    2.6422376    2.6449508
:EIG00256:       2.6469504    2.6719940    2.6842169    2.7022664    2.7159391
:EIG00261:       2.7393794    2.7927995    2.8118783    2.8145822    2.8850923
:EIG00266:       2.9234262    2.9671963    2.9804095    2.9821546    3.0077800
:EIG00271:       3.0445781    3.0460221    3.0482294    3.0484576    3.0492874
:EIG00276:       3.0603547    3.0647902    3.0737739    3.0761078    3.0769904
:EIG00281:       3.1281650    3.1341673    3.1425773    3.1472789    3.1622964
:EIG00286:       3.1678692    3.2140455    3.2145463    3.2361274    3.2504043
:EIG00291:       3.2619818    3.2702029    3.2987412    3.3087761    3.3191940
:EIG00296:       3.3526647    3.3650784    3.3711031    3.3936536    3.4129506
 
:EIG00301:       3.4176950    3.4262416    3.4346285    3.4646334    3.4783898
:EIG00306:       3.5003575    3.5011778    3.5034932    3.5082497    3.5218917
:EIG00311:       3.5380070    3.5393850    3.5606809    3.5635108    3.5667724
:EIG00316:       3.5759077    3.5824962    3.6167388    3.6199113    3.6237092
:EIG00321:       3.6359255    3.6519780    3.6552782    3.6943349    3.7034930
:EIG00326:       3.7074731    3.7142180    3.7168311    3.7245436    3.7482829
:EIG00331:       3.7568143    3.7694616    3.7704486    3.7830664    3.7908775
:EIG00336:       3.8040591    3.8298014    3.8513935    3.8567670    3.8728180
:EIG00341:       3.8817411    3.8982736    3.8987927    3.9053565    3.9194573
:EIG00346:       3.9318572    3.9348892    3.9523212    3.9583126    3.9638391
 
:EIG00351:       3.9944193    3.9945606    4.0047051    4.0065606    4.0308591
:EIG00356:       4.0782653    4.0862264    4.0900992    4.1009255    4.1164694
:EIG00361:       4.1180506    4.1227021    4.1473534    4.1540862    4.1563554
:EIG00366:       4.1712360    4.1813940    4.1925205    4.2042118    4.2237908
:EIG00371:       4.2278258    4.2501545    4.2579865    4.2587693    4.2627420
:EIG00376:       4.2811572    4.2832866    4.3105633    4.3262436    4.3320892
:EIG00381:       4.3430447    4.3491015    4.3589498    4.3670685    4.3678529
:EIG00386:       4.3684420    4.4072299    4.4209061    4.4333450    4.4504176
:EIG00391:       4.4739867    4.4973013    4.5073405    4.5199330    4.5420253
:EIG00396:       4.5444791    4.5509857    4.5557619    4.5614790    4.5728962
 
:EIG00401:       4.6114573    4.6297650    4.6394837    4.6435009    4.6713988
:EIG00406:       4.6750155    4.6819715    4.6903918    4.6930683    4.7004625
:EIG00411:       4.7247880    4.7320537    4.7359481    4.7453392    4.7459640
:EIG00416:       4.7709758    4.7763963    4.7782294    4.8106448    4.8108616
:EIG00421:       4.8140928    4.8175915    4.8495030    4.8517678    4.8802161
:EIG00426:       4.8940261    4.9054061    4.9194735    4.9328570    4.9452485
:EIG00431:       4.9487813    4.9560766    4.9622020    4.9747422    4.9748640
:EIG00436:       4.9762062    4.9837327    4.9861473    5.0069289    5.0141577
:EIG00441:       5.0144863    5.0288059    5.0335930    5.0495288    5.0520143
:EIG00446:       5.0522796    5.0639617    5.0746777    5.0848351    5.0895783
 
:EIG00451:       5.0944129    5.1070175    5.1166891    5.1330485    5.1420298
:EIG00456:       5.1695721    5.1696485    5.1837491    5.1935456    5.2061826
:EIG00461:       5.2062965    5.2280762    5.2317811    5.2493020    5.2531668
:EIG00466:       5.2618985    5.2877729    5.2883836    5.2966771    5.3167936
:EIG00471:       5.3211001    5.3242154    5.3301614    5.3437167    5.3530200
:EIG00476:       5.3585033    5.3747258    5.3748107    5.3875869    5.3903255
:EIG00481:       5.3996364    5.4002232    5.4076945    5.4171009    5.4212775
:EIG00486:       5.4351127    5.4455431    5.4497524    5.4556157    5.4557183
:EIG00491:       5.4601394    5.4771017    5.4789423    5.4846992    5.4975475
:EIG00496:       5.5049446    5.5114527    5.5130739    5.5295551    5.5375985
 
:EIG00501:       5.5454741    5.5508121    5.5559785    5.5623770    5.5776864
:EIG00506:       5.5841207    5.5877009    5.5983804    5.6056296    5.6116894
:EIG00511:       5.6195152    5.6225033    5.6396716    5.6518377    5.6635147
:EIG00516:       5.6642424    5.6657201    5.6865344    5.6891502    5.6956411
:EIG00521:       5.7007292    5.7231730    5.7330391    5.7456556    5.7479802
:EIG00526:       5.7540670    5.7542426    5.7648752    5.7661551    5.7931341
:EIG00531:       5.7944754    5.8032191    5.8230233    5.8363361    5.8384950
:EIG00536:       5.8517877    5.8567671    5.8657619    5.8873834    5.8919212
:EIG00541:       5.9155152    5.9180020    5.9244424    5.9441468    5.9445631
:EIG00546:       5.9447972    5.9469075    5.9573470    5.9640209    5.9698206
 
:EIG00551:       5.9962139    5.9979297    6.0050418    6.0095999    6.0310404
:EIG00556:       6.0340795    6.0370505    6.0383525    6.0505426    6.0624868
:EIG00561:       6.0832854    6.0868611    6.0954597    6.1032089    6.1044893
:EIG00566:       6.1062991    6.1089225    6.1355532    6.1412982    6.1440187
:EIG00571:       6.1441441    6.1554664    6.1584167    6.1607692    6.1666232
:EIG00576:       6.1856719    6.1889097    6.1920802    6.2117379    6.2296200
:EIG00581:       6.2308508    6.2509539    6.2535468    6.2573071    6.2645138
:EIG00586:       6.2695091    6.2772329    6.2933160    6.2969898    6.2970586
:EIG00591:       6.3014083    6.3188024    6.3236669    6.3302339    6.3448293
:EIG00596:       6.3458098    6.3470115    6.3653755    6.3728740    6.3774439
 
:EIG00601:       6.3796519    6.4002567    6.4020875    6.4065350    6.4071878
:EIG00606:       6.4243753    6.4349080    6.4349853    6.4615579    6.4626278
:EIG00611:       6.4636297    6.4709973    6.4787099    6.4908683    6.5042512
:EIG00616:       6.5208011    6.5213593    6.5334094    6.5370366    6.5481954
:EIG00621:       6.5542268    6.5560427    6.5591248    6.5885349    6.5905931
:EIG00626:       6.6055213    6.6141609    6.6261158    6.6285049    6.6437427
:EIG00631:       6.6665552    6.6732182    6.6751069    6.6759608    6.6891239
:EIG00636:       6.6956488    6.7038496    6.7061068    6.7271036    6.7317284
:EIG00641:       6.7391757    6.7410819    6.7535385    6.7563173    6.7781297
:EIG00646:       6.7828775    6.7860968    6.8040459    6.8211791    6.8281766
 
:EIG00651:       6.8453723    6.8468436    6.8572896    6.8630416    6.8790165
:EIG00656:       6.8862079    6.8957884    6.9065602    6.9134425    6.9183965
:EIG00661:       6.9237522    6.9376751    6.9393833    6.9614047    6.9646034
:EIG00666:       6.9736947    6.9764954    6.9839033    6.9890872    7.0041127
:EIG00671:       7.0114888    7.0308172    7.0561865    7.0585902    7.0754703
:EIG00676:       7.0794362    7.0830346    7.0967736    7.0983338    7.1121383
:EIG00681:       7.1205600    7.1264990    7.1275409    7.1483117    7.1566526
:EIG00686:       7.1641362    7.1818548    7.1958501    7.2004875    7.2245395
:EIG00691:       7.2349240    7.2399510    7.2511416    7.2633807    7.2713239
:EIG00696:       7.2823827    7.2834058    7.2875895    7.2971690    7.3050271
 
:EIG00701:       7.3071824    7.3103612    7.3135375    7.3374252    7.3443940
:EIG00706:       7.3705485    7.3705928    7.3810766    7.3824632    7.3869452
:EIG00711:       7.3926871    7.4037521    7.4302430    7.4371039    7.4514233
:EIG00716:       7.4518570    7.4590097    7.4636896    7.4792190    7.4947016
:EIG00721:       7.4992125
       ********************************************************

:KPT   :      NUMBER OF K-POINTS:    272

------- alpha_Pu_1.scfso --------
   0.0   0.0 angle (M,z), angle (M,x) deg
 
        SPIN-ORBIT EIGENVALUES:
     K=   0.00000   0.00000   0.00000            1
      MATRIX SIZE= 1442   WEIGHT= 1.00
     EIGENVALUES ARE:
          -1.8223684   -1.8223684   -1.7927319   -1.7927319   -1.7866810
          -1.7866810   -1.7593113   -1.7593113   -1.7390496   -1.7390496
          -1.7351909   -1.7351909   -1.7199864   -1.7199864   -1.7098792
          -1.7098792   -1.7071162   -1.7071162   -1.6877451   -1.6877451
          -1.6808538   -1.6808538   -1.6722721   -1.6722721   -1.6547067
          -1.6547067   -1.6502251   -1.6502251   -1.6430125   -1.6430125
          -1.6286017   -1.6286017   -0.2816201   -0.2816201   -0.2813879
          -0.2813879   -0.2597471   -0.2597471   -0.2557537   -0.2557537

          -0.2505846   -0.2505846   -0.2452529   -0.2452529   -0.2384982
          -0.2384982   -0.2349292   -0.2349292   -0.2047272   -0.2047272
          -0.1980540   -0.1980540   -0.1967447   -0.1967447   -0.1942153
          -0.1942153   -0.1775634   -0.1775634   -0.1012613   -0.1012613
          -0.0763723   -0.0763723   -0.0034850   -0.0034850    0.1906007
           0.1906007    0.2196712    0.2196712    0.2227561    0.2227561
           0.2315409    0.2315409    0.2498280    0.2498280    0.2630112
           0.2630112    0.2679584    0.2679584    0.2951737    0.2951737

           0.3338309    0.3338309    0.3363888    0.3363888    0.3430079
           0.3430079    0.3556491    0.3556491    0.3783702    0.3783702
           0.4019977    0.4019977    0.4146669    0.4146669    0.4241510
           0.4241510    0.4663303    0.4663303    0.4898331    0.4898331
           0.5063219    0.5063219    0.5453713    0.5453713    0.5534608
           0.5534608    0.5591922    0.5591922    0.5767623    0.5767623
           0.5971322    0.5971322    0.6157228    0.6157228    0.6297165
           0.6297165    0.6407199    0.6407199    0.6627420    0.6627420

           0.6853739    0.6853739    0.7093478    0.7093478    0.7147419
           0.7147419    0.7330011    0.7330011    1.3644150    1.3644150
           1.3954373    1.3954373    1.4177105    1.4177105    1.4220374
           1.4220374    1.4300664    1.4300664    1.4416536    1.4416536
           1.4482533    1.4482533    1.4543839    1.4543839    1.4702486
           1.4702486    1.4725270    1.4725270    1.4732607    1.4732607
           1.4860215    1.4860215    1.4879034    1.4879034    1.4976038
           1.4976038    1.5086911    1.5086911    1.5129069    1.5129069

           1.5182934    1.5182934    1.5191773    1.5191773    1.5272331
           1.5272331    1.5340622    1.5340622    1.5458396    1.5458396
           1.5476951    1.5476951    1.5497224    1.5497224    1.5539655
           1.5539655    1.5547061    1.5547061    1.5552993    1.5552993
           1.5627165    1.5627165    1.5635054    1.5635054    1.5656389
           1.5656389    1.5691288    1.5691288    1.5728892    1.5728892
           1.5764825    1.5764825    1.5782695    1.5782695    1.5828064
           1.5828064    1.5839737    1.5839737    1.5862035    1.5862035

           1.5890500    1.5890500    1.5904580    1.5904580    1.5920632
           1.5920632    1.5954894    1.5954894    1.5956109    1.5956109
           1.5970226    1.5970226    1.6009309    1.6009309    1.6028737
           1.6028737    1.6039126    1.6039126    1.6112535    1.6112535
           1.6115123    1.6115123    1.6131881    1.6131881    1.6161608
           1.6161608    1.6169626    1.6169626    1.6200974    1.6200974
           1.6239016    1.6239016    1.6266761    1.6266761    1.6303543
           1.6303543    1.6315543    1.6315543    1.6357496    1.6357496

           1.6441144    1.6441144    1.6457555    1.6457555    1.6554397
           1.6554397    1.6555942    1.6555942    1.6588032    1.6588032
           1.6647649    1.6647649    1.6742615    1.6742615    1.6772948
           1.6772948    1.6779503    1.6779503    1.6828317    1.6828317
           1.6848151    1.6848151    1.6899416    1.6899416    1.6902355
           1.6902355    1.6971118    1.6971118    1.7069971    1.7069971
           1.7141812    1.7141812    1.7168386    1.7168386    1.7191189
           1.7191189    1.7272045    1.7272045    1.7306396    1.7306396

           1.7329085    1.7329085    1.7362020    1.7362020    1.7408799
           1.7408799    1.7442663    1.7442663    1.7455908    1.7455908
           1.7465519    1.7465519    1.7536787    1.7536787    1.7545508
           1.7545508    1.7583166    1.7583166    1.7615707    1.7615707
           1.7666511    1.7666511    1.7681052    1.7681052    1.7720814
           1.7720814    1.7751723    1.7751723    1.7772999    1.7772999
           1.7783470    1.7783470    1.7787669    1.7787669    1.7812900
           1.7812900    1.7845001    1.7845001    1.7864814    1.7864814

           1.7891997    1.7891997    1.7901480    1.7901480    1.7939147
           1.7939147    1.7940549    1.7940549    1.7965979    1.7965979
           1.7980179    1.7980179    1.8001618    1.8001618    1.8005540
           1.8005540    1.8051243    1.8051243    1.8056624    1.8056624
           1.8087326    1.8087326    1.8120487    1.8120487    1.8120732
           1.8120732    1.8165015    1.8165015    1.8176002    1.8176002
           1.8226029    1.8226029    1.8226888    1.8226888    1.8268752
           1.8268752    1.8292997    1.8292997    1.8293624    1.8293624

           1.8334249    1.8334249    1.8352243    1.8352243    1.8364836
           1.8364836    1.8417871    1.8417871    1.8426847    1.8426847
           1.8480105    1.8480105    1.8481313    1.8481313    1.8537912
           1.8537912    1.8556466    1.8556466    1.8594993    1.8594993
           1.8600996    1.8600996    1.8686939    1.8686939    1.8703700
           1.8703700    1.8773734    1.8773734    1.8855613    1.8855613
           1.8935682    1.8935682    1.9012632    1.9012632    1.9319405
           1.9319405    1.9456675    1.9456675    1.9499163    1.9499163

           1.9606618    1.9606618    1.9669642    1.9669642    1.9824727
           1.9824727    1.9827214    1.9827214    2.0038391    2.0038391
           2.0051814    2.0051814    2.0185759    2.0185759    2.0196479
           2.0196479    2.0256876    2.0256876    2.0549708    2.0549708
           2.0605877    2.0605877    2.0667518    2.0667518    2.0704258
           2.0704258    2.0907963    2.0907963    2.1002825    2.1002825
           2.1337029    2.1337029    2.1436663    2.1436663    2.1496710
           2.1496710    2.1741668    2.1741668    2.1820432    2.1820432

           2.1833866    2.1833866    2.2007712    2.2007712    2.2275127
           2.2275127    2.2285679    2.2285679    2.2419928    2.2419928
           2.2434024    2.2434024    2.2656278    2.2656278    2.2878170
           2.2878170    2.2880973    2.2880973    2.2963864    2.2963864
           2.3172698    2.3172698    2.3327628    2.3327628    2.3541628
           2.3541628    2.3590253    2.3590253    2.3617787    2.3617787
           2.3905514    2.3905514    2.3971643    2.3971643    2.4078943
           2.4078943    2.4171300    2.4171300    2.4335700    2.4335700

           2.4590729    2.4590729    2.4713217    2.4713217    2.4791855
           2.4791855    2.4926957    2.4926957    2.5171629    2.5171629
           2.5306244    2.5306244    2.5402071    2.5402071    2.5564395
           2.5564395    2.5743427    2.5743427    2.5814983    2.5814983
           2.6058569    2.6058569    2.6091737    2.6091737    2.6274779
           2.6274779    2.6313875    2.6313875    2.6415427    2.6415427
           2.6677949    2.6677949    2.6742924    2.6742924    2.6923968
           2.6923968    2.7074046    2.7074046    2.7177545    2.7177545

           2.7447701    2.7447701    2.7901942    2.7901942    2.8100760
           2.8100760    2.8209176    2.8209176    2.8854590    2.8854590
           2.9148861    2.9148861    2.9442141    2.9442141    2.9553236
           2.9553236    2.9849032    2.9849032    3.0091245    3.0091245
           3.0258100    3.0258100    3.0269614    3.0269614    3.0456909
           3.0456909    3.0497131    3.0497131    3.0635198    3.0635198
           3.0709674    3.0709674    3.0711827    3.0711827    3.0782447
           3.0782447    3.0946618    3.0946618    3.1041263    3.1041263

           3.1352789    3.1352789    3.1407349    3.1407349    3.1472102
           3.1472102    3.1475203    3.1475203    3.1663753    3.1663753
           3.1766872    3.1766872    3.2161908    3.2161908    3.2190872
           3.2190872    3.2480481    3.2480481    3.2564259    3.2564259
           3.2623253    3.2623253    3.2791948    3.2791948    3.3047072
           3.3047072    3.3123553    3.3123553    3.3218047    3.3218047
           3.3569504    3.3569504    3.3582440    3.3582440    3.3748195
           3.3748195    3.3947280    3.3947280    3.4094934    3.4094934

           3.4209567    3.4209567    3.4360435    3.4360435    3.4373990
           3.4373990    3.4698359    3.4698359    3.4761496    3.4761496
           3.4988738    3.4988738    3.4989072    3.4989072    3.5018990
           3.5018990    3.5156006    3.5156006    3.5271274    3.5271274
           3.5383284    3.5383284    3.5455115    3.5455115    3.5614109
           3.5614109    3.5622481    3.5622481    3.5751463    3.5751463
           3.5840114    3.5840114    3.5845853    3.5845853    3.6175228
           3.6175228    3.6200390    3.6200390    3.6352813    3.6352813

           3.6401978    3.6401978    3.6542152    3.6542152    3.6601053
           3.6601053    3.6945942    3.6945942    3.7065466    3.7065466
           3.7088460    3.7088460    3.7167055    3.7167055    3.7202951
           3.7202951    3.7321334    3.7321334    3.7538597    3.7538597
           3.7598198    3.7598198    3.7694862    3.7694862    3.7745173
           3.7745173    3.7843065    3.7843065    3.7970121    3.7970121
           3.8047334    3.8047334    3.8340166    3.8340166    3.8516937
           3.8516937    3.8578478    3.8578478    3.8745275    3.8745275

           3.8814638    3.8814638    3.9003056    3.9003056    3.9029492
           3.9029492    3.9073925    3.9073925    3.9225293    3.9225293
           3.9349106    3.9349106    3.9349418    3.9349418    3.9542064
           3.9542064    3.9569794    3.9569794    3.9659514    3.9659514
           3.9949148    3.9949148    3.9954696    3.9954696    4.0072103
           4.0072103    4.0136896    4.0136896    4.0349680    4.0349680
           4.0775153    4.0775153    4.0862543    4.0862543    4.0913848
           4.0913848    4.1015675    4.1015675    4.1149651    4.1149651

           4.1194330    4.1194330    4.1244613    4.1244613    4.1484339
           4.1484339    4.1512272    4.1512272    4.1620565    4.1620565
           4.1648911    4.1648911    4.1815719    4.1815719    4.1930833
           4.1930833    4.2088922    4.2088922    4.2202553    4.2202553
           4.2323749    4.2323749    4.2440037    4.2440037    4.2563959
           4.2563959    4.2640631    4.2640631    4.2662333    4.2662333
           4.2806730    4.2806730    4.2881508    4.2881508    4.3091561
           4.3091561    4.3276906    4.3276906    4.3324952    4.3324952

           4.3436253    4.3436253    4.3496134    4.3496134    4.3561597
           4.3561597    4.3627230    4.3627230    4.3693291    4.3693291
           4.3735774    4.3735774    4.3990413    4.3990413    4.4231054
           4.4231054    4.4241903    4.4241903    4.4567782    4.4567782
           4.4726875    4.4726875    4.4944808    4.4944808
       ********************************************************

------- alpha_Pu_1.scf2 --------
:GMA  : POTENTIAL AND CHARGE CUT-OFF  12.00 Ry**.5
         Bandranges (emin - emax) and occupancy:
:BAN00250: 250    1.656438    1.673414  1.00000000
:BAN00251: 251    1.662300    1.674732  1.00000000
:BAN00252: 252    1.662300    1.674732  1.00000000
:BAN00253: 253    1.666420    1.679604  0.96769498
:BAN00254: 254    1.666420    1.679604  0.96769498
:BAN00255: 255    1.669537    1.680325  0.77130738
:BAN00256: 256    1.669537    1.680325  0.77130738
:BAN00257: 257    1.673023    1.684999  0.26077741
:BAN00258: 258    1.673023    1.684999  0.26077741
:BAN00259: 259    1.676737    1.685881  0.00022023
:BAN00260: 260    1.676737    1.685881  0.00022023
:BAN00261: 261    1.681317    1.688758  0.00000000
:BAN00262: 262    1.681317    1.688758  0.00000000
:BAN00263: 263    1.684969    1.691725  0.00000000
:BAN00264: 264    1.684969    1.691725  0.00000000
:BAN00265: 265    1.689939    1.699184  0.00000000
        Energy to separate low and high energystates:    1.31441


:NLDA  : NUMBER OF ELECTRONS          = 256.000

:FLDA  : F E R M I - ENERGY           =   2.17716




:POS001: AT.NR.  -1 POSITION = 0.33900 0.25000 0.15650  MULTIPLICITY =  2

       LMMAX 28
       LM=   0 0  1 1 -1 1  2 0  2 2 -2 2  3 1 -3 1  3 3 -3 3  4 0  4 2 -4 2  4 4 -4 4  5 1 -5 1
         5 3 -5 3  5 5 -5 5  6 0  6 2 -6 2  6 4 -6 4  6 6 -6 6




:POS002: AT.NR.  -2 POSITION = 0.33900 0.25000 0.15650  MULTIPLICITY =  2

       LMMAX 28
       LM=   0 0  1 1 -1 1  2 0  2 2 -2 2  3 1 -3 1  3 3 -3 3  4 0  4 2 -4 2  4 4 -4 4  5 1 -5 1
         5 3 -5 3  5 5 -5 5  6 0  6 2 -6 2  6 4 -6 4  6 6 -6 6




:POS003: AT.NR.  -3 POSITION = 0.33900 0.25000 0.15650  MULTIPLICITY =  2

       LMMAX 28
       LM=   0 0  1 1 -1 1  2 0  2 2 -2 2  3 1 -3 1  3 3 -3 3  4 0  4 2 -4 2  4 4 -4 4  5 1 -5 1
         5 3 -5 3  5 5 -5 5  6 0  6 2 -6 2  6 4 -6 4  6 6 -6 6




:POS004: AT.NR.  -4 POSITION = 0.33900 0.25000 0.15650  MULTIPLICITY =  2

       LMMAX 28
       LM=   0 0  1 1 -1 1  2 0  2 2 -2 2  3 1 -3 1  3 3 -3 3  4 0  4 2 -4 2  4 4 -4 4  5 1 -5 1
         5 3 -5 3  5 5 -5 5  6 0  6 2 -6 2  6 4 -6 4  6 6 -6 6




:POS005: AT.NR.  -5 POSITION = 0.33900 0.25000 0.15650  MULTIPLICITY =  2

       LMMAX 28
       LM=   0 0  1 1 -1 1  2 0  2 2 -2 2  3 1 -3 1  3 3 -3 3  4 0  4 2 -4 2  4 4 -4 4  5 1 -5 1
         5 3 -5 3  5 5 -5 5  6 0  6 2 -6 2  6 4 -6 4  6 6 -6 6




:POS006: AT.NR.  -6 POSITION = 0.33900 0.25000 0.15650  MULTIPLICITY =  2

       LMMAX 28
       LM=   0 0  1 1 -1 1  2 0  2 2 -2 2  3 1 -3 1  3 3 -3 3  4 0  4 2 -4 2  4 4 -4 4  5 1 -5 1
         5 3 -5 3  5 5 -5 5  6 0  6 2 -6 2  6 4 -6 4  6 6 -6 6




:POS007: AT.NR.  -7 POSITION = 0.33900 0.25000 0.15650  MULTIPLICITY =  2

       LMMAX 28
       LM=   0 0  1 1 -1 1  2 0  2 2 -2 2  3 1 -3 1  3 3 -3 3  4 0  4 2 -4 2  4 4 -4 4  5 1 -5 1
         5 3 -5 3  5 5 -5 5  6 0  6 2 -6 2  6 4 -6 4  6 6 -6 6




:POS008: AT.NR.  -8 POSITION = 0.33900 0.25000 0.15650  MULTIPLICITY =  2

       LMMAX 28
       LM=   0 0  1 1 -1 1  2 0  2 2 -2 2  3 1 -3 1  3 3 -3 3  4 0  4 2 -4 2  4 4 -4 4  5 1 -5 1
         5 3 -5 3  5 5 -5 5  6 0  6 2 -6 2  6 4 -6 4  6 6 -6 6
:FER DMFT Fermi Energy   1.67492
:EORB    1.20745885
:SUM SUM OF DMFT BAND ENERGIES  169.69224202

:CHA001: TOTAL CHARGE INSIDE SPHERE   1 =    12.049749
:PCS001: PARTIAL CHARGES SPHERE =  1 S,P,D,F,PX,PY,PZ,D-Z2,D-X2Y2,D-XY,D-XZ,D-YZ 
:QTL001: 1.9411 4.5708 0.8925 4.6293 2.7386 2.5589 2.5136 0.1743 0.1969 0.2047 0.2004 0.1730
        Q-s-low E-s-low   Q-p-low E-p-low   Q-d-low E-d-low   Q-f-low E-f-low
:EPL001:  1.8896 -1.6810    4.4566  0.2126    0.0792  0.3082    0.0421  0.3424
        Q-s-hi  E-s-hi    Q-p-hi  E-p-hi    Q-d-hi  E-d-hi    Q-f-hi  E-f-hi 
:EPH001:  0.0514  1.5073    0.1143  1.5326    0.8133  1.5079    4.5872  1.6079

                      QXX         QXY         QYY         QZZ       UP TO R

:VZZ001:            -3.04105   -12.30454    -8.04096    11.08201       2.150

:CHA002: TOTAL CHARGE INSIDE SPHERE   2 =    11.901737
:PCS002: PARTIAL CHARGES SPHERE =  2 S,P,D,F,PX,PY,PZ,D-Z2,D-X2Y2,D-XY,D-XZ,D-YZ 
:QTL002: 1.9470 4.5869 0.7909 4.5652 2.5538 2.6686 2.6113 0.1690 0.1662 0.1590 0.1595 0.1794
        Q-s-low E-s-low   Q-p-low E-p-low   Q-d-low E-d-low   Q-f-low E-f-low
:EPL002:  1.8854 -1.6837    4.4527  0.2191    0.0573  0.3305    0.0297  0.3554
        Q-s-hi  E-s-hi    Q-p-hi  E-p-hi    Q-d-hi  E-d-hi    Q-f-hi  E-f-hi 
:EPH002:  0.0616  1.4976    0.1343  1.5281    0.7336  1.5100    4.5356  1.6103

                      QXX         QXY         QYY         QZZ       UP TO R

:VZZ002:           -19.44161    10.80914     9.63932     9.80230       2.150

:CHA003: TOTAL CHARGE INSIDE SPHERE   3 =    11.927193
:PCS003: PARTIAL CHARGES SPHERE =  3 S,P,D,F,PX,PY,PZ,D-Z2,D-X2Y2,D-XY,D-XZ,D-YZ 
:QTL003: 1.9471 4.5790 0.8063 4.5831 2.6162 2.6120 2.5883 0.1683 0.1762 0.1630 0.1757 0.1671
        Q-s-low E-s-low   Q-p-low E-p-low   Q-d-low E-d-low   Q-f-low E-f-low
:EPL003:  1.8860 -1.6811    4.4500  0.2192    0.0607  0.3378    0.0319  0.3754
        Q-s-hi  E-s-hi    Q-p-hi  E-p-hi    Q-d-hi  E-d-hi    Q-f-hi  E-f-hi 
:EPH003:  0.0611  1.4964    0.1290  1.5321    0.7456  1.5106    4.5512  1.6051

                      QXX         QXY         QYY         QZZ       UP TO R

:VZZ003:            -6.31935   -14.11413     3.15824     3.16111       2.150

:CHA004: TOTAL CHARGE INSIDE SPHERE   4 =    11.898088
:PCS004: PARTIAL CHARGES SPHERE =  4 S,P,D,F,PX,PY,PZ,D-Z2,D-X2Y2,D-XY,D-XZ,D-YZ 
:QTL004: 1.9499 4.5900 0.7839 4.5633 2.6259 2.6183 2.5885 0.1627 0.1637 0.1668 0.1615 0.1697
        Q-s-low E-s-low   Q-p-low E-p-low   Q-d-low E-d-low   Q-f-low E-f-low
:EPL004:  1.8847 -1.6833    4.4435  0.2181    0.0542  0.3262    0.0285  0.3643
        Q-s-hi  E-s-hi    Q-p-hi  E-p-hi    Q-d-hi  E-d-hi    Q-f-hi  E-f-hi 
:EPH004:  0.0653  1.4969    0.1464  1.5316    0.7297  1.5109    4.5349  1.6104

                      QXX         QXY         QYY         QZZ       UP TO R

:VZZ004:            -2.19430    16.27204    -0.44203     2.63633       2.150

:CHA005: TOTAL CHARGE INSIDE SPHERE   5 =    11.886356
:PCS005: PARTIAL CHARGES SPHERE =  5 S,P,D,F,PX,PY,PZ,D-Z2,D-X2Y2,D-XY,D-XZ,D-YZ 
:QTL005: 1.9493 4.5905 0.7885 4.5470 2.5359 2.6829 2.6183 0.1682 0.1614 0.1625 0.1539 0.1832
        Q-s-low E-s-low   Q-p-low E-p-low   Q-d-low E-d-low   Q-f-low E-f-low
:EPL005:  1.8846 -1.6822    4.4497  0.2217    0.0542  0.3267    0.0282  0.3584
        Q-s-hi  E-s-hi    Q-p-hi  E-p-hi    Q-d-hi  E-d-hi    Q-f-hi  E-f-hi 
:EPH005:  0.0646  1.4953    0.1408  1.5321    0.7343  1.5112    4.5188  1.6126

                      QXX         QXY         QYY         QZZ       UP TO R

:VZZ005:           -38.10253     2.47843    24.16476    13.93777       2.150

:CHA006: TOTAL CHARGE INSIDE SPHERE   6 =    11.858230
:PCS006: PARTIAL CHARGES SPHERE =  6 S,P,D,F,PX,PY,PZ,D-Z2,D-X2Y2,D-XY,D-XZ,D-YZ 
:QTL006: 1.9513 4.5783 0.7656 4.5530 2.6029 2.6264 2.5985 0.1582 0.1522 0.1671 0.1607 0.1659
        Q-s-low E-s-low   Q-p-low E-p-low   Q-d-low E-d-low   Q-f-low E-f-low
:EPL006:  1.8835 -1.6831    4.4536  0.2233    0.0504  0.3363    0.0258  0.3738
        Q-s-hi  E-s-hi    Q-p-hi  E-p-hi    Q-d-hi  E-d-hi    Q-f-hi  E-f-hi 
:EPH006:  0.0678  1.4852    0.1248  1.5308    0.7152  1.5122    4.5271  1.6109

                      QXX         QXY         QYY         QZZ       UP TO R

:VZZ006:           -14.19130    -8.93886    -0.18969    14.38100       2.150

:CHA007: TOTAL CHARGE INSIDE SPHERE   7 =    11.933523
:PCS007: PARTIAL CHARGES SPHERE =  7 S,P,D,F,PX,PY,PZ,D-Z2,D-X2Y2,D-XY,D-XZ,D-YZ 
:QTL007: 1.9467 4.5875 0.8062 4.5801 2.6953 2.5335 2.5980 0.1729 0.1581 0.1736 0.1899 0.1580
        Q-s-low E-s-low   Q-p-low E-p-low   Q-d-low E-d-low   Q-f-low E-f-low
:EPL007:  1.8866 -1.6802    4.4519  0.2201    0.0629  0.3187    0.0335  0.3478
        Q-s-hi  E-s-hi    Q-p-hi  E-p-hi    Q-d-hi  E-d-hi    Q-f-hi  E-f-hi 
:EPH007:  0.0600  1.4906    0.1356  1.5259    0.7432  1.5095    4.5465  1.6056

                      QXX         QXY         QYY         QZZ       UP TO R

:VZZ007:             1.03101    12.51338   -14.18574    13.15473       2.150

:CHA008: TOTAL CHARGE INSIDE SPHERE   8 =    11.727696
:PCS008: PARTIAL CHARGES SPHERE =  8 S,P,D,F,PX,PY,PZ,D-Z2,D-X2Y2,D-XY,D-XZ,D-YZ 
:QTL008: 1.9528 4.6136 0.6543 4.5005 2.5725 2.6628 2.6441 0.1499 0.1231 0.1279 0.1284 0.1509
        Q-s-low E-s-low   Q-p-low E-p-low   Q-d-low E-d-low   Q-f-low E-f-low
:EPL008:  1.8796 -1.6822    4.4504  0.2321    0.0301  0.3457    0.0150  0.3719
        Q-s-hi  E-s-hi    Q-p-hi  E-p-hi    Q-d-hi  E-d-hi    Q-f-hi  E-f-hi 
:EPH008:  0.0732  1.4827    0.1632  1.5242    0.6242  1.5122    4.4855  1.6022

                      QXX         QXY         QYY         QZZ       UP TO R

:VZZ008:           -44.85645     8.04187    31.16957    13.68688       2.150

:CHA  : TOTAL CHARGE INSIDE UNIT CELL =     256.000000

:ESUM  : SUM OF EIGENVALUES =         169.975167174


------- alpha_Pu_1.scfc --------

        1.ATOM      Pu  0+               21 CORE STATES
       CORE-FORCE in mRy/a.u. = |F|      Fx             Fy             Fz
:FCO001:   1.ATOM       3101.706      -3023.093       -693.893          0.000

:1S 001: 1S               -8966.079695762 Ry
:2S 001: 2S               -1686.754050483 Ry
:2PP001: 2P*              -1627.446896402 Ry
:2P 001: 2P               -1314.296203893 Ry
:3S 001: 3S                -427.301378903 Ry
:3PP001: 3P*               -400.376657876 Ry
:3P 001: 3P                -327.815733090 Ry
:3DD001: 3D*               -285.574968835 Ry
:3D 001: 3D                -271.032964706 Ry
:4S 001: 4S                -108.781389705 Ry
:4PP001: 4P*                -96.593538354 Ry
:4P 001: 4P                 -77.447886470 Ry
:4DD001: 4D*                -58.160486675 Ry
:4D 001: 4D                 -54.665845644 Ry
:5S 001: 5S                 -22.934540300 Ry
:5PP001: 5P*                -18.116234921 Ry
:5P 001: 5P                 -13.425921196 Ry
:4FF001: 4F*                -29.266506851 Ry
:4F 001: 4F                 -28.338390333 Ry
:5DD001: 5D*                 -6.388901942 Ry
:5D 001: 5D                  -5.689374848 Ry

        2.ATOM      Pu  0+               21 CORE STATES
       CORE-FORCE in mRy/a.u. = |F|      Fx             Fy             Fz
:FCO002:   2.ATOM       1755.793        238.660      -1739.497          0.000

:1S 002: 1S               -8966.078779008 Ry
:2S 002: 2S               -1686.753882325 Ry
:2PP002: 2P*              -1627.446701811 Ry
:2P 002: 2P               -1314.296044601 Ry
:3S 002: 3S                -427.300242280 Ry
:3PP002: 3P*               -400.375571682 Ry
:3P 002: 3P                -327.814579290 Ry
:3DD002: 3D*               -285.574012486 Ry
:3D 002: 3D                -271.031964264 Ry
:4S 002: 4S                -108.780423571 Ry
:4PP002: 4P*                -96.592574760 Ry
:4P 002: 4P                 -77.446977626 Ry
:4DD002: 4D*                -58.159595225 Ry
:4D 002: 4D                 -54.664966653 Ry
:5S 002: 5S                 -22.933991796 Ry
:5PP002: 5P*                -18.115731465 Ry
:5P 002: 5P                 -13.425557170 Ry
:4FF002: 4F*                -29.265504178 Ry
:4F 002: 4F                 -28.337396323 Ry
:5DD002: 5D*                 -6.388609805 Ry
:5D 002: 5D                  -5.689085846 Ry

        3.ATOM      Pu  0+               21 CORE STATES
       CORE-FORCE in mRy/a.u. = |F|      Fx             Fy             Fz
:FCO003:   3.ATOM       6080.594      -4710.124      -3845.563          0.000

:1S 003: 1S               -8966.075257902 Ry
:2S 003: 2S               -1686.749972071 Ry
:2PP003: 2P*              -1627.442866109 Ry
:2P 003: 2P               -1314.292136760 Ry
:3S 003: 3S                -427.296176270 Ry
:3PP003: 3P*               -400.371516500 Ry
:3P 003: 3P                -327.810515497 Ry
:3DD003: 3D*               -285.569938974 Ry
:3D 003: 3D                -271.027887016 Ry
:4S 003: 4S                -108.776450192 Ry
:4PP003: 4P*                -96.588601488 Ry
:4P 003: 4P                 -77.443025541 Ry
:4DD003: 4D*                -58.155635229 Ry
:4D 003: 4D                 -54.661012144 Ry
:5S 003: 5S                 -22.930210214 Ry
:5PP003: 5P*                -18.111985788 Ry
:5P 003: 5P                 -13.421935437 Ry
:4FF003: 4F*                -29.261525702 Ry
:4F 003: 4F                 -28.333421208 Ry
:5DD003: 5D*                 -6.385172731 Ry
:5D 003: 5D                  -5.685714388 Ry

        4.ATOM      Pu  0+               21 CORE STATES
       CORE-FORCE in mRy/a.u. = |F|      Fx             Fy             Fz
:FCO004:   4.ATOM       3409.174       3379.660        447.622          0.000

:1S 004: 1S               -8966.076125521 Ry
:2S 004: 2S               -1686.751516095 Ry
:2PP004: 2P*              -1627.444291856 Ry
:2P 004: 2P               -1314.293680978 Ry
:3S 004: 3S                -427.297965379 Ry
:3PP004: 3P*               -400.373286330 Ry
:3P 004: 3P                -327.812308281 Ry
:3DD004: 3D*               -285.571741970 Ry
:3D 004: 3D                -271.029697151 Ry
:4S 004: 4S                -108.778235277 Ry
:4PP004: 4P*                -96.590385197 Ry
:4P 004: 4P                 -77.444810399 Ry
:4DD004: 4D*                -58.157429999 Ry
:4D 004: 4D                 -54.662808411 Ry
:5S 004: 5S                 -22.932058239 Ry
:5PP004: 5P*                -18.113819453 Ry
:5P 004: 5P                 -13.423718619 Ry
:4FF004: 4F*                -29.263341738 Ry
:4F 004: 4F                 -28.335237151 Ry
:5DD004: 5D*                 -6.386859013 Ry
:5D 004: 5D                  -5.687363855 Ry

        5.ATOM      Pu  0+               21 CORE STATES
       CORE-FORCE in mRy/a.u. = |F|      Fx             Fy             Fz
:FCO005:   5.ATOM       2081.414      -1046.691      -1799.089          0.000

:1S 005: 1S               -8966.076949206 Ry
:2S 005: 2S               -1686.752494857 Ry
:2PP005: 2P*              -1627.445222167 Ry
:2P 005: 2P               -1314.294657724 Ry
:3S 005: 3S                -427.299239406 Ry
:3PP005: 3P*               -400.374542864 Ry
:3P 005: 3P                -327.813584923 Ry
:3DD005: 3D*               -285.572987907 Ry
:3D 005: 3D                -271.030954211 Ry
:4S 005: 4S                -108.779420397 Ry
:4PP005: 4P*                -96.591569777 Ry
:4P 005: 4P                 -77.445971034 Ry
:4DD005: 4D*                -58.158593213 Ry
:4D 005: 4D                 -54.663965826 Ry
:5S 005: 5S                 -22.933030918 Ry
:5PP005: 5P*                -18.114750339 Ry
:5P 005: 5P                 -13.424503764 Ry
:4FF005: 4F*                -29.264538797 Ry
:4F 005: 4F                 -28.336430423 Ry
:5DD005: 5D*                 -6.387416971 Ry
:5D 005: 5D                  -5.687843606 Ry

        6.ATOM      Pu  0+               21 CORE STATES
       CORE-FORCE in mRy/a.u. = |F|      Fx             Fy             Fz
:FCO006:   6.ATOM       5640.632      -4539.553      -3348.013          0.000

:1S 006: 1S               -8966.076071797 Ry
:2S 006: 2S               -1686.750958039 Ry
:2PP006: 2P*              -1627.443873398 Ry
:2P 006: 2P               -1314.293131357 Ry
:3S 006: 3S                -427.296716397 Ry
:3PP006: 3P*               -400.372082880 Ry
:3P 006: 3P                -327.811047231 Ry
:3DD006: 3D*               -285.570549615 Ry
:3D 006: 3D                -271.028477759 Ry
:4S 006: 4S                -108.777020601 Ry
:4PP006: 4P*                -96.589173965 Ry
:4P 006: 4P                 -77.443610569 Ry
:4DD006: 4D*                -58.156226127 Ry
:4D 006: 4D                 -54.661605029 Ry
:5S 006: 5S                 -22.930831389 Ry
:5PP006: 5P*                -18.112612121 Ry
:5P 006: 5P                 -13.422570542 Ry
:4FF006: 4F*                -29.262069250 Ry
:4F 006: 4F                 -28.333966869 Ry
:5DD006: 5D*                 -6.385756961 Ry
:5D 006: 5D                  -5.686271343 Ry

        7.ATOM      Pu  0+               21 CORE STATES
       CORE-FORCE in mRy/a.u. = |F|      Fx             Fy             Fz
:FCO007:   7.ATOM       5650.964       3781.668      -4199.093          0.000

:1S 007: 1S               -8966.074459228 Ry
:2S 007: 2S               -1686.749541886 Ry
:2PP007: 2P*              -1627.442350372 Ry
:2P 007: 2P               -1314.291702318 Ry
:3S 007: 3S                -427.296069603 Ry
:3PP007: 3P*               -400.371387152 Ry
:3P 007: 3P                -327.810414762 Ry
:3DD007: 3D*               -285.569814880 Ry
:3D 007: 3D                -271.027775094 Ry
:4S 007: 4S                -108.776344137 Ry
:4PP007: 4P*                -96.588493550 Ry
:4P 007: 4P                 -77.442916773 Ry
:4DD007: 4D*                -58.155530333 Ry
:4D 007: 4D                 -54.660908364 Ry
:5S 007: 5S                 -22.930154325 Ry
:5PP007: 5P*                -18.111921516 Ry
:5P 007: 5P                 -13.421845044 Ry
:4FF007: 4F*                -29.261451173 Ry
:4F 007: 4F                 -28.333346299 Ry
:5DD007: 5D*                 -6.385051352 Ry
:5D 007: 5D                  -5.685583781 Ry

        8.ATOM      Pu  0+               21 CORE STATES
       CORE-FORCE in mRy/a.u. = |F|      Fx             Fy             Fz
:FCO008:   8.ATOM       1345.868      -1242.154       -518.089          0.000

:1S 008: 1S               -8966.065222197 Ry
:2S 008: 2S               -1686.740899653 Ry
:2PP008: 2P*              -1627.433787260 Ry
:2P 008: 2P               -1314.283071741 Ry
:3S 008: 3S                -427.285429989 Ry
:3PP008: 3P*               -400.360851410 Ry
:3P 008: 3P                -327.799755431 Ry
:3DD008: 3D*               -285.559478646 Ry
:3D 008: 3D                -271.017356139 Ry
:4S 008: 4S                -108.766352322 Ry
:4PP008: 4P*                -96.578504151 Ry
:4P 008: 4P                 -77.433102920 Ry
:4DD008: 4D*                -58.145729027 Ry
:4D 008: 4D                 -54.651150845 Ry
:5S 008: 5S                 -22.921656235 Ry
:5PP008: 5P*                -18.103609408 Ry
:5P 008: 5P                 -13.414145235 Ry
:4FF008: 4F*                -29.251409450 Ry
:4F 008: 4F                 -28.323332139 Ry
:5DD008: 5D*                 -6.377989197 Ry
:5D 008: 5D                  -5.678705972 Ry

------- alpha_Pu_1.scfm --------

       DENSITY AT NUCLEUS
        JATOM    VALENCE       SEMI-CORE            CORE           TOTAL
:RTO001:   1    23312.207743        0.000000 45141826.535388 45165138.743132
:RTO002:   2    23448.625234        0.000000 45141822.445011 45165271.070245
:RTO003:   3    23443.009108        0.000000 45141822.206947 45165265.216055
:RTO004:   4    23502.179414        0.000000 45141819.118067 45165321.297482
:RTO005:   5    23497.638167        0.000000 45141820.130102 45165317.768269
:RTO006:   6    23536.767311        0.000000 45141821.919290 45165358.686601
:RTO007:   7    23435.810704        0.000000 45141820.165084 45165255.975788
:RTO008:   8    23575.983182        0.000000 45141809.759948 45165385.743130
     
       CHARGES OF NEW CHARGE DENSITY
:NTO  : TOTAL   INTERSTITIAL CHARGE=   65.6345743
:NTO001: TOTAL   CHARGE IN SPHERE  1 =       90.0403372
:NTO002: TOTAL   CHARGE IN SPHERE  2 =       89.8923929
:NTO003: TOTAL   CHARGE IN SPHERE  3 =       89.9178277
:NTO004: TOTAL   CHARGE IN SPHERE  4 =       89.8887411
:NTO005: TOTAL   CHARGE IN SPHERE  5 =       89.8770269
:NTO006: TOTAL   CHARGE IN SPHERE  6 =       89.8489017
:NTO007: TOTAL   CHARGE IN SPHERE  7 =       89.9241550
:NTO008: TOTAL   CHARGE IN SPHERE  8 =       89.7183970

:NEC01: NUCLEAR AND ELECTRONIC CHARGE   1504.00000  1503.85013     1.00010
     
       CHARGES OF OLD CHARGE DENSITY
:OTO  : TOTAL   INTERSTITIAL CHARGE=   66.1408843
:OTO001: TOTAL   CHARGE IN SPHERE  1 =       90.0032264
:OTO002: TOTAL   CHARGE IN SPHERE  2 =       89.8704449
:OTO003: TOTAL   CHARGE IN SPHERE  3 =       89.8916962
:OTO004: TOTAL   CHARGE IN SPHERE  4 =       89.8657427
:OTO005: TOTAL   CHARGE IN SPHERE  5 =       89.8573219
:OTO006: TOTAL   CHARGE IN SPHERE  6 =       89.8304815
:OTO007: TOTAL   CHARGE IN SPHERE  7 =       89.8994056
:OTO008: TOTAL   CHARGE IN SPHERE  8 =       89.7112387

:NEC02: NUCLEAR AND ELECTRONIC CHARGE   1504.00000  1504.00000     1.00000
     
       CONVERGENCE TEST
:DTO001: TOTAL   DIFFERENCE CHARGE**2 IN SPHERE  1 =  0.0365389
:DTO002: TOTAL   DIFFERENCE CHARGE**2 IN SPHERE  2 =  0.0253410
:DTO003: TOTAL   DIFFERENCE CHARGE**2 IN SPHERE  3 =  0.0281632
:DTO004: TOTAL   DIFFERENCE CHARGE**2 IN SPHERE  4 =  0.0266626
:DTO005: TOTAL   DIFFERENCE CHARGE**2 IN SPHERE  5 =  0.0243686
:DTO006: TOTAL   DIFFERENCE CHARGE**2 IN SPHERE  6 =  0.0241873
:DTO007: TOTAL   DIFFERENCE CHARGE**2 IN SPHERE  7 =  0.0274770
:DTO008: TOTAL   DIFFERENCE CHARGE**2 IN SPHERE  8 =  0.0165070

:DIS  :  CHARGE DISTANCE       ( 0.0365389 for atom    1 spin 1)      0.0261557
:BIG check (qbig,qrms,qtot)    0.122D-01   0.189D-01   0.262D-01
 
******************************************************
* MULTISECANT MIXING VER4 OPTIONS                    *
* Unpredicted Step Limit   0.100000                  *
* Plane Wave Dynamic Rescaling                       *
* Dynamic Regularization active                      *
* Upper Cutoff Lambda  1.0E-01 Lower 3.5E-04         *
* SQRT Multiplicity/Degeneracy                       *
* Max Number of Memory Steps    8                    *
******************************************************
 
:PLANE:  INTERSTITIAL TOTAL      7.78469 DISTAN  1.662E-01 % 
:CHARG:  CLM CHARGE   /ATOM    356.61536 DISTAN  8.492E-03 % 
:MIX  :  PRATT  REGULARIZATION: 3.50E-04  GREED: 0.035
     
       CHARGES OF MIXED CHARGE DENSITY
:CTO  : TOTAL   INTERSTITIAL CHARGE=   66.1284088
:CTO001: TOTAL   CHARGE IN SPHERE  1 =       90.0045253
:CTO002: TOTAL   CHARGE IN SPHERE  2 =       89.8712131
:CTO003: TOTAL   CHARGE IN SPHERE  3 =       89.8926108
:CTO004: TOTAL   CHARGE IN SPHERE  4 =       89.8665476
:CTO005: TOTAL   CHARGE IN SPHERE  5 =       89.8580116
:CTO006: TOTAL   CHARGE IN SPHERE  6 =       89.8311262
:CTO007: TOTAL   CHARGE IN SPHERE  7 =       89.9002718
:CTO008: TOTAL   CHARGE IN SPHERE  8 =       89.7114892

:NEC03: NUCLEAR AND ELECTRONIC CHARGE   1504.00000  1504.00000     1.00000


:ENE  : ********** TOTAL ENERGY IN Ry =      -949675.52347660

       TOTAL FORCE IN mRy/a.u. = |F|     Fx             Fy             Fz     with/without FOR in case.in2
:FOR001:   1.ATOM        130.006        126.971        -27.926          0.000 partial forces
:FOR002:   2.ATOM         91.750        -90.854         12.791          0.000 partial forces
:FOR003:   3.ATOM         53.872         51.136         16.950          0.000 partial forces
:FOR004:   4.ATOM         69.532        -58.467        -37.634          0.000 partial forces
:FOR005:   5.ATOM         39.794         34.749        -19.393          0.000 partial forces
:FOR006:   6.ATOM         29.526         29.479         -1.672          0.000 partial forces
:FOR007:   7.ATOM        198.665       -187.315        -66.188          0.000 partial forces
:FOR008:   8.ATOM         62.533         33.632         52.719          0.000 partial forces

       TOTAL FORCE WITH RESPECT TO GLOBAL CARTESIAN COORDINATES:
:FCA001:   1.ATOM                       -27.926          0.000        126.971 partial forces
:FCA002:   2.ATOM                        12.791          0.000        -90.854 partial forces
:FCA003:   3.ATOM                        16.950          0.000         51.136 partial forces
:FCA004:   4.ATOM                       -37.634          0.000        -58.467 partial forces
:FCA005:   5.ATOM                       -19.393          0.000         34.749 partial forces
:FCA006:   6.ATOM                        -1.672          0.000         29.479 partial forces
:FCA007:   7.ATOM                       -66.188          0.000       -187.315 partial forces
:FCA008:   8.ATOM                        52.719          0.000         33.632 partial forces

       TOTAL FORCE WITH RESPECT TO THE GLOBAL COORDINATE SYSTEM:
:FGL001:   1.ATOM               -28.527538458     0.000000000   121.143567075 partial forces
:FGL002:   2.ATOM                13.066523828     0.000000000   -88.184849583 partial forces
:FGL003:   3.ATOM                17.315110538     0.000000000    54.673026000 partial forces
:FGL004:   4.ATOM               -38.444653095     0.000000000   -66.320241091 partial forces
:FGL005:   5.ATOM               -19.810733844     0.000000000    30.702183173 partial forces
:FGL006:   6.ATOM                -1.708015624     0.000000000    29.130096904 partial forces
:FGL007:   7.ATOM               -67.613718953     0.000000000  -201.126721351 partial forces
:FGL008:   8.ATOM                53.854590704     0.000000000    44.633089894 partial forces

------- alpha_Pu_1.scf0 --------


            ---------
:ITE072: 72. ITERATION
            ---------

:NATO :    8 INDEPENDENT AND   16 TOTAL ATOMS IN UNITCELL
       SUBSTANCE: alpha_Pu                                                    

       LATTICE                      = P   
:POT  : POTENTIAL OPTION    5
:LAT  : LATTICE CONSTANTS= 11.06595  8.63312 19.62747    1.571    1.777    1.571
:VOL  : UNIT CELL VOLUME =    1835.54645
       MODE OF CALCULATION IS       = RELA
       NON-SPINPOLARIZED CALCULATION
:IFFT  : FFT-parameters:   90   72  160 Factor: 2.00
       ATOMNUMBER=  1 Pu  0+     VCOUL-ZERO =  0.81669E+00
:EFG001:                        EFG         =   -18.53719   *10**21  V / m**2
                               V20  TOT/SRF=     9.65306    -0.12338
                               V22  TOT/SRF=     2.70165     0.12943
                               V22M TOT/SRF=   -12.67936    -0.09975
                               V21  TOT/SRF=     0.00000     0.00000
                               V21M TOT/SRF=     0.00000     0.00000

             -2.87154  -12.67936    0.00000        7.39079    0.00000    0.00000
            -12.67936   -8.27485    0.00000        0.00000  -18.53719    0.00000
              0.00000    0.00000   11.14639        0.00000    0.00000   11.14639

         MAIN DIRECTIONS OF THE EFG   1.0000  0.8094  0.0000
                                     -0.8094  1.0000  0.0000
                                      0.0000  0.0000  1.0000
:ANG001:  ANGLE WITH OLD X-AXIS =        39.0

:ETA001:                         ASYMM. ETA =     0.20260


       ATOMNUMBER=  2 Pu  0+     VCOUL-ZERO =  0.83171E+00
:EFG002:                        EFG         =   -23.71598   *10**21  V / m**2
                               V20  TOT/SRF=     8.70715     0.01773
                               V22  TOT/SRF=   -14.87109    -0.11547
                               V22M TOT/SRF=    11.31927     0.09797
                               V21  TOT/SRF=     0.00000     0.00000
                               V21M TOT/SRF=     0.00000     0.00000

            -19.89817   11.31927    0.00000      -23.71598    0.00000    0.00000
             11.31927    9.84401    0.00000        0.00000   13.66182    0.00000
              0.00000    0.00000   10.05416        0.00000    0.00000   10.05416

         MAIN DIRECTIONS OF THE EFG   1.0000  0.3373  0.0000
                                     -0.3373  1.0000  0.0000
                                      0.0000  0.0000  1.0000
:ANG002:  ANGLE WITH OLD X-AXIS =        18.6

:ETA002:                         ASYMM. ETA =     0.15212


       ATOMNUMBER=  3 Pu  0+     VCOUL-ZERO =  0.83006E+00
:EFG003:                        EFG         =   -16.80396   *10**21  V / m**2
                               V20  TOT/SRF=     3.09808    -0.00232
                               V22  TOT/SRF=    -4.65742     0.00052
                               V22M TOT/SRF=   -14.27470    -0.01066
                               V21  TOT/SRF=     0.00000     0.00000
                               V21M TOT/SRF=     0.00000     0.00000

             -6.44610  -14.27470    0.00000      -16.80396    0.00000    0.00000
            -14.27470    2.86874    0.00000        0.00000   13.22661    0.00000
              0.00000    0.00000    3.57736        0.00000    0.00000    3.57736

         MAIN DIRECTIONS OF THE EFG   1.0000 -0.7256  0.0000
                                      0.7256  1.0000  0.0000
                                      0.0000  0.0000  1.0000
:ANG003:  ANGLE WITH OLD X-AXIS =        36.0

:ETA003:                         ASYMM. ETA =     0.57422


       ATOMNUMBER=  4 Pu  0+     VCOUL-ZERO =  0.83251E+00
:EFG004:                        EFG         =   -18.22132   *10**21  V / m**2
                               V20  TOT/SRF=     2.43182    -0.01636
                               V22  TOT/SRF=    -1.08554     0.01716
                               V22M TOT/SRF=    16.78223     0.03676
                               V21  TOT/SRF=     0.00000     0.00000
                               V21M TOT/SRF=     0.00000     0.00000

             -2.48955   16.78223    0.00000      -18.22132    0.00000    0.00000
             16.78223   -0.31847    0.00000        0.00000   15.41329    0.00000
              0.00000    0.00000    2.80803        0.00000    0.00000    2.80803

         MAIN DIRECTIONS OF THE EFG   1.0000  0.9374  0.0000
                                     -0.9374  1.0000  0.0000
                                      0.0000  0.0000  1.0000
:ANG004:  ANGLE WITH OLD X-AXIS =        43.1

:ETA004:                         ASYMM. ETA =     0.69179


       ATOMNUMBER=  5 Pu  0+     VCOUL-ZERO =  0.83691E+00
:EFG005:                        EFG         =   -39.26246   *10**21  V / m**2
                               V20  TOT/SRF=    12.31942     0.02300
                               V22  TOT/SRF=   -32.04315    -0.14683
                               V22M TOT/SRF=     2.61703     0.05382
                               V21  TOT/SRF=     0.00000     0.00000
                               V21M TOT/SRF=     0.00000     0.00000

            -39.15577    2.61703    0.00000      -39.26246    0.00000    0.00000
              2.61703   24.93054    0.00000        0.00000   25.03723    0.00000
              0.00000    0.00000   14.22524        0.00000    0.00000   14.22524

         MAIN DIRECTIONS OF THE EFG   1.0000  0.0408  0.0000
                                     -0.0408  1.0000  0.0000
                                      0.0000  0.0000  1.0000
:ANG005:  ANGLE WITH OLD X-AXIS =         2.3

:ETA005:                         ASYMM. ETA =     0.27538


       ATOMNUMBER=  6 Pu  0+     VCOUL-ZERO =  0.83822E+00
:EFG006:                        EFG         =   -18.48985   *10**21  V / m**2
                               V20  TOT/SRF=    12.39482    -0.00125
                               V22  TOT/SRF=    -7.05440    -0.01184
                               V22M TOT/SRF=    -8.87064    -0.06849
                               V21  TOT/SRF=     0.00000     0.00000
                               V21M TOT/SRF=     0.00000     0.00000

            -14.21055   -8.87064    0.00000      -18.48985    0.00000    0.00000
             -8.87064   -0.10176    0.00000        0.00000    4.17755    0.00000
              0.00000    0.00000   14.31231        0.00000    0.00000   14.31231

         MAIN DIRECTIONS OF THE EFG   1.0000 -0.4824  0.0000
                                      0.4824  1.0000  0.0000
                                      0.0000  0.0000  1.0000
:ANG006:  ANGLE WITH OLD X-AXIS =        25.8

:ETA006:                         ASYMM. ETA =     0.54813


       ATOMNUMBER=  7 Pu  0+     VCOUL-ZERO =  0.82901E+00
:EFG007:                        EFG         =   -21.30154   *10**21  V / m**2
                               V20  TOT/SRF=    11.73227     0.00171
                               V22  TOT/SRF=     7.56115     0.11785
                               V22M TOT/SRF=    12.40520     0.02606
                               V21  TOT/SRF=     0.00000     0.00000
                               V21M TOT/SRF=     0.00000     0.00000

              0.78752   12.40520    0.00000        7.75427    0.00000    0.00000
             12.40520  -14.33478    0.00000        0.00000  -21.30154    0.00000
              0.00000    0.00000   13.54726        0.00000    0.00000   13.54726

         MAIN DIRECTIONS OF THE EFG   1.0000 -0.5616  0.0000
                                      0.5616  1.0000  0.0000
                                      0.0000  0.0000  1.0000
:ANG007:  ANGLE WITH OLD X-AXIS =        29.3

:ETA007:                         ASYMM. ETA =     0.27195


       ATOMNUMBER=  8 Pu  0+     VCOUL-ZERO =  0.84892E+00
:EFG008:                        EFG         =   -45.83230   *10**21  V / m**2
                               V20  TOT/SRF=    11.84140     0.05291
                               V22  TOT/SRF=   -38.19932    -0.06043
                               V22M TOT/SRF=     7.84051    -0.00448
                               V21  TOT/SRF=     0.00000     0.00000
                               V21M TOT/SRF=     0.00000     0.00000

            -45.03595    7.84051    0.00000      -45.83230    0.00000    0.00000
              7.84051   31.36268    0.00000        0.00000   32.15902    0.00000
              0.00000    0.00000   13.67328        0.00000    0.00000   13.67328

         MAIN DIRECTIONS OF THE EFG   1.0000  0.1016  0.0000
                                     -0.1016  1.0000  0.0000
                                      0.0000  0.0000  1.0000
:ANG008:  ANGLE WITH OLD X-AXIS =         5.8

:ETA008:                         ASYMM. ETA =     0.40333


     HELLMANN-FEYNMAN-FORCE IN mRy/a.u. = |F|  Fx       Fy             Fz
:FHF001:   1.ATOM       3218.794       3148.393        669.517          0.000

     HELLMANN-FEYNMAN-FORCE IN mRy/a.u. = |F|  Fx       Fy             Fz
:FHF002:   2.ATOM       1776.341       -327.535       1745.883          0.000

     HELLMANN-FEYNMAN-FORCE IN mRy/a.u. = |F|  Fx       Fy             Fz
:FHF003:   3.ATOM       6128.860       4758.692       3862.354          0.000

     HELLMANN-FEYNMAN-FORCE IN mRy/a.u. = |F|  Fx       Fy             Fz
:FHF004:   4.ATOM       3471.026      -3436.855       -485.851          0.000

     HELLMANN-FEYNMAN-FORCE IN mRy/a.u. = |F|  Fx       Fy             Fz
:FHF005:   5.ATOM       2078.286       1077.355       1777.239          0.000

     HELLMANN-FEYNMAN-FORCE IN mRy/a.u. = |F|  Fx       Fy             Fz
:FHF006:   6.ATOM       5658.797       4564.510       3344.732          0.000

     HELLMANN-FEYNMAN-FORCE IN mRy/a.u. = |F|  Fx       Fy             Fz
:FHF007:   7.ATOM       5728.985      -3963.660       4136.504          0.000

     HELLMANN-FEYNMAN-FORCE IN mRy/a.u. = |F|  Fx       Fy             Fz
:FHF008:   8.ATOM       1395.377       1275.215        566.485          0.000

:FIT001: LUSE= 13 SIGMA OF V-XC FIT FOR ATOM  1  0.7940914E-03
:FIT001: LUSE= 13 SIGMA OF V-XC FIT FOR ATOM  1  0.7940914E-03
:FIT002: LUSE= 13 SIGMA OF V-XC FIT FOR ATOM  2  0.4227901E-03
:FIT002: LUSE= 13 SIGMA OF V-XC FIT FOR ATOM  2  0.4227901E-03
:FIT003: LUSE= 13 SIGMA OF V-XC FIT FOR ATOM  3  0.4433500E-03
:FIT003: LUSE= 13 SIGMA OF V-XC FIT FOR ATOM  3  0.4433500E-03
:FIT004: LUSE= 13 SIGMA OF V-XC FIT FOR ATOM  4  0.4562769E-03
:FIT004: LUSE= 13 SIGMA OF V-XC FIT FOR ATOM  4  0.4562769E-03
:FIT005: LUSE= 13 SIGMA OF V-XC FIT FOR ATOM  5  0.3762216E-03
:FIT005: LUSE= 13 SIGMA OF V-XC FIT FOR ATOM  5  0.3762216E-03
:FIT006: LUSE= 13 SIGMA OF V-XC FIT FOR ATOM  6  0.2920397E-03
:FIT006: LUSE= 13 SIGMA OF V-XC FIT FOR ATOM  6  0.2920397E-03
:FIT007: LUSE= 13 SIGMA OF V-XC FIT FOR ATOM  7  0.7602745E-03
:FIT007: LUSE= 13 SIGMA OF V-XC FIT FOR ATOM  7  0.7602745E-03
:FIT008: LUSE= 13 SIGMA OF V-XC FIT FOR ATOM  8  0.2081926E-03
:FIT008: LUSE= 13 SIGMA OF V-XC FIT FOR ATOM  8  0.2081926E-03
:DEN  : DENSITY INTEGRAL  =       -350943.51525948   (Ry)
       ELS_POTENTIAL_AT Z=0 and Z=0.5:   1.06290   0.50507
       ELS_POTENTIAL_AT Y=0 and Y=0.5:   1.34875   1.34875
:VZERO:v0,v0c,v0x   0.14832   1.06290  -0.91457 v5,v5c,v5x  -0.46359   0.50507  -0.96866
:VZERY:v0,v0c,v0x   0.47503   1.34875  -0.87371 v5,v5c,v5x   0.47503   1.34875  -0.87371
:VZERX:v0,v0c,v0x  -0.84266   0.16751  -1.01017 v5,v5c,v5x  -0.73575   0.26604  -1.00179

------- alpha_Pu_1.scf1 --------

          ATOMIC SPHERE DEPENDENT PARAMETERS FOR ATOM  Pu  0+    
:e__0001: OVERALL ENERGY PARAMETER IS    1.4663
          OVERALL BASIS SET ON ATOM IS LAPW
:E0_0001: E( 0)=    1.4663
             APW+lo
:E0_0001: E( 0)=   -1.7515   E(BOTTOM)=   -2.529   E(TOP)=   -0.974
             LOCAL ORBITAL
:E1_0001: E( 1)=   -0.8380   E(BOTTOM)=   -0.838   E(TOP)= -200.000
             APW+lo
:E1_0001: E( 1)=    1.4663
             LOCAL ORBITAL
:E3_0001: E( 3)=    1.4663   E(BOTTOM)=    1.206   E(TOP)= -200.000
             APW+lo
:E2_0001: E( 2)=    1.4663   E(BOTTOM)=    1.361   E(TOP)= -200.000
             APW+lo

          ATOMIC SPHERE DEPENDENT PARAMETERS FOR ATOM  Pu  0+    
:e__0002: OVERALL ENERGY PARAMETER IS    1.4663
          OVERALL BASIS SET ON ATOM IS LAPW
:E0_0002: E( 0)=    1.4663
             APW+lo
:E0_0002: E( 0)=   -1.7490   E(BOTTOM)=   -2.524   E(TOP)=   -0.974
             LOCAL ORBITAL
:E1_0002: E( 1)=   -0.8280   E(BOTTOM)=   -0.828   E(TOP)= -200.000
             APW+lo
:E1_0002: E( 1)=    1.4663
             LOCAL ORBITAL
:E3_0002: E( 3)=    1.4663   E(BOTTOM)=    1.211   E(TOP)= -200.000
             APW+lo
:E2_0002: E( 2)=    1.4663   E(BOTTOM)=    1.371   E(TOP)= -200.000
             APW+lo

          ATOMIC SPHERE DEPENDENT PARAMETERS FOR ATOM  Pu  0+    
:e__0003: OVERALL ENERGY PARAMETER IS    1.4663
          OVERALL BASIS SET ON ATOM IS LAPW
:E0_0003: E( 0)=    1.4663
             APW+lo
:E0_0003: E( 0)=   -1.7470   E(BOTTOM)=   -2.522   E(TOP)=   -0.972
             LOCAL ORBITAL
:E1_0003: E( 1)=   -0.8280   E(BOTTOM)=   -0.828   E(TOP)= -200.000
             APW+lo
:E1_0003: E( 1)=    1.4663
             LOCAL ORBITAL
:E3_0003: E( 3)=    1.4663   E(BOTTOM)=    1.216   E(TOP)= -200.000
             APW+lo
:E2_0003: E( 2)=    1.4663   E(BOTTOM)=    1.371   E(TOP)= -200.000
             APW+lo

          ATOMIC SPHERE DEPENDENT PARAMETERS FOR ATOM  Pu  0+    
:e__0004: OVERALL ENERGY PARAMETER IS    1.4663
          OVERALL BASIS SET ON ATOM IS LAPW
:E0_0004: E( 0)=    1.4663
             APW+lo
:E0_0004: E( 0)=   -1.7475   E(BOTTOM)=   -2.522   E(TOP)=   -0.973
             LOCAL ORBITAL
:E1_0004: E( 1)=   -0.8260   E(BOTTOM)=   -0.826   E(TOP)= -200.000
             APW+lo
:E1_0004: E( 1)=    1.4663
             LOCAL ORBITAL
:E3_0004: E( 3)=    1.4663   E(BOTTOM)=    1.216   E(TOP)= -200.000
             APW+lo
:E2_0004: E( 2)=    1.4663   E(BOTTOM)=    1.371   E(TOP)= -200.000
             APW+lo

          ATOMIC SPHERE DEPENDENT PARAMETERS FOR ATOM  Pu  0+    
:e__0005: OVERALL ENERGY PARAMETER IS    1.4663
          OVERALL BASIS SET ON ATOM IS LAPW
:E0_0005: E( 0)=    1.4663
             APW+lo
:E0_0005: E( 0)=   -1.7460   E(BOTTOM)=   -2.520   E(TOP)=   -0.972
             LOCAL ORBITAL
:E1_0005: E( 1)=   -0.8240   E(BOTTOM)=   -0.824   E(TOP)= -200.000
             APW+lo
:E1_0005: E( 1)=    1.4663
             LOCAL ORBITAL
:E3_0005: E( 3)=    1.4663   E(BOTTOM)=    1.216   E(TOP)= -200.000
             APW+lo
:E2_0005: E( 2)=    1.4663   E(BOTTOM)=    1.376   E(TOP)= -200.000
             APW+lo

          ATOMIC SPHERE DEPENDENT PARAMETERS FOR ATOM  Pu  0+    
:e__0006: OVERALL ENERGY PARAMETER IS    1.4663
          OVERALL BASIS SET ON ATOM IS LAPW
:E0_0006: E( 0)=    1.4663
             APW+lo
:E0_0006: E( 0)=   -1.7460   E(BOTTOM)=   -2.520   E(TOP)=   -0.972
             LOCAL ORBITAL
:E1_0006: E( 1)=   -0.8240   E(BOTTOM)=   -0.824   E(TOP)= -200.000
             APW+lo
:E1_0006: E( 1)=    1.4663
             LOCAL ORBITAL
:E3_0006: E( 3)=    1.4663   E(BOTTOM)=    1.216   E(TOP)= -200.000
             APW+lo
:E2_0006: E( 2)=    1.4663   E(BOTTOM)=    1.376   E(TOP)= -200.000
             APW+lo

          ATOMIC SPHERE DEPENDENT PARAMETERS FOR ATOM  Pu  0+    
:e__0007: OVERALL ENERGY PARAMETER IS    1.4663
          OVERALL BASIS SET ON ATOM IS LAPW
:E0_0007: E( 0)=    1.4663
             APW+lo
:E0_0007: E( 0)=   -1.7475   E(BOTTOM)=   -2.523   E(TOP)=   -0.972
             LOCAL ORBITAL
[...]

                      QXX         QXY         QYY         QZZ       UP TO R

:VZZ004:            -2.26479    16.04859    -0.31764     2.58244       2.150

:CHA005: TOTAL CHARGE INSIDE SPHERE   5 =    11.880199
:PCS005: PARTIAL CHARGES SPHERE =  5 S,P,D,F,PX,PY,PZ,D-Z2,D-X2Y2,D-XY,D-XZ,D-YZ 
:QTL005: 1.9483 4.5853 0.7839 4.5516 2.5324 2.6786 2.6137 0.1671 0.1604 0.1616 0.1531 0.1824
        Q-s-low E-s-low   Q-p-low E-p-low   Q-d-low E-d-low   Q-f-low E-f-low
:EPL005:  1.8842 -1.6771    4.4446  0.2241    0.0545  0.3301    0.0282  0.3613
        Q-s-hi  E-s-hi    Q-p-hi  E-p-hi    Q-d-hi  E-d-hi    Q-f-hi  E-f-hi 
:EPH005:  0.0641  1.4977    0.1407  1.5354    0.7294  1.5139    4.5233  1.6170

                      QXX         QXY         QYY         QZZ       UP TO R

:VZZ005:           -37.06717     2.23510    23.46296    13.60422       2.150

:CHA006: TOTAL CHARGE INSIDE SPHERE   6 =    11.853046
:PCS006: PARTIAL CHARGES SPHERE =  6 S,P,D,F,PX,PY,PZ,D-Z2,D-X2Y2,D-XY,D-XZ,D-YZ 
:QTL006: 1.9506 4.5732 0.7613 4.5579 2.5990 2.6222 2.5945 0.1570 0.1513 0.1662 0.1599 0.1652
        Q-s-low E-s-low   Q-p-low E-p-low   Q-d-low E-d-low   Q-f-low E-f-low
:EPL006:  1.8831 -1.6784    4.4487  0.2253    0.0508  0.3394    0.0259  0.3764
        Q-s-hi  E-s-hi    Q-p-hi  E-p-hi    Q-d-hi  E-d-hi    Q-f-hi  E-f-hi 
:EPH006:  0.0674  1.4873    0.1245  1.5341    0.7105  1.5149    4.5320  1.6153

                      QXX         QXY         QYY         QZZ       UP TO R

:VZZ006:           -14.07798    -8.51299    -0.27838    14.35636       2.150

:CHA007: TOTAL CHARGE INSIDE SPHERE   7 =    11.923814
:PCS007: PARTIAL CHARGES SPHERE =  7 S,P,D,F,PX,PY,PZ,D-Z2,D-X2Y2,D-XY,D-XZ,D-YZ 
:QTL007: 1.9456 4.5815 0.7997 4.5839 2.6886 2.5294 2.5924 0.1712 0.1565 0.1726 0.1887 0.1569
        Q-s-low E-s-low   Q-p-low E-p-low   Q-d-low E-d-low   Q-f-low E-f-low
:EPL007:  1.8861 -1.6735    4.4458  0.2237    0.0632  0.3233    0.0335  0.3515
        Q-s-hi  E-s-hi    Q-p-hi  E-p-hi    Q-d-hi  E-d-hi    Q-f-hi  E-f-hi 
:EPH007:  0.0595  1.4929    0.1357  1.5290    0.7364  1.5122    4.5504  1.6100

                      QXX         QXY         QYY         QZZ       UP TO R

:VZZ007:             0.07138    12.42525   -12.97882    12.90744       2.150

:CHA008: TOTAL CHARGE INSIDE SPHERE   8 =    11.728106
:PCS008: PARTIAL CHARGES SPHERE =  8 S,P,D,F,PX,PY,PZ,D-Z2,D-X2Y2,D-XY,D-XZ,D-YZ 
:QTL008: 1.9525 4.6113 0.6544 4.5034 2.5722 2.6616 2.6421 0.1498 0.1229 0.1280 0.1286 0.1510
        Q-s-low E-s-low   Q-p-low E-p-low   Q-d-low E-d-low   Q-f-low E-f-low
:EPL008:  1.8795 -1.6816    4.4483  0.2311    0.0305  0.3511    0.0152  0.3771
        Q-s-hi  E-s-hi    Q-p-hi  E-p-hi    Q-d-hi  E-d-hi    Q-f-hi  E-f-hi 
:EPH008:  0.0730  1.4846    0.1630  1.5273    0.6239  1.5146    4.4882  1.6068

                      QXX         QXY         QYY         QZZ       UP TO R

:VZZ008:           -44.16801     8.05737    31.00765    13.16035       2.150

:CHA  : TOTAL CHARGE INSIDE UNIT CELL =     256.000000

:ESUM  : SUM OF EIGENVALUES =         170.941091343


------- alpha_Pu_1.scfc --------

        1.ATOM      Pu  0+               21 CORE STATES
       CORE-FORCE in mRy/a.u. = |F|      Fx             Fy             Fz
:FCO001:   1.ATOM       3046.650      -2972.341       -668.781          0.000

:1S 001: 1S               -8966.062503872 Ry
:2S 001: 2S               -1686.735492670 Ry
:2PP001: 2P*              -1627.428680664 Ry
:2P 001: 2P               -1314.277651863 Ry
:3S 001: 3S                -427.281034799 Ry
:3PP001: 3P*               -400.356427821 Ry
:3P 001: 3P                -327.795357209 Ry
:3DD001: 3D*               -285.554769956 Ry
:3D 001: 3D                -271.012696883 Ry
:4S 001: 4S                -108.761236071 Ry
:4PP001: 4P*                -96.573391499 Ry
:4P 001: 4P                 -77.427801292 Ry
:4DD001: 4D*                -58.140387839 Ry
:4D 001: 4D                 -54.645757698 Ry
:5S 001: 5S                 -22.914814959 Ry
:5PP001: 5P*                -18.096658674 Ry
:5P 001: 5P                 -13.406863156 Ry
:4FF001: 4F*                -29.246226129 Ry
:4F 001: 4F                 -28.318120116 Ry
:5DD001: 5D*                 -6.370678562 Ry
:5D 001: 5D                  -5.671437253 Ry

        2.ATOM      Pu  0+               21 CORE STATES
       CORE-FORCE in mRy/a.u. = |F|      Fx             Fy             Fz
:FCO002:   2.ATOM       1717.669        211.427      -1704.607          0.000

:1S 002: 1S               -8966.068460384 Ry
:2S 002: 2S               -1686.742586102 Ry
:2PP002: 2P*              -1627.435649543 Ry
:2P 002: 2P               -1314.284752297 Ry
:3S 002: 3S                -427.287674878 Ry
:3PP002: 3P*               -400.363085358 Ry
:3P 002: 3P                -327.801989462 Ry
:3DD002: 3D*               -285.561548047 Ry
:3D 002: 3D                -271.019450836 Ry
:4S 002: 4S                -108.767997252 Ry
:4PP002: 4P*                -96.580153245 Ry
:4P 002: 4P                 -77.434601794 Ry
:4DD002: 4D*                -58.147209557 Ry
:4D 002: 4D                 -54.652589315 Ry
:5S 002: 5S                 -22.921894971 Ry
:5PP002: 5P*                -18.103742805 Ry
:5P 002: 5P                 -13.413943851 Ry
:4FF002: 4F*                -29.252989107 Ry
:4F 002: 4F                 -28.324889016 Ry
:5DD002: 5D*                 -6.377594325 Ry
:5D 002: 5D                  -5.678274582 Ry

        3.ATOM      Pu  0+               21 CORE STATES
       CORE-FORCE in mRy/a.u. = |F|      Fx             Fy             Fz
:FCO003:   3.ATOM       5968.643      -4632.803      -3763.221          0.000

:1S 003: 1S               -8966.063234874 Ry
:2S 003: 2S               -1686.736888314 Ry
:2PP003: 2P*              -1627.430048264 Ry
:2P 003: 2P               -1314.279057688 Ry
:3S 003: 3S                -427.281707470 Ry
:3PP003: 3P*               -400.357136046 Ry
:3P 003: 3P                -327.796022464 Ry
:3DD003: 3D*               -285.555582554 Ry
:3D 003: 3D                -271.013477230 Ry
:4S 003: 4S                -108.762137693 Ry
:4PP003: 4P*                -96.574294209 Ry
:4P 003: 4P                 -77.428768597 Ry
:4DD003: 4D*                -58.141367526 Ry
:4D 003: 4D                 -54.646753666 Ry
:5S 003: 5S                 -22.916260959 Ry
:5PP003: 5P*                -18.098155044 Ry
:5P 003: 5P                 -13.408516032 Ry
:4FF003: 4F*                -29.247116777 Ry
:4F 003: 4F                 -28.319020820 Ry
:5DD003: 5D*                 -6.372409186 Ry
:5D 003: 5D                  -5.673174869 Ry

        4.ATOM      Pu  0+               21 CORE STATES
       CORE-FORCE in mRy/a.u. = |F|      Fx             Fy             Fz
:FCO004:   4.ATOM       3381.996       3349.262        469.407          0.000

:1S 004: 1S               -8966.065346146 Ry
:2S 004: 2S               -1686.739702925 Ry
:2PP004: 2P*              -1627.432737309 Ry
:2P 004: 2P               -1314.281872388 Ry
:3S 004: 3S                -427.284812471 Ry
:3PP004: 3P*               -400.360218666 Ry
:3P 004: 3P                -327.799132646 Ry
:3DD004: 3D*               -285.558697040 Ry
:3D 004: 3D                -271.016600802 Ry
:4S 004: 4S                -108.765247577 Ry
:4PP004: 4P*                -96.577402426 Ry
:4P 004: 4P                 -77.431879504 Ry
:4DD004: 4D*                -58.144488258 Ry
:4D 004: 4D                 -54.649876533 Ry
:5S 004: 5S                 -22.919453893 Ry
:5PP004: 5P*                -18.101332607 Ry
:5P 004: 5P                 -13.411639018 Ry
:4FF004: 4F*                -29.250262711 Ry
:4F 004: 4F                 -28.322166871 Ry
:5DD004: 5D*                 -6.375421966 Ry
:5D 004: 5D                  -5.676146146 Ry

        5.ATOM      Pu  0+               21 CORE STATES
       CORE-FORCE in mRy/a.u. = |F|      Fx             Fy             Fz
:FCO005:   5.ATOM       2030.627       -990.768      -1772.519          0.000

:1S 005: 1S               -8966.067429710 Ry
:2S 005: 2S               -1686.742011713 Ry
:2PP005: 2P*              -1627.434979654 Ry
:2P 005: 2P               -1314.284178773 Ry
:3S 005: 3S                -427.287511253 Ry
:3PP005: 3P*               -400.362893995 Ry
:3P 005: 3P                -327.801835499 Ry
:3DD005: 3D*               -285.561359941 Ry
:3D 005: 3D                -271.019278440 Ry
:4S 005: 4S                -108.767842828 Ry
:4PP005: 4P*                -96.579996830 Ry
:4P 005: 4P                 -77.434445743 Ry
:4DD005: 4D*                -58.147057899 Ry
:4D 005: 4D                 -54.652439535 Ry
:5S 005: 5S                 -22.921806524 Ry
:5PP005: 5P*                -18.103634729 Ry
:5P 005: 5P                 -13.413765076 Ry
:4FF005: 4F*                -29.252876191 Ry
:4F 005: 4F                 -28.324775871 Ry
:5DD005: 5D*                 -6.377272249 Ry
:5D 005: 5D                  -5.677901574 Ry

        6.ATOM      Pu  0+               21 CORE STATES
       CORE-FORCE in mRy/a.u. = |F|      Fx             Fy             Fz
:FCO006:   6.ATOM       5532.788      -4468.538      -3262.501          0.000

:1S 006: 1S               -8966.066924395 Ry
:2S 006: 2S               -1686.740876201 Ry
:2PP006: 2P*              -1627.434027581 Ry
:2P 006: 2P               -1314.283054032 Ry
:3S 006: 3S                -427.285400786 Ry
:3PP006: 3P*               -400.360845770 Ry
:3P 006: 3P                -327.799710546 Ry
:3DD006: 3D*               -285.559334660 Ry
:3D 006: 3D                -271.017215325 Ry
:4S 006: 4S                -108.765855010 Ry
:4PP006: 4P*                -96.578012967 Ry
:4P 006: 4P                 -77.432497436 Ry
:4DD006: 4D*                -58.145103400 Ry
:4D 006: 4D                 -54.650491456 Ry
:5S 006: 5S                 -22.920026894 Ry
:5PP006: 5P*                -18.101916792 Ry
:5P 006: 5P                 -13.412253528 Ry
:4FF006: 4F*                -29.250820361 Ry
:4F 006: 4F                 -28.322726057 Ry
:5DD006: 5D*                 -6.376035859 Ry
:5D 006: 5D                  -5.676753443 Ry

        7.ATOM      Pu  0+               21 CORE STATES
       CORE-FORCE in mRy/a.u. = |F|      Fx             Fy             Fz
:FCO007:   7.ATOM       5562.815       3734.928      -4122.526          0.000

:1S 007: 1S               -8966.062881503 Ry
:2S 007: 2S               -1686.736930955 Ry
:2PP007: 2P*              -1627.429998639 Ry
:2P 007: 2P               -1314.279096053 Ry
:3S 007: 3S                -427.282110733 Ry
:3PP007: 3P*               -400.357514142 Ry
:3P 007: 3P                -327.796432698 Ry
:3DD007: 3D*               -285.555965203 Ry
:3D 007: 3D                -271.013873574 Ry
:4S 007: 4S                -108.762545147 Ry
:4PP007: 4P*                -96.574699577 Ry
:4P 007: 4P                 -77.429173661 Ry
:4DD007: 4D*                -58.141776567 Ry
:4D 007: 4D                 -54.647164134 Ry
:5S 007: 5S                 -22.916729099 Ry
:5PP007: 5P*                -18.098613654 Ry
:5P 007: 5P                 -13.408944269 Ry
:4FF007: 4F*                -29.247559609 Ry
:4F 007: 4F                 -28.319463331 Ry
:5DD007: 5D*                 -6.372796224 Ry
:5D 007: 5D                  -5.673549116 Ry

        8.ATOM      Pu  0+               21 CORE STATES
       CORE-FORCE in mRy/a.u. = |F|      Fx             Fy             Fz
:FCO008:   8.ATOM       1361.298      -1255.230       -526.810          0.000

:1S 008: 1S               -8966.061685013 Ry
:2S 008: 2S               -1686.736732843 Ry
:2PP008: 2P*              -1627.429777932 Ry
:2P 008: 2P               -1314.278907709 Ry
:3S 008: 3S                -427.280449558 Ry
:3PP008: 3P*               -400.355922476 Ry
:3P 008: 3P                -327.794761909 Ry
:3DD008: 3D*               -285.554563505 Ry
:3D 008: 3D                -271.012409944 Ry
:4S 008: 4S                -108.761488468 Ry
:4PP008: 4P*                -96.573643197 Ry
:4P 008: 4P                 -77.428278017 Ry
:4DD008: 4D*                -58.140897282 Ry
:4D 008: 4D                 -54.646326507 Ry
:5S 008: 5S                 -22.917082015 Ry
:5PP008: 5P*                -18.099111684 Ry
:5P 008: 5P                 -13.409911594 Ry
:4FF008: 4F*                -29.246493944 Ry
:4F 008: 4F                 -28.318422663 Ry
:5DD008: 5D*                 -6.374159283 Ry
:5D 008: 5D                  -5.675013874 Ry

------- alpha_Pu_1.scfm --------

       DENSITY AT NUCLEUS
        JATOM    VALENCE       SEMI-CORE            CORE           TOTAL
:RTO001:   1    23255.851861        0.000000 45141829.708651 45165085.560512
:RTO002:   2    23410.684469        0.000000 45141824.568901 45165235.253371
:RTO003:   3    23401.584917        0.000000 45141824.440432 45165226.025349
:RTO004:   4    23463.946135        0.000000 45141821.064851 45165285.010986
:RTO005:   5    23462.485365        0.000000 45141821.986008 45165284.471373
:RTO006:   6    23504.808365        0.000000 45141823.576188 45165328.384553
:RTO007:   7    23396.816019        0.000000 45141822.180018 45165218.996036
:RTO008:   8    23557.328197        0.000000 45141810.543722 45165367.871919
     
       CHARGES OF NEW CHARGE DENSITY
:NTO  : TOTAL   INTERSTITIAL CHARGE=   65.7614869
:NTO001: TOTAL   CHARGE IN SPHERE  1 =       90.0240912
:NTO002: TOTAL   CHARGE IN SPHERE  2 =       89.8843515
:NTO003: TOTAL   CHARGE IN SPHERE  3 =       89.9072901
:NTO004: TOTAL   CHARGE IN SPHERE  4 =       89.8805478
:NTO005: TOTAL   CHARGE IN SPHERE  5 =       89.8708273
:NTO006: TOTAL   CHARGE IN SPHERE  6 =       89.8436750
:NTO007: TOTAL   CHARGE IN SPHERE  7 =       89.9143996
:NTO008: TOTAL   CHARGE IN SPHERE  8 =       89.7187790

:NEC01: NUCLEAR AND ELECTRONIC CHARGE   1504.00000  1503.84941     1.00010
     
       CHARGES OF OLD CHARGE DENSITY
:OTO  : TOTAL   INTERSTITIAL CHARGE=   65.9148018
:OTO001: TOTAL   CHARGE IN SPHERE  1 =       90.0236439
:OTO002: TOTAL   CHARGE IN SPHERE  2 =       89.8843014
:OTO003: TOTAL   CHARGE IN SPHERE  3 =       89.9070246
:OTO004: TOTAL   CHARGE IN SPHERE  4 =       89.8802261
:OTO005: TOTAL   CHARGE IN SPHERE  5 =       89.8706028
:OTO006: TOTAL   CHARGE IN SPHERE  6 =       89.8434686
:OTO007: TOTAL   CHARGE IN SPHERE  7 =       89.9143441
:OTO008: TOTAL   CHARGE IN SPHERE  8 =       89.7189878

:NEC02: NUCLEAR AND ELECTRONIC CHARGE   1504.00000  1504.00000     1.00000
     
       CONVERGENCE TEST
:DTO001: TOTAL   DIFFERENCE CHARGE**2 IN SPHERE  1 =  0.0004240
:DTO002: TOTAL   DIFFERENCE CHARGE**2 IN SPHERE  2 =  0.0001286
:DTO003: TOTAL   DIFFERENCE CHARGE**2 IN SPHERE  3 =  0.0002525
:DTO004: TOTAL   DIFFERENCE CHARGE**2 IN SPHERE  4 =  0.0002909
:DTO005: TOTAL   DIFFERENCE CHARGE**2 IN SPHERE  5 =  0.0002177
:DTO006: TOTAL   DIFFERENCE CHARGE**2 IN SPHERE  6 =  0.0002116
:DTO007: TOTAL   DIFFERENCE CHARGE**2 IN SPHERE  7 =  0.0001454
:DTO008: TOTAL   DIFFERENCE CHARGE**2 IN SPHERE  8 =  0.0001699

:DIS  :  CHARGE DISTANCE       ( 0.0004240 for atom    1 spin 1)      0.0002301
:BIG check (qbig,qrms,qtot)    0.141D-03   0.174D-03   0.230D-03
 
******************************************************
* MULTISECANT MIXING VER4 OPTIONS                    *
* Unpredicted Step Limit   0.100000                  *
* Plane Wave Dynamic Rescaling                       *
* Dynamic Regularization active                      *
* Upper Cutoff Lambda  1.0E-01 Lower 3.5E-04         *
* SQRT Multiplicity/Degeneracy                       *
* Max Number of Memory Steps    8                    *
******************************************************
 
:PLANE:  INTERSTITIAL TOTAL      7.76903 DISTAN  1.401E-03 % 
:CHARG:  CLM CHARGE   /ATOM    356.61570 DISTAN  7.733E-05 % 
:INFO :  Dynamic rescale   1.836E+01  1.000E-01
:INFO :  Number of Memory Steps    8 Skipping   13
:INFO :  Singular value   9.217E+00 Weight   1.000E+00 Projections   4.584E-04  1.446E-03
:INFO :  Singular value   3.031E+00 Weight   1.000E+00 Projections  -3.571E-04  8.514E-05
:INFO :  Singular value   8.373E-01 Weight   1.000E+00 Projections  -3.939E-05  7.280E-04
:INFO :  Singular value   3.248E-01 Weight   1.000E+00 Projections   2.174E-03 -2.605E-04
:INFO :  Singular value   3.608E-02 Weight   9.999E-01 Projections  -2.706E-03  2.834E-03
:INFO :  Singular value   1.779E-02 Weight   9.996E-01 Projections   1.864E-03  5.784E-04
:INFO :  Singular value   1.146E-02 Weight   9.991E-01 Projections  -1.449E-03  3.848E-03
:INFO :  Singular value   7.447E-04 Weight   8.191E-01 Projections   3.093E-03  1.286E-03
:INFO :  Bounds         0.100D+00  0.200D+00  0.770D+00  0.100D+00
:DIRM :  MEMORY 8/8 RESCALE  18.36 RED 2.733 PRED 0.494 NEXT 0.130 COND 4.90E-01
:DIRP :  |BROYD|= 3.235E-04 |PRATT|= 1.998E-04 ANGLE=  47.4 DEGREES
:DIRB :  |BROYD|= 3.694E-04 |PRATT|= 2.977E-04 ANGLE=  46.7 DEGREES
:MIX  :  MSR1   REGULARIZATION: 3.50E-04  GREED: 0.100
     
       CHARGES OF MIXED CHARGE DENSITY
:CTO  : TOTAL   INTERSTITIAL CHARGE=   65.9145787
:CTO001: TOTAL   CHARGE IN SPHERE  1 =       90.0236655
:CTO002: TOTAL   CHARGE IN SPHERE  2 =       89.8843094
:CTO003: TOTAL   CHARGE IN SPHERE  3 =       89.9070399
:CTO004: TOTAL   CHARGE IN SPHERE  4 =       89.8802484
:CTO005: TOTAL   CHARGE IN SPHERE  5 =       89.8706187
:CTO006: TOTAL   CHARGE IN SPHERE  6 =       89.8434854
:CTO007: TOTAL   CHARGE IN SPHERE  7 =       89.9143541
:CTO008: TOTAL   CHARGE IN SPHERE  8 =       89.7189893

:NEC03: NUCLEAR AND ELECTRONIC CHARGE   1504.00000  1504.00000     1.00000


:ENE  : ********** TOTAL ENERGY IN Ry =      -949675.51612895

       TOTAL FORCE IN mRy/a.u. = |F|     Fx             Fy             Fz     with/without FOR in case.in2
:FOR001:   1.ATOM        128.785        126.057        -26.366          0.000 partial forces
:FOR002:   2.ATOM         92.256        -92.031          6.441          0.000 partial forces
:FOR003:   3.ATOM         49.584         47.359         14.687          0.000 partial forces
:FOR004:   4.ATOM         69.820        -58.062        -38.776          0.000 partial forces
:FOR005:   5.ATOM         38.604         32.808        -20.344          0.000 partial forces
:FOR006:   6.ATOM         31.146         30.580         -5.912          0.000 partial forces
:FOR007:   7.ATOM        202.086       -189.545        -70.082          0.000 partial forces
:FOR008:   8.ATOM         60.607         34.118         50.092          0.000 partial forces

       TOTAL FORCE WITH RESPECT TO GLOBAL CARTESIAN COORDINATES:
:FCA001:   1.ATOM                       -26.366          0.000        126.057 partial forces
:FCA002:   2.ATOM                         6.441          0.000        -92.031 partial forces
:FCA003:   3.ATOM                        14.687          0.000         47.359 partial forces
:FCA004:   4.ATOM                       -38.776          0.000        -58.062 partial forces
:FCA005:   5.ATOM                       -20.344          0.000         32.808 partial forces
:FCA006:   6.ATOM                        -5.912          0.000         30.580 partial forces
:FCA007:   7.ATOM                       -70.082          0.000       -189.545 partial forces
:FCA008:   8.ATOM                        50.092          0.000         34.118 partial forces

       TOTAL FORCE WITH RESPECT TO THE GLOBAL COORDINATE SYSTEM:
:FGL001:   1.ATOM               -26.933935365     0.000000000   120.555098671 partial forces
:FGL002:   2.ATOM                 6.579742004     0.000000000   -90.686930120 partial forces
:FGL003:   3.ATOM                15.003364511     0.000000000    50.423796511 partial forces
:FGL004:   4.ATOM               -39.611252283     0.000000000   -66.153546913 partial forces
:FGL005:   5.ATOM               -20.782218807     0.000000000    28.562734103 partial forces
:FGL006:   6.ATOM                -6.039347109     0.000000000    29.346318719 partial forces
:FGL007:   7.ATOM               -71.591597445     0.000000000  -204.169298298 partial forces
:FGL008:   8.ATOM                51.171003955     0.000000000    44.570903033 partial forces
