
:LABEL1: Calculations in /home/ykent/GWIEN/example/Pr/aU/V16/case
:LABEL2: on didymium-2.cmpgroup.ameslab.gov at Fri Jul 10 13:27:54 CDT 2020
:LABEL3: using WIEN2k_19.1 (Release 25/6/2019) in /home/ykent/opt/src/WIEN2k_19.1
:LABEL4: using the command: run_lapw -cc 0.0001
 Flat Integration
 New Mode for Coulomb Integral
 Consistent 3/8+Simpson combinations
 Extension of core to zero
 LDM version in phi
 Fifth-order quadrature in outwin


            ---------
:ITE001:  1. ITERATION
            ---------

:NATO :    1 INDEPENDENT AND    2 TOTAL ATOMS IN UNITCELL
       SUBSTANCE: aU                                                          

       LATTICE                      = CXY 
:POT  : POTENTIAL OPTION EX_LDA EC_LDA VX_LDA VC_LDA
:LAT  : LATTICE CONSTANTS=  6.34235 12.87024 11.11114    1.571    1.571    1.571
:VOL  : UNIT CELL VOLUME =     453.48796
       MODE OF CALCULATION IS       = RELA
       NON-SPINPOLARIZED CALCULATION
:IFFT  : FFT-parameters:   54  100   90 Factor: 2.00


   CONVERGENCE PARAMETER FOR PSEUDOCHARGE: NCON=  9
   MAXIMAL VALUE OF RMT(JATOM)*ABSK(NKK) : RK  =27.59759


:VKCOUL :  VK-COUL convergence: 0.923E-07
       ATOMNUMBER=  1 Pr1        VCOUL-ZERO =  0.11278E+00
:EFG001:                        EFG         =    -0.03113   *10**21  V / m**2
                               V20  TOT/SRF=    -0.02696    -0.03446
                               V22  TOT/SRF=     0.00475     0.00575
                               V22M TOT/SRF=     0.00000     0.00000
                               V21  TOT/SRF=     0.00000     0.00000
                               V21M TOT/SRF=     0.00000     0.00000

              0.02031    0.00000    0.00000        0.02031    0.00000    0.00000
              0.00000    0.01082    0.00000        0.00000    0.01082    0.00000
              0.00000    0.00000   -0.03113        0.00000    0.00000   -0.03113

         MAIN DIRECTIONS OF THE EFG   1.0000  0.0000  0.0000
                                      0.0000  1.0000  0.0000
                                      0.0000  0.0000  1.0000
:ANG001:  ANGLE WITH OLD X-AXIS =         0.0

:ETA001:                         ASYMM. ETA =     0.30502


     HELLMANN-FEYNMAN-FORCE IN mRy/a.u. = |F|  Fx       Fy             Fz
:FHF001:   1.ATOM    353.713901661650      0.000000000000      0.000000000000   -353.713901661650

:FIT001: LUSE= 13 SIGMA OF V-XC FIT FOR ATOM  1  0.3000489E-05
:FIT001: LUSE= 13 SIGMA OF V-XC FIT FOR ATOM  1  0.3000489E-05
:DEN  : DENSITY INTEGRAL  =        -14158.78700586   (Ry)
       ELS_POTENTIAL_AT Z=0 and Z=0.5:   0.73112   0.73112
       ELS_POTENTIAL_AT Y=0 and Y=0.5:   0.05458   0.05458
:VZERO:v0,v0c,v0x   0.14289   0.73112  -0.58824 v5,v5c,v5x   0.14289   0.73112  -0.58824
:VZERY:v0,v0c,v0x  -0.72996   0.05458  -0.78454 v5,v5c,v5x  -0.72996   0.05458  -0.78454
:VZERX:v0,v0c,v0x  -1.11581  -0.37059  -0.74522 v5,v5c,v5x  -1.11581  -0.37059  -0.74522
:LMAX-WF:   10   Non-Spherical LMAX:   4

          ATOMIC SPHERE DEPENDENT PARAMETERS FOR ATOM  Pr1       
:e__0001: OVERALL ENERGY PARAMETER IS    0.3000
          OVERALL BASIS SET ON ATOM IS LAPW
:E0_0001: E( 0)=    0.3000
             APW+lo
:E0_0001: E( 0)=   -1.9741   E(BOTTOM)=   -2.614   E(TOP)=   -1.335  4  5   186
             LOCAL ORBITAL
:E1_0001: E( 1)=    0.7000
             APW+lo
:E1_0001: E( 1)=   -0.5066   E(BOTTOM)=   -1.469   E(TOP)=    0.456  3  4   193
             LOCAL ORBITAL
:E3_0001: E( 3)=    0.6898   E(BOTTOM)=    0.478   E(TOP)=    0.901  0  1   134
             APW+lo
:E2_0001: E( 2)=    0.3000   E(BOTTOM)=    0.269   E(TOP)= -200.000  2 -1    86
             APW+lo

       K=   0.06250   0.00000   0.06250            1
:RKM  : MATRIX SIZE   431LOs:  40  RKM= 8.49  WEIGHT= 4.00  PGR:    
       EIGENVALUES ARE:
:EIG00001:      -1.9505909   -1.9327903   -0.6924910   -0.6000645   -0.5799133
:EIG00006:      -0.5734093   -0.5662860   -0.5648900    0.4333650    0.5661036
:EIG00011:       0.6817067    0.6895773    0.6915382    0.6954184    0.6995099
:EIG00016:       0.7143806    0.7189553    0.7195591    0.7233106    0.7256470
:EIG00021:       0.7291595    0.7323888    0.7343634    0.7409868    0.7549407
:EIG00026:       0.7634246    0.8422754    0.8528800    0.8854075    0.9151895
:EIG00031:       0.9325005    1.0263925    1.0724542    1.1214407    1.4184623
:EIG00036:       1.4327806    1.5044059    1.5143430    1.6741359    1.7262039
:EIG00041:       1.8068218    1.9071721    1.9959579
       ********************************************************

:KPT   :      NUMBER OF K-POINTS:   288
:GAP (global)   :    0.0    Ry =     0.0   eV (metal)
         Bandranges (emin - emax) and occupancy:
:BAN00004:   4   -0.673174   -0.600065  2.00000000
:BAN00005:   5   -0.660613   -0.579913  2.00000000
:BAN00006:   6   -0.643290   -0.568899  2.00000000
:BAN00007:   7   -0.621014   -0.565667  2.00000000
:BAN00008:   8   -0.587020   -0.560775  2.00000000
:BAN00009:   9    0.427960    0.643990  2.00000000
:BAN00010:  10    0.538033    0.656871  2.00000000
:BAN00011:  11    0.597658    0.683116  2.00000000
:BAN00012:  12    0.647012    0.693493  2.00000000
:BAN00013:  13    0.670422    0.709648  1.60717979
:BAN00014:  14    0.686642    0.715555  0.39282021
:BAN00015:  15    0.696675    0.719611  0.00000000
:BAN00016:  16    0.705027    0.719901  0.00000000
:BAN00017:  17    0.709505    0.720398  0.00000000
:BAN00018:  18    0.713021    0.722349  0.00000000
:BAN00019:  19    0.716591    0.725337  0.00000000
        Energy to separate low and high energystates:    0.37796


:NOE  : NUMBER OF ELECTRONS          =   26.000

:FER  : F E R M I - ENERGY(TETRAH.M.)=   0.6964285359
:GMA  : POTENTIAL AND CHARGE CUT-OFF  12.00 Ry**.5

:POS001: ATOM   -1 X,Y,Z = 0.00000 0.89750 0.25000  MULT= 2  ZZ= 59.000  Pr1       

       LMMAX 16
       LM=   0 0  1 0  2 0  2 2  3 0  3 2  4 0  4 2  4 4  5 0  5 2  5 4  6 0  6 2  6 4  6 6

:CHA001: TOTAL VALENCE CHARGE INSIDE SPHERE   1 =   9.1452    (RMT=  2.3000 )
:PCS001: PARTIAL CHARGES SPHERE =  1 S,P,D,F,PX,PY,PZ,D-Z2,D-X2Y2,D-XY,D-XZ,D-YZ 
:QTL001: 1.9446 5.0151 0.6754 1.5096 1.6667 1.6685 1.6799 0.1294 0.1387 0.1332 0.1320 0.1422
        Q-s-low E-s-low   Q-p-low E-p-low   Q-d-low E-d-low   Q-f-low E-f-low
:EPL001:  1.8670 -1.9328    4.9265 -0.6170    0.0024 -0.6479    0.0007 -0.6586
        Q-s-hi  E-s-hi    Q-p-hi  E-p-hi    Q-d-hi  E-d-hi    Q-f-hi  E-f-hi 
:EPH001:  0.0776  0.5742    0.0886  0.6220    0.6731  0.6296    1.5090  0.6759

                      VXX         VYY         VZZ       UP TO R
:VZZ001:             3.92932     4.85171    -8.78104       2.300

:CHA  : TOTAL VALENCE CHARGE INSIDE UNIT CELL =      26.000000

:SUM  : SUM OF EIGENVALUES =          -8.791872282


        1.ATOM      Pr1                  14 CORE STATES
       CORE-FORCE in mRy/a.u. = |F|      Fx             Fy             Fz
:FCO001:   1.ATOM    287.732649686883      0.000000000000      0.000000000000    287.732649686883

:1S 001: 1S               -3066.856677998 Ry
:2S 001: 2S                -492.622376532 Ry
:2PP001: 2P*               -465.720006713 Ry
:2P 001: 2P                -430.323205199 Ry
:3S 001: 3S                -105.720026455 Ry
:3PP001: 3P*                -94.257435642 Ry
:3P 001: 3P                 -87.250057224 Ry
:3DD001: 3D*                -67.176393890 Ry
:3D 001: 3D                 -65.664971151 Ry
:4S 001: 4S                 -20.406098206 Ry
:4PP001: 4P*                -16.113179896 Ry
:4P 001: 4P                 -14.586291035 Ry
:4DD001: 4D*                 -7.520340377 Ry
:4D 001: 4D                  -7.251134604 Ry
:CINT001 Core Integral Atom   1   45.998465

       DENSITY AT NUCLEUS
        JATOM        VALENCE       SEMI-CORE          CORE           TOTAL
:RTO001:   1      648.209617        0.000000   656820.690362   657468.899979
     
       CHARGES OF NEW CHARGE DENSITY
:NTO   : INTERSTITIAL CHARGE =     7.709694
:NPC   : PW Pseudocharge     =    17.198973
:NTO001: CHARGE SPHERE  1    =    55.143618

:NEC01: NUCLEAR AND ELECTRONIC CHARGE    118.00000   117.99693
     
       CHARGES OF OLD CHARGE DENSITY
:OTO   : INTERSTITIAL CHARGE =     6.883099
:OPC   : PW Pseudocharge     =    15.807672
:OTO001: CHARGE SPHERE  1    =    55.559086

:NEC02: NUCLEAR AND ELECTRONIC CHARGE    118.00000   118.00127
     
       CONVERGENCE TEST
:DTO001: DIFFERENCE IN SPHERE  1 =  0.6776339

:DIS  :  CHARGE DISTANCE       ( 0.6776339 for atom    1 spin 1)      0.6776339
 PW Mixed is          471
 
******************************************************
* MULTISECANT MIXING VER9 RELEASE 10.4.0              *
* Standard Mode with controls                        *
* Fixed density scale                                *
* Regularization       1.000E-04                     *
* Trust Upper Limit    5.000E+00                     *
* Max Number of Memory Steps    8                    *
******************************************************
 
:PWTMP   3.5156E+02  1.9467E+02  4.5349E+02
:PLANE:  PW TOTAL      4.3509 DISTAN   5.43E-01  1.25E+01 %
:CHARG:  CLM/ATOM   1382.0516 DISTAN   1.07E+00  7.76E-02 %
 
Step History
        DMIX         DMIXT        Red     Pred      Trust     Lambda    MagRel    MagAbs     Beta
  1   3.5000E-02   3.5000E-02 -1.00E+00  1.00E+00 -1.00E+01  1.00E+00  3.50E-02  3.50E-02  1.00E+00
:INFO :  Note, Pratt in use
:TRUST:  Step 3.75E-02  Charge 7.50E-02 (e) CTO  2.50E-01 (e) PW  3.50E-01 (e)
:DIRM :  MEMORY  0/ 8 SCALE   1.000
Performing Pseudo Compensation
Final Pseudo Compensation Rescaling     1.00000E+00
:MIX  :   PRATT  REGULARIZATION:  1.00E-04 GREED: 0.02500                  
     
       CHARGES OF MIXED CHARGE DENSITY
:CTO   : INTERSTITIAL CHARGE =     6.902602
:CPC   : PW Pseudocharge     =    16.689928
:CTO001: CHARGE SPHERE  1    =    55.548699

:NEC03: NUCLEAR AND ELECTRONIC CHARGE    118.00000   118.00000

PW CHANGE     H    K    L      Current       Change    Residue
:PTO001:      0    0    0  5.20245999E-02  1.998E-03  4.922E-03
:PTO003:      0    2    0  1.40430462E-02  9.225E-04  1.974E-03
:PTO004:     -1    1    0  6.91839320E-02  4.932E-03  7.161E-03
:PTO005:      0    2   -1 -8.06681804E-02 -5.828E-03 -7.169E-03
:PTO006:      0    0   -2 -4.18622817E-02 -3.027E-03 -3.578E-03
:PTO007:     -1    1   -1 -8.75460427E-02 -6.886E-03 -7.262E-03
:PTO008:      0    2   -2 -1.42933730E-02 -1.398E-03 -1.666E-03
:PTO009:     -1    1   -2 -7.16592807E-02 -7.600E-03 -9.394E-03
:PTO011:     -1    3    0 -1.15081280E-02 -1.471E-03 -1.678E-03
:PTO012:     -1    3   -1 -5.16294538E-02 -7.308E-03 -9.533E-03
:PTO013:      0    4    0 -9.58155246E-03 -1.515E-03 -1.639E-03
:PTO014:      0    2   -3  2.16023878E-02  3.450E-03  4.377E-03

:ENE  : ********** TOTAL ENERGY IN Ry =       -36944.20565477

       TOTAL FORCE IN mRy/a.u. = |F|     Fx             Fy             Fz     with/without FOR in case.in2
:FOR001:   1.ATOM         65.981          0.000          0.000        -65.981 partial forces
       TOTAL FORCE WITH RESPECT TO GLOBAL CARTESIAN COORDINATES:
:FCA001:   1.ATOM                         0.000        -65.981          0.000 partial forces
       TOTAL FORCE WITH RESPECT TO THE GLOBAL COORDINATE SYSTEM:
:FGL001:   1.ATOM                 0.000000000   -65.981251975     0.000000000 partial forces
 Flat Integration
 New Mode for Coulomb Integral
 Consistent 3/8+Simpson combinations
 Extension of core to zero
 LDM version in phi
 Fifth-order quadrature in outwin


            ---------
:ITE002:  2. ITERATION
            ---------

:NATO :    1 INDEPENDENT AND    2 TOTAL ATOMS IN UNITCELL
       SUBSTANCE: aU                                                          

       LATTICE                      = CXY 
:POT  : POTENTIAL OPTION EX_LDA EC_LDA VX_LDA VC_LDA
:LAT  : LATTICE CONSTANTS=  6.34235 12.87024 11.11114    1.571    1.571    1.571
:VOL  : UNIT CELL VOLUME =     453.48796
       MODE OF CALCULATION IS       = RELA
       NON-SPINPOLARIZED CALCULATION
:IFFT  : FFT-parameters:   54  100   90 Factor: 2.00


   CONVERGENCE PARAMETER FOR PSEUDOCHARGE: NCON=  9
   MAXIMAL VALUE OF RMT(JATOM)*ABSK(NKK) : RK  =27.59759


:VKCOUL :  VK-COUL convergence: 0.572E-07
       ATOMNUMBER=  1 Pr1        VCOUL-ZERO =  0.11589E+00
:EFG001:                        EFG         =    -0.25066   *10**21  V / m**2
                               V20  TOT/SRF=    -0.21708    -0.03412
                               V22  TOT/SRF=    -0.00720     0.00509
                               V22M TOT/SRF=     0.00000     0.00000
                               V21  TOT/SRF=     0.00000     0.00000
                               V21M TOT/SRF=     0.00000     0.00000

              0.11813    0.00000    0.00000        0.11813    0.00000    0.00000
              0.00000    0.13253    0.00000        0.00000    0.13253    0.00000
              0.00000    0.00000   -0.25066        0.00000    0.00000   -0.25066

         MAIN DIRECTIONS OF THE EFG   1.0000  0.0000  0.0000
                                      0.0000  1.0000  0.0000
                                      0.0000  0.0000  1.0000
:ANG001:  ANGLE WITH OLD X-AXIS =         0.0

:ETA001:                         ASYMM. ETA =     0.05742


     HELLMANN-FEYNMAN-FORCE IN mRy/a.u. = |F|  Fx       Fy             Fz
:FHF001:   1.ATOM    358.182202368766      0.000000000000      0.000000000000   -358.182202368766

:FIT001: LUSE= 13 SIGMA OF V-XC FIT FOR ATOM  1  0.3025565E-05
:FIT001: LUSE= 13 SIGMA OF V-XC FIT FOR ATOM  1  0.3025565E-05
:DEN  : DENSITY INTEGRAL  =        -14157.05726057   (Ry)
       ELS_POTENTIAL_AT Z=0 and Z=0.5:   0.73641   0.73641
       ELS_POTENTIAL_AT Y=0 and Y=0.5:   0.05816   0.05816
:VZERO:v0,v0c,v0x   0.14751   0.73641  -0.58890 v5,v5c,v5x   0.14751   0.73641  -0.58890
:VZERY:v0,v0c,v0x  -0.72843   0.05816  -0.78659 v5,v5c,v5x  -0.72843   0.05816  -0.78659
:VZERX:v0,v0c,v0x  -1.12719  -0.37640  -0.75079 v5,v5c,v5x  -1.12719  -0.37640  -0.75079
:LMAX-WF:   10   Non-Spherical LMAX:   4

          ATOMIC SPHERE DEPENDENT PARAMETERS FOR ATOM  Pr1       
:e__0001: OVERALL ENERGY PARAMETER IS    0.4310
          OVERALL BASIS SET ON ATOM IS LAPW
:E0_0001: E( 0)=    0.4310
             APW+lo
:E0_0001: E( 0)=   -1.9782   E(BOTTOM)=   -2.616   E(TOP)=   -1.340  4  5   180
             LOCAL ORBITAL
:E1_0001: E( 1)=    0.8310
             APW+lo
:E1_0001: E( 1)=   -0.5098   E(BOTTOM)=   -1.471   E(TOP)=    0.451  3  4   200
             LOCAL ORBITAL
:E3_0001: E( 3)=    0.6802   E(BOTTOM)=    0.470   E(TOP)=    0.890  0  1   124
             APW+lo
:E2_0001: E( 2)=    0.4310   E(BOTTOM)=    0.268   E(TOP)= -200.000  2 -1    93
             APW+lo

       K=   0.06250   0.00000   0.06250            1
:RKM  : MATRIX SIZE   431LOs:  40  RKM= 8.49  WEIGHT= 4.00  PGR:    
       EIGENVALUES ARE:
:EIG00001:      -1.9541265   -1.9364887   -0.6935463   -0.6021190   -0.5821004
:EIG00006:      -0.5755878   -0.5683199   -0.5671486    0.4365429    0.5687651
:EIG00011:       0.6771223    0.6825037    0.6835336    0.6876115    0.6914560
:EIG00016:       0.7053884    0.7100016    0.7104717    0.7140349    0.7171883
:EIG00021:       0.7211108    0.7236352    0.7257235    0.7313091    0.7505268
:EIG00026:       0.7612771    0.8422630    0.8539023    0.8868412    0.9163488
:EIG00031:       0.9333987    1.0274409    1.0729955    1.1217433    1.4204370
:EIG00036:       1.4338354    1.5066457    1.5160170    1.6767045    1.7290198
:EIG00041:       1.8091071    1.9094564    1.9977147    2.0110706    2.1255177
       ********************************************************

:KPT   :      NUMBER OF K-POINTS:   288
:GAP (global)   :    0.0    Ry =     0.0   eV (metal)
         Bandranges (emin - emax) and occupancy:
:BAN00004:   4   -0.674611   -0.602119  2.00000000
:BAN00005:   5   -0.662186   -0.582100  2.00000000
:BAN00006:   6   -0.644882   -0.571118  2.00000000
:BAN00007:   7   -0.622804   -0.567915  2.00000000
:BAN00008:   8   -0.589074   -0.563067  2.00000000
:BAN00009:   9    0.431151    0.644450  2.00000000
:BAN00010:  10    0.540908    0.656214  2.00000000
:BAN00011:  11    0.599789    0.680505  2.00000000
:BAN00012:  12    0.647056    0.687742  2.00000000
:BAN00013:  13    0.666903    0.700827  1.58893243
:BAN00014:  14    0.680582    0.707397  0.41106757
:BAN00015:  15    0.689303    0.710360  0.00000000
:BAN00016:  16    0.696861    0.711400  0.00000000
:BAN00017:  17    0.700862    0.711872  0.00000000
:BAN00018:  18    0.704447    0.713238  0.00000000
:BAN00019:  19    0.707791    0.716328  0.00000000
        Energy to separate low and high energystates:    0.38115


:NOE  : NUMBER OF ELECTRONS          =   26.000

:FER  : F E R M I - ENERGY(TETRAH.M.)=   0.6892842085
:GMA  : POTENTIAL AND CHARGE CUT-OFF  12.00 Ry**.5

:POS001: ATOM   -1 X,Y,Z = 0.00000 0.89750 0.25000  MULT= 2  ZZ= 59.000  Pr1       

       LMMAX 16
       LM=   0 0  1 0  2 0  2 2  3 0  3 2  4 0  4 2  4 4  5 0  5 2  5 4  6 0  6 2  6 4  6 6

:CHA001: TOTAL VALENCE CHARGE INSIDE SPHERE   1 =   9.2678    (RMT=  2.3000 )
:PCS001: PARTIAL CHARGES SPHERE =  1 S,P,D,F,PX,PY,PZ,D-Z2,D-X2Y2,D-XY,D-XZ,D-YZ 
:QTL001: 1.9437 5.0137 0.6330 1.6769 1.6669 1.6681 1.6787 0.1198 0.1256 0.1281 0.1244 0.1351
        Q-s-low E-s-low   Q-p-low E-p-low   Q-d-low E-d-low   Q-f-low E-f-low
:EPL001:  1.8677 -1.9365    4.9325 -0.6188    0.0023 -0.6495    0.0007 -0.6601
        Q-s-hi  E-s-hi    Q-p-hi  E-p-hi    Q-d-hi  E-d-hi    Q-f-hi  E-f-hi 
:EPH001:  0.0760  0.5747    0.0812  0.6190    0.6307  0.6272    1.6763  0.6705

                      VXX         VYY         VZZ       UP TO R
:VZZ001:             2.77858     4.66303    -7.44161       2.300

:CHA  : TOTAL VALENCE CHARGE INSIDE UNIT CELL =      26.000000

:SUM  : SUM OF EIGENVALUES =          -8.839710490


        1.ATOM      Pr1                  14 CORE STATES
       CORE-FORCE in mRy/a.u. = |F|      Fx             Fy             Fz
:FCO001:   1.ATOM    298.579412728996      0.000000000000      0.000000000000    298.579412728996

:1S 001: 1S               -3066.878311623 Ry
:2S 001: 2S                -492.643577721 Ry
:2PP001: 2P*               -465.741267365 Ry
:2P 001: 2P                -430.344439694 Ry
:3S 001: 3S                -105.740308307 Ry
:3PP001: 3P*                -94.277787969 Ry
:3P 001: 3P                 -87.270298841 Ry
:3DD001: 3D*                -67.196842020 Ry
:3D 001: 3D                 -65.685389965 Ry
:4S 001: 4S                 -20.421390056 Ry
:4PP001: 4P*                -16.128173353 Ry
:4P 001: 4P                 -14.600818269 Ry
:4DD001: 4D*                 -7.534036402 Ry
:4D 001: 4D                  -7.264670687 Ry
:CINT001 Core Integral Atom   1   45.998478

       DENSITY AT NUCLEUS
        JATOM        VALENCE       SEMI-CORE          CORE           TOTAL
:RTO001:   1      648.460753        0.000000   656821.799669   657470.260422
     
       CHARGES OF NEW CHARGE DENSITY
:NTO   : INTERSTITIAL CHARGE =     7.464445
:NPC   : PW Pseudocharge     =    17.125716
:NTO001: CHARGE SPHERE  1    =    55.266254

:NEC01: NUCLEAR AND ELECTRONIC CHARGE    118.00000   117.99695
     
       CHARGES OF OLD CHARGE DENSITY
:OTO   : INTERSTITIAL CHARGE =     6.902602
:OPC   : PW Pseudocharge     =    16.689928
:OTO001: CHARGE SPHERE  1    =    55.548699

:NEC02: NUCLEAR AND ELECTRONIC CHARGE    118.00000   118.00000
     
       CONVERGENCE TEST
:DTO001: DIFFERENCE IN SPHERE  1 =  0.4592631

:DIS  :  CHARGE DISTANCE       ( 0.4592631 for atom    1 spin 1)      0.4592631
 PW Mixed is          471
 
******************************************************
* MULTISECANT MIXING VER9 RELEASE 10.4.0              *
* Slow Mode, cautious                                *
* Fixed density scale                                *
* Regularization       1.000E-04                     *
* Step Trust Radius    0.75000                       *
* Trust Upper Limit    2.000E+00                     *
* Max Number of Memory Steps   12                    *
******************************************************
 
:PWTMP   3.5156E+02  1.9467E+02  4.5349E+02
:PLANE:  PW TOTAL      4.6944 DISTAN   1.59E-01  3.39E+00 %
:CHARG:  CLM/ATOM   1382.0469 DISTAN   8.25E-01  5.97E-02 %
 
Step History
        DMIX         DMIXT        Red     Pred      Trust     Lambda    MagRel    MagAbs     Beta
  1   3.5000E-02   3.5000E-02 -1.00E+00  1.00E+00 -1.00E+01  1.00E+00  3.50E-02  3.50E-02  1.00E+00
  2   2.5000E-02   2.5000E-02 -1.00E+00  1.00E+00 -1.00E+01  1.00E+00  2.50E-02  3.01E-02  1.00E+00
:JACOBIANS    3.151E-01   1.399E-02
  
:TRUST:  Step 3.59E-02  Charge 7.50E-02 (e) CTO  2.50E-01 (e) PW  3.50E-01 (e)
:DIRM :  MEMORY  1/12 SCALE   1.000
:MIX  :   PRATT  REGULARIZATION:  1.00E-04 GREED: 0.03586  Expand 1.43  0.0359                
     
       CHARGES OF MIXED CHARGE DENSITY
:CTO   : INTERSTITIAL CHARGE =     6.919659
:CPC   : PW Pseudocharge     =    17.416753
:CTO001: CHARGE SPHERE  1    =    55.540171

:NEC03: NUCLEAR AND ELECTRONIC CHARGE    118.00000   118.00000

PW CHANGE     H    K    L      Current       Change    Residue
:PTO001:      0    0    0  5.36649563E-02  1.640E-03  2.222E-03
:PTO003:      0    2    0  1.48005257E-02  7.575E-04  9.792E-04
:PTO004:     -1    1    0  7.32339436E-02  4.050E-03  2.144E-03
:PTO005:      0    2   -1 -8.54536964E-02 -4.786E-03 -1.322E-03
:PTO006:      0    0   -2 -4.43479908E-02 -2.486E-03 -5.525E-04
:PTO007:     -1    1   -1 -9.31999483E-02 -5.654E-03 -4.925E-04
:PTO008:      0    2   -2 -1.54412312E-02 -1.148E-03 -2.737E-04
:PTO009:     -1    1   -2 -7.78994631E-02 -6.240E-03 -1.954E-03
:PTO011:     -1    3    0 -1.27161025E-02 -1.208E-03 -2.280E-04
:PTO012:     -1    3   -1 -5.76302620E-02 -6.001E-03 -2.280E-03
:PTO013:      0    4    0 -1.08257645E-02 -1.244E-03 -1.336E-04
:PTO014:      0    2   -3  2.44352352E-02  2.833E-03  9.195E-04

:ENE  : ********** TOTAL ENERGY IN Ry =       -36944.19244627

       TOTAL FORCE IN mRy/a.u. = |F|     Fx             Fy             Fz     with/without FOR in case.in2
:FOR001:   1.ATOM         59.603          0.000          0.000        -59.603 partial forces
       TOTAL FORCE WITH RESPECT TO GLOBAL CARTESIAN COORDINATES:
:FCA001:   1.ATOM                         0.000        -59.603          0.000 partial forces
       TOTAL FORCE WITH RESPECT TO THE GLOBAL COORDINATE SYSTEM:
:FGL001:   1.ATOM                 0.000000000   -59.602789640     0.000000000 partial forces
 Flat Integration
 New Mode for Coulomb Integral
 Consistent 3/8+Simpson combinations
 Extension of core to zero
 LDM version in phi
 Fifth-order quadrature in outwin


            ---------
:ITE003:  3. ITERATION
            ---------

:NATO :    1 INDEPENDENT AND    2 TOTAL ATOMS IN UNITCELL
       SUBSTANCE: aU                                                          

       LATTICE                      = CXY 
:POT  : POTENTIAL OPTION EX_LDA EC_LDA VX_LDA VC_LDA
:LAT  : LATTICE CONSTANTS=  6.34235 12.87024 11.11114    1.571    1.571    1.571
:VOL  : UNIT CELL VOLUME =     453.48796
       MODE OF CALCULATION IS       = RELA
       NON-SPINPOLARIZED CALCULATION
:IFFT  : FFT-parameters:   54  100   90 Factor: 2.00


   CONVERGENCE PARAMETER FOR PSEUDOCHARGE: NCON=  9
   MAXIMAL VALUE OF RMT(JATOM)*ABSK(NKK) : RK  =27.59759


:VKCOUL :  VK-COUL convergence: 0.590E-07
       ATOMNUMBER=  1 Pr1        VCOUL-ZERO =  0.11845E+00
:EFG001:                        EFG         =    -0.43092   *10**21  V / m**2
                               V20  TOT/SRF=    -0.37319    -0.03384
                               V22  TOT/SRF=    -0.01700     0.00455
                               V22M TOT/SRF=     0.00000     0.00000
                               V21  TOT/SRF=     0.00000     0.00000
                               V21M TOT/SRF=     0.00000     0.00000

              0.19846    0.00000    0.00000        0.19846    0.00000    0.00000
              0.00000    0.23246    0.00000        0.00000    0.23246    0.00000
              0.00000    0.00000   -0.43092        0.00000    0.00000   -0.43092

         MAIN DIRECTIONS OF THE EFG   1.0000  0.0000  0.0000
                                      0.0000  1.0000  0.0000
                                      0.0000  0.0000  1.0000
:ANG001:  ANGLE WITH OLD X-AXIS =         0.0

:ETA001:                         ASYMM. ETA =     0.07892


     HELLMANN-FEYNMAN-FORCE IN mRy/a.u. = |F|  Fx       Fy             Fz
:FHF001:   1.ATOM    362.075485381990      0.000000000000      0.000000000000   -362.075485381990

:FIT001: LUSE= 13 SIGMA OF V-XC FIT FOR ATOM  1  0.3111879E-05
:FIT001: LUSE= 13 SIGMA OF V-XC FIT FOR ATOM  1  0.3111879E-05
:DEN  : DENSITY INTEGRAL  =        -14155.63851370   (Ry)
       ELS_POTENTIAL_AT Z=0 and Z=0.5:   0.74086   0.74086
       ELS_POTENTIAL_AT Y=0 and Y=0.5:   0.06110   0.06110
:VZERO:v0,v0c,v0x   0.15140   0.74086  -0.58946 v5,v5c,v5x   0.15140   0.74086  -0.58946
:VZERY:v0,v0c,v0x  -0.72718   0.06110  -0.78829 v5,v5c,v5x  -0.72718   0.06110  -0.78829
:VZERX:v0,v0c,v0x  -1.13637  -0.38123  -0.75515 v5,v5c,v5x  -1.13637  -0.38123  -0.75515
:LMAX-WF:   10   Non-Spherical LMAX:   4

          ATOMIC SPHERE DEPENDENT PARAMETERS FOR ATOM  Pr1       
:e__0001: OVERALL ENERGY PARAMETER IS    0.4698
          OVERALL BASIS SET ON ATOM IS LAPW
:E0_0001: E( 0)=    0.4698
             APW+lo
:E0_0001: E( 0)=   -1.9815   E(BOTTOM)=   -2.618   E(TOP)=   -1.345  4  5   179
             LOCAL ORBITAL
:E1_0001: E( 1)=    0.8698
             APW+lo
:E1_0001: E( 1)=   -0.5124   E(BOTTOM)=   -1.472   E(TOP)=    0.447  3  4   195
             LOCAL ORBITAL
:E3_0001: E( 3)=    0.6722   E(BOTTOM)=    0.464   E(TOP)=    0.881  0  1   120
             APW+lo
:E2_0001: E( 2)=    0.4698   E(BOTTOM)=    0.268   E(TOP)= -200.000  2 -1    90
             APW+lo

       K=   0.06250   0.00000   0.06250            1
:RKM  : MATRIX SIZE   431LOs:  40  RKM= 8.49  WEIGHT= 4.00  PGR:    
       EIGENVALUES ARE:
:EIG00001:      -1.9570221   -1.9395178   -0.6943969   -0.6037894   -0.5838801
:EIG00006:      -0.5773622   -0.5699750   -0.5689886    0.4392270    0.5709859
:EIG00011:       0.6726553    0.6764692    0.6768870    0.6810392    0.6848216
:EIG00016:       0.6979701    0.7025763    0.7029499    0.7063866    0.7098337
:EIG00021:       0.7138653    0.7165624    0.7183011    0.7233694    0.7478914
:EIG00026:       0.7605382    0.8425261    0.8548791    0.8881098    0.9174097
:EIG00031:       0.9342469    1.0284089    1.0735576    1.1221223    1.4221809
:EIG00036:       1.4348581    1.5086215    1.5175605    1.6789335    1.7314642
:EIG00041:       1.8111025    1.9114927    1.9994282    2.0129067    2.1267044
:EIG00046:       2.1660501
 
       ********************************************************

:KPT   :      NUMBER OF K-POINTS:   288
:GAP (global)   :    0.0    Ry =     0.0   eV (metal)
         Bandranges (emin - emax) and occupancy:
:BAN00004:   4   -0.675774   -0.603789  2.00000000
:BAN00005:   5   -0.663462   -0.583880  2.00000000
:BAN00006:   6   -0.646173   -0.572926  2.00000000
:BAN00007:   7   -0.624257   -0.569747  2.00000000
:BAN00008:   8   -0.590735   -0.564935  2.00000000
:BAN00009:   9    0.433846    0.644451  2.00000000
:BAN00010:  10    0.543331    0.656016  2.00000000
:BAN00011:  11    0.601500    0.677766  2.00000000
:BAN00012:  12    0.646688    0.682832  2.00000000
:BAN00013:  13    0.663577    0.693548  1.57130759
:BAN00014:  14    0.675313    0.700164  0.42869241
:BAN00015:  15    0.683205    0.703026  0.00000000
:BAN00016:  16    0.690198    0.703629  0.00000000
:BAN00017:  17    0.693965    0.704526  0.00000000
:BAN00018:  18    0.697371    0.705656  0.00000000
:BAN00019:  19    0.700575    0.709198  0.00000000
        Energy to separate low and high energystates:    0.38385


:NOE  : NUMBER OF ELECTRONS          =   26.000

:FER  : F E R M I - ENERGY(TETRAH.M.)=   0.6831684348
:GMA  : POTENTIAL AND CHARGE CUT-OFF  12.00 Ry**.5

:POS001: ATOM   -1 X,Y,Z = 0.00000 0.89750 0.25000  MULT= 2  ZZ= 59.000  Pr1       

       LMMAX 16
       LM=   0 0  1 0  2 0  2 2  3 0  3 2  4 0  4 2  4 4  5 0  5 2  5 4  6 0  6 2  6 4  6 6

:CHA001: TOTAL VALENCE CHARGE INSIDE SPHERE   1 =   9.3724    (RMT=  2.3000 )
:PCS001: PARTIAL CHARGES SPHERE =  1 S,P,D,F,PX,PY,PZ,D-Z2,D-X2Y2,D-XY,D-XZ,D-YZ 
:QTL001: 1.9429 5.0128 0.5975 1.8188 1.6671 1.6679 1.6779 0.1122 0.1155 0.1235 0.1179 0.1285
        Q-s-low E-s-low   Q-p-low E-p-low   Q-d-low E-d-low   Q-f-low E-f-low
:EPL001:  1.8683 -1.9395    4.9374 -0.6202    0.0023 -0.6508    0.0006 -0.6613
        Q-s-hi  E-s-hi    Q-p-hi  E-p-hi    Q-d-hi  E-d-hi    Q-f-hi  E-f-hi 
:EPH001:  0.0746  0.5752    0.0754  0.6167    0.5952  0.6251    1.8182  0.6658

                      VXX         VYY         VZZ       UP TO R
:VZZ001:             1.99698     4.30764    -6.30462       2.300

:CHA  : TOTAL VALENCE CHARGE INSIDE UNIT CELL =      26.000000

:SUM  : SUM OF EIGENVALUES =          -8.881564316


        1.ATOM      Pr1                  14 CORE STATES
       CORE-FORCE in mRy/a.u. = |F|      Fx             Fy             Fz
:FCO001:   1.ATOM    307.665399589040      0.000000000000      0.000000000000    307.665399589040

:1S 001: 1S               -3066.896069841 Ry
:2S 001: 2S                -492.660980862 Ry
:2PP001: 2P*               -465.758719333 Ry
:2P 001: 2P                -430.361870184 Ry
:3S 001: 3S                -105.756956568 Ry
:3PP001: 3P*                -94.294494101 Ry
:3P 001: 3P                 -87.286914069 Ry
:3DD001: 3D*                -67.213626824 Ry
:3D 001: 3D                 -65.702150699 Ry
:4S 001: 4S                 -20.433941582 Ry
:4PP001: 4P*                -16.140480099 Ry
:4P 001: 4P                 -14.612742354 Ry
:4DD001: 4D*                 -7.545279108 Ry
:4D 001: 4D                  -7.275782169 Ry
:CINT001 Core Integral Atom   1   45.998488

       DENSITY AT NUCLEUS
        JATOM        VALENCE       SEMI-CORE          CORE           TOTAL
:RTO001:   1      648.658750        0.000000   656822.710319   657471.369069
     
       CHARGES OF NEW CHARGE DENSITY
:NTO   : INTERSTITIAL CHARGE =     7.255246
:NPC   : PW Pseudocharge     =    17.064543
:NTO001: CHARGE SPHERE  1    =    55.370864

:NEC01: NUCLEAR AND ELECTRONIC CHARGE    118.00000   117.99697
     
       CHARGES OF OLD CHARGE DENSITY
:OTO   : INTERSTITIAL CHARGE =     6.919659
:OPC   : PW Pseudocharge     =    17.416753
:OTO001: CHARGE SPHERE  1    =    55.540171

:NEC02: NUCLEAR AND ELECTRONIC CHARGE    118.00000   118.00000
     
       CONVERGENCE TEST
:DTO001: DIFFERENCE IN SPHERE  1 =  0.2776928

:DIS  :  CHARGE DISTANCE       ( 0.2776928 for atom    1 spin 1)      0.2776928
 PW Mixed is          471
 
******************************************************
* MULTISECANT MIXING VER9 RELEASE 10.4.0              *
* Standard Mode with controls                        *
* Fixed density scale                                *
* Regularization       1.000E-04                     *
* Trust Upper Limit    5.000E+00                     *
* Max Number of Memory Steps    8                    *
******************************************************
 
:PWTMP   3.5156E+02  1.9467E+02  4.5349E+02
:PLANE:  PW TOTAL      4.9848 DISTAN   2.72E-01  5.46E+00 %
:CHARG:  CLM/ATOM   1382.0431 DISTAN   6.59E-01  4.77E-02 %
 
Step History
        DMIX         DMIXT        Red     Pred      Trust     Lambda    MagRel    MagAbs     Beta
  1   3.5000E-02   3.5000E-02 -1.00E+00  1.00E+00 -1.00E+01  1.00E+00  3.50E-02  3.50E-02  1.00E+00
  2   2.5000E-02   2.5000E-02  6.99E-01  1.00E+00 -1.00E+01  1.00E+00  2.50E-02  3.01E-02  1.00E+00
  3   3.5862E-02   3.5862E-02 -1.00E+00  1.00E+00 -1.00E+01  1.00E+00  3.59E-02  3.01E-02  1.00E+00
:JACOBIANS    4.834E-01   2.018E-02
  
:NORMS:  1/Froebius, Min, Max, Used   0.7823E+00  0.3709E+00  0.7823E+00  0.7823E+00
:INFO :  Number of Memory Steps    2 Skipping    0
:INFO :  SLambda=    0.0221105861  Max    0.0221105861
:PREDicted Charge, CTotal, PW Trust    7.964E-03   1.593E-02   2.982E-01
:PREDicted DMix, Beta, BLim   5.7941E-02  9.1283E-01  6.3436E-01

Eigenvalues, unscaled except for SY+YY
   #     SY Real        SY Imag          SS             YY         SY+YY Real      SY+YY Imag
   1   1.290070E+00   0.000000E+00   1.223934E+00   1.999868E+00   2.028392E+00   0.000000E+00
   2  -6.661338E-16   0.000000E+00   0.000000E+00   1.320368E-04   1.323151E-04   0.000000E+00
 
:INFO :  Singular value  2.028E+00 Weight  1.000E+00 Projection  9.031E-04
:INFO :  Singular value  1.323E-04 Weight  3.045E-01 Projection -9.158E+00
:RANK :  ACTIVE   1.30/2  =  65.22 % ; YY RANK   1.30/2  =  65.18 %
 
:DLIM :  Beta Active  9.346E-01
:BLIM :  VZERO Control Off
:TRUST:  Step 2.72E-01  Charge 7.50E-02 (e) CTO  2.50E-01 (e) PW  3.50E-01 (e)
:DIRM :  MEMORY  2/8  SCALE   1.000 RED  0.85 PRED  1.00 NEXT  0.94 BETA  0.93
:TRAVE:  Charge 5.96E-03 (e) CTO  1.19E-02 (e) PW  2.96E-02 (e)
:DIRP :  |MSR1|= 4.229E-02 |PRATT|= 2.719E-01 ANGLE=  16.7 DEGREES
:DIRQ :  |MSR1|= 2.662E-02 |PRATT|= 6.589E-01 ANGLE=   9.6 DEGREES
:DIRT :  |MSR1|= 4.997E-02 |PRATT|= 7.128E-01 ANGLE=  37.4 DEGREES
:MIX  :   MSD1   REGULARIZATION:  2.00E-04 GREED: 0.04544  Newton 1.00  0.0701                
     
       CHARGES OF MIXED CHARGE DENSITY
:CTO   : INTERSTITIAL CHARGE =     6.931579
:CPC   : PW Pseudocharge     =    17.335789
:CTO001: CHARGE SPHERE  1    =    55.534210

:NEC03: NUCLEAR AND ELECTRONIC CHARGE    118.00000   118.00000

PW CHANGE     H    K    L      Current       Change    Residue
:PTO001:      0    0    0  5.35127053E-02 -1.523E-04 -1.429E-05
:PTO003:      0    2    0  1.47464237E-02 -5.410E-05  1.771E-04
:PTO004:     -1    1    0  7.27803030E-02 -4.536E-04 -1.979E-03
:PTO005:      0    2   -1 -8.48777305E-02  5.760E-04  3.451E-03
:PTO006:      0    0   -2 -4.40388142E-02  3.092E-04  1.928E-03
:PTO007:     -1    1   -1 -9.24605900E-02  7.394E-04  5.070E-03
:PTO008:      0    2   -2 -1.52953766E-02  1.459E-04  8.782E-04
:PTO009:     -1    1   -2 -7.71428490E-02  7.566E-04  4.173E-03
:PTO011:     -1    3    0 -1.25587987E-02  1.573E-04  9.752E-04
:PTO012:     -1    3   -1 -5.69180888E-02  7.122E-04  3.691E-03
:PTO013:      0    4    0 -1.06677329E-02  1.580E-04  1.093E-03
:PTO014:      0    2   -3  2.40983396E-02 -3.369E-04 -1.909E-03

:ENE  : ********** TOTAL ENERGY IN Ry =       -36944.18530229

       TOTAL FORCE IN mRy/a.u. = |F|     Fx             Fy             Fz     with/without FOR in case.in2
:FOR001:   1.ATOM         54.410          0.000          0.000        -54.410 partial forces
       TOTAL FORCE WITH RESPECT TO GLOBAL CARTESIAN COORDINATES:
:FCA001:   1.ATOM                         0.000        -54.410          0.000 partial forces
       TOTAL FORCE WITH RESPECT TO THE GLOBAL COORDINATE SYSTEM:
:FGL001:   1.ATOM                 0.000000000   -54.410085793     0.000000000 partial forces
 Flat Integration
 New Mode for Coulomb Integral
 Consistent 3/8+Simpson combinations
 Extension of core to zero
 LDM version in phi
 Fifth-order quadrature in outwin


            ---------
:ITE004:  4. ITERATION
            ---------

:NATO :    1 INDEPENDENT AND    2 TOTAL ATOMS IN UNITCELL
       SUBSTANCE: aU                                                          

       LATTICE                      = CXY 
:POT  : POTENTIAL OPTION EX_LDA EC_LDA VX_LDA VC_LDA
:LAT  : LATTICE CONSTANTS=  6.34235 12.87024 11.11114    1.571    1.571    1.571
:VOL  : UNIT CELL VOLUME =     453.48796
       MODE OF CALCULATION IS       = RELA
       NON-SPINPOLARIZED CALCULATION
:IFFT  : FFT-parameters:   54  100   90 Factor: 2.00


   CONVERGENCE PARAMETER FOR PSEUDOCHARGE: NCON=  9
   MAXIMAL VALUE OF RMT(JATOM)*ABSK(NKK) : RK  =27.59759


:VKCOUL :  VK-COUL convergence: 0.585E-07
       ATOMNUMBER=  1 Pr1        VCOUL-ZERO =  0.11796E+00
:EFG001:                        EFG         =    -0.67413   *10**21  V / m**2
                               V20  TOT/SRF=    -0.58381    -0.03275
                               V22  TOT/SRF=     0.00006     0.00387
                               V22M TOT/SRF=     0.00000     0.00000
                               V21  TOT/SRF=     0.00000     0.00000
                               V21M TOT/SRF=     0.00000     0.00000

              0.33712    0.00000    0.00000        0.33712    0.00000    0.00000
              0.00000    0.33701    0.00000        0.00000    0.33701    0.00000
              0.00000    0.00000   -0.67413        0.00000    0.00000   -0.67413

         MAIN DIRECTIONS OF THE EFG   1.0000  0.0000  0.0000
                                      0.0000  1.0000  0.0000
                                      0.0000  0.0000  1.0000
:ANG001:  ANGLE WITH OLD X-AXIS =         0.0

:ETA001:                         ASYMM. ETA =     0.00017


     HELLMANN-FEYNMAN-FORCE IN mRy/a.u. = |F|  Fx       Fy             Fz
:FHF001:   1.ATOM    372.619943084436      0.000000000000      0.000000000000   -372.619943084436

:FIT001: LUSE= 13 SIGMA OF V-XC FIT FOR ATOM  1  0.3488812E-05
:FIT001: LUSE= 13 SIGMA OF V-XC FIT FOR ATOM  1  0.3488812E-05
:DEN  : DENSITY INTEGRAL  =        -14154.37346416   (Ry)
       ELS_POTENTIAL_AT Z=0 and Z=0.5:   0.74183   0.74183
       ELS_POTENTIAL_AT Y=0 and Y=0.5:   0.06182   0.06182
:VZERO:v0,v0c,v0x   0.15193   0.74183  -0.58990 v5,v5c,v5x   0.15193   0.74183  -0.58990
:VZERY:v0,v0c,v0x  -0.72680   0.06182  -0.78863 v5,v5c,v5x  -0.72680   0.06182  -0.78863
:VZERX:v0,v0c,v0x  -1.13609  -0.38099  -0.75509 v5,v5c,v5x  -1.13609  -0.38099  -0.75509
:LMAX-WF:   10   Non-Spherical LMAX:   4

          ATOMIC SPHERE DEPENDENT PARAMETERS FOR ATOM  Pr1       
:e__0001: OVERALL ENERGY PARAMETER IS    0.4787
          OVERALL BASIS SET ON ATOM IS LAPW
:E0_0001: E( 0)=    0.4787
             APW+lo
:E0_0001: E( 0)=   -1.9863   E(BOTTOM)=   -2.622   E(TOP)=   -1.350  4  5   181
             LOCAL ORBITAL
:E1_0001: E( 1)=    0.8787
             APW+lo
:E1_0001: E( 1)=   -0.5167   E(BOTTOM)=   -1.475   E(TOP)=    0.442  3  4   199
             LOCAL ORBITAL
:E3_0001: E( 3)=    0.6643   E(BOTTOM)=    0.457   E(TOP)=    0.872  0  1   123
             APW+lo
:E2_0001: E( 2)=    0.4787   E(BOTTOM)=    0.265   E(TOP)= -200.000  2 -1    88
             APW+lo

       K=   0.06250   0.00000   0.06250            1
:RKM  : MATRIX SIZE   431LOs:  40  RKM= 8.49  WEIGHT= 4.00  PGR:    
       EIGENVALUES ARE:
:EIG00001:      -1.9614808   -1.9440856   -0.6972193   -0.6076190   -0.5877840
:EIG00006:      -0.5809169   -0.5734340   -0.5726036    0.4387696    0.5701156
:EIG00011:       0.6669901    0.6698010    0.6699867    0.6738880    0.6776904
:EIG00016:       0.6905420    0.6951374    0.6952482    0.6986235    0.7020262
:EIG00021:       0.7063949    0.7090250    0.7103770    0.7153569    0.7441444
:EIG00026:       0.7581066    0.8404788    0.8531459    0.8867348    0.9157380
:EIG00031:       0.9324174    1.0268632    1.0716456    1.1200626    1.4210254
:EIG00036:       1.4332462    1.5075820    1.5163096    1.6781385    1.7310380
:EIG00041:       1.8102511    1.9106927    1.9982129    2.0120456    2.1252584
:EIG00046:       2.1650288
 
       ********************************************************

:KPT   :      NUMBER OF K-POINTS:   288
:GAP (global)   :    0.0    Ry =     0.0   eV (metal)
         Bandranges (emin - emax) and occupancy:
:BAN00004:   4   -0.678928   -0.607619  2.00000000
:BAN00005:   5   -0.666678   -0.587784  2.00000000
:BAN00006:   6   -0.649553   -0.576504  2.00000000
:BAN00007:   7   -0.627841   -0.573347  2.00000000
:BAN00008:   8   -0.594235   -0.568568  2.00000000
:BAN00009:   9    0.433396    0.641076  2.00000000
:BAN00010:  10    0.542674    0.652902  2.00000000
:BAN00011:  11    0.600200    0.672137  2.00000000
:BAN00012:  12    0.643864    0.676339  2.00000000
:BAN00013:  13    0.658581    0.686042  1.54735764
:BAN00014:  14    0.669089    0.692643  0.45264236
:BAN00015:  15    0.676440    0.695068  0.00000000
:BAN00016:  16    0.683182    0.695655  0.00000000
:BAN00017:  17    0.686679    0.697468  0.00000000
:BAN00018:  18    0.690111    0.698024  0.00000000
:BAN00019:  19    0.693184    0.701711  0.00000000
        Energy to separate low and high energystates:    0.38340


:NOE  : NUMBER OF ELECTRONS          =   26.000

:FER  : F E R M I - ENERGY(TETRAH.M.)=   0.6763952440
:GMA  : POTENTIAL AND CHARGE CUT-OFF  12.00 Ry**.5

:POS001: ATOM   -1 X,Y,Z = 0.00000 0.89750 0.25000  MULT= 2  ZZ= 59.000  Pr1       

       LMMAX 16
       LM=   0 0  1 0  2 0  2 2  3 0  3 2  4 0  4 2  4 4  5 0  5 2  5 4  6 0  6 2  6 4  6 6

:CHA001: TOTAL VALENCE CHARGE INSIDE SPHERE   1 =   9.4486    (RMT=  2.3000 )
:PCS001: PARTIAL CHARGES SPHERE =  1 S,P,D,F,PX,PY,PZ,D-Z2,D-X2Y2,D-XY,D-XZ,D-YZ 
:QTL001: 1.9423 5.0123 0.5715 1.9220 1.6673 1.6677 1.6773 0.1068 0.1081 0.1201 0.1129 0.1236
        Q-s-low E-s-low   Q-p-low E-p-low   Q-d-low E-d-low   Q-f-low E-f-low
:EPL001:  1.8687 -1.9441    4.9410 -0.6236    0.0023 -0.6537    0.0006 -0.6642
        Q-s-hi  E-s-hi    Q-p-hi  E-p-hi    Q-d-hi  E-d-hi    Q-f-hi  E-f-hi 
:EPH001:  0.0736  0.5731    0.0713  0.6126    0.5693  0.6212    1.9214  0.6600

                      VXX         VYY         VZZ       UP TO R
:VZZ001:             1.76580     4.33866    -6.10446       2.300

:CHA  : TOTAL VALENCE CHARGE INSIDE UNIT CELL =      26.000000

:SUM  : SUM OF EIGENVALUES =          -8.974584365


        1.ATOM      Pr1                  14 CORE STATES
       CORE-FORCE in mRy/a.u. = |F|      Fx             Fy             Fz
:FCO001:   1.ATOM    328.352075034063      0.000000000000      0.000000000000    328.352075034063

:1S 001: 1S               -3066.911161234 Ry
:2S 001: 2S                -492.675463917 Ry
:2PP001: 2P*               -465.773277316 Ry
:2P 001: 2P                -430.376394385 Ry
:3S 001: 3S                -105.770778188 Ry
:3PP001: 3P*                -94.308362706 Ry
:3P 001: 3P                 -87.300714972 Ry
:3DD001: 3D*                -67.227546160 Ry
:3D 001: 3D                 -65.716051684 Ry
:4S 001: 4S                 -20.445022973 Ry
:4PP001: 4P*                -16.151402222 Ry
:4P 001: 4P                 -14.623414746 Ry
:4DD001: 4D*                 -7.555497024 Ry
:4D 001: 4D                  -7.285913403 Ry
:CINT001 Core Integral Atom   1   45.998495

       DENSITY AT NUCLEUS
        JATOM        VALENCE       SEMI-CORE          CORE           TOTAL
:RTO001:   1      648.757865        0.000000   656823.381693   657472.139559
     
       CHARGES OF NEW CHARGE DENSITY
:NTO   : INTERSTITIAL CHARGE =     7.102884
:NPC   : PW Pseudocharge     =    17.020097
:NTO001: CHARGE SPHERE  1    =    55.447052

:NEC01: NUCLEAR AND ELECTRONIC CHARGE    118.00000   117.99699
     
       CHARGES OF OLD CHARGE DENSITY
:OTO   : INTERSTITIAL CHARGE =     6.931579
:OPC   : PW Pseudocharge     =    17.335789
:OTO001: CHARGE SPHERE  1    =    55.534210

:NEC02: NUCLEAR AND ELECTRONIC CHARGE    118.00000   118.00000
     
       CONVERGENCE TEST
:DTO001: DIFFERENCE IN SPHERE  1 =  0.1544150

:DIS  :  CHARGE DISTANCE       ( 0.1544150 for atom    1 spin 1)      0.1544150
 PW Mixed is          471
 
******************************************************
* MULTISECANT MIXING VER9 RELEASE 10.4.0              *
* Standard Mode with controls                        *
* Fixed density scale                                *
* Regularization       1.000E-04                     *
* Trust Upper Limit    5.000E+00                     *
* Max Number of Memory Steps    8                    *
******************************************************
 
:PWTMP   3.5156E+02  1.9467E+02  4.5349E+02
:PLANE:  PW TOTAL      4.9504 DISTAN   2.30E-01  4.65E+00 %
:CHARG:  CLM/ATOM   1382.0377 DISTAN   5.65E-01  4.09E-02 %
 
Step History
        DMIX         DMIXT        Red     Pred      Trust     Lambda    MagRel    MagAbs     Beta
  1   3.5000E-02   3.5000E-02 -1.00E+00  1.00E+00 -1.00E+01  1.00E+00  3.50E-02  3.50E-02  1.00E+00
  2   2.5000E-02   2.5000E-02  6.99E-01  1.00E+00 -1.00E+01  1.00E+00  2.50E-02  3.01E-02  1.00E+00
  3   3.5862E-02   3.5862E-02  8.48E-01  1.00E+00 -1.00E+01  2.21E-02  3.59E-02  3.01E-02  1.00E+00
  4   4.5436E-02   4.5436E-02 -1.00E+00  9.41E-01  2.72E-01  1.00E+00  7.01E-02  5.00E-02  9.35E-01
:JACOBIANS    7.359E-01   4.828E-02
  
:NORMS:  1/Froebius, Min, Max, Used   0.5209E+00  0.3538E+00  0.9910E+00  0.5589E+00
:INFO :  Number of Memory Steps    3 Skipping    0
:INFO :  SLambda=    1.3716845721  Max    1.3716845721
:PREDicted Charge, CTotal, PW Trust    1.426E-02   2.851E-02   2.538E-01
:PREDicted DMix, Beta, BLim   2.0545E-01  3.4391E+00  4.0065E-01

Eigenvalues, unscaled except for SY+YY
   #     SY Real        SY Imag          SS             YY         SY+YY Real      SY+YY Imag
   1   8.538401E-01   0.000000E+00   7.892109E-01   2.526457E+00   3.394199E+00   0.000000E+00
   2  -1.283890E-15   0.000000E+00   2.471213E-02   4.734783E-01   6.455942E-05   0.000000E+00
   3   9.921615E-02   0.000000E+00  -3.432353E-18   6.465462E-05   9.130294E-01   0.000000E+00
 
:INFO :  Singular value  3.395E+00 Weight  1.000E+00 Projection  1.391E-02
:INFO :  Singular value  9.129E-01 Weight  1.000E+00 Projection -4.925E-01
:INFO :  Singular value  6.456E-05 Weight  6.129E-02 Projection -3.122E-01
:RANK :  ACTIVE   2.06/3  =  68.71 % ; YY RANK   2.06/3  =  68.72 %
 
:BLIM :  VZERO Control Off
:TRUST:  Step 3.86E-01  Charge 7.50E-02 (e) CTO  2.50E-01 (e) PW  3.50E-01 (e)
:DTRUS:  Lambda    5.828E-02 Increment    3.638E-12 Iterations   101 DMIX    1.118E-01
:INFOA:  Angle SubSpace to MSR1      2.31
:DIRM :  MEMORY  3/8  SCALE   1.000 RED  0.86 PRED  0.94 NEXT  0.86 
:INFO :  Limited by Atoms F by Step T

:TRAVE:  Charge 5.54E-03 (e) CTO  1.11E-02 (e) PW  1.05E-01 (e)
:DIRP :  |MSR1|= 2.151E-01 |PRATT|= 2.302E-01 ANGLE=  18.5 DEGREES
:DIRQ :  |MSR1|= 9.655E-02 |PRATT|= 5.654E-01 ANGLE=  14.7 DEGREES
:DIRT :  |MSR1|= 2.358E-01 |PRATT|= 6.105E-01 ANGLE=  46.1 DEGREES
:MIX  :   MSE1   REGULARIZATION:  2.53E-04 GREED: 0.11359  LMStep 0.89  0.3862 Step           
     
       CHARGES OF MIXED CHARGE DENSITY
:CTO   : INTERSTITIAL CHARGE =     6.941831
:CPC   : PW Pseudocharge     =    16.904410
:CTO001: CHARGE SPHERE  1    =    55.529085

:NEC03: NUCLEAR AND ELECTRONIC CHARGE    118.00000   118.00000

PW CHANGE     H    K    L      Current       Change    Residue
:PTO001:      0    0    0  5.25840658E-02 -9.286E-04 -2.958E-04
:PTO003:      0    2    0  1.43941141E-02 -3.523E-04  1.573E-04
:PTO004:     -1    1    0  7.04083623E-02 -2.372E-03 -1.604E-03
:PTO005:      0    2   -1 -8.19201064E-02  2.958E-03  2.863E-03
:PTO006:      0    0   -2 -4.24747270E-02  1.564E-03  1.604E-03
:PTO007:     -1    1   -1 -8.87927380E-02  3.668E-03  4.215E-03
:PTO008:      0    2   -2 -1.45579486E-02  7.374E-04  7.599E-04
:PTO009:     -1    1   -2 -7.33347643E-02  3.808E-03  3.316E-03
:PTO011:     -1    3    0 -1.17868288E-02  7.720E-04  7.980E-04
:PTO012:     -1    3   -1 -5.32853585E-02  3.633E-03  2.987E-03
:PTO013:      0    4    0 -9.86698740E-03  8.007E-04  9.215E-04
:PTO014:      0    2   -3  2.23685062E-02 -1.730E-03 -1.566E-03

:ENE  : ********** TOTAL ENERGY IN Ry =       -36944.18204209

       TOTAL FORCE IN mRy/a.u. = |F|     Fx             Fy             Fz     with/without FOR in case.in2
:FOR001:   1.ATOM         44.268          0.000          0.000        -44.268 partial forces
       TOTAL FORCE WITH RESPECT TO GLOBAL CARTESIAN COORDINATES:
:FCA001:   1.ATOM                         0.000        -44.268          0.000 partial forces
       TOTAL FORCE WITH RESPECT TO THE GLOBAL COORDINATE SYSTEM:
:FGL001:   1.ATOM                 0.000000000   -44.267868050     0.000000000 partial forces
 Flat Integration
 New Mode for Coulomb Integral
 Consistent 3/8+Simpson combinations
 Extension of core to zero
 LDM version in phi
 Fifth-order quadrature in outwin


            ---------
:ITE005:  5. ITERATION
            ---------

:NATO :    1 INDEPENDENT AND    2 TOTAL ATOMS IN UNITCELL
       SUBSTANCE: aU                                                          

       LATTICE                      = CXY 
:POT  : POTENTIAL OPTION EX_LDA EC_LDA VX_LDA VC_LDA
:LAT  : LATTICE CONSTANTS=  6.34235 12.87024 11.11114    1.571    1.571    1.571
:VOL  : UNIT CELL VOLUME =     453.48796
       MODE OF CALCULATION IS       = RELA
       NON-SPINPOLARIZED CALCULATION
:IFFT  : FFT-parameters:   54  100   90 Factor: 2.00


   CONVERGENCE PARAMETER FOR PSEUDOCHARGE: NCON=  9
   MAXIMAL VALUE OF RMT(JATOM)*ABSK(NKK) : RK  =27.59759


:VKCOUL :  VK-COUL convergence: 0.672E-07
       ATOMNUMBER=  1 Pr1        VCOUL-ZERO =  0.11629E+00
:EFG001:                        EFG         =    -1.63953   *10**21  V / m**2
                               V20  TOT/SRF=    -1.41987    -0.02965
                               V22  TOT/SRF=    -0.12154     0.00104
                               V22M TOT/SRF=     0.00000     0.00000
                               V21  TOT/SRF=     0.00000     0.00000
                               V21M TOT/SRF=     0.00000     0.00000

              0.69823    0.00000    0.00000        0.69823    0.00000    0.00000
              0.00000    0.94130    0.00000        0.00000    0.94130    0.00000
              0.00000    0.00000   -1.63953        0.00000    0.00000   -1.63953

         MAIN DIRECTIONS OF THE EFG   1.0000  0.0000  0.0000
                                      0.0000  1.0000  0.0000
                                      0.0000  0.0000  1.0000
:ANG001:  ANGLE WITH OLD X-AXIS =         0.0

:ETA001:                         ASYMM. ETA =     0.14826


     HELLMANN-FEYNMAN-FORCE IN mRy/a.u. = |F|  Fx       Fy             Fz
:FHF001:   1.ATOM    471.120644639923      0.000000000000      0.000000000000   -471.120644639923

:FIT001: LUSE= 13 SIGMA OF V-XC FIT FOR ATOM  1  0.7433965E-05
:FIT001: LUSE= 13 SIGMA OF V-XC FIT FOR ATOM  1  0.7433965E-05
:DEN  : DENSITY INTEGRAL  =        -14153.17809171   (Ry)
       ELS_POTENTIAL_AT Z=0 and Z=0.5:   0.74205   0.74205
       ELS_POTENTIAL_AT Y=0 and Y=0.5:   0.06384   0.06384
:VZERO:v0,v0c,v0x   0.15165   0.74205  -0.59040 v5,v5c,v5x   0.15165   0.74205  -0.59040
:VZERY:v0,v0c,v0x  -0.72498   0.06384  -0.78882 v5,v5c,v5x  -0.72498   0.06384  -0.78882
:VZERX:v0,v0c,v0x  -1.13181  -0.37855  -0.75326 v5,v5c,v5x  -1.13181  -0.37855  -0.75326
:LMAX-WF:   10   Non-Spherical LMAX:   4

          ATOMIC SPHERE DEPENDENT PARAMETERS FOR ATOM  Pr1       
:e__0001: OVERALL ENERGY PARAMETER IS    0.4772
          OVERALL BASIS SET ON ATOM IS LAPW
:E0_0001: E( 0)=    0.4772
             APW+lo
:E0_0001: E( 0)=   -1.9923   E(BOTTOM)=   -2.628   E(TOP)=   -1.357  4  5   182
             LOCAL ORBITAL
:E1_0001: E( 1)=    0.8772
             APW+lo
:E1_0001: E( 1)=   -0.5223   E(BOTTOM)=   -1.480   E(TOP)=    0.435  3  4   193
             LOCAL ORBITAL
:E3_0001: E( 3)=    0.6559   E(BOTTOM)=    0.449   E(TOP)=    0.863  0  1   119
             APW+lo
:E2_0001: E( 2)=    0.4772   E(BOTTOM)=    0.261   E(TOP)= -200.000  2 -1    87
             APW+lo

       K=   0.06250   0.00000   0.06250            1
:RKM  : MATRIX SIZE   431LOs:  40  RKM= 8.49  WEIGHT= 4.00  PGR:    
       EIGENVALUES ARE:
:EIG00001:      -1.9671187   -1.9498826   -0.7004660   -0.6133484   -0.5935743
:EIG00006:      -0.5857762   -0.5775767   -0.5775163    0.4370207    0.5678158
:EIG00011:       0.6606846    0.6626852    0.6632292    0.6660123    0.6703470
:EIG00016:       0.6830680    0.6870946    0.6876215    0.6906495    0.6935087
:EIG00021:       0.6985544    0.7007779    0.7010896    0.7073837    0.7396369
:EIG00026:       0.7547194    0.8375565    0.8500172    0.8844428    0.9125494
:EIG00031:       0.9290203    1.0244191    1.0686234    1.1170175    1.4184066
:EIG00036:       1.4304434    1.5051191    1.5137070    1.6758907    1.7299383
:EIG00041:       1.8085481    1.9089777    1.9953448    2.0104777    2.1226065
:EIG00046:       2.1628437
 
       ********************************************************

:KPT   :      NUMBER OF K-POINTS:   288
:GAP (global)   :    0.0    Ry =     0.0   eV (metal)
         Bandranges (emin - emax) and occupancy:
:BAN00004:   4   -0.683441   -0.613348  2.00000000
:BAN00005:   5   -0.671136   -0.593574  2.00000000
:BAN00006:   6   -0.654291   -0.581391  2.00000000
:BAN00007:   7   -0.633153   -0.577577  2.00000000
:BAN00008:   8   -0.598843   -0.573560  2.00000000
:BAN00009:   9    0.431650    0.636469  2.00000000
:BAN00010:  10    0.540715    0.648361  2.00000000
:BAN00011:  11    0.597308    0.665991  2.00000000
:BAN00012:  12    0.640177    0.669384  1.99920270
:BAN00013:  13    0.652308    0.678466  1.49533984
:BAN00014:  14    0.662331    0.683886  0.50545746
:BAN00015:  15    0.669868    0.686325  0.00000000
:BAN00016:  16    0.675446    0.687562  0.00000000
:BAN00017:  17    0.679243    0.689793  0.00000000
:BAN00018:  18    0.681930    0.690686  0.00000000
:BAN00019:  19    0.685678    0.693848  0.00000000
        Energy to separate low and high energystates:    0.38165


:NOE  : NUMBER OF ELECTRONS          =   26.000

:FER  : F E R M I - ENERGY(TETRAH.M.)=   0.6689855918
:GMA  : POTENTIAL AND CHARGE CUT-OFF  12.00 Ry**.5

:POS001: ATOM   -1 X,Y,Z = 0.00000 0.89750 0.25000  MULT= 2  ZZ= 59.000  Pr1       

       LMMAX 16
       LM=   0 0  1 0  2 0  2 2  3 0  3 2  4 0  4 2  4 4  5 0  5 2  5 4  6 0  6 2  6 4  6 6

:CHA001: TOTAL VALENCE CHARGE INSIDE SPHERE   1 =   9.5146    (RMT=  2.3000 )
:PCS001: PARTIAL CHARGES SPHERE =  1 S,P,D,F,PX,PY,PZ,D-Z2,D-X2Y2,D-XY,D-XZ,D-YZ 
:QTL001: 1.9417 5.0128 0.5480 2.0118 1.6677 1.6678 1.6772 0.1025 0.1002 0.1174 0.1081 0.1198
        Q-s-low E-s-low   Q-p-low E-p-low   Q-d-low E-d-low   Q-f-low E-f-low
:EPL001:  1.8691 -1.9499    4.9446 -0.6283    0.0022 -0.6564    0.0006 -0.6670
        Q-s-hi  E-s-hi    Q-p-hi  E-p-hi    Q-d-hi  E-d-hi    Q-f-hi  E-f-hi 
:EPH001:  0.0725  0.5698    0.0682  0.6078    0.5458  0.6165    2.0112  0.6537

                      VXX         VYY         VZZ       UP TO R
:VZZ001:             3.86802     4.22786    -8.09589       2.300

:CHA  : TOTAL VALENCE CHARGE INSIDE UNIT CELL =      26.000000

:SUM  : SUM OF EIGENVALUES =          -9.096869944


        1.ATOM      Pr1                  14 CORE STATES
       CORE-FORCE in mRy/a.u. = |F|      Fx             Fy             Fz
:FCO001:   1.ATOM    458.029997338277      0.000000000000      0.000000000000    458.029997338277

:1S 001: 1S               -3066.926448797 Ry
:2S 001: 2S                -492.688586255 Ry
:2PP001: 2P*               -465.786643344 Ry
:2P 001: 2P                -430.389647755 Ry
:3S 001: 3S                -105.782820916 Ry
:3PP001: 3P*                -94.320470354 Ry
:3P 001: 3P                 -87.312751136 Ry
:3DD001: 3D*                -67.239666291 Ry
:3D 001: 3D                 -65.728151137 Ry
:4S 001: 4S                 -20.455424395 Ry
:4PP001: 4P*                -16.161728691 Ry
:4P 001: 4P                 -14.633620952 Ry
:4DD001: 4D*                 -7.565433666 Ry
:4D 001: 4D                  -7.295803116 Ry
:CINT001 Core Integral Atom   1   45.998500

       DENSITY AT NUCLEUS
        JATOM        VALENCE       SEMI-CORE          CORE           TOTAL
:RTO001:   1      648.824481        0.000000   656824.081462   657472.905943
     
       CHARGES OF NEW CHARGE DENSITY
:NTO   : INTERSTITIAL CHARGE =     6.970777
:NPC   : PW Pseudocharge     =    16.980442
:NTO001: CHARGE SPHERE  1    =    55.513111

:NEC01: NUCLEAR AND ELECTRONIC CHARGE    118.00000   117.99700
     
       CHARGES OF OLD CHARGE DENSITY
:OTO   : INTERSTITIAL CHARGE =     6.941831
:OPC   : PW Pseudocharge     =    16.904410
:OTO001: CHARGE SPHERE  1    =    55.529085

:NEC02: NUCLEAR AND ELECTRONIC CHARGE    118.00000   118.00000
     
       CONVERGENCE TEST
:DTO001: DIFFERENCE IN SPHERE  1 =  0.0740227

:DIS  :  CHARGE DISTANCE       ( 0.0740227 for atom    1 spin 1)      0.0740227
 PW Mixed is          471
 
******************************************************
* MULTISECANT MIXING VER9 RELEASE 10.4.0              *
* Standard Mode with controls                        *
* Fixed density scale                                *
* Regularization       1.000E-04                     *
* Trust Upper Limit    5.000E+00                     *
* Max Number of Memory Steps    8                    *
******************************************************
 
:PWTMP   3.5156E+02  1.9467E+02  4.5349E+02
:PLANE:  PW TOTAL      4.7730 DISTAN   6.28E-02  1.32E+00 %
:CHARG:  CLM/ATOM   1382.0209 DISTAN   4.38E-01  3.17E-02 %
 
Step History
        DMIX         DMIXT        Red     Pred      Trust     Lambda    MagRel    MagAbs     Beta
  1   3.5000E-02   3.5000E-02 -1.00E+00  1.00E+00 -1.00E+01  1.00E+00  3.50E-02  3.50E-02  1.00E+00
  2   2.5000E-02   2.5000E-02  6.99E-01  1.00E+00 -1.00E+01  1.00E+00  2.50E-02  3.01E-02  1.00E+00
  3   3.5862E-02   3.5862E-02  8.48E-01  1.00E+00 -1.00E+01  2.21E-02  3.59E-02  3.01E-02  1.00E+00
  4   4.5436E-02   4.5436E-02  8.56E-01  9.41E-01  2.72E-01  1.37E+00  7.01E-02  5.00E-02  9.35E-01
  5   1.1359E-01   1.1181E-01 -1.00E+00  8.60E-01  3.86E-01  1.00E+00  3.86E-01  2.36E-01  1.00E+00
:JACOBIANS    8.714E-01   2.569E-01
  
:NORMS:  1/Froebius, Min, Max, Used   0.5581E+00  0.3703E+00  0.9976E+00  0.6128E+00
:INFO :  Number of Memory Steps    4 Skipping    0
:INFO :  SLambda=    0.8757490831  Max    0.8757490831
:PREDicted Charge, CTotal, PW Trust    6.352E-03   1.270E-02   1.597E-01
:PREDicted DMix, Beta, BLim   3.7478E-01  1.3810E+00  6.2743E-01

Eigenvalues, unscaled except for SY+YY
   #     SY Real        SY Imag          SS             YY         SY+YY Real      SY+YY Imag
   1   1.111398E+00   0.000000E+00   1.097476E+00   2.922882E+00   3.372732E+00   0.000000E+00
   2   2.683923E-01   0.000000E+00   1.479483E-01   1.067292E+00   1.824861E+00   0.000000E+00
   3  -7.518664E-16   0.000000E+00   3.279851E-04   9.779497E-03   4.728544E-05   0.000000E+00
   4   3.013837E-03   0.000000E+00   7.266728E-17   4.686762E-05   1.334946E-02   0.000000E+00
 
:INFO :  Singular value  3.374E+00 Weight  1.000E+00 Projection -1.048E-01
:INFO :  Singular value  1.824E+00 Weight  1.000E+00 Projection -2.786E-02
:INFO :  Singular value  1.335E-02 Weight  9.995E-01 Projection -3.113E+00
:INFO :  Singular value  4.728E-05 Weight  2.550E-02 Projection  3.897E-02
:RANK :  ACTIVE   3.03/4  =  75.63 % ; YY RANK   3.02/4  =  75.60 %
 
:BLIM :  VZERO Control Off
:TRUST:  Step 5.15E-01  Charge 7.50E-02 (e) CTO  2.50E-01 (e) PW  3.50E-01 (e)
:DTRUS:  Lambda    2.763E-01 Increment    7.276E-12 Iterations   103 DMIX    2.228E-01
:INFOA:  Angle SubSpace to MSR1      1.43
:DIRM :  MEMORY  4/8  SCALE   1.000 RED  0.72 PRED  0.86 NEXT  0.82 
:INFO :  Limited by Atoms F by Step T

:TRAVE:  Charge 3.88E-03 (e) CTO  7.76E-03 (e) PW  6.18E-02 (e)
:DIRP :  |MSR1|= 3.133E-02 |PRATT|= 6.284E-02 ANGLE=   6.5 DEGREES
:DIRQ :  |MSR1|= 2.255E-01 |PRATT|= 4.376E-01 ANGLE=   8.7 DEGREES
:DIRT :  |MSR1|= 2.277E-01 |PRATT|= 4.421E-01 ANGLE=   8.7 DEGREES
:MIX  :   MSD1   REGULARIZATION:  2.92E-04 GREED: 0.22558  LMStep 0.91  0.5150 Step           
     
       CHARGES OF MIXED CHARGE DENSITY
:CTO   : INTERSTITIAL CHARGE =     6.946260
:CPC   : PW Pseudocharge     =    16.942981
:CTO001: CHARGE SPHERE  1    =    55.526870

:NEC03: NUCLEAR AND ELECTRONIC CHARGE    118.00000   118.00000

PW CHANGE     H    K    L      Current       Change    Residue
:PTO001:      0    0    0  5.26788870E-02  9.482E-05  2.542E-04
:PTO003:      0    2    0  1.44626814E-02  6.857E-05  2.510E-04
:PTO004:     -1    1    0  7.06337761E-02  2.254E-04  5.484E-04
:PTO005:      0    2   -1 -8.19951158E-02 -7.501E-05 -1.253E-04
:PTO006:      0    0   -2 -4.25137329E-02 -3.901E-05 -3.790E-05
:PTO007:     -1    1   -1 -8.86989572E-02  9.378E-05  2.791E-04
:PTO008:      0    2   -2 -1.44771262E-02  8.082E-05  1.135E-04
:PTO009:     -1    1   -2 -7.36992883E-02 -3.645E-04 -6.658E-04
:PTO011:     -1    3    0 -1.18535992E-02 -6.677E-05 -8.153E-05
:PTO012:     -1    3   -1 -5.35198629E-02 -2.345E-04 -5.342E-04
:PTO013:      0    4    0 -9.81803777E-03  4.895E-05  1.032E-04
:PTO014:      0    2   -3  2.24790175E-02  1.105E-04  1.968E-04

:ENE  : ********** TOTAL ENERGY IN Ry =       -36944.17986210

       TOTAL FORCE IN mRy/a.u. = |F|     Fx             Fy             Fz     with/without FOR in case.in2
:FOR001:   1.ATOM         13.091          0.000          0.000        -13.091 partial forces
       TOTAL FORCE WITH RESPECT TO GLOBAL CARTESIAN COORDINATES:
:FCA001:   1.ATOM                         0.000        -13.091          0.000 partial forces
       TOTAL FORCE WITH RESPECT TO THE GLOBAL COORDINATE SYSTEM:
:FGL001:   1.ATOM                 0.000000000   -13.090647302     0.000000000 partial forces
 Flat Integration
 New Mode for Coulomb Integral
 Consistent 3/8+Simpson combinations
 Extension of core to zero
 LDM version in phi
 Fifth-order quadrature in outwin


            ---------
:ITE006:  6. ITERATION
            ---------

:NATO :    1 INDEPENDENT AND    2 TOTAL ATOMS IN UNITCELL
       SUBSTANCE: aU                                                          

       LATTICE                      = CXY 
:POT  : POTENTIAL OPTION EX_LDA EC_LDA VX_LDA VC_LDA
:LAT  : LATTICE CONSTANTS=  6.34235 12.87024 11.11114    1.571    1.571    1.571
:VOL  : UNIT CELL VOLUME =     453.48796
       MODE OF CALCULATION IS       = RELA
       NON-SPINPOLARIZED CALCULATION
:IFFT  : FFT-parameters:   54  100   90 Factor: 2.00


   CONVERGENCE PARAMETER FOR PSEUDOCHARGE: NCON=  9
   MAXIMAL VALUE OF RMT(JATOM)*ABSK(NKK) : RK  =27.59759


:VKCOUL :  VK-COUL convergence: 0.115E-06
       ATOMNUMBER=  1 Pr1        VCOUL-ZERO =  0.11628E+00
:EFG001:                        EFG         =    -5.55601   *10**21  V / m**2
                               V20  TOT/SRF=    -4.81165    -0.03138
                               V22  TOT/SRF=     0.30540     0.00072
                               V22M TOT/SRF=     0.00000     0.00000
                               V21  TOT/SRF=     0.00000     0.00000
                               V21M TOT/SRF=     0.00000     0.00000

              3.08340    0.00000    0.00000        3.08340    0.00000    0.00000
              0.00000    2.47261    0.00000        0.00000    2.47261    0.00000
              0.00000    0.00000   -5.55601        0.00000    0.00000   -5.55601

         MAIN DIRECTIONS OF THE EFG   1.0000  0.0000  0.0000
                                      0.0000  1.0000  0.0000
                                      0.0000  0.0000  1.0000
:ANG001:  ANGLE WITH OLD X-AXIS =         0.0

:ETA001:                         ASYMM. ETA =     0.10993


     HELLMANN-FEYNMAN-FORCE IN mRy/a.u. = |F|  Fx       Fy             Fz
:FHF001:   1.ATOM    958.392639651709      0.000000000000      0.000000000000   -958.392639651709

:FIT001: LUSE= 13 SIGMA OF V-XC FIT FOR ATOM  1  0.2862446E-04
:FIT001: LUSE= 13 SIGMA OF V-XC FIT FOR ATOM  1  0.2862446E-04
:DEN  : DENSITY INTEGRAL  =        -14152.87970640   (Ry)
       ELS_POTENTIAL_AT Z=0 and Z=0.5:   0.74347   0.74347
       ELS_POTENTIAL_AT Y=0 and Y=0.5:   0.06722   0.06722
:VZERO:v0,v0c,v0x   0.15298   0.74347  -0.59049 v5,v5c,v5x   0.15298   0.74347  -0.59049
:VZERY:v0,v0c,v0x  -0.72235   0.06722  -0.78958 v5,v5c,v5x  -0.72235   0.06722  -0.78958
:VZERX:v0,v0c,v0x  -1.13297  -0.37906  -0.75391 v5,v5c,v5x  -1.13297  -0.37906  -0.75391
:LMAX-WF:   10   Non-Spherical LMAX:   4

          ATOMIC SPHERE DEPENDENT PARAMETERS FOR ATOM  Pr1       
:e__0001: OVERALL ENERGY PARAMETER IS    0.4717
          OVERALL BASIS SET ON ATOM IS LAPW
:E0_0001: E( 0)=    0.4717
             APW+lo
:E0_0001: E( 0)=   -1.9954   E(BOTTOM)=   -2.630   E(TOP)=   -1.360  4  5   185
             LOCAL ORBITAL
:E1_0001: E( 1)=    0.8717
             APW+lo
:E1_0001: E( 1)=   -0.5251   E(BOTTOM)=   -1.482   E(TOP)=    0.432  3  4   191
             LOCAL ORBITAL
:E3_0001: E( 3)=    0.6530   E(BOTTOM)=    0.447   E(TOP)=    0.859  0  1   125
             APW+lo
:E2_0001: E( 2)=    0.4717   E(BOTTOM)=    0.259   E(TOP)= -200.000  2 -1    89
             APW+lo

       K=   0.06250   0.00000   0.06250            1
:RKM  : MATRIX SIZE   431LOs:  40  RKM= 8.49  WEIGHT= 4.00  PGR:    
       EIGENVALUES ARE:
:EIG00001:      -1.9699057   -1.9527831   -0.7028708   -0.6149785   -0.5951955
:EIG00006:      -0.5879872   -0.5807974   -0.5798465    0.4374786    0.5678026
:EIG00011:       0.6600791    0.6602439    0.6608023    0.6639534    0.6684375
:EIG00016:       0.6797211    0.6837943    0.6838685    0.6868372    0.6906158
:EIG00021:       0.6944728    0.6994861    0.6994919    0.7044263    0.7383705
:EIG00026:       0.7546897    0.8369251    0.8497387    0.8840176    0.9122034
:EIG00031:       0.9286524    1.0233497    1.0672627    1.1159679    1.4186537
:EIG00036:       1.4297662    1.5052029    1.5137682    1.6757094    1.7305798
:EIG00041:       1.8093929    1.9093805    1.9949118    2.0109696    2.1223955
:EIG00046:       2.1630457
 
       ********************************************************

:KPT   :      NUMBER OF K-POINTS:   288
:GAP (global)   :    0.0    Ry =     0.0   eV (metal)
         Bandranges (emin - emax) and occupancy:
:BAN00004:   4   -0.685331   -0.614978  2.00000000
:BAN00005:   5   -0.673174   -0.595196  2.00000000
:BAN00006:   6   -0.656235   -0.583610  2.00000000
:BAN00007:   7   -0.634789   -0.580523  2.00000000
:BAN00008:   8   -0.601241   -0.575849  2.00000000
:BAN00009:   9    0.432104    0.634720  2.00000000
:BAN00010:  10    0.540981    0.646908  2.00000000
:BAN00011:  11    0.597036    0.663865  2.00000000
:BAN00012:  12    0.639498    0.666793  1.99942579
:BAN00013:  13    0.651134    0.675688  1.47770168
:BAN00014:  14    0.659575    0.681112  0.52287253
:BAN00015:  15    0.667925    0.683462  0.00000000
:BAN00016:  16    0.672600    0.684728  0.00000000
:BAN00017:  17    0.676099    0.687435  0.00000000
:BAN00018:  18    0.679558    0.687644  0.00000000
:BAN00019:  19    0.683420    0.690798  0.00000000
        Energy to separate low and high energystates:    0.38210


:NOE  : NUMBER OF ELECTRONS          =   26.000

:FER  : F E R M I - ENERGY(TETRAH.M.)=   0.6665494959
:GMA  : POTENTIAL AND CHARGE CUT-OFF  12.00 Ry**.5

:POS001: ATOM   -1 X,Y,Z = 0.00000 0.89750 0.25000  MULT= 2  ZZ= 59.000  Pr1       

       LMMAX 16
       LM=   0 0  1 0  2 0  2 2  3 0  3 2  4 0  4 2  4 4  5 0  5 2  5 4  6 0  6 2  6 4  6 6

:CHA001: TOTAL VALENCE CHARGE INSIDE SPHERE   1 =   9.5481    (RMT=  2.3000 )
:PCS001: PARTIAL CHARGES SPHERE =  1 S,P,D,F,PX,PY,PZ,D-Z2,D-X2Y2,D-XY,D-XZ,D-YZ 
:QTL001: 1.9413 5.0139 0.5377 2.0549 1.6686 1.6681 1.6772 0.1001 0.0973 0.1168 0.1057 0.1178
        Q-s-low E-s-low   Q-p-low E-p-low   Q-d-low E-d-low   Q-f-low E-f-low
:EPL001:  1.8694 -1.9528    4.9474 -0.6305    0.0022 -0.6581    0.0006 -0.6675
        Q-s-hi  E-s-hi    Q-p-hi  E-p-hi    Q-d-hi  E-d-hi    Q-f-hi  E-f-hi 
:EPH001:  0.0719  0.5694    0.0665  0.6066    0.5355  0.6153    2.0543  0.6518

                      VXX         VYY         VZZ       UP TO R
:VZZ001:             0.46749     4.98594    -5.45343       2.300

:CHA  : TOTAL VALENCE CHARGE INSIDE UNIT CELL =      26.000000

:SUM  : SUM OF EIGENVALUES =          -9.144104932


        1.ATOM      Pr1                  14 CORE STATES
       CORE-FORCE in mRy/a.u. = |F|      Fx             Fy             Fz
:FCO001:   1.ATOM    956.314801513275      0.000000000000      0.000000000000    956.314801513275

:1S 001: 1S               -3066.934857267 Ry
:2S 001: 2S                -492.692076412 Ry
:2PP001: 2P*               -465.790679108 Ry
:2P 001: 2P                -430.393430094 Ry
:3S 001: 3S                -105.784443478 Ry
:3PP001: 3P*                -94.322190319 Ry
:3P 001: 3P                 -87.314395599 Ry
:3DD001: 3D*                -67.241337579 Ry
:3D 001: 3D                 -65.729797700 Ry
:4S 001: 4S                 -20.457777140 Ry
:4PP001: 4P*                -16.164195558 Ry
:4P 001: 4P                 -14.636254238 Ry
:4DD001: 4D*                 -7.568243227 Ry
:4D 001: 4D                  -7.298657350 Ry
:CINT001 Core Integral Atom   1   45.998500

       DENSITY AT NUCLEUS
        JATOM        VALENCE       SEMI-CORE          CORE           TOTAL
:RTO001:   1      648.864052        0.000000   656824.732142   657473.596194
     
       CHARGES OF NEW CHARGE DENSITY
:NTO   : INTERSTITIAL CHARGE =     6.903803
:NPC   : PW Pseudocharge     =    16.965860
:NTO001: CHARGE SPHERE  1    =    55.546598

:NEC01: NUCLEAR AND ELECTRONIC CHARGE    118.00000   117.99700
     
       CHARGES OF OLD CHARGE DENSITY
:OTO   : INTERSTITIAL CHARGE =     6.946260
:OPC   : PW Pseudocharge     =    16.942981
:OTO001: CHARGE SPHERE  1    =    55.526870

:NEC02: NUCLEAR AND ELECTRONIC CHARGE    118.00000   118.00000
     
       CONVERGENCE TEST
:DTO001: DIFFERENCE IN SPHERE  1 =  0.0483504

:DIS  :  CHARGE DISTANCE       ( 0.0483504 for atom    1 spin 1)      0.0483504
 PW Mixed is          471
 
******************************************************
* MULTISECANT MIXING VER9 RELEASE 10.4.0              *
* Standard Mode with controls                        *
* Fixed density scale                                *
* Regularization       1.000E-04                     *
* Trust Upper Limit    5.000E+00                     *
* Max Number of Memory Steps    8                    *
******************************************************
 
:PWTMP   3.5156E+02  1.9467E+02  4.5349E+02
:PLANE:  PW TOTAL      4.7803 DISTAN   2.96E-02  6.19E-01 %
:CHARG:  CLM/ATOM   1381.9839 DISTAN   2.39E-01  1.73E-02 %
 
Step History
        DMIX         DMIXT        Red     Pred      Trust     Lambda    MagRel    MagAbs     Beta
  1   3.5000E-02   3.5000E-02 -1.00E+00  1.00E+00 -1.00E+01  1.00E+00  3.50E-02  3.50E-02  1.00E+00
  2   2.5000E-02   2.5000E-02  6.99E-01  1.00E+00 -1.00E+01  1.00E+00  2.50E-02  3.01E-02  1.00E+00
  3   3.5862E-02   3.5862E-02  8.48E-01  1.00E+00 -1.00E+01  2.21E-02  3.59E-02  3.01E-02  1.00E+00
  4   4.5436E-02   4.5436E-02  8.56E-01  9.41E-01  2.72E-01  1.37E+00  7.01E-02  5.00E-02  9.35E-01
  5   1.1359E-01   1.1181E-01  7.24E-01  8.60E-01  3.86E-01  8.76E-01  3.86E-01  2.36E-01  1.00E+00
  6   2.2558E-01   2.2283E-01 -1.00E+00  8.22E-01  5.15E-01  1.00E+00  5.15E-01  2.28E-01  1.00E+00
:JACOBIANS    9.433E-01   6.502E-01
  
:NORMS:  1/Froebius, Min, Max, Used   0.6747E+00  0.4134E+00  0.9977E+00  0.6912E+00
:INFO :  Number of Memory Steps    5 Skipping    0
:INFO :  SLambda=    0.6400875572  Max    0.6400875572
:PREDicted Charge, CTotal, PW Trust    1.193E-03   2.387E-03   3.274E-02
:PREDicted DMix, Beta, BLim   4.2571E-01  1.3901E+00  1.0066E+00

Eigenvalues, unscaled except for SY+YY
   #     SY Real        SY Imag          SS             YY         SY+YY Real      SY+YY Imag
   1   1.884884E+00   0.000000E+00   1.798033E+00   3.763138E+00   4.863607E+00   0.000000E+00
   2   4.944333E-01   0.000000E+00   4.690013E-01   8.528648E-01   1.192948E+00   0.000000E+00
   3   7.434949E-02   0.000000E+00   8.817171E-03   3.790844E-01   5.086835E-01   0.000000E+00
   4  -4.804098E-16   0.000000E+00   8.922065E-05   4.878178E-03   3.457114E-05   0.000000E+00
   5   8.406710E-04   0.000000E+00   1.082169E-16   3.436652E-05   5.826513E-03   0.000000E+00
 
:INFO :  Singular value  4.866E+00 Weight  1.000E+00 Projection -5.770E-02
:INFO :  Singular value  1.193E+00 Weight  1.000E+00 Projection -7.539E-02
:INFO :  Singular value  5.086E-01 Weight  1.000E+00 Projection -6.355E-02
:INFO :  Singular value  5.827E-03 Weight  9.958E-01 Projection -2.659E+00
:INFO :  Singular value  3.457E-05 Weight  8.369E-03 Projection -5.031E-02
:RANK :  ACTIVE   4.00/5  =  80.08 % ; YY RANK   4.00/5  =  80.05 %
 
:BLIM :  VZERO Control Off
:TRUST:  Step 7.14E-01  Charge 7.50E-02 (e) CTO  2.50E-01 (e) PW  3.50E-01 (e)
:DIRM :  MEMORY  5/8  SCALE   1.000 RED  0.55 PRED  0.82 NEXT  0.47 
:TRAVE:  Charge 2.88E-03 (e) CTO  5.75E-03 (e) PW  3.67E-02 (e)
:DIRP :  |MSR1|= 2.328E-02 |PRATT|= 2.960E-02 ANGLE=  12.9 DEGREES
:DIRQ :  |MSR1|= 1.608E-01 |PRATT|= 2.393E-01 ANGLE=  29.7 DEGREES
:DIRT :  |MSR1|= 1.625E-01 |PRATT|= 2.411E-01 ANGLE=  29.6 DEGREES
:MIX  :   MSD1   REGULARIZATION:  3.76E-04 GREED: 0.28835  Newton 1.00  0.6737                
     
       CHARGES OF MIXED CHARGE DENSITY
:CTO   : INTERSTITIAL CHARGE =     6.942515
:CPC   : PW Pseudocharge     =    16.973747
:CTO001: CHARGE SPHERE  1    =    55.528742

:NEC03: NUCLEAR AND ELECTRONIC CHARGE    118.00000   118.00000

PW CHANGE     H    K    L      Current       Change    Residue
:PTO001:      0    0    0  5.27384710E-02  5.958E-05 -2.030E-05
:PTO003:      0    2    0  1.44494463E-02 -1.324E-05 -1.628E-05
:PTO004:     -1    1    0  7.07810262E-02  1.473E-04  2.018E-04
:PTO005:      0    2   -1 -8.21194924E-02 -1.244E-04 -2.174E-04
:PTO006:      0    0   -2 -4.25340745E-02 -2.034E-05  4.184E-05
:PTO007:     -1    1   -1 -8.87315054E-02 -3.255E-05 -8.191E-05
:PTO008:      0    2   -2 -1.44012268E-02  7.590E-05  9.614E-05
:PTO009:     -1    1   -2 -7.39851845E-02 -2.859E-04 -2.952E-04
:PTO011:     -1    3    0 -1.19664512E-02 -1.129E-04 -1.771E-04
:PTO012:     -1    3   -1 -5.37336197E-02 -2.138E-04 -3.404E-04
:PTO013:      0    4    0 -9.80633764E-03  1.170E-05 -1.431E-05
:PTO014:      0    2   -3  2.25484107E-02  6.939E-05  3.076E-05

:ENE  : ********** TOTAL ENERGY IN Ry =       -36944.17943496

       TOTAL FORCE IN mRy/a.u. = |F|     Fx             Fy             Fz     with/without FOR in case.in2
:FOR001:   1.ATOM          2.078          0.000          0.000         -2.078 partial forces
       TOTAL FORCE WITH RESPECT TO GLOBAL CARTESIAN COORDINATES:
:FCA001:   1.ATOM                         0.000         -2.078          0.000 partial forces
       TOTAL FORCE WITH RESPECT TO THE GLOBAL COORDINATE SYSTEM:
:FGL001:   1.ATOM                 0.000000000    -2.077838138     0.000000000 partial forces
 Flat Integration
 New Mode for Coulomb Integral
 Consistent 3/8+Simpson combinations
 Extension of core to zero
 LDM version in phi
 Fifth-order quadrature in outwin


            ---------
:ITE007:  7. ITERATION
            ---------

:NATO :    1 INDEPENDENT AND    2 TOTAL ATOMS IN UNITCELL
       SUBSTANCE: aU                                                          

       LATTICE                      = CXY 
:POT  : POTENTIAL OPTION EX_LDA EC_LDA VX_LDA VC_LDA
:LAT  : LATTICE CONSTANTS=  6.34235 12.87024 11.11114    1.571    1.571    1.571
:VOL  : UNIT CELL VOLUME =     453.48796
       MODE OF CALCULATION IS       = RELA
       NON-SPINPOLARIZED CALCULATION
:IFFT  : FFT-parameters:   54  100   90 Factor: 2.00


   CONVERGENCE PARAMETER FOR PSEUDOCHARGE: NCON=  9
   MAXIMAL VALUE OF RMT(JATOM)*ABSK(NKK) : RK  =27.59759


:VKCOUL :  VK-COUL convergence: 0.152E-06
       ATOMNUMBER=  1 Pr1        VCOUL-ZERO =  0.11632E+00
:EFG001:                        EFG         =    -7.59749   *10**21  V / m**2
                               V20  TOT/SRF=    -6.57962    -0.02974
                               V22  TOT/SRF=    -0.14417    -0.00162
                               V22M TOT/SRF=     0.00000     0.00000
                               V21  TOT/SRF=     0.00000     0.00000
                               V21M TOT/SRF=     0.00000     0.00000

              3.65457    0.00000    0.00000        3.65457    0.00000    0.00000
              0.00000    3.94292    0.00000        0.00000    3.94292    0.00000
              0.00000    0.00000   -7.59749        0.00000    0.00000   -7.59749

         MAIN DIRECTIONS OF THE EFG   1.0000  0.0000  0.0000
                                      0.0000  1.0000  0.0000
                                      0.0000  0.0000  1.0000
:ANG001:  ANGLE WITH OLD X-AXIS =         0.0

:ETA001:                         ASYMM. ETA =     0.03795


     HELLMANN-FEYNMAN-FORCE IN mRy/a.u. = |F|  Fx       Fy             Fz
:FHF001:   1.ATOM   1407.304755375325      0.000000000000      0.000000000000  -1407.304755375325

:FIT001: LUSE= 13 SIGMA OF V-XC FIT FOR ATOM  1  0.5235822E-04
:FIT001: LUSE= 13 SIGMA OF V-XC FIT FOR ATOM  1  0.5235822E-04
:DEN  : DENSITY INTEGRAL  =        -14153.14521958   (Ry)
       ELS_POTENTIAL_AT Z=0 and Z=0.5:   0.74463   0.74463
       ELS_POTENTIAL_AT Y=0 and Y=0.5:   0.06735   0.06735
:VZERO:v0,v0c,v0x   0.15423   0.74463  -0.59040 v5,v5c,v5x   0.15423   0.74463  -0.59040
:VZERY:v0,v0c,v0x  -0.72226   0.06735  -0.78960 v5,v5c,v5x  -0.72226   0.06735  -0.78960
:VZERX:v0,v0c,v0x  -1.13346  -0.37929  -0.75417 v5,v5c,v5x  -1.13346  -0.37929  -0.75417
:LMAX-WF:   10   Non-Spherical LMAX:   4

          ATOMIC SPHERE DEPENDENT PARAMETERS FOR ATOM  Pr1       
:e__0001: OVERALL ENERGY PARAMETER IS    0.4683
          OVERALL BASIS SET ON ATOM IS LAPW
:E0_0001: E( 0)=    0.4683
             APW+lo
:E0_0001: E( 0)=   -1.9956   E(BOTTOM)=   -2.631   E(TOP)=   -1.361  4  5   185
             LOCAL ORBITAL
:E1_0001: E( 1)=    0.8683
             APW+lo
:E1_0001: E( 1)=   -0.5253   E(BOTTOM)=   -1.482   E(TOP)=    0.432  3  4   193
             LOCAL ORBITAL
:E3_0001: E( 3)=    0.6542   E(BOTTOM)=    0.447   E(TOP)=    0.861  0  1   128
             APW+lo
:E2_0001: E( 2)=    0.4683   E(BOTTOM)=    0.259   E(TOP)= -200.000  2 -1    88
             APW+lo

       K=   0.06250   0.00000   0.06250            1
:RKM  : MATRIX SIZE   431LOs:  40  RKM= 8.49  WEIGHT= 4.00  PGR:    
       EIGENVALUES ARE:
:EIG00001:      -1.9700748   -1.9529865   -0.7020109   -0.6158839   -0.5962097
:EIG00006:      -0.5884131   -0.5802969   -0.5800760    0.4379164    0.5681584
:EIG00011:       0.6605431    0.6619577    0.6622470    0.6649177    0.6698415
:EIG00016:       0.6813915    0.6848005    0.6854819    0.6884916    0.6917399
:EIG00021:       0.6956733    0.6994681    0.7003519    0.7062078    0.7389772
:EIG00026:       0.7547810    0.8377219    0.8497549    0.8845120    0.9120775
:EIG00031:       0.9283968    1.0237665    1.0676022    1.1162614    1.4188343
:EIG00036:       1.4300348    1.5057012    1.5140578    1.6763589    1.7311962
:EIG00041:       1.8102288    1.9100340    1.9953773    2.0115988    2.1224822
:EIG00046:       2.1636897
 
       ********************************************************

:KPT   :      NUMBER OF K-POINTS:   288
:GAP (global)   :    0.0    Ry =     0.0   eV (metal)
         Bandranges (emin - emax) and occupancy:
:BAN00004:   4   -0.685681   -0.615884  2.00000000
:BAN00005:   5   -0.673073   -0.596210  2.00000000
:BAN00006:   6   -0.656462   -0.584048  2.00000000
:BAN00007:   7   -0.635608   -0.580297  2.00000000
:BAN00008:   8   -0.601277   -0.576301  2.00000000
:BAN00009:   9    0.432535    0.635517  2.00000000
:BAN00010:  10    0.541355    0.647672  2.00000000
:BAN00011:  11    0.597186    0.665686  2.00000000
:BAN00012:  12    0.640306    0.668392  1.99673820
:BAN00013:  13    0.651365    0.677501  1.43597436
:BAN00014:  14    0.660815    0.681796  0.56728744
:BAN00015:  15    0.669601    0.684701  0.00000000
:BAN00016:  16    0.673553    0.686778  0.00000000
:BAN00017:  17    0.677795    0.688427  0.00000000
:BAN00018:  18    0.680538    0.689853  0.00000000
:BAN00019:  19    0.684400    0.692428  0.00000000
        Energy to separate low and high energystates:    0.38253


:NOE  : NUMBER OF ELECTRONS          =   26.000

:FER  : F E R M I - ENERGY(TETRAH.M.)=   0.6676048384
:GMA  : POTENTIAL AND CHARGE CUT-OFF  12.00 Ry**.5

:POS001: ATOM   -1 X,Y,Z = 0.00000 0.89750 0.25000  MULT= 2  ZZ= 59.000  Pr1       

       LMMAX 16
       LM=   0 0  1 0  2 0  2 2  3 0  3 2  4 0  4 2  4 4  5 0  5 2  5 4  6 0  6 2  6 4  6 6

:CHA001: TOTAL VALENCE CHARGE INSIDE SPHERE   1 =   9.5352    (RMT=  2.3000 )
:PCS001: PARTIAL CHARGES SPHERE =  1 S,P,D,F,PX,PY,PZ,D-Z2,D-X2Y2,D-XY,D-XZ,D-YZ 
:QTL001: 1.9415 5.0151 0.5420 2.0364 1.6688 1.6684 1.6779 0.1014 0.0971 0.1176 0.1064 0.1195
        Q-s-low E-s-low   Q-p-low E-p-low   Q-d-low E-d-low   Q-f-low E-f-low
:EPL001:  1.8694 -1.9530    4.9479 -0.6307    0.0022 -0.6571    0.0006 -0.6666
        Q-s-hi  E-s-hi    Q-p-hi  E-p-hi    Q-d-hi  E-d-hi    Q-f-hi  E-f-hi 
:EPH001:  0.0720  0.5700    0.0673  0.6077    0.5398  0.6161    2.0358  0.6529

[...]

:NEC02: NUCLEAR AND ELECTRONIC CHARGE    118.00000   118.00000
     
       CONVERGENCE TEST
:DTO001: DIFFERENCE IN SPHERE  1 =  0.0009221

:DIS  :  CHARGE DISTANCE       ( 0.0009221 for atom    1 spin 1)      0.0009221
 PW Mixed is          471
 
******************************************************
* MULTISECANT MIXING VER9 RELEASE 10.4.0              *
* Standard Mode with controls                        *
* Fixed density scale                                *
* Regularization       1.000E-04                     *
* Trust Upper Limit    5.000E+00                     *
* Max Number of Memory Steps    8                    *
******************************************************
 
:PWTMP   3.5156E+02  1.9467E+02  4.5349E+02
:PLANE:  PW TOTAL      4.7887 DISTAN   3.06E-04  6.38E-03 %
:CHARG:  CLM/ATOM   1381.9501 DISTAN   1.55E-03  1.12E-04 %
 
Step History
        DMIX         DMIXT        Red     Pred      Trust     Lambda    MagRel    MagAbs     Beta
  3   3.5862E-02   3.5862E-02  8.48E-01  1.00E+00 -1.00E+01  2.21E-02  3.59E-02  3.01E-02  1.00E+00
  4   4.5436E-02   4.5436E-02  8.56E-01  9.41E-01  2.72E-01  1.37E+00  7.01E-02  5.00E-02  9.35E-01
  5   1.1359E-01   1.1181E-01  7.24E-01  8.60E-01  3.86E-01  8.76E-01  3.86E-01  2.36E-01  1.00E+00
  6   2.2558E-01   2.2283E-01  5.45E-01  8.22E-01  5.15E-01  6.40E-01  5.15E-01  2.28E-01  1.00E+00
  7   2.8835E-01   2.8835E-01  2.48E-01  4.71E-01  7.14E-01  4.51E-01  6.74E-01  1.62E-01  1.00E+00
  8   2.3364E-01   2.3364E-01  4.53E-01  7.27E-01  9.53E-01  9.80E-01  4.94E-01  2.95E-02  1.00E+00
  9   3.2388E-01   3.2388E-01  8.10E-01  7.50E-01  1.27E+00  1.47E+00  5.33E-01  1.44E-02  1.00E+00
 10   2.5372E-01   2.5372E-01  2.68E-01  2.34E-01  1.57E+00  1.78E+00  1.90E-01  4.16E-03  9.29E-01
 11   2.9315E-01   2.9315E-01 -1.00E+00  2.99E-01  2.09E+00  1.00E+00  2.75E-01  1.62E-03  1.00E+00
:JACOBIANS    1.073E+00   2.430E+00
  
:NORMS:  1/Froebius, Min, Max, Used   0.7311E+00  0.5091E+00  0.9976E+00  0.9727E+00
:INFO :  Number of Memory Steps    8 Skipping    2
:INFO :  SLambda=    1.7837965396  Max    1.7837965396
:PREDicted Charge, CTotal, PW Trust    3.735E-04   7.470E-04   2.630E-05
:PREDicted DMix, Beta, BLim   6.3771E-01  1.3729E+00  2.5766E+00

Eigenvalues, unscaled except for SY+YY
   #     SY Real        SY Imag          SS             YY         SY+YY Real      SY+YY Imag
   1   3.389547E+00   0.000000E+00   3.431664E+00   3.626668E+00   9.659260E+00   0.000000E+00
   2   1.105663E+00   0.000000E+00   6.479342E-01   2.255574E+00   4.119528E+00   0.000000E+00
   3   2.207681E-01   0.000000E+00   1.469662E-01   1.108834E+00   1.578177E+00   0.000000E+00
   4   1.374537E-01   0.000000E+00   2.655323E-02   7.305021E-01   9.893801E-01   0.000000E+00
   5   6.036579E-02   0.000000E+00   1.646702E-02   2.032966E-01   3.074081E-01   0.000000E+00
   6   6.004723E-04   0.000000E+00   5.008062E-03   6.700633E-02   1.497433E-01   0.000000E+00
   7   2.349472E-03   0.000000E+00   1.004239E-03   6.477770E-03   3.513582E-03   0.000000E+00
   8   2.640399E-02   0.000000E+00   1.040553E-04   1.640241E-03   1.056583E-02   0.000000E+00
 
:INFO :  Singular value  9.665E+00 Weight  1.000E+00 Projection -2.058E-05
:INFO :  Singular value  4.128E+00 Weight  1.000E+00 Projection -3.845E-04
:INFO :  Singular value  1.575E+00 Weight  1.000E+00 Projection -9.327E-04
:INFO :  Singular value  9.892E-01 Weight  1.000E+00 Projection -2.694E-05
:INFO :  Singular value  3.074E-01 Weight  1.000E+00 Projection -2.685E-04
:INFO :  Singular value  1.497E-01 Weight  1.000E+00 Projection -1.683E-03
:INFO :  Singular value  1.058E-02 Weight  9.988E-01 Projection -8.462E-03
:INFO :  Singular value  3.509E-03 Weight  9.894E-01 Projection -1.777E-02
:RANK :  ACTIVE   7.99/8  =  99.85 % ; YY RANK   7.95/8  =  99.38 %
 
:BLIM :  VZERO Control Off
:TRUST:  Step 2.79E+00  Charge 2.46E-02 (e) CTO  8.19E-02 (e) PW  1.15E-01 (e)
:DIRM :  MEMORY  8/8  SCALE   1.000 RED  0.27 PRED  0.30 NEXT  0.28 
:TRAVE:  Charge 3.25E-04 (e) CTO  6.49E-04 (e) PW  1.39E-03 (e)
:DIRP :  |MSR1|= 2.376E-04 |PRATT|= 3.056E-04 ANGLE=  21.5 DEGREES
:DIRQ :  |MSR1|= 9.180E-04 |PRATT|= 1.552E-03 ANGLE=  28.9 DEGREES
:DIRT :  |MSR1|= 9.483E-04 |PRATT|= 1.581E-03 ANGLE=  28.7 DEGREES
:MIX  :   MSE1   REGULARIZATION:  3.63E-04 GREED: 0.35000  Newton 1.00  0.5996                
     
       CHARGES OF MIXED CHARGE DENSITY
:CTO   : INTERSTITIAL CHARGE =     6.936838
:CPC   : PW Pseudocharge     =    16.983838
:CTO001: CHARGE SPHERE  1    =    55.531581

:NEC03: NUCLEAR AND ELECTRONIC CHARGE    118.00000   118.00000

PW CHANGE     H    K    L      Current       Change    Residue
:PTO001:      0    0    0  5.27482039E-02 -1.084E-07  1.904E-06
:PTO003:      0    2    0  1.44313994E-02 -4.459E-07 -7.775E-07
:PTO004:     -1    1    0  7.07665853E-02 -6.528E-07  3.819E-08
:PTO005:      0    2   -1 -8.21658131E-02 -1.445E-07 -6.423E-07
:PTO006:      0    0   -2 -4.25517569E-02  1.532E-07 -1.949E-07
:PTO007:     -1    1   -1 -8.88242487E-02 -3.560E-06 -5.226E-06
:PTO008:      0    2   -2 -1.44101815E-02 -1.709E-06 -2.082E-06
:PTO009:     -1    1   -2 -7.41062148E-02 -1.771E-06 -3.136E-06
:PTO011:     -1    3    0 -1.20382532E-02 -3.381E-06 -4.489E-06
:PTO012:     -1    3   -1 -5.37957232E-02 -1.352E-06 -2.420E-06
:PTO013:      0    4    0 -9.80222079E-03  3.358E-07  3.525E-07
:PTO014:      0    2   -3  2.25418174E-02 -1.717E-06 -1.686E-06

:ENE  : ********** TOTAL ENERGY IN Ry =       -36944.17921317

       TOTAL FORCE IN mRy/a.u. = |F|     Fx             Fy             Fz     with/without FOR in case.in2
:FOR001:   1.ATOM         27.342          0.000          0.000        -27.342 partial forces
       TOTAL FORCE WITH RESPECT TO GLOBAL CARTESIAN COORDINATES:
:FCA001:   1.ATOM                         0.000        -27.342          0.000 partial forces
       TOTAL FORCE WITH RESPECT TO THE GLOBAL COORDINATE SYSTEM:
:FGL001:   1.ATOM                 0.000000000   -27.341523575     0.000000000 partial forces
 Flat Integration
 New Mode for Coulomb Integral
 Consistent 3/8+Simpson combinations
 Extension of core to zero
 LDM version in phi
 Fifth-order quadrature in outwin


            ---------
:ITE012: 12. ITERATION
            ---------

:NATO :    1 INDEPENDENT AND    2 TOTAL ATOMS IN UNITCELL
       SUBSTANCE: aU                                                          

       LATTICE                      = CXY 
:POT  : POTENTIAL OPTION EX_LDA EC_LDA VX_LDA VC_LDA
:LAT  : LATTICE CONSTANTS=  6.34235 12.87024 11.11114    1.571    1.571    1.571
:VOL  : UNIT CELL VOLUME =     453.48796
       MODE OF CALCULATION IS       = RELA
       NON-SPINPOLARIZED CALCULATION
:IFFT  : FFT-parameters:   54  100   90 Factor: 2.00


   CONVERGENCE PARAMETER FOR PSEUDOCHARGE: NCON=  9
   MAXIMAL VALUE OF RMT(JATOM)*ABSK(NKK) : RK  =27.59759


:VKCOUL :  VK-COUL convergence: 0.160E-06
       ATOMNUMBER=  1 Pr1        VCOUL-ZERO =  0.11632E+00
:EFG001:                        EFG         =    -8.35705   *10**21  V / m**2
                               V20  TOT/SRF=    -7.23742    -0.03009
                               V22  TOT/SRF=    -0.32095    -0.00082
                               V22M TOT/SRF=     0.00000     0.00000
                               V21  TOT/SRF=     0.00000     0.00000
                               V21M TOT/SRF=     0.00000     0.00000

              3.85757    0.00000    0.00000        3.85757    0.00000    0.00000
              0.00000    4.49947    0.00000        0.00000    4.49947    0.00000
              0.00000    0.00000   -8.35705        0.00000    0.00000   -8.35705

         MAIN DIRECTIONS OF THE EFG   1.0000  0.0000  0.0000
                                      0.0000  1.0000  0.0000
                                      0.0000  0.0000  1.0000
:ANG001:  ANGLE WITH OLD X-AXIS =         0.0

:ETA001:                         ASYMM. ETA =     0.07681


     HELLMANN-FEYNMAN-FORCE IN mRy/a.u. = |F|  Fx       Fy             Fz
:FHF001:   1.ATOM   1432.439305223784      0.000000000000      0.000000000000  -1432.439305223784

:FIT001: LUSE= 13 SIGMA OF V-XC FIT FOR ATOM  1  0.5756866E-04
:FIT001: LUSE= 13 SIGMA OF V-XC FIT FOR ATOM  1  0.5756866E-04
:DEN  : DENSITY INTEGRAL  =        -14153.08596923   (Ry)
       ELS_POTENTIAL_AT Z=0 and Z=0.5:   0.74441   0.74441
       ELS_POTENTIAL_AT Y=0 and Y=0.5:   0.06708   0.06708
:VZERO:v0,v0c,v0x   0.15429   0.74441  -0.59012 v5,v5c,v5x   0.15429   0.74441  -0.59012
:VZERY:v0,v0c,v0x  -0.72248   0.06708  -0.78955 v5,v5c,v5x  -0.72248   0.06708  -0.78955
:VZERX:v0,v0c,v0x  -1.13356  -0.37948  -0.75408 v5,v5c,v5x  -1.13356  -0.37948  -0.75408
:LMAX-WF:   10   Non-Spherical LMAX:   4

          ATOMIC SPHERE DEPENDENT PARAMETERS FOR ATOM  Pr1       
:e__0001: OVERALL ENERGY PARAMETER IS    0.4680
          OVERALL BASIS SET ON ATOM IS LAPW
:E0_0001: E( 0)=    0.4680
             APW+lo
:E0_0001: E( 0)=   -1.9953   E(BOTTOM)=   -2.630   E(TOP)=   -1.360  4  5   182
             LOCAL ORBITAL
:E1_0001: E( 1)=    0.8680
             APW+lo
:E1_0001: E( 1)=   -0.5250   E(BOTTOM)=   -1.482   E(TOP)=    0.432  3  4   197
             LOCAL ORBITAL
:E3_0001: E( 3)=    0.6545   E(BOTTOM)=    0.448   E(TOP)=    0.861  0  1   127
             APW+lo
:E2_0001: E( 2)=    0.4680   E(BOTTOM)=    0.259   E(TOP)= -200.000  2 -1    87
             APW+lo

       K=   0.06250   0.00000   0.06250            1
:RKM  : MATRIX SIZE   431LOs:  40  RKM= 8.49  WEIGHT= 4.00  PGR:    
       EIGENVALUES ARE:
:EIG00001:      -1.9697545   -1.9526497   -0.7018921   -0.6155283   -0.5958583
:EIG00006:      -0.5881836   -0.5800577   -0.5798716    0.4379985    0.5682553
:EIG00011:       0.6606634    0.6622126    0.6624568    0.6651324    0.6700446
:EIG00016:       0.6816772    0.6852732    0.6858718    0.6888753    0.6921328
:EIG00021:       0.6962118    0.6997260    0.7003734    0.7064782    0.7391055
:EIG00026:       0.7549134    0.8378316    0.8499274    0.8846105    0.9122710
:EIG00031:       0.9286147    1.0238935    1.0677612    1.1163418    1.4189042
:EIG00036:       1.4301222    1.5057974    1.5140326    1.6764376    1.7311014
:EIG00041:       1.8102469    1.9101088    1.9955880    2.0116463    2.1225360
:EIG00046:       2.1638318
 
       ********************************************************

:KPT   :      NUMBER OF K-POINTS:   288
:GAP (global)   :    0.0    Ry =     0.0   eV (metal)
         Bandranges (emin - emax) and occupancy:
:BAN00004:   4   -0.685451   -0.615528  2.00000000
:BAN00005:   5   -0.672928   -0.595858  2.00000000
:BAN00006:   6   -0.656197   -0.583818  2.00000000
:BAN00007:   7   -0.635296   -0.580058  2.00000000
:BAN00008:   8   -0.601048   -0.576062  2.00000000
:BAN00009:   9    0.432619    0.635729  2.00000000
:BAN00010:  10    0.541450    0.647902  2.00000000
:BAN00011:  11    0.597343    0.665839  2.00000000
:BAN00012:  12    0.640413    0.668632  1.99711151
:BAN00013:  13    0.651585    0.677705  1.44985201
:BAN00014:  14    0.661141    0.682185  0.55303647
:BAN00015:  15    0.669879    0.685220  0.00000000
:BAN00016:  16    0.673970    0.686953  0.00000000
:BAN00017:  17    0.677936    0.688626  0.00000000
:BAN00018:  18    0.680727    0.689998  0.00000000
:BAN00019:  19    0.684791    0.692653  0.00000000
        Energy to separate low and high energystates:    0.38262


:NOE  : NUMBER OF ELECTRONS          =   26.000

:FER  : F E R M I - ENERGY(TETRAH.M.)=   0.6679017237
:GMA  : POTENTIAL AND CHARGE CUT-OFF  12.00 Ry**.5

:POS001: ATOM   -1 X,Y,Z = 0.00000 0.89750 0.25000  MULT= 2  ZZ= 59.000  Pr1       

       LMMAX 16
       LM=   0 0  1 0  2 0  2 2  3 0  3 2  4 0  4 2  4 4  5 0  5 2  5 4  6 0  6 2  6 4  6 6

:CHA001: TOTAL VALENCE CHARGE INSIDE SPHERE   1 =   9.5331    (RMT=  2.3000 )
:PCS001: PARTIAL CHARGES SPHERE =  1 S,P,D,F,PX,PY,PZ,D-Z2,D-X2Y2,D-XY,D-XZ,D-YZ 
:QTL001: 1.9415 5.0149 0.5429 2.0335 1.6687 1.6684 1.6778 0.1015 0.0975 0.1176 0.1066 0.1195
        Q-s-low E-s-low   Q-p-low E-p-low   Q-d-low E-d-low   Q-f-low E-f-low
:EPL001:  1.8694 -1.9526    4.9476 -0.6304    0.0022 -0.6572    0.0006 -0.6665
        Q-s-hi  E-s-hi    Q-p-hi  E-p-hi    Q-d-hi  E-d-hi    Q-f-hi  E-f-hi 
:EPH001:  0.0721  0.5701    0.0673  0.6078    0.5407  0.6162    2.0329  0.6531

                      VXX         VYY         VZZ       UP TO R
:VZZ001:             3.84025     4.48728    -8.32753       2.300

:CHA  : TOTAL VALENCE CHARGE INSIDE UNIT CELL =      26.000000

:SUM  : SUM OF EIGENVALUES =          -9.133644508


        1.ATOM      Pr1                  14 CORE STATES
       CORE-FORCE in mRy/a.u. = |F|      Fx             Fy             Fz
:FCO001:   1.ATOM   1405.562082862835      0.000000000000      0.000000000000   1405.562082862835

:1S 001: 1S               -3066.938393704 Ry
:2S 001: 2S                -492.691238589 Ry
:2PP001: 2P*               -465.790344798 Ry
:2P 001: 2P                -430.392863378 Ry
:3S 001: 3S                -105.781366740 Ry
:3PP001: 3P*                -94.319233401 Ry
:3P 001: 3P                 -87.311333139 Ry
:3DD001: 3D*                -67.238415250 Ry
:3D 001: 3D                 -65.726840588 Ry
:4S 001: 4S                 -20.454774880 Ry
:4PP001: 4P*                -16.161319568 Ry
:4P 001: 4P                 -14.633544182 Ry
:4DD001: 4D*                 -7.565798603 Ry
:4D 001: 4D                  -7.296265761 Ry
:CINT001 Core Integral Atom   1   45.998498

       DENSITY AT NUCLEUS
        JATOM        VALENCE       SEMI-CORE          CORE           TOTAL
:RTO001:   1      648.853029        0.000000   656825.388729   657474.241758
     
       CHARGES OF NEW CHARGE DENSITY
:NTO   : INTERSTITIAL CHARGE =     6.933801
:NPC   : PW Pseudocharge     =    16.976548
:NTO001: CHARGE SPHERE  1    =    55.531597

:NEC01: NUCLEAR AND ELECTRONIC CHARGE    118.00000   117.99699
     
       CHARGES OF OLD CHARGE DENSITY
:OTO   : INTERSTITIAL CHARGE =     6.936838
:OPC   : PW Pseudocharge     =    16.983838
:OTO001: CHARGE SPHERE  1    =    55.531581

:NEC02: NUCLEAR AND ELECTRONIC CHARGE    118.00000   118.00000
     
       CONVERGENCE TEST
:DTO001: DIFFERENCE IN SPHERE  1 =  0.0000639

:DIS  :  CHARGE DISTANCE       ( 0.0000639 for atom    1 spin 1)      0.0000639
 PW Mixed is          471
 
******************************************************
* MULTISECANT MIXING VER9 RELEASE 10.4.0              *
* Standard Mode with controls                        *
* Fixed density scale                                *
* Regularization       1.000E-04                     *
* Trust Upper Limit    5.000E+00                     *
* Max Number of Memory Steps    8                    *
******************************************************
 
:PWTMP   3.5156E+02  1.9467E+02  4.5349E+02
:PLANE:  PW TOTAL      4.7887 DISTAN   6.06E-05  1.27E-03 %
:CHARG:  CLM/ATOM   1381.9505 DISTAN   1.59E-04  1.15E-05 %
 
Step History
        DMIX         DMIXT        Red     Pred      Trust     Lambda    MagRel    MagAbs     Beta
  4   4.5436E-02   4.5436E-02  8.56E-01  9.41E-01  2.72E-01  1.37E+00  7.01E-02  5.00E-02  9.35E-01
  5   1.1359E-01   1.1181E-01  7.24E-01  8.60E-01  3.86E-01  8.76E-01  3.86E-01  2.36E-01  1.00E+00
  6   2.2558E-01   2.2283E-01  5.45E-01  8.22E-01  5.15E-01  6.40E-01  5.15E-01  2.28E-01  1.00E+00
  7   2.8835E-01   2.8835E-01  2.48E-01  4.71E-01  7.14E-01  4.51E-01  6.74E-01  1.62E-01  1.00E+00
  8   2.3364E-01   2.3364E-01  4.53E-01  7.27E-01  9.53E-01  9.80E-01  4.94E-01  2.95E-02  1.00E+00
  9   3.2388E-01   3.2388E-01  8.10E-01  7.50E-01  1.27E+00  1.47E+00  5.33E-01  1.44E-02  1.00E+00
 10   2.5372E-01   2.5372E-01  2.68E-01  2.34E-01  1.57E+00  1.78E+00  1.90E-01  4.16E-03  9.29E-01
 11   2.9315E-01   2.9315E-01  2.69E-01  2.99E-01  2.09E+00  1.78E+00  2.75E-01  1.62E-03  1.00E+00
 12   3.5000E-01   3.5000E-01 -1.00E+00  2.80E-01  2.79E+00  1.00E+00  6.00E-01  9.48E-04  1.00E+00
:JACOBIANS    1.088E+00   2.730E+00
  
:NORMS:  1/Froebius, Min, Max, Used   0.7050E+00  0.5178E+00  0.9973E+00  0.9777E+00
:INFO :  Number of Memory Steps    8 Skipping    3
:INFO :  SLambda=    1.1190669178  Max    1.1190669178
:PREDicted Charge, CTotal, PW Trust    1.787E-04   3.574E-04   3.429E-05
:PREDicted DMix, Beta, BLim   1.3550E-01  1.0299E+00  2.4547E+00

Eigenvalues, unscaled except for SY+YY
   #     SY Real        SY Imag          SS             YY         SY+YY Real      SY+YY Imag
   1   2.831743E+00   0.000000E+00   2.836219E+00   2.966775E+00   6.122387E+00   0.000000E+00
   2   1.186877E+00   0.000000E+00   7.014398E-01   2.782132E+00   4.036279E+00   0.000000E+00
   3   5.183573E-01   0.000000E+00   3.222735E-01   1.193390E+00   1.800276E+00   0.000000E+00
   4   1.234191E-01   0.000000E+00   8.848579E-02   6.303360E-01   7.747351E-01   0.000000E+00
   5   8.482871E-02   0.000000E+00   1.639808E-02   2.182061E-01   3.254616E-01   0.000000E+00
   6   4.429448E-04   0.000000E+00   7.951037E-03   1.632130E-01   2.346845E-01   0.000000E+00
   7   1.795161E-02   0.000000E+00   3.783320E-03   4.423929E-02   8.022434E-02   0.000000E+00
   8   4.074443E-02   0.000000E+00   1.121555E-04   1.708337E-03   2.356198E-03   0.000000E+00
 
:INFO :  Singular value  6.126E+00 Weight  1.000E+00 Projection  4.267E-05
:INFO :  Singular value  4.039E+00 Weight  1.000E+00 Projection -6.600E-06
:INFO :  Singular value  1.800E+00 Weight  1.000E+00 Projection -1.441E-05
:INFO :  Singular value  7.745E-01 Weight  1.000E+00 Projection  2.580E-05
:INFO :  Singular value  3.253E-01 Weight  1.000E+00 Projection  1.448E-04
:INFO :  Singular value  2.347E-01 Weight  1.000E+00 Projection -2.501E-05
:INFO :  Singular value  8.022E-02 Weight  1.000E+00 Projection -1.503E-04
:INFO :  Singular value  2.356E-03 Weight  9.844E-01 Projection -1.076E-03
:RANK :  ACTIVE   7.98/8  =  99.80 % ; YY RANK   7.97/8  =  99.63 %
 
:BLIM :  VZERO Control Off
:TRUST:  Step 8.93E+00  Charge 1.97E-02 (e) CTO  6.55E-02 (e) PW  9.18E-02 (e)
:DIRM :  MEMORY  8/8  SCALE   1.000 RED  0.11 PRED  0.28 NEXT  0.75 
:TRAVE:  Charge 1.66E-04 (e) CTO  3.32E-04 (e) PW  7.01E-04 (e)
:DIRP :  |MSR1|= 3.093E-05 |PRATT|= 6.062E-05 ANGLE=  20.5 DEGREES
:DIRQ :  |MSR1|= 8.777E-05 |PRATT|= 1.593E-04 ANGLE=  41.2 DEGREES
:DIRT :  |MSR1|= 9.306E-05 |PRATT|= 1.705E-04 ANGLE=  39.3 DEGREES
:MIX  :   MSE1   REGULARIZATION:  2.97E-04 GREED: 0.22496  Newton 1.00  0.5459                
     
       CHARGES OF MIXED CHARGE DENSITY
:CTO   : INTERSTITIAL CHARGE =     6.936823
:CPC   : PW Pseudocharge     =    16.983873
:CTO001: CHARGE SPHERE  1    =    55.531589

:NEC03: NUCLEAR AND ELECTRONIC CHARGE    118.00000   118.00000

PW CHANGE     H    K    L      Current       Change    Residue
:PTO001:      0    0    0  5.27482490E-02  4.506E-08  8.164E-08
:PTO003:      0    2    0  1.44313169E-02 -8.250E-08 -2.064E-07
:PTO004:     -1    1    0  7.07666422E-02  5.692E-08  3.490E-07
:PTO005:      0    2   -1 -8.21658509E-02 -3.775E-08 -1.264E-07
:PTO006:      0    0   -2 -4.25517405E-02  1.648E-08  9.747E-09
:PTO007:     -1    1   -1 -8.88243994E-02 -1.507E-07 -1.328E-07
:PTO008:      0    2   -2 -1.44101207E-02  6.083E-08  3.920E-07
:PTO009:     -1    1   -2 -7.41065422E-02 -3.273E-07 -7.515E-07
:PTO011:     -1    3    0 -1.20386074E-02 -3.542E-07 -6.900E-07
:PTO012:     -1    3   -1 -5.37960237E-02 -3.005E-07 -8.830E-07
:PTO013:      0    4    0 -9.80217762E-03  4.317E-08  3.684E-08
:PTO014:      0    2   -3  2.25417492E-02 -6.819E-08  3.246E-08

:ENE  : ********** TOTAL ENERGY IN Ry =       -36944.17921306

       TOTAL FORCE IN mRy/a.u. = |F|     Fx             Fy             Fz     with/without FOR in case.in2
:FOR001:   1.ATOM         26.877          0.000          0.000        -26.877 partial forces
       TOTAL FORCE WITH RESPECT TO GLOBAL CARTESIAN COORDINATES:
:FCA001:   1.ATOM                         0.000        -26.877          0.000 partial forces
       TOTAL FORCE WITH RESPECT TO THE GLOBAL COORDINATE SYSTEM:
:FGL001:   1.ATOM                 0.000000000   -26.877222361     0.000000000 partial forces
