
:LABEL1: Calculations in /home/ykent/GWIEN/example/Pr/V12/case
:LABEL2: on didymium-2.cmpgroup.ameslab.gov at Wed Jul  8 16:41:54 CDT 2020
:LABEL3: using WIEN2k_19.1 (Release 25/6/2019) in /home/ykent/opt/src/WIEN2k_19.1
:LABEL4: using the command: run_lapw -so -i 70 -cc 0.0001
 Flat Integration
 New Mode for Coulomb Integral
 Consistent 3/8+Simpson combinations
 Extension of core to zero
 LDM version in phi
 Fifth-order quadrature in outwin


            ---------
:ITE014: 14. ITERATION
            ---------

:NATO :    1 INDEPENDENT AND    1 TOTAL ATOMS IN UNITCELL
       SUBSTANCE: blebleble                                                   

       LATTICE                      = F   
:POT  : POTENTIAL OPTION EX_LDA EC_LDA VX_LDA VC_LDA
:LAT  : LATTICE CONSTANTS=  9.95603  9.95603  9.95603    1.571    1.571    1.571
:VOL  : UNIT CELL VOLUME =     246.71680
       MODE OF CALCULATION IS       = RELA
       NON-SPINPOLARIZED CALCULATION
:IFFT  : FFT-parameters:   80   80   80 Factor: 2.00


   CONVERGENCE PARAMETER FOR PSEUDOCHARGE: NCON=  9
   MAXIMAL VALUE OF RMT(JATOM)*ABSK(NKK) : RK  =29.93539


:VKCOUL :  VK-COUL convergence: 0.268E-06
       ATOMNUMBER=  1 Pr         VCOUL-ZERO =  0.22155E+00
:FIT001: LUSE= 13 SIGMA OF V-XC FIT FOR ATOM  1  0.4886475E-04
:FIT001: LUSE= 13 SIGMA OF V-XC FIT FOR ATOM  1  0.4886475E-04
:DEN  : DENSITY INTEGRAL  =         -7069.99035459   (Ry)
       ELS_POTENTIAL_AT Z=0 and Z=0.5:  -2.47172  -2.47172
       ELS_POTENTIAL_AT Y=0 and Y=0.5:   0.00000   0.00000
:VZERO:v0,v0c,v0x  -3.43827  -2.47172  -0.96655 v5,v5c,v5x  -3.43827  -2.47172  -0.96655
:VZERY:v0,v0c,v0x  -0.70502   0.00000  -0.70502 v5,v5c,v5x  -0.70502   0.00000  -0.70502
:VZERX:v0,v0c,v0x  -0.70502   0.00000  -0.70502 v5,v5c,v5x  -0.70502   0.00000  -0.70502
:LMAX-WF:   10   Non-Spherical LMAX:   4

          ATOMIC SPHERE DEPENDENT PARAMETERS FOR ATOM  Pr        
:e__0001: OVERALL ENERGY PARAMETER IS    0.3594
          OVERALL BASIS SET ON ATOM IS LAPW
:E0_0001: E( 0)=    0.3594
             APW+lo
:E0_0001: E( 0)=   -2.1191   E(BOTTOM)=   -2.499   E(TOP)=   -1.739  4  5   168
             LOCAL ORBITAL
:E1_0001: E( 1)=    0.7594
             APW+lo
:E1_0001: E( 1)=   -0.7305   E(BOTTOM)=   -1.376   E(TOP)=   -0.085  3  4   164
             LOCAL ORBITAL
:E3_0001: E( 3)=    0.5487   E(BOTTOM)=    0.408   E(TOP)=    0.690  0  1   116
             APW+lo
:E2_0001: E( 2)=    0.3594   E(BOTTOM)=    0.200   E(TOP)= -200.000  2 -1    89
             APW+lo

       K=   0.00000   0.00000   0.00000            1
:RKM  : MATRIX SIZE   189LOs:  20  RKM= 8.20  WEIGHT= 1.00  PGR:    
       EIGENVALUES ARE:
:EIG00001:      -2.0793382   -0.7122625   -0.7122625   -0.7122625    0.3090501
:EIG00006:       0.5470679    0.5638867    0.5638867    0.5638867    0.5872646
:EIG00011:       0.5872646    0.5872646    0.6902012    0.6902012    0.6902012
:EIG00016:       0.8579068    0.8579068    1.2594212    1.4837564    1.4837564
:EIG00021:       1.4837564    1.5892119    2.2576558    2.2576558    2.2576558
:EIG00026:       2.3379160    2.3379160    2.3379160    2.5434770    2.5434770
:EIG00031:       2.9070959    3.0682507    3.0682507    3.0682507    3.5020162
:EIG00036:       3.5020162    3.7352350    3.7352350    3.7352350    3.7833549
:EIG00041:       3.7833549    3.7833549    3.9061748    3.9061748    3.9061748
:EIG00046:       4.1885380    4.1885380    4.1885380    4.1986718    4.2898464
 
:EIG00051:       4.2898464    4.3607679    4.3607679    4.3607679    4.3907862
:EIG00056:       4.3907862    4.3907862    4.5006549    4.5092070    4.6359208
:EIG00061:       4.6359208    4.6359208    4.7607473    4.7607473    4.7607473
:EIG00066:       5.0174116    6.0106947    6.0161865    6.0161865    6.3540992
:EIG00071:       6.3540992    6.3540992    6.8285586    6.8285586    7.0088061
:EIG00076:       7.0088061    7.0088061    7.0609366    7.0609366    7.0609366
:EIG00081:       7.3238599    7.3238599    7.3238599    7.3467597    7.3467597
:EIG00086:       7.4143870    7.4143870    7.4143870    7.4367305    7.4367305
:EIG00091:       7.4367305    7.5370481    7.5370481    7.5370481    7.5394781
:EIG00096:       7.5394781    7.5394781    7.6317146    7.6882397    7.7921168
 
:EIG00101:       7.7921168    7.8180161    7.8180161    7.8180161    7.8272608
:EIG00106:       7.8272608    7.8272608    7.8594882    7.8594882    7.8594882
:EIG00111:       7.9643925    7.9643925
       ********************************************************

:KPT   :      NUMBER OF K-POINTS:   165
   0.0   0.0 angle (M,z), angle (M,x) deg
 
        SPIN-ORBIT EIGENVALUES:
     K=   0.00000   0.00000   0.00000            1
      MATRIX SIZE=  224   WEIGHT= 1.00
     EIGENVALUES ARE:
          -2.0793382   -2.0793382   -0.8598346   -0.8598346   -0.6431725
          -0.6431725   -0.6431725   -0.6431725    0.3090501    0.3090501
           0.5424817    0.5424817    0.5529118    0.5529118    0.5529118
           0.5529118    0.5755890    0.5755890    0.5875876    0.5875876
           0.5944280    0.5944280    0.5944280    0.5944280    0.6864119
           0.6864119    0.6864119    0.6864119    0.6966100    0.6966100
           0.8582921    0.8582921    0.8582921    0.8582921    1.2594742
           1.2594742    1.4788392    1.4788392    1.4860096    1.4860096

           1.4860096    1.4860096    1.5892119    1.5892119    2.2526783
           2.2526783    2.2526783    2.2526783    2.2658469    2.2658469
           2.2671062    2.2671062    2.3747855    2.3747855    2.3747855
           2.3747855    2.5437646    2.5437646    2.5437646    2.5437646
           2.9070959    2.9070959    3.0678252    3.0678252    3.0684763
           3.0684763    3.0684763    3.0684763    3.5019891    3.5019891
           3.5019891    3.5019891    3.7338842    3.7338842    3.7338842
           3.7338842    3.7381959    3.7381959    3.7517106    3.7517106

           3.8006667    3.8006667    3.8006667    3.8006667    3.9061663
           3.9061663    3.9061790    3.9061790    3.9061790    3.9061790
           4.1884875    4.1884875    4.1884875    4.1884875    4.1886454
           4.1886454    4.1986718    4.1986718    4.2898464    4.2898464
           4.2898464    4.2898464    4.3606057    4.3606057    4.3608410
           4.3608410    4.3608410    4.3608410    4.3906414    4.3906414
           4.3906414    4.3906414    4.3911187    4.3911187
       ********************************************************
:GAP (global)   :    0.0    Ry =     0.0   eV (metal)
:GAP (this spin):    0.0    Ry =     0.0   eV (metal)
         Bandranges (emin - emax) and occupancy:
:BAN00004:   4   -0.895684   -0.859835  1.00000000
:BAN00005:   5   -0.706483   -0.643173  1.00000000
:BAN00006:   6   -0.706483   -0.643173  1.00000000
:BAN00007:   7   -0.683733   -0.643173  1.00000000
:BAN00008:   8   -0.683733   -0.643173  1.00000000
:BAN00009:   9    0.309050    0.528146  1.00000000
:BAN00010:  10    0.309050    0.528146  1.00000000
:BAN00011:  11    0.488219    0.550996  1.00000000
:BAN00012:  12    0.488219    0.550996  1.00000000
:BAN00013:  13    0.542354    0.556843  0.50000002
:BAN00014:  14    0.542354    0.556843  0.49999998
:BAN00015:  15    0.552912    0.563418  0.00000000
:BAN00016:  16    0.552912    0.563418  0.00000000
:BAN00017:  17    0.557289    0.581414  0.00000000
:BAN00018:  18    0.557289    0.581414  0.00000000
:BAN00019:  19    0.576750    0.587588  0.00000000
        Energy to separate low and high energystates:    0.25905


:NOE  : NUMBER OF ELECTRONS          =   13.000

:FER  : F E R M I - ENERGY(TETRAH.M.)=   0.5524048209
:GMA  : POTENTIAL AND CHARGE CUT-OFF  12.00 Ry**.5

:POS001: ATOM    1 X,Y,Z = 0.00000 0.00000 0.50000  MULT= 1  ZZ= 59.000  Pr        

       LMMAX  5
       LM=   0 0  4 0  4 4  6 0  6 4

:CHA001: TOTAL VALENCE CHARGE INSIDE SPHERE   1 =  10.2040    (RMT=  2.5000 )
:PCS001: PARTIAL CHARGES SPHERE =  1 S,P,D,F,      D-EG,D-T2G 
:QTL001: 2.0274 5.3468 0.5584 2.2710 0.0000 0.0000 0.0000 0.2039 0.3545 0.0000 0.0000 0.0000
        Q-s-low E-s-low   Q-p-low E-p-low   Q-d-low E-d-low   Q-f-low E-f-low
:EPL001:  1.9259 -2.0693    5.2859 -0.7504    0.0012 -0.7338    0.0003 -0.7337
        Q-s-hi  E-s-hi    Q-p-hi  E-p-hi    Q-d-hi  E-d-hi    Q-f-hi  E-f-hi 
:EPH001:  0.1015  0.4560    0.0609  0.4898    0.5573  0.5051    2.2707  0.5410

:CHA  : TOTAL VALENCE CHARGE INSIDE UNIT CELL =      13.000000

:SUM  : SUM OF EIGENVALUES =          -6.061851856


        1.ATOM      Pr                   14 CORE STATES
:1S 001: 1S               -3067.049593967 Ry
:2S 001: 2S                -492.802279050 Ry
:2PP001: 2P*               -465.901539227 Ry
:2P 001: 2P                -430.504007231 Ry
:3S 001: 3S                -105.890447044 Ry
:3PP001: 3P*                -94.428397405 Ry
:3P 001: 3P                 -87.420440353 Ry
:3DD001: 3D*                -67.347803982 Ry
:3D 001: 3D                 -65.836199606 Ry
:4S 001: 4S                 -20.565358061 Ry
:4PP001: 4P*                -16.272099552 Ry
:4P 001: 4P                 -14.744590397 Ry
:4DD001: 4D*                 -7.677406149 Ry
:4D 001: 4D                  -7.407968806 Ry
:CINT001 Core Integral Atom   1   45.999520

       DENSITY AT NUCLEUS
        JATOM        VALENCE       SEMI-CORE          CORE           TOTAL
:RTO001:   1      650.490325        0.000000   656825.130011   657475.620336
     
       CHARGES OF NEW CHARGE DENSITY
:NTO   : INTERSTITIAL CHARGE =     2.796007
:NPC   : PW Pseudocharge     =     7.575492
:NTO001: CHARGE SPHERE  1    =    56.203512

:NEC01: NUCLEAR AND ELECTRONIC CHARGE     59.00000    58.99952
     
       CHARGES OF OLD CHARGE DENSITY
:OTO   : INTERSTITIAL CHARGE =     2.922125
:OPC   : PW Pseudocharge     =     7.632127
:OTO001: CHARGE SPHERE  1    =    56.077875

:NEC02: NUCLEAR AND ELECTRONIC CHARGE     59.00000    59.00000
     
       CONVERGENCE TEST
:DTO001: DIFFERENCE IN SPHERE  1 =  0.2276280

:DIS  :  CHARGE DISTANCE       ( 0.2276280 for atom    1 spin 1)      0.2276280
 PW Mixed is           55
 
******************************************************
* MULTISECANT MIXING VER9 RELEASE 10.4.0              *
* Standard Mode with controls                        *
* Fixed density scale                                *
* Restart from converged density                     *
* Regularization       1.000E-04                     *
* Trust Upper Limit    5.000E+00                     *
* Max Number of Memory Steps    8                    *
******************************************************
 
:INFO : Forcing a restart
:PWTMP   1.8127E+02  1.2500E+02  2.4672E+02
:PLANE:  PW TOTAL      2.9889 DISTAN   2.99E-02  1.00E+00 %
:CHARG:  CLM/ATOM    977.1876 DISTAN   2.47E-01  2.53E-02 %
 
Step History
        DMIX         DMIXT        Red     Pred      Trust     Lambda    MagRel    MagAbs     Beta
  1   3.5000E-02   3.5000E-02 -1.00E+00  1.00E+00 -1.00E+01  1.00E+00  3.50E-02  3.50E-02  1.00E+00
:INFO :  Note, Pratt in use
:TRUST:  Step 2.05E-01  Charge 7.50E-02 (e) CTO  2.50E-01 (e) PW  3.50E-01 (e)
:DIRM :  MEMORY  0/ 8 SCALE   1.000
Performing Pseudo Compensation
Final Pseudo Compensation Rescaling     1.00000E+00
:MIX  :   PRATT  REGULARIZATION:  1.00E-04 GREED: 0.13686                  
     
       CHARGES OF MIXED CHARGE DENSITY
:CTO   : INTERSTITIAL CHARGE =     2.904930
:CPC   : PW Pseudocharge     =     7.603776
:CTO001: CHARGE SPHERE  1    =    56.095070

:NEC03: NUCLEAR AND ELECTRONIC CHARGE     59.00000    59.00000

PW CHANGE     H    K    L      Current       Change    Residue
:PTO001:      0    0    0  4.25942064E-02 -1.846E-04 -7.335E-04
:PTO002:     -1   -1   -1 -1.32863342E-01  4.448E-04  3.403E-04
:PTO003:      0    0   -2  7.86767822E-02 -2.295E-04  1.274E-04
:PTO004:      0   -2   -2  6.76370251E-02 -2.495E-04 -3.143E-04
:PTO005:     -1   -1   -3 -6.35969328E-02  1.659E-04 -5.686E-05
:PTO006:     -2   -2   -2  1.61269256E-02 -4.269E-05 -2.110E-05
:PTO007:      0    0   -4  2.62610188E-03  1.710E-05  1.069E-04
:PTO008:     -1   -3   -3 -1.47738528E-03 -2.772E-05  1.281E-04
:PTO009:      0   -2   -4 -1.32798601E-03  4.710E-05 -1.930E-05
:PTO010:     -2   -2   -4 -6.69267099E-03  5.130E-05  3.710E-05
:PTO011:     -3   -3   -3  2.67410801E-03 -1.585E-05 -3.842E-05
:PTO012:     -1   -1   -5  7.71148288E-03 -4.723E-05 -1.128E-04

:ENE  : ********** TOTAL ENERGY IN Ry =       -18472.11363798

 Flat Integration
 New Mode for Coulomb Integral
 Consistent 3/8+Simpson combinations
 Extension of core to zero
 LDM version in phi
 Fifth-order quadrature in outwin


            ---------
:ITE015: 15. ITERATION
            ---------

:NATO :    1 INDEPENDENT AND    1 TOTAL ATOMS IN UNITCELL
       SUBSTANCE: blebleble                                                   

       LATTICE                      = F   
:POT  : POTENTIAL OPTION EX_LDA EC_LDA VX_LDA VC_LDA
:LAT  : LATTICE CONSTANTS=  9.95603  9.95603  9.95603    1.571    1.571    1.571
:VOL  : UNIT CELL VOLUME =     246.71680
       MODE OF CALCULATION IS       = RELA
       NON-SPINPOLARIZED CALCULATION
:IFFT  : FFT-parameters:   80   80   80 Factor: 2.00


   CONVERGENCE PARAMETER FOR PSEUDOCHARGE: NCON=  9
   MAXIMAL VALUE OF RMT(JATOM)*ABSK(NKK) : RK  =29.93539


:VKCOUL :  VK-COUL convergence: 0.263E-06
       ATOMNUMBER=  1 Pr         VCOUL-ZERO =  0.22085E+00
:FIT001: LUSE= 13 SIGMA OF V-XC FIT FOR ATOM  1  0.4699335E-04
:FIT001: LUSE= 13 SIGMA OF V-XC FIT FOR ATOM  1  0.4699335E-04
:DEN  : DENSITY INTEGRAL  =         -7071.88576863   (Ry)
       ELS_POTENTIAL_AT Z=0 and Z=0.5:  -2.45919  -2.45919
       ELS_POTENTIAL_AT Y=0 and Y=0.5:   0.00000   0.00000
:VZERO:v0,v0c,v0x  -3.42485  -2.45919  -0.96567 v5,v5c,v5x  -3.42485  -2.45919  -0.96567
:VZERY:v0,v0c,v0x  -0.70388   0.00000  -0.70388 v5,v5c,v5x  -0.70388   0.00000  -0.70388
:VZERX:v0,v0c,v0x  -0.70388   0.00000  -0.70388 v5,v5c,v5x  -0.70388   0.00000  -0.70388
:LMAX-WF:   10   Non-Spherical LMAX:   4

          ATOMIC SPHERE DEPENDENT PARAMETERS FOR ATOM  Pr        
:e__0001: OVERALL ENERGY PARAMETER IS    0.3547
          OVERALL BASIS SET ON ATOM IS LAPW
:E0_0001: E( 0)=    0.3547
             APW+lo
:E0_0001: E( 0)=   -2.1065   E(BOTTOM)=   -2.489   E(TOP)=   -1.724  4  5   169
             LOCAL ORBITAL
:E1_0001: E( 1)=    0.7547
             APW+lo
:E1_0001: E( 1)=   -0.7199   E(BOTTOM)=   -1.368   E(TOP)=   -0.071  3  4   166
             LOCAL ORBITAL
:E3_0001: E( 3)=    0.5718   E(BOTTOM)=    0.428   E(TOP)=    0.716  0  1   117
             APW+lo
:E2_0001: E( 2)=    0.3547   E(BOTTOM)=    0.206   E(TOP)= -200.000  2 -1    91
             APW+lo

       K=   0.00000   0.00000   0.00000            1
:RKM  : MATRIX SIZE   189LOs:  20  RKM= 8.20  WEIGHT= 1.00  PGR:    
       EIGENVALUES ARE:
:EIG00001:      -2.0669808   -0.7025724   -0.7025724   -0.7025724    0.3088744
:EIG00006:       0.5679706    0.5862269    0.5862269    0.5862269    0.6110461
:EIG00011:       0.6110461    0.6110461    0.6925985    0.6925985    0.6925985
:EIG00016:       0.8616546    0.8616546    1.2614276    1.4844666    1.4844666
:EIG00021:       1.4844666    1.5868320    2.2613605    2.2613605    2.2613605
:EIG00026:       2.3405088    2.3405088    2.3405088    2.5455957    2.5455957
:EIG00031:       2.9082741    3.0684021    3.0684021    3.0684021    3.5038807
:EIG00036:       3.5038807    3.7364086    3.7364086    3.7364086    3.7831796
:EIG00041:       3.7831796    3.7831796    3.9065079    3.9065079    3.9065079
:EIG00046:       4.1874174    4.1874174    4.1874174    4.1995482    4.2882819
 
:EIG00051:       4.2882819    4.3594978    4.3594978    4.3594978    4.3894121
:EIG00056:       4.3894121    4.3894121    4.4984912    4.5093933    4.6339207
:EIG00061:       4.6339207    4.6339207    4.7590094    4.7590094    4.7590094
:EIG00066:       5.0153964    6.0107896    6.0164924    6.0164924    6.3535296
:EIG00071:       6.3535296    6.3535296    6.8324775    6.8324775    7.0118557
:EIG00076:       7.0118557    7.0118557    7.0631905    7.0631905    7.0631905
:EIG00081:       7.3235443    7.3235443    7.3235443    7.3458282    7.3458282
:EIG00086:       7.4160319    7.4160319    7.4160319    7.4362848    7.4362848
:EIG00091:       7.4362848    7.5373005    7.5373005    7.5373005    7.5391136
:EIG00096:       7.5391136    7.5391136    7.6308117    7.6873965    7.7915956
 
:EIG00101:       7.7915956    7.8167480    7.8167480    7.8167480    7.8252487
:EIG00106:       7.8252487    7.8252487    7.8584973    7.8584973    7.8584973
:EIG00111:       7.9641926    7.9641926
       ********************************************************

:KPT   :      NUMBER OF K-POINTS:   165
   0.0   0.0 angle (M,z), angle (M,x) deg
 
        SPIN-ORBIT EIGENVALUES:
     K=   0.00000   0.00000   0.00000            1
      MATRIX SIZE=  224   WEIGHT= 1.00
     EIGENVALUES ARE:
          -2.0669808   -2.0669808   -0.8495403   -0.8495403   -0.6337741
          -0.6337741   -0.6337741   -0.6337741    0.3088744    0.3088744
           0.5637586    0.5637586    0.5755646    0.5755646    0.5755646
           0.5755646    0.5977848    0.5977848    0.6110187    0.6110187
           0.6179522    0.6179522    0.6179522    0.6179522    0.6888533
           0.6888533    0.6888533    0.6888533    0.6989458    0.6989458
           0.8620288    0.8620288    0.8620288    0.8620288    1.2614850
           1.2614850    1.4796321    1.4796321    1.4866823    1.4866823

           1.4866823    1.4866823    1.5868320    1.5868320    2.2563942
           2.2563942    2.2563942    2.2563942    2.2684918    2.2684918
           2.2707869    2.2707869    2.3773398    2.3773398    2.3773398
           2.3773398    2.5458826    2.5458826    2.5458826    2.5458826
           2.9082741    2.9082741    3.0679695    3.0679695    3.0686316
           3.0686316    3.0686316    3.0686316    3.5038530    3.5038530
           3.5038530    3.5038530    3.7350544    3.7350544    3.7350544
           3.7350544    3.7393777    3.7393777    3.7514294    3.7514294

           3.8005502    3.8005502    3.8005502    3.8005502    3.9064995
           3.9064995    3.9065121    3.9065121    3.9065121    3.9065121
           4.1873673    4.1873673    4.1873673    4.1873673    4.1875238
           4.1875238    4.1995482    4.1995482    4.2882819    4.2882819
           4.2882819    4.2882819    4.3593329    4.3593329    4.3595719
           4.3595719    4.3595719    4.3595719    4.3892654    4.3892654
           4.3892654    4.3892654    4.3897496    4.3897496    4.4984951
           4.4984951
       ********************************************************
:GAP (global)   :    0.0    Ry =     0.0   eV (metal)
:GAP (this spin):    0.0    Ry =     0.0   eV (metal)
         Bandranges (emin - emax) and occupancy:
:BAN00004:   4   -0.886051   -0.849540  1.00000000
:BAN00005:   5   -0.698055   -0.633774  1.00000000
:BAN00006:   6   -0.698055   -0.633774  1.00000000
:BAN00007:   7   -0.674996   -0.633774  1.00000000
:BAN00008:   8   -0.674996   -0.633774  1.00000000
:BAN00009:   9    0.308874    0.538101  1.00000000
:BAN00010:  10    0.308874    0.538101  1.00000000
:BAN00011:  11    0.489297    0.570498  1.00000000
:BAN00012:  12    0.489297    0.570498  1.00000000
:BAN00013:  13    0.558558    0.579628  0.50000002
:BAN00014:  14    0.558558    0.579628  0.49999998
:BAN00015:  15    0.575565    0.582917  0.00000000
:BAN00016:  16    0.575565    0.582917  0.00000000
:BAN00017:  17    0.580254    0.603390  0.00000000
:BAN00018:  18    0.580254    0.603390  0.00000000
:BAN00019:  19    0.596223    0.611019  0.00000000
        Energy to separate low and high energystates:    0.25887


:NOE  : NUMBER OF ELECTRONS          =   13.000

:FER  : F E R M I - ENERGY(TETRAH.M.)=   0.5729875287
:GMA  : POTENTIAL AND CHARGE CUT-OFF  12.00 Ry**.5

:POS001: ATOM    1 X,Y,Z = 0.00000 0.00000 0.50000  MULT= 1  ZZ= 59.000  Pr        

       LMMAX  5
       LM=   0 0  4 0  4 4  6 0  6 4

:CHA001: TOTAL VALENCE CHARGE INSIDE SPHERE   1 =   9.9209    (RMT=  2.5000 )
:PCS001: PARTIAL CHARGES SPHERE =  1 S,P,D,F,      D-EG,D-T2G 
:QTL001: 2.0304 5.3548 0.6718 1.8636 0.0000 0.0000 0.0000 0.2384 0.4334 0.0000 0.0000 0.0000
        Q-s-low E-s-low   Q-p-low E-p-low   Q-d-low E-d-low   Q-f-low E-f-low
:EPL001:  1.9250 -2.0567    5.2772 -0.7413    0.0012 -0.7249    0.0003 -0.7249
        Q-s-hi  E-s-hi    Q-p-hi  E-p-hi    Q-d-hi  E-d-hi    Q-f-hi  E-f-hi 
:EPH001:  0.1054  0.4606    0.0775  0.5058    0.6705  0.5173    1.8633  0.5590

:CHA  : TOTAL VALENCE CHARGE INSIDE UNIT CELL =      13.000000

:SUM  : SUM OF EIGENVALUES =          -5.931810605


        1.ATOM      Pr                   14 CORE STATES
:1S 001: 1S               -3067.006424284 Ry
:2S 001: 2S                -492.758987447 Ry
:2PP001: 2P*               -465.858273011 Ry
:2P 001: 2P                -430.460732608 Ry
:3S 001: 3S                -105.848057782 Ry
:3PP001: 3P*                -94.385920975 Ry
:3P 001: 3P                 -87.378128000 Ry
:3DD001: 3D*                -67.305194208 Ry
:3D 001: 3D                 -65.793630004 Ry
:4S 001: 4S                 -20.531735261 Ry
:4PP001: 4P*                -16.239031033 Ry
:4P 001: 4P                 -14.712378383 Ry
:4DD001: 4D*                 -7.646719971 Ry
:4D 001: 4D                  -7.377575755 Ry
:CINT001 Core Integral Atom   1   45.999511

       DENSITY AT NUCLEUS
        JATOM        VALENCE       SEMI-CORE          CORE           TOTAL
:RTO001:   1      650.067239        0.000000   656823.324553   657473.391792
     
       CHARGES OF NEW CHARGE DENSITY
:NTO   : INTERSTITIAL CHARGE =     3.079131
:NPC   : PW Pseudocharge     =     7.676575
:NTO001: CHARGE SPHERE  1    =    55.920380

:NEC01: NUCLEAR AND ELECTRONIC CHARGE     59.00000    58.99951
     
       CHARGES OF OLD CHARGE DENSITY
:OTO   : INTERSTITIAL CHARGE =     2.904930
:OPC   : PW Pseudocharge     =     7.603776
:OTO001: CHARGE SPHERE  1    =    56.095070

:NEC02: NUCLEAR AND ELECTRONIC CHARGE     59.00000    59.00000
     
       CONVERGENCE TEST
:DTO001: DIFFERENCE IN SPHERE  1 =  0.2996008

:DIS  :  CHARGE DISTANCE       ( 0.2996008 for atom    1 spin 1)      0.2996008
 PW Mixed is           55
 
******************************************************
* MULTISECANT MIXING VER9 RELEASE 10.4.0              *
* Standard Mode with controls                        *
* Fixed density scale                                *
* Restart from converged density                     *
* Regularization       1.000E-04                     *
* Trust Upper Limit    5.000E+00                     *
* Max Number of Memory Steps    8                    *
******************************************************
 
:INFO : Forcing a restart
:PWTMP   1.8127E+02  1.2500E+02  2.4672E+02
:PLANE:  PW TOTAL      2.9782 DISTAN   4.05E-02  1.36E+00 %
:CHARG:  CLM/ATOM    977.1894 DISTAN   3.13E-01  3.20E-02 %
 
Step History
        DMIX         DMIXT        Red     Pred      Trust     Lambda    MagRel    MagAbs     Beta
  1   3.5000E-02   3.5000E-02 -1.00E+00  1.00E+00 -1.00E+01  1.00E+00  3.50E-02  3.50E-02  1.00E+00
  2   1.3686E-01   1.3686E-01 -1.00E+00  1.00E+00 -1.00E+01  1.00E+00  1.37E-01  3.41E-02  1.00E+00
:JACOBIANS    1.032E-03   2.921E-02
  
:NORMS:  1/Froebius, Min, Max, Used   0.4466E-02  0.4466E-02  0.6032E-01  0.4466E-02
:INFO :  Number of Memory Steps    1 Skipping    0
:PREDicted Charge, CTotal, PW Trust    7.459E-03   7.459E-03   1.001E-02
:PREDicted DMix, Beta, BLim   2.2810E-02  4.3382E-01  1.0166E+00

Eigenvalues, unscaled except for SY+YY
   #     SY Real        SY Imag          SS             YY         SY+YY Real      SY+YY Imag
   1   6.032219E-02   0.000000E+00   4.465580E-03   1.000000E+00   1.060322E+00   0.000000E+00
 
:DLIM :  Beta Active  8.000E-01
:BLIM :  VZERO Control Off
:TRUST:  Step 3.00E+00  Charge 6.82E-02 (e) CTO  2.27E-01 (e) PW  3.18E-01 (e)
:DIRM :  MEMORY  1/8  SCALE   1.000 RED  1.27 PRED  1.00 NEXT  0.35 BETA  0.80
:TRAVE:  Charge 8.04E-03 (e) CTO  8.04E-03 (e) PW  1.06E-02 (e)
:DIRP :  |MSR1|= 4.885E-03 |PRATT|= 4.045E-02 ANGLE=  44.4 DEGREES
:DIRQ :  |MSR1|= 1.419E-02 |PRATT|= 3.128E-01 ANGLE=  20.2 DEGREES
:DIRT :  |MSR1|= 1.501E-02 |PRATT|= 3.154E-01 ANGLE=  24.5 DEGREES
:MIX  :   MSR1   REGULARIZATION:  1.00E-04 GREED: 0.05474  Newton 1.00  0.0476                
     
       CHARGES OF MIXED CHARGE DENSITY
:CTO   : INTERSTITIAL CHARGE =     2.912973
:CPC   : PW Pseudocharge     =     7.616661
:CTO001: CHARGE SPHERE  1    =    56.087027

:NEC03: NUCLEAR AND ELECTRONIC CHARGE     59.00000    59.00000

PW CHANGE     H    K    L      Current       Change    Residue
:PTO001:      0    0    0  4.26790287E-02  8.482E-05  1.008E-03
:PTO002:     -1   -1   -1 -1.33058809E-01 -1.955E-04 -1.920E-04
:PTO003:      0    0   -2  7.87837318E-02  1.069E-04 -4.023E-05
:PTO004:      0   -2   -2  6.77418563E-02  1.048E-04  6.566E-05
:PTO005:     -1   -1   -3 -6.36648957E-02 -6.796E-05  3.765E-04
:PTO006:     -2   -2   -2  1.61433700E-02  1.644E-05 -9.428E-05
:PTO007:      0    0   -4  2.61858899E-03 -7.513E-06 -1.297E-04
:PTO008:     -1   -3   -3 -1.45528608E-03  2.210E-05  2.346E-04
:PTO009:      0   -2   -4 -1.35728261E-03 -2.930E-05 -3.101E-04
:PTO010:     -2   -2   -4 -6.71869223E-03 -2.602E-05 -1.657E-04
:PTO011:     -3   -3   -3  2.68038279E-03  6.275E-06  1.197E-05
:PTO012:     -1   -1   -5  7.73420324E-03  2.272E-05  2.032E-04

:ENE  : ********** TOTAL ENERGY IN Ry =       -18472.11428605

 Flat Integration
 New Mode for Coulomb Integral
 Consistent 3/8+Simpson combinations
 Extension of core to zero
 LDM version in phi
 Fifth-order quadrature in outwin


            ---------
:ITE016: 16. ITERATION
            ---------

:NATO :    1 INDEPENDENT AND    1 TOTAL ATOMS IN UNITCELL
       SUBSTANCE: blebleble                                                   

       LATTICE                      = F   
:POT  : POTENTIAL OPTION EX_LDA EC_LDA VX_LDA VC_LDA
:LAT  : LATTICE CONSTANTS=  9.95603  9.95603  9.95603    1.571    1.571    1.571
:VOL  : UNIT CELL VOLUME =     246.71680
       MODE OF CALCULATION IS       = RELA
       NON-SPINPOLARIZED CALCULATION
:IFFT  : FFT-parameters:   80   80   80 Factor: 2.00


   CONVERGENCE PARAMETER FOR PSEUDOCHARGE: NCON=  9
   MAXIMAL VALUE OF RMT(JATOM)*ABSK(NKK) : RK  =29.93539


:VKCOUL :  VK-COUL convergence: 0.264E-06
       ATOMNUMBER=  1 Pr         VCOUL-ZERO =  0.22116E+00
:FIT001: LUSE= 13 SIGMA OF V-XC FIT FOR ATOM  1  0.4742474E-04
:FIT001: LUSE= 13 SIGMA OF V-XC FIT FOR ATOM  1  0.4742474E-04
:DEN  : DENSITY INTEGRAL  =         -7071.01172359   (Ry)
       ELS_POTENTIAL_AT Z=0 and Z=0.5:  -2.46491  -2.46491
       ELS_POTENTIAL_AT Y=0 and Y=0.5:   0.00000   0.00000
:VZERO:v0,v0c,v0x  -3.43106  -2.46491  -0.96615 v5,v5c,v5x  -3.43106  -2.46491  -0.96615
:VZERY:v0,v0c,v0x  -0.70441   0.00000  -0.70441 v5,v5c,v5x  -0.70441   0.00000  -0.70441
:VZERX:v0,v0c,v0x  -0.70441   0.00000  -0.70441 v5,v5c,v5x  -0.70441   0.00000  -0.70441
:LMAX-WF:   10   Non-Spherical LMAX:   4

          ATOMIC SPHERE DEPENDENT PARAMETERS FOR ATOM  Pr        
:e__0001: OVERALL ENERGY PARAMETER IS    0.3669
          OVERALL BASIS SET ON ATOM IS LAPW
:E0_0001: E( 0)=    0.3669
             APW+lo
:E0_0001: E( 0)=   -2.1123   E(BOTTOM)=   -2.494   E(TOP)=   -1.731  4  5   174
             LOCAL ORBITAL
:E1_0001: E( 1)=    0.7669
             APW+lo
:E1_0001: E( 1)=   -0.7248   E(BOTTOM)=   -1.372   E(TOP)=   -0.078  3  4   171
             LOCAL ORBITAL
:E3_0001: E( 3)=    0.5613   E(BOTTOM)=    0.419   E(TOP)=    0.704  0  1   117
             APW+lo
:E2_0001: E( 2)=    0.3669   E(BOTTOM)=    0.203   E(TOP)= -200.000  2 -1    93
             APW+lo

       K=   0.00000   0.00000   0.00000            1
:RKM  : MATRIX SIZE   189LOs:  20  RKM= 8.20  WEIGHT= 1.00  PGR:    
       EIGENVALUES ARE:
:EIG00001:      -2.0726553   -0.7070261   -0.7070261   -0.7070261    0.3089666
:EIG00006:       0.5584247    0.5760192    0.5760192    0.5760192    0.6001656
:EIG00011:       0.6001656    0.6001656    0.6914937    0.6914937    0.6914937
:EIG00016:       0.8599287    0.8599287    1.2604798    1.4841473    1.4841473
:EIG00021:       1.4841473    1.5879541    2.2593640    2.2593640    2.2593640
:EIG00026:       2.3393146    2.3393146    2.3393146    2.5443516    2.5443516
:EIG00031:       2.9077031    3.0683264    3.0683264    3.0683264    3.5025058
:EIG00036:       3.5025058    3.7354208    3.7354208    3.7354208    3.7832507
:EIG00041:       3.7832507    3.7832507    3.9061852    3.9061852    3.9061852
:EIG00046:       4.1878355    4.1878355    4.1878355    4.1990089    4.2889847
 
:EIG00051:       4.2889847    4.3600670    4.3600670    4.3600670    4.3900356
:EIG00056:       4.3900356    4.3900356    4.4994845    4.5091284    4.6348027
:EIG00061:       4.6348027    4.6348027    4.7598028    4.7598028    4.7598028
:EIG00066:       5.0163197    6.0102951    6.0157284    6.0157284    6.3536622
:EIG00071:       6.3536622    6.3536622    6.8288607    6.8288607    7.0088824
:EIG00076:       7.0088824    7.0088824    7.0616957    7.0616957    7.0616957
:EIG00081:       7.3232379    7.3232379    7.3232379    7.3461038    7.3461038
:EIG00086:       7.4138378    7.4138378    7.4138378    7.4362860    7.4362860
:EIG00091:       7.4362860    7.5365512    7.5365512    7.5365512    7.5389949
:EIG00096:       7.5389949    7.5389949    7.6308286    7.6877008    7.7913386
 
:EIG00101:       7.7913386    7.8171644    7.8171644    7.8171644    7.8261738
:EIG00106:       7.8261738    7.8261738    7.8585524    7.8585524    7.8585524
:EIG00111:       7.9634633    7.9634633
       ********************************************************

:KPT   :      NUMBER OF K-POINTS:   165
   0.0   0.0 angle (M,z), angle (M,x) deg
 
        SPIN-ORBIT EIGENVALUES:
     K=   0.00000   0.00000   0.00000            1
      MATRIX SIZE=  224   WEIGHT= 1.00
     EIGENVALUES ARE:
          -2.0726553   -2.0726553   -0.8542735   -0.8542735   -0.6380948
          -0.6380948   -0.6380948   -0.6380948    0.3089666    0.3089666
           0.5540446    0.5540446    0.5652135    0.5652135    0.5652135
           0.5652135    0.5876440    0.5876440    0.6002955    0.6002955
           0.6071896    0.6071896    0.6071896    0.6071896    0.6877262
           0.6877262    0.6877262    0.6877262    0.6978718    0.6978718
           0.8603081    0.8603081    0.8603081    0.8603081    1.2605352
           1.2605352    1.4792739    1.4792739    1.4863805    1.4863805

           1.4863805    1.4863805    1.5879541    1.5879541    2.2543815
           2.2543815    2.2543815    2.2543815    2.2672575    2.2672575
           2.2688207    2.2688207    2.3761700    2.3761700    2.3761700
           2.3761700    2.5446400    2.5446400    2.5446400    2.5446400
           2.9077031    2.9077031    3.0678970    3.0678970    3.0685541
           3.0685541    3.0685541    3.0685541    3.5024782    3.5024782
           3.5024782    3.5024782    3.7340652    3.7340652    3.7340652
           3.7340652    3.7383929    3.7383929    3.7515339    3.7515339

           3.8006021    3.8006021    3.8006021    3.8006021    3.9061767
           3.9061767    3.9061894    3.9061894    3.9061894    3.9061894
           4.1877851    4.1877851    4.1877851    4.1877851    4.1879427
           4.1879427    4.1990089    4.1990089    4.2889847    4.2889847
           4.2889847    4.2889847    4.3599034    4.3599034    4.3601406
           4.3601406    4.3601406    4.3601406    4.3898898    4.3898898
           4.3898898    4.3898898    4.3903707    4.3903707    4.4994883
           4.4994883
       ********************************************************
:GAP (global)   :    0.0    Ry =     0.0   eV (metal)
:GAP (this spin):    0.0    Ry =     0.0   eV (metal)
         Bandranges (emin - emax) and occupancy:
:BAN00004:   4   -0.890478   -0.854274  1.00000000
:BAN00005:   5   -0.701927   -0.638095  1.00000000
:BAN00006:   6   -0.701927   -0.638095  1.00000000
:BAN00007:   7   -0.679011   -0.638095  1.00000000
:BAN00008:   8   -0.679011   -0.638095  1.00000000
:BAN00009:   9    0.308967    0.533979  1.00000000
:BAN00010:  10    0.308967    0.533979  1.00000000
:BAN00011:  11    0.488805    0.562174  1.00000000
:BAN00012:  12    0.488805    0.562174  1.00000000
:BAN00013:  13    0.551416    0.569220  0.50000006
:BAN00014:  14    0.551416    0.569220  0.49999994
:BAN00015:  15    0.565213    0.574067  0.00000000
:BAN00016:  16    0.565213    0.574067  0.00000000
:BAN00017:  17    0.569744    0.593382  0.00000000
:BAN00018:  18    0.569744    0.593382  0.00000000
:BAN00019:  19    0.587251    0.600296  0.00000000
        Energy to separate low and high energystates:    0.25897


:NOE  : NUMBER OF ELECTRONS          =   13.000

:FER  : F E R M I - ENERGY(TETRAH.M.)=   0.5636514520
:GMA  : POTENTIAL AND CHARGE CUT-OFF  12.00 Ry**.5

:POS001: ATOM    1 X,Y,Z = 0.00000 0.00000 0.50000  MULT= 1  ZZ= 59.000  Pr        

       LMMAX  5
       LM=   0 0  4 0  4 4  6 0  6 4

:CHA001: TOTAL VALENCE CHARGE INSIDE SPHERE   1 =  10.0482    (RMT=  2.5000 )
:PCS001: PARTIAL CHARGES SPHERE =  1 S,P,D,F,      D-EG,D-T2G 
:QTL001: 2.0292 5.3509 0.6211 2.0467 0.0000 0.0000 0.0000 0.2226 0.3984 0.0000 0.0000 0.0000
        Q-s-low E-s-low   Q-p-low E-p-low   Q-d-low E-d-low   Q-f-low E-f-low
:EPL001:  1.9254 -2.0625    5.2812 -0.7455    0.0012 -0.7290    0.0003 -0.7290
        Q-s-hi  E-s-hi    Q-p-hi  E-p-hi    Q-d-hi  E-d-hi    Q-f-hi  E-f-hi 
:EPH001:  0.1037  0.4586    0.0697  0.4986    0.6199  0.5119    2.0464  0.5510

:CHA  : TOTAL VALENCE CHARGE INSIDE UNIT CELL =      13.000000

:SUM  : SUM OF EIGENVALUES =          -5.990286235


        1.ATOM      Pr                   14 CORE STATES
:1S 001: 1S               -3067.026587545 Ry
:2S 001: 2S                -492.779111185 Ry
:2PP001: 2P*               -465.878406039 Ry
:2P 001: 2P                -430.480861641 Ry
:3S 001: 3S                -105.867593637 Ry
:3PP001: 3P*                -94.405506086 Ry
:3P 001: 3P                 -87.397629006 Ry
:3DD001: 3D*                -67.324855835 Ry
:3D 001: 3D                 -65.813269980 Ry
:4S 001: 4S                 -20.547137773 Ry
:4PP001: 4P*                -16.254179847 Ry
:4P 001: 4P                 -14.727132544 Ry
:4DD001: 4D*                 -7.660775578 Ry
:4D 001: 4D                  -7.391496592 Ry
:CINT001 Core Integral Atom   1   45.999515

       DENSITY AT NUCLEUS
        JATOM        VALENCE       SEMI-CORE          CORE           TOTAL
:RTO001:   1      650.304975        0.000000   656824.191343   657474.496318
     
       CHARGES OF NEW CHARGE DENSITY
:NTO   : INTERSTITIAL CHARGE =     2.951835
:NPC   : PW Pseudocharge     =     7.631067
:NTO001: CHARGE SPHERE  1    =    56.047679

:NEC01: NUCLEAR AND ELECTRONIC CHARGE     59.00000    58.99951
     
       CHARGES OF OLD CHARGE DENSITY
:OTO   : INTERSTITIAL CHARGE =     2.912973
:OPC   : PW Pseudocharge     =     7.616661
:OTO001: CHARGE SPHERE  1    =    56.087027

:NEC02: NUCLEAR AND ELECTRONIC CHARGE     59.00000    59.00000
     
       CONVERGENCE TEST
:DTO001: DIFFERENCE IN SPHERE  1 =  0.0642938

:DIS  :  CHARGE DISTANCE       ( 0.0642938 for atom    1 spin 1)      0.0642938
 PW Mixed is           55
 
******************************************************
* MULTISECANT MIXING VER9 RELEASE 10.4.0              *
* Standard Mode with controls                        *
* Fixed density scale                                *
* Regularization       1.000E-04                     *
* Trust Upper Limit    5.000E+00                     *
* Max Number of Memory Steps    8                    *
******************************************************
 
:PWTMP   1.8127E+02  1.2500E+02  2.4672E+02
:PLANE:  PW TOTAL      2.9830 DISTAN   9.48E-03  3.18E-01 %
:CHARG:  CLM/ATOM    977.1882 DISTAN   1.05E-01  1.07E-02 %
 
Step History
        DMIX         DMIXT        Red     Pred      Trust     Lambda    MagRel    MagAbs     Beta
  1   3.5000E-02   3.5000E-02 -1.00E+00  1.00E+00 -1.00E+01  1.00E+00  3.50E-02  3.50E-02  1.00E+00
  2   1.3686E-01   1.3686E-01  1.27E+00  1.00E+00 -1.00E+01  1.00E+00  1.37E-01  3.41E-02  1.00E+00
  3   5.4743E-02   5.4743E-02 -1.00E+00  3.54E-01  3.00E+00  1.00E+00  4.76E-02  1.50E-02  8.00E-01
:JACOBIANS    1.903E-03   2.911E-01
  
:NORMS:  1/Froebius, Min, Max, Used   0.6890E-01  0.6647E-01  0.4915E+00  0.8170E-01
:INFO :  Number of Memory Steps    2 Skipping    0
:INFO :  SLambda=    3.0000000000  Max    3.0000000000
:PREDicted Charge, CTotal, PW Trust    1.308E-02   1.308E-02   1.563E-02
:PREDicted DMix, Beta, BLim   4.5962E-01  2.0391E+00  4.5708E-01

Eigenvalues, unscaled except for SY+YY
   #     SY Real        SY Imag          SS             YY         SY+YY Real      SY+YY Imag
   1   1.204080E-01   0.000000E+00   8.825291E-03   1.997183E+00   2.358448E+00   0.000000E+00
   2   1.403366E-03   0.000000E+00   6.685713E-04   2.817224E-03   6.985786E-03   0.000000E+00
 
:INFO :  Singular value  2.358E+00 Weight  1.000E+00 Projection  4.112E-02
:INFO :  Singular value  6.986E-03 Weight  9.992E-01 Projection -1.594E+00
:RANK :  ACTIVE   2.00/2  =  99.96 % ; YY RANK   1.99/2  =  99.75 %
 
:BLIM :  VZERO Control Off
:TRUST:  Step 1.07E+00  Charge 6.82E-02 (e) CTO  2.27E-01 (e) PW  3.18E-01 (e)
:DIRM :  MEMORY  2/8  SCALE   1.000 RED  0.33 PRED  0.35 NEXT  0.26 
:TRAVE:  Charge 6.35E-03 (e) CTO  6.35E-03 (e) PW  7.61E-03 (e)
:DIRP :  |MSR1|= 2.281E-03 |PRATT|= 9.479E-03 ANGLE=  31.9 DEGREES
:DIRQ :  |MSR1|= 4.297E-02 |PRATT|= 1.047E-01 ANGLE=  29.9 DEGREES
:DIRT :  |MSR1|= 4.303E-02 |PRATT|= 1.052E-01 ANGLE=  30.0 DEGREES
:MIX  :   MSE1   REGULARIZATION:  2.00E-04 GREED: 0.13686  Newton 1.00  0.4092                
     
       CHARGES OF MIXED CHARGE DENSITY
:CTO   : INTERSTITIAL CHARGE =     2.917626
:CPC   : PW Pseudocharge     =     7.621104
:CTO001: CHARGE SPHERE  1    =    56.082374

:NEC03: NUCLEAR AND ELECTRONIC CHARGE     59.00000    59.00000

PW CHANGE     H    K    L      Current       Change    Residue
:PTO001:      0    0    0  4.27158990E-02  3.687E-05  2.230E-04
:PTO002:     -1   -1   -1 -1.33075721E-01 -1.691E-05  3.611E-05
:PTO003:      0    0   -2  7.88203549E-02  3.662E-05  1.030E-05
:PTO004:      0   -2   -2  6.76895551E-02 -5.230E-05 -1.051E-04
:PTO005:     -1   -1   -3 -6.35847564E-02  8.014E-05  2.023E-04
:PTO006:     -2   -2   -2  1.61147468E-02 -2.862E-05 -6.391E-05
:PTO007:      0    0   -4  2.61263613E-03 -5.953E-06 -2.808E-05
:PTO008:     -1   -3   -3 -1.35579004E-03  9.950E-05  1.788E-04
:PTO009:      0   -2   -4 -1.44334115E-03 -8.606E-05 -1.724E-04
:PTO010:     -2   -2   -4 -6.76142388E-03 -4.273E-05 -7.770E-05
:PTO011:     -3   -3   -3  2.67914687E-03 -1.236E-06 -5.797E-06
:PTO012:     -1   -1   -5  7.75535737E-03  2.115E-05  6.075E-05

:ENE  : ********** TOTAL ENERGY IN Ry =       -18472.11267190

 Flat Integration
 New Mode for Coulomb Integral
 Consistent 3/8+Simpson combinations
 Extension of core to zero
 LDM version in phi
 Fifth-order quadrature in outwin


            ---------
:ITE017: 17. ITERATION
            ---------

:NATO :    1 INDEPENDENT AND    1 TOTAL ATOMS IN UNITCELL
       SUBSTANCE: blebleble                                                   

       LATTICE                      = F   
:POT  : POTENTIAL OPTION EX_LDA EC_LDA VX_LDA VC_LDA
:LAT  : LATTICE CONSTANTS=  9.95603  9.95603  9.95603    1.571    1.571    1.571
:VOL  : UNIT CELL VOLUME =     246.71680
       MODE OF CALCULATION IS       = RELA
       NON-SPINPOLARIZED CALCULATION
:IFFT  : FFT-parameters:   80   80   80 Factor: 2.00


   CONVERGENCE PARAMETER FOR PSEUDOCHARGE: NCON=  9
   MAXIMAL VALUE OF RMT(JATOM)*ABSK(NKK) : RK  =29.93539


:VKCOUL :  VK-COUL convergence: 0.248E-06
       ATOMNUMBER=  1 Pr         VCOUL-ZERO =  0.22133E+00
:FIT001: LUSE= 13 SIGMA OF V-XC FIT FOR ATOM  1  0.4457664E-04
:FIT001: LUSE= 13 SIGMA OF V-XC FIT FOR ATOM  1  0.4457664E-04
:DEN  : DENSITY INTEGRAL  =         -7070.58107553   (Ry)
       ELS_POTENTIAL_AT Z=0 and Z=0.5:  -2.46746  -2.46746
       ELS_POTENTIAL_AT Y=0 and Y=0.5:   0.00000   0.00000
:VZERO:v0,v0c,v0x  -3.43424  -2.46746  -0.96677 v5,v5c,v5x  -3.43424  -2.46746  -0.96677
:VZERY:v0,v0c,v0x  -0.70470   0.00000  -0.70470 v5,v5c,v5x  -0.70470   0.00000  -0.70470
:VZERX:v0,v0c,v0x  -0.70470   0.00000  -0.70470 v5,v5c,v5x  -0.70470   0.00000  -0.70470
:LMAX-WF:   10   Non-Spherical LMAX:   4

          ATOMIC SPHERE DEPENDENT PARAMETERS FOR ATOM  Pr        
:e__0001: OVERALL ENERGY PARAMETER IS    0.3647
          OVERALL BASIS SET ON ATOM IS LAPW
:E0_0001: E( 0)=    0.3647
             APW+lo
:E0_0001: E( 0)=   -2.1149   E(BOTTOM)=   -2.496   E(TOP)=   -1.734  4  5   174
             LOCAL ORBITAL
:E1_0001: E( 1)=    0.7647
             APW+lo
:E1_0001: E( 1)=   -0.7270   E(BOTTOM)=   -1.374   E(TOP)=   -0.080  3  4   173
             LOCAL ORBITAL
:E3_0001: E( 3)=    0.5567   E(BOTTOM)=    0.415   E(TOP)=    0.699  0  1   114
             APW+lo
:E2_0001: E( 2)=    0.3647   E(BOTTOM)=    0.202   E(TOP)= -200.000  2 -1    95
             APW+lo

       K=   0.00000   0.00000   0.00000            1
:RKM  : MATRIX SIZE   189LOs:  20  RKM= 8.20  WEIGHT= 1.00  PGR:    
       EIGENVALUES ARE:
:EIG00001:      -2.0751923   -0.7090436   -0.7090436   -0.7090436    0.3091236
:EIG00006:       0.5541759    0.5716700    0.5716700    0.5716700    0.5954865
:EIG00011:       0.5954865    0.5954865    0.6909782    0.6909782    0.6909782
:EIG00016:       0.8591836    0.8591836    1.2601336    1.4841958    1.4841958
:EIG00021:       1.4841958    1.5886802    2.2587383    2.2587383    2.2587383
:EIG00026:       2.3388230    2.3388230    2.3388230    2.5440536    2.5440536
:EIG00031:       2.9075631    3.0683417    3.0683417    3.0683417    3.5024041
:EIG00036:       3.5024041    3.7353509    3.7353509    3.7353509    3.7834329
:EIG00041:       3.7834329    3.7834329    3.9061955    3.9061955    3.9061955
:EIG00046:       4.1881738    4.1881738    4.1881738    4.1990368    4.2893556
 
:EIG00051:       4.2893556    4.3603804    4.3603804    4.3603804    4.3904207
:EIG00056:       4.3904207    4.3904207    4.5000019    4.5092160    4.6353800
:EIG00061:       4.6353800    4.6353800    4.7602834    4.7602834    4.7602834
:EIG00066:       5.0168098    6.0105297    6.0159622    6.0159622    6.3539147
:EIG00071:       6.3539147    6.3539147    6.8286456    6.8286456    7.0087593
:EIG00076:       7.0087593    7.0087593    7.0613999    7.0613999    7.0613999
:EIG00081:       7.3234972    7.3234972    7.3234972    7.3463799    7.3463799
:EIG00086:       7.4140449    7.4140449    7.4140449    7.4365062    7.4365062
:EIG00091:       7.4365062    7.5367743    7.5367743    7.5367743    7.5392235
:EIG00096:       7.5392235    7.5392235    7.6313407    7.6879316    7.7917215
 
:EIG00101:       7.7917215    7.8176247    7.8176247    7.8176247    7.8267445
:EIG00106:       7.8267445    7.8267445    7.8590283    7.8590283    7.8590283
:EIG00111:       7.9639007    7.9639007
       ********************************************************

:KPT   :      NUMBER OF K-POINTS:   165
   0.0   0.0 angle (M,z), angle (M,x) deg
 
        SPIN-ORBIT EIGENVALUES:
     K=   0.00000   0.00000   0.00000            1
      MATRIX SIZE=  224   WEIGHT= 1.00
     EIGENVALUES ARE:
          -2.0751923   -2.0751923   -0.8564100   -0.8564100   -0.6400542
          -0.6400542   -0.6400542   -0.6400542    0.3091236    0.3091236
           0.5497343    0.5497343    0.5607964    0.5607964    0.5607964
           0.5607964    0.5833237    0.5833237    0.5956732    0.5956732
           0.6025672    0.6025672    0.6025672    0.6025672    0.6872019
           0.6872019    0.6872019    0.6872019    0.6973690    0.6973690
           0.8595652    0.8595652    0.8595652    0.8595652    1.2601880
           1.2601880    1.4793067    1.4793067    1.4864360    1.4864360

           1.4864360    1.4864360    1.5886802    1.5886802    2.2537571
           2.2537571    2.2537571    2.2537571    2.2667569    2.2667569
           2.2681936    2.2681936    2.3756860    2.3756860    2.3756860
           2.3756860    2.5443418    2.5443418    2.5443418    2.5443418
           2.9075631    2.9075631    3.0679136    3.0679136    3.0685687
           3.0685687    3.0685687    3.0685687    3.5023767    3.5023767
           3.5023767    3.5023767    3.7339971    3.7339971    3.7339971
           3.7339971    3.7383186    3.7383186    3.7517440    3.7517440

           3.8007690    3.8007690    3.8007690    3.8007690    3.9061871
           3.9061871    3.9061997    3.9061997    3.9061997    3.9061997
           4.1881233    4.1881233    4.1881233    4.1881233    4.1882813
           4.1882813    4.1990368    4.1990368    4.2893556    4.2893556
           4.2893556    4.2893556    4.3602172    4.3602172    4.3604538
           4.3604538    4.3604538    4.3604538    4.3902753    4.3902753
           4.3902753    4.3902753    4.3907549    4.3907549
       ********************************************************
:GAP (global)   :    0.0    Ry =     0.0   eV (metal)
:GAP (this spin):    0.0    Ry =     0.0   eV (metal)
         Bandranges (emin - emax) and occupancy:
:BAN00004:   4   -0.892477   -0.856410  1.00000000
:BAN00005:   5   -0.703683   -0.640054  1.00000000
:BAN00006:   6   -0.703683   -0.640054  1.00000000
:BAN00007:   7   -0.680831   -0.640054  1.00000000
:BAN00008:   8   -0.680831   -0.640054  1.00000000
:BAN00009:   9    0.309124    0.532059  1.00000000
:BAN00010:  10    0.309124    0.532059  1.00000000
:BAN00011:  11    0.488584    0.558156  1.00000000
:BAN00012:  12    0.488584    0.558156  1.00000000
:BAN00013:  13    0.548231    0.564748  0.50000006
:BAN00014:  14    0.548231    0.564748  0.49999994
:BAN00015:  15    0.560796    0.570230  0.00000000
:BAN00016:  16    0.560796    0.570230  0.00000000
:BAN00017:  17    0.565243    0.588986  0.00000000
:BAN00018:  18    0.565243    0.588986  0.00000000
:BAN00019:  19    0.583334    0.595673  0.00000000
        Energy to separate low and high energystates:    0.25912


:NOE  : NUMBER OF ELECTRONS          =   13.000

:FER  : F E R M I - ENERGY(TETRAH.M.)=   0.5596062704
:GMA  : POTENTIAL AND CHARGE CUT-OFF  12.00 Ry**.5

:POS001: ATOM    1 X,Y,Z = 0.00000 0.00000 0.50000  MULT= 1  ZZ= 59.000  Pr        

       LMMAX  5
       LM=   0 0  4 0  4 4  6 0  6 4

:CHA001: TOTAL VALENCE CHARGE INSIDE SPHERE   1 =  10.1054    (RMT=  2.5000 )
:PCS001: PARTIAL CHARGES SPHERE =  1 S,P,D,F,      D-EG,D-T2G 
:QTL001: 2.0286 5.3494 0.5985 2.1287 0.0000 0.0000 0.0000 0.2157 0.3827 0.0000 0.0000 0.0000
        Q-s-low E-s-low   Q-p-low E-p-low   Q-d-low E-d-low   Q-f-low E-f-low
:EPL001:  1.9256 -2.0651    5.2830 -0.7474    0.0012 -0.7308    0.0003 -0.7308
        Q-s-hi  E-s-hi    Q-p-hi  E-p-hi    Q-d-hi  E-d-hi    Q-f-hi  E-f-hi 
:EPH001:  0.1030  0.4577    0.0663  0.4954    0.5973  0.5095    2.1283  0.5474

:CHA  : TOTAL VALENCE CHARGE INSIDE UNIT CELL =      13.000000

:SUM  : SUM OF EIGENVALUES =          -6.016635640


        1.ATOM      Pr                   14 CORE STATES
:1S 001: 1S               -3067.038775867 Ry
:2S 001: 2S                -492.790466884 Ry
:2PP001: 2P*               -465.889943775 Ry
:2P 001: 2P                -430.492330854 Ry
:3S 001: 3S                -105.877201013 Ry
:3PP001: 3P*                -94.415215519 Ry
:3P 001: 3P                 -87.407223403 Ry
:3DD001: 3D*                -67.334731015 Ry
:3D 001: 3D                 -65.823107598 Ry
:4S 001: 4S                 -20.553842492 Ry
:4PP001: 4P*                -16.260773016 Ry
:4P 001: 4P                 -14.733527970 Ry
:4DD001: 4D*                 -7.666866866 Ry
:4D 001: 4D                  -7.397523454 Ry
:CINT001 Core Integral Atom   1   45.999517

       DENSITY AT NUCLEUS
        JATOM        VALENCE       SEMI-CORE          CORE           TOTAL
:RTO001:   1      650.376175        0.000000   656824.923476   657475.299651
     
       CHARGES OF NEW CHARGE DENSITY
:NTO   : INTERSTITIAL CHARGE =     2.894629
:NPC   : PW Pseudocharge     =     7.611091
:NTO001: CHARGE SPHERE  1    =    56.104887

:NEC01: NUCLEAR AND ELECTRONIC CHARGE     59.00000    58.99952
     
       CHARGES OF OLD CHARGE DENSITY
:OTO   : INTERSTITIAL CHARGE =     2.917626
:OPC   : PW Pseudocharge     =     7.621104
:OTO001: CHARGE SPHERE  1    =    56.082374

:NEC02: NUCLEAR AND ELECTRONIC CHARGE     59.00000    59.00000
     
       CONVERGENCE TEST
:DTO001: DIFFERENCE IN SPHERE  1 =  0.0423235

:DIS  :  CHARGE DISTANCE       ( 0.0423235 for atom    1 spin 1)      0.0423235
 PW Mixed is           55
 
******************************************************
* MULTISECANT MIXING VER9 RELEASE 10.4.0              *
* Standard Mode with controls                        *
* Fixed density scale                                *
* Regularization       1.000E-04                     *
* Trust Upper Limit    5.000E+00                     *
* Max Number of Memory Steps    8                    *
******************************************************
 
:PWTMP   1.8127E+02  1.2500E+02  2.4672E+02
:PLANE:  PW TOTAL      2.9840 DISTAN   5.30E-03  1.78E-01 %
:CHARG:  CLM/ATOM    977.1847 DISTAN   5.82E-02  5.96E-03 %
 
Step History
        DMIX         DMIXT        Red     Pred      Trust     Lambda    MagRel    MagAbs     Beta
  1   3.5000E-02   3.5000E-02 -1.00E+00  1.00E+00 -1.00E+01  1.00E+00  3.50E-02  3.50E-02  1.00E+00
  2   1.3686E-01   1.3686E-01  1.27E+00  1.00E+00 -1.00E+01  1.00E+00  1.37E-01  3.41E-02  1.00E+00
  3   5.4743E-02   5.4743E-02  3.33E-01  3.54E-01  3.00E+00  3.00E+00  4.76E-02  1.50E-02  8.00E-01
  4   1.3686E-01   1.3686E-01 -1.00E+00  2.63E-01  1.07E+00  1.00E+00  4.09E-01  4.30E-02  1.00E+00
:JACOBIANS    5.257E-03   6.582E-01
  
:NORMS:  1/Froebius, Min, Max, Used   0.2831E+00  0.2678E+00  0.8946E+00  0.2891E+00
:INFO :  Number of Memory Steps    3 Skipping    0
:INFO :  SLambda=    3.0000000000  Max    3.0000000000
:PREDicted Charge, CTotal, PW Trust    4.431E-03   4.431E-03   3.089E-03
:PREDicted DMix, Beta, BLim   1.7337E-01  1.7443E+00  1.0300E+00

Eigenvalues, unscaled except for SY+YY
   #     SY Real        SY Imag          SS             YY         SY+YY Real      SY+YY Imag
   1   2.858528E-05   0.000000E+00   2.307637E-01   2.761381E+00   3.304622E+00   0.000000E+00
   2   1.417865E-01   0.000000E+00   9.626279E-03   2.383361E-01   9.008054E-01   0.000000E+00
   3   2.601133E-01   0.000000E+00   2.982761E-06   2.828935E-04   3.579311E-04   0.000000E+00
 
:INFO :  Singular value  3.305E+00 Weight  1.000E+00 Projection -1.731E-02
:INFO :  Singular value  9.011E-01 Weight  1.000E+00 Projection -8.884E-02
:INFO :  Singular value  3.578E-04 Weight  6.267E-01 Projection -3.476E-01
:RANK :  ACTIVE   2.63/3  =  87.56 % ; YY RANK   2.51/3  =  83.74 %
 
:BLIM :  VZERO Control Off
:TRUST:  Step 1.53E+00  Charge 6.82E-02 (e) CTO  2.27E-01 (e) PW  3.18E-01 (e)
:DIRM :  MEMORY  3/8  SCALE   1.000 RED  0.56 PRED  0.26 NEXT  0.12 
:TRAVE:  Charge 3.31E-03 (e) CTO  3.31E-03 (e) PW  4.46E-03 (e)
:DIRP :  |MSR1|= 1.848E-03 |PRATT|= 5.305E-03 ANGLE=  64.5 DEGREES
:DIRQ :  |MSR1|= 3.227E-02 |PRATT|= 5.822E-02 ANGLE=  42.8 DEGREES
:DIRT :  |MSR1|= 3.232E-02 |PRATT|= 5.846E-02 ANGLE=  43.0 DEGREES
:MIX  :   MSE1   REGULARIZATION:  2.76E-04 GREED: 0.13848  Newton 1.00  0.5529                
     
       CHARGES OF MIXED CHARGE DENSITY
:CTO   : INTERSTITIAL CHARGE =     2.917359
:CPC   : PW Pseudocharge     =     7.618763
:CTO001: CHARGE SPHERE  1    =    56.082641

:NEC03: NUCLEAR AND ELECTRONIC CHARGE     59.00000    59.00000

PW CHANGE     H    K    L      Current       Change    Residue
:PTO001:      0    0    0  4.27053301E-02 -1.057E-05 -1.267E-04
:PTO002:     -1   -1   -1 -1.33003893E-01  7.183E-05  5.763E-05
:PTO003:      0    0   -2  7.88044052E-02 -1.595E-05  5.248E-05
:PTO004:      0   -2   -2  6.76078849E-02 -8.167E-05 -7.524E-05
:PTO005:     -1   -1   -3 -6.35019752E-02  8.278E-05  3.590E-06
:PTO006:     -2   -2   -2  1.60889355E-02 -2.581E-05 -6.589E-06
:PTO007:      0    0   -4  2.61177839E-03 -8.577E-07  1.820E-05
:PTO008:     -1   -3   -3 -1.29456118E-03  6.123E-05  5.774E-05
:PTO009:      0   -2   -4 -1.49353666E-03 -5.020E-05 -4.054E-05
:PTO010:     -2   -2   -4 -6.77924532E-03 -1.782E-05 -1.435E-06
:PTO011:     -3   -3   -3  2.67420676E-03 -4.940E-06 -1.380E-05
:PTO012:     -1   -1   -5  7.76170210E-03  6.345E-06 -8.731E-06

:ENE  : ********** TOTAL ENERGY IN Ry =       -18472.11265505

 Flat Integration
 New Mode for Coulomb Integral
 Consistent 3/8+Simpson combinations
 Extension of core to zero
 LDM version in phi
 Fifth-order quadrature in outwin


            ---------
:ITE018: 18. ITERATION
            ---------

:NATO :    1 INDEPENDENT AND    1 TOTAL ATOMS IN UNITCELL
       SUBSTANCE: blebleble                                                   

       LATTICE                      = F   
:POT  : POTENTIAL OPTION EX_LDA EC_LDA VX_LDA VC_LDA
:LAT  : LATTICE CONSTANTS=  9.95603  9.95603  9.95603    1.571    1.571    1.571
:VOL  : UNIT CELL VOLUME =     246.71680
       MODE OF CALCULATION IS       = RELA
       NON-SPINPOLARIZED CALCULATION
:IFFT  : FFT-parameters:   80   80   80 Factor: 2.00


   CONVERGENCE PARAMETER FOR PSEUDOCHARGE: NCON=  9
   MAXIMAL VALUE OF RMT(JATOM)*ABSK(NKK) : RK  =29.93539


:VKCOUL :  VK-COUL convergence: 0.236E-06
       ATOMNUMBER=  1 Pr         VCOUL-ZERO =  0.22130E+00
:FIT001: LUSE= 13 SIGMA OF V-XC FIT FOR ATOM  1  0.4228402E-04
:FIT001: LUSE= 13 SIGMA OF V-XC FIT FOR ATOM  1  0.4228402E-04
:DEN  : DENSITY INTEGRAL  =         -7070.67318755   (Ry)
       ELS_POTENTIAL_AT Z=0 and Z=0.5:  -2.46675  -2.46675
       ELS_POTENTIAL_AT Y=0 and Y=0.5:   0.00000   0.00000
:VZERO:v0,v0c,v0x  -3.43379  -2.46675  -0.96704 v5,v5c,v5x  -3.43379  -2.46675  -0.96704
:VZERY:v0,v0c,v0x  -0.70468   0.00000  -0.70468 v5,v5c,v5x  -0.70468   0.00000  -0.70468
:VZERX:v0,v0c,v0x  -0.70468   0.00000  -0.70468 v5,v5c,v5x  -0.70468   0.00000  -0.70468
:LMAX-WF:   10   Non-Spherical LMAX:   4

          ATOMIC SPHERE DEPENDENT PARAMETERS FOR ATOM  Pr        
:e__0001: OVERALL ENERGY PARAMETER IS    0.3613
          OVERALL BASIS SET ON ATOM IS LAPW
:E0_0001: E( 0)=    0.3613
             APW+lo
:E0_0001: E( 0)=   -2.1141   E(BOTTOM)=   -2.495   E(TOP)=   -1.733  4  5   168
             LOCAL ORBITAL
:E1_0001: E( 1)=    0.7613
             APW+lo
:E1_0001: E( 1)=   -0.7263   E(BOTTOM)=   -1.373   E(TOP)=   -0.080  3  4   170
             LOCAL ORBITAL
:E3_0001: E( 3)=    0.5582   E(BOTTOM)=    0.416   E(TOP)=    0.700  0  1   117
             APW+lo
:E2_0001: E( 2)=    0.3613   E(BOTTOM)=    0.202   E(TOP)= -200.000  2 -1    89
             APW+lo

       K=   0.00000   0.00000   0.00000            1
:RKM  : MATRIX SIZE   189LOs:  20  RKM= 8.20  WEIGHT= 1.00  PGR:    
       EIGENVALUES ARE:
:EIG00001:      -2.0744381   -0.7084703   -0.7084703   -0.7084703    0.3092030
:EIG00006:       0.5555149    0.5731873    0.5731873    0.5731873    0.5970859
:EIG00011:       0.5970859    0.5970859    0.6911171    0.6911171    0.6911171
:EIG00016:       0.8594295    0.8594295    1.2603103    1.4843758    1.4843758
:EIG00021:       1.4843758    1.5887078    2.2590948    2.2590948    2.2590948
:EIG00026:       2.3390166    2.3390166    2.3390166    2.5443059    2.5443059
:EIG00031:       2.9077160    3.0683894    3.0683894    3.0683894    3.5027674
:EIG00036:       3.5027674    3.7355923    3.7355923    3.7355923    3.7835326
:EIG00041:       3.7835326    3.7835326    3.9062915    3.9062915    3.9062915
:EIG00046:       4.1881976    4.1881976    4.1881976    4.1992566    4.2893041
 
:EIG00051:       4.2893041    4.3603467    4.3603467    4.3603467    4.3904152
:EIG00056:       4.3904152    4.3904152    4.4999294    4.5093364    4.6353853
:EIG00061:       4.6353853    4.6353853    4.7602709    4.7602709    4.7602709
:EIG00066:       5.0167491    6.0107614    6.0162539    6.0162539    6.3539928
:EIG00071:       6.3539928    6.3539928    6.8294717    6.8294717    7.0094561
:EIG00076:       7.0094561    7.0094561    7.0617041    7.0617041    7.0617041
:EIG00081:       7.3236637    7.3236637    7.3236637    7.3464036    7.3464036
:EIG00086:       7.4146708    7.4146708    7.4146708    7.4365957    7.4365957
:EIG00091:       7.4365957    7.5370465    7.5370465    7.5370465    7.5393416
:EIG00096:       7.5393416    7.5393416    7.6315587    7.6879341    7.7919385
 
:EIG00101:       7.7919385    7.8177099    7.8177099    7.8177099    7.8267386
:EIG00106:       7.8267386    7.8267386    7.8592026    7.8592026    7.8592026
:EIG00111:       7.9642479    7.9642479
       ********************************************************

:KPT   :      NUMBER OF K-POINTS:   165
   0.0   0.0 angle (M,z), angle (M,x) deg
 
        SPIN-ORBIT EIGENVALUES:
     K=   0.00000   0.00000   0.00000            1
      MATRIX SIZE=  224   WEIGHT= 1.00
     EIGENVALUES ARE:
          -2.0744381   -2.0744381   -0.8557963   -0.8557963   -0.6394996
          -0.6394996   -0.6394996   -0.6394996    0.3092030    0.3092030
           0.5511046    0.5511046    0.5623327    0.5623327    0.5623327
           0.5623327    0.5848318    0.5848318    0.5972427    0.5972427
           0.6041511    0.6041511    0.6041511    0.6041511    0.6873439
           0.6873439    0.6873439    0.6873439    0.6975040    0.6975040
           0.8598104    0.8598104    0.8598104    0.8598104    1.2603650
           1.2603650    1.4794924    1.4794924    1.4866133    1.4866133

           1.4866133    1.4866133    1.5887078    1.5887078    2.2541178
           2.2541178    2.2541178    2.2541178    2.2669565    2.2669565
           2.2685425    2.2685425    2.3758765    2.3758765    2.3758765
           2.3758765    2.5445936    2.5445936    2.5445936    2.5445936
           2.9077160    2.9077160    3.0679608    3.0679608    3.0686168
           3.0686168    3.0686168    3.0686168    3.5027399    3.5027399
           3.5027399    3.5027399    3.7342394    3.7342394    3.7342394
           3.7342394    3.7385580    3.7385580    3.7518430    3.7518430

           3.8008693    3.8008693    3.8008693    3.8008693    3.9062831
           3.9062831    3.9062957    3.9062957    3.9062957    3.9062957
           4.1881471    4.1881471    4.1881471    4.1881471    4.1883050
           4.1883050    4.1992566    4.1992566    4.2893041    4.2893041
           4.2893041    4.2893041    4.3601834    4.3601834    4.3604202
           4.3604202    4.3604202    4.3604202    4.3902697    4.3902697
           4.3902697    4.3902697    4.3907498    4.3907498    4.4999332
           4.4999332
       ********************************************************
:GAP (global)   :    0.0    Ry =     0.0   eV (metal)
:GAP (this spin):    0.0    Ry =     0.0   eV (metal)
         Bandranges (emin - emax) and occupancy:
:BAN00004:   4   -0.891902   -0.855796  1.00000000
:BAN00005:   5   -0.703184   -0.639500  1.00000000
:BAN00006:   6   -0.703184   -0.639500  1.00000000
:BAN00007:   7   -0.680314   -0.639500  1.00000000
:BAN00008:   8   -0.680314   -0.639500  1.00000000
:BAN00009:   9    0.309203    0.532801  1.00000000
:BAN00010:  10    0.309203    0.532801  1.00000000
:BAN00011:  11    0.488660    0.559540  1.00000000
:BAN00012:  12    0.488660    0.559540  1.00000000
:BAN00013:  13    0.549357    0.566282  0.50000017
:BAN00014:  14    0.549357    0.566282  0.49999983
:BAN00015:  15    0.562333    0.571551  0.00000000
:BAN00016:  16    0.562333    0.571551  0.00000000
:BAN00017:  17    0.566785    0.590431  0.00000000
:BAN00018:  18    0.566785    0.590431  0.00000000
:BAN00019:  19    0.584664    0.597243  0.00000000
        Energy to separate low and high energystates:    0.25920


:NOE  : NUMBER OF ELECTRONS          =   13.000

:FER  : F E R M I - ENERGY(TETRAH.M.)=   0.5609944516
:GMA  : POTENTIAL AND CHARGE CUT-OFF  12.00 Ry**.5

:POS001: ATOM    1 X,Y,Z = 0.00000 0.00000 0.50000  MULT= 1  ZZ= 59.000  Pr        

       LMMAX  5
       LM=   0 0  4 0  4 4  6 0  6 4

:CHA001: TOTAL VALENCE CHARGE INSIDE SPHERE   1 =  10.0869    (RMT=  2.5000 )
:PCS001: PARTIAL CHARGES SPHERE =  1 S,P,D,F,      D-EG,D-T2G 
:QTL001: 2.0288 5.3499 0.6061 2.1018 0.0000 0.0000 0.0000 0.2180 0.3881 0.0000 0.0000 0.0000
        Q-s-low E-s-low   Q-p-low E-p-low   Q-d-low E-d-low   Q-f-low E-f-low
:EPL001:  1.9256 -2.0643    5.2825 -0.7469    0.0012 -0.7303    0.0003 -0.7303
        Q-s-hi  E-s-hi    Q-p-hi  E-p-hi    Q-d-hi  E-d-hi    Q-f-hi  E-f-hi 
:EPH001:  0.1032  0.4581    0.0674  0.4966    0.6049  0.5103    2.1014  0.5486

:CHA  : TOTAL VALENCE CHARGE INSIDE UNIT CELL =      13.000000

:SUM  : SUM OF EIGENVALUES =          -6.008273878


        1.ATOM      Pr                   14 CORE STATES
:1S 001: 1S               -3067.038118831 Ry
:2S 001: 2S                -492.789286472 Ry
:2PP001: 2P*               -465.888877721 Ry
:2P 001: 2P                -430.491221955 Ry
:3S 001: 3S                -105.875127023 Ry
:3PP001: 3P*                -94.413187377 Ry
:3P 001: 3P                 -87.405155782 Ry
:3DD001: 3D*                -67.332779231 Ry
:3D 001: 3D                 -65.821140446 Ry
:4S 001: 4S                 -20.551635771 Ry
:4PP001: 4P*                -16.258602417 Ry
:4P 001: 4P                 -14.731397475 Ry
:4DD001: 4D*                 -7.664837942 Ry
:4D 001: 4D                  -7.395510299 Ry
:CINT001 Core Integral Atom   1   45.999516

       DENSITY AT NUCLEUS
        JATOM        VALENCE       SEMI-CORE          CORE           TOTAL
:RTO001:   1      650.343725        0.000000   656825.030469   657475.374194
     
       CHARGES OF NEW CHARGE DENSITY
:NTO   : INTERSTITIAL CHARGE =     2.913105
:NPC   : PW Pseudocharge     =     7.618014
:NTO001: CHARGE SPHERE  1    =    56.086410

:NEC01: NUCLEAR AND ELECTRONIC CHARGE     59.00000    58.99952
     
       CHARGES OF OLD CHARGE DENSITY
:OTO   : INTERSTITIAL CHARGE =     2.917359
:OPC   : PW Pseudocharge     =     7.618763
:OTO001: CHARGE SPHERE  1    =    56.082641

:NEC02: NUCLEAR AND ELECTRONIC CHARGE     59.00000    59.00000
     
       CONVERGENCE TEST
:DTO001: DIFFERENCE IN SPHERE  1 =  0.0073624

:DIS  :  CHARGE DISTANCE       ( 0.0073624 for atom    1 spin 1)      0.0073624
 PW Mixed is           55
 
******************************************************
* MULTISECANT MIXING VER9 RELEASE 10.4.0              *
* Standard Mode with controls                        *
* Fixed density scale                                *
* Regularization       1.000E-04                     *
* Trust Upper Limit    5.000E+00                     *
* Max Number of Memory Steps    8                    *
******************************************************
 
:PWTMP   1.8127E+02  1.2500E+02  2.4672E+02
:PLANE:  PW TOTAL      2.9826 DISTAN   1.02E-03  3.43E-02 %
:CHARG:  CLM/ATOM    977.1830 DISTAN   1.27E-02  1.30E-03 %
 
Step History
        DMIX         DMIXT        Red     Pred      Trust     Lambda    MagRel    MagAbs     Beta
  1   3.5000E-02   3.5000E-02 -1.00E+00  1.00E+00 -1.00E+01  1.00E+00  3.50E-02  3.50E-02  1.00E+00
  2   1.3686E-01   1.3686E-01  1.27E+00  1.00E+00 -1.00E+01  1.00E+00  1.37E-01  3.41E-02  1.00E+00
  3   5.4743E-02   5.4743E-02  3.33E-01  3.54E-01  3.00E+00  3.00E+00  4.76E-02  1.50E-02  8.00E-01
  4   1.3686E-01   1.3686E-01  5.56E-01  2.63E-01  1.07E+00  3.00E+00  4.09E-01  4.30E-02  1.00E+00
  5   1.3848E-01   1.3848E-01 -1.00E+00  1.16E-01  1.53E+00  1.00E+00  5.53E-01  3.23E-02  1.00E+00
:JACOBIANS    6.906E-03   9.995E-01
  
:NORMS:  1/Froebius, Min, Max, Used   0.5358E+00  0.3779E+00  0.9647E+00  0.6385E+00
:INFO :  Number of Memory Steps    4 Skipping    0
:INFO :  SLambda=    1.9200389547  Max    1.9200389547
:PREDicted Charge, CTotal, PW Trust    2.488E-04   2.488E-04   1.027E-03
:PREDicted DMix, Beta, BLim   2.6342E-01  1.1142E+00  8.4868E-01

Eigenvalues, unscaled except for SY+YY
   #     SY Real        SY Imag          SS             YY         SY+YY Real      SY+YY Imag
   1   1.174563E+00   0.000000E+00   1.137763E+00   2.791063E+00   3.566462E+00   0.000000E+00
   2   1.642104E-01   0.000000E+00   1.039982E-02   1.208156E+00   3.003262E+00   0.000000E+00
   3   1.284799E-05   0.000000E+00   1.262955E-04   6.761622E-04   1.289368E-04   0.000000E+00
   4   2.542923E-04   0.000000E+00   1.315847E-06   1.048011E-04   1.158169E-03   0.000000E+00
 
:INFO :  Singular value  3.567E+00 Weight  1.000E+00 Projection -6.895E-03
:INFO :  Singular value  3.003E+00 Weight  1.000E+00 Projection  1.288E-03
:INFO :  Singular value  1.194E-03 Weight  9.482E-01 Projection  3.150E-01
:INFO :  Singular value  1.251E-04 Weight  1.673E-01 Projection -1.028E-02
:RANK :  ACTIVE   3.12/4  =  77.89 % ; YY RANK   2.98/4  =  74.45 %
 
:BLIM :  VZERO Control Off
:TRUST:  Step 2.04E+00  Charge 5.45E-02 (e) CTO  1.82E-01 (e) PW  2.55E-01 (e)
:DIRM :  MEMORY  4/8  SCALE   1.000 RED  0.22 PRED  0.12 NEXT  0.15 
:TRAVE:  Charge 1.67E-03 (e) CTO  1.67E-03 (e) PW  2.41E-03 (e)
:DIRP :  |MSR1|= 3.204E-04 |PRATT|= 1.022E-03 ANGLE=  53.6 DEGREES
:DIRQ :  |MSR1|= 5.126E-03 |PRATT|= 1.272E-02 ANGLE=  32.6 DEGREES
:DIRT :  |MSR1|= 5.136E-03 |PRATT|= 1.277E-02 ANGLE=  32.8 DEGREES
:MIX  :   MSE1   REGULARIZATION:  2.79E-04 GREED: 0.19223  Newton 1.00  0.4023                
     
       CHARGES OF MIXED CHARGE DENSITY
:CTO   : INTERSTITIAL CHARGE =     2.917325
:CPC   : PW Pseudocharge     =     7.619500
:CTO001: CHARGE SPHERE  1    =    56.082675

:NEC03: NUCLEAR AND ELECTRONIC CHARGE     59.00000    59.00000

PW CHANGE     H    K    L      Current       Change    Residue
:PTO001:      0    0    0  4.27081802E-02  2.850E-06 -1.318E-05
:PTO002:     -1   -1   -1 -1.33015578E-01 -1.169E-05 -2.996E-05
:PTO003:      0    0   -2  7.88174546E-02  1.305E-05  3.939E-05
:PTO004:      0   -2   -2  6.76121630E-02  4.278E-06  1.682E-05
:PTO005:     -1   -1   -3 -6.35087818E-02 -6.807E-06 -3.576E-05
:PTO006:     -2   -2   -2  1.60923009E-02  3.365E-06  1.314E-05
:PTO007:      0    0   -4  2.61115831E-03 -6.201E-07  2.139E-06
:PTO008:     -1   -3   -3 -1.29114565E-03  3.416E-06 -4.053E-07
:PTO009:      0   -2   -4 -1.50071805E-03 -7.181E-06 -8.015E-06
:PTO010:     -2   -2   -4 -6.77877683E-03  4.685E-07  6.535E-06
:PTO011:     -3   -3   -3  2.67168311E-03 -2.524E-06 -6.787E-06
:PTO012:     -1   -1   -5  7.76606858E-03  4.366E-06  5.772E-06

:ENE  : ********** TOTAL ENERGY IN Ry =       -18472.11260666

 Flat Integration
 New Mode for Coulomb Integral
 Consistent 3/8+Simpson combinations
 Extension of core to zero
 LDM version in phi
 Fifth-order quadrature in outwin


            ---------
:ITE019: 19. ITERATION
            ---------

:NATO :    1 INDEPENDENT AND    1 TOTAL ATOMS IN UNITCELL
       SUBSTANCE: blebleble                                                   

       LATTICE                      = F   
:POT  : POTENTIAL OPTION EX_LDA EC_LDA VX_LDA VC_LDA
:LAT  : LATTICE CONSTANTS=  9.95603  9.95603  9.95603    1.571    1.571    1.571
:VOL  : UNIT CELL VOLUME =     246.71680
       MODE OF CALCULATION IS       = RELA
       NON-SPINPOLARIZED CALCULATION
:IFFT  : FFT-parameters:   80   80   80 Factor: 2.00


   CONVERGENCE PARAMETER FOR PSEUDOCHARGE: NCON=  9
   MAXIMAL VALUE OF RMT(JATOM)*ABSK(NKK) : RK  =29.93539


:VKCOUL :  VK-COUL convergence: 0.234E-06
       ATOMNUMBER=  1 Pr         VCOUL-ZERO =  0.22132E+00
:FIT001: LUSE= 13 SIGMA OF V-XC FIT FOR ATOM  1  0.4196896E-04
:FIT001: LUSE= 13 SIGMA OF V-XC FIT FOR ATOM  1  0.4196896E-04
:DEN  : DENSITY INTEGRAL  =         -7070.69853025   (Ry)
       ELS_POTENTIAL_AT Z=0 and Z=0.5:  -2.46683  -2.46683
       ELS_POTENTIAL_AT Y=0 and Y=0.5:   0.00000   0.00000
:VZERO:v0,v0c,v0x  -3.43395  -2.46683  -0.96712 v5,v5c,v5x  -3.43395  -2.46683  -0.96712
:VZERY:v0,v0c,v0x  -0.70469   0.00000  -0.70469 v5,v5c,v5x  -0.70469   0.00000  -0.70469
:VZERX:v0,v0c,v0x  -0.70469   0.00000  -0.70469 v5,v5c,v5x  -0.70469   0.00000  -0.70469
:LMAX-WF:   10   Non-Spherical LMAX:   4

          ATOMIC SPHERE DEPENDENT PARAMETERS FOR ATOM  Pr        
:e__0001: OVERALL ENERGY PARAMETER IS    0.3611
          OVERALL BASIS SET ON ATOM IS LAPW
:E0_0001: E( 0)=    0.3611
             APW+lo
:E0_0001: E( 0)=   -2.1140   E(BOTTOM)=   -2.495   E(TOP)=   -1.733  4  5   171
             LOCAL ORBITAL
:E1_0001: E( 1)=    0.7611
             APW+lo
:E1_0001: E( 1)=   -0.7263   E(BOTTOM)=   -1.373   E(TOP)=   -0.079  3  4   166
             LOCAL ORBITAL
:E3_0001: E( 3)=    0.5584   E(BOTTOM)=    0.416   E(TOP)=    0.701  0  1   121
             APW+lo
:E2_0001: E( 2)=    0.3611   E(BOTTOM)=    0.202   E(TOP)= -200.000  2 -1    87
             APW+lo

       K=   0.00000   0.00000   0.00000            1
:RKM  : MATRIX SIZE   189LOs:  20  RKM= 8.20  WEIGHT= 1.00  PGR:    
       EIGENVALUES ARE:
:EIG00001:      -2.0743426   -0.7083926   -0.7083926   -0.7083926    0.3092330
:EIG00006:       0.5557417    0.5733462    0.5733462    0.5733462    0.5972956
:EIG00011:       0.5972956    0.5972956    0.6911583    0.6911583    0.6911583
:EIG00016:       0.8594640    0.8594640    1.2603659    1.4844127    1.4844127
:EIG00021:       1.4844127    1.5887353    2.2591572    2.2591572    2.2591572
:EIG00026:       2.3390615    2.3390615    2.3390615    2.5443415    2.5443415
:EIG00031:       2.9077537    3.0684184    3.0684184    3.0684184    3.5028163
:EIG00036:       3.5028163    3.7356378    3.7356378    3.7356378    3.7835660
:EIG00041:       3.7835660    3.7835660    3.9063162    3.9063162    3.9063162
:EIG00046:       4.1882211    4.1882211    4.1882211    4.1993026    4.2893219
 
:EIG00051:       4.2893219    4.3603641    4.3603641    4.3603641    4.3904348
:EIG00056:       4.3904348    4.3904348    4.4999466    4.5093632    4.6354063
:EIG00061:       4.6354063    4.6354063    4.7602916    4.7602916    4.7602916
:EIG00066:       5.0167714    6.0107989    6.0162971    6.0162971    6.3540189
:EIG00071:       6.3540189    6.3540189    6.8295480    6.8295480    7.0095331
:EIG00076:       7.0095331    7.0095331    7.0617524    7.0617524    7.0617524
:EIG00081:       7.3236947    7.3236947    7.3236947    7.3464256    7.3464256
:EIG00086:       7.4147432    7.4147432    7.4147432    7.4366258    7.4366258
:EIG00091:       7.4366258    7.5370847    7.5370847    7.5370847    7.5393694
:EIG00096:       7.5393694    7.5393694    7.6315954    7.6879520    7.7919742
 
:EIG00101:       7.7919742    7.8177380    7.8177380    7.8177380    7.8267574
:EIG00106:       7.8267574    7.8267574    7.8592385    7.8592385    7.8592385
:EIG00111:       7.9642960    7.9642960
       ********************************************************

:KPT   :      NUMBER OF K-POINTS:   165
   0.0   0.0 angle (M,z), angle (M,x) deg
 
        SPIN-ORBIT EIGENVALUES:
     K=   0.00000   0.00000   0.00000            1
      MATRIX SIZE=  224   WEIGHT= 1.00
     EIGENVALUES ARE:
          -2.0743426   -2.0743426   -0.8557147   -0.8557147   -0.6394237
          -0.6394237   -0.6394237   -0.6394237    0.3092330    0.3092330
           0.5513308    0.5513308    0.5624990    0.5624990    0.5624990
           0.5624990    0.5849895    0.5849895    0.5974533    0.5974533
           0.6043540    0.6043540    0.6043540    0.6043540    0.6873854
           0.6873854    0.6873854    0.6873854    0.6975449    0.6975449
           0.8598449    0.8598449    0.8598449    0.8598449    1.2604207
           1.2604207    1.4795297    1.4795297    1.4866500    1.4866500

           1.4866500    1.4866500    1.5887353    1.5887353    2.2541805
           2.2541805    2.2541805    2.2541805    2.2670019    2.2670019
           2.2686043    2.2686043    2.3759211    2.3759211    2.3759211
           2.3759211    2.5446292    2.5446292    2.5446292    2.5446292
           2.9077537    2.9077537    3.0679897    3.0679897    3.0686457
           3.0686457    3.0686457    3.0686457    3.5027889    3.5027889
           3.5027889    3.5027889    3.7342850    3.7342850    3.7342850
           3.7342850    3.7386035    3.7386035    3.7518760    3.7518760

           3.8009029    3.8009029    3.8009029    3.8009029    3.9063078
           3.9063078    3.9063205    3.9063205    3.9063205    3.9063205
           4.1881705    4.1881705    4.1881705    4.1881705    4.1883285
           4.1883285    4.1993026    4.1993026    4.2893219    4.2893219
           4.2893219    4.2893219    4.3602008    4.3602008    4.3604376
           4.3604376    4.3604376    4.3604376    4.3902892    4.3902892
           4.3902892    4.3902892    4.3907694    4.3907694    4.4999504
           4.4999504
       ********************************************************
:GAP (global)   :    0.0    Ry =     0.0   eV (metal)
:GAP (this spin):    0.0    Ry =     0.0   eV (metal)
         Bandranges (emin - emax) and occupancy:
:BAN00004:   4   -0.891824   -0.855715  1.00000000
:BAN00005:   5   -0.703113   -0.639424  1.00000000
:BAN00006:   6   -0.703113   -0.639424  1.00000000
:BAN00007:   7   -0.680242   -0.639424  1.00000000
:BAN00008:   8   -0.680242   -0.639424  1.00000000
:BAN00009:   9    0.309233    0.532890  1.00000000
:BAN00010:  10    0.309233    0.532890  1.00000000
:BAN00011:  11    0.488694    0.559726  1.00000000
:BAN00012:  12    0.488694    0.559726  1.00000000
:BAN00013:  13    0.549488    0.566471  0.50000005
:BAN00014:  14    0.549488    0.566471  0.49999994
:BAN00015:  15    0.562499    0.571719  0.00000000
:BAN00016:  16    0.562499    0.571719  0.00000000
:BAN00017:  17    0.566974    0.590643  0.00000000
:BAN00018:  18    0.566974    0.590643  0.00000000
:BAN00019:  19    0.584844    0.597453  0.00000000
        Energy to separate low and high energystates:    0.25923


:NOE  : NUMBER OF ELECTRONS          =   13.000

:FER  : F E R M I - ENERGY(TETRAH.M.)=   0.5611678489
:GMA  : POTENTIAL AND CHARGE CUT-OFF  12.00 Ry**.5

:POS001: ATOM    1 X,Y,Z = 0.00000 0.00000 0.50000  MULT= 1  ZZ= 59.000  Pr        

       LMMAX  5
       LM=   0 0  4 0  4 4  6 0  6 4

:CHA001: TOTAL VALENCE CHARGE INSIDE SPHERE   1 =  10.0848    (RMT=  2.5000 )
:PCS001: PARTIAL CHARGES SPHERE =  1 S,P,D,F,      D-EG,D-T2G 
:QTL001: 2.0288 5.3500 0.6070 2.0987 0.0000 0.0000 0.0000 0.2183 0.3887 0.0000 0.0000 0.0000
        Q-s-low E-s-low   Q-p-low E-p-low   Q-d-low E-d-low   Q-f-low E-f-low
:EPL001:  1.9256 -2.0642    5.2825 -0.7468    0.0012 -0.7302    0.0003 -0.7302
        Q-s-hi  E-s-hi    Q-p-hi  E-p-hi    Q-d-hi  E-d-hi    Q-f-hi  E-f-hi 
:EPH001:  0.1033  0.4582    0.0675  0.4967    0.6058  0.5104    2.0984  0.5488

:CHA  : TOTAL VALENCE CHARGE INSIDE UNIT CELL =      13.000000

:SUM  : SUM OF EIGENVALUES =          -6.007133072


        1.ATOM      Pr                   14 CORE STATES
:1S 001: 1S               -3067.037151095 Ry
:2S 001: 2S                -492.788469954 Ry
:2PP001: 2P*               -465.888028645 Ry
:2P 001: 2P                -430.490385071 Ry
:3S 001: 3S                -105.874569336 Ry
:3PP001: 3P*                -94.412615757 Ry
:3P 001: 3P                 -87.404598070 Ry
:3DD001: 3D*                -67.332185847 Ry
:3D 001: 3D                 -65.820551996 Ry
:4S 001: 4S                 -20.551320340 Ry
:4PP001: 4P*                -16.258293210 Ry
:4P 001: 4P                 -14.731100980 Ry
:4DD001: 4D*                 -7.664559316 Ry
:4D 001: 4D                  -7.395235727 Ry
:CINT001 Core Integral Atom   1   45.999516

       DENSITY AT NUCLEUS
        JATOM        VALENCE       SEMI-CORE          CORE           TOTAL
:RTO001:   1      650.341016        0.000000   656824.953286   657475.294302
     
       CHARGES OF NEW CHARGE DENSITY
:NTO   : INTERSTITIAL CHARGE =     2.915163
:NPC   : PW Pseudocharge     =     7.618817
:NTO001: CHARGE SPHERE  1    =    56.084353

:NEC01: NUCLEAR AND ELECTRONIC CHARGE     59.00000    58.99952
     
       CHARGES OF OLD CHARGE DENSITY
:OTO   : INTERSTITIAL CHARGE =     2.917325
:OPC   : PW Pseudocharge     =     7.619500
:OTO001: CHARGE SPHERE  1    =    56.082675

:NEC02: NUCLEAR AND ELECTRONIC CHARGE     59.00000    59.00000
     
       CONVERGENCE TEST
:DTO001: DIFFERENCE IN SPHERE  1 =  0.0031732

:DIS  :  CHARGE DISTANCE       ( 0.0031732 for atom    1 spin 1)      0.0031732
 PW Mixed is           55
 
******************************************************
* MULTISECANT MIXING VER9 RELEASE 10.4.0              *
* Standard Mode with controls                        *
* Fixed density scale                                *
* Regularization       1.000E-04                     *
* Trust Upper Limit    5.000E+00                     *
* Max Number of Memory Steps    8                    *
******************************************************
 
:PWTMP   1.8127E+02  1.2500E+02  2.4672E+02
:PLANE:  PW TOTAL      2.9829 DISTAN   5.91E-04  1.98E-02 %
:CHARG:  CLM/ATOM    977.1835 DISTAN   5.09E-03  5.21E-04 %
 
Step History
        DMIX         DMIXT        Red     Pred      Trust     Lambda    MagRel    MagAbs     Beta
  1   3.5000E-02   3.5000E-02 -1.00E+00  1.00E+00 -1.00E+01  1.00E+00  3.50E-02  3.50E-02  1.00E+00
  2   1.3686E-01   1.3686E-01  1.27E+00  1.00E+00 -1.00E+01  1.00E+00  1.37E-01  3.41E-02  1.00E+00
  3   5.4743E-02   5.4743E-02  3.33E-01  3.54E-01  3.00E+00  3.00E+00  4.76E-02  1.50E-02  8.00E-01
  4   1.3686E-01   1.3686E-01  5.56E-01  2.63E-01  1.07E+00  3.00E+00  4.09E-01  4.30E-02  1.00E+00
  5   1.3848E-01   1.3848E-01  2.18E-01  1.16E-01  1.53E+00  1.92E+00  5.53E-01  3.23E-02  1.00E+00
  6   1.9223E-01   1.9223E-01 -1.00E+00  1.52E-01  2.04E+00  1.00E+00  4.02E-01  5.14E-03  1.00E+00
:JACOBIANS    9.292E-03   1.307E+00
  
:NORMS:  1/Froebius, Min, Max, Used   0.5773E+00  0.4334E+00  0.1069E+01  0.6960E+00
:INFO :  Number of Memory Steps    5 Skipping    0
:INFO :  SLambda=    1.8517704548  Max    1.8517704548
:PREDicted Charge, CTotal, PW Trust    6.180E-05   6.180E-05   5.590E-04
:PREDicted DMix, Beta, BLim   8.8066E-02  1.5732E+00  6.7634E-01

Eigenvalues, unscaled except for SY+YY
   #     SY Real        SY Imag          SS             YY         SY+YY Real      SY+YY Imag
   1   1.602324E+00   0.000000E+00   1.532173E+00   3.163173E+00   5.019810E+00   0.000000E+00
   2   1.352407E-01   0.000000E+00   1.242673E-01   1.520386E+00   2.977071E+00   0.000000E+00
   3   2.360490E-01   0.000000E+00   9.837052E-03   3.163281E-01   6.576862E-01   0.000000E+00
   4   1.417727E-05   0.000000E+00   2.329332E-06   1.000093E-04   1.235986E-04   0.000000E+00
   5   3.201010E-06   0.000000E+00   7.221334E-07   1.230412E-05   2.018901E-05   0.000000E+00
 
:INFO :  Singular value  5.020E+00 Weight  1.000E+00 Projection -2.905E-03
:INFO :  Singular value  2.977E+00 Weight  1.000E+00 Projection  4.775E-04
:INFO :  Singular value  6.577E-01 Weight  1.000E+00 Projection -3.500E-03
:INFO :  Singular value  1.242E-04 Weight  1.336E-01 Projection -1.100E-02
:INFO :  Singular value  2.009E-05 Weight  4.018E-03 Projection -6.284E-04
:RANK :  ACTIVE   3.14/5  =  62.75 % ; YY RANK   3.09/5  =  61.85 %
 
:BLIM :  VZERO Control Off
:TRUST:  Step 2.73E+00  Charge 4.36E-02 (e) CTO  1.45E-01 (e) PW  2.04E-01 (e)
:DIRM :  MEMORY  5/8  SCALE   1.000 RED  0.40 PRED  0.15 NEXT  0.18 
:TRAVE:  Charge 8.57E-04 (e) CTO  8.57E-04 (e) PW  1.32E-03 (e)
:DIRP :  |MSR1|= 2.214E-04 |PRATT|= 5.913E-04 ANGLE=  40.0 DEGREES
:DIRQ :  |MSR1|= 3.119E-03 |PRATT|= 5.092E-03 ANGLE=  34.9 DEGREES
:DIRT :  |MSR1|= 3.127E-03 |PRATT|= 5.126E-03 ANGLE=  35.0 DEGREES
:MIX  :   MSE1   REGULARIZATION:  3.16E-04 GREED: 0.12235  Newton 1.00  0.6100                
     
       CHARGES OF MIXED CHARGE DENSITY
:CTO   : INTERSTITIAL CHARGE =     2.917281
:CPC   : PW Pseudocharge     =     7.619996
:CTO001: CHARGE SPHERE  1    =    56.082719

:NEC03: NUCLEAR AND ELECTRONIC CHARGE     59.00000    59.00000

PW CHANGE     H    K    L      Current       Change    Residue
:PTO001:      0    0    0  4.27100120E-02  1.832E-06 -4.439E-06
:PTO002:     -1   -1   -1 -1.33023702E-01 -8.124E-06 -2.044E-05
:PTO003:      0    0   -2  7.88266173E-02  9.163E-06  2.392E-05
:PTO004:      0   -2   -2  6.76155995E-02  3.436E-06  1.334E-05
[...]
 PW Mixed is           55
 
******************************************************
* MULTISECANT MIXING VER9 RELEASE 10.4.0              *
* Standard Mode with controls                        *
* Fixed density scale                                *
* Regularization       1.000E-04                     *
* Trust Upper Limit    5.000E+00                     *
* Max Number of Memory Steps    8                    *
******************************************************
 
:PWTMP   1.8127E+02  1.2500E+02  2.4672E+02
:PLANE:  PW TOTAL      2.9833 DISTAN   1.70E-04  5.68E-03 %
:CHARG:  CLM/ATOM    977.1839 DISTAN   4.37E-04  4.48E-05 %
 
Step History
        DMIX         DMIXT        Red     Pred      Trust     Lambda    MagRel    MagAbs     Beta
  1   3.5000E-02   3.5000E-02 -1.00E+00  1.00E+00 -1.00E+01  1.00E+00  3.50E-02  3.50E-02  1.00E+00
  2   1.3686E-01   1.3686E-01  1.27E+00  1.00E+00 -1.00E+01  1.00E+00  1.37E-01  3.41E-02  1.00E+00
  3   5.4743E-02   5.4743E-02  3.33E-01  3.54E-01  3.00E+00  3.00E+00  4.76E-02  1.50E-02  8.00E-01
  4   1.3686E-01   1.3686E-01  5.56E-01  2.63E-01  1.07E+00  3.00E+00  4.09E-01  4.30E-02  1.00E+00
  5   1.3848E-01   1.3848E-01  2.18E-01  1.16E-01  1.53E+00  1.92E+00  5.53E-01  3.23E-02  1.00E+00
  6   1.9223E-01   1.9223E-01  4.02E-01  1.52E-01  2.04E+00  1.85E+00  4.02E-01  5.14E-03  1.00E+00
  7   1.2235E-01   1.2235E-01  1.75E-01  1.83E-01  2.73E+00  9.29E-01  6.10E-01  3.13E-03  1.00E+00
  8   2.0905E-01   2.0905E-01 -1.00E+00  4.50E-01  3.63E+00  1.00E+00  4.85E-01  4.34E-04  1.00E+00
:JACOBIANS    1.002E-01   1.951E+00
  
:NORMS:  1/Froebius, Min, Max, Used   0.6521E+00  0.4958E+00  0.1015E+01  0.7013E+00
:INFO :  Number of Memory Steps    7 Skipping    0
:INFO :  SLambda=    1.0845700337  Max    1.0845700337
:PREDicted Charge, CTotal, PW Trust    5.632E-05   5.632E-05   3.586E-04
:PREDicted DMix, Beta, BLim   8.8092E-01  1.7052E+00  1.5700E+00

Eigenvalues, unscaled except for SY+YY
   #     SY Real        SY Imag          SS             YY         SY+YY Real      SY+YY Imag
   1   2.073901E+00   0.000000E+00   1.938977E+00   3.942383E+00   5.470403E+00   0.000000E+00
   2   9.262150E-01   0.000000E+00   8.730808E-01   1.687339E+00   2.651808E+00   0.000000E+00
   3   3.068213E-01   0.000000E+00   1.552604E-01   1.005662E+00   2.005591E+00   0.000000E+00
   4   1.253214E-01   0.000000E+00   9.164607E-03   3.645623E-01   5.946699E-01   0.000000E+00
   5   6.364335E-06   0.000000E+00   8.569999E-07   5.187080E-05   5.829306E-05   0.000000E+00
   6   5.443914E-07   0.000000E+00   1.424529E-07   2.133829E-06   2.902673E-06   0.000000E+00
   7   1.231108E-08   0.000000E+00   5.447938E-09   3.120200E-08   4.533323E-08   0.000000E+00
 
:INFO :  Singular value  5.472E+00 Weight  1.000E+00 Projection  1.249E-04
:INFO :  Singular value  2.656E+00 Weight  1.000E+00 Projection  1.493E-04
:INFO :  Singular value  2.002E+00 Weight  1.000E+00 Projection -3.689E-04
:INFO :  Singular value  5.947E-01 Weight  1.000E+00 Projection -1.167E-04
:INFO :  Singular value  5.839E-05 Weight  2.147E-02 Projection -3.225E-04
:INFO :  Singular value  2.902E-06 Weight  5.420E-05 Projection -1.554E-06
:INFO :  Singular value  4.526E-08 Weight  1.318E-08 Projection  1.542E-09
:RANK :  ACTIVE   4.02/7  =  57.45 % ; YY RANK   4.02/7  =  57.39 %
 
:BLIM :  VZERO Control Off
:TRUST:  Step 4.84E+00  Charge 2.79E-02 (e) CTO  9.31E-02 (e) PW  1.30E-01 (e)
:DIRM :  MEMORY  7/8  SCALE   1.000 RED  0.52 PRED  0.45 NEXT  0.25 
:TRAVE:  Charge 2.32E-04 (e) CTO  2.32E-04 (e) PW  4.50E-04 (e)
:DIRP :  |MSR1|= 1.658E-04 |PRATT|= 1.695E-04 ANGLE=   5.0 DEGREES
:DIRQ :  |MSR1|= 3.994E-04 |PRATT|= 4.373E-04 ANGLE=  11.4 DEGREES
:DIRT :  |MSR1|= 4.325E-04 |PRATT|= 4.690E-04 ANGLE=  10.8 DEGREES
:MIX  :   MSE1   REGULARIZATION:  3.94E-04 GREED: 0.35000  Newton 1.00  0.9221                
     
       CHARGES OF MIXED CHARGE DENSITY
:CTO   : INTERSTITIAL CHARGE =     2.917231
:CPC   : PW Pseudocharge     =     7.620694
:CTO001: CHARGE SPHERE  1    =    56.082769

:NEC03: NUCLEAR AND ELECTRONIC CHARGE     59.00000    59.00000

PW CHANGE     H    K    L      Current       Change    Residue
:PTO001:      0    0    0  4.27126325E-02  1.230E-06  9.573E-07
:PTO002:     -1   -1   -1 -1.33037683E-01 -6.445E-06 -6.311E-06
:PTO003:      0    0   -2  7.88389748E-02  5.844E-06  6.157E-06
:PTO004:      0   -2   -2  6.76260472E-02  4.784E-06  5.001E-06
:PTO005:     -1   -1   -3 -6.35312424E-02 -7.757E-06 -8.605E-06
:PTO006:     -2   -2   -2  1.60985267E-02  1.822E-06  2.007E-06
:PTO007:      0    0   -4  2.61283582E-03  8.324E-07  1.002E-06
:PTO008:     -1   -3   -3 -1.29081087E-03 -6.654E-07 -9.106E-07
:PTO009:      0   -2   -4 -1.50343062E-03  5.290E-07  8.067E-07
:PTO010:     -2   -2   -4 -6.77678400E-03  7.308E-07  9.722E-07
:PTO011:     -3   -3   -3  2.66935375E-03 -3.902E-07 -4.669E-07
:PTO012:     -1   -1   -5  7.76826007E-03 -9.162E-08 -2.506E-07

:ENE  : ********** TOTAL ENERGY IN Ry =       -18472.11260195

 Flat Integration
 New Mode for Coulomb Integral
 Consistent 3/8+Simpson combinations
 Extension of core to zero
 LDM version in phi
 Fifth-order quadrature in outwin


            ---------
:ITE022: 22. ITERATION
            ---------

:NATO :    1 INDEPENDENT AND    1 TOTAL ATOMS IN UNITCELL
       SUBSTANCE: blebleble                                                   

       LATTICE                      = F   
:POT  : POTENTIAL OPTION EX_LDA EC_LDA VX_LDA VC_LDA
:LAT  : LATTICE CONSTANTS=  9.95603  9.95603  9.95603    1.571    1.571    1.571
:VOL  : UNIT CELL VOLUME =     246.71680
       MODE OF CALCULATION IS       = RELA
       NON-SPINPOLARIZED CALCULATION
:IFFT  : FFT-parameters:   80   80   80 Factor: 2.00


   CONVERGENCE PARAMETER FOR PSEUDOCHARGE: NCON=  9
   MAXIMAL VALUE OF RMT(JATOM)*ABSK(NKK) : RK  =29.93539


:VKCOUL :  VK-COUL convergence: 0.233E-06
       ATOMNUMBER=  1 Pr         VCOUL-ZERO =  0.22134E+00
:FIT001: LUSE= 13 SIGMA OF V-XC FIT FOR ATOM  1  0.4164341E-04
:FIT001: LUSE= 13 SIGMA OF V-XC FIT FOR ATOM  1  0.4164341E-04
:DEN  : DENSITY INTEGRAL  =         -7070.71897636   (Ry)
       ELS_POTENTIAL_AT Z=0 and Z=0.5:  -2.46690  -2.46690
       ELS_POTENTIAL_AT Y=0 and Y=0.5:   0.00000   0.00000
:VZERO:v0,v0c,v0x  -3.43411  -2.46690  -0.96722 v5,v5c,v5x  -3.43411  -2.46690  -0.96722
:VZERY:v0,v0c,v0x  -0.70470   0.00000  -0.70470 v5,v5c,v5x  -0.70470   0.00000  -0.70470
:VZERX:v0,v0c,v0x  -0.70470   0.00000  -0.70470 v5,v5c,v5x  -0.70470   0.00000  -0.70470
:LMAX-WF:   10   Non-Spherical LMAX:   4

          ATOMIC SPHERE DEPENDENT PARAMETERS FOR ATOM  Pr        
:e__0001: OVERALL ENERGY PARAMETER IS    0.3613
          OVERALL BASIS SET ON ATOM IS LAPW
:E0_0001: E( 0)=    0.3613
             APW+lo
:E0_0001: E( 0)=   -2.1139   E(BOTTOM)=   -2.495   E(TOP)=   -1.733  4  5   170
             LOCAL ORBITAL
:E1_0001: E( 1)=    0.7613
             APW+lo
:E1_0001: E( 1)=   -0.7262   E(BOTTOM)=   -1.373   E(TOP)=   -0.079  3  4   166
             LOCAL ORBITAL
:E3_0001: E( 3)=    0.5586   E(BOTTOM)=    0.416   E(TOP)=    0.701  0  1   118
             APW+lo
:E2_0001: E( 2)=    0.3613   E(BOTTOM)=    0.202   E(TOP)= -200.000  2 -1    89
             APW+lo

       K=   0.00000   0.00000   0.00000            1
:RKM  : MATRIX SIZE   189LOs:  20  RKM= 8.20  WEIGHT= 1.00  PGR:    
       EIGENVALUES ARE:
:EIG00001:      -2.0742524   -0.7083163   -0.7083163   -0.7083163    0.3092622
:EIG00006:       0.5559105    0.5734822    0.5734822    0.5734822    0.5974612
:EIG00011:       0.5974612    0.5974612    0.6911990    0.6911990    0.6911990
:EIG00016:       0.8595059    0.8595059    1.2604068    1.4844483    1.4844483
:EIG00021:       1.4844483    1.5887662    2.2592020    2.2592020    2.2592020
:EIG00026:       2.3391043    2.3391043    2.3391043    2.5443689    2.5443689
:EIG00031:       2.9077883    3.0684482    3.0684482    3.0684482    3.5028495
:EIG00036:       3.5028495    3.7356652    3.7356652    3.7356652    3.7835992
:EIG00041:       3.7835992    3.7835992    3.9063411    3.9063411    3.9063411
:EIG00046:       4.1882405    4.1882405    4.1882405    4.1993445    4.2893390
 
:EIG00051:       4.2893390    4.3603839    4.3603839    4.3603839    4.3904584
:EIG00056:       4.3904584    4.3904584    4.4999596    4.5093858    4.6354251
:EIG00061:       4.6354251    4.6354251    4.7603164    4.7603164    4.7603164
:EIG00066:       5.0167932    6.0108215    6.0163187    6.0163187    6.3540413
:EIG00071:       6.3540413    6.3540413    6.8295573    6.8295573    7.0095481
:EIG00076:       7.0095481    7.0095481    7.0617834    7.0617834    7.0617834
:EIG00081:       7.3237095    7.3237095    7.3237095    7.3464437    7.3464437
:EIG00086:       7.4147561    7.4147561    7.4147561    7.4366490    7.4366490
:EIG00091:       7.4366490    7.5371026    7.5371026    7.5371026    7.5393908
:EIG00096:       7.5393908    7.5393908    7.6316179    7.6879720    7.7919921
 
:EIG00101:       7.7919921    7.8177598    7.8177598    7.8177598    7.8267789
:EIG00106:       7.8267789    7.8267789    7.8592590    7.8592590    7.8592590
:EIG00111:       7.9643123    7.9643123
       ********************************************************

:KPT   :      NUMBER OF K-POINTS:   165
   0.0   0.0 angle (M,z), angle (M,x) deg
 
        SPIN-ORBIT EIGENVALUES:
     K=   0.00000   0.00000   0.00000            1
      MATRIX SIZE=  224   WEIGHT= 1.00
     EIGENVALUES ARE:
          -2.0742524   -2.0742524   -0.8556352   -0.8556352   -0.6393489
          -0.6393489   -0.6393489   -0.6393489    0.3092622    0.3092622
           0.5515001    0.5515001    0.5626394    0.5626394    0.5626394
           0.5626394    0.5851246    0.5851246    0.5976186    0.5976186
           0.6045154    0.6045154    0.6045154    0.6045154    0.6874263
           0.6874263    0.6874263    0.6874263    0.6975853    0.6975853
           0.8598867    0.8598867    0.8598867    0.8598867    1.2604616
           1.2604616    1.4795657    1.4795657    1.4866854    1.4866854

           1.4866854    1.4866854    1.5887662    1.5887662    2.2542251
           2.2542251    2.2542251    2.2542251    2.2670445    2.2670445
           2.2686494    2.2686494    2.3759638    2.3759638    2.3759638
           2.3759638    2.5446566    2.5446566    2.5446566    2.5446566
           2.9077883    2.9077883    3.0680195    3.0680195    3.0686755
           3.0686755    3.0686755    3.0686755    3.5028221    3.5028221
           3.5028221    3.5028221    3.7343123    3.7343123    3.7343123
           3.7343123    3.7386310    3.7386310    3.7519083    3.7519083

           3.8009366    3.8009366    3.8009366    3.8009366    3.9063327
           3.9063327    3.9063453    3.9063453    3.9063453    3.9063453
           4.1881899    4.1881899    4.1881899    4.1881899    4.1883479
           4.1883479    4.1993445    4.1993445    4.2893390    4.2893390
           4.2893390    4.2893390    4.3602205    4.3602205    4.3604574
           4.3604574    4.3604574    4.3604574    4.3903128    4.3903128
           4.3903128    4.3903128    4.3907930    4.3907930    4.4999635
           4.4999635
       ********************************************************
:GAP (global)   :    0.0    Ry =     0.0   eV (metal)
:GAP (this spin):    0.0    Ry =     0.0   eV (metal)
         Bandranges (emin - emax) and occupancy:
:BAN00004:   4   -0.891748   -0.855635  1.00000000
:BAN00005:   5   -0.703044   -0.639349  1.00000000
:BAN00006:   6   -0.703044   -0.639349  1.00000000
:BAN00007:   7   -0.680170   -0.639349  1.00000000
:BAN00008:   8   -0.680170   -0.639349  1.00000000
:BAN00009:   9    0.309262    0.532970  1.00000000
:BAN00010:  10    0.309262    0.532970  1.00000000
:BAN00011:  11    0.488727    0.559873  1.00000000
:BAN00012:  12    0.488727    0.559873  1.00000000
:BAN00013:  13    0.549599    0.566623  0.50000004
:BAN00014:  14    0.549599    0.566623  0.49999996
:BAN00015:  15    0.562639    0.571856  0.00000000
:BAN00016:  16    0.562639    0.571856  0.00000000
:BAN00017:  17    0.567127    0.590806  0.00000000
:BAN00018:  18    0.567127    0.590806  0.00000000
:BAN00019:  19    0.584987    0.597619  0.00000000
        Energy to separate low and high energystates:    0.25926


:NOE  : NUMBER OF ELECTRONS          =   13.000

:FER  : F E R M I - ENERGY(TETRAH.M.)=   0.5613084917
:GMA  : POTENTIAL AND CHARGE CUT-OFF  12.00 Ry**.5

:POS001: ATOM    1 X,Y,Z = 0.00000 0.00000 0.50000  MULT= 1  ZZ= 59.000  Pr        

       LMMAX  5
       LM=   0 0  4 0  4 4  6 0  6 4

:CHA001: TOTAL VALENCE CHARGE INSIDE SPHERE   1 =  10.0833    (RMT=  2.5000 )
:PCS001: PARTIAL CHARGES SPHERE =  1 S,P,D,F,      D-EG,D-T2G 
:QTL001: 2.0288 5.3500 0.6076 2.0965 0.0000 0.0000 0.0000 0.2184 0.3892 0.0000 0.0000 0.0000
        Q-s-low E-s-low   Q-p-low E-p-low   Q-d-low E-d-low   Q-f-low E-f-low
:EPL001:  1.9255 -2.0641    5.2824 -0.7467    0.0012 -0.7302    0.0003 -0.7301
        Q-s-hi  E-s-hi    Q-p-hi  E-p-hi    Q-d-hi  E-d-hi    Q-f-hi  E-f-hi 
:EPH001:  0.1033  0.4582    0.0676  0.4968    0.6064  0.5105    2.0961  0.5489

:CHA  : TOTAL VALENCE CHARGE INSIDE UNIT CELL =      13.000000

:SUM  : SUM OF EIGENVALUES =          -6.006088519


        1.ATOM      Pr                   14 CORE STATES
:1S 001: 1S               -3067.036350243 Ry
:2S 001: 2S                -492.787802022 Ry
:2PP001: 2P*               -465.887332381 Ry
:2P 001: 2P                -430.489699424 Ry
:3S 001: 3S                -105.874124752 Ry
:3PP001: 3P*                -94.412159033 Ry
:3P 001: 3P                 -87.404153438 Ry
:3DD001: 3D*                -67.331710381 Ry
:3D 001: 3D                 -65.820080795 Ry
:4S 001: 4S                 -20.551078234 Ry
:4PP001: 4P*                -16.258055308 Ry
:4P 001: 4P                 -14.730872457 Ry
:4DD001: 4D*                 -7.664342953 Ry
:4D 001: 4D                  -7.395022287 Ry
:CINT001 Core Integral Atom   1   45.999516

       DENSITY AT NUCLEUS
        JATOM        VALENCE       SEMI-CORE          CORE           TOTAL
:RTO001:   1      650.339101        0.000000   656824.889038   657475.228139
     
       CHARGES OF NEW CHARGE DENSITY
:NTO   : INTERSTITIAL CHARGE =     2.916734
:NPC   : PW Pseudocharge     =     7.619419
:NTO001: CHARGE SPHERE  1    =    56.082781

:NEC01: NUCLEAR AND ELECTRONIC CHARGE     59.00000    58.99952
     
       CHARGES OF OLD CHARGE DENSITY
:OTO   : INTERSTITIAL CHARGE =     2.917231
:OPC   : PW Pseudocharge     =     7.620694
:OTO001: CHARGE SPHERE  1    =    56.082769

:NEC02: NUCLEAR AND ELECTRONIC CHARGE     59.00000    59.00000
     
       CONVERGENCE TEST
:DTO001: DIFFERENCE IN SPHERE  1 =  0.0000561

:DIS  :  CHARGE DISTANCE       ( 0.0000561 for atom    1 spin 1)      0.0000561
 PW Mixed is           55
 
******************************************************
* MULTISECANT MIXING VER9 RELEASE 10.4.0              *
* Standard Mode with controls                        *
* Fixed density scale                                *
* Regularization       1.000E-04                     *
* Trust Upper Limit    5.000E+00                     *
* Max Number of Memory Steps    8                    *
******************************************************
 
:PWTMP   1.8127E+02  1.2500E+02  2.4672E+02
:PLANE:  PW TOTAL      2.9834 DISTAN   1.04E-05  3.50E-04 %
:CHARG:  CLM/ATOM    977.1840 DISTAN   6.95E-05  7.11E-06 %
 
Step History
        DMIX         DMIXT        Red     Pred      Trust     Lambda    MagRel    MagAbs     Beta
  1   3.5000E-02   3.5000E-02 -1.00E+00  1.00E+00 -1.00E+01  1.00E+00  3.50E-02  3.50E-02  1.00E+00
  2   1.3686E-01   1.3686E-01  1.27E+00  1.00E+00 -1.00E+01  1.00E+00  1.37E-01  3.41E-02  1.00E+00
  3   5.4743E-02   5.4743E-02  3.33E-01  3.54E-01  3.00E+00  3.00E+00  4.76E-02  1.50E-02  8.00E-01
  4   1.3686E-01   1.3686E-01  5.56E-01  2.63E-01  1.07E+00  3.00E+00  4.09E-01  4.30E-02  1.00E+00
  5   1.3848E-01   1.3848E-01  2.18E-01  1.16E-01  1.53E+00  1.92E+00  5.53E-01  3.23E-02  1.00E+00
  6   1.9223E-01   1.9223E-01  4.02E-01  1.52E-01  2.04E+00  1.85E+00  4.02E-01  5.14E-03  1.00E+00
  7   1.2235E-01   1.2235E-01  1.75E-01  1.83E-01  2.73E+00  9.29E-01  6.10E-01  3.13E-03  1.00E+00
  8   2.0905E-01   2.0905E-01  5.24E-01  4.50E-01  3.63E+00  1.08E+00  4.85E-01  4.34E-04  1.00E+00
  9   3.5000E-01   3.5000E-01 -1.00E+00  2.47E-01  4.84E+00  1.00E+00  9.22E-01  4.33E-04  1.00E+00
:JACOBIANS    1.477E-01   2.523E+00
  
:NORMS:  1/Froebius, Min, Max, Used   0.7094E+00  0.4947E+00  0.1063E+01  0.8200E+00
:INFO :  Number of Memory Steps    8 Skipping    0
:INFO :  SLambda=    1.6268550505  Max    1.6268550505
:PREDicted Charge, CTotal, PW Trust    2.416E-05   2.416E-05   1.578E-04
:PREDicted DMix, Beta, BLim   6.5039E-01  1.0640E+00  1.9042E+00

Eigenvalues, unscaled except for SY+YY
   #     SY Real        SY Imag          SS             YY         SY+YY Real      SY+YY Imag
   1   2.864313E+00   0.000000E+00   2.787052E+00   4.145366E+00   8.120123E+00   0.000000E+00
   2   1.170984E+00   0.000000E+00   1.073869E+00   2.312852E+00   3.849218E+00   0.000000E+00
   3   3.004198E-01   0.000000E+00   1.543492E-01   1.179166E+00   2.586321E+00   0.000000E+00
   4   1.258039E-01   0.000000E+00   9.180438E-03   3.602823E-01   7.002240E-01   0.000000E+00
   5   1.727978E-03   0.000000E+00   1.282364E-03   2.322380E-03   5.161611E-03   0.000000E+00
   6   1.521367E-06   0.000000E+00   2.056922E-07   1.158373E-05   1.323958E-05   0.000000E+00
   7   2.367067E-09   0.000000E+00   1.733914E-08   4.505475E-07   6.575855E-07   0.000000E+00
   8   8.788842E-08   0.000000E+00   4.460699E-10   1.190227E-08   1.647898E-08   0.000000E+00
 
:INFO :  Singular value  8.125E+00 Weight  1.000E+00 Projection  9.626E-06
:INFO :  Singular value  3.857E+00 Weight  1.000E+00 Projection -1.086E-06
:INFO :  Singular value  2.580E+00 Weight  1.000E+00 Projection  1.484E-05
:INFO :  Singular value  7.002E-01 Weight  1.000E+00 Projection  1.240E-05
:INFO :  Singular value  5.170E-03 Weight  9.936E-01 Projection -1.316E-03
:INFO :  Singular value  1.327E-05 Weight  1.023E-03 Projection -1.608E-06
:INFO :  Singular value  6.560E-07 Weight  2.504E-06 Projection -5.807E-09
:INFO :  Singular value  1.646E-08 Weight  1.576E-09 Projection  3.296E-11
:RANK :  ACTIVE   4.99/8  =  62.43 % ; YY RANK   4.97/8  =  62.12 %
 
:BLIM :  VZERO Control Off
:TRUST:  Step 7.86E+00  Charge 2.23E-02 (e) CTO  7.45E-02 (e) PW  1.04E-01 (e)
:DIRM :  MEMORY  8/8  SCALE   1.000 RED  0.15 PRED  0.25 NEXT  0.10 
:TRAVE:  Charge 1.16E-04 (e) CTO  1.16E-04 (e) PW  2.26E-04 (e)
:DIRP :  |MSR1|= 1.056E-05 |PRATT|= 1.043E-05 ANGLE=  27.8 DEGREES
:DIRQ :  |MSR1|= 5.241E-05 |PRATT|= 6.946E-05 ANGLE=  22.1 DEGREES
:DIRT :  |MSR1|= 5.346E-05 |PRATT|= 7.023E-05 ANGLE=  22.4 DEGREES
:MIX  :   MSE1   REGULARIZATION:  4.15E-04 GREED: 0.35000  Newton 1.00  0.7612                
     
       CHARGES OF MIXED CHARGE DENSITY
:CTO   : INTERSTITIAL CHARGE =     2.917230
:CPC   : PW Pseudocharge     =     7.620698
:CTO001: CHARGE SPHERE  1    =    56.082770

:NEC03: NUCLEAR AND ELECTRONIC CHARGE     59.00000    59.00000

PW CHANGE     H    K    L      Current       Change    Residue
:PTO001:      0    0    0  4.27126513E-02  1.881E-08 -8.389E-08
:PTO002:     -1   -1   -1 -1.33037870E-01 -1.868E-07 -1.523E-08
:PTO003:      0    0   -2  7.88392198E-02  2.450E-07  1.559E-07
:PTO004:      0   -2   -2  6.76264272E-02  3.800E-07  3.229E-07
:PTO005:     -1   -1   -3 -6.35320800E-02 -8.377E-07 -8.560E-07
:PTO006:     -2   -2   -2  1.60987447E-02  2.180E-07  2.280E-07
:PTO007:      0    0   -4  2.61294804E-03  1.122E-07  1.273E-07
:PTO008:     -1   -3   -3 -1.29104469E-03 -2.338E-07 -2.748E-07
:PTO009:      0   -2   -4 -1.50322789E-03  2.027E-07  2.431E-07
:PTO010:     -2   -2   -4 -6.77658578E-03  1.982E-07  2.394E-07
:PTO011:     -3   -3   -3  2.66928789E-03 -6.586E-08 -7.817E-08
:PTO012:     -1   -1   -5  7.76818203E-03 -7.804E-08 -1.048E-07

:ENE  : ********** TOTAL ENERGY IN Ry =       -18472.11260193

