
------- case.scf0 --------
 Flat Integration
 New Mode for Coulomb Integral
 Consistent 3/8+Simpson combinations
 Extension of core to zero
 LDM version in phi
 Fifth-order quadrature in outwin


            ---------
:ITE084: 84. ITERATION
            ---------

:NATO :    1 INDEPENDENT AND    2 TOTAL ATOMS IN UNITCELL
       SUBSTANCE: aU                                                          

       LATTICE                      = CXY 
:POT  : POTENTIAL OPTION EX_LDA EC_LDA VX_LDA VC_LDA
:LAT  : LATTICE CONSTANTS=  5.37049 10.89808  9.40854    1.571    1.571    1.571
:VOL  : UNIT CELL VOLUME =     275.33200
       MODE OF CALCULATION IS       = RELA
       NON-SPINPOLARIZED CALCULATION
:IFFT  : FFT-parameters:   48   90   72 Factor: 2.00


   CONVERGENCE PARAMETER FOR PSEUDOCHARGE: NCON=  9
   MAXIMAL VALUE OF RMT(JATOM)*ABSK(NKK) : RK  =27.59804


:VKCOUL :  VK-COUL convergence: 0.177E-06
       ATOMNUMBER=  1 Pr1        VCOUL-ZERO =  0.65198E+00
:EFG001:                        EFG         =     8.50678   *10**21  V / m**2
                               V20  TOT/SRF=    -6.72050    -0.07503
                               V22  TOT/SRF=    -4.62669    -0.01047
                               V22M TOT/SRF=     0.00000     0.00000
                               V21  TOT/SRF=     0.00000     0.00000
                               V21M TOT/SRF=     0.00000     0.00000

             -0.74661    0.00000    0.00000       -0.74661    0.00000    0.00000
              0.00000    8.50678    0.00000        0.00000    8.50678    0.00000
              0.00000    0.00000   -7.76016        0.00000    0.00000   -7.76016

         MAIN DIRECTIONS OF THE EFG   1.0000  0.0000  0.0000
                                      0.0000  1.0000  0.0000
                                      0.0000  0.0000  1.0000
:ANG001:  ANGLE WITH OLD X-AXIS =         0.0

:ETA001:                         ASYMM. ETA =     0.82447


     HELLMANN-FEYNMAN-FORCE IN mRy/a.u. = |F|  Fx       Fy             Fz
:FHF001:   1.ATOM   1280.797981107887      0.000000000000      0.000000000000  -1280.797981107887

:FIT001: LUSE= 13 SIGMA OF V-XC FIT FOR ATOM  1  0.7449207E-04
:FIT001: LUSE= 13 SIGMA OF V-XC FIT FOR ATOM  1  0.7449207E-04
:DEN  : DENSITY INTEGRAL  =        -14222.96456555   (Ry)
       ELS_POTENTIAL_AT Z=0 and Z=0.5:   1.01669   1.01669
       ELS_POTENTIAL_AT Y=0 and Y=0.5:  -0.01337  -0.01337
:VZERO:v0,v0c,v0x   0.26958   1.01669  -0.74711 v5,v5c,v5x   0.26958   1.01669  -0.74711
:VZERY:v0,v0c,v0x  -0.98599  -0.01337  -0.97262 v5,v5c,v5x  -0.98599  -0.01337  -0.97262
:VZERX:v0,v0c,v0x  -1.30396  -0.39588  -0.90809 v5,v5c,v5x  -1.30396  -0.39588  -0.90809

------- case.scf1 --------
:LMAX-WF:   10   Non-Spherical LMAX:   4

          ATOMIC SPHERE DEPENDENT PARAMETERS FOR ATOM  Pr1       
:e__0001: OVERALL ENERGY PARAMETER IS    0.9833
          OVERALL BASIS SET ON ATOM IS LAPW
:E0_0001: E( 0)=    0.9833
             APW+lo
:E0_0001: E( 0)=   -1.4168   E(BOTTOM)=   -2.063   E(TOP)=   -0.771  4  5   239
             LOCAL ORBITAL
:E1_0001: E( 1)=    1.3833
             APW+lo
:E1_0001: E( 1)=    0.0478   E(BOTTOM)=   -0.924   E(TOP)=    1.019  3  4   246
             LOCAL ORBITAL
:E3_0001: E( 3)=    1.2472   E(BOTTOM)=    1.033   E(TOP)=    1.462  0  1   128
             APW+lo
:E2_0001: E( 2)=    0.9833   E(BOTTOM)=    0.808   E(TOP)= -200.000  2 -1   122
             APW+lo

       K=   0.06250   0.00000   0.06250            1
:RKM  : MATRIX SIZE   279LOs:  40  RKM= 8.50  WEIGHT= 4.00  PGR:    
       EIGENVALUES ARE:
:EIG00001:      -1.4717894   -1.3822374   -0.3039892   -0.0247511    0.0408697
:EIG00006:       0.0644845    0.0904192    0.0931817    1.0351413    1.0557272
:EIG00011:       1.1749077    1.1906678    1.1958067    1.2032196    1.2242895
:EIG00016:       1.2565391    1.2685307    1.2717191    1.2780828    1.2830317
:EIG00021:       1.2843460    1.2923296    1.3003349    1.3271406    1.3341745
:EIG00026:       1.3592782    1.4343993    1.4450563    1.5206086    1.5647603
:EIG00031:       1.6252640    1.8079026    1.8472254    1.9129781    2.2048424
:EIG00036:       2.2517897    2.2886196    2.5402612    2.5443926    2.6769897
:EIG00041:       2.8806685    2.9318353    3.0906542    3.1455441    3.2947935
:EIG00046:       3.3034395    3.3263856    3.5010076    3.5119602    3.6541298
 
:EIG00051:       3.7608959    3.8936017    3.9452814    4.1000851    4.1092066
:EIG00056:       4.1965894    4.2629944    4.4608238    4.4912970    4.5284051
:EIG00061:       4.5856537    4.7119049    4.7187883    4.8604567    4.9132385
:EIG00066:       4.9803045    4.9840567    5.0343513    5.1609497    5.2031643
:EIG00071:       5.2883994    5.3457845    5.4149330    5.4825585    5.4846392
:EIG00076:       5.4986093    5.5520277    5.5656318    5.5944802    5.6895685
:EIG00081:       5.7100777    5.7572169    5.7935724    5.8529675    5.9083648
:EIG00086:       5.9300646    6.0701990    6.1531907    6.1740010    6.2259751
:EIG00091:       6.2858226    6.3497815    6.3782306    6.4132469    6.4201717
:EIG00096:       6.5688736    6.6036516    6.6076012    6.6369404    6.7452294
 
:EIG00101:       6.7760625    6.8802544    6.9385907    6.9643038    6.9729740
:EIG00106:       7.1068203    7.1258843    7.1952793    7.2737207    7.4457901
:EIG00111:       7.5476528    7.5805117    7.5833060    7.6394416    7.7669141
:EIG00116:       7.8324912    7.9725698    8.0717575    8.0841065    8.1376175
:EIG00121:       8.1882614    8.2247638    8.2373446    8.3785615    8.4052629
:EIG00126:       8.4208573    8.4976537    8.5872195    8.6024066    8.6599160
:EIG00131:       8.6599716
       ********************************************************

:KPT   :      NUMBER OF K-POINTS:   288

------- case.scfso --------
   0.0   0.0 angle (M,z), angle (M,x) deg
 
        SPIN-ORBIT EIGENVALUES:
     K=   0.06250   0.00000   0.06250            1
      MATRIX SIZE=  262   WEIGHT= 4.00
     EIGENVALUES ARE:
          -1.4717922   -1.4717922   -1.3822397   -1.3822397   -0.3336043
          -0.3336043   -0.0945294   -0.0945294   -0.0400995   -0.0400995
           0.1233645    0.1233645    0.1292412    0.1292412    0.1553192
           0.1553192    1.0350394    1.0350394    1.0559074    1.0559074
           1.1740464    1.1740464    1.1892507    1.1892507    1.1943254
           1.1943254    1.2021538    1.2021538    1.2225833    1.2225833
           1.2511568    1.2511568    1.2620069    1.2620069    1.2711457
           1.2711457    1.2810903    1.2810903    1.2841048    1.2841048

           1.2881788    1.2881788    1.2934505    1.2934505    1.3035372
           1.3035372    1.3292621    1.3292621    1.3358705    1.3358705
           1.3600013    1.3600013    1.4323730    1.4323730    1.4474664
           1.4474664    1.5211220    1.5211220    1.5647826    1.5647826
           1.6256206    1.6256206    1.8081051    1.8081051    1.8473451
           1.8473451    1.9132233    1.9132233    2.2053427    2.2053427
           2.2518794    2.2518794    2.2886336    2.2886336    2.5396719
           2.5396719    2.5446580    2.5446580    2.6763770    2.6763770

           2.8810024    2.8810024    2.9314475    2.9314475    3.0906551
           3.0906551    3.1451229    3.1451229    3.2947009    3.2947009
           3.3029781    3.3029781    3.3266641    3.3266641    3.4980215
           3.4980215    3.5150093    3.5150093    3.6544437    3.6544437
           3.7605774    3.7605774    3.8919424    3.8919424    3.9454632
           3.9454632    4.0996012    4.0996012    4.1090607    4.1090607
           4.1967831    4.1967831    4.2603439    4.2603439    4.4626381
           4.4626381    4.4912115    4.4912115
       ********************************************************

------- case.scf2 --------
:GMA  : POTENTIAL AND CHARGE CUT-OFF  12.00 Ry**.5




:POS001: at.nr.  -1 position = 0.00000 0.89750 0.25000  multiplicity =  2

       lmmax 16
       lm=   0 0  1 0  2 0  2 2  3 0  3 2  4 0  4 2  4 4  5 0  5 2  5 4  6 0  6 2  6 4  6 6
:FER gutzwiller fermi energy   1.20371
:EORB          0.191037516
:SUM sum of gutz band energies          4.691424222

:CHA001: total charge inside sphere   1 =     9.837224
:PCS001: partial charges sphere =  1 s,p,d,f,px,py,pz,d-z2,d-x2y2,d-xy,d-xz,d-yz 
:QTL001: 1.9330 4.9497 0.9311 2.0196 1.6506 1.6449 1.6542 0.1839 0.1675 0.1881 0.1933 0.1983

                      vxx         vyy         vzz       up to r

:VZZ001:            -0.35362     8.71713    -8.36351       2.300

:CHA  : total charge inside unit cell =      13.000000

------- case.scfc --------

        1.ATOM      Pr1                  14 CORE STATES
       CORE-FORCE in mRy/a.u. = |F|      Fx             Fy             Fz
:FCO001:   1.ATOM   1281.598802893787      0.000000000000      0.000000000000   1281.598802893787

:1S 001: 1S               -3066.334265176 Ry
:2S 001: 2S                -492.081095106 Ry
:2PP001: 2P*               -465.180875419 Ry
:2P 001: 2P                -429.783109524 Ry
:3S 001: 3S                -105.172120458 Ry
:3PP001: 3P*                -93.709979909 Ry
:3P 001: 3P                 -86.702140426 Ry
:3DD001: 3D*                -66.628674580 Ry
:3D 001: 3D                 -65.117130541 Ry
:4S 001: 4S                 -19.849330768 Ry
:4PP001: 4P*                -15.556197740 Ry
:4P 001: 4P                 -14.028901211 Ry
:4DD001: 4D*                 -6.962111771 Ry
:4D 001: 4D                  -6.692770865 Ry

------- case.scfm --------
:CINT001 Core Integral Atom   1   45.998437

       DENSITY AT NUCLEUS
        JATOM        VALENCE       SEMI-CORE          CORE           TOTAL
:RTO001:   1      640.074578        0.000000   656825.192815   657465.267393
     
       CHARGES OF NEW CHARGE DENSITY
:NTO   : INTERSTITIAL CHARGE =     6.326593
:NPC   : PW Pseudocharge     =    17.708438
:NTO001: CHARGE SPHERE  1    =    55.835662

:NEC01: NUCLEAR AND ELECTRONIC CHARGE    118.00000   117.99792
     
       CHARGES OF OLD CHARGE DENSITY
:OTO   : INTERSTITIAL CHARGE =     6.221003
:OPC   : PW Pseudocharge     =    17.649337
:OTO001: CHARGE SPHERE  1    =    55.889499

:NEC02: NUCLEAR AND ELECTRONIC CHARGE    118.00000   118.00000
     
       CONVERGENCE TEST
:DTO001: DIFFERENCE IN SPHERE  1 =  0.1065372

:DIS  :  CHARGE DISTANCE       ( 0.1065372 for atom    1 spin 1)      0.1065372
 PW Mixed is          294
 
******************************************************
* MULTISECANT MIXING VER9 RELEASE 10.4.0              *
* Standard Mode with controls                        *
* Fixed density scale                                *
* Regularization       1.000E-04                     *
* Trust Upper Limit    5.000E+00                     *
* Max Number of Memory Steps    8                    *
******************************************************
 
:PWTMP   1.7340E+02  1.9467E+02  2.7533E+02
:PLANE:  PW TOTAL      5.9360 DISTAN   2.96E-02  4.99E-01 %
:CHARG:  CLM/ATOM   1381.9230 DISTAN   1.51E-01  1.09E-02 %
 
Step History
        DMIX         DMIXT        Red     Pred      Trust     Lambda    MagRel    MagAbs     Beta
  1   3.5000E-02   3.5000E-02 -1.00E+00  1.00E+00 -1.00E+01  1.00E+00  3.50E-02  3.50E-02  1.00E+00
:INFO :  Note, Pratt in use
:TRUST:  Step 3.75E-02  Charge 7.50E-02 (e) CTO  2.50E-01 (e) PW  3.50E-01 (e)
:DIRM :  MEMORY  0/ 8 SCALE   1.000
Performing Pseudo Compensation
Final Pseudo Compensation Rescaling     1.00000E+00
:MIX  :   PRATT  REGULARIZATION:  1.00E-04 GREED: 0.02500                  
     
       CHARGES OF MIXED CHARGE DENSITY
:CTO   : INTERSTITIAL CHARGE =     6.223695
:CPC   : PW Pseudocharge     =    17.666086
:CTO001: CHARGE SPHERE  1    =    55.888153

:NEC03: NUCLEAR AND ELECTRONIC CHARGE    118.00000   118.00000

PW CHANGE     H    K    L      Current       Change    Residue
:PTO001:      0    0    0  8.67671804E-02  7.061E-05  6.269E-04
:PTO003:      0    2    0  1.94190302E-02  1.881E-05 -4.127E-05
:PTO004:     -1    1    0  9.00304544E-02  1.012E-04  4.391E-05
:PTO005:      0    2   -1 -1.02474224E-01 -1.185E-04 -5.523E-05
:PTO006:      0    0   -2 -5.31911990E-02 -6.150E-05 -2.681E-05
:PTO007:     -1    1   -1 -1.05058808E-01 -1.291E-04 -2.570E-05
:PTO008:      0    2   -2 -1.39793702E-02 -2.178E-05 -3.466E-05
:PTO009:     -1    1   -2 -6.90743540E-02 -1.039E-04 -2.191E-06
:PTO011:     -1    3    0 -9.80312553E-03 -1.671E-05 -2.448E-05
:PTO012:     -1    3   -1 -3.91903616E-02 -7.124E-05 -3.520E-05
:PTO013:      0    4    0 -6.34431758E-03 -1.310E-05 -1.938E-05
:PTO014:      0    2   -3  1.48032167E-02  3.027E-05  7.653E-05

:ENE  : ********** TOTAL ENERGY IN Ry =       -36944.17587908

       TOTAL FORCE IN mRy/a.u. = |F|     Fx             Fy             Fz     with/without FOR in case.in2
:FOR001:   1.ATOM          0.801          0.000          0.000          0.801 partial forces
       TOTAL FORCE WITH RESPECT TO GLOBAL CARTESIAN COORDINATES:
:FCA001:   1.ATOM                         0.000          0.801          0.000 partial forces
       TOTAL FORCE WITH RESPECT TO THE GLOBAL COORDINATE SYSTEM:
:FGL001:   1.ATOM                 0.000000000     0.800821786     0.000000000 partial forces

------- case.scf0 --------
 Flat Integration
 New Mode for Coulomb Integral
 Consistent 3/8+Simpson combinations
 Extension of core to zero
 LDM version in phi
 Fifth-order quadrature in outwin


            ---------
:ITE085: 85. ITERATION
            ---------

:NATO :    1 INDEPENDENT AND    2 TOTAL ATOMS IN UNITCELL
       SUBSTANCE: aU                                                          

       LATTICE                      = CXY 
:POT  : POTENTIAL OPTION EX_LDA EC_LDA VX_LDA VC_LDA
:LAT  : LATTICE CONSTANTS=  5.37049 10.89808  9.40854    1.571    1.571    1.571
:VOL  : UNIT CELL VOLUME =     275.33200
       MODE OF CALCULATION IS       = RELA
       NON-SPINPOLARIZED CALCULATION
:IFFT  : FFT-parameters:   48   90   72 Factor: 2.00


   CONVERGENCE PARAMETER FOR PSEUDOCHARGE: NCON=  9
   MAXIMAL VALUE OF RMT(JATOM)*ABSK(NKK) : RK  =27.59804


:VKCOUL :  VK-COUL convergence: 0.177E-06
       ATOMNUMBER=  1 Pr1        VCOUL-ZERO =  0.65239E+00
:EFG001:                        EFG         =     8.51323   *10**21  V / m**2
                               V20  TOT/SRF=    -6.73568    -0.07509
                               V22  TOT/SRF=    -4.62438    -0.01046
                               V22M TOT/SRF=     0.00000     0.00000
                               V21  TOT/SRF=     0.00000     0.00000
                               V21M TOT/SRF=     0.00000     0.00000

             -0.73553    0.00000    0.00000       -0.73553    0.00000    0.00000
              0.00000    8.51323    0.00000        0.00000    8.51323    0.00000
              0.00000    0.00000   -7.77769        0.00000    0.00000   -7.77769

         MAIN DIRECTIONS OF THE EFG   1.0000  0.0000  0.0000
                                      0.0000  1.0000  0.0000
                                      0.0000  0.0000  1.0000
:ANG001:  ANGLE WITH OLD X-AXIS =         0.0

:ETA001:                         ASYMM. ETA =     0.82720


     HELLMANN-FEYNMAN-FORCE IN mRy/a.u. = |F|  Fx       Fy             Fz
:FHF001:   1.ATOM   1282.118009944491      0.000000000000      0.000000000000  -1282.118009944491

:FIT001: LUSE= 13 SIGMA OF V-XC FIT FOR ATOM  1  0.7454638E-04
:FIT001: LUSE= 13 SIGMA OF V-XC FIT FOR ATOM  1  0.7454638E-04
:DEN  : DENSITY INTEGRAL  =        -14222.70251449   (Ry)
       ELS_POTENTIAL_AT Z=0 and Z=0.5:   1.01728   1.01728
       ELS_POTENTIAL_AT Y=0 and Y=0.5:  -0.01337  -0.01337
:VZERO:v0,v0c,v0x   0.27006   1.01728  -0.74721 v5,v5c,v5x   0.27006   1.01728  -0.74721
:VZERY:v0,v0c,v0x  -0.98618  -0.01337  -0.97281 v5,v5c,v5x  -0.98618  -0.01337  -0.97281
:VZERX:v0,v0c,v0x  -1.30444  -0.39615  -0.90829 v5,v5c,v5x  -1.30444  -0.39615  -0.90829

------- case.scf1 --------
:LMAX-WF:   10   Non-Spherical LMAX:   4

          ATOMIC SPHERE DEPENDENT PARAMETERS FOR ATOM  Pr1       
:e__0001: OVERALL ENERGY PARAMETER IS    0.9833
          OVERALL BASIS SET ON ATOM IS LAPW
:E0_0001: E( 0)=    0.9833
             APW+lo
:E0_0001: E( 0)=   -1.4174   E(BOTTOM)=   -2.063   E(TOP)=   -0.772  4  5   242
             LOCAL ORBITAL
:E1_0001: E( 1)=    1.3833
             APW+lo
:E1_0001: E( 1)=    0.0473   E(BOTTOM)=   -0.924   E(TOP)=    1.018  3  4   248
             LOCAL ORBITAL
:E3_0001: E( 3)=    1.2457   E(BOTTOM)=    1.032   E(TOP)=    1.460  0  1   125
             APW+lo
:E2_0001: E( 2)=    0.9833   E(BOTTOM)=    0.807   E(TOP)= -200.000  2 -1   119
             APW+lo

       K=   0.06250   0.00000   0.06250            1
:RKM  : MATRIX SIZE   279LOs:  40  RKM= 8.50  WEIGHT= 4.00  PGR:    
       EIGENVALUES ARE:
:EIG00001:      -1.4722803   -1.3827993   -0.3041571   -0.0250846    0.0404931
:EIG00006:       0.0640849    0.0900073    0.0927636    1.0353254    1.0559010
:EIG00011:       1.1743013    1.1897211    1.1946976    1.2022589    1.2232768
:EIG00016:       1.2552195    1.2671815    1.2703771    1.2767372    1.2817489
:EIG00021:       1.2835064    1.2911056    1.2988891    1.3256017    1.3329062
:EIG00026:       1.3583669    1.4343264    1.4446544    1.5205000    1.5646594
:EIG00031:       1.6251372    1.8077552    1.8471842    1.9127876    2.2048202
:EIG00036:       2.2517783    2.2886732    2.5402863    2.5445386    2.6770281
:EIG00041:       2.8807328    2.9319384    3.0908163    3.1456275    3.2949500
:EIG00046:       3.3036692    3.3265283    3.5012311    3.5121340    3.6543949
 
:EIG00051:       3.7610607    3.8937532    3.9453487    4.1002521    4.1092244
:EIG00056:       4.1966970    4.2631120    4.4609667    4.4912482    4.5286225
:EIG00061:       4.5859425    4.7121587    4.7189129    4.8605099    4.9133095
:EIG00066:       4.9805957    4.9843025    5.0346366    5.1611775    5.2033832
:EIG00071:       5.2886795    5.3459898    5.4151403    5.4828264    5.4849325
:EIG00076:       5.4988504    5.5523204    5.5659074    5.5947690    5.6898779
:EIG00081:       5.7103923    5.7575207    5.7939046    5.8532795    5.9086490
:EIG00086:       5.9304479    6.0705283    6.1534867    6.1743660    6.2262757
:EIG00091:       6.2861256    6.3501061    6.3784567    6.4134890    6.4203277
:EIG00096:       6.5692578    6.6039468    6.6078513    6.6372205    6.7454860
 
:EIG00101:       6.7763129    6.8805686    6.9388953    6.9646256    6.9732676
:EIG00106:       7.1072408    7.1261868    7.1954947    7.2739884    7.4461789
:EIG00111:       7.5478509    7.5808758    7.5836718    7.6397542    7.7671908
:EIG00116:       7.8328941    7.9727780    8.0719779    8.0842798    8.1378779
:EIG00121:       8.1885854    8.2249919    8.2376390    8.3788795    8.4056206
:EIG00126:       8.4211938    8.4979649    8.5875257    8.6028008    8.6602701
:EIG00131:       8.6603026
       ********************************************************

:KPT   :      NUMBER OF K-POINTS:   288

------- case.scfso --------
   0.0   0.0 angle (M,z), angle (M,x) deg
 
        SPIN-ORBIT EIGENVALUES:
     K=   0.06250   0.00000   0.06250            1
      MATRIX SIZE=  262   WEIGHT= 4.00
     EIGENVALUES ARE:
          -1.4722831   -1.4722831   -1.3828015   -1.3828015   -0.3338150
          -0.3338150   -0.0949659   -0.0949659   -0.0404274   -0.0404274
           0.1229965    0.1229965    0.1288605    0.1288605    0.1549334
           0.1549334    1.0352230    1.0352230    1.0560808    1.0560808
           1.1734216    1.1734216    1.1882915    1.1882915    1.1932087
           1.1932087    1.2011832    1.2011832    1.2215523    1.2215523
           1.2498056    1.2498056    1.2607038    1.2607038    1.2698570
           1.2698570    1.2799111    1.2799111    1.2829565    1.2829565

           1.2870483    1.2870483    1.2922042    1.2922042    1.3021268
           1.3021268    1.3277317    1.3277317    1.3346025    1.3346025
           1.3590746    1.3590746    1.4322181    1.4322181    1.4471320
           1.4471320    1.5210141    1.5210141    1.5646798    1.5646798
           1.6254936    1.6254936    1.8079578    1.8079578    1.8473026
           1.8473026    1.9130334    1.9130334    2.2053205    2.2053205
           2.2518678    2.2518678    2.2886870    2.2886870    2.5397078
           2.5397078    2.5447935    2.5447935    2.6764154    2.6764154

           2.8810667    2.8810667    2.9315506    2.9315506    3.0908161
           3.0908161    3.1452070    3.1452070    3.2948592    3.2948592
           3.3032057    3.3032057    3.3268070    3.3268070    3.4982358
           3.4982358    3.5151919    3.5151919    3.6547084    3.6547084
           3.7607422    3.7607422    3.8920908    3.8920908    3.9455332
           3.9455332    4.0997678    4.0997678    4.1090788    4.1090788
           4.1968922    4.1968922    4.2604619    4.2604619    4.4627814
           4.4627814    4.4911710    4.4911710
       ********************************************************

------- case.scf2 --------
:GMA  : POTENTIAL AND CHARGE CUT-OFF  12.00 Ry**.5




:POS001: at.nr.  -1 position = 0.00000 0.89750 0.25000  multiplicity =  2

       lmmax 16
       lm=   0 0  1 0  2 0  2 2  3 0  3 2  4 0  4 2  4 4  5 0  5 2  5 4  6 0  6 2  6 4  6 6
:FER gutzwiller fermi energy   1.20374
:EORB          0.184661774
:SUM sum of gutz band energies          4.687392290

:CHA001: total charge inside sphere   1 =     9.839912
:PCS001: partial charges sphere =  1 s,p,d,f,px,py,pz,d-z2,d-x2y2,d-xy,d-xz,d-yz 
:QTL001: 1.9331 4.9503 0.9310 2.0217 1.6508 1.6451 1.6544 0.1838 0.1675 0.1881 0.1932 0.1983

                      vxx         vyy         vzz       up to r

:VZZ001:            -0.35002     8.70325    -8.35323       2.300

:CHA  : total charge inside unit cell =      13.000000

------- case.scfc --------

        1.ATOM      Pr1                  14 CORE STATES
       CORE-FORCE in mRy/a.u. = |F|      Fx             Fy             Fz
:FCO001:   1.ATOM   1282.688647727499      0.000000000000      0.000000000000   1282.688647727499

:1S 001: 1S               -3066.337368301 Ry
:2S 001: 2S                -492.084221849 Ry
:2PP001: 2P*               -465.183997114 Ry
:2P 001: 2P                -429.786233024 Ry
:3S 001: 3S                -105.175195045 Ry
:3PP001: 3P*                -93.713060605 Ry
:3P 001: 3P                 -86.705208427 Ry
:3DD001: 3D*                -66.631764426 Ry
:3D 001: 3D                 -65.120217429 Ry
:4S 001: 4S                 -19.851676908 Ry
:4PP001: 4P*                -15.558496881 Ry
:4P 001: 4P                 -14.031128028 Ry
:4DD001: 4D*                 -6.964209436 Ry
:4D 001: 4D                  -6.694843769 Ry

------- case.scfm --------
:CINT001 Core Integral Atom   1   45.998439

       DENSITY AT NUCLEUS
        JATOM        VALENCE       SEMI-CORE          CORE           TOTAL
:RTO001:   1      640.212206        0.000000   656825.340475   657465.552681
     
       CHARGES OF NEW CHARGE DENSITY
:NTO   : INTERSTITIAL CHARGE =     6.321179
:NPC   : PW Pseudocharge     =    17.707347
:NTO001: CHARGE SPHERE  1    =    55.838351

:NEC01: NUCLEAR AND ELECTRONIC CHARGE    118.00000   117.99788
     
       CHARGES OF OLD CHARGE DENSITY
:OTO   : INTERSTITIAL CHARGE =     6.223695
:OPC   : PW Pseudocharge     =    17.666086
:OTO001: CHARGE SPHERE  1    =    55.888153

:NEC02: NUCLEAR AND ELECTRONIC CHARGE    118.00000   118.00000
     
       CONVERGENCE TEST
:DTO001: DIFFERENCE IN SPHERE  1 =  0.0986089

:DIS  :  CHARGE DISTANCE       ( 0.0986089 for atom    1 spin 1)      0.0986089
 PW Mixed is          294
 
******************************************************
* MULTISECANT MIXING VER9 RELEASE 10.4.0              *
* Slow Mode, cautious                                *
* Fixed density scale                                *
* Regularization       1.000E-04                     *
* Step Trust Radius    0.75000                       *
* Trust Upper Limit    2.000E+00                     *
* Max Number of Memory Steps   12                    *
******************************************************
 
:PWTMP   1.7340E+02  1.9467E+02  2.7533E+02
:PLANE:  PW TOTAL      5.9421 DISTAN   2.52E-02  4.25E-01 %
:CHARG:  CLM/ATOM   1381.9229 DISTAN   1.40E-01  1.01E-02 %
 
Step History
        DMIX         DMIXT        Red     Pred      Trust     Lambda    MagRel    MagAbs     Beta
  1   3.5000E-02   3.5000E-02 -1.00E+00  1.00E+00 -1.00E+01  1.00E+00  3.50E-02  3.50E-02  1.00E+00
  2   2.5000E-02   2.5000E-02 -1.00E+00  1.00E+00 -1.00E+01  1.00E+00  2.50E-02  3.84E-03  1.00E+00
:JACOBIANS    1.041E-01   1.176E-01
  
:TRUST:  Step 2.81E-02  Charge 7.50E-02 (e) CTO  2.50E-01 (e) PW  3.50E-01 (e)
:DIRM :  MEMORY  1/12 SCALE   1.000
:MIX  :   PRATT  REGULARIZATION:  1.00E-04 GREED: 0.02805  Expand 1.12  0.0281                
     
       CHARGES OF MIXED CHARGE DENSITY
:CTO   : INTERSTITIAL CHARGE =     6.247896
:CPC   : PW Pseudocharge     =    17.816675
:CTO001: CHARGE SPHERE  1    =    55.876052

:NEC03: NUCLEAR AND ELECTRONIC CHARGE    118.00000   118.00000

PW CHANGE     H    K    L      Current       Change    Residue
:PTO001:      0    0    0  8.74020157E-02  6.348E-04  5.332E-04
:PTO003:      0    2    0  1.95881635E-02  1.691E-04 -5.449E-05
:PTO004:     -1    1    0  9.09405250E-02  9.101E-04 -4.197E-05
:PTO005:      0    2   -1 -1.03540001E-01 -1.066E-03  4.509E-05
:PTO006:      0    0   -2 -5.37440895E-02 -5.529E-04  2.434E-05
:PTO007:     -1    1   -1 -1.06219968E-01 -1.161E-03  8.280E-05
:PTO008:      0    2   -2 -1.41751779E-02 -1.958E-04 -1.683E-05
:PTO009:     -1    1   -2 -7.00086539E-02 -9.343E-04  8.222E-05
:PTO011:     -1    3    0 -9.95335408E-03 -1.502E-04 -9.363E-06
:PTO012:     -1    3   -1 -3.98308554E-02 -6.405E-04  2.017E-05
:PTO013:      0    4    0 -6.46206928E-03 -1.178E-04 -8.678E-06
:PTO014:      0    2   -3  1.50753953E-02  2.722E-04  5.094E-05

:ENE  : ********** TOTAL ENERGY IN Ry =       -36944.17560834

       TOTAL FORCE IN mRy/a.u. = |F|     Fx             Fy             Fz     with/without FOR in case.in2
:FOR001:   1.ATOM          0.571          0.000          0.000          0.571 partial forces
       TOTAL FORCE WITH RESPECT TO GLOBAL CARTESIAN COORDINATES:
:FCA001:   1.ATOM                         0.000          0.571          0.000 partial forces
       TOTAL FORCE WITH RESPECT TO THE GLOBAL COORDINATE SYSTEM:
:FGL001:   1.ATOM                 0.000000000     0.570637783     0.000000000 partial forces

------- case.scf0 --------
 Flat Integration
 New Mode for Coulomb Integral
 Consistent 3/8+Simpson combinations
 Extension of core to zero
 LDM version in phi
 Fifth-order quadrature in outwin


            ---------
:ITE086: 86. ITERATION
            ---------

:NATO :    1 INDEPENDENT AND    2 TOTAL ATOMS IN UNITCELL
       SUBSTANCE: aU                                                          

       LATTICE                      = CXY 
:POT  : POTENTIAL OPTION EX_LDA EC_LDA VX_LDA VC_LDA
:LAT  : LATTICE CONSTANTS=  5.37049 10.89808  9.40854    1.571    1.571    1.571
:VOL  : UNIT CELL VOLUME =     275.33200
       MODE OF CALCULATION IS       = RELA
       NON-SPINPOLARIZED CALCULATION
:IFFT  : FFT-parameters:   48   90   72 Factor: 2.00


   CONVERGENCE PARAMETER FOR PSEUDOCHARGE: NCON=  9
   MAXIMAL VALUE OF RMT(JATOM)*ABSK(NKK) : RK  =27.59804


:VKCOUL :  VK-COUL convergence: 0.178E-06
       ATOMNUMBER=  1 Pr1        VCOUL-ZERO =  0.65607E+00
:EFG001:                        EFG         =     8.57122   *10**21  V / m**2
                               V20  TOT/SRF=    -6.87217    -0.07565
                               V22  TOT/SRF=    -4.60357    -0.01031
                               V22M TOT/SRF=     0.00000     0.00000
                               V21  TOT/SRF=     0.00000     0.00000
                               V21M TOT/SRF=     0.00000     0.00000

             -0.63592    0.00000    0.00000       -0.63592    0.00000    0.00000
              0.00000    8.57122    0.00000        0.00000    8.57122    0.00000
              0.00000    0.00000   -7.93530        0.00000    0.00000   -7.93530

         MAIN DIRECTIONS OF THE EFG   1.0000  0.0000  0.0000
                                      0.0000  1.0000  0.0000
                                      0.0000  0.0000  1.0000
:ANG001:  ANGLE WITH OLD X-AXIS =         0.0

:ETA001:                         ASYMM. ETA =     0.85161


     HELLMANN-FEYNMAN-FORCE IN mRy/a.u. = |F|  Fx       Fy             Fz
:FHF001:   1.ATOM   1293.986115067710      0.000000000000      0.000000000000  -1293.986115067710

:FIT001: LUSE= 13 SIGMA OF V-XC FIT FOR ATOM  1  0.7503529E-04
:FIT001: LUSE= 13 SIGMA OF V-XC FIT FOR ATOM  1  0.7503529E-04
:DEN  : DENSITY INTEGRAL  =        -14220.34685375   (Ry)
       ELS_POTENTIAL_AT Z=0 and Z=0.5:   1.02256   1.02256
       ELS_POTENTIAL_AT Y=0 and Y=0.5:  -0.01337  -0.01337
:VZERO:v0,v0c,v0x   0.27442   1.02256  -0.74814 v5,v5c,v5x   0.27442   1.02256  -0.74814
:VZERY:v0,v0c,v0x  -0.98787  -0.01337  -0.97451 v5,v5c,v5x  -0.98787  -0.01337  -0.97451
:VZERX:v0,v0c,v0x  -1.30875  -0.39865  -0.91010 v5,v5c,v5x  -1.30875  -0.39865  -0.91010

------- case.scf1 --------
:LMAX-WF:   10   Non-Spherical LMAX:   4

          ATOMIC SPHERE DEPENDENT PARAMETERS FOR ATOM  Pr1       
:e__0001: OVERALL ENERGY PARAMETER IS    0.9833
          OVERALL BASIS SET ON ATOM IS LAPW
:E0_0001: E( 0)=    0.9833
             APW+lo
:E0_0001: E( 0)=   -1.4230   E(BOTTOM)=   -2.067   E(TOP)=   -0.779  4  5   233
             LOCAL ORBITAL
:E1_0001: E( 1)=    1.3833
             APW+lo
:E1_0001: E( 1)=    0.0428   E(BOTTOM)=   -0.926   E(TOP)=    1.012  3  4   247
             LOCAL ORBITAL
:E3_0001: E( 3)=    1.2324   E(BOTTOM)=    1.021   E(TOP)=    1.444  0  1   124
             APW+lo
:E2_0001: E( 2)=    0.9833   E(BOTTOM)=    0.806   E(TOP)= -200.000  2 -1   121
             APW+lo

       K=   0.06250   0.00000   0.06250            1
:RKM  : MATRIX SIZE   279LOs:  40  RKM= 8.50  WEIGHT= 4.00  PGR:    
       EIGENVALUES ARE:
:EIG00001:      -1.4767049   -1.3878597   -0.3056786   -0.0280917    0.0370996
:EIG00006:       0.0604842    0.0862959    0.0889970    1.0369524    1.0574602
:EIG00011:       1.1684137    1.1809794    1.1846146    1.1933860    1.2140796
:EIG00016:       1.2432816    1.2549291    1.2581515    1.2645678    1.2698735
:EIG00021:       1.2756963    1.2801329    1.2858227    1.3117580    1.3218602
:EIG00026:       1.3508031    1.4337844    1.4412753    1.5196285    1.5638207
:EIG00031:       1.6240524    1.8064665    1.8468349    1.9111029    2.2046801
:EIG00036:       2.2517352    2.2891977    2.5405195    2.5458788    2.6773890
:EIG00041:       2.8813311    2.9328889    3.0922855    3.1463913    3.2963686
:EIG00046:       3.3057439    3.3278147    3.5032461    3.5137056    3.6567844
 
:EIG00051:       3.7625473    3.8951200    3.9459606    4.1017567    4.1093892
:EIG00056:       4.1976695    4.2641757    4.4622613    4.4908094    4.5305806
:EIG00061:       4.5885374    4.7144488    4.7200505    4.8609835    4.9139517
:EIG00066:       4.9832127    4.9865253    5.0372032    5.1632290    5.2053635
:EIG00071:       5.2911981    5.3478446    5.4169974    5.4852410    5.4875726
:EIG00076:       5.5010283    5.5549587    5.5683872    5.5973700    5.6926639
:EIG00081:       5.7132234    5.7602582    5.7968954    5.8560949    5.9112129
:EIG00086:       5.9338993    6.0734941    6.1561239    6.1776701    6.2289880
:EIG00091:       6.2888595    6.3530247    6.3804692    6.4156905    6.4217297
:EIG00096:       6.5727218    6.6066142    6.6101056    6.6397487    6.7477956
 
:EIG00101:       6.7785753    6.8833974    6.9416208    6.9675268    6.9759259
:EIG00106:       7.1110221    7.1289120    7.1974378    7.2764006    7.4496804
:EIG00111:       7.5496286    7.5841499    7.5869619    7.6425755    7.7696807
:EIG00116:       7.8365200    7.9746519    8.0739508    8.0858396    8.1402238
:EIG00121:       8.1915011    8.2270519    8.2402916    8.3817409    8.4088407
:EIG00126:       8.4242261    8.5007650    8.5902827    8.6063479    8.6632813
:EIG00131:       8.6634564
       ********************************************************

:KPT   :      NUMBER OF K-POINTS:   288

------- case.scfso --------
   0.0   0.0 angle (M,z), angle (M,x) deg
 
        SPIN-ORBIT EIGENVALUES:
     K=   0.06250   0.00000   0.06250            1
      MATRIX SIZE=  262   WEIGHT= 4.00
     EIGENVALUES ARE:
          -1.4767077   -1.4767077   -1.3878619   -1.3878619   -0.3357240
          -0.3357240   -0.0988990   -0.0988990   -0.0433823   -0.0433823
           0.1196799    0.1196799    0.1254311    0.1254311    0.1514578
           0.1514578    1.0368447    1.0368447    1.0576359    1.0576360
           1.1673520    1.1673520    1.1794337    1.1794337    1.1830577
           1.1830577    1.1922223    1.1922223    1.2121741    1.2121741
           1.2375736    1.2375736    1.2489386    1.2489386    1.2580406
           1.2580406    1.2684946    1.2684946    1.2721653    1.2721653

           1.2774482    1.2774482    1.2811188    1.2811188    1.2894051
           1.2894051    1.3139617    1.3139617    1.3235334    1.3235334
           1.3513620    1.3513621    1.4308437    1.4308437    1.4444600
           1.4444600    1.5201488    1.5201488    1.5638248    1.5638248
           1.6244074    1.6244074    1.8066706    1.8066706    1.8469422
           1.8469422    1.9113545    1.9113545    2.2051805    2.2051805
           2.2518228    2.2518228    2.2892099    2.2892099    2.5400213
           2.5400213    2.5460549    2.5460549    2.6767772    2.6767772

           2.8816657    2.8816657    2.9325006    2.9325006    3.0922760
           3.0922760    3.1459766    3.1459766    3.2962922    3.2962922
           3.3052632    3.3052632    3.3280954    3.3280954    3.5001676
           3.5001676    3.5168448    3.5168448    3.6570951    3.6570951
           3.7622282    3.7622282    3.8934290    3.8934290    3.9461706
           3.9461706    4.1012685    4.1012685    4.1092471    4.1092471
           4.1978782    4.1978782    4.2615286    4.2615286    4.4640796
           4.4640796    4.4908032    4.4908032
       ********************************************************

------- case.scf2 --------
:GMA  : POTENTIAL AND CHARGE CUT-OFF  12.00 Ry**.5




:POS001: at.nr.  -1 position = 0.00000 0.89750 0.25000  multiplicity =  2

       lmmax 16
       lm=   0 0  1 0  2 0  2 2  3 0  3 2  4 0  4 2  4 4  5 0  5 2  5 4  6 0  6 2  6 4  6 6
:FER gutzwiller fermi energy   1.20301
:EORB          0.131174986
:SUM sum of gutz band energies          4.646432824

:CHA001: total charge inside sphere   1 =     9.871115
:PCS001: partial charges sphere =  1 s,p,d,f,px,py,pz,d-z2,d-x2y2,d-xy,d-xz,d-yz 
:QTL001: 1.9333 4.9552 0.9261 2.0528 1.6524 1.6469 1.6559 0.1827 0.1666 0.1873 0.1921 0.1974

                      vxx         vyy         vzz       up to r

:VZZ001:            -0.37300     8.54689    -8.17389       2.300

:CHA  : total charge inside unit cell =      13.000000

------- case.scfc --------

        1.ATOM      Pr1                  14 CORE STATES
       CORE-FORCE in mRy/a.u. = |F|      Fx             Fy             Fz
:FCO001:   1.ATOM   1292.486675886775      0.000000000000      0.000000000000   1292.486675886775

:1S 001: 1S               -3066.365267851 Ry
:2S 001: 2S                -492.112333740 Ry
:2PP001: 2P*               -465.212063626 Ry
:2P 001: 2P                -429.814315765 Ry
:3S 001: 3S                -105.202838005 Ry
:3PP001: 3P*                -93.740758497 Ry
:3P 001: 3P                 -86.732792188 Ry
:3DD001: 3D*                -66.659544596 Ry
:3D 001: 3D                 -65.147971002 Ry
:4S 001: 4S                 -19.872771445 Ry
:4PP001: 4P*                -15.579169202 Ry
:4P 001: 4P                 -14.051150332 Ry
:4DD001: 4D*                 -6.983072198 Ry
:4D 001: 4D                  -6.713484059 Ry

------- case.scfm --------
:CINT001 Core Integral Atom   1   45.998456

       DENSITY AT NUCLEUS
        JATOM        VALENCE       SEMI-CORE          CORE           TOTAL
:RTO001:   1      641.297657        0.000000   656826.667736   657467.965393
     
       CHARGES OF NEW CHARGE DENSITY
:NTO   : INTERSTITIAL CHARGE =     6.258817
:NPC   : PW Pseudocharge     =    17.688974
:NTO001: CHARGE SPHERE  1    =    55.869571

:NEC01: NUCLEAR AND ELECTRONIC CHARGE    118.00000   117.99796
     
       CHARGES OF OLD CHARGE DENSITY
:OTO   : INTERSTITIAL CHARGE =     6.247896
:OPC   : PW Pseudocharge     =    17.816675
:OTO001: CHARGE SPHERE  1    =    55.876052

:NEC02: NUCLEAR AND ELECTRONIC CHARGE    118.00000   118.00000
     
       CONVERGENCE TEST
:DTO001: DIFFERENCE IN SPHERE  1 =  0.0324502

:DIS  :  CHARGE DISTANCE       ( 0.0324502 for atom    1 spin 1)      0.0324502
 PW Mixed is          294
 
******************************************************
* MULTISECANT MIXING VER9 RELEASE 10.4.0              *
* Slow Mode, cautious                                *
* Fixed density scale                                *
* Regularization       1.000E-04                     *
* Step Trust Radius    0.75000                       *
* Trust Upper Limit    2.000E+00                     *
* Max Number of Memory Steps   12                    *
******************************************************
 
:PWTMP   1.7340E+02  1.9467E+02  2.7533E+02
:PLANE:  PW TOTAL      5.9970 DISTAN   4.67E-02  7.79E-01 %
:CHARG:  CLM/ATOM   1381.9217 DISTAN   4.62E-02  3.34E-03 %
 
Step History
        DMIX         DMIXT        Red     Pred      Trust     Lambda    MagRel    MagAbs     Beta
  1   3.5000E-02   3.5000E-02 -1.00E+00  1.00E+00 -1.00E+01  1.00E+00  3.50E-02  3.50E-02  1.00E+00
  2   2.5000E-02   2.5000E-02  9.23E-01  1.00E+00 -1.00E+01  1.00E+00  2.50E-02  3.84E-03  1.00E+00
  3   2.8052E-02   2.8052E-02 -1.00E+00  1.00E+00 -1.00E+01  1.00E+00  2.81E-02  3.98E-03  1.00E+00
:JACOBIANS    1.375E-01   1.645E-01
  
:NORMS:  1/Froebius, Min, Max, Used   0.4732E+00  0.3419E+00  0.6838E+00  0.4732E+00
:INFO :  Number of Memory Steps    2 Skipping    0
:INFO :  SLambda=    0.9808883164  Max    0.9808883164
:PREDicted Charge, CTotal, PW Trust    1.056E-02   2.113E-02   9.610E-02
:PREDicted DMix, Beta, BLim   1.8500E-01  8.4181E-01  6.5231E-01

Eigenvalues, unscaled except for SY+YY
   #     SY Real        SY Imag          SS             YY         SY+YY Real      SY+YY Imag
   1   7.532011E-01   0.000000E+00   4.478748E-01   1.999983E+00   2.738785E+00   0.000000E+00
   2   1.498801E-15   0.000000E+00  -5.551115E-17   1.699755E-05   2.073790E-05   0.000000E+00
 
:INFO :  Singular value  2.739E+00 Weight  1.000E+00 Projection  1.444E-02
:INFO :  Singular value  2.074E-05 Weight  1.064E-02 Projection -1.667E-01
:RANK :  ACTIVE   1.01/2  =  50.53 % ; YY RANK   1.01/2  =  50.36 %
 
:DLIM :  Beta Active  8.814E-01
:BLIM :  VZERO Control Off
:TRUST:  Step 6.12E-01  Charge 7.50E-02 (e) CTO  2.50E-01 (e) PW  3.50E-01 (e)
:DIRM :  MEMORY  2/12 SCALE   1.000 RED  0.46 PRED  1.00 NEXT  0.97 BETA  0.88
:TRAVE:  Charge 7.90E-04 (e) CTO  1.58E-03 (e) PW  1.84E-02 (e)
:DIRP :  |MSR1|= 1.048E-02 |PRATT|= 4.672E-02 ANGLE=   5.6 DEGREES
:DIRQ :  |MSR1|= 3.372E-03 |PRATT|= 4.618E-02 ANGLE=  64.2 DEGREES
:DIRT :  |MSR1|= 1.101E-02 |PRATT|= 6.569E-02 ANGLE=  39.9 DEGREES
:MIX  :   MSD1   REGULARIZATION:  2.00E-04 GREED: 0.07013  Newton 1.00  0.1676                
     
       CHARGES OF MIXED CHARGE DENSITY
:CTO   : INTERSTITIAL CHARGE =     6.246316
:CPC   : PW Pseudocharge     =    17.789060
:CTO001: CHARGE SPHERE  1    =    55.876842

:NEC03: NUCLEAR AND ELECTRONIC CHARGE    118.00000   118.00000

PW CHANGE     H    K    L      Current       Change    Residue
:PTO001:      0    0    0  8.72959769E-02 -1.060E-04 -3.958E-04
:PTO003:      0    2    0  1.95540391E-02 -3.412E-05 -1.709E-04
:PTO004:     -1    1    0  9.07650088E-02 -1.755E-04 -8.268E-04
:PTO005:      0    2   -1 -1.03334827E-01  2.052E-04  9.627E-04
:PTO006:      0    0   -2 -5.36381058E-02  1.060E-04  4.916E-04
:PTO007:     -1    1   -1 -1.05994965E-01  2.250E-04  1.068E-03
:PTO008:      0    2   -2 -1.41394181E-02  3.576E-05  1.486E-04
:PTO009:     -1    1   -2 -6.98283429E-02  1.803E-04  8.446E-04
:PTO011:     -1    3    0 -9.92498365E-03  2.837E-05  1.293E-04
:PTO012:     -1    3   -1 -3.97108649E-02  1.200E-04  5.241E-04
:PTO013:      0    4    0 -6.44050345E-03  2.157E-05  9.015E-05
:PTO014:      0    2   -3  1.50269834E-02 -4.841E-05 -1.894E-04

:ENE  : ********** TOTAL ENERGY IN Ry =       -36944.17451677

       TOTAL FORCE IN mRy/a.u. = |F|     Fx             Fy             Fz     with/without FOR in case.in2
:FOR001:   1.ATOM          1.499          0.000          0.000         -1.499 partial forces
       TOTAL FORCE WITH RESPECT TO GLOBAL CARTESIAN COORDINATES:
:FCA001:   1.ATOM                         0.000         -1.499          0.000 partial forces
       TOTAL FORCE WITH RESPECT TO THE GLOBAL COORDINATE SYSTEM:
:FGL001:   1.ATOM                 0.000000000    -1.499439181     0.000000000 partial forces

------- case.scf0 --------
 Flat Integration
 New Mode for Coulomb Integral
 Consistent 3/8+Simpson combinations
 Extension of core to zero
 LDM version in phi
 Fifth-order quadrature in outwin


            ---------
:ITE087: 87. ITERATION
            ---------

:NATO :    1 INDEPENDENT AND    2 TOTAL ATOMS IN UNITCELL
       SUBSTANCE: aU                                                          

       LATTICE                      = CXY 
:POT  : POTENTIAL OPTION EX_LDA EC_LDA VX_LDA VC_LDA
:LAT  : LATTICE CONSTANTS=  5.37049 10.89808  9.40854    1.571    1.571    1.571
:VOL  : UNIT CELL VOLUME =     275.33200
       MODE OF CALCULATION IS       = RELA
       NON-SPINPOLARIZED CALCULATION
:IFFT  : FFT-parameters:   48   90   72 Factor: 2.00


   CONVERGENCE PARAMETER FOR PSEUDOCHARGE: NCON=  9
   MAXIMAL VALUE OF RMT(JATOM)*ABSK(NKK) : RK  =27.59804


:VKCOUL :  VK-COUL convergence: 0.177E-06
       ATOMNUMBER=  1 Pr1        VCOUL-ZERO =  0.65549E+00
:EFG001:                        EFG         =     8.56694   *10**21  V / m**2
                               V20  TOT/SRF=    -6.87634    -0.07562
                               V22  TOT/SRF=    -4.59688    -0.01029
                               V22M TOT/SRF=     0.00000     0.00000
                               V21  TOT/SRF=     0.00000     0.00000
                               V21M TOT/SRF=     0.00000     0.00000

             -0.62683    0.00000    0.00000       -0.62683    0.00000    0.00000
              0.00000    8.56694    0.00000        0.00000    8.56694    0.00000
              0.00000    0.00000   -7.94011        0.00000    0.00000   -7.94011

         MAIN DIRECTIONS OF THE EFG   1.0000  0.0000  0.0000
                                      0.0000  1.0000  0.0000
                                      0.0000  0.0000  1.0000
:ANG001:  ANGLE WITH OLD X-AXIS =         0.0

:ETA001:                         ASYMM. ETA =     0.85366


     HELLMANN-FEYNMAN-FORCE IN mRy/a.u. = |F|  Fx       Fy             Fz
:FHF001:   1.ATOM   1292.300354095116      0.000000000000      0.000000000000  -1292.300354095116

:FIT001: LUSE= 13 SIGMA OF V-XC FIT FOR ATOM  1  0.7506567E-04
:FIT001: LUSE= 13 SIGMA OF V-XC FIT FOR ATOM  1  0.7506567E-04
:DEN  : DENSITY INTEGRAL  =        -14220.51166002   (Ry)
       ELS_POTENTIAL_AT Z=0 and Z=0.5:   1.02187   1.02187
       ELS_POTENTIAL_AT Y=0 and Y=0.5:  -0.01347  -0.01347
:VZERO:v0,v0c,v0x   0.27379   1.02187  -0.74808 v5,v5c,v5x   0.27379   1.02187  -0.74808
:VZERY:v0,v0c,v0x  -0.98771  -0.01347  -0.97424 v5,v5c,v5x  -0.98771  -0.01347  -0.97424
:VZERX:v0,v0c,v0x  -1.30809  -0.39824  -0.90986 v5,v5c,v5x  -1.30809  -0.39824  -0.90986

------- case.scf1 --------
:LMAX-WF:   10   Non-Spherical LMAX:   4

          ATOMIC SPHERE DEPENDENT PARAMETERS FOR ATOM  Pr1       
:e__0001: OVERALL ENERGY PARAMETER IS    0.9833
          OVERALL BASIS SET ON ATOM IS LAPW
:E0_0001: E( 0)=    0.9833
             APW+lo
:E0_0001: E( 0)=   -1.4230   E(BOTTOM)=   -2.067   E(TOP)=   -0.779  4  5   237
             LOCAL ORBITAL
:E1_0001: E( 1)=    1.3833
             APW+lo
:E1_0001: E( 1)=    0.0427   E(BOTTOM)=   -0.926   E(TOP)=    1.012  3  4   241
             LOCAL ORBITAL
:E3_0001: E( 3)=    1.2330   E(BOTTOM)=    1.021   E(TOP)=    1.445  0  1   123
             APW+lo
:E2_0001: E( 2)=    0.9833   E(BOTTOM)=    0.806   E(TOP)= -200.000  2 -1   119
             APW+lo

       K=   0.06250   0.00000   0.06250            1
:RKM  : MATRIX SIZE   279LOs:  40  RKM= 8.50  WEIGHT= 4.00  PGR:    
       EIGENVALUES ARE:
:EIG00001:      -1.4767434   -1.3878553   -0.3059145   -0.0282208    0.0369974
:EIG00006:       0.0603961    0.0862067    0.0889204    1.0365152    1.0570249
:EIG00011:       1.1685205    1.1812719    1.1849850    1.1936785    1.2143916
:EIG00016:       1.2437786    1.2554524    1.2586730    1.2650821    1.2703726
:EIG00021:       1.2759367    1.2805653    1.2864017    1.3123865    1.3222763
:EIG00026:       1.3509635    1.4334892    1.4411657    1.5193585    1.5635508
:EIG00031:       1.6237936    1.8062241    1.8465255    1.9108875    2.2043689
:EIG00036:       2.2514191    2.2888371    2.5401750    2.5454623    2.6770341
:EIG00041:       2.8809632    2.9324979    3.0918575    3.1460115    3.2959436
:EIG00046:       3.3052744    3.3273946    3.5027789    3.5132693    3.6562936
 
:EIG00051:       3.7621131    3.8946950    3.9455881    4.1013198    4.1090374
:EIG00056:       4.1972762    4.2637761    4.4618470    4.4904957    4.5301071
:EIG00061:       4.5880272    4.7139552    4.7196440    4.8606142    4.9135613
:EIG00066:       4.9826947    4.9860329    5.0366927    5.1627507    5.2048945
:EIG00071:       5.2906922    5.3473831    5.4165408    5.4847410    5.4870569
:EIG00076:       5.5005443    5.5544417    5.5678811    5.5968572    5.6921402
:EIG00081:       5.7126947    5.7597354    5.7963554    5.8555709    5.9107067
:EIG00086:       5.9333303    6.0729592    6.1556088    6.1771075    6.2284617
:EIG00091:       6.2883364    6.3524919    6.3799864    6.4151987    6.4212767
:EIG00096:       6.5721570    6.6061018    6.6096056    6.6392319    6.7472980
 
:EIG00101:       6.7780860    6.8828632    6.9410965    6.9669894    6.9754065
:EIG00106:       7.1104299    7.1283860    7.1969688    7.2758986    7.4491050
:EIG00111:       7.5491616    7.5835885    7.5863958    7.6420431    7.7691548
:EIG00116:       7.8359344    7.9741614    8.0734621    8.0853683    8.1397085
:EIG00121:       8.1909574    8.2265503    8.2397613    8.3811981    8.4082754
:EIG00126:       8.4236746    8.5002300    8.5897495    8.6057674    8.6627343
:EIG00131:       8.6628982
       ********************************************************

:KPT   :      NUMBER OF K-POINTS:   288

------- case.scfso --------
   0.0   0.0 angle (M,z), angle (M,x) deg
 
        SPIN-ORBIT EIGENVALUES:
     K=   0.06250   0.00000   0.06250            1
      MATRIX SIZE=  262   WEIGHT= 4.00
     EIGENVALUES ARE:
          -1.4767462   -1.4767462   -1.3878575   -1.3878575   -0.3359333
          -0.3359333   -0.0989680   -0.0989680   -0.0435154   -0.0435154
           0.1195723    0.1195723    0.1253318    0.1253318    0.1513559
           0.1513559    1.0364079    1.0364079    1.0572009    1.0572010
           1.1674723    1.1674723    1.1797346    1.1797346    1.1834328
           1.1834328    1.1925210    1.1925210    1.2124998    1.2124998
           1.2380919    1.2380919    1.2494246    1.2494246    1.2585380
           1.2585380    1.2689805    1.2689805    1.2726155    1.2726156

           1.2777671    1.2777671    1.2815511    1.2815511    1.2899582
           1.2899582    1.3145852    1.3145852    1.3239525    1.3239525
           1.3515331    1.3515331    1.4306106    1.4306106    1.4442965
           1.4442965    1.5198783    1.5198783    1.5635560    1.5635560
           1.6241488    1.6241488    1.8064281    1.8064281    1.8466336
           1.8466336    1.9111386    1.9111386    2.2048693    2.2048693
           2.2515068    2.2515068    2.2888494    2.2888494    2.5396723
           2.5396723    2.5456428    2.5456428    2.6764222    2.6764222

           2.8812977    2.8812977    2.9321096    2.9321096    3.0918487
           3.0918487    3.1455963    3.1455963    3.2958663    3.2958663
           3.3047947    3.3047947    3.3276752    3.3276752    3.4997064
           3.4997064    3.5164028    3.5164028    3.6566045    3.6566045
           3.7617941    3.7617941    3.8930059    3.8930059    3.9457964
           3.9457964    4.1008319    4.1008319    4.1088951    4.1088951
           4.1974840    4.1974840    4.2611285    4.2611285    4.4636651
           4.4636651    4.4904850    4.4904850
       ********************************************************

------- case.scf2 --------
:GMA  : POTENTIAL AND CHARGE CUT-OFF  12.00 Ry**.5




:POS001: at.nr.  -1 position = 0.00000 0.89750 0.25000  multiplicity =  2

       lmmax 16
       lm=   0 0  1 0  2 0  2 2  3 0  3 2  4 0  4 2  4 4  5 0  5 2  5 4  6 0  6 2  6 4  6 6
:FER gutzwiller fermi energy   1.20243
:EORB          0.136076815
:SUM sum of gutz band energies          4.639280229

:CHA001: total charge inside sphere   1 =     9.870893
:PCS001: partial charges sphere =  1 s,p,d,f,px,py,pz,d-z2,d-x2y2,d-xy,d-xz,d-yz 
:QTL001: 1.9332 4.9547 0.9253 2.0540 1.6523 1.6467 1.6558 0.1825 0.1664 0.1872 0.1919 0.1973

                      vxx         vyy         vzz       up to r

:VZZ001:            -0.39281     8.54999    -8.15718       2.300

:CHA  : total charge inside unit cell =      13.000000

------- case.scfc --------

        1.ATOM      Pr1                  14 CORE STATES
       CORE-FORCE in mRy/a.u. = |F|      Fx             Fy             Fz
:FCO001:   1.ATOM   1291.104348413211      0.000000000000      0.000000000000   1291.104348413211

:1S 001: 1S               -3066.362498152 Ry
:2S 001: 2S                -492.109781563 Ry
:2PP001: 2P*               -465.209463112 Ry
:2P 001: 2P                -429.811733419 Ry
:3S 001: 3S                -105.200768384 Ry
:3PP001: 3P*                -93.738660470 Ry
:3P 001: 3P                 -86.730726825 Ry
:3DD001: 3D*                -66.657399961 Ry
:3D 001: 3D                 -65.145836927 Ry
:4S 001: 4S                 -19.871562789 Ry
:4PP001: 4P*                -15.577994823 Ry
:4P 001: 4P                 -14.050036034 Ry
:4DD001: 4D*                 -6.982050030 Ry
:4D 001: 4D                  -6.712481369 Ry

------- case.scfm --------
:CINT001 Core Integral Atom   1   45.998455

       DENSITY AT NUCLEUS
        JATOM        VALENCE       SEMI-CORE          CORE           TOTAL
:RTO001:   1      641.182559        0.000000   656826.455677   657467.638235
     
       CHARGES OF NEW CHARGE DENSITY
:NTO   : INTERSTITIAL CHARGE =     6.259161
:NPC   : PW Pseudocharge     =    17.687862
:NTO001: CHARGE SPHERE  1    =    55.869349

:NEC01: NUCLEAR AND ELECTRONIC CHARGE    118.00000   117.99786
     
       CHARGES OF OLD CHARGE DENSITY
:OTO   : INTERSTITIAL CHARGE =     6.246316
:OPC   : PW Pseudocharge     =    17.789060
:OTO001: CHARGE SPHERE  1    =    55.876842

:NEC02: NUCLEAR AND ELECTRONIC CHARGE    118.00000   118.00000
     
       CONVERGENCE TEST
:DTO001: DIFFERENCE IN SPHERE  1 =  0.0294483

:DIS  :  CHARGE DISTANCE       ( 0.0294483 for atom    1 spin 1)      0.0294483
 PW Mixed is          294
 
******************************************************
* MULTISECANT MIXING VER9 RELEASE 10.4.0              *
* Standard Mode with controls                        *
* Fixed density scale                                *
* Regularization       1.000E-04                     *
* Trust Upper Limit    5.000E+00                     *
* Max Number of Memory Steps    8                    *
******************************************************
 
:PWTMP   1.7340E+02  1.9467E+02  2.7533E+02
:PLANE:  PW TOTAL      5.9870 DISTAN   3.68E-02  6.15E-01 %
:CHARG:  CLM/ATOM   1381.9230 DISTAN   4.19E-02  3.03E-03 %
 
Step History
        DMIX         DMIXT        Red     Pred      Trust     Lambda    MagRel    MagAbs     Beta
  1   3.5000E-02   3.5000E-02 -1.00E+00  1.00E+00 -1.00E+01  1.00E+00  3.50E-02  3.50E-02  1.00E+00
  2   2.5000E-02   2.5000E-02  9.23E-01  1.00E+00 -1.00E+01  1.00E+00  2.50E-02  3.84E-03  1.00E+00
  3   2.8052E-02   2.8052E-02  4.63E-01  1.00E+00 -1.00E+01  9.81E-01  2.81E-02  3.98E-03  1.00E+00
  4   7.0129E-02   7.0129E-02 -1.00E+00  9.70E-01  6.12E-01  1.00E+00  1.68E-01  1.10E-02  8.81E-01
:JACOBIANS    4.521E-01   2.467E-01
  
:NORMS:  1/Froebius, Min, Max, Used   0.6290E+00  0.5714E+00  0.9205E+00  0.6687E+00
:INFO :  Number of Memory Steps    3 Skipping    0
:INFO :  SLambda=    0.7812360915  Max    1.1930453453
:PREDicted Charge, CTotal, PW Trust    1.564E-03   3.127E-03   9.803E-02
:PREDicted DMix, Beta, BLim   5.9483E-01  4.3255E+00  2.3187E+00

Eigenvalues, unscaled except for SY+YY
   #     SY Real        SY Imag          SS             YY         SY+YY Real      SY+YY Imag
   1   1.368649E+00   0.000000E+00   1.129700E+00   2.526017E+00   3.532765E+00   0.000000E+00
   2  -9.657994E-17   0.000000E+00   5.724148E-02   4.739823E-01  -8.999984E-11   0.000000E+00
   3   1.698799E-01   0.000000E+00   2.842737E-17   8.915999E-07   6.691897E-01   0.000000E+00
 
:INFO :  Singular value  3.539E+00 Weight  1.000E+00 Projection  1.466E-02
:INFO :  Singular value  6.681E-01 Weight  1.000E+00 Projection -7.418E-02
:INFO :  Singular value  9.000E-11 Weight  1.269E-13 Projection -6.916E-10
:RANK :  ACTIVE   2.00/3  =  66.67 % ; YY RANK   2.00/3  =  66.67 %
 
:BLIM :  VZERO Control Off
:TRUST:  Step 1.07E+00  Charge 7.50E-02 (e) CTO  2.50E-01 (e) PW  3.50E-01 (e)
:DIRM :  MEMORY  3/8  SCALE   1.000 RED  0.85 PRED  0.97 NEXT  0.22 
:TRAVE:  Charge 8.30E-04 (e) CTO  1.66E-03 (e) PW  4.58E-02 (e)
:DIRP :  |MSR1|= 4.355E-02 |PRATT|= 3.680E-02 ANGLE=   5.8 DEGREES
:DIRQ :  |MSR1|= 1.737E-02 |PRATT|= 4.190E-02 ANGLE=  37.9 DEGREES
:DIRT :  |MSR1|= 4.688E-02 |PRATT|= 5.577E-02 ANGLE=  34.0 DEGREES
:MIX  :   MSD1   REGULARIZATION:  2.53E-04 GREED: 0.17532  Newton 1.00  0.8406                
     
       CHARGES OF MIXED CHARGE DENSITY
:CTO   : INTERSTITIAL CHARGE =     6.244576
:CPC   : PW Pseudocharge     =    17.674443
:CTO001: CHARGE SPHERE  1    =    55.877712

:NEC03: NUCLEAR AND ELECTRONIC CHARGE    118.00000   118.00000

PW CHANGE     H    K    L      Current       Change    Residue
:PTO001:      0    0    0  8.68733724E-02 -4.226E-04 -2.911E-04
:PTO003:      0    2    0  1.94075275E-02 -1.465E-04 -1.387E-04
:PTO004:     -1    1    0  9.00247923E-02 -7.402E-04 -6.596E-04
:PTO005:      0    2   -1 -1.02469973E-01  8.649E-04  7.679E-04
:PTO006:      0    0   -2 -5.31922576E-02  4.458E-04  3.920E-04
:PTO007:     -1    1   -1 -1.05043965E-01  9.510E-04  8.538E-04
:PTO008:      0    2   -2 -1.39932743E-02  1.461E-04  1.161E-04
:PTO009:     -1    1   -2 -6.90684178E-02  7.599E-04  6.750E-04
:PTO011:     -1    3    0 -9.80649669E-03  1.185E-04  1.022E-04
:PTO012:     -1    3   -1 -3.92152564E-02  4.956E-04  4.136E-04
:PTO013:      0    4    0 -6.35246967E-03  8.803E-05  7.033E-05
:PTO014:      0    2   -3  1.48321624E-02 -1.948E-04 -1.457E-04

:ENE  : ********** TOTAL ENERGY IN Ry =       -36944.17460985

       TOTAL FORCE IN mRy/a.u. = |F|     Fx             Fy             Fz     with/without FOR in case.in2
:FOR001:   1.ATOM          1.196          0.000          0.000         -1.196 partial forces
       TOTAL FORCE WITH RESPECT TO GLOBAL CARTESIAN COORDINATES:
:FCA001:   1.ATOM                         0.000         -1.196          0.000 partial forces
       TOTAL FORCE WITH RESPECT TO THE GLOBAL COORDINATE SYSTEM:
:FGL001:   1.ATOM                 0.000000000    -1.196005682     0.000000000 partial forces

------- case.scf0 --------
 Flat Integration
 New Mode for Coulomb Integral
 Consistent 3/8+Simpson combinations
 Extension of core to zero
 LDM version in phi
 Fifth-order quadrature in outwin


            ---------
:ITE088: 88. ITERATION
            ---------

:NATO :    1 INDEPENDENT AND    2 TOTAL ATOMS IN UNITCELL
       SUBSTANCE: aU                                                          

       LATTICE                      = CXY 
:POT  : POTENTIAL OPTION EX_LDA EC_LDA VX_LDA VC_LDA
:LAT  : LATTICE CONSTANTS=  5.37049 10.89808  9.40854    1.571    1.571    1.571
:VOL  : UNIT CELL VOLUME =     275.33200
       MODE OF CALCULATION IS       = RELA
       NON-SPINPOLARIZED CALCULATION
:IFFT  : FFT-parameters:   48   90   72 Factor: 2.00


   CONVERGENCE PARAMETER FOR PSEUDOCHARGE: NCON=  9
   MAXIMAL VALUE OF RMT(JATOM)*ABSK(NKK) : RK  =27.59804


:VKCOUL :  VK-COUL convergence: 0.177E-06
       ATOMNUMBER=  1 Pr1        VCOUL-ZERO =  0.65321E+00
:EFG001:                        EFG         =     8.56101   *10**21  V / m**2
                               V20  TOT/SRF=    -6.95735    -0.07557
                               V22  TOT/SRF=    -4.54418    -0.01013
                               V22M TOT/SRF=     0.00000     0.00000
                               V21  TOT/SRF=     0.00000     0.00000
                               V21M TOT/SRF=     0.00000     0.00000

             -0.52735    0.00000    0.00000       -0.52735    0.00000    0.00000
              0.00000    8.56101    0.00000        0.00000    8.56101    0.00000
              0.00000    0.00000   -8.03366        0.00000    0.00000   -8.03366

         MAIN DIRECTIONS OF THE EFG   1.0000  0.0000  0.0000
                                      0.0000  1.0000  0.0000
                                      0.0000  0.0000  1.0000
:ANG001:  ANGLE WITH OLD X-AXIS =         0.0

:ETA001:                         ASYMM. ETA =     0.87680


     HELLMANN-FEYNMAN-FORCE IN mRy/a.u. = |F|  Fx       Fy             Fz
:FHF001:   1.ATOM   1285.148397500913      0.000000000000      0.000000000000  -1285.148397500913

:FIT001: LUSE= 13 SIGMA OF V-XC FIT FOR ATOM  1  0.7549867E-04
:FIT001: LUSE= 13 SIGMA OF V-XC FIT FOR ATOM  1  0.7549867E-04
:DEN  : DENSITY INTEGRAL  =        -14220.77726363   (Ry)
       ELS_POTENTIAL_AT Z=0 and Z=0.5:   1.01945   1.01945
       ELS_POTENTIAL_AT Y=0 and Y=0.5:  -0.01408  -0.01408
:VZERO:v0,v0c,v0x   0.27143   1.01945  -0.74802 v5,v5c,v5x   0.27143   1.01945  -0.74802
:VZERY:v0,v0c,v0x  -0.98729  -0.01408  -0.97321 v5,v5c,v5x  -0.98729  -0.01408  -0.97321
:VZERX:v0,v0c,v0x  -1.30559  -0.39659  -0.90899 v5,v5c,v5x  -1.30559  -0.39659  -0.90899

------- case.scf1 --------
:LMAX-WF:   10   Non-Spherical LMAX:   4

          ATOMIC SPHERE DEPENDENT PARAMETERS FOR ATOM  Pr1       
:e__0001: OVERALL ENERGY PARAMETER IS    0.9833
          OVERALL BASIS SET ON ATOM IS LAPW
:E0_0001: E( 0)=    0.9833
             APW+lo
:E0_0001: E( 0)=   -1.4245   E(BOTTOM)=   -2.069   E(TOP)=   -0.780  4  5   240
             LOCAL ORBITAL
:E1_0001: E( 1)=    1.3833
             APW+lo
:E1_0001: E( 1)=    0.0411   E(BOTTOM)=   -0.928   E(TOP)=    1.010  3  4   245
             LOCAL ORBITAL
:E3_0001: E( 3)=    1.2323   E(BOTTOM)=    1.020   E(TOP)=    1.444  0  1   122
             APW+lo
:E2_0001: E( 2)=    0.9833   E(BOTTOM)=    0.804   E(TOP)= -200.000  2 -1   118
             APW+lo

       K=   0.06250   0.00000   0.06250            1
:RKM  : MATRIX SIZE   279LOs:  40  RKM= 8.50  WEIGHT= 4.00  PGR:    
       EIGENVALUES ARE:
:EIG00001:      -1.4783627   -1.3894212   -0.3077800   -0.0299279    0.0353281
:EIG00006:       0.0587475    0.0845202    0.0872871    1.0344428    1.0549450
:EIG00011:       1.1671880    1.1801963    1.1839817    1.1925627    1.2133242
:EIG00016:       1.2429499    1.2546708    1.2578788    1.2642820    1.2695542
:EIG00021:       1.2747762    1.2796819    1.2857089    1.3117557    1.3213812
:EIG00026:       1.3497206    1.4316130    1.4395302    1.5175260    1.5617201
:EIG00031:       1.6219485    1.8044095    1.8445997    1.9091057    2.2025106
:EIG00036:       2.2495634    2.2868913    2.5382247    2.5434394    2.6750647
:EIG00041:       2.8789929    2.9305021    3.0898019    3.1440210    3.2938905
:EIG00046:       3.3031628    3.3253247    3.5006609    3.5111970    3.6541547
 
:EIG00051:       3.7600227    3.8926224    3.9435943    4.0992203    4.1070213
:EIG00056:       4.1952689    4.2617584    4.4598196    4.4885142    4.5279326
:EIG00061:       4.5858363    4.7117701    4.7176165    4.8585911    4.9114675
:EIG00066:       4.9804637    4.9838356    5.0344914    5.1605799    5.2027616
:EIG00071:       5.2885046    5.3452519    5.4144354    5.4825557    5.4848479
:EIG00076:       5.4983805    5.5522262    5.5656792    5.5946539    5.6899307
:EIG00081:       5.7104694    5.7575185    5.7941129    5.8533730    5.9085368
:EIG00086:       5.9310620    6.0707424    6.1533968    6.1748347    6.2262156
:EIG00091:       6.2861166    6.3502701    6.3777702    6.4130004    6.4190518
:EIG00096:       6.5699216    6.6039278    6.6073724    6.6369850    6.7450920
 
:EIG00101:       6.7759208    6.8806066    6.9388594    6.9647363    6.9731857
:EIG00106:       7.1081258    7.1261450    7.1948195    7.2737012    7.4468149
:EIG00111:       7.5469687    7.5813096    7.5840925    7.6397950    7.7668374
:EIG00116:       7.8336202    7.9718626    8.0712003    8.0830837    8.1374102
:EIG00121:       8.1886701    8.2242450    8.2374709    8.3788973    8.4059547
:EIG00126:       8.4213804    8.4979575    8.5874741    8.6034609    8.6604465
:EIG00131:       8.6606107
       ********************************************************

:KPT   :      NUMBER OF K-POINTS:   288

------- case.scfso --------
   0.0   0.0 angle (M,z), angle (M,x) deg
 
        SPIN-ORBIT EIGENVALUES:
     K=   0.06250   0.00000   0.06250            1
      MATRIX SIZE=  262   WEIGHT= 4.00
     EIGENVALUES ARE:
          -1.4783655   -1.4783655   -1.3894234   -1.3894234   -0.3377655
          -0.3377655   -0.1006088   -0.1006088   -0.0452281   -0.0452281
           0.1178971    0.1178971    0.1236708    0.1236708    0.1496674
           0.1496674    1.0343359    1.0343359    1.0551215    1.0551215
           1.1661583    1.1661583    1.1786709    1.1786709    1.1824370
           1.1824370    1.1914145    1.1914145    1.2114509    1.2114510
           1.2372948    1.2372948    1.2485928    1.2485928    1.2577180
           1.2577180    1.2681347    1.2681347    1.2717328    1.2717328

           1.2767115    1.2767115    1.2806666    1.2806666    1.2892278
           1.2892279    1.3139471    1.3139471    1.3230599    1.3230599
           1.3503040    1.3503040    1.4288137    1.4288137    1.4425924
           1.4425924    1.5180452    1.5180452    1.5617265    1.5617265
           1.6223039    1.6223039    1.8046134    1.8046134    1.8447089
           1.8447089    1.9093562    1.9093562    2.2030109    2.2030109
           2.2496513    2.2496513    2.2869038    2.2869038    2.5377170
           2.5377170    2.5436247    2.5436247    2.6744528    2.6744528

           2.8793272    2.8793272    2.9301138    2.9301138    3.0897939
           3.0897939    3.1436052    3.1436052    3.2938120    3.2938120
           3.3026843    3.3026843    3.3256053    3.3256053    3.4975966
           3.4975966    3.5143224    3.5143224    3.6544657    3.6544657
           3.7597039    3.7597039    3.8909355    3.8909355    3.9438004
           3.9438004    4.0987329    4.0987329    4.1068788    4.1068788
           4.1954755    4.1954755    4.2591098    4.2591098    4.4616373
           4.4616373    4.4884990    4.4884990
       ********************************************************

------- case.scf2 --------
:GMA  : POTENTIAL AND CHARGE CUT-OFF  12.00 Ry**.5




:POS001: at.nr.  -1 position = 0.00000 0.89750 0.25000  multiplicity =  2

       lmmax 16
       lm=   0 0  1 0  2 0  2 2  3 0  3 2  4 0  4 2  4 4  5 0  5 2  5 4  6 0  6 2  6 4  6 6
:FER gutzwiller fermi energy   1.20031
:EORB          0.142276297
:SUM sum of gutz band energies          4.590589742

:CHA001: total charge inside sphere   1 =     9.869677
:PCS001: partial charges sphere =  1 s,p,d,f,px,py,pz,d-z2,d-x2y2,d-xy,d-xz,d-yz 
:QTL001: 1.9331 4.9542 0.9247 2.0540 1.6521 1.6465 1.6556 0.1824 0.1662 0.1871 0.1919 0.1971

                      vxx         vyy         vzz       up to r

:VZZ001:            -0.43421     8.56581    -8.13160       2.300

:CHA  : total charge inside unit cell =      13.000000

------- case.scfc --------

        1.ATOM      Pr1                  14 CORE STATES
       CORE-FORCE in mRy/a.u. = |F|      Fx             Fy             Fz
:FCO001:   1.ATOM   1285.300825910183      0.000000000000      0.000000000000   1285.300825910183

:1S 001: 1S               -3066.354020602 Ry
:2S 001: 2S                -492.102819082 Ry
:2PP001: 2P*               -465.202164656 Ry
:2P 001: 2P                -429.804560974 Ry
:3S 001: 3S                -105.196838689 Ry
:3PP001: 3P*                -93.734561860 Ry
:3P 001: 3P                 -86.726804170 Ry
:3DD001: 3D*                -66.653021069 Ry
:3D 001: 3D                 -65.141518585 Ry
:4S 001: 4S                 -19.870988506 Ry
:4PP001: 4P*                -15.577494303 Ry
:4P 001: 4P                 -14.049698102 Ry
:4DD001: 4D*                 -6.981900763 Ry
:4D 001: 4D                  -6.712380405 Ry

------- case.scfm --------
:CINT001 Core Integral Atom   1   45.998453

       DENSITY AT NUCLEUS
        JATOM        VALENCE       SEMI-CORE          CORE           TOTAL
:RTO001:   1      641.067572        0.000000   656825.529851   657466.597423
     
       CHARGES OF NEW CHARGE DENSITY
:NTO   : INTERSTITIAL CHARGE =     6.261406
:NPC   : PW Pseudocharge     =    17.687433
:NTO001: CHARGE SPHERE  1    =    55.868131

:NEC01: NUCLEAR AND ELECTRONIC CHARGE    118.00000   117.99767
     
       CHARGES OF OLD CHARGE DENSITY
:OTO   : INTERSTITIAL CHARGE =     6.244576
:OPC   : PW Pseudocharge     =    17.674443
:OTO001: CHARGE SPHERE  1    =    55.877712

:NEC02: NUCLEAR AND ELECTRONIC CHARGE    118.00000   118.00000
     
       CONVERGENCE TEST
:DTO001: DIFFERENCE IN SPHERE  1 =  0.0204863

:DIS  :  CHARGE DISTANCE       ( 0.0204863 for atom    1 spin 1)      0.0204863
 PW Mixed is          294
 
******************************************************
* MULTISECANT MIXING VER9 RELEASE 10.4.0              *
* Standard Mode with controls                        *
* Fixed density scale                                *
* Regularization       1.000E-04                     *
* Trust Upper Limit    5.000E+00                     *
* Max Number of Memory Steps    8                    *
******************************************************
 
:PWTMP   1.7340E+02  1.9467E+02  2.7533E+02
:PLANE:  PW TOTAL      5.9455 DISTAN   7.88E-03  1.32E-01 %
:CHARG:  CLM/ATOM   1381.9312 DISTAN   2.91E-02  2.10E-03 %
 
Step History
        DMIX         DMIXT        Red     Pred      Trust     Lambda    MagRel    MagAbs     Beta
  1   3.5000E-02   3.5000E-02 -1.00E+00  1.00E+00 -1.00E+01  1.00E+00  3.50E-02  3.50E-02  1.00E+00
  2   2.5000E-02   2.5000E-02  9.23E-01  1.00E+00 -1.00E+01  1.00E+00  2.50E-02  3.84E-03  1.00E+00
  3   2.8052E-02   2.8052E-02  4.63E-01  1.00E+00 -1.00E+01  9.81E-01  2.81E-02  3.98E-03  1.00E+00
  4   7.0129E-02   7.0129E-02  8.49E-01  9.70E-01  6.12E-01  7.81E-01  1.68E-01  1.10E-02  8.81E-01
  5   1.7532E-01   1.7532E-01 -1.00E+00  2.22E-01  1.07E+00  1.00E+00  8.41E-01  4.69E-02  1.00E+00
:JACOBIANS    5.866E-01   3.465E-01
  
:NORMS:  1/Froebius, Min, Max, Used   0.6754E+00  0.4910E+00  0.8221E+00  0.8221E+00
:INFO :  Number of Memory Steps    4 Skipping    0
:INFO :  SLambda=    1.1718541373  Max    1.1718541373
:PREDicted Charge, CTotal, PW Trust    2.286E-03   4.571E-03   6.569E-02
:PREDicted DMix, Beta, BLim   8.1270E-02  1.0037E+00  4.8533E+00

Eigenvalues, unscaled except for SY+YY
   #     SY Real        SY Imag          SS             YY         SY+YY Real      SY+YY Imag
   1   1.750215E+00   0.000000E+00   1.623927E+00   2.402555E+00   4.209666E+00   0.000000E+00
   2   5.229275E-01   0.000000E+00   2.008325E-01   1.597439E+00   2.454102E+00   0.000000E+00
   3  -1.549515E-16   0.000000E+00   1.352030E-05   6.144174E-06   1.532813E-07   0.000000E+00
   4   9.017268E-06   0.000000E+00  -1.532791E-17   2.926313E-07   3.376514E-05   0.000000E+00
 
:INFO :  Singular value  4.225E+00 Weight  1.000E+00 Projection -6.995E-03
:INFO :  Singular value  2.445E+00 Weight  1.000E+00 Projection -1.973E-02
:INFO :  Singular value  3.828E-05 Weight  2.476E-02 Projection -1.144E-01
:INFO :  Singular value  1.352E-07 Weight  3.167E-07 Projection  1.994E-06
:RANK :  ACTIVE   2.02/4  =  50.62 % ; YY RANK   2.00/4  =  50.02 %
 
:BLIM :  VZERO Control Off
:TRUST:  Step 2.85E+00  Charge 6.00E-02 (e) CTO  2.00E-01 (e) PW  2.80E-01 (e)
:DIRM :  MEMORY  4/8  SCALE   1.000 RED  0.54 PRED  0.22 NEXT  0.37 
:TRAVE:  Charge 1.99E-03 (e) CTO  3.97E-03 (e) PW  2.71E-02 (e)
:DIRP :  |MSR1|= 2.970E-03 |PRATT|= 7.876E-03 ANGLE=   6.7 DEGREES
:DIRQ :  |MSR1|= 1.139E-02 |PRATT|= 2.906E-02 ANGLE=  21.5 DEGREES
:DIRT :  |MSR1|= 1.177E-02 |PRATT|= 3.011E-02 ANGLE=  20.8 DEGREES
:MIX  :   MSE1   REGULARIZATION:  2.40E-04 GREED: 0.09686  Newton 1.00  0.3908                
     
       CHARGES OF MIXED CHARGE DENSITY
:CTO   : INTERSTITIAL CHARGE =     6.250863
:CPC   : PW Pseudocharge     =    17.681577
:CTO001: CHARGE SPHERE  1    =    55.874568

:NEC03: NUCLEAR AND ELECTRONIC CHARGE    118.00000   118.00000

PW CHANGE     H    K    L      Current       Change    Residue
:PTO001:      0    0    0  8.69221175E-02  4.875E-05  1.407E-04
:PTO003:      0    2    0  1.94103261E-02  2.799E-06  4.697E-06
:PTO004:     -1    1    0  9.00553193E-02  3.053E-05  7.261E-05
:PTO005:      0    2   -1 -1.02506348E-01 -3.638E-05 -8.558E-05
:PTO006:      0    0   -2 -5.32120893E-02 -1.983E-05 -4.425E-05
:PTO007:     -1    1   -1 -1.05080580E-01 -3.662E-05 -8.571E-05
:PTO008:      0    2   -2 -1.40049450E-02 -1.167E-05 -2.540E-05
:PTO009:     -1    1   -2 -6.91004791E-02 -3.206E-05 -7.110E-05
:PTO011:     -1    3    0 -9.81284351E-03 -6.347E-06 -1.577E-05
:PTO012:     -1    3   -1 -3.92480862E-02 -3.283E-05 -7.125E-05
:PTO013:      0    4    0 -6.35962312E-03 -7.153E-06 -1.620E-05
:PTO014:      0    2   -3  1.48516763E-02  1.951E-05  4.427E-05

:ENE  : ********** TOTAL ENERGY IN Ry =       -36944.17461689

       TOTAL FORCE IN mRy/a.u. = |F|     Fx             Fy             Fz     with/without FOR in case.in2
:FOR001:   1.ATOM          0.152          0.000          0.000          0.152 partial forces
       TOTAL FORCE WITH RESPECT TO GLOBAL CARTESIAN COORDINATES:
:FCA001:   1.ATOM                         0.000          0.152          0.000 partial forces
       TOTAL FORCE WITH RESPECT TO THE GLOBAL COORDINATE SYSTEM:
:FGL001:   1.ATOM                 0.000000000     0.152428409     0.000000000 partial forces

------- case.scf0 --------
 Flat Integration
 New Mode for Coulomb Integral
 Consistent 3/8+Simpson combinations
 Extension of core to zero
 LDM version in phi
 Fifth-order quadrature in outwin


            ---------
:ITE089: 89. ITERATION
            ---------

:NATO :    1 INDEPENDENT AND    2 TOTAL ATOMS IN UNITCELL
       SUBSTANCE: aU                                                          

       LATTICE                      = CXY 
:POT  : POTENTIAL OPTION EX_LDA EC_LDA VX_LDA VC_LDA
:LAT  : LATTICE CONSTANTS=  5.37049 10.89808  9.40854    1.571    1.571    1.571
:VOL  : UNIT CELL VOLUME =     275.33200
       MODE OF CALCULATION IS       = RELA
       NON-SPINPOLARIZED CALCULATION
:IFFT  : FFT-parameters:   48   90   72 Factor: 2.00


   CONVERGENCE PARAMETER FOR PSEUDOCHARGE: NCON=  9
   MAXIMAL VALUE OF RMT(JATOM)*ABSK(NKK) : RK  =27.59804


:VKCOUL :  VK-COUL convergence: 0.176E-06
       ATOMNUMBER=  1 Pr1        VCOUL-ZERO =  0.65353E+00
:EFG001:                        EFG         =     8.57642   *10**21  V / m**2
                               V20  TOT/SRF=    -7.03201    -0.07570
                               V22  TOT/SRF=    -4.51648    -0.01004
                               V22M TOT/SRF=     0.00000     0.00000
                               V21  TOT/SRF=     0.00000     0.00000
                               V21M TOT/SRF=     0.00000     0.00000

             -0.45655    0.00000    0.00000       -0.45655    0.00000    0.00000
              0.00000    8.57642    0.00000        0.00000    8.57642    0.00000
              0.00000    0.00000   -8.11987        0.00000    0.00000   -8.11987

         MAIN DIRECTIONS OF THE EFG   1.0000  0.0000  0.0000
                                      0.0000  1.0000  0.0000
                                      0.0000  0.0000  1.0000
:ANG001:  ANGLE WITH OLD X-AXIS =         0.0

:ETA001:                         ASYMM. ETA =     0.89353


     HELLMANN-FEYNMAN-FORCE IN mRy/a.u. = |F|  Fx       Fy             Fz
:FHF001:   1.ATOM   1285.647197688524      0.000000000000      0.000000000000  -1285.647197688524

:FIT001: LUSE= 13 SIGMA OF V-XC FIT FOR ATOM  1  0.7585006E-04
:FIT001: LUSE= 13 SIGMA OF V-XC FIT FOR ATOM  1  0.7585006E-04
:DEN  : DENSITY INTEGRAL  =        -14220.21347597   (Ry)
       ELS_POTENTIAL_AT Z=0 and Z=0.5:   1.02018   1.02018
       ELS_POTENTIAL_AT Y=0 and Y=0.5:  -0.01427  -0.01427
:VZERO:v0,v0c,v0x   0.27192   1.02018  -0.74827 v5,v5c,v5x   0.27192   1.02018  -0.74827
:VZERY:v0,v0c,v0x  -0.98764  -0.01427  -0.97337 v5,v5c,v5x  -0.98764  -0.01427  -0.97337
:VZERX:v0,v0c,v0x  -1.30602  -0.39678  -0.90924 v5,v5c,v5x  -1.30602  -0.39678  -0.90924

------- case.scf1 --------
:LMAX-WF:   10   Non-Spherical LMAX:   4

          ATOMIC SPHERE DEPENDENT PARAMETERS FOR ATOM  Pr1       
:e__0001: OVERALL ENERGY PARAMETER IS    0.9833
          OVERALL BASIS SET ON ATOM IS LAPW
:E0_0001: E( 0)=    0.9833
             APW+lo
:E0_0001: E( 0)=   -1.4266   E(BOTTOM)=   -2.070   E(TOP)=   -0.783  4  5   242
             LOCAL ORBITAL
:E1_0001: E( 1)=    1.3833
             APW+lo
:E1_0001: E( 1)=    0.0393   E(BOTTOM)=   -0.929   E(TOP)=    1.008  3  4   239
             LOCAL ORBITAL
:E3_0001: E( 3)=    1.2283   E(BOTTOM)=    1.017   E(TOP)=    1.440  0  1   127
             APW+lo
:E2_0001: E( 2)=    0.9833   E(BOTTOM)=    0.803   E(TOP)= -200.000  2 -1   114
             APW+lo

       K=   0.06250   0.00000   0.06250            1
:RKM  : MATRIX SIZE   279LOs:  40  RKM= 8.50  WEIGHT= 4.00  PGR:    
       EIGENVALUES ARE:
:EIG00001:      -1.4801366   -1.3913586   -0.3088034   -0.0313255    0.0338329
:EIG00006:       0.0572019    0.0829327    0.0856992    1.0342412    1.0547247
:EIG00011:       1.1649947    1.1773211    1.1807763    1.1896376    1.2103510
:EIG00016:       1.2392808    1.2509193    1.2541227    1.2605544    1.2658877
:EIG00021:       1.2720780    1.2762927    1.2817685    1.3076247    1.3180538
:EIG00026:       1.3473316    1.4308910    1.4381087    1.5167232    1.5609195
:EIG00031:       1.6210706    1.8034811    1.8438946    1.9080738    2.2018960
:EIG00036:       2.2489776    2.2864331    2.5376760    2.5431865    2.6745486
:EIG00041:       2.8785447    2.9301462    3.0895704    3.1436119    3.2936459
:EIG00046:       3.3030851    3.3250340    3.5005630    3.5109900    3.6541569
 
:EIG00051:       3.7597831    3.8923550    3.9431416    4.0989839    4.1064323
:EIG00056:       4.1949117    4.2614232    4.4595494    4.4877640    4.5277999
:EIG00061:       4.5858791    4.7117315    4.7173045    4.8580858    4.9109893
:EIG00066:       4.9804995    4.9837752    5.0345237    5.1604772    5.2026548
:EIG00071:       5.2885281    5.3451075    5.4142963    5.4825515    5.4848981
:EIG00076:       5.4983170    5.5522756    5.5656868    5.5946954    5.6900231
:EIG00081:       5.7105693    5.7575965    5.7942520    5.8534807    5.9085829
:EIG00086:       5.9313243    6.0708850    6.1534396    6.1750574    6.2262772
:EIG00091:       6.2861933    6.3503960    6.3776347    6.4129373    6.4187477
:EIG00096:       6.5702008    6.6040023    6.6073086    6.6369953    6.7450499
 
:EIG00101:       6.7758829    6.8806970    6.9389214    6.9648482    6.9732412
:EIG00106:       7.1084681    7.1262110    7.1946927    7.2736920    7.4470849
:EIG00111:       7.5467786    7.5815179    7.5842968    7.6398868    7.7668105
:EIG00116:       7.8339155    7.9716682    8.0710415    8.0828047    8.1373492
:EIG00121:       8.1887742    8.2241024    8.2375003    8.3789804    8.4061338
:EIG00126:       8.4215174    8.4980331    8.5875373    8.6037377    8.6605677
:EIG00131:       8.6607920
       ********************************************************

:KPT   :      NUMBER OF K-POINTS:   288

------- case.scfso --------
   0.0   0.0 angle (M,z), angle (M,x) deg
 
        SPIN-ORBIT EIGENVALUES:
     K=   0.06250   0.00000   0.06250            1
      MATRIX SIZE=  262   WEIGHT= 4.00
     EIGENVALUES ARE:
          -1.4801395   -1.4801395   -1.3913609   -1.3913609   -0.3388893
          -0.3388893   -0.1022474   -0.1022474   -0.0466118   -0.0466118
           0.1164231    0.1164231    0.1221701    0.1221701    0.1481459
           0.1481459    1.0341329    1.0341329    1.0549000    1.0549000
           1.1639156    1.1639156    1.1757655    1.1757655    1.1792153
           1.1792153    1.1884674    1.1884674    1.2084282    1.2084282
           1.2335507    1.2335507    1.2449784    1.2449784    1.2540593
           1.2540593    1.2645076    1.2645076    1.2682533    1.2682534

           1.2737153    1.2737154    1.2772746    1.2772746    1.2853794
           1.2853794    1.3098340    1.3098340    1.3197203    1.3197203
           1.3478752    1.3478753    1.4278577    1.4278577    1.4413741
           1.4413741    1.5172441    1.5172441    1.5609218    1.5609218
           1.6214258    1.6214258    1.8036853    1.8036853    1.8440012
           1.8440012    1.9083257    1.9083257    2.2023962    2.2023962
           2.2490649    2.2490649    2.2864452    2.2864452    2.5371862
           2.5371862    2.5433543    2.5433543    2.6739369    2.6739369

           2.8788791    2.8788791    2.9297576    2.9297576    3.0895600
           3.0895600    3.1431976    3.1431976    3.2935708    3.2935708
           3.3026024    3.3026024    3.3253153    3.3253153    3.4974776
           3.4974776    3.5141361    3.5141361    3.6544672    3.6544672
           3.7594642    3.7594642    3.8906607    3.8906607    3.9433542
           3.9433542    4.0984954    4.0984954    4.1062909    4.1062909
           4.1951218    4.1951218    4.2587750    4.2587750    4.4613678
           4.4613678    4.4877667    4.4877667
       ********************************************************

------- case.scf2 --------
:GMA  : POTENTIAL AND CHARGE CUT-OFF  12.00 Ry**.5




:POS001: at.nr.  -1 position = 0.00000 0.89750 0.25000  multiplicity =  2

       lmmax 16
       lm=   0 0  1 0  2 0  2 2  3 0  3 2  4 0  4 2  4 4  5 0  5 2  5 4  6 0  6 2  6 4  6 6
:FER gutzwiller fermi energy   1.19927
:EORB          0.129426005
:SUM sum of gutz band energies          4.562818443

:CHA001: total charge inside sphere   1 =     9.879246
:PCS001: partial charges sphere =  1 s,p,d,f,px,py,pz,d-z2,d-x2y2,d-xy,d-xz,d-yz 
:QTL001: 1.9331 4.9553 0.9225 2.0647 1.6525 1.6469 1.6559 0.1818 0.1657 0.1868 0.1914 0.1967

                      vxx         vyy         vzz       up to r

:VZZ001:            -0.45961     8.52092    -8.06131       2.300

:CHA  : total charge inside unit cell =      13.000000

------- case.scfc --------

        1.ATOM      Pr1                  14 CORE STATES
       CORE-FORCE in mRy/a.u. = |F|      Fx             Fy             Fz
:FCO001:   1.ATOM   1285.789551070737      0.000000000000      0.000000000000   1285.789551070737

:1S 001: 1S               -3066.358674663 Ry
:2S 001: 2S                -492.108121113 Ry
:2PP001: 2P*               -465.207323516 Ry
:2P 001: 2P                -429.809773324 Ry
:3S 001: 3S                -105.203187265 Ry
:3PP001: 3P*                -93.740860274 Ry
:3P 001: 3P                 -86.733138525 Ry
:3DD001: 3D*                -66.659233470 Ry
:3D 001: 3D                 -65.147746966 Ry
:4S 001: 4S                 -19.876760445 Ry
:4PP001: 4P*                -15.583172262 Ry
[...]
   3   1.855432E-03   0.000000E+00   7.270876E-04   9.954627E-03   1.261508E-02   0.000000E+00
   4   3.687550E-04   0.000000E+00   1.761493E-04   1.528496E-03   1.909134E-03   0.000000E+00
   5   5.207852E-05   0.000000E+00   4.237429E-05   3.567130E-04   4.252547E-04   0.000000E+00
   6   2.274065E-05   0.000000E+00   4.055121E-06   5.222338E-05   7.087795E-05   0.000000E+00
   7  -3.491032E-06   0.000000E+00   1.451523E-06   3.377057E-06   3.242450E-06   9.905534E-11
   8   1.510363E-06   0.000000E+00   4.005495E-07   2.108620E-06   3.242450E-06  -9.905534E-11
   9   1.912496E-07   0.000000E+00   2.433542E-07   2.233548E-07   2.932040E-07   0.000000E+00
 
:INFO :  Singular value  1.214E+01 Weight  1.000E+00 Projection -4.188E-03
:INFO :  Singular value  2.598E-02 Weight  9.988E-01 Projection -4.860E-01
:INFO :  Singular value  1.261E-02 Weight  9.950E-01 Projection -9.503E-02
:INFO :  Singular value  1.909E-03 Weight  8.194E-01 Projection  1.758E-01
:INFO :  Singular value  4.257E-04 Weight  1.840E-01 Projection  7.505E-02
:INFO :  Singular value  7.154E-05 Weight  6.329E-03 Projection  2.376E-03
:INFO :  Singular value  3.725E-06 Weight  1.727E-05 Projection  3.581E-06
:INFO :  Singular value  2.796E-06 Weight  9.730E-06 Projection -1.551E-05
:INFO :  Singular value  2.929E-07 Weight  1.068E-07 Projection -2.761E-08
:RANK :  ACTIVE   4.00/9  =  44.48 % ; YY RANK   3.87/9  =  43.05 %
 
:DLIM :  Beta Active  3.662E-01
:BLIM :  VZERO Control Off
:TRUST:  Step 1.78E-01  Charge 4.66E-04 (e) CTO  2.50E-03 (e) PW  7.28E-03 (e)
:DIRM :  MEMORY  9/8  SCALE   1.000 RED  1.01 PRED  0.71 NEXT  0.64 BETA  0.37
:TRAVE:  Charge 2.59E-04 (e) CTO  5.19E-04 (e) PW  4.57E-03 (e)
:DIRP :  |MSR1|= 2.504E-03 |PRATT|= 2.030E-02 ANGLE= 141.0 DEGREES
:DIRQ :  |MSR1|= 1.550E-03 |PRATT|= 7.788E-02 ANGLE=  46.4 DEGREES
:DIRT :  |MSR1|= 2.945E-03 |PRATT|= 8.049E-02 ANGLE=  79.4 DEGREES
:MIX  :   MSD1   REGULARIZATION:  8.96E-04 GREED: 0.15948  Newton 1.00  0.0366                
     
       CHARGES OF MIXED CHARGE DENSITY
:CTO   : INTERSTITIAL CHARGE =     6.246796
:CPC   : PW Pseudocharge     =    17.708291
:CTO001: CHARGE SPHERE  1    =    55.876602

:NEC03: NUCLEAR AND ELECTRONIC CHARGE    118.00000   118.00000

PW CHANGE     H    K    L      Current       Change    Residue
:PTO001:      0    0    0  8.70043721E-02  2.850E-05 -4.079E-04
:PTO003:      0    2    0  1.94561505E-02  1.134E-05 -7.943E-06
:PTO004:     -1    1    0  9.02375707E-02  4.288E-05 -1.383E-04
:PTO005:      0    2   -1 -1.02726333E-01 -5.206E-05  1.689E-04
:PTO006:      0    0   -2 -5.33224084E-02 -2.617E-05  8.421E-05
:PTO007:     -1    1   -1 -1.05303026E-01 -5.129E-05  1.506E-04
:PTO008:      0    2   -2 -1.40323830E-02 -5.593E-06  3.398E-05
:PTO009:     -1    1   -2 -6.92537165E-02 -3.154E-05  9.028E-05
:PTO011:     -1    3    0 -9.83054833E-03 -3.456E-06  2.243E-05
:PTO012:     -1    3   -1 -3.93379075E-02 -1.621E-05  6.448E-05
:PTO013:      0    4    0 -6.37505113E-03 -2.840E-06  1.739E-05
:PTO014:      0    2   -3  1.48811333E-02  5.252E-06 -5.344E-05

:ENE  : ********** TOTAL ENERGY IN Ry =       -36944.17519992

       TOTAL FORCE IN mRy/a.u. = |F|     Fx             Fy             Fz     with/without FOR in case.in2
:FOR001:   1.ATOM          0.733          0.000          0.000          0.733 partial forces
       TOTAL FORCE WITH RESPECT TO GLOBAL CARTESIAN COORDINATES:
:FCA001:   1.ATOM                         0.000          0.733          0.000 partial forces
       TOTAL FORCE WITH RESPECT TO THE GLOBAL COORDINATE SYSTEM:
:FGL001:   1.ATOM                 0.000000000     0.732956114     0.000000000 partial forces

------- case.scf0 --------
 Flat Integration
 New Mode for Coulomb Integral
 Consistent 3/8+Simpson combinations
 Extension of core to zero
 LDM version in phi
 Fifth-order quadrature in outwin


            ---------
:ITE183:183. ITERATION
            ---------

:NATO :    1 INDEPENDENT AND    2 TOTAL ATOMS IN UNITCELL
       SUBSTANCE: aU                                                          

       LATTICE                      = CXY 
:POT  : POTENTIAL OPTION EX_LDA EC_LDA VX_LDA VC_LDA
:LAT  : LATTICE CONSTANTS=  5.37049 10.89808  9.40854    1.571    1.571    1.571
:VOL  : UNIT CELL VOLUME =     275.33200
       MODE OF CALCULATION IS       = RELA
       NON-SPINPOLARIZED CALCULATION
:IFFT  : FFT-parameters:   48   90   72 Factor: 2.00


   CONVERGENCE PARAMETER FOR PSEUDOCHARGE: NCON=  9
   MAXIMAL VALUE OF RMT(JATOM)*ABSK(NKK) : RK  =27.59804


:VKCOUL :  VK-COUL convergence: 0.176E-06
       ATOMNUMBER=  1 Pr1        VCOUL-ZERO =  0.65402E+00
:EFG001:                        EFG         =     8.53385   *10**21  V / m**2
                               V20  TOT/SRF=    -6.97457    -0.07534
                               V22  TOT/SRF=    -4.50708    -0.01002
                               V22M TOT/SRF=     0.00000     0.00000
                               V21  TOT/SRF=     0.00000     0.00000
                               V21M TOT/SRF=     0.00000     0.00000

             -0.48031    0.00000    0.00000       -0.48031    0.00000    0.00000
              0.00000    8.53385    0.00000        0.00000    8.53385    0.00000
              0.00000    0.00000   -8.05354        0.00000    0.00000   -8.05354

         MAIN DIRECTIONS OF THE EFG   1.0000  0.0000  0.0000
                                      0.0000  1.0000  0.0000
                                      0.0000  0.0000  1.0000
:ANG001:  ANGLE WITH OLD X-AXIS =         0.0

:ETA001:                         ASYMM. ETA =     0.88743


     HELLMANN-FEYNMAN-FORCE IN mRy/a.u. = |F|  Fx       Fy             Fz
:FHF001:   1.ATOM   1281.307683748410      0.000000000000      0.000000000000  -1281.307683748410

:FIT001: LUSE= 13 SIGMA OF V-XC FIT FOR ATOM  1  0.7580815E-04
:FIT001: LUSE= 13 SIGMA OF V-XC FIT FOR ATOM  1  0.7580815E-04
:DEN  : DENSITY INTEGRAL  =        -14221.00207157   (Ry)
       ELS_POTENTIAL_AT Z=0 and Z=0.5:   1.02032   1.02032
       ELS_POTENTIAL_AT Y=0 and Y=0.5:  -0.01385  -0.01385
:VZERO:v0,v0c,v0x   0.27222   1.02032  -0.74809 v5,v5c,v5x   0.27222   1.02032  -0.74809
:VZERY:v0,v0c,v0x  -0.98743  -0.01385  -0.97358 v5,v5c,v5x  -0.98743  -0.01385  -0.97358
:VZERX:v0,v0c,v0x  -1.30641  -0.39713  -0.90928 v5,v5c,v5x  -1.30641  -0.39713  -0.90928

------- case.scf1 --------
:LMAX-WF:   10   Non-Spherical LMAX:   4

          ATOMIC SPHERE DEPENDENT PARAMETERS FOR ATOM  Pr1       
:e__0001: OVERALL ENERGY PARAMETER IS    0.9833
          OVERALL BASIS SET ON ATOM IS LAPW
:E0_0001: E( 0)=    0.9833
             APW+lo
:E0_0001: E( 0)=   -1.4235   E(BOTTOM)=   -2.068   E(TOP)=   -0.779  4  5   242
             LOCAL ORBITAL
:E1_0001: E( 1)=    1.3833
             APW+lo
:E1_0001: E( 1)=    0.0421   E(BOTTOM)=   -0.927   E(TOP)=    1.011  3  4   244
             LOCAL ORBITAL
:E3_0001: E( 3)=    1.2334   E(BOTTOM)=    1.021   E(TOP)=    1.446  0  1   129
             APW+lo
:E2_0001: E( 2)=    0.9833   E(BOTTOM)=    0.805   E(TOP)= -200.000  2 -1   121
             APW+lo

       K=   0.06250   0.00000   0.06250            1
:RKM  : MATRIX SIZE   279LOs:  40  RKM= 8.50  WEIGHT= 4.00  PGR:    
       EIGENVALUES ARE:
:EIG00001:      -1.4774435   -1.3884948   -0.3068826   -0.0290368    0.0362242
:EIG00006:       0.0596701    0.0854480    0.0882098    1.0352856    1.0558013
:EIG00011:       1.1681971    1.1812511    1.1850783    1.1936240    1.2143972
:EIG00016:       1.2440669    1.2558145    1.2590114    1.2654134    1.2706854
:EIG00021:       1.2758183    1.2807959    1.2868708    1.3129307    1.3224763
:EIG00026:       1.3507531    1.4324976    1.4404817    1.5184210    1.5626129
:EIG00031:       1.6228704    1.8053290    1.8455071    1.9100246    2.2034367
:EIG00036:       2.2504862    2.2877958    2.5391222    2.5443302    2.6759570
:EIG00041:       2.8798749    2.9313911    3.0906736    3.1449171    3.2947711
:EIG00046:       3.3040471    3.3262059    3.5015484    3.5120682    3.6550139
 
:EIG00051:       3.7608810    3.8934817    3.9444869    4.1000771    4.1079240
:EIG00056:       4.1961326    4.2626169    4.4606865    4.4894520    4.5288175
:EIG00061:       4.5866805    4.7126126    4.7184924    4.8594869    4.9123963
:EIG00066:       4.9813186    4.9847077    5.0353442    5.1614534    5.2036490
:EIG00071:       5.2893686    5.3461405    5.4153109    5.4834322    5.4857061
:EIG00076:       5.4992529    5.5531004    5.5665431    5.5955138    5.6907978
:EIG00081:       5.7113284    5.7583866    5.7949583    5.8542332    5.9094020
:EIG00086:       5.9319117    6.0715944    6.1542612    6.1756901    6.2270943
:EIG00091:       6.2869796    6.3511398    6.3786730    6.4138911    6.4199856
:EIG00096:       6.5707805    6.6047956    6.6082792    6.6378729    6.7459733
 
:EIG00101:       6.7768157    6.8814802    6.9397317    6.9656019    6.9740439
:EIG00106:       7.1089738    7.1270187    7.1957099    7.2745824    7.4476759
:EIG00111:       7.5478742    7.5821830    7.5849476    7.6406636    7.7677409
:EIG00116:       7.8344779    7.9728080    8.0721164    8.0840247    8.1383205
:EIG00121:       8.1895498    8.2251837    8.2383578    8.3797754    8.4068358
:EIG00126:       8.4222753    8.4988402    8.5883647    8.6043257    8.6613194
:EIG00131:       8.6614712
       ********************************************************

:KPT   :      NUMBER OF K-POINTS:   288

------- case.scfso --------
   0.0   0.0 angle (M,z), angle (M,x) deg
 
        SPIN-ORBIT EIGENVALUES:
     K=   0.06250   0.00000   0.06250            1
      MATRIX SIZE=  262   WEIGHT= 4.00
     EIGENVALUES ARE:
          -1.4774463   -1.4774463   -1.3884971   -1.3884971   -0.3368652
          -0.3368652   -0.0996924   -0.0996924   -0.0443326   -0.0443326
           0.1188057    0.1188057    0.1245851    0.1245851    0.1505908
           0.1505908    1.0351789    1.0351789    1.0559778    1.0559778
           1.1671712    1.1671712    1.1797286    1.1797286    1.1835354
           1.1835354    1.1924778    1.1924778    1.2125286    1.2125286
           1.2384217    1.2384218    1.2497227    1.2497227    1.2588467
           1.2588467    1.2692536    1.2692536    1.2728443    1.2728443

           1.2777820    1.2777820    1.2817822    1.2817822    1.2903809
           1.2903809    1.3151201    1.3151201    1.3241554    1.3241554
           1.3513393    1.3513394    1.4297185    1.4297185    1.4435260
           1.4435260    1.5189401    1.5189401    1.5626198    1.5626198
           1.6232257    1.6232257    1.8055329    1.8055329    1.8456166
           1.8456166    1.9102751    1.9102751    2.2039369    2.2039369
           2.2505741    2.2505741    2.2878083    2.2878083    2.5386143
           2.5386143    2.5445157    2.5445157    2.6753451    2.6753451

           2.8802094    2.8802094    2.9310027    2.9310027    3.0906659
           3.0906659    3.1445011    3.1445011    3.2946927    3.2946927
           3.3035687    3.3035687    3.3264864    3.3264864    3.4984813
           3.4984813    3.5151965    3.5151965    3.6553250    3.6553250
           3.7605623    3.7605623    3.8917962    3.8917962    3.9446919
           3.9446919    4.0995898    4.0995898    4.1077814    4.1077814
           4.1963392    4.1963392    4.2599688    4.2599688    4.4625043
           4.4625043    4.4894348    4.4894348
       ********************************************************

------- case.scf2 --------
:GMA  : POTENTIAL AND CHARGE CUT-OFF  12.00 Ry**.5




:POS001: at.nr.  -1 position = 0.00000 0.89750 0.25000  multiplicity =  2

       lmmax 16
       lm=   0 0  1 0  2 0  2 2  3 0  3 2  4 0  4 2  4 4  5 0  5 2  5 4  6 0  6 2  6 4  6 6
:FER gutzwiller fermi energy   1.19547
:EORB          0.168164966
:SUM sum of gutz band energies          4.588459919

:CHA001: total charge inside sphere   1 =     9.906826
:PCS001: partial charges sphere =  1 s,p,d,f,px,py,pz,d-z2,d-x2y2,d-xy,d-xz,d-yz 
:QTL001: 1.9314 4.9504 0.9023 2.1189 1.6510 1.6454 1.6540 0.1775 0.1609 0.1836 0.1872 0.1931

                      vxx         vyy         vzz       up to r

:VZZ001:            -0.72557     8.37259    -7.64702       2.300

:CHA  : total charge inside unit cell =      13.000000

------- case.scfc --------

        1.ATOM      Pr1                  14 CORE STATES
       CORE-FORCE in mRy/a.u. = |F|      Fx             Fy             Fz
:FCO001:   1.ATOM   1282.007097958968      0.000000000000      0.000000000000   1282.007097958968

:1S 001: 1S               -3066.350776812 Ry
:2S 001: 2S                -492.099827196 Ry
:2PP001: 2P*               -465.199118660 Ry
:2P 001: 2P                -429.801535515 Ry
:3S 001: 3S                -105.194415451 Ry
:3PP001: 3P*                -93.732103965 Ry
:3P 001: 3P                 -86.724385686 Ry
:3DD001: 3D*                -66.650505736 Ry
:3D 001: 3D                 -65.139015834 Ry
:4S 001: 4S                 -19.869501804 Ry
:4PP001: 4P*                -15.576030759 Ry
:4P 001: 4P                 -14.048283213 Ry
:4DD001: 4D*                 -6.980540306 Ry
:4D 001: 4D                  -6.711033962 Ry

------- case.scfm --------
:CINT001 Core Integral Atom   1   45.998453

       DENSITY AT NUCLEUS
        JATOM        VALENCE       SEMI-CORE          CORE           TOTAL
:RTO001:   1      640.197235        0.000000   656825.315813   657465.513048
     
       CHARGES OF NEW CHARGE DENSITY
:NTO   : INTERSTITIAL CHARGE =     6.187478
:NPC   : PW Pseudocharge     =    17.641211
:NTO001: CHARGE SPHERE  1    =    55.905278

:NEC01: NUCLEAR AND ELECTRONIC CHARGE    118.00000   117.99803
     
       CHARGES OF OLD CHARGE DENSITY
:OTO   : INTERSTITIAL CHARGE =     6.246796
:OPC   : PW Pseudocharge     =    17.708291
:OTO001: CHARGE SPHERE  1    =    55.876602

:NEC02: NUCLEAR AND ELECTRONIC CHARGE    118.00000   118.00000
     
       CONVERGENCE TEST
:DTO001: DIFFERENCE IN SPHERE  1 =  0.0527582

:DIS  :  CHARGE DISTANCE       ( 0.0527582 for atom    1 spin 1)      0.0527582
 PW Mixed is          294
 
******************************************************
* MULTISECANT MIXING VER9 RELEASE 10.4.0              *
* Standard Mode with controls                        *
* Fixed density scale                                *
* Regularization       1.000E-04                     *
* Trust Upper Limit    5.000E+00                     *
* Max Number of Memory Steps    8                    *
******************************************************
 
:PWTMP   1.7340E+02  1.9467E+02  2.7533E+02
:PLANE:  PW TOTAL      5.9577 DISTAN   2.22E-02  3.73E-01 %
:CHARG:  CLM/ATOM   1381.9327 DISTAN   7.48E-02  5.41E-03 %
 
Step History
        DMIX         DMIXT        Red     Pred      Trust     Lambda    MagRel    MagAbs     Beta
 92   4.5083E-02   4.5083E-02  1.00E+00  9.38E-01  1.00E-02  1.50E+00  6.86E-04  5.45E-05  6.25E-02
 93   1.1271E-01   1.1271E-01  1.00E+00  9.22E-01  3.50E-02  1.33E+00  1.83E-03  1.46E-04  7.81E-02
 94   1.7500E-01   1.7500E-01  9.99E-01  9.02E-01  3.50E-02  1.74E+00  3.32E-03  2.65E-04  9.77E-02
 95   1.7500E-01   1.7500E-01  1.01E+00  8.78E-01  3.50E-02  1.69E+00  7.82E-03  6.23E-04  1.22E-01
 96   1.2005E-01   1.2005E-01  9.98E-01  8.50E-01  3.50E-02  6.84E-01  1.06E-02  8.49E-04  1.50E-01
 97   1.7500E-01   1.3593E-01  1.00E+00  8.13E-01  5.29E-02  1.03E+00  2.41E-02  1.92E-03  1.88E-01
 98   1.1665E-01   1.1187E-01  9.99E-01  7.67E-01  1.08E-01  1.13E+00  3.34E-02  2.67E-03  2.34E-01
 99   1.2217E-01   1.2217E-01  1.01E+00  7.10E-01  1.67E-01  3.84E-01  2.84E-02  2.27E-03  2.93E-01
100   1.5948E-01   1.5948E-01 -1.00E+00  6.40E-01  1.78E-01  1.00E+00  3.66E-02  2.94E-03  3.66E-01
:JACOBIANS    9.722E-01   1.087E+00
  
:NORMS:  1/Froebius, Min, Max, Used   0.8705E+00  0.6056E+00  0.1340E+01  0.8807E+00
:INFO :  Number of Memory Steps    8 Skipping   91
:INFO :  SLambda=    1.0000000000  Max    1.0000000000
:PREDicted Charge, CTotal, PW Trust    7.607E-03   1.521E-02   4.249E-02
:PREDicted DMix, Beta, BLim   1.7638E-02  1.8311E-01  4.2754E+00

Eigenvalues, unscaled except for SY+YY
   #     SY Real        SY Imag          SS             YY         SY+YY Real      SY+YY Imag
   1   6.614261E+00   0.000000E+00   6.018191E+00   7.758316E+00   1.436567E+01   0.000000E+00
   2   8.025933E-02   0.000000E+00   4.196568E-02   2.381509E-01   3.251808E-01   0.000000E+00
   3   1.648877E-03   0.000000E+00   1.188904E-03   2.908130E-03   4.655921E-03   0.000000E+00
   4   1.851046E-04   0.000000E+00   1.140669E-04   3.887446E-04   5.997045E-04   0.000000E+00
   5   7.485285E-05   0.000000E+00   4.876826E-05   1.444734E-04   2.163976E-04   0.000000E+00
   6   1.818896E-05   0.000000E+00   1.839020E-05   7.396456E-05   8.953355E-05   0.000000E+00
   7  -1.010326E-06   0.000000E+00   6.979877E-07   1.770915E-05   3.190406E-05   0.000000E+00
   8  -9.902333E-07   0.000000E+00   5.294862E-07   5.123195E-07   9.431254E-07   0.000000E+00
 
:INFO :  Singular value  1.437E+01 Weight  1.000E+00 Projection  2.269E-03
:INFO :  Singular value  3.253E-01 Weight  1.000E+00 Projection -1.479E-01
:INFO :  Singular value  4.658E-03 Weight  9.730E-01 Projection -1.495E-01
:INFO :  Singular value  6.079E-04 Weight  3.804E-01 Projection  2.359E-01
:INFO :  Singular value  2.157E-04 Weight  7.174E-02 Projection -4.221E-02
:INFO :  Singular value  9.090E-05 Weight  1.354E-02 Projection  1.835E-02
:INFO :  Singular value  3.140E-05 Weight  1.635E-03 Projection  1.176E-03
:INFO :  Singular value  9.335E-07 Weight  1.448E-06 Projection -2.024E-06
:RANK :  ACTIVE   3.44/8  =  43.00 % ; YY RANK   3.18/8  =  39.72 %
 
:DLIM :  Beta Active  2.930E-01
:BLIM :  VZERO Control Off
:TRUST:  Step 2.23E-01  Charge 5.12E-04 (e) CTO  2.75E-03 (e) PW  8.01E-03 (e)
:DTRUS:  Lambda    8.743E+01 Increment    7.276E-12 Iterations   162 DMIX    2.730E-02
:INFOA:  Angle SubSpace to MSR1     45.15
:DIRM :  MEMORY  8/8  SCALE   1.000 RED  0.97 PRED  0.64 NEXT  0.91 BETA  0.29
:INFO :  Limited by Atoms F by Step T

:TRAVE:  Charge 3.86E-04 (e) CTO  7.72E-04 (e) PW  2.98E-03 (e)
:DIRP :  |MSR1|= 5.463E-04 |PRATT|= 2.222E-02 ANGLE=  32.9 DEGREES
:DIRQ :  |MSR1|= 1.625E-03 |PRATT|= 7.478E-02 ANGLE=  45.6 DEGREES
:DIRT :  |MSR1|= 1.714E-03 |PRATT|= 7.801E-02 ANGLE=  44.6 DEGREES
:MIX  :   MSR1   REGULARIZATION:  7.76E-04 GREED: 0.08092  LMStep 0.20  0.0220 Charge         
     
       CHARGES OF MIXED CHARGE DENSITY
:CTO   : INTERSTITIAL CHARGE =     6.245772
:CPC   : PW Pseudocharge     =    17.707101
:CTO001: CHARGE SPHERE  1    =    55.877114

:NEC03: NUCLEAR AND ELECTRONIC CHARGE    118.00000   118.00000

PW CHANGE     H    K    L      Current       Change    Residue
:PTO001:      0    0    0  8.69963260E-02 -8.046E-06 -4.316E-04
:PTO003:      0    2    0  1.94545037E-02 -1.647E-06 -2.154E-05
:PTO004:     -1    1    0  9.02263228E-02 -1.125E-05 -1.858E-04
:PTO005:      0    2   -1 -1.02727601E-01 -1.268E-06  2.276E-04
:PTO006:      0    0   -2 -5.33198991E-02  2.509E-06  1.138E-04
:PTO007:     -1    1   -1 -1.05294368E-01  8.657E-06  2.091E-04
:PTO008:      0    2   -2 -1.40279809E-02  4.402E-06  4.106E-05
:PTO009:     -1    1   -2 -6.92459996E-02  7.717E-06  1.294E-04
:PTO011:     -1    3    0 -9.82935381E-03  1.195E-06  2.668E-05
:PTO012:     -1    3   -1 -3.93316067E-02  6.301E-06  8.675E-05
:PTO013:      0    4    0 -6.37483487E-03  2.163E-07  2.118E-05
:PTO014:      0    2   -3  1.48790930E-02 -2.040E-06 -6.047E-05

:ENE  : ********** TOTAL ENERGY IN Ry =       -36944.17514647

       TOTAL FORCE IN mRy/a.u. = |F|     Fx             Fy             Fz     with/without FOR in case.in2
:FOR001:   1.ATOM          0.699          0.000          0.000          0.699 partial forces
       TOTAL FORCE WITH RESPECT TO GLOBAL CARTESIAN COORDINATES:
:FCA001:   1.ATOM                         0.000          0.699          0.000 partial forces
       TOTAL FORCE WITH RESPECT TO THE GLOBAL COORDINATE SYSTEM:
:FGL001:   1.ATOM                 0.000000000     0.699414211     0.000000000 partial forces
