
------- epsilon_Pu_12.scf0 --------


            ---------
:ITE098: 98. ITERATION
            ---------

:NATO :    1 INDEPENDENT AND    1 TOTAL ATOMS IN UNITCELL
       SUBSTANCE: cubic body-centered  (epsilon Pu)                           

       LATTICE                      = B   
:POT  : POTENTIAL OPTION    5
:LAT  : LATTICE CONSTANTS=  7.09835  7.09835  7.09835    1.571    1.571    1.571
:VOL  : UNIT CELL VOLUME =     178.83092
       MODE OF CALCULATION IS       = RELA
       NON-SPINPOLARIZED CALCULATION
:IFFT  : FFT-parameters:   60   60   60 Factor: 2.00
       ATOMNUMBER=  1 Pu  0+     VCOUL-ZERO =  0.21479E+00
:FIT001: LUSE= 13 SIGMA OF V-XC FIT FOR ATOM  1  0.5193099E-06
:FIT001: LUSE= 13 SIGMA OF V-XC FIT FOR ATOM  1  0.5193099E-06
:DEN  : DENSITY INTEGRAL  =        -21880.79205331   (Ry)
       ELS_POTENTIAL_AT Z=0 and Z=0.5:  -2.41896  -2.41896
       ELS_POTENTIAL_AT Y=0 and Y=0.5:   0.00000   0.00000
:VZERO:v0,v0c,v0x  -3.41326  -2.41896  -0.99430 v5,v5c,v5x  -3.41326  -2.41896  -0.99430
:VZERY:v0,v0c,v0x  -0.85731   0.00000  -0.85731 v5,v5c,v5x  -0.85731   0.00000  -0.85731
:VZERX:v0,v0c,v0x  -0.85731   0.00000  -0.85731 v5,v5c,v5x  -0.85731   0.00000  -0.85731

------- epsilon_Pu_12.scf1 --------

          ATOMIC SPHERE DEPENDENT PARAMETERS FOR ATOM  Pu  0+    
:e__0001: OVERALL ENERGY PARAMETER IS    0.8474
          OVERALL BASIS SET ON ATOM IS LAPW
:E0_0001: E( 0)=    0.8474
             APW+lo
:E0_0001: E( 0)=   -2.3490   E(BOTTOM)=   -3.124   E(TOP)=   -1.574
             LOCAL ORBITAL
:E1_0001: E( 1)=   -1.3800   E(BOTTOM)=   -1.430   E(TOP)= -200.000
             APW+lo
:E1_0001: E( 1)=    0.8474
             LOCAL ORBITAL
:E3_0001: E( 3)=    0.8474   E(BOTTOM)=    0.617   E(TOP)= -200.000
             APW+lo
:E2_0001: E( 2)=    0.8474   E(BOTTOM)=    0.777   E(TOP)= -200.000
             APW+lo

       K=   0.00000   0.00000   0.00000            1
:RKM  : MATRIX SIZE  197LOs:  20  RKM= 8.07  WEIGHT= 1.00  PGR:    
       EIGENVALUES ARE:
:EIG00001:      -2.3200854   -0.2430194   -0.2430194   -0.2430194    0.6740242
:EIG00006:       1.0605563    1.0605563    1.0605563    1.1666231    1.1666231
:EIG00011:       1.1666231    1.1978025    1.2297369    1.2297369    1.2297369
:EIG00016:       1.4664246    1.4664246    2.0915313    2.0915313    2.0915313
:EIG00021:       2.7299117    2.7299117    3.0231560    3.0231560    3.0231560
:EIG00026:       3.0889858    3.7974439    3.7974439    3.7974439    4.2146665
:EIG00031:       4.2146665    4.2146665    4.4698826    4.4698826    4.4698826
:EIG00036:       4.5261111    4.5623136    4.5623136    4.5623136    4.5847695
:EIG00041:       4.5847695    4.8079425    4.8079425    5.0320514    5.0320514
:EIG00046:       5.0320514    5.0883648    5.0883648    5.0883648    5.1574345
 
:EIG00051:       5.6720992    5.6720992    6.0265849    6.0265849    6.0265849
:EIG00056:       6.2307811    6.2307811    6.2307811    6.3667327    6.7284977
:EIG00061:       6.7284977    6.7284977    7.1713530    7.2053137    7.2053137
:EIG00066:       7.2053137    7.2803330    7.2803330
       ********************************************************

:KPT   :      NUMBER OF K-POINTS:   286

------- epsilon_Pu_12.scfso --------
   0.0   0.0 angle (M,z), angle (M,x) deg
 
        SPIN-ORBIT EIGENVALUES:
     K=   0.00000   0.00000   0.00000            1
      MATRIX SIZE=  136   WEIGHT= 1.00
     EIGENVALUES ARE:
          -2.3200854   -2.3200854   -0.7052405   -0.7052405   -0.0422742
          -0.0422742   -0.0422742   -0.0422742    0.6740242    0.6740242
           1.0417505    1.0417505    1.0519737    1.0519737    1.0519737
           1.0519737    1.1615884    1.1615884    1.1615884    1.1615884
           1.2015092    1.2015092    1.2062468    1.2062468    1.2146692
           1.2146692    1.2146692    1.2146692    1.2515529    1.2515529
           1.4688630    1.4688630    1.4688630    1.4688630    2.0878681
           2.0878681    2.0942436    2.0942436    2.0942436    2.0942436

           2.7290871    2.7290871    2.7290871    2.7290871    2.8802179
           2.8802179    3.0889858    3.0889858    3.0902528    3.0902528
           3.0902528    3.0902528    3.7780564    3.7780564    3.7780564
           3.7780564    3.8366986    3.8366986    4.0630983    4.0630983
           4.3153424    4.3153424    4.3153424    4.3153424    4.4698636
           4.4698636    4.4698921    4.4698921    4.4698921    4.4698921

       ********************************************************

------- epsilon_Pu_12.scf2 --------
:GMA  : POTENTIAL AND CHARGE CUT-OFF  12.00 Ry**.5
         Bandranges (emin - emax) and occupancy:
:BAN00008:   8   -0.203617   -0.042274  1.00000000
:BAN00009:   9    0.674024    1.063908  1.00000000
:BAN00010:  10    0.674024    1.063908  1.00000000
:BAN00011:  11    0.868598    1.077793  1.00000000
:BAN00012:  12    0.868598    1.077793  1.00000000
:BAN00013:  13    1.013203    1.082077  1.00000000
:BAN00014:  14    1.013203    1.082077  1.00000000
:BAN00015:  15    1.050283    1.087049  0.98221701
:BAN00016:  16    1.050283    1.087049  0.98221701
:BAN00017:  17    1.079321    1.161588  0.01778299
:BAN00018:  18    1.079321    1.161588  0.01778299
:BAN00019:  19    1.098125    1.163726  0.00000000
:BAN00020:  20    1.098125    1.163726  0.00000000
:BAN00021:  21    1.156149    1.201509  0.00000000
:BAN00022:  22    1.156149    1.201509  0.00000000
:BAN00023:  23    1.163171    1.206247  0.00000000
        Energy to separate low and high energystates:    0.62402


:NLDA  : NUMBER OF ELECTRONS          =  16.000

:FLDA  : F E R M I - ENERGY           =   1.58526




:POS001: AT.NR.   1 POSITION = 0.00000 0.00000 0.00000  MULTIPLICITY =  1

       LMMAX  5
       LM=   0 0  4 0  4 4  6 0  6 4
:FER DMFT Fermi Energy   1.04930
:EORB    0.21289877
:SUM SUM OF DMFT BAND ENERGIES    1.23944279

:CHA001: TOTAL CHARGE INSIDE SPHERE   1 =    11.552868
:PCS001: PARTIAL CHARGES SPHERE =  1 S,P,D,F,      D-EG,D-T2G 
:QTL001: 1.9589 4.5890 0.3847 4.6195 0.0000 0.0000 0.0000 0.1853 0.2079 0.0000 0.0000 0.0000
        Q-s-low E-s-low   Q-p-low E-p-low   Q-d-low E-d-low   Q-f-low E-f-low
:EPL001:  1.8725 -2.3010    4.4886 -0.3743    0.0040 -0.1975    0.0015 -0.2125
        Q-s-hi  E-s-hi    Q-p-hi  E-p-hi    Q-d-hi  E-d-hi    Q-f-hi  E-f-hi 
:EPH001:  0.0864  0.8973    0.1004  0.9548    0.3807  0.9678    4.6180  1.0569

:CHA  : TOTAL CHARGE INSIDE UNIT CELL =      15.999996

:ESUM  : SUM OF EIGENVALUES =           1.498790622


------- epsilon_Pu_12.scfc --------

        1.ATOM      Pu  0+               21 CORE STATES
:1S 001: 1S               -8966.647011334 Ry
:2S 001: 2S               -1687.317742139 Ry
:2PP001: 2P*              -1628.012182089 Ry
:2P 001: 2P               -1314.859972144 Ry
:3S 001: 3S                -427.852519266 Ry
:3PP001: 3P*               -400.928523990 Ry
:3P 001: 3P                -328.366730904 Ry
:3DD001: 3D*               -286.127515290 Ry
:3D 001: 3D                -271.585017298 Ry
:4S 001: 4S                -109.335682585 Ry
:4PP001: 4P*                -97.147859725 Ry
:4P 001: 4P                 -78.003044211 Ry
:4DD001: 4D*                -58.715607639 Ry
:4D 001: 4D                 -55.221159993 Ry
:5S 001: 5S                 -23.495313722 Ry
:5PP001: 5P*                -18.678161303 Ry
:5P 001: 5P                 -13.991756095 Ry
:4FF001: 4F*                -29.820197202 Ry
:4F 001: 4F                 -28.892214609 Ry
:5DD001: 5D*                 -6.959952430 Ry
:5D 001: 5D                  -6.262104021 Ry

------- epsilon_Pu_12.scfm --------

       DENSITY AT NUCLEUS
        JATOM    VALENCE       SEMI-CORE            CORE           TOTAL
:RTO001:   1    23615.898932        0.000000 45141803.165458 45165419.064390
     
       CHARGES OF NEW CHARGE DENSITY
:NTO  : TOTAL   INTERSTITIAL CHARGE=    4.4471254
:NTO001: TOTAL   CHARGE IN SPHERE  1 =       89.5435093

:NEC01: NUCLEAR AND ELECTRONIC CHARGE     94.00000    93.99063     1.00010
     
       CHARGES OF OLD CHARGE DENSITY
:OTO  : TOTAL   INTERSTITIAL CHARGE=    4.4518799
:OTO001: TOTAL   CHARGE IN SPHERE  1 =       89.5481201

:NEC02: NUCLEAR AND ELECTRONIC CHARGE     94.00000    94.00000     1.00000
     
       CONVERGENCE TEST
:DTO001: TOTAL   DIFFERENCE CHARGE**2 IN SPHERE  1 =  0.0043820

:DIS  :  CHARGE DISTANCE       ( 0.0043820 for atom    1 spin 1)      0.0043820
:BIG check (qbig,qrms,qtot)    0.146D-02   0.310D-02   0.438D-02
 
******************************************************
* MULTISECANT MIXING VER4 OPTIONS                    *
* Unpredicted Step Limit   0.100000                  *
* Plane Wave Dynamic Rescaling                       *
* Dynamic Regularization active                      *
* Upper Cutoff Lambda  1.0E-01 Lower 3.5E-04         *
* SQRT Multiplicity/Degeneracy                       *
* Max Number of Memory Steps    8                    *
******************************************************
 
:PLANE:  INTERSTITIAL TOTAL      1.86613 DISTAN  3.233E-02 % 
:CHARG:  CLM CHARGE   /ATOM    713.22916 DISTAN  2.078E-03 % 
:MIX  :  PRATT  REGULARIZATION: 3.50E-04  GREED: 0.035
     
       CHARGES OF MIXED CHARGE DENSITY
:CTO  : TOTAL   INTERSTITIAL CHARGE=    4.4520413
:CTO001: TOTAL   CHARGE IN SPHERE  1 =       89.5479587

:NEC03: NUCLEAR AND ELECTRONIC CHARGE     94.00000    94.00000     1.00000


:ENE  : ********** TOTAL ENERGY IN Ry =       -59354.73660686


------- epsilon_Pu_12.scf0 --------


            ---------
:ITE099: 99. ITERATION
            ---------

:NATO :    1 INDEPENDENT AND    1 TOTAL ATOMS IN UNITCELL
       SUBSTANCE: cubic body-centered  (epsilon Pu)                           

       LATTICE                      = B   
:POT  : POTENTIAL OPTION    5
:LAT  : LATTICE CONSTANTS=  7.09835  7.09835  7.09835    1.571    1.571    1.571
:VOL  : UNIT CELL VOLUME =     178.83092
       MODE OF CALCULATION IS       = RELA
       NON-SPINPOLARIZED CALCULATION
:IFFT  : FFT-parameters:   60   60   60 Factor: 2.00
       ATOMNUMBER=  1 Pu  0+     VCOUL-ZERO =  0.21479E+00
:FIT001: LUSE= 13 SIGMA OF V-XC FIT FOR ATOM  1  0.5178028E-06
:FIT001: LUSE= 13 SIGMA OF V-XC FIT FOR ATOM  1  0.5178028E-06
:DEN  : DENSITY INTEGRAL  =        -21880.77041390   (Ry)
       ELS_POTENTIAL_AT Z=0 and Z=0.5:  -2.41900  -2.41900
       ELS_POTENTIAL_AT Y=0 and Y=0.5:   0.00000   0.00000
:VZERO:v0,v0c,v0x  -3.41330  -2.41900  -0.99431 v5,v5c,v5x  -3.41330  -2.41900  -0.99431
:VZERY:v0,v0c,v0x  -0.85732   0.00000  -0.85732 v5,v5c,v5x  -0.85732   0.00000  -0.85732
:VZERX:v0,v0c,v0x  -0.85732   0.00000  -0.85732 v5,v5c,v5x  -0.85732   0.00000  -0.85732

------- epsilon_Pu_12.scf1 --------

          ATOMIC SPHERE DEPENDENT PARAMETERS FOR ATOM  Pu  0+    
:e__0001: OVERALL ENERGY PARAMETER IS    0.8474
          OVERALL BASIS SET ON ATOM IS LAPW
:E0_0001: E( 0)=    0.8474
             APW+lo
:E0_0001: E( 0)=   -2.3495   E(BOTTOM)=   -3.124   E(TOP)=   -1.575
             LOCAL ORBITAL
:E1_0001: E( 1)=   -1.3800   E(BOTTOM)=   -1.430   E(TOP)= -200.000
             APW+lo
:E1_0001: E( 1)=    0.8474
             LOCAL ORBITAL
:E3_0001: E( 3)=    0.8474   E(BOTTOM)=    0.617   E(TOP)= -200.000
             APW+lo
:E2_0001: E( 2)=    0.8474   E(BOTTOM)=    0.777   E(TOP)= -200.000
             APW+lo

       K=   0.00000   0.00000   0.00000            1
:RKM  : MATRIX SIZE  197LOs:  20  RKM= 8.07  WEIGHT= 1.00  PGR:    
       EIGENVALUES ARE:
:EIG00001:      -2.3201776   -0.2430844   -0.2430844   -0.2430844    0.6740241
:EIG00006:       1.0604653    1.0604653    1.0604653    1.1665052    1.1665052
:EIG00011:       1.1665052    1.1976855    1.2297220    1.2297220    1.2297220
:EIG00016:       1.4664095    1.4664095    2.0915057    2.0915057    2.0915057
:EIG00021:       2.7299030    2.7299030    3.0231375    3.0231375    3.0231375
:EIG00026:       3.0889885    3.7974114    3.7974114    3.7974114    4.2146419
:EIG00031:       4.2146419    4.2146419    4.4698777    4.4698777    4.4698777
:EIG00036:       4.5260882    4.5623099    4.5623099    4.5623099    4.5847643
:EIG00041:       4.5847643    4.8079526    4.8079526    5.0320336    5.0320336
:EIG00046:       5.0320336    5.0883584    5.0883584    5.0883584    5.1573674
 
:EIG00051:       5.6720856    5.6720856    6.0265827    6.0265827    6.0265827
:EIG00056:       6.2307818    6.2307818    6.2307818    6.3667350    6.7284776
:EIG00061:       6.7284776    6.7284776    7.1713169    7.2053010    7.2053010
:EIG00066:       7.2053010    7.2803053    7.2803053
       ********************************************************

:KPT   :      NUMBER OF K-POINTS:   286

------- epsilon_Pu_12.scfso --------
   0.0   0.0 angle (M,z), angle (M,x) deg
 
        SPIN-ORBIT EIGENVALUES:
     K=   0.00000   0.00000   0.00000            1
      MATRIX SIZE=  136   WEIGHT= 1.00
     EIGENVALUES ARE:
          -2.3201776   -2.3201776   -0.7053159   -0.7053159   -0.0423343
          -0.0423343   -0.0423343   -0.0423343    0.6740241    0.6740241
           1.0416558    1.0416558    1.0518780    1.0518780    1.0518780
           1.0518780    1.1614748    1.1614748    1.1614748    1.1614748
           1.2013932    1.2013932    1.2061326    1.2061326    1.2146536
           1.2146536    1.2146536    1.2146536    1.2515388    1.2515388
           1.4688481    1.4688481    1.4688481    1.4688481    2.0878430
           2.0878430    2.0942177    2.0942177    2.0942177    2.0942177

           2.7290783    2.7290783    2.7290783    2.7290783    2.8801985
           2.8801985    3.0889885    3.0889885    3.0902348    3.0902348
           3.0902349    3.0902349    3.7780237    3.7780237    3.7780237
           3.7780237    3.8366667    3.8366667    4.0630747    4.0630747
           4.3153176    4.3153176    4.3153176    4.3153176    4.4698587
           4.4698587    4.4698871    4.4698871    4.4698871    4.4698871

       ********************************************************

------- epsilon_Pu_12.scf2 --------
:GMA  : POTENTIAL AND CHARGE CUT-OFF  12.00 Ry**.5
         Bandranges (emin - emax) and occupancy:
:BAN00008:   8   -0.203666   -0.042334  1.00000000
:BAN00009:   9    0.674024    1.063851  1.00000000
:BAN00010:  10    0.674024    1.063851  1.00000000
:BAN00011:  11    0.868598    1.077707  1.00000000
:BAN00012:  12    0.868598    1.077707  1.00000000
:BAN00013:  13    1.013159    1.081969  1.00000000
:BAN00014:  14    1.013159    1.081969  1.00000000
:BAN00015:  15    1.050187    1.086957  0.98214363
:BAN00016:  16    1.050187    1.086957  0.98214363
:BAN00017:  17    1.079222    1.161475  0.01785269
:BAN00018:  18    1.079222    1.161475  0.01785269
:BAN00019:  19    1.098045    1.163625  0.00000000
:BAN00020:  20    1.098045    1.163625  0.00000000
:BAN00021:  21    1.156051    1.201393  0.00000000
:BAN00022:  22    1.156051    1.201393  0.00000000
:BAN00023:  23    1.163065    1.206133  0.00000000
        Energy to separate low and high energystates:    0.62402


:NLDA  : NUMBER OF ELECTRONS          =  16.000

:FLDA  : F E R M I - ENERGY           =   1.58517




:POS001: AT.NR.   1 POSITION = 0.00000 0.00000 0.00000  MULTIPLICITY =  1

       LMMAX  5
       LM=   0 0  4 0  4 4  6 0  6 4
:FER DMFT Fermi Energy   1.04930
:EORB    0.21228443
:SUM SUM OF DMFT BAND ENERGIES    1.23894198

:CHA001: TOTAL CHARGE INSIDE SPHERE   1 =    11.553029
:PCS001: PARTIAL CHARGES SPHERE =  1 S,P,D,F,      D-EG,D-T2G 
:QTL001: 1.9589 4.5891 0.3848 4.6195 0.0000 0.0000 0.0000 0.1853 0.2080 0.0000 0.0000 0.0000
        Q-s-low E-s-low   Q-p-low E-p-low   Q-d-low E-d-low   Q-f-low E-f-low
:EPL001:  1.8725 -2.3011    4.4886 -0.3744    0.0040 -0.1975    0.0015 -0.2126
        Q-s-hi  E-s-hi    Q-p-hi  E-p-hi    Q-d-hi  E-d-hi    Q-f-hi  E-f-hi 
:EPH001:  0.0864  0.8972    0.1004  0.9547    0.3808  0.9677    4.6180  1.0569

:CHA  : TOTAL CHARGE INSIDE UNIT CELL =      16.000000

:ESUM  : SUM OF EIGENVALUES =           1.497679053


------- epsilon_Pu_12.scfc --------

        1.ATOM      Pu  0+               21 CORE STATES
:1S 001: 1S               -8966.647346546 Ry
:2S 001: 2S               -1687.318070728 Ry
:2PP001: 2P*              -1628.012512434 Ry
:2P 001: 2P               -1314.860300712 Ry
:3S 001: 3S                -427.852828687 Ry
:3PP001: 3P*               -400.928835540 Ry
:3P 001: 3P                -328.367037573 Ry
:3DD001: 3D*               -286.127827477 Ry
:3D 001: 3D                -271.585328135 Ry
:4S 001: 4S                -109.335947630 Ry
:4PP001: 4P*                -97.148125390 Ry
:4P 001: 4P                 -78.003301610 Ry
:4DD001: 4D*                -58.715866391 Ry
:4D 001: 4D                 -55.221416417 Ry
:5S 001: 5S                 -23.495521405 Ry
:5PP001: 5P*                -18.678365224 Ry
:5P 001: 5P                 -13.991947343 Ry
:4FF001: 4F*                -29.820457538 Ry
:4F 001: 4F                 -28.892473759 Ry
:5DD001: 5D*                 -6.960130472 Ry
:5D 001: 5D                  -6.262277613 Ry

------- epsilon_Pu_12.scfm --------

       DENSITY AT NUCLEUS
        JATOM    VALENCE       SEMI-CORE            CORE           TOTAL
:RTO001:   1    23616.218745        0.000000 45141803.690001 45165419.908747
     
       CHARGES OF NEW CHARGE DENSITY
:NTO  : TOTAL   INTERSTITIAL CHARGE=    4.4469692
:NTO001: TOTAL   CHARGE IN SPHERE  1 =       89.5436704

:NEC01: NUCLEAR AND ELECTRONIC CHARGE     94.00000    93.99064     1.00010
     
       CHARGES OF OLD CHARGE DENSITY
:OTO  : TOTAL   INTERSTITIAL CHARGE=    4.4520413
:OTO001: TOTAL   CHARGE IN SPHERE  1 =       89.5479587

:NEC02: NUCLEAR AND ELECTRONIC CHARGE     94.00000    94.00000     1.00000
     
       CONVERGENCE TEST
:DTO001: TOTAL   DIFFERENCE CHARGE**2 IN SPHERE  1 =  0.0040566

:DIS  :  CHARGE DISTANCE       ( 0.0040566 for atom    1 spin 1)      0.0040566
:BIG check (qbig,qrms,qtot)    0.135D-02   0.287D-02   0.406D-02
 
******************************************************
* MULTISECANT MIXING VER4 OPTIONS                    *
* Unpredicted Step Limit   0.100000                  *
* Plane Wave Dynamic Rescaling                       *
* Dynamic Regularization active                      *
* Upper Cutoff Lambda  1.0E-01 Lower 3.5E-04         *
* SQRT Multiplicity/Degeneracy                       *
* Max Number of Memory Steps    8                    *
******************************************************
 
:PLANE:  INTERSTITIAL TOTAL      1.86612 DISTAN  2.993E-02 % 
:CHARG:  CLM CHARGE   /ATOM    713.22905 DISTAN  1.955E-03 % 
:INFO :  Dynamic rescale   2.476E+01  1.000E-01
:INFO :  Number of Memory Steps    1 Skipping    0
:INFO :  Bounds         0.375D-01  0.200D+00  0.263D+00  0.375D-01
:DIRM :  MEMORY 1/8 RESCALE  24.76 RED 0.933 PRED 1.000 NEXT 0.380 COND 1.00E+00
:DIRP :  |BROYD|= 6.296E-03 |PRATT|= 5.188E-04 ANGLE=   0.1 DEGREES
:DIRB :  |BROYD|= 8.945E-03 |PRATT|= 7.366E-04 ANGLE=   0.1 DEGREES
:MIX  :  MSR1   REGULARIZATION: 3.50E-04  GREED: 0.038
     
       CHARGES OF MIXED CHARGE DENSITY
:CTO  : TOTAL   INTERSTITIAL CHARGE=    4.4539941
:CTO001: TOTAL   CHARGE IN SPHERE  1 =       89.5460059

:NEC03: NUCLEAR AND ELECTRONIC CHARGE     94.00000    94.00000     1.00000


:ENE  : ********** TOTAL ENERGY IN Ry =       -59354.73660926


------- epsilon_Pu_12.scf0 --------


            ---------
:ITE100:100. ITERATION
            ---------

:NATO :    1 INDEPENDENT AND    1 TOTAL ATOMS IN UNITCELL
       SUBSTANCE: cubic body-centered  (epsilon Pu)                           

       LATTICE                      = B   
:POT  : POTENTIAL OPTION    5
:LAT  : LATTICE CONSTANTS=  7.09835  7.09835  7.09835    1.571    1.571    1.571
:VOL  : UNIT CELL VOLUME =     178.83092
       MODE OF CALCULATION IS       = RELA
       NON-SPINPOLARIZED CALCULATION
:IFFT  : FFT-parameters:   60   60   60 Factor: 2.00
       ATOMNUMBER=  1 Pu  0+     VCOUL-ZERO =  0.21468E+00
:FIT001: LUSE= 13 SIGMA OF V-XC FIT FOR ATOM  1  0.4995853E-06
:FIT001: LUSE= 13 SIGMA OF V-XC FIT FOR ATOM  1  0.4995853E-06
:DEN  : DENSITY INTEGRAL  =        -21880.51442464   (Ry)
       ELS_POTENTIAL_AT Z=0 and Z=0.5:  -2.41949  -2.41949
       ELS_POTENTIAL_AT Y=0 and Y=0.5:   0.00000   0.00000
:VZERO:v0,v0c,v0x  -3.41386  -2.41949  -0.99436 v5,v5c,v5x  -3.41386  -2.41949  -0.99436
:VZERY:v0,v0c,v0x  -0.85740   0.00000  -0.85740 v5,v5c,v5x  -0.85740   0.00000  -0.85740
:VZERX:v0,v0c,v0x  -0.85740   0.00000  -0.85740 v5,v5c,v5x  -0.85740   0.00000  -0.85740

------- epsilon_Pu_12.scf1 --------

          ATOMIC SPHERE DEPENDENT PARAMETERS FOR ATOM  Pu  0+    
:e__0001: OVERALL ENERGY PARAMETER IS    0.8474
          OVERALL BASIS SET ON ATOM IS LAPW
:E0_0001: E( 0)=    0.8474
             APW+lo
:E0_0001: E( 0)=   -2.3505   E(BOTTOM)=   -3.125   E(TOP)=   -1.576
             LOCAL ORBITAL
:E1_0001: E( 1)=   -1.3800   E(BOTTOM)=   -1.432   E(TOP)= -200.000
             APW+lo
:E1_0001: E( 1)=    0.8474
             LOCAL ORBITAL
:E3_0001: E( 3)=    0.8474   E(BOTTOM)=    0.617   E(TOP)= -200.000
             APW+lo
:E2_0001: E( 2)=    0.8474   E(BOTTOM)=    0.777   E(TOP)= -200.000
             APW+lo

       K=   0.00000   0.00000   0.00000            1
:RKM  : MATRIX SIZE  197LOs:  20  RKM= 8.07  WEIGHT= 1.00  PGR:    
       EIGENVALUES ARE:
:EIG00001:      -2.3212822   -0.2438640   -0.2438640   -0.2438640    0.6740232
:EIG00006:       1.0593769    1.0593769    1.0593769    1.1650936    1.1650936
:EIG00011:       1.1650936    1.1962885    1.2295440    1.2295440    1.2295440
:EIG00016:       1.4662278    1.4662278    2.0912019    2.0912019    2.0912019
:EIG00021:       2.7297985    2.7297985    3.0229175    3.0229175    3.0229175
:EIG00026:       3.0890211    3.7970231    3.7970231    3.7970231    4.2143480
:EIG00031:       4.2143480    4.2143480    4.4698175    4.4698175    4.4698175
:EIG00036:       4.5258104    4.5622665    4.5622665    4.5622665    4.5847024
:EIG00041:       4.5847024    4.8080734    4.8080734    5.0318224    5.0318224
:EIG00046:       5.0318224    5.0882833    5.0882833    5.0882833    5.1565666
 
:EIG00051:       5.6719224    5.6719224    6.0265559    6.0265559    6.0265559
:EIG00056:       6.2307912    6.2307912    6.2307912    6.3667616    6.7282380
:EIG00061:       6.7282380    6.7282380    7.1708705    7.2051489    7.2051489
:EIG00066:       7.2051489    7.2799740    7.2799740
       ********************************************************

:KPT   :      NUMBER OF K-POINTS:   286

------- epsilon_Pu_12.scfso --------
   0.0   0.0 angle (M,z), angle (M,x) deg
 
        SPIN-ORBIT EIGENVALUES:
     K=   0.00000   0.00000   0.00000            1
      MATRIX SIZE=  136   WEIGHT= 1.00
     EIGENVALUES ARE:
          -2.3212822   -2.3212822   -0.7062191   -0.7062191   -0.0430554
          -0.0430554   -0.0430554   -0.0430554    0.6740232    0.6740232
           1.0405226    1.0405226    1.0507328    1.0507328    1.0507328
           1.0507328    1.1601162    1.1601162    1.1601162    1.1601162
           1.2000046    1.2000046    1.2047694    1.2047694    1.2144668
           1.2144668    1.2144668    1.2144668    1.2513702    1.2513702
           1.4686693    1.4686693    1.4686693    1.4686693    2.0875443
           2.0875443    2.0939094    2.0939094    2.0939094    2.0939094

           2.7289736    2.7289736    2.7289736    2.7289736    2.8799678
           2.8799678    3.0890211    3.0890211    3.0900213    3.0900213
           3.0900214    3.0900214    3.7776330    3.7776330    3.7776330
           3.7776330    3.8362855    3.8362855    4.0627933    4.0627933
           4.3150220    4.3150220    4.3150220    4.3150220    4.4697985
           4.4697985    4.4698270    4.4698270    4.4698270    4.4698270

       ********************************************************

------- epsilon_Pu_12.scf2 --------
:GMA  : POTENTIAL AND CHARGE CUT-OFF  12.00 Ry**.5
         Bandranges (emin - emax) and occupancy:
:BAN00008:   8   -0.204253   -0.043055  1.00000000
:BAN00009:   9    0.674023    1.063159  1.00000000
:BAN00010:  10    0.674023    1.063159  1.00000000
:BAN00011:  11    0.868593    1.076678  1.00000000
:BAN00012:  12    0.868593    1.076678  1.00000000
:BAN00013:  13    1.012630    1.080673  1.00000000
:BAN00014:  14    1.012630    1.080673  1.00000000
:BAN00015:  15    1.049047    1.085855  0.98124505
:BAN00016:  16    1.049047    1.085855  0.98124505
:BAN00017:  17    1.078039    1.160116  0.01875495
:BAN00018:  18    1.078039    1.160116  0.01875495
:BAN00019:  19    1.097084    1.162408  0.00000000
:BAN00020:  20    1.097084    1.162408  0.00000000
:BAN00021:  21    1.154874    1.200005  0.00000000
:BAN00022:  22    1.154874    1.200005  0.00000000
:BAN00023:  23    1.161799    1.204769  0.00000000
        Energy to separate low and high energystates:    0.62402


:NLDA  : NUMBER OF ELECTRONS          =  16.000

:FLDA  : F E R M I - ENERGY           =   1.58399




:POS001: AT.NR.   1 POSITION = 0.00000 0.00000 0.00000  MULTIPLICITY =  1

       LMMAX  5
       LM=   0 0  4 0  4 4  6 0  6 4
:FER DMFT Fermi Energy   1.04900
:EORB    0.20747530
:SUM SUM OF DMFT BAND ENERGIES    1.23030220

:CHA001: TOTAL CHARGE INSIDE SPHERE   1 =    11.558293
:PCS001: PARTIAL CHARGES SPHERE =  1 S,P,D,F,      D-EG,D-T2G 
:QTL001: 1.9589 4.5898 0.3842 4.6246 0.0000 0.0000 0.0000 0.1852 0.2075 0.0000 0.0000 0.0000
        Q-s-low E-s-low   Q-p-low E-p-low   Q-d-low E-d-low   Q-f-low E-f-low
:EPL001:  1.8726 -2.3022    4.4896 -0.3751    0.0040 -0.1982    0.0015 -0.2132
        Q-s-hi  E-s-hi    Q-p-hi  E-p-hi    Q-d-hi  E-d-hi    Q-f-hi  E-f-hi 
:EPH001:  0.0864  0.8970    0.1002  0.9543    0.3802  0.9672    4.6231  1.0559

:CHA  : TOTAL CHARGE INSIDE UNIT CELL =      16.000000

:ESUM  : SUM OF EIGENVALUES =           1.484487191


------- epsilon_Pu_12.scfc --------

        1.ATOM      Pu  0+               21 CORE STATES
:1S 001: 1S               -8966.651286736 Ry
:2S 001: 2S               -1687.321937724 Ry
:2PP001: 2P*              -1628.016398894 Ry
:2P 001: 2P               -1314.864167443 Ry
:3S 001: 3S                -427.856477542 Ry
:3PP001: 3P*               -400.932508837 Ry
:3P 001: 3P                -328.370654550 Ry
:3DD001: 3D*               -286.131508122 Ry
:3D 001: 3D                -271.588993268 Ry
:4S 001: 4S                -109.339081272 Ry
:4PP001: 4P*                -97.151266213 Ry
:4P 001: 4P                 -78.006346588 Ry
:4DD001: 4D*                -58.718927092 Ry
:4D 001: 4D                 -55.224450160 Ry
:5S 001: 5S                 -23.497990891 Ry
:5PP001: 5P*                -18.680790812 Ry
:5P 001: 5P                 -13.994224963 Ry
:4FF001: 4F*                -29.823537064 Ry
:4F 001: 4F                 -28.895539545 Ry
:5DD001: 5D*                 -6.962252904 Ry
:5D 001: 5D                  -6.264347726 Ry

------- epsilon_Pu_12.scfm --------

       DENSITY AT NUCLEUS
        JATOM    VALENCE       SEMI-CORE            CORE           TOTAL
:RTO001:   1    23620.350468        0.000000 45141809.756128 45165430.106596
     
       CHARGES OF NEW CHARGE DENSITY
:NTO  : TOTAL   INTERSTITIAL CHARGE=    4.4417047
:NTO001: TOTAL   CHARGE IN SPHERE  1 =       89.5489428

:NEC01: NUCLEAR AND ELECTRONIC CHARGE     94.00000    93.99065     1.00010
     
       CHARGES OF OLD CHARGE DENSITY
:OTO  : TOTAL   INTERSTITIAL CHARGE=    4.4539941
:OTO001: TOTAL   CHARGE IN SPHERE  1 =       89.5460059

:NEC02: NUCLEAR AND ELECTRONIC CHARGE     94.00000    94.00000     1.00000
     
       CONVERGENCE TEST
:DTO001: TOTAL   DIFFERENCE CHARGE**2 IN SPHERE  1 =  0.0032603

:DIS  :  CHARGE DISTANCE       ( 0.0032603 for atom    1 spin 1)      0.0032603
:BIG check (qbig,qrms,qtot)    0.109D-02   0.231D-02   0.326D-02
 
******************************************************
* MULTISECANT MIXING VER4 OPTIONS                    *
* Unpredicted Step Limit   0.100000                  *
* Plane Wave Dynamic Rescaling                       *
* Dynamic Regularization active                      *
* Upper Cutoff Lambda  1.0E-01 Lower 3.5E-04         *
* SQRT Multiplicity/Degeneracy                       *
* Max Number of Memory Steps    8                    *
******************************************************
 
:PLANE:  INTERSTITIAL TOTAL      1.86602 DISTAN  1.622E-02 % 
:CHARG:  CLM CHARGE   /ATOM    713.22782 DISTAN  1.234E-03 % 
:INFO :  Dynamic rescale   2.613E+01  1.000E-01
:INFO :  Number of Memory Steps    2 Skipping    0
:INFO :  Singular value   2.626E+00 Weight   9.967E-01 Projections   3.998E-03 -5.653E-03
:INFO :  Singular value   1.451E-04 Weight   9.116E-07 Projections   3.996E-03  3.145E-07
:INFO :  Bounds         0.640D-01  0.200D+00  0.149D+00  0.640D-01
:DIRM :  MEMORY 2/8 RESCALE  26.13 RED 0.586 PRED 0.380 NEXT 0.671 COND 1.32E+00
:DIRP :  |BROYD|= 1.923E-03 |PRATT|= 5.059E-04 ANGLE=  45.1 DEGREES
:DIRB :  |BROYD|= 2.613E-03 |PRATT|= 7.570E-04 ANGLE=  53.9 DEGREES
:MIX  :  MSR1   REGULARIZATION: 1.52E-01  GREED: 0.064
     
       CHARGES OF MIXED CHARGE DENSITY
:CTO  : TOTAL   INTERSTITIAL CHARGE=    4.4533635
:CTO001: TOTAL   CHARGE IN SPHERE  1 =       89.5466365

:NEC03: NUCLEAR AND ELECTRONIC CHARGE     94.00000    94.00000     1.00000


:ENE  : ********** TOTAL ENERGY IN Ry =       -59354.73673730


------- epsilon_Pu_12.scf0 --------


            ---------
:ITE101:101. ITERATION
            ---------

:NATO :    1 INDEPENDENT AND    1 TOTAL ATOMS IN UNITCELL
       SUBSTANCE: cubic body-centered  (epsilon Pu)                           

       LATTICE                      = B   
:POT  : POTENTIAL OPTION    5
:LAT  : LATTICE CONSTANTS=  7.09835  7.09835  7.09835    1.571    1.571    1.571
:VOL  : UNIT CELL VOLUME =     178.83092
       MODE OF CALCULATION IS       = RELA
       NON-SPINPOLARIZED CALCULATION
:IFFT  : FFT-parameters:   60   60   60 Factor: 2.00
       ATOMNUMBER=  1 Pu  0+     VCOUL-ZERO =  0.21471E+00
:FIT001: LUSE= 13 SIGMA OF V-XC FIT FOR ATOM  1  0.5034692E-06
:FIT001: LUSE= 13 SIGMA OF V-XC FIT FOR ATOM  1  0.5034692E-06
:DEN  : DENSITY INTEGRAL  =        -21880.60071209   (Ry)
       ELS_POTENTIAL_AT Z=0 and Z=0.5:  -2.41933  -2.41933
       ELS_POTENTIAL_AT Y=0 and Y=0.5:   0.00000   0.00000
:VZERO:v0,v0c,v0x  -3.41368  -2.41933  -0.99435 v5,v5c,v5x  -3.41368  -2.41933  -0.99435
:VZERY:v0,v0c,v0x  -0.85737   0.00000  -0.85737 v5,v5c,v5x  -0.85737   0.00000  -0.85737
:VZERX:v0,v0c,v0x  -0.85737   0.00000  -0.85737 v5,v5c,v5x  -0.85737   0.00000  -0.85737

------- epsilon_Pu_12.scf1 --------

          ATOMIC SPHERE DEPENDENT PARAMETERS FOR ATOM  Pu  0+    
:e__0001: OVERALL ENERGY PARAMETER IS    0.8474
          OVERALL BASIS SET ON ATOM IS LAPW
:E0_0001: E( 0)=    0.8474
             APW+lo
:E0_0001: E( 0)=   -2.3505   E(BOTTOM)=   -3.125   E(TOP)=   -1.576
             LOCAL ORBITAL
:E1_0001: E( 1)=   -1.3800   E(BOTTOM)=   -1.430   E(TOP)= -200.000
             APW+lo
:E1_0001: E( 1)=    0.8474
             LOCAL ORBITAL
:E3_0001: E( 3)=    0.8474   E(BOTTOM)=    0.617   E(TOP)= -200.000
             APW+lo
:E2_0001: E( 2)=    0.8474   E(BOTTOM)=    0.777   E(TOP)= -200.000
             APW+lo

       K=   0.00000   0.00000   0.00000            1
:RKM  : MATRIX SIZE  197LOs:  20  RKM= 8.07  WEIGHT= 1.00  PGR:    
       EIGENVALUES ARE:
:EIG00001:      -2.3209169   -0.2436075   -0.2436075   -0.2436075    0.6740230
:EIG00006:       1.0597395    1.0597395    1.0597395    1.1655606    1.1655606
:EIG00011:       1.1655606    1.1967594    1.2296027    1.2296027    1.2296027
:EIG00016:       1.4662847    1.4662847    2.0913035    2.0913035    2.0913035
:EIG00021:       2.7298315    2.7298315    3.0229895    3.0229895    3.0229895
:EIG00026:       3.0890094    3.7971520    3.7971520    3.7971520    4.2144452
:EIG00031:       4.2144452    4.2144452    4.4698350    4.4698350    4.4698350
:EIG00036:       4.5259005    4.5622805    4.5622805    4.5622805    4.5847207
:EIG00041:       4.5847207    4.8080330    4.8080330    5.0318911    5.0318911
:EIG00046:       5.0318911    5.0883080    5.0883080    5.0883080    5.1568344
 
:EIG00051:       5.6719739    5.6719739    6.0265643    6.0265643    6.0265643
:EIG00056:       6.2307874    6.2307874    6.2307874    6.3667513    6.7283166
:EIG00061:       6.7283166    6.7283166    7.1710177    7.2051975    7.2051975
:EIG00066:       7.2051975    7.2800823    7.2800823
       ********************************************************

:KPT   :      NUMBER OF K-POINTS:   286

------- epsilon_Pu_12.scfso --------
   0.0   0.0 angle (M,z), angle (M,x) deg
 
        SPIN-ORBIT EIGENVALUES:
     K=   0.00000   0.00000   0.00000            1
      MATRIX SIZE=  136   WEIGHT= 1.00
     EIGENVALUES ARE:
          -2.3209169   -2.3209169   -0.7059214   -0.7059214   -0.0428185
          -0.0428185   -0.0428185   -0.0428185    0.6740230    0.6740230
           1.0409004    1.0409004    1.0511139    1.0511139    1.0511139
           1.0511139    1.1605659    1.1605659    1.1605659    1.1605659
           1.2004639    1.2004639    1.2052287    1.2052287    1.2145284
           1.2145284    1.2145284    1.2145284    1.2514258    1.2514258
           1.4687253    1.4687253    1.4687253    1.4687253    2.0876442
           2.0876442    2.0940124    2.0940124    2.0940124    2.0940124

           2.7290067    2.7290067    2.7290067    2.7290067    2.8800432
           2.8800432    3.0890094    3.0890094    3.0900912    3.0900912
           3.0900912    3.0900912    3.7777627    3.7777627    3.7777627
           3.7777627    3.8364120    3.8364120    4.0628864    4.0628864
           4.3151197    4.3151197    4.3151197    4.3151197    4.4698160
           4.4698160    4.4698445    4.4698445    4.4698445    4.4698445

       ********************************************************

------- epsilon_Pu_12.scf2 --------
:GMA  : POTENTIAL AND CHARGE CUT-OFF  12.00 Ry**.5
         Bandranges (emin - emax) and occupancy:
:BAN00008:   8   -0.204060   -0.042818  1.00000000
:BAN00009:   9    0.674023    1.063395  1.00000000
:BAN00010:  10    0.674023    1.063395  1.00000000
:BAN00011:  11    0.868593    1.077017  1.00000000
:BAN00012:  12    0.868593    1.077017  1.00000000
:BAN00013:  13    1.012805    1.081103  1.00000000
:BAN00014:  14    1.012805    1.081103  1.00000000
:BAN00015:  15    1.049427    1.086223  0.98155250
:BAN00016:  16    1.049427    1.086223  0.98155250
:BAN00017:  17    1.078425    1.160566  0.01844750
:BAN00018:  18    1.078425    1.160566  0.01844750
:BAN00019:  19    1.097403    1.162813  0.00000000
:BAN00020:  20    1.097403    1.162813  0.00000000
:BAN00021:  21    1.155265    1.200464  0.00000000
:BAN00022:  22    1.155265    1.200464  0.00000000
:BAN00023:  23    1.162220    1.205229  0.00000000
        Energy to separate low and high energystates:    0.62402


:NLDA  : NUMBER OF ELECTRONS          =  16.000

:FLDA  : F E R M I - ENERGY           =   1.58438




:POS001: AT.NR.   1 POSITION = 0.00000 0.00000 0.00000  MULTIPLICITY =  1

       LMMAX  5
       LM=   0 0  4 0  4 4  6 0  6 4
:FER DMFT Fermi Energy   1.04908
:EORB    0.20920155
:SUM SUM OF DMFT BAND ENERGIES    1.23302211

:CHA001: TOTAL CHARGE INSIDE SPHERE   1 =    11.556707
:PCS001: PARTIAL CHARGES SPHERE =  1 S,P,D,F,      D-EG,D-T2G 
:QTL001: 1.9589 4.5895 0.3844 4.6231 0.0000 0.0000 0.0000 0.1852 0.2076 0.0000 0.0000 0.0000
        Q-s-low E-s-low   Q-p-low E-p-low   Q-d-low E-d-low   Q-f-low E-f-low
:EPL001:  1.8725 -2.3019    4.4893 -0.3749    0.0040 -0.1980    0.0015 -0.2130
        Q-s-hi  E-s-hi    Q-p-hi  E-p-hi    Q-d-hi  E-d-hi    Q-f-hi  E-f-hi 
:EPH001:  0.0864  0.8971    0.1003  0.9544    0.3803  0.9674    4.6216  1.0562

:CHA  : TOTAL CHARGE INSIDE UNIT CELL =      16.000000

:ESUM  : SUM OF EIGENVALUES =           1.488861383


------- epsilon_Pu_12.scfc --------

        1.ATOM      Pu  0+               21 CORE STATES
:1S 001: 1S               -8966.649959291 Ry
:2S 001: 2S               -1687.320635358 Ry
:2PP001: 2P*              -1628.015089956 Ry
:2P 001: 2P               -1314.862865162 Ry
:3S 001: 3S                -427.855246875 Ry
:3PP001: 3P*               -400.931270156 Ry
:3P 001: 3P                -328.369434321 Ry
:3DD001: 3D*               -286.130267110 Ry
:3D 001: 3D                -271.587757341 Ry
:4S 001: 4S                -109.338020673 Ry
:4PP001: 4P*                -97.150203264 Ry
:4P 001: 4P                 -78.005315832 Ry
:4DD001: 4D*                -58.717891191 Ry
:4D 001: 4D                 -55.223423350 Ry
:5S 001: 5S                 -23.497158775 Ry
:5PP001: 5P*                -18.679973991 Ry
:5P 001: 5P                 -13.993459585 Ry
:4FF001: 4F*                -29.822495074 Ry
:4F 001: 4F                 -28.894502172 Ry
:5DD001: 5D*                 -6.961541119 Ry
:5D 001: 5D                  -6.263653982 Ry

------- epsilon_Pu_12.scfm --------

       DENSITY AT NUCLEUS
        JATOM    VALENCE       SEMI-CORE            CORE           TOTAL
:RTO001:   1    23618.891975        0.000000 45141807.695294 45165426.587269
     
       CHARGES OF NEW CHARGE DENSITY
:NTO  : TOTAL   INTERSTITIAL CHARGE=    4.4432908
:NTO001: TOTAL   CHARGE IN SPHERE  1 =       89.5473540

:NEC01: NUCLEAR AND ELECTRONIC CHARGE     94.00000    93.99064     1.00010
     
       CHARGES OF OLD CHARGE DENSITY
:OTO  : TOTAL   INTERSTITIAL CHARGE=    4.4533635
:OTO001: TOTAL   CHARGE IN SPHERE  1 =       89.5466365

:NEC02: NUCLEAR AND ELECTRONIC CHARGE     94.00000    94.00000     1.00000
     
       CONVERGENCE TEST
:DTO001: TOTAL   DIFFERENCE CHARGE**2 IN SPHERE  1 =  0.0010437

:DIS  :  CHARGE DISTANCE       ( 0.0010437 for atom    1 spin 1)      0.0010437
:BIG check (qbig,qrms,qtot)    0.348D-03   0.738D-03   0.104D-02
 
******************************************************
* MULTISECANT MIXING VER4 OPTIONS                    *
* Unpredicted Step Limit   0.100000                  *
* Plane Wave Dynamic Rescaling                       *
* Dynamic Regularization active                      *
* Upper Cutoff Lambda  1.0E-01 Lower 3.5E-04         *
* SQRT Multiplicity/Degeneracy                       *
* Max Number of Memory Steps    8                    *
******************************************************
 
:PLANE:  INTERSTITIAL TOTAL      1.86605 DISTAN  8.814E-03 % 
:CHARG:  CLM CHARGE   /ATOM    713.22824 DISTAN  8.268E-04 % 
:INFO :  Dynamic rescale   2.827E+01  1.000E-01
:INFO :  Number of Memory Steps    3 Skipping    0
:INFO :  Singular value   3.927E+00 Weight   1.000E+00 Projections  -7.910E-02  1.469E-04
:INFO :  Singular value   1.407E-02 Weight   9.994E-01 Projections   1.272E-02  8.363E-02
:INFO :  Singular value   2.881E-04 Weight   4.039E-01 Projections  -6.695E-02 -6.250E-02
:INFO :  Bounds         0.105D+00  0.200D+00  0.423D+00  0.105D+00
:DIRM :  MEMORY 3/8 RESCALE  28.27 RED 0.612 PRED 0.671 NEXT 0.236 COND 1.01E+00
:DIRP :  |BROYD|= 3.992E-03 |PRATT|= 4.862E-04 ANGLE=  16.9 DEGREES
:DIRB :  |BROYD|= 6.363E-03 |PRATT|= 7.853E-04 ANGLE=  13.8 DEGREES
:MIX  :  MSR1   REGULARIZATION: 3.50E-04  GREED: 0.105
     
       CHARGES OF MIXED CHARGE DENSITY
:CTO  : TOTAL   INTERSTITIAL CHARGE=    4.4531476
:CTO001: TOTAL   CHARGE IN SPHERE  1 =       89.5468524

:NEC03: NUCLEAR AND ELECTRONIC CHARGE     94.00000    94.00000     1.00000


:ENE  : ********** TOTAL ENERGY IN Ry =       -59354.73669825


------- epsilon_Pu_12.scf0 --------


            ---------
:ITE102:102. ITERATION
            ---------

:NATO :    1 INDEPENDENT AND    1 TOTAL ATOMS IN UNITCELL
       SUBSTANCE: cubic body-centered  (epsilon Pu)                           

       LATTICE                      = B   
:POT  : POTENTIAL OPTION    5
:LAT  : LATTICE CONSTANTS=  7.09835  7.09835  7.09835    1.571    1.571    1.571
:VOL  : UNIT CELL VOLUME =     178.83092
       MODE OF CALCULATION IS       = RELA
       NON-SPINPOLARIZED CALCULATION
:IFFT  : FFT-parameters:   60   60   60 Factor: 2.00
       ATOMNUMBER=  1 Pu  0+     VCOUL-ZERO =  0.21468E+00
:FIT001: LUSE= 13 SIGMA OF V-XC FIT FOR ATOM  1  0.4857249E-06
:FIT001: LUSE= 13 SIGMA OF V-XC FIT FOR ATOM  1  0.4857249E-06
:DEN  : DENSITY INTEGRAL  =        -21880.66123068   (Ry)
       ELS_POTENTIAL_AT Z=0 and Z=0.5:  -2.41924  -2.41924
       ELS_POTENTIAL_AT Y=0 and Y=0.5:   0.00000   0.00000
:VZERO:v0,v0c,v0x  -3.41359  -2.41924  -0.99435 v5,v5c,v5x  -3.41359  -2.41924  -0.99435
:VZERY:v0,v0c,v0x  -0.85736   0.00000  -0.85736 v5,v5c,v5x  -0.85736   0.00000  -0.85736
:VZERX:v0,v0c,v0x  -0.85736   0.00000  -0.85736 v5,v5c,v5x  -0.85736   0.00000  -0.85736

------- epsilon_Pu_12.scf1 --------

          ATOMIC SPHERE DEPENDENT PARAMETERS FOR ATOM  Pu  0+    
:e__0001: OVERALL ENERGY PARAMETER IS    0.8474
          OVERALL BASIS SET ON ATOM IS LAPW
:E0_0001: E( 0)=    0.8474
             APW+lo
:E0_0001: E( 0)=   -2.3500   E(BOTTOM)=   -3.125   E(TOP)=   -1.575
             LOCAL ORBITAL
:E1_0001: E( 1)=   -1.3800   E(BOTTOM)=   -1.430   E(TOP)= -200.000
             APW+lo
:E1_0001: E( 1)=    0.8474
             LOCAL ORBITAL
:E3_0001: E( 3)=    0.8474   E(BOTTOM)=    0.617   E(TOP)= -200.000
             APW+lo
:E2_0001: E( 2)=    0.8474   E(BOTTOM)=    0.777   E(TOP)= -200.000
             APW+lo

       K=   0.00000   0.00000   0.00000            1
:RKM  : MATRIX SIZE  197LOs:  20  RKM= 8.07  WEIGHT= 1.00  PGR:    
       EIGENVALUES ARE:
:EIG00001:      -2.3207147   -0.2434792   -0.2434792   -0.2434792    0.6740162
:EIG00006:       1.0599625    1.0599625    1.0599625    1.1658186    1.1658186
:EIG00011:       1.1658186    1.1971059    1.2296329    1.2296329    1.2296329
:EIG00016:       1.4662832    1.4662832    2.0913688    2.0913688    2.0913688
:EIG00021:       2.7298332    2.7298332    3.0230198    3.0230198    3.0230198
:EIG00026:       3.0889921    3.7972270    3.7972270    3.7972270    4.2144970
:EIG00031:       4.2144970    4.2144970    4.4698204    4.4698204    4.4698204
:EIG00036:       4.5259289    4.5622839    4.5622839    4.5622839    4.5847077
:EIG00041:       4.5847077    4.8080046    4.8080046    5.0319158    5.0319158
:EIG00046:       5.0319158    5.0883183    5.0883183    5.0883183    5.1570091
 
:EIG00051:       5.6719776    5.6719776    6.0265626    6.0265626    6.0265626
:EIG00056:       6.2307763    6.2307763    6.2307763    6.3667277    6.7283508
:EIG00061:       6.7283508    6.7283508    7.1710844    7.2052070    7.2052070
:EIG00066:       7.2052070    7.2801283    7.2801283
       ********************************************************

:KPT   :      NUMBER OF K-POINTS:   286

------- epsilon_Pu_12.scfso --------
   0.0   0.0 angle (M,z), angle (M,x) deg
 
        SPIN-ORBIT EIGENVALUES:
     K=   0.00000   0.00000   0.00000            1
      MATRIX SIZE=  136   WEIGHT= 1.00
     EIGENVALUES ARE:
          -2.3207147   -2.3207147   -0.7057666   -0.7057666   -0.0427025
          -0.0427025   -0.0427025   -0.0427025    0.6740162    0.6740162
           1.0411369    1.0411369    1.0513454    1.0513454    1.0513454
           1.0513454    1.1608167    1.1608167    1.1608167    1.1608167
           1.2007161    1.2007161    1.2055643    1.2055643    1.2145596
           1.2145596    1.2145596    1.2145596    1.2514544    1.2514544
           1.4687238    1.4687238    1.4687238    1.4687238    2.0877084
           2.0877084    2.0940786    2.0940786    2.0940786    2.0940786

           2.7290084    2.7290084    2.7290084    2.7290084    2.8800748
           2.8800748    3.0889921    3.0889921    3.0901208    3.0901208
           3.0901208    3.0901208    3.7778383    3.7778383    3.7778383
           3.7778383    3.8364853    3.8364853    4.0629366    4.0629366
           4.3151712    4.3151712    4.3151712    4.3151712    4.4698014
           4.4698014    4.4698299    4.4698299    4.4698299    4.4698299

       ********************************************************

------- epsilon_Pu_12.scf2 --------
:GMA  : POTENTIAL AND CHARGE CUT-OFF  12.00 Ry**.5
         Bandranges (emin - emax) and occupancy:
:BAN00008:   8   -0.203966   -0.042703  1.00000000
:BAN00009:   9    0.674016    1.063551  1.00000000
:BAN00010:  10    0.674016    1.063551  1.00000000
:BAN00011:  11    0.868571    1.077225  1.00000000
:BAN00012:  12    0.868571    1.077225  1.00000000
:BAN00013:  13    1.012896    1.081350  1.00000000
:BAN00014:  14    1.012896    1.081350  1.00000000
:BAN00015:  15    1.049657    1.086466  0.98171235
:BAN00016:  16    1.049657    1.086466  0.98171235
:BAN00017:  17    1.078652    1.160817  0.01828765
:BAN00018:  18    1.078652    1.160817  0.01828765
:BAN00019:  19    1.097596    1.163057  0.00000000
:BAN00020:  20    1.097596    1.163057  0.00000000
:BAN00021:  21    1.155496    1.200716  0.00000000
:BAN00022:  22    1.155496    1.200716  0.00000000
:BAN00023:  23    1.162473    1.205564  0.00000000
        Energy to separate low and high energystates:    0.62402


:NLDA  : NUMBER OF ELECTRONS          =  16.000

:FLDA  : F E R M I - ENERGY           =   1.58463




:POS001: AT.NR.   1 POSITION = 0.00000 0.00000 0.00000  MULTIPLICITY =  1

       LMMAX  5
       LM=   0 0  4 0  4 4  6 0  6 4
:FER DMFT Fermi Energy   1.04913
:EORB    0.21025528
:SUM SUM OF DMFT BAND ENERGIES    1.23445123

:CHA001: TOTAL CHARGE INSIDE SPHERE   1 =    11.555684
:PCS001: PARTIAL CHARGES SPHERE =  1 S,P,D,F,      D-EG,D-T2G 
:QTL001: 1.9589 4.5894 0.3845 4.6222 0.0000 0.0000 0.0000 0.1853 0.2077 0.0000 0.0000 0.0000
        Q-s-low E-s-low   Q-p-low E-p-low   Q-d-low E-d-low   Q-f-low E-f-low
:EPL001:  1.8725 -2.3016    4.4891 -0.3747    0.0040 -0.1979    0.0015 -0.2128
        Q-s-hi  E-s-hi    Q-p-hi  E-p-hi    Q-d-hi  E-d-hi    Q-f-hi  E-f-hi 
:EPH001:  0.0864  0.8971    0.1003  0.9545    0.3805  0.9675    4.6206  1.0564

:CHA  : TOTAL CHARGE INSIDE UNIT CELL =      16.000000

:ESUM  : SUM OF EIGENVALUES =           1.491296757


------- epsilon_Pu_12.scfc --------

        1.ATOM      Pu  0+               21 CORE STATES
:1S 001: 1S               -8966.649066601 Ry
:2S 001: 2S               -1687.319758399 Ry
:2PP001: 2P*              -1628.014209788 Ry
:2P 001: 2P               -1314.861988224 Ry
:3S 001: 3S                -427.854391092 Ry
:3PP001: 3P*               -400.930411957 Ry
:3P 001: 3P                -328.368581868 Ry
:3DD001: 3D*               -286.129409015 Ry
:3D 001: 3D                -271.586900770 Ry
:4S 001: 4S                -109.337234931 Ry
:4PP001: 4P*                -97.149416783 Ry
:4P 001: 4P                 -78.004548273 Ry
:4DD001: 4D*                -58.717121970 Ry
:4D 001: 4D                 -55.222659815 Ry
:5S 001: 5S                 -23.496562150 Ry
:5PP001: 5P*                -18.679392426 Ry
:5P 001: 5P                 -13.992927671 Ry
:4FF001: 4F*                -29.821724161 Ry
:4F 001: 4F                 -28.893733994 Ry
:5DD001: 5D*                 -6.961058643 Ry
:5D 001: 5D                  -6.263187899 Ry

------- epsilon_Pu_12.scfm --------

       DENSITY AT NUCLEUS
        JATOM    VALENCE       SEMI-CORE            CORE           TOTAL
:RTO001:   1    23617.955108        0.000000 45141806.258539 45165424.213647
     
       CHARGES OF NEW CHARGE DENSITY
:NTO  : TOTAL   INTERSTITIAL CHARGE=    4.4443137
:NTO001: TOTAL   CHARGE IN SPHERE  1 =       89.5463289

:NEC01: NUCLEAR AND ELECTRONIC CHARGE     94.00000    93.99064     1.00010
     
       CHARGES OF OLD CHARGE DENSITY
:OTO  : TOTAL   INTERSTITIAL CHARGE=    4.4531476
:OTO001: TOTAL   CHARGE IN SPHERE  1 =       89.5468524

:NEC02: NUCLEAR AND ELECTRONIC CHARGE     94.00000    94.00000     1.00000
     
       CONVERGENCE TEST
:DTO001: TOTAL   DIFFERENCE CHARGE**2 IN SPHERE  1 =  0.0005597

:DIS  :  CHARGE DISTANCE       ( 0.0005597 for atom    1 spin 1)      0.0005597
:BIG check (qbig,qrms,qtot)    0.187D-03   0.396D-03   0.560D-03
 
******************************************************
* MULTISECANT MIXING VER4 OPTIONS                    *
* Unpredicted Step Limit   0.100000                  *
* Plane Wave Dynamic Rescaling                       *
* Dynamic Regularization active                      *
* Upper Cutoff Lambda  1.0E-01 Lower 3.5E-04         *
* SQRT Multiplicity/Degeneracy                       *
* Max Number of Memory Steps    8                    *
******************************************************
 
:PLANE:  INTERSTITIAL TOTAL      1.86595 DISTAN  3.028E-03 % 
:CHARG:  CLM CHARGE   /ATOM    713.22850 DISTAN  2.093E-04 % 
:INFO :  Dynamic rescale   2.788E+01  1.000E-01
:INFO :  Number of Memory Steps    4 Skipping    0
:INFO :  Singular value   3.426E+00 Weight   1.000E+00 Projections  -4.493E-03  7.212E-04
:INFO :  Singular value   2.673E+00 Weight   1.000E+00 Projections   6.098E-03  1.150E-03
:INFO :  Singular value   4.971E-04 Weight   6.686E-01 Projections   5.763E-03 -1.024E-02
:INFO :  Singular value   1.012E-05 Weight   8.356E-04 Projections  -4.007E-03  3.213E-06
:INFO :  Bounds         0.200D+00  0.200D+00  0.353D+00  0.200D+00
:DIRM :  MEMORY 4/8 RESCALE  27.88 RED 0.291 PRED 0.236 NEXT 0.283 COND 8.56E-01
:DIRP :  |BROYD|= 4.673E-04 |PRATT|= 3.151E-04 ANGLE=  10.8 DEGREES
:DIRB :  |BROYD|= 6.401E-04 |PRATT|= 4.341E-04 ANGLE=  10.9 DEGREES
:MIX  :  MSR1   REGULARIZATION: 3.50E-04  GREED: 0.200
     
       CHARGES OF MIXED CHARGE DENSITY
:CTO  : TOTAL   INTERSTITIAL CHARGE=    4.4533169
:CTO001: TOTAL   CHARGE IN SPHERE  1 =       89.5466831

:NEC03: NUCLEAR AND ELECTRONIC CHARGE     94.00000    94.00000     1.00000


:ENE  : ********** TOTAL ENERGY IN Ry =       -59354.73666290


------- epsilon_Pu_12.scf0 --------


            ---------
:ITE103:103. ITERATION
            ---------

:NATO :    1 INDEPENDENT AND    1 TOTAL ATOMS IN UNITCELL
       SUBSTANCE: cubic body-centered  (epsilon Pu)                           

       LATTICE                      = B   
:POT  : POTENTIAL OPTION    5
:LAT  : LATTICE CONSTANTS=  7.09835  7.09835  7.09835    1.571    1.571    1.571
:VOL  : UNIT CELL VOLUME =     178.83092
       MODE OF CALCULATION IS       = RELA
       NON-SPINPOLARIZED CALCULATION
:IFFT  : FFT-parameters:   60   60   60 Factor: 2.00
       ATOMNUMBER=  1 Pu  0+     VCOUL-ZERO =  0.21467E+00
:FIT001: LUSE= 13 SIGMA OF V-XC FIT FOR ATOM  1  0.4860110E-06
:FIT001: LUSE= 13 SIGMA OF V-XC FIT FOR ATOM  1  0.4860110E-06
:DEN  : DENSITY INTEGRAL  =        -21880.63514906   (Ry)
       ELS_POTENTIAL_AT Z=0 and Z=0.5:  -2.41928  -2.41928
       ELS_POTENTIAL_AT Y=0 and Y=0.5:   0.00000   0.00000
:VZERO:v0,v0c,v0x  -3.41364  -2.41928  -0.99435 v5,v5c,v5x  -3.41364  -2.41928  -0.99435
:VZERY:v0,v0c,v0x  -0.85737   0.00000  -0.85737 v5,v5c,v5x  -0.85737   0.00000  -0.85737
:VZERX:v0,v0c,v0x  -0.85737   0.00000  -0.85737 v5,v5c,v5x  -0.85737   0.00000  -0.85737

------- epsilon_Pu_12.scf1 --------

          ATOMIC SPHERE DEPENDENT PARAMETERS FOR ATOM  Pu  0+    
:e__0001: OVERALL ENERGY PARAMETER IS    0.8474
          OVERALL BASIS SET ON ATOM IS LAPW
:E0_0001: E( 0)=    0.8474
             APW+lo
:E0_0001: E( 0)=   -2.3500   E(BOTTOM)=   -3.125   E(TOP)=   -1.575
             LOCAL ORBITAL
:E1_0001: E( 1)=   -1.3800   E(BOTTOM)=   -1.430   E(TOP)= -200.000
             APW+lo
:E1_0001: E( 1)=    0.8474
             LOCAL ORBITAL
:E3_0001: E( 3)=    0.8474   E(BOTTOM)=    0.617   E(TOP)= -200.000
             APW+lo
:E2_0001: E( 2)=    0.8474   E(BOTTOM)=    0.777   E(TOP)= -200.000
             APW+lo

       K=   0.00000   0.00000   0.00000            1
:RKM  : MATRIX SIZE  197LOs:  20  RKM= 8.07  WEIGHT= 1.00  PGR:    
       EIGENVALUES ARE:
:EIG00001:      -2.3208194   -0.2435519   -0.2435519   -0.2435519    0.6740162
:EIG00006:       1.0598569    1.0598569    1.0598569    1.1656846    1.1656846
:EIG00011:       1.1656846    1.1969651    1.2296157    1.2296157    1.2296157
:EIG00016:       1.4662687    1.4662687    2.0913385    2.0913385    2.0913385
:EIG00021:       2.7298243    2.7298243    3.0229994    3.0229994    3.0229994
:EIG00026:       3.0889957    3.7971894    3.7971894    3.7971894    4.2144687
:EIG00031:       4.2144687    4.2144687    4.4698166    4.4698166    4.4698166
:EIG00036:       4.5259041    4.5622796    4.5622796    4.5622796    4.5847036
:EIG00041:       4.5847036    4.8080160    4.8080160    5.0318964    5.0318964
:EIG00046:       5.0318964    5.0883108    5.0883108    5.0883108    5.1569296
 
:EIG00051:       5.6719642    5.6719642    6.0265601    6.0265601    6.0265601
:EIG00056:       6.2307775    6.2307775    6.2307775    6.3667314    6.7283283
:EIG00061:       6.7283283    6.7283283    7.1710428    7.2051939    7.2051939
:EIG00066:       7.2051939    7.2800977    7.2800977
       ********************************************************

:KPT   :      NUMBER OF K-POINTS:   286

------- epsilon_Pu_12.scfso --------
   0.0   0.0 angle (M,z), angle (M,x) deg
 
        SPIN-ORBIT EIGENVALUES:
     K=   0.00000   0.00000   0.00000            1
      MATRIX SIZE=  136   WEIGHT= 1.00
     EIGENVALUES ARE:
          -2.3208194   -2.3208194   -0.7058513   -0.7058513   -0.0427696
          -0.0427696   -0.0427696   -0.0427696    0.6740162    0.6740162
           1.0410265    1.0410265    1.0512346    1.0512346    1.0512346
           1.0512346    1.1606875    1.1606875    1.1606875    1.1606875
           1.2005844    1.2005844    1.2054271    1.2054271    1.2145416
           1.2145416    1.2145416    1.2145416    1.2514380    1.2514380
           1.4687096    1.4687096    1.4687096    1.4687096    2.0876786
           2.0876786    2.0940479    2.0940479    2.0940479    2.0940479

           2.7289996    2.7289996    2.7289996    2.7289996    2.8800533
           2.8800533    3.0889957    3.0889957    3.0901009    3.0901009
           3.0901009    3.0901009    3.7778005    3.7778005    3.7778005
           3.7778005    3.8364485    3.8364485    4.0629095    4.0629095
           4.3151428    4.3151428    4.3151429    4.3151429    4.4697976
           4.4697976    4.4698261    4.4698261    4.4698261    4.4698261

       ********************************************************

------- epsilon_Pu_12.scf2 --------
:GMA  : POTENTIAL AND CHARGE CUT-OFF  12.00 Ry**.5
         Bandranges (emin - emax) and occupancy:
:BAN00008:   8   -0.204020   -0.042770  1.00000000
:BAN00009:   9    0.674016    1.063483  1.00000000
:BAN00010:  10    0.674016    1.063483  1.00000000
:BAN00011:  11    0.868572    1.077125  1.00000000
:BAN00012:  12    0.868572    1.077125  1.00000000
:BAN00013:  13    1.012846    1.081226  1.00000000
:BAN00014:  14    1.012846    1.081226  1.00000000
:BAN00015:  15    1.049547    1.086358  0.98162692
:BAN00016:  16    1.049547    1.086358  0.98162692
:BAN00017:  17    1.078538    1.160688  0.01837308
:BAN00018:  18    1.078538    1.160688  0.01837308
:BAN00019:  19    1.097503    1.162939  0.00000000
:BAN00020:  20    1.097503    1.162939  0.00000000
:BAN00021:  21    1.155382    1.200584  0.00000000
:BAN00022:  22    1.155382    1.200584  0.00000000
:BAN00023:  23    1.162351    1.205427  0.00000000
        Energy to separate low and high energystates:    0.62402


:NLDA  : NUMBER OF ELECTRONS          =  16.000

:FLDA  : F E R M I - ENERGY           =   1.58451




:POS001: AT.NR.   1 POSITION = 0.00000 0.00000 0.00000  MULTIPLICITY =  1

       LMMAX  5
       LM=   0 0  4 0  4 4  6 0  6 4
:FER DMFT Fermi Energy   1.04910
:EORB    0.20979054
:SUM SUM OF DMFT BAND ENERGIES    1.23363474

:CHA001: TOTAL CHARGE INSIDE SPHERE   1 =    11.556203
:PCS001: PARTIAL CHARGES SPHERE =  1 S,P,D,F,      D-EG,D-T2G 
:QTL001: 1.9589 4.5895 0.3844 4.6227 0.0000 0.0000 0.0000 0.1853 0.2076 0.0000 0.0000 0.0000
        Q-s-low E-s-low   Q-p-low E-p-low   Q-d-low E-d-low   Q-f-low E-f-low
:EPL001:  1.8725 -2.3018    4.4892 -0.3748    0.0040 -0.1979    0.0015 -0.2129
        Q-s-hi  E-s-hi    Q-p-hi  E-p-hi    Q-d-hi  E-d-hi    Q-f-hi  E-f-hi 
:EPH001:  0.0864  0.8971    0.1003  0.9545    0.3804  0.9674    4.6211  1.0563

:CHA  : TOTAL CHARGE INSIDE UNIT CELL =      16.000000

:ESUM  : SUM OF EIGENVALUES =           1.490041054


------- epsilon_Pu_12.scfc --------

        1.ATOM      Pu  0+               21 CORE STATES
:1S 001: 1S               -8966.649469022 Ry
:2S 001: 2S               -1687.320153396 Ry
:2PP001: 2P*              -1628.014606728 Ry
:2P 001: 2P               -1314.862383198 Ry
:3S 001: 3S                -427.854765153 Ry
:3PP001: 3P*               -400.930788348 Ry
:3P 001: 3P                -328.368952885 Ry
:3DD001: 3D*               -286.129786071 Ry
:3D 001: 3D                -271.587276342 Ry
:4S 001: 4S                -109.337558385 Ry
:4PP001: 4P*                -97.149740923 Ry
:4P 001: 4P                 -78.004862451 Ry
:4DD001: 4D*                -58.717437663 Ry
:4D 001: 4D                 -55.222972673 Ry
:5S 001: 5S                 -23.496811805 Ry
:5PP001: 5P*                -18.679637080 Ry
:5P 001: 5P                 -13.993155593 Ry
:4FF001: 4F*                -29.822041609 Ry
:4F 001: 4F                 -28.894050014 Ry
:5DD001: 5D*                 -6.961269488 Ry
:5D 001: 5D                  -6.263393016 Ry

------- epsilon_Pu_12.scfm --------

       DENSITY AT NUCLEUS
        JATOM    VALENCE       SEMI-CORE            CORE           TOTAL
:RTO001:   1    23618.379051        0.000000 45141806.903276 45165425.282327
     
       CHARGES OF NEW CHARGE DENSITY
:NTO  : TOTAL   INTERSTITIAL CHARGE=    4.4437954
:NTO001: TOTAL   CHARGE IN SPHERE  1 =       89.5468481

:NEC01: NUCLEAR AND ELECTRONIC CHARGE     94.00000    93.99064     1.00010
     
       CHARGES OF OLD CHARGE DENSITY
:OTO  : TOTAL   INTERSTITIAL CHARGE=    4.4533169
:OTO001: TOTAL   CHARGE IN SPHERE  1 =       89.5466831

:NEC02: NUCLEAR AND ELECTRONIC CHARGE     94.00000    94.00000     1.00000
     
       CONVERGENCE TEST
:DTO001: TOTAL   DIFFERENCE CHARGE**2 IN SPHERE  1 =  0.0001755

:DIS  :  CHARGE DISTANCE       ( 0.0001755 for atom    1 spin 1)      0.0001755
:BIG check (qbig,qrms,qtot)    0.585D-04   0.124D-03   0.175D-03
 
******************************************************
* MULTISECANT MIXING VER4 OPTIONS                    *
* Unpredicted Step Limit   0.100000                  *
* Plane Wave Dynamic Rescaling                       *
* Dynamic Regularization active                      *
* Upper Cutoff Lambda  1.0E-01 Lower 3.5E-04         *
* SQRT Multiplicity/Degeneracy                       *
* Max Number of Memory Steps    8                    *
******************************************************
 
:PLANE:  INTERSTITIAL TOTAL      1.86595 DISTAN  1.074E-03 % 
:CHARG:  CLM CHARGE   /ATOM    713.22837 DISTAN  7.994E-05 % 
:INFO :  Dynamic rescale   2.798E+01  1.000E-01
:INFO :  Number of Memory Steps    5 Skipping    0
:INFO :  Singular value   4.311E+00 Weight   1.000E+00 Projections   4.140E-04 -2.313E-04
:INFO :  Singular value   3.131E+00 Weight   1.000E+00 Projections   1.027E-02  2.048E-04
:INFO :  Singular value   3.809E-03 Weight   9.916E-01 Projections   1.293E-03  1.169E-02
:INFO :  Singular value   5.221E-04 Weight   6.899E-01 Projections  -7.165E-03  9.878E-03
:INFO :  Singular value   9.254E-06 Weight   6.986E-04 Projections  -8.704E-03 -4.929E-05
:INFO :  Bounds         0.400D+00  0.200D+00  0.294D+00  0.200D+00
:DIRM :  MEMORY 5/8 RESCALE  27.98 RED 0.368 PRED 0.283 NEXT 0.340 COND 8.62E-01
:DIRP :  |BROYD|= 3.159E-04 |PRATT|= 1.121E-04 ANGLE=  26.9 DEGREES
:DIRB :  |BROYD|= 5.462E-04 |PRATT|= 1.599E-04 ANGLE=  29.6 DEGREES
:MIX  :  MSR1   REGULARIZATION: 3.50E-04  GREED: 0.200
     
       CHARGES OF MIXED CHARGE DENSITY
:CTO  : TOTAL   INTERSTITIAL CHARGE=    4.4532723
:CTO001: TOTAL   CHARGE IN SPHERE  1 =       89.5467277

:NEC03: NUCLEAR AND ELECTRONIC CHARGE     94.00000    94.00000     1.00000


:ENE  : ********** TOTAL ENERGY IN Ry =       -59354.73667681


------- epsilon_Pu_12.scf0 --------


            ---------
:ITE104:104. ITERATION
            ---------

:NATO :    1 INDEPENDENT AND    1 TOTAL ATOMS IN UNITCELL
       SUBSTANCE: cubic body-centered  (epsilon Pu)                           

       LATTICE                      = B   
:POT  : POTENTIAL OPTION    5
:LAT  : LATTICE CONSTANTS=  7.09835  7.09835  7.09835    1.571    1.571    1.571
:VOL  : UNIT CELL VOLUME =     178.83092
       MODE OF CALCULATION IS       = RELA
       NON-SPINPOLARIZED CALCULATION
:IFFT  : FFT-parameters:   60   60   60 Factor: 2.00
       ATOMNUMBER=  1 Pu  0+     VCOUL-ZERO =  0.21467E+00
:FIT001: LUSE= 13 SIGMA OF V-XC FIT FOR ATOM  1  0.4863272E-06
:FIT001: LUSE= 13 SIGMA OF V-XC FIT FOR ATOM  1  0.4863272E-06
:DEN  : DENSITY INTEGRAL  =        -21880.63656569   (Ry)
       ELS_POTENTIAL_AT Z=0 and Z=0.5:  -2.41926  -2.41926
       ELS_POTENTIAL_AT Y=0 and Y=0.5:   0.00000   0.00000
:VZERO:v0,v0c,v0x  -3.41362  -2.41926  -0.99436 v5,v5c,v5x  -3.41362  -2.41926  -0.99436
:VZERY:v0,v0c,v0x  -0.85737   0.00000  -0.85737 v5,v5c,v5x  -0.85737   0.00000  -0.85737
:VZERX:v0,v0c,v0x  -0.85737   0.00000  -0.85737 v5,v5c,v5x  -0.85737   0.00000  -0.85737

------- epsilon_Pu_12.scf1 --------

          ATOMIC SPHERE DEPENDENT PARAMETERS FOR ATOM  Pu  0+    
:e__0001: OVERALL ENERGY PARAMETER IS    0.8474
          OVERALL BASIS SET ON ATOM IS LAPW
:E0_0001: E( 0)=    0.8474
             APW+lo
:E0_0001: E( 0)=   -2.3500   E(BOTTOM)=   -3.125   E(TOP)=   -1.575
             LOCAL ORBITAL
:E1_0001: E( 1)=   -1.3800   E(BOTTOM)=   -1.430   E(TOP)= -200.000
             APW+lo
:E1_0001: E( 1)=    0.8474
             LOCAL ORBITAL
:E3_0001: E( 3)=    0.8474   E(BOTTOM)=    0.617   E(TOP)= -200.000
             APW+lo
:E2_0001: E( 2)=    0.8474   E(BOTTOM)=    0.777   E(TOP)= -200.000
             APW+lo

       K=   0.00000   0.00000   0.00000            1
:RKM  : MATRIX SIZE  197LOs:  20  RKM= 8.07  WEIGHT= 1.00  PGR:    
       EIGENVALUES ARE:
:EIG00001:      -2.3208027   -0.2435404   -0.2435404   -0.2435404    0.6740141
:EIG00006:       1.0598716    1.0598716    1.0598716    1.1657053    1.1657053
:EIG00011:       1.1657053    1.1969835    1.2296162    1.2296162    1.2296162
:EIG00016:       1.4662708    1.4662708    2.0913404    2.0913404    2.0913404
:EIG00021:       2.7298243    2.7298243    3.0230009    3.0230009    3.0230009
:EIG00026:       3.0889932    3.7971935    3.7971935    3.7971935    4.2144709
:EIG00031:       4.2144709    4.2144709    4.4698166    4.4698166    4.4698166
:EIG00036:       4.5259073    4.5622782    4.5622782    4.5622782    4.5847034
:EIG00041:       4.5847034    4.8080119    4.8080119    5.0318975    5.0318975
:EIG00046:       5.0318975    5.0883093    5.0883093    5.0883093    5.1569371
 
:EIG00051:       5.6719657    5.6719657    6.0265584    6.0265584    6.0265584
:EIG00056:       6.2307752    6.2307752    6.2307752    6.3667297    6.7283294
:EIG00061:       6.7283294    6.7283294    7.1710489    7.2051953    7.2051953
:EIG00066:       7.2051953    7.2801011    7.2801011
       ********************************************************

:KPT   :      NUMBER OF K-POINTS:   286

------- epsilon_Pu_12.scfso --------
   0.0   0.0 angle (M,z), angle (M,x) deg
 
        SPIN-ORBIT EIGENVALUES:
     K=   0.00000   0.00000   0.00000            1
      MATRIX SIZE=  136   WEIGHT= 1.00
     EIGENVALUES ARE:
          -2.3208027   -2.3208027   -0.7058377   -0.7058377   -0.0427591
          -0.0427591   -0.0427591   -0.0427591    0.6740141    0.6740141
           1.0410419    1.0410419    1.0512503    1.0512503    1.0512503
           1.0512503    1.1607073    1.1607073    1.1607073    1.1607073
           1.2006048    1.2006048    1.2054451    1.2054451    1.2145423
           1.2145423    1.2145423    1.2145423    1.2514384    1.2514384
           1.4687116    1.4687116    1.4687116    1.4687116    2.0876804
           2.0876804    2.0940499    2.0940499    2.0940499    2.0940499

           2.7289995    2.7289995    2.7289995    2.7289995    2.8800551
           2.8800551    3.0889932    3.0889932    3.0901023    3.0901023
           3.0901023    3.0901023    3.7778046    3.7778046    3.7778046
           3.7778046    3.8364525    3.8364525    4.0629114    4.0629114
           4.3151451    4.3151451    4.3151452    4.3151452    4.4697976
           4.4697976    4.4698260    4.4698260    4.4698260    4.4698260

       ********************************************************

------- epsilon_Pu_12.scf2 --------
:GMA  : POTENTIAL AND CHARGE CUT-OFF  12.00 Ry**.5
         Bandranges (emin - emax) and occupancy:
:BAN00008:   8   -0.204012   -0.042759  1.00000000
:BAN00009:   9    0.674014    1.063491  1.00000000
:BAN00010:  10    0.674014    1.063491  1.00000000
:BAN00011:  11    0.868570    1.077139  1.00000000
:BAN00012:  12    0.868570    1.077139  1.00000000
:BAN00013:  13    1.012852    1.081245  1.00000000
:BAN00014:  14    1.012852    1.081245  1.00000000
:BAN00015:  15    1.049562    1.086372  0.98164100
:BAN00016:  16    1.049562    1.086372  0.98164100
:BAN00017:  17    1.078555    1.160707  0.01835597
:BAN00018:  18    1.078555    1.160707  0.01835597
:BAN00019:  19    1.097516    1.162956  0.00000000
:BAN00020:  20    1.097516    1.162956  0.00000000
:BAN00021:  21    1.155399    1.200605  0.00000000
:BAN00022:  22    1.155399    1.200605  0.00000000
:BAN00023:  23    1.162369    1.205445  0.00000000
        Energy to separate low and high energystates:    0.62401


:NLDA  : NUMBER OF ELECTRONS          =  16.000

:FLDA  : F E R M I - ENERGY           =   1.58453




:POS001: AT.NR.   1 POSITION = 0.00000 0.00000 0.00000  MULTIPLICITY =  1

       LMMAX  5
       LM=   0 0  4 0  4 4  6 0  6 4
:FER DMFT Fermi Energy   1.04910
:EORB    0.20988311
:SUM SUM OF DMFT BAND ENERGIES    1.23373096

:CHA001: TOTAL CHARGE INSIDE SPHERE   1 =    11.556148
:PCS001: PARTIAL CHARGES SPHERE =  1 S,P,D,F,      D-EG,D-T2G 
:QTL001: 1.9589 4.5894 0.3844 4.6226 0.0000 0.0000 0.0000 0.1853 0.2076 0.0000 0.0000 0.0000
        Q-s-low E-s-low   Q-p-low E-p-low   Q-d-low E-d-low   Q-f-low E-f-low
:EPL001:  1.8725 -2.3017    4.4892 -0.3748    0.0040 -0.1979    0.0015 -0.2129
        Q-s-hi  E-s-hi    Q-p-hi  E-p-hi    Q-d-hi  E-d-hi    Q-f-hi  E-f-hi 
:EPH001:  0.0864  0.8971    0.1003  0.9545    0.3804  0.9674    4.6211  1.0563

:CHA  : TOTAL CHARGE INSIDE UNIT CELL =      16.000000

:ESUM  : SUM OF EIGENVALUES =           1.490227856


------- epsilon_Pu_12.scfc --------

        1.ATOM      Pu  0+               21 CORE STATES
:1S 001: 1S               -8966.649462451 Ry
:2S 001: 2S               -1687.320146832 Ry
:2PP001: 2P*              -1628.014600354 Ry
:2P 001: 2P               -1314.862376638 Ry
:3S 001: 3S                -427.854755175 Ry
:3PP001: 3P*               -400.930778673 Ry
:3P 001: 3P                -328.368942568 Ry
:3DD001: 3D*               -286.129776614 Ry
:3D 001: 3D                -271.587266676 Ry
:4S 001: 4S                -109.337542716 Ry
:4PP001: 4P*                -97.149725335 Ry
:4P 001: 4P                 -78.004845594 Ry
:4DD001: 4D*                -58.717421013 Ry
:4D 001: 4D                 -55.222955656 Ry
:5S 001: 5S                 -23.496787251 Ry
:5PP001: 5P*                -18.679612251 Ry
:5P 001: 5P                 -13.993129953 Ry
:4FF001: 4F*                -29.822025057 Ry
:4F 001: 4F                 -28.894033289 Ry
:5DD001: 5D*                 -6.961243941 Ry
:5D 001: 5D                  -6.263367523 Ry

------- epsilon_Pu_12.scfm --------

       DENSITY AT NUCLEUS
        JATOM    VALENCE       SEMI-CORE            CORE           TOTAL
:RTO001:   1    23618.310712        0.000000 45141806.966015 45165425.276727
     
       CHARGES OF NEW CHARGE DENSITY
:NTO  : TOTAL   INTERSTITIAL CHARGE=    4.4438501
:NTO001: TOTAL   CHARGE IN SPHERE  1 =       89.5467933

:NEC01: NUCLEAR AND ELECTRONIC CHARGE     94.00000    93.99064     1.00010
     
       CHARGES OF OLD CHARGE DENSITY
:OTO  : TOTAL   INTERSTITIAL CHARGE=    4.4532723
:OTO001: TOTAL   CHARGE IN SPHERE  1 =       89.5467277

:NEC02: NUCLEAR AND ELECTRONIC CHARGE     94.00000    94.00000     1.00000
     
       CONVERGENCE TEST
:DTO001: TOTAL   DIFFERENCE CHARGE**2 IN SPHERE  1 =  0.0000624

:DIS  :  CHARGE DISTANCE       ( 0.0000624 for atom    1 spin 1)      0.0000624
:BIG check (qbig,qrms,qtot)    0.208D-04   0.441D-04   0.624D-04
 
******************************************************
* MULTISECANT MIXING VER4 OPTIONS                    *
* Unpredicted Step Limit   0.100000                  *
* Plane Wave Dynamic Rescaling                       *
* Dynamic Regularization active                      *
* Upper Cutoff Lambda  1.0E-01 Lower 3.5E-04         *
* SQRT Multiplicity/Degeneracy                       *
* Max Number of Memory Steps    8                    *
******************************************************
 
:PLANE:  INTERSTITIAL TOTAL      1.86594 DISTAN  4.500E-04 % 
:CHARG:  CLM CHARGE   /ATOM    713.22836 DISTAN  2.169E-05 % 
:INFO :  Dynamic rescale   2.638E+01  1.000E-01
:INFO :  Number of Memory Steps    6 Skipping    0
:INFO :  Singular value   4.506E+00 Weight   1.000E+00 Projections  -1.666E-03 -6.633E-05
:INFO :  Singular value   3.392E+00 Weight   1.000E+00 Projections   4.390E-03  4.037E-05
:INFO :  Singular value   1.342E+00 Weight   1.000E+00 Projections   2.589E-03  2.820E-05
:INFO :  Singular value   1.071E-03 Weight   9.035E-01 Projections  -3.015E-03  1.228E-03
:INFO :  Singular value   4.026E-04 Weight   5.695E-01 Projections  -4.712E-04  6.051E-03
:INFO :  Singular value   1.949E-06 Weight   3.100E-05 Projections   2.617E-04 -9.848E-07
:INFO :  Bounds         0.400D+00  0.200D+00  0.228D+00  0.200D+00
:DIRM :  MEMORY 6/8 RESCALE  26.38 RED 0.348 PRED 0.340 NEXT 0.439 COND 7.51E-01
:DIRP :  |BROYD|= 3.452E-05 |PRATT|= 4.430E-05 ANGLE=  67.9 DEGREES
:DIRB :  |BROYD|= 4.269E-05 |PRATT|= 5.404E-05 ANGLE=  78.2 DEGREES
:MIX  :  MSR1   REGULARIZATION: 3.50E-04  GREED: 0.200
     
       CHARGES OF MIXED CHARGE DENSITY
:CTO  : TOTAL   INTERSTITIAL CHARGE=    4.4532763
:CTO001: TOTAL   CHARGE IN SPHERE  1 =       89.5467237

:NEC03: NUCLEAR AND ELECTRONIC CHARGE     94.00000    94.00000     1.00000


:ENE  : ********** TOTAL ENERGY IN Ry =       -59354.73667476

