
------- case.scf0 --------
 Flat Integration
 New Mode for Coulomb Integral
 Consistent 3/8+Simpson combinations
 Extension of core to zero
 LDM version in phi
 Fifth-order quadrature in outwin


            ---------
:ITE023: 23. ITERATION
            ---------

:NATO :    1 INDEPENDENT AND    1 TOTAL ATOMS IN UNITCELL
       SUBSTANCE: blebleble                                                   

       LATTICE                      = F   
:POT  : POTENTIAL OPTION EX_LDA EC_LDA VX_LDA VC_LDA
:LAT  : LATTICE CONSTANTS=  9.95603  9.95603  9.95603    1.571    1.571    1.571
:VOL  : UNIT CELL VOLUME =     246.71680
       MODE OF CALCULATION IS       = RELA
       NON-SPINPOLARIZED CALCULATION
:IFFT  : FFT-parameters:   80   80   80 Factor: 2.00


   CONVERGENCE PARAMETER FOR PSEUDOCHARGE: NCON=  9
   MAXIMAL VALUE OF RMT(JATOM)*ABSK(NKK) : RK  =29.93539


:VKCOUL :  VK-COUL convergence: 0.233E-06
       ATOMNUMBER=  1 Pr         VCOUL-ZERO =  0.22133E+00
:FIT001: LUSE= 13 SIGMA OF V-XC FIT FOR ATOM  1  0.4163832E-04
:FIT001: LUSE= 13 SIGMA OF V-XC FIT FOR ATOM  1  0.4163832E-04
:DEN  : DENSITY INTEGRAL  =         -7070.71864259   (Ry)
       ELS_POTENTIAL_AT Z=0 and Z=0.5:  -2.46689  -2.46689
       ELS_POTENTIAL_AT Y=0 and Y=0.5:   0.00000   0.00000
:VZERO:v0,v0c,v0x  -3.43411  -2.46689  -0.96722 v5,v5c,v5x  -3.43411  -2.46689  -0.96722
:VZERY:v0,v0c,v0x  -0.70470   0.00000  -0.70470 v5,v5c,v5x  -0.70470   0.00000  -0.70470
:VZERX:v0,v0c,v0x  -0.70470   0.00000  -0.70470 v5,v5c,v5x  -0.70470   0.00000  -0.70470

------- case.scf1 --------
:LMAX-WF:   10   Non-Spherical LMAX:   4

          ATOMIC SPHERE DEPENDENT PARAMETERS FOR ATOM  Pr        
:e__0001: OVERALL ENERGY PARAMETER IS    0.3613
          OVERALL BASIS SET ON ATOM IS LAPW
:E0_0001: E( 0)=    0.3613
             APW+lo
:E0_0001: E( 0)=   -2.1139   E(BOTTOM)=   -2.495   E(TOP)=   -1.733  4  5   173
             LOCAL ORBITAL
:E1_0001: E( 1)=    0.7613
             APW+lo
:E1_0001: E( 1)=   -0.7262   E(BOTTOM)=   -1.373   E(TOP)=   -0.079  3  4   166
             LOCAL ORBITAL
:E3_0001: E( 3)=    0.5586   E(BOTTOM)=    0.416   E(TOP)=    0.701  0  1   118
             APW+lo
:E2_0001: E( 2)=    0.3613   E(BOTTOM)=    0.202   E(TOP)= -200.000  2 -1    88
             APW+lo

       K=   0.00000   0.00000   0.00000            1
:RKM  : MATRIX SIZE   189LOs:  20  RKM= 8.20  WEIGHT= 1.00  PGR:    
       EIGENVALUES ARE:
:EIG00001:      -2.0742525   -0.7083165   -0.7083165   -0.7083165    0.3092618
:EIG00006:       0.5559106    0.5734820    0.5734820    0.5734820    0.5974612
:EIG00011:       0.5974612    0.5974612    0.6911987    0.6911987    0.6911987
:EIG00016:       0.8595055    0.8595055    1.2604063    1.4844478    1.4844478
:EIG00021:       1.4844478    1.5887661    2.2592010    2.2592010    2.2592010
:EIG00026:       2.3391040    2.3391040    2.3391040    2.5443679    2.5443679
:EIG00031:       2.9077879    3.0684478    3.0684478    3.0684478    3.5028483
:EIG00036:       3.5028483    3.7356641    3.7356641    3.7356641    3.7835989
:EIG00041:       3.7835989    3.7835989    3.9063405    3.9063405    3.9063405
:EIG00046:       4.1882398    4.1882398    4.1882398    4.1993441    4.2893386
 
:EIG00051:       4.2893386    4.3603834    4.3603834    4.3603834    4.3904580
:EIG00056:       4.3904580    4.3904580    4.4999590    4.5093851    4.6354245
:EIG00061:       4.6354245    4.6354245    4.7603161    4.7603161    4.7603161
:EIG00066:       5.0167927    6.0108204    6.0163173    6.0163173    6.3540406
:EIG00071:       6.3540406    6.3540406    6.8295537    6.8295537    7.0095449
:EIG00076:       7.0095449    7.0095449    7.0617823    7.0617823    7.0617823
:EIG00081:       7.3237083    7.3237083    7.3237083    7.3464430    7.3464430
:EIG00086:       7.4147531    7.4147531    7.4147531    7.4366483    7.4366483
:EIG00091:       7.4366483    7.5371011    7.5371011    7.5371011    7.5393899
:EIG00096:       7.5393899    7.5393899    7.6316168    7.6879715    7.7919907
 
:EIG00101:       7.7919907    7.8177590    7.8177590    7.8177590    7.8267785
:EIG00106:       7.8267785    7.8267785    7.8592579    7.8592579    7.8592579
:EIG00111:       7.9643105    7.9643105
       ********************************************************

:KPT   :      NUMBER OF K-POINTS:   165

------- case.scfso --------
   0.0   0.0 angle (M,z), angle (M,x) deg
 
        SPIN-ORBIT EIGENVALUES:
     K=   0.00000   0.00000   0.00000            1
      MATRIX SIZE=  224   WEIGHT= 1.00
     EIGENVALUES ARE:
          -2.0742525   -2.0742525   -0.8556354   -0.8556354   -0.6393491
          -0.6393491   -0.6393491   -0.6393491    0.3092618    0.3092618
           0.5515001    0.5515001    0.5626392    0.5626392    0.5626392
           0.5626392    0.5851244    0.5851244    0.5976186    0.5976186
           0.6045153    0.6045153    0.6045153    0.6045153    0.6874259
           0.6874259    0.6874259    0.6874259    0.6975849    0.6975849
           0.8598863    0.8598863    0.8598863    0.8598863    1.2604611
           1.2604611    1.4795653    1.4795653    1.4866850    1.4866850

           1.4866850    1.4866850    1.5887661    1.5887661    2.2542241
           2.2542241    2.2542241    2.2542241    2.2670442    2.2670442
           2.2686485    2.2686485    2.3759635    2.3759635    2.3759635
           2.3759635    2.5446556    2.5446556    2.5446556    2.5446556
           2.9077879    2.9077879    3.0680191    3.0680191    3.0686751
           3.0686751    3.0686751    3.0686751    3.5028209    3.5028209
           3.5028209    3.5028209    3.7343112    3.7343112    3.7343112
           3.7343112    3.7386299    3.7386299    3.7519079    3.7519079

           3.8009363    3.8009363    3.8009363    3.8009363    3.9063321
           3.9063321    3.9063447    3.9063447    3.9063447    3.9063447
           4.1881893    4.1881893    4.1881893    4.1881893    4.1883472
           4.1883472    4.1993441    4.1993441    4.2893386    4.2893386
           4.2893386    4.2893386    4.3602200    4.3602200    4.3604569
           4.3604569    4.3604569    4.3604569    4.3903124    4.3903124
           4.3903124    4.3903124    4.3907926    4.3907926    4.4999628
           4.4999628
       ********************************************************

------- case.scf2 --------
:GMA  : POTENTIAL AND CHARGE CUT-OFF  12.00 Ry**.5




:POS001: at.nr.   1 position = 0.00000 0.00000 0.50000  multiplicity =  1

       lmmax  5
       lm=   0 0  4 0  4 4  6 0  6 4
:FER gutzwiller fermi energy   0.57617
:EORB         -0.078626239
:SUM sum of gutz band energies         -5.937995360

:CHA001: total charge inside sphere   1 =    10.103995
:PCS001: partial charges sphere =  1 s,p,d,f,      d-eg,d-t2g 
:QTL001: 2.0300 5.3587 0.6505 2.0644 0.0000 0.0000 0.0000 0.2333 0.4172 0.0000 0.0000 0.0000

:CHA  : total charge inside unit cell =       6.499999

------- case.scfc --------

        1.ATOM      Pr                   14 CORE STATES
:1S 001: 1S               -3067.036373025 Ry
:2S 001: 2S                -492.787818730 Ry
:2PP001: 2P*               -465.887350411 Ry
:2P 001: 2P                -430.489716958 Ry
:3S 001: 3S                -105.874131247 Ry
:3PP001: 3P*                -94.412166051 Ry
:3P 001: 3P                 -87.404159976 Ry
:3DD001: 3D*                -67.331718244 Ry
:3D 001: 3D                 -65.820088476 Ry
:4S 001: 4S                 -20.551079252 Ry
:4PP001: 4P*                -16.258056314 Ry
:4P 001: 4P                 -14.730873324 Ry
:4DD001: 4D*                 -7.664343729 Ry
:4D 001: 4D                  -7.395023023 Ry

------- case.scfm --------
:CINT001 Core Integral Atom   1   45.999516

       DENSITY AT NUCLEUS
        JATOM        VALENCE       SEMI-CORE          CORE           TOTAL
:RTO001:   1      650.774019        0.000000   656824.891343   657475.665363
 :WARNING: K-list has changed
     
       CHARGES OF NEW CHARGE DENSITY
:NTO   : INTERSTITIAL CHARGE =     2.896023
:NPC   : PW Pseudocharge     =     7.612662
:NTO001: CHARGE SPHERE  1    =    56.103511

:NEC01: NUCLEAR AND ELECTRONIC CHARGE     59.00000    58.99953
     
       CHARGES OF OLD CHARGE DENSITY
:OTO   : INTERSTITIAL CHARGE =     2.917230
:OPC   : PW Pseudocharge     =     7.620698
:OTO001: CHARGE SPHERE  1    =    56.082770

:NEC02: NUCLEAR AND ELECTRONIC CHARGE     59.00000    59.00000
     
       CONVERGENCE TEST
:DTO001: DIFFERENCE IN SPHERE  1 =  0.0414347

:DIS  :  CHARGE DISTANCE       ( 0.0414347 for atom    1 spin 1)      0.0414347
 PW Mixed is           55
 
******************************************************
* MULTISECANT MIXING VER9 RELEASE 10.4.0              *
* Standard Mode with controls                        *
* Fixed density scale                                *
* Regularization       1.000E-04                     *
* Trust Upper Limit    5.000E+00                     *
* Max Number of Memory Steps    8                    *
******************************************************
 
:PWTMP   1.8127E+02  1.2500E+02  2.4672E+02
:PLANE:  PW TOTAL      2.9834 DISTAN   1.65E-02  5.54E-01 %
:CHARG:  CLM/ATOM    977.1840 DISTAN   4.50E-01  4.60E-02 %
 
Step History
        DMIX         DMIXT        Red     Pred      Trust     Lambda    MagRel    MagAbs     Beta
  1   3.5000E-02   3.5000E-02 -1.00E+00  1.00E+00 -1.00E+01  1.00E+00  3.50E-02  3.50E-02  1.00E+00
:INFO :  Note, Pratt in use
:TRUST:  Step 3.75E-02  Charge 7.50E-02 (e) CTO  2.50E-01 (e) PW  3.50E-01 (e)
:DIRM :  MEMORY  0/ 8 SCALE   1.000
Performing Pseudo Compensation
Final Pseudo Compensation Rescaling     1.00000E+00
:MIX  :   PRATT  REGULARIZATION:  1.00E-04 GREED: 0.02500                  
     
       CHARGES OF MIXED CHARGE DENSITY
:CTO   : INTERSTITIAL CHARGE =     2.916712
:CPC   : PW Pseudocharge     =     7.614829
:CTO001: CHARGE SPHERE  1    =    56.083288

:NEC03: NUCLEAR AND ELECTRONIC CHARGE     59.00000    59.00000

PW CHANGE     H    K    L      Current       Change    Residue
:PTO001:      0    0    0  4.26867583E-02 -2.589E-05 -1.117E-04
:PTO002:     -1   -1   -1 -1.32846521E-01  1.913E-04  1.798E-04
:PTO003:      0    0   -2  7.87015800E-02 -1.376E-04  8.169E-05
:PTO004:      0   -2   -2  6.73431255E-02 -2.833E-04 -6.015E-04
:PTO005:     -1   -1   -3 -6.30122709E-02  5.198E-04  4.926E-04
:PTO006:     -2   -2   -2  1.59367678E-02 -1.620E-04  1.349E-04
:PTO007:      0    0   -4  2.50213256E-03 -1.108E-04  7.731E-06
:PTO008:     -1   -3   -3 -8.69801529E-04  4.212E-04  8.126E-04
:PTO009:      0   -2   -4 -1.91237034E-03 -4.091E-04 -9.182E-04
:PTO010:     -2   -2   -4 -7.10770195E-03 -3.311E-04 -1.636E-04
:PTO011:     -3   -3   -3  2.75912551E-03  8.984E-05 -1.912E-04
:PTO012:     -1   -1   -5  8.05641071E-03  2.882E-04  1.750E-04

:ENE  : ********** TOTAL ENERGY IN Ry =       -18472.12313217


------- case.scf0 --------
 Flat Integration
 New Mode for Coulomb Integral
 Consistent 3/8+Simpson combinations
 Extension of core to zero
 LDM version in phi
 Fifth-order quadrature in outwin


            ---------
:ITE024: 24. ITERATION
            ---------

:NATO :    1 INDEPENDENT AND    1 TOTAL ATOMS IN UNITCELL
       SUBSTANCE: blebleble                                                   

       LATTICE                      = F   
:POT  : POTENTIAL OPTION EX_LDA EC_LDA VX_LDA VC_LDA
:LAT  : LATTICE CONSTANTS=  9.95603  9.95603  9.95603    1.571    1.571    1.571
:VOL  : UNIT CELL VOLUME =     246.71680
       MODE OF CALCULATION IS       = RELA
       NON-SPINPOLARIZED CALCULATION
:IFFT  : FFT-parameters:   80   80   80 Factor: 2.00


   CONVERGENCE PARAMETER FOR PSEUDOCHARGE: NCON=  9
   MAXIMAL VALUE OF RMT(JATOM)*ABSK(NKK) : RK  =29.93539


:VKCOUL :  VK-COUL convergence: 0.228E-06
       ATOMNUMBER=  1 Pr         VCOUL-ZERO =  0.22143E+00
:FIT001: LUSE= 13 SIGMA OF V-XC FIT FOR ATOM  1  0.4065355E-04
:FIT001: LUSE= 13 SIGMA OF V-XC FIT FOR ATOM  1  0.4065355E-04
:DEN  : DENSITY INTEGRAL  =         -7070.78740729   (Ry)
       ELS_POTENTIAL_AT Z=0 and Z=0.5:  -2.46731  -2.46731
       ELS_POTENTIAL_AT Y=0 and Y=0.5:   0.00000   0.00000
:VZERO:v0,v0c,v0x  -3.43416  -2.46731  -0.96685 v5,v5c,v5x  -3.43416  -2.46731  -0.96685
:VZERY:v0,v0c,v0x  -0.70464   0.00000  -0.70464 v5,v5c,v5x  -0.70464   0.00000  -0.70464
:VZERX:v0,v0c,v0x  -0.70464   0.00000  -0.70464 v5,v5c,v5x  -0.70464   0.00000  -0.70464

------- case.scf1 --------
:LMAX-WF:   10   Non-Spherical LMAX:   4

          ATOMIC SPHERE DEPENDENT PARAMETERS FOR ATOM  Pr        
:e__0001: OVERALL ENERGY PARAMETER IS    0.3613
          OVERALL BASIS SET ON ATOM IS LAPW
:E0_0001: E( 0)=    0.3613
             APW+lo
:E0_0001: E( 0)=   -2.1134   E(BOTTOM)=   -2.495   E(TOP)=   -1.732  4  5   164
             LOCAL ORBITAL
:E1_0001: E( 1)=    0.7613
             APW+lo
:E1_0001: E( 1)=   -0.7258   E(BOTTOM)=   -1.373   E(TOP)=   -0.079  3  4   171
             LOCAL ORBITAL
:E3_0001: E( 3)=    0.5594   E(BOTTOM)=    0.417   E(TOP)=    0.702  0  1   119
             APW+lo
:E2_0001: E( 2)=    0.3613   E(BOTTOM)=    0.202   E(TOP)= -200.000  2 -1    90
             APW+lo

       K=   0.00000   0.00000   0.00000            1
:RKM  : MATRIX SIZE   189LOs:  20  RKM= 8.20  WEIGHT= 1.00  PGR:    
       EIGENVALUES ARE:
:EIG00001:      -2.0737703   -0.7079120   -0.7079120   -0.7079120    0.3093741
:EIG00006:       0.5566511    0.5742705    0.5742705    0.5742705    0.5983002
:EIG00011:       0.5983002    0.5983002    0.6913834    0.6913834    0.6913834
:EIG00016:       0.8597357    0.8597357    1.2605847    1.4845928    1.4845928
:EIG00021:       1.4845928    1.5888219    2.2594259    2.2594259    2.2594259
:EIG00026:       2.3393013    2.3393013    2.3393013    2.5445351    2.5445351
:EIG00031:       2.9079449    3.0685690    3.0685690    3.0685690    3.5030255
:EIG00036:       3.5030255    3.7358187    3.7358187    3.7358187    3.7837138
:EIG00041:       3.7837138    3.7837138    3.9064715    3.9064715    3.9064715
:EIG00046:       4.1883173    4.1883173    4.1883173    4.1994929    4.2894046
 
:EIG00051:       4.2894046    4.3604536    4.3604536    4.3604536    4.3905464
:EIG00056:       4.3905464    4.3905464    4.5000179    4.5095074    4.6354860
:EIG00061:       4.6354860    4.6354860    4.7603840    4.7603840    4.7603840
:EIG00066:       5.0168612    6.0109384    6.0164419    6.0164419    6.3541446
:EIG00071:       6.3541446    6.3541446    6.8297733    6.8297733    7.0097470
:EIG00076:       7.0097470    7.0097470    7.0619661    7.0619661    7.0619661
:EIG00081:       7.3238140    7.3238140    7.3238140    7.3465303    7.3465303
:EIG00086:       7.4149172    7.4149172    7.4149172    7.4367536    7.4367536
:EIG00091:       7.4367536    7.5372271    7.5372271    7.5372271    7.5394952
:EIG00096:       7.5394952    7.5394952    7.6317138    7.6880587    7.7920916
 
:EIG00101:       7.7920916    7.8178416    7.8178416    7.8178416    7.8268371
:EIG00106:       7.8268371    7.8268371    7.8593523    7.8593523    7.8593523
:EIG00111:       7.9644184    7.9644184
       ********************************************************

:KPT   :      NUMBER OF K-POINTS:   165

------- case.scfso --------
   0.0   0.0 angle (M,z), angle (M,x) deg
 
        SPIN-ORBIT EIGENVALUES:
     K=   0.00000   0.00000   0.00000            1
      MATRIX SIZE=  224   WEIGHT= 1.00
     EIGENVALUES ARE:
          -2.0737703   -2.0737703   -0.8552134   -0.8552134   -0.6389532
          -0.6389532   -0.6389531   -0.6389531    0.3093741    0.3093741
           0.5522531    0.5522531    0.5634382    0.5634382    0.5634382
           0.5634382    0.5859085    0.5859085    0.5984459    0.5984459
           0.6053456    0.6053456    0.6053456    0.6053456    0.6876119
           0.6876119    0.6876119    0.6876119    0.6977678    0.6977678
           0.8601162    0.8601162    0.8601162    0.8601162    1.2606397
           1.2606397    1.4797128    1.4797128    1.4868288    1.4868288

           1.4868288    1.4868288    1.5888219    1.5888219    2.2544493
           2.2544493    2.2544493    2.2544493    2.2672430    2.2672430
           2.2688728    2.2688728    2.3761597    2.3761597    2.3761597
           2.3761597    2.5448228    2.5448228    2.5448228    2.5448228
           2.9079449    2.9079449    3.0681401    3.0681401    3.0687965
           3.0687965    3.0687965    3.0687965    3.5029981    3.5029981
           3.5029981    3.5029981    3.7344657    3.7344657    3.7344657
           3.7344657    3.7387847    3.7387847    3.7520196    3.7520196

           3.8010529    3.8010529    3.8010529    3.8010529    3.9064631
           3.9064631    3.9064757    3.9064757    3.9064757    3.9064757
           4.1882667    4.1882667    4.1882667    4.1882667    4.1884246
           4.1884246    4.1994929    4.1994929    4.2894046    4.2894046
           4.2894046    4.2894046    4.3602901    4.3602901    4.3605271
           4.3605271    4.3605271    4.3605271    4.3904008    4.3904008
           4.3904008    4.3904008    4.3908811    4.3908811
       ********************************************************

------- case.scf2 --------
:GMA  : POTENTIAL AND CHARGE CUT-OFF  12.00 Ry**.5




:POS001: at.nr.   1 position = 0.00000 0.00000 0.50000  multiplicity =  1

       lmmax  5
       lm=   0 0  4 0  4 4  6 0  6 4
:FER gutzwiller fermi energy   0.57698
:EORB         -0.079120408
:SUM sum of gutz band energies         -5.932144440

:CHA001: total charge inside sphere   1 =    10.096178
:PCS001: partial charges sphere =  1 s,p,d,f,      d-eg,d-t2g 
:QTL001: 2.0301 5.3591 0.6542 2.0525 0.0000 0.0000 0.0000 0.2345 0.4197 0.0000 0.0000 0.0000

:CHA  : total charge inside unit cell =       6.499997

------- case.scfc --------

        1.ATOM      Pr                   14 CORE STATES
:1S 001: 1S               -3067.034712016 Ry
:2S 001: 2S                -492.786190241 Ry
:2PP001: 2P*               -465.885714097 Ry
:2P 001: 2P                -430.488083576 Ry
:3S 001: 3S                -105.872613769 Ry
:3PP001: 3P*                -94.410641227 Ry
:3P 001: 3P                 -87.402645165 Ry
:3DD001: 3D*                -67.330181281 Ry
:3D 001: 3D                 -65.818554444 Ry
:4S 001: 4S                 -20.549926498 Ry
:4PP001: 4P*                -16.256922110 Ry
:4P 001: 4P                 -14.729769346 Ry
:4DD001: 4D*                 -7.663289679 Ry
:4D 001: 4D                  -7.393979002 Ry

------- case.scfm --------
:CINT001 Core Integral Atom   1   45.999516

       DENSITY AT NUCLEUS
        JATOM        VALENCE       SEMI-CORE          CORE           TOTAL
:RTO001:   1      650.746840        0.000000   656824.811661   657475.558501
     
       CHARGES OF NEW CHARGE DENSITY
:NTO   : INTERSTITIAL CHARGE =     2.903778
:NPC   : PW Pseudocharge     =     7.615659
:NTO001: CHARGE SPHERE  1    =    56.095694

:NEC01: NUCLEAR AND ELECTRONIC CHARGE     59.00000    58.99947
     
       CHARGES OF OLD CHARGE DENSITY
:OTO   : INTERSTITIAL CHARGE =     2.916712
:OPC   : PW Pseudocharge     =     7.614829
:OTO001: CHARGE SPHERE  1    =    56.083288

:NEC02: NUCLEAR AND ELECTRONIC CHARGE     59.00000    59.00000
     
       CONVERGENCE TEST
:DTO001: DIFFERENCE IN SPHERE  1 =  0.0275700

:DIS  :  CHARGE DISTANCE       ( 0.0275700 for atom    1 spin 1)      0.0275700
 PW Mixed is           55
 
******************************************************
* MULTISECANT MIXING VER9 RELEASE 10.4.0              *
* Slow Mode, cautious                                *
* Fixed density scale                                *
* Regularization       1.000E-04                     *
* Step Trust Radius    0.75000                       *
* Trust Upper Limit    2.000E+00                     *
* Max Number of Memory Steps   12                    *
******************************************************
 
:PWTMP   1.8127E+02  1.2500E+02  2.4672E+02
:PLANE:  PW TOTAL      2.9787 DISTAN   1.20E-02  4.04E-01 %
:CHARG:  CLM/ATOM    977.1841 DISTAN   4.40E-01  4.50E-02 %
 
Step History
        DMIX         DMIXT        Red     Pred      Trust     Lambda    MagRel    MagAbs     Beta
  1   3.5000E-02   3.5000E-02 -1.00E+00  1.00E+00 -1.00E+01  1.00E+00  3.50E-02  3.50E-02  1.00E+00
  2   2.5000E-02   2.5000E-02 -1.00E+00  1.00E+00 -1.00E+01  1.00E+00  2.50E-02  1.12E-02  1.00E+00
:JACOBIANS    1.251E-01   1.404E-01
  
:TRUST:  Step 3.02E-02  Charge 7.50E-02 (e) CTO  2.50E-01 (e) PW  3.50E-01 (e)
:DIRM :  MEMORY  1/12 SCALE   1.000
:MIX  :   PRATT  REGULARIZATION:  1.00E-04 GREED: 0.03024  Expand 1.21  0.0302                
     
       CHARGES OF MIXED CHARGE DENSITY
:CTO   : INTERSTITIAL CHARGE =     2.911256
:CPC   : PW Pseudocharge     =     7.553069
:CTO001: CHARGE SPHERE  1    =    56.088744

:NEC03: NUCLEAR AND ELECTRONIC CHARGE     59.00000    59.00000

PW CHANGE     H    K    L      Current       Change    Residue
:PTO001:      0    0    0  4.24143160E-02 -2.724E-04 -4.131E-05
:PTO002:     -1   -1   -1 -1.30833180E-01  2.013E-03 -1.900E-05
:PTO003:      0    0   -2  7.72533552E-02 -1.448E-03  2.157E-04
:PTO004:      0   -2   -2  6.43622685E-02 -2.981E-03 -3.165E-04
:PTO005:     -1   -1   -3 -5.75429188E-02  5.469E-03 -1.351E-05
:PTO006:     -2   -2   -2  1.42324719E-02 -1.704E-03  2.972E-04
:PTO007:      0    0   -4  1.33614909E-03 -1.166E-03  1.139E-04
:PTO008:     -1   -3   -3  3.56245477E-03  4.432E-03  3.994E-04
:PTO009:      0   -2   -4 -6.21730484E-03 -4.305E-03 -5.223E-04
:PTO010:     -2   -2   -4 -1.05916558E-02 -3.484E-03  1.632E-04
:PTO011:     -3   -3   -3  3.70438319E-03  9.453E-04 -2.821E-04
:PTO012:     -1   -1   -5  1.10891089E-02  3.033E-03 -1.057E-04

:ENE  : ********** TOTAL ENERGY IN Ry =       -18472.12318892


------- case.scf0 --------
 Flat Integration
 New Mode for Coulomb Integral
 Consistent 3/8+Simpson combinations
 Extension of core to zero
 LDM version in phi
 Fifth-order quadrature in outwin


            ---------
:ITE025: 25. ITERATION
            ---------

:NATO :    1 INDEPENDENT AND    1 TOTAL ATOMS IN UNITCELL
       SUBSTANCE: blebleble                                                   

       LATTICE                      = F   
:POT  : POTENTIAL OPTION EX_LDA EC_LDA VX_LDA VC_LDA
:LAT  : LATTICE CONSTANTS=  9.95603  9.95603  9.95603    1.571    1.571    1.571
:VOL  : UNIT CELL VOLUME =     246.71680
       MODE OF CALCULATION IS       = RELA
       NON-SPINPOLARIZED CALCULATION
:IFFT  : FFT-parameters:   80   80   80 Factor: 2.00


   CONVERGENCE PARAMETER FOR PSEUDOCHARGE: NCON=  9
   MAXIMAL VALUE OF RMT(JATOM)*ABSK(NKK) : RK  =29.93539


:VKCOUL :  VK-COUL convergence: 0.174E-06
       ATOMNUMBER=  1 Pr         VCOUL-ZERO =  0.22243E+00
:FIT001: LUSE= 13 SIGMA OF V-XC FIT FOR ATOM  1  0.3112961E-04
:FIT001: LUSE= 13 SIGMA OF V-XC FIT FOR ATOM  1  0.3112961E-04
:DEN  : DENSITY INTEGRAL  =         -7071.51108656   (Ry)
       ELS_POTENTIAL_AT Z=0 and Z=0.5:  -2.47171  -2.47171
       ELS_POTENTIAL_AT Y=0 and Y=0.5:   0.00000   0.00000
:VZERO:v0,v0c,v0x  -3.43451  -2.47171  -0.96280 v5,v5c,v5x  -3.43451  -2.47171  -0.96280
:VZERY:v0,v0c,v0x  -0.70409   0.00000  -0.70409 v5,v5c,v5x  -0.70409   0.00000  -0.70409
:VZERX:v0,v0c,v0x  -0.70409   0.00000  -0.70409 v5,v5c,v5x  -0.70409   0.00000  -0.70409

------- case.scf1 --------
:LMAX-WF:   10   Non-Spherical LMAX:   4

          ATOMIC SPHERE DEPENDENT PARAMETERS FOR ATOM  Pr        
:e__0001: OVERALL ENERGY PARAMETER IS    0.3613
          OVERALL BASIS SET ON ATOM IS LAPW
:E0_0001: E( 0)=    0.3613
             APW+lo
:E0_0001: E( 0)=   -2.1083   E(BOTTOM)=   -2.490   E(TOP)=   -1.726  4  5   168
             LOCAL ORBITAL
:E1_0001: E( 1)=    0.7613
             APW+lo
:E1_0001: E( 1)=   -0.7212   E(BOTTOM)=   -1.369   E(TOP)=   -0.073  3  4   169
             LOCAL ORBITAL
:E3_0001: E( 3)=    0.5680   E(BOTTOM)=    0.425   E(TOP)=    0.711  0  1   119
             APW+lo
:E2_0001: E( 2)=    0.3613   E(BOTTOM)=    0.205   E(TOP)= -200.000  2 -1    89
             APW+lo

       K=   0.00000   0.00000   0.00000            1
:RKM  : MATRIX SIZE   189LOs:  20  RKM= 8.20  WEIGHT= 1.00  PGR:    
       EIGENVALUES ARE:
:EIG00001:      -2.0686951   -0.7036552   -0.7036552   -0.7036552    0.3105575
:EIG00006:       0.5644306    0.5825598    0.5825598    0.5825598    0.6071274
:EIG00011:       0.6071274    0.6071274    0.6933263    0.6933263    0.6933263
:EIG00016:       0.8621572    0.8621572    1.2624781    1.4861255    1.4861255
:EIG00021:       1.4861255    1.5894095    2.2617945    2.2617945    2.2617945
:EIG00026:       2.3413797    2.3413797    2.3413797    2.5462953    2.5462953
:EIG00031:       2.9095992    3.0698490    3.0698490    3.0698490    3.5048918
:EIG00036:       3.5048918    3.7374478    3.7374478    3.7374478    3.7849242
:EIG00041:       3.7849242    3.7849242    3.9078503    3.9078503    3.9078503
:EIG00046:       4.1891334    4.1891334    4.1891334    4.2010592    4.2901006
 
:EIG00051:       4.2901006    4.3611948    4.3611948    4.3611948    4.3914799
:EIG00056:       4.3914799    4.3914799    4.5006422    4.5107967    4.6361342
:EIG00061:       4.6361342    4.6361342    4.7611010    4.7611010    4.7611010
:EIG00066:       5.0175865    6.0121812    6.0177534    6.0177534    6.3552396
:EIG00071:       6.3552396    6.3552396    6.8320845    6.8320845    7.0118725
:EIG00076:       7.0118725    7.0118725    7.0639016    7.0639016    7.0639016
:EIG00081:       7.3249263    7.3249263    7.3249263    7.3474491    7.3474491
:EIG00086:       7.4166458    7.4166458    7.4166458    7.4378634    7.4378634
:EIG00091:       7.4378634    7.5385537    7.5385537    7.5385537    7.5406033
:EIG00096:       7.5406033    7.5406033    7.6327354    7.6889771    7.7931522
 
:EIG00101:       7.7931522    7.8187119    7.8187119    7.8187119    7.8274540
:EIG00106:       7.8274540    7.8274540    7.8603471    7.8603471    7.8603471
:EIG00111:       7.9655559    7.9655559
       ********************************************************

:KPT   :      NUMBER OF K-POINTS:   165

------- case.scfso --------
   0.0   0.0 angle (M,z), angle (M,x) deg
 
        SPIN-ORBIT EIGENVALUES:
     K=   0.00000   0.00000   0.00000            1
      MATRIX SIZE=  224   WEIGHT= 1.00
     EIGENVALUES ARE:
          -2.0686951   -2.0686951   -0.8507714   -0.8507714   -0.6347858
          -0.6347858   -0.6347858   -0.6347858    0.3105575    0.3105575
           0.5601623    0.5601623    0.5718371    0.5718371    0.5718371
           0.5718371    0.5941508    0.5941508    0.6071516    0.6071516
           0.6140810    0.6140810    0.6140810    0.6140810    0.6895689
           0.6895689    0.6895689    0.6895689    0.6996913    0.6996913
           0.8625341    0.8625341    0.8625341    0.8625341    1.2625344
           1.2625344    1.4812722    1.4812722    1.4883493    1.4883493

           1.4883493    1.4883493    1.5894095    1.5894095    2.2568203
           2.2568203    2.2568203    2.2568203    2.2693368    2.2693368
           2.2712354    2.2712354    2.3782264    2.3782264    2.3782264
           2.3782264    2.5465830    2.5465830    2.5465830    2.5465830
           2.9095992    2.9095992    3.0694178    3.0694178    3.0700777
           3.0700777    3.0700777    3.0700777    3.5048642    3.5048642
           3.5048642    3.5048642    3.7360939    3.7360939    3.7360939
           3.7360939    3.7404160    3.7404160    3.7531966    3.7531966

           3.8022819    3.8022819    3.8022819    3.8022819    3.9078419
           3.9078419    3.9078545    3.9078545    3.9078545    3.9078545
           4.1890830    4.1890830    4.1890830    4.1890830    4.1892404
           4.1892404    4.2010592    4.2010592    4.2901006    4.2901006
           4.2901006    4.2901006    4.3610306    4.3610306    4.3612688
           4.3612688    4.3612688    4.3612688    4.3913338    4.3913338
           4.3913338    4.3913338    4.3918158    4.3918158
       ********************************************************

------- case.scf2 --------
:GMA  : POTENTIAL AND CHARGE CUT-OFF  12.00 Ry**.5




:POS001: at.nr.   1 position = 0.00000 0.00000 0.50000  multiplicity =  1

       lmmax  5
       lm=   0 0  4 0  4 4  6 0  6 4
:FER gutzwiller fermi energy   0.58034
:EORB         -0.069323924
:SUM sum of gutz band energies         -5.884818411

:CHA001: total charge inside sphere   1 =    10.072313
:PCS001: partial charges sphere =  1 s,p,d,f,      d-eg,d-t2g 
:QTL001: 2.0300 5.3583 0.6623 2.0213 0.0000 0.0000 0.0000 0.2370 0.4253 0.0000 0.0000 0.0000

:CHA  : total charge inside unit cell =       6.500000

------- case.scfc --------

        1.ATOM      Pr                   14 CORE STATES
:1S 001: 1S               -3067.017235124 Ry
:2S 001: 2S                -492.769055523 Ry
:2PP001: 2P*               -465.868497056 Ry
:2P 001: 2P                -430.470897372 Ry
:3S 001: 3S                -105.856646637 Ry
:3PP001: 3P*                -94.394596842 Ry
:3P 001: 3P                 -87.386706052 Ry
:3DD001: 3D*                -67.314009249 Ry
:3D 001: 3D                 -65.802413227 Ry
:4S 001: 4S                 -20.537794328 Ry
:4PP001: 4P*                -16.244985084 Ry
:4P 001: 4P                 -14.718150225 Ry
:4DD001: 4D*                 -7.652195989 Ry
:4D 001: 4D                  -7.382990816 Ry

------- case.scfm --------
:CINT001 Core Integral Atom   1   45.999513

       DENSITY AT NUCLEUS
        JATOM        VALENCE       SEMI-CORE          CORE           TOTAL
:RTO001:   1      650.241096        0.000000   656823.973678   657474.214774
     
       CHARGES OF NEW CHARGE DENSITY
:NTO   : INTERSTITIAL CHARGE =     2.927706
:NPC   : PW Pseudocharge     =     7.625375
:NTO001: CHARGE SPHERE  1    =    56.071826

:NEC01: NUCLEAR AND ELECTRONIC CHARGE     59.00000    58.99953
     
       CHARGES OF OLD CHARGE DENSITY
:OTO   : INTERSTITIAL CHARGE =     2.911256
:OPC   : PW Pseudocharge     =     7.553069
:OTO001: CHARGE SPHERE  1    =    56.088744

:NEC02: NUCLEAR AND ELECTRONIC CHARGE     59.00000    59.00000
     
       CONVERGENCE TEST
:DTO001: DIFFERENCE IN SPHERE  1 =  0.0304191

:DIS  :  CHARGE DISTANCE       ( 0.0304191 for atom    1 spin 1)      0.0304191
 PW Mixed is           55
 
******************************************************
* MULTISECANT MIXING VER9 RELEASE 10.4.0              *
* Slow Mode, cautious                                *
* Fixed density scale                                *
* Regularization       1.000E-04                     *
* Step Trust Radius    0.75000                       *
* Trust Upper Limit    2.000E+00                     *
* Max Number of Memory Steps   12                    *
******************************************************
 
:PWTMP   1.8127E+02  1.2500E+02  2.4672E+02
:PLANE:  PW TOTAL      2.9305 DISTAN   1.04E-01  3.56E+00 %
:CHARG:  CLM/ATOM    977.1860 DISTAN   3.30E-01  3.38E-02 %
 
Step History
        DMIX         DMIXT        Red     Pred      Trust     Lambda    MagRel    MagAbs     Beta
  1   3.5000E-02   3.5000E-02 -1.00E+00  1.00E+00 -1.00E+01  1.00E+00  3.50E-02  3.50E-02  1.00E+00
  2   2.5000E-02   2.5000E-02  9.78E-01  1.00E+00 -1.00E+01  1.00E+00  2.50E-02  1.12E-02  1.00E+00
  3   3.0238E-02   3.0238E-02 -1.00E+00  1.00E+00 -1.00E+01  1.00E+00  3.02E-02  1.33E-02  1.00E+00
:JACOBIANS    2.777E-01   3.474E-01
  
:NORMS:  1/Froebius, Min, Max, Used   0.9663E+00  0.4930E+00  0.9859E+00  0.9667E+00
:INFO :  Number of Memory Steps    2 Skipping    0
:INFO :  SLambda=    0.8510081810  Max    0.8510081810
:PREDicted Charge, CTotal, PW Trust    1.157E-02   1.157E-02   7.223E-02
:PREDicted DMix, Beta, BLim   5.4841E-01  1.9893E+00  7.3867E-01

Eigenvalues, unscaled except for SY+YY
   #     SY Real        SY Imag          SS             YY         SY+YY Real      SY+YY Imag
   1  -2.220446E-14   0.000000E+00   1.867533E+00   1.998551E+00   1.494848E-03   0.000000E+00
   2   1.837127E+00   0.000000E+00   0.000000E+00   1.448693E-03   3.561915E+00   0.000000E+00
 
:INFO :  Singular value  3.562E+00 Weight  1.000E+00 Projection -1.140E-01
:INFO :  Singular value  1.495E-03 Weight  9.824E-01 Projection  3.322E+00
:RANK :  ACTIVE   1.98/2  =  99.12 % ; YY RANK   1.98/2  =  99.07 %
 
:BLIM :  VZERO Control Off
:TRUST:  Step 2.44E-01  Charge 7.50E-02 (e) CTO  2.50E-01 (e) PW  3.50E-01 (e)
:DTRUS:  Lambda    3.979E+00 Increment    7.276E-12 Iterations   118 DMIX    3.793E-02
:INFOA:  Angle SubSpace to MSR1      0.00
:DIRM :  MEMORY  2/12 SCALE   1.000 RED  0.79 PRED  1.00 NEXT  0.87 
:INFO :  Limited by Atoms F by Step T

:TRAVE:  Charge 3.74E-03 (e) CTO  3.74E-03 (e) PW  1.62E-02 (e)
:DIRP :  |MSR1|= 4.744E-02 |PRATT|= 1.042E-01 ANGLE= 172.6 DEGREES
:DIRQ :  |MSR1|= 6.999E-02 |PRATT|= 3.298E-01 ANGLE=  10.8 DEGREES
:DIRT :  |MSR1|= 8.456E-02 |PRATT|= 3.459E-01 ANGLE=  52.6 DEGREES
:MIX  :   MSD1   REGULARIZATION:  2.00E-04 GREED: 0.07559  LMStep 0.50  0.2445 Step           
     
       CHARGES OF MIXED CHARGE DENSITY
:CTO   : INTERSTITIAL CHARGE =     2.907515
:CPC   : PW Pseudocharge     =     7.524838
:CTO001: CHARGE SPHERE  1    =    56.092485

:NEC03: NUCLEAR AND ELECTRONIC CHARGE     59.00000    59.00000

PW CHANGE     H    K    L      Current       Change    Residue
:PTO001:      0    0    0  4.22847270E-02 -1.296E-04  3.666E-04
:PTO002:     -1   -1   -1 -1.29919657E-01  9.135E-04 -2.045E-03
:PTO003:      0    0   -2  7.66054573E-02 -6.479E-04  1.651E-03
:PTO004:      0   -2   -2  6.29971100E-02 -1.365E-03  2.650E-03
:PTO005:     -1   -1   -3 -5.50632417E-02  2.480E-03 -5.412E-03
:PTO006:     -2   -2   -2  1.34703444E-02 -7.621E-04  1.993E-03
:PTO007:      0    0   -4  8.12580387E-04 -5.236E-04  1.265E-03
:PTO008:     -1   -3   -3  5.58574410E-03  2.023E-03 -4.001E-03
:PTO009:      0   -2   -4 -8.18641648E-03 -1.969E-03  3.740E-03
:PTO010:     -2   -2   -4 -1.21630973E-02 -1.571E-03  3.637E-03
:PTO011:     -3   -3   -3  4.12187526E-03  4.175E-04 -1.232E-03
:PTO012:     -1   -1   -5  1.24573194E-02  1.368E-03 -3.124E-03

:ENE  : ********** TOTAL ENERGY IN Ry =       -18472.12310989


------- case.scf0 --------
 Flat Integration
 New Mode for Coulomb Integral
 Consistent 3/8+Simpson combinations
 Extension of core to zero
 LDM version in phi
 Fifth-order quadrature in outwin


            ---------
:ITE026: 26. ITERATION
            ---------

:NATO :    1 INDEPENDENT AND    1 TOTAL ATOMS IN UNITCELL
       SUBSTANCE: blebleble                                                   

       LATTICE                      = F   
:POT  : POTENTIAL OPTION EX_LDA EC_LDA VX_LDA VC_LDA
:LAT  : LATTICE CONSTANTS=  9.95603  9.95603  9.95603    1.571    1.571    1.571
:VOL  : UNIT CELL VOLUME =     246.71680
       MODE OF CALCULATION IS       = RELA
       NON-SPINPOLARIZED CALCULATION
:IFFT  : FFT-parameters:   80   80   80 Factor: 2.00


   CONVERGENCE PARAMETER FOR PSEUDOCHARGE: NCON=  9
   MAXIMAL VALUE OF RMT(JATOM)*ABSK(NKK) : RK  =29.93539


:VKCOUL :  VK-COUL convergence: 0.141E-06
       ATOMNUMBER=  1 Pr         VCOUL-ZERO =  0.22290E+00
:FIT001: LUSE= 13 SIGMA OF V-XC FIT FOR ATOM  1  0.2621638E-04
:FIT001: LUSE= 13 SIGMA OF V-XC FIT FOR ATOM  1  0.2621638E-04
:DEN  : DENSITY INTEGRAL  =         -7071.96326557   (Ry)
       ELS_POTENTIAL_AT Z=0 and Z=0.5:  -2.47299  -2.47299
       ELS_POTENTIAL_AT Y=0 and Y=0.5:   0.00000   0.00000
:VZERO:v0,v0c,v0x  -3.43397  -2.47299  -0.96098 v5,v5c,v5x  -3.43397  -2.47299  -0.96098
:VZERY:v0,v0c,v0x  -0.70377   0.00000  -0.70377 v5,v5c,v5x  -0.70377   0.00000  -0.70377
:VZERX:v0,v0c,v0x  -0.70377   0.00000  -0.70377 v5,v5c,v5x  -0.70377   0.00000  -0.70377

------- case.scf1 --------
:LMAX-WF:   10   Non-Spherical LMAX:   4

          ATOMIC SPHERE DEPENDENT PARAMETERS FOR ATOM  Pr        
:e__0001: OVERALL ENERGY PARAMETER IS    0.3613
          OVERALL BASIS SET ON ATOM IS LAPW
:E0_0001: E( 0)=    0.3613
             APW+lo
:E0_0001: E( 0)=   -2.1050   E(BOTTOM)=   -2.487   E(TOP)=   -1.723  4  5   171
             LOCAL ORBITAL
:E1_0001: E( 1)=    0.7613
             APW+lo
:E1_0001: E( 1)=   -0.7184   E(BOTTOM)=   -1.367   E(TOP)=   -0.070  3  4   165
             LOCAL ORBITAL
:E3_0001: E( 3)=    0.5734   E(BOTTOM)=    0.430   E(TOP)=    0.717  0  1   118
             APW+lo
:E2_0001: E( 2)=    0.3613   E(BOTTOM)=    0.207   E(TOP)= -200.000  2 -1    89
             APW+lo

       K=   0.00000   0.00000   0.00000            1
:RKM  : MATRIX SIZE   189LOs:  20  RKM= 8.20  WEIGHT= 1.00  PGR:    
       EIGENVALUES ARE:
:EIG00001:      -2.0655016   -0.7010131   -0.7010131   -0.7010131    0.3111276
:EIG00006:       0.5693870    0.5878558    0.5878558    0.5878558    0.6127814
:EIG00011:       0.6127814    0.6127814    0.6944123    0.6944123    0.6944123
:EIG00016:       0.8635600    0.8635600    1.2635303    1.4869253    1.4869253
:EIG00021:       1.4869253    1.5895682    2.2631572    2.2631572    2.2631572
:EIG00026:       2.3425492    2.3425492    2.3425492    2.5472593    2.5472593
:EIG00031:       2.9104789    3.0704859    3.0704859    3.0704859    3.5059058
:EIG00036:       3.5059058    3.7383076    3.7383076    3.7383076    3.7855084
:EIG00041:       3.7855084    3.7855084    3.9085505    3.9085505    3.9085505
:EIG00046:       4.1894623    4.1894623    4.1894623    4.2018759    4.2903495
 
:EIG00051:       4.2903495    4.3614781    4.3614781    4.3614781    4.3918739
:EIG00056:       4.3918739    4.3918739    4.5008326    4.5114377    4.6363406
:EIG00061:       4.6363406    4.6363406    4.7613560    4.7613560    4.7613560
:EIG00066:       5.0178416    6.0127854    6.0183981    6.0183981    6.3557445
:EIG00071:       6.3557445    6.3557445    6.8333868    6.8333868    7.0130475
:EIG00076:       7.0130475    7.0130475    7.0649677    7.0649677    7.0649677
:EIG00081:       7.3254435    7.3254435    7.3254435    7.3478436    7.3478436
:EIG00086:       7.4175491    7.4175491    7.4175491    7.4383803    7.4383803
:EIG00091:       7.4383803    7.5392085    7.5392085    7.5392085    7.5411212
:EIG00096:       7.5411212    7.5411212    7.6331796    7.6893753    7.7936287
 
:EIG00101:       7.7936287    7.8190650    7.8190650    7.8190650    7.8276427
:EIG00106:       7.8276427    7.8276427    7.8607757    7.8607757    7.8607757
:EIG00111:       7.9660783    7.9660783
       ********************************************************

:KPT   :      NUMBER OF K-POINTS:   165

------- case.scfso --------
   0.0   0.0 angle (M,z), angle (M,x) deg
 
        SPIN-ORBIT EIGENVALUES:
     K=   0.00000   0.00000   0.00000            1
      MATRIX SIZE=  224   WEIGHT= 1.00
     EIGENVALUES ARE:
          -2.0655016   -2.0655016   -0.8480045   -0.8480045   -0.6322040
          -0.6322040   -0.6322040   -0.6322040    0.3111276    0.3111276
           0.5652021    0.5652021    0.5772046    0.5772046    0.5772046
           0.5772046    0.5994156    0.5994156    0.6127275    0.6127275
           0.6196751    0.6196751    0.6196751    0.6196751    0.6906642
           0.6906642    0.6906642    0.6906642    0.7007643    0.7007643
           0.8639343    0.8639343    0.8639343    0.8639343    1.2635876
           1.2635876    1.4820901    1.4820901    1.4891410    1.4891410

           1.4891410    1.4891410    1.5895682    1.5895682    2.2581846
           2.2581846    2.2581846    2.2581846    2.2705164    2.2705164
           2.2725945    2.2725945    2.3793882    2.3793882    2.3793882
           2.3793882    2.5475470    2.5475470    2.5475470    2.5475470
           2.9104789    2.9104789    3.0700531    3.0700531    3.0707154
           3.0707154    3.0707154    3.0707154    3.5058779    3.5058779
           3.5058779    3.5058779    3.7369531    3.7369531    3.7369531
           3.7369531    3.7412775    3.7412775    3.7537579    3.7537579

           3.8028787    3.8028787    3.8028787    3.8028787    3.9085421
           3.9085421    3.9085547    3.9085547    3.9085547    3.9085547
           4.1894121    4.1894121    4.1894121    4.1894121    4.1895691
           4.1895691    4.2018759    4.2018759    4.2903495    4.2903495
           4.2903495    4.2903495    4.3613133    4.3613133    4.3615523
           4.3615523    4.3615523    4.3615523    4.3917275    4.3917275
           4.3917275    4.3917275    4.3922105    4.3922105
       ********************************************************

------- case.scf2 --------
:GMA  : POTENTIAL AND CHARGE CUT-OFF  12.00 Ry**.5




:POS001: at.nr.   1 position = 0.00000 0.00000 0.50000  multiplicity =  1

       lmmax  5
       lm=   0 0  4 0  4 4  6 0  6 4
:FER gutzwiller fermi energy   0.58252
:EORB         -0.063485291
:SUM sum of gutz band energies         -5.855360707

:CHA001: total charge inside sphere   1 =    10.055711
:PCS001: partial charges sphere =  1 s,p,d,f,      d-eg,d-t2g 
:QTL001: 2.0300 5.3579 0.6683 1.9992 0.0000 0.0000 0.0000 0.2389 0.4294 0.0000 0.0000 0.0000

:CHA  : total charge inside unit cell =       6.500004

------- case.scfc --------

        1.ATOM      Pr                   14 CORE STATES
:1S 001: 1S               -3067.006744496 Ry
:2S 001: 2S                -492.758623738 Ry
:2PP001: 2P*               -465.858048417 Ry
:2P 001: 2P                -430.460455079 Ry
:3S 001: 3S                -105.846652784 Ry
:3PP001: 3P*                -94.384570284 Ry
:3P 001: 3P                 -87.376730340 Ry
:3DD001: 3D*                -67.303928967 Ry
:3D 001: 3D                 -65.792346772 Ry
:4S 001: 4S                 -20.530012123 Ry
:4PP001: 4P*                -16.237327209 Ry
:4P 001: 4P                 -14.710689758 Ry
:4DD001: 4D*                 -7.645072313 Ry
:4D 001: 4D                  -7.375933439 Ry

------- case.scfm --------
:CINT001 Core Integral Atom   1   45.999511

       DENSITY AT NUCLEUS
        JATOM        VALENCE       SEMI-CORE          CORE           TOTAL
:RTO001:   1      649.916585        0.000000   656823.511733   657473.428319
     
       CHARGES OF NEW CHARGE DENSITY
:NTO   : INTERSTITIAL CHARGE =     2.944252
:NPC   : PW Pseudocharge     =     7.631977
:NTO001: CHARGE SPHERE  1    =    56.055222

:NEC01: NUCLEAR AND ELECTRONIC CHARGE     59.00000    58.99947
     
       CHARGES OF OLD CHARGE DENSITY
:OTO   : INTERSTITIAL CHARGE =     2.907515
:OPC   : PW Pseudocharge     =     7.524838
:OTO001: CHARGE SPHERE  1    =    56.092485

:NEC02: NUCLEAR AND ELECTRONIC CHARGE     59.00000    59.00000
     
       CONVERGENCE TEST
:DTO001: DIFFERENCE IN SPHERE  1 =  0.0676376

:DIS  :  CHARGE DISTANCE       ( 0.0676376 for atom    1 spin 1)      0.0676376
 PW Mixed is           55
 
******************************************************
* MULTISECANT MIXING VER9 RELEASE 10.4.0              *
* Standard Mode with controls                        *
* Fixed density scale                                *
* Regularization       1.000E-04                     *
* Trust Upper Limit    5.000E+00                     *
* Max Number of Memory Steps    8                    *
******************************************************
 
:PWTMP   1.8127E+02  1.2500E+02  2.4672E+02
:PLANE:  PW TOTAL      2.9094 DISTAN   1.51E-01  5.21E+00 %
:CHARG:  CLM/ATOM    977.1867 DISTAN   2.73E-01  2.80E-02 %
 
Step History
        DMIX         DMIXT        Red     Pred      Trust     Lambda    MagRel    MagAbs     Beta
  1   3.5000E-02   3.5000E-02 -1.00E+00  1.00E+00 -1.00E+01  1.00E+00  3.50E-02  3.50E-02  1.00E+00
  2   2.5000E-02   2.5000E-02  9.78E-01  1.00E+00 -1.00E+01  1.00E+00  2.50E-02  1.12E-02  1.00E+00
  3   3.0238E-02   3.0238E-02  7.86E-01  1.00E+00 -1.00E+01  8.51E-01  3.02E-02  1.33E-02  1.00E+00
  4   7.5594E-02   3.7926E-02 -1.00E+00  8.65E-01  2.44E-01  1.00E+00  2.44E-01  8.46E-02  1.00E+00
:JACOBIANS    6.291E-01   6.672E-01
  
:NORMS:  1/Froebius, Min, Max, Used   0.9641E+00  0.6786E+00  0.1039E+01  0.9642E+00
:INFO :  Number of Memory Steps    3 Skipping    0
:INFO :  SLambda=    0.6485086404  Max    0.6485086404
:PREDicted Charge, CTotal, PW Trust    2.944E-02   2.944E-02   1.311E-02
:PREDicted DMix, Beta, BLim   9.2701E-01  2.1723E+00  9.8532E-01

Eigenvalues, unscaled except for SY+YY
   #     SY Real        SY Imag          SS             YY         SY+YY Real      SY+YY Imag
   1   2.718028E+00   0.000000E+00   2.784081E+00   2.994617E+00   4.757252E+00   0.000000E+00
   2  -9.542039E-15   0.000000E+00   4.513776E-03   4.858037E-03   5.822277E-04   0.000000E+00
   3   4.263524E-03   0.000000E+00  -2.573344E-16   5.247227E-04   7.594864E-03   0.000000E+00
 
:INFO :  Singular value  4.757E+00 Weight  1.000E+00 Projection -5.131E-02
:INFO :  Singular value  7.595E-03 Weight  9.984E-01 Projection -3.263E+00
:INFO :  Singular value  5.822E-04 Weight  7.908E-01 Projection  8.185E+00
:RANK :  ACTIVE   2.79/3  =  92.97 % ; YY RANK   2.75/3  =  91.68 %
 
:BLIM :  VZERO Control Off
:TRUST:  Step 6.15E-01  Charge 7.50E-02 (e) CTO  2.50E-01 (e) PW  3.50E-01 (e)
:DTRUS:  Lambda    2.275E+00 Increment    7.276E-12 Iterations   114 DMIX    1.649E-01
:INFOA:  Angle SubSpace to MSR1      0.72
:DIRM :  MEMORY  3/8  SCALE   1.000 RED  0.90 PRED  0.87 NEXT  0.39 
:INFO :  Limited by Atoms F by Step T

:TRAVE:  Charge 7.50E-03 (e) CTO  7.50E-03 (e) PW  1.89E-02 (e)
:DIRP :  |MSR1|= 9.344E-02 |PRATT|= 1.514E-01 ANGLE=   4.7 DEGREES
:DIRQ :  |MSR1|= 1.679E-01 |PRATT|= 2.733E-01 ANGLE=  20.5 DEGREES
:DIRT :  |MSR1|= 1.921E-01 |PRATT|= 3.124E-01 ANGLE=  18.1 DEGREES
:MIX  :   MSD1   REGULARIZATION:  2.99E-04 GREED: 0.18898  LMStep 0.65  0.6149 Step           
     
       CHARGES OF MIXED CHARGE DENSITY
:CTO   : INTERSTITIAL CHARGE =     2.896253
:CPC   : PW Pseudocharge     =     7.578823
:CTO001: CHARGE SPHERE  1    =    56.103747

:NEC03: NUCLEAR AND ELECTRONIC CHARGE     59.00000    59.00000

PW CHANGE     H    K    L      Current       Change    Residue
:PTO001:      0    0    0  4.24578950E-02  1.732E-04  5.908E-04
:PTO002:     -1   -1   -1 -1.31721948E-01 -1.802E-03 -2.969E-03
:PTO003:      0    0   -2  7.80524205E-02  1.447E-03  2.291E-03
:PTO004:      0   -2   -2  6.54458950E-02  2.449E-03  4.008E-03
:PTO005:     -1   -1   -3 -5.99537894E-02 -4.891E-03 -7.844E-03
:PTO006:     -2   -2   -2  1.51729011E-02  1.703E-03  2.751E-03
:PTO007:      0    0   -4  1.93901941E-03  1.126E-03  1.778E-03
:PTO008:     -1   -3   -3  1.85774145E-03 -3.728E-03 -5.998E-03
:PTO009:      0   -2   -4 -4.62702780E-03  3.559E-03  5.676E-03
:PTO010:     -2   -2   -4 -8.91588790E-03  3.247E-03  5.198E-03
:PTO011:     -3   -3   -3  3.09437734E-03 -1.027E-03 -1.651E-03
:PTO012:     -1   -1   -5  9.62450813E-03 -2.833E-03 -4.480E-03

:ENE  : ********** TOTAL ENERGY IN Ry =       -18472.12325676


------- case.scf0 --------
 Flat Integration
 New Mode for Coulomb Integral
 Consistent 3/8+Simpson combinations
 Extension of core to zero
 LDM version in phi
 Fifth-order quadrature in outwin


            ---------
:ITE027: 27. ITERATION
            ---------

:NATO :    1 INDEPENDENT AND    1 TOTAL ATOMS IN UNITCELL
       SUBSTANCE: blebleble                                                   

       LATTICE                      = F   
:POT  : POTENTIAL OPTION EX_LDA EC_LDA VX_LDA VC_LDA
:LAT  : LATTICE CONSTANTS=  9.95603  9.95603  9.95603    1.571    1.571    1.571
:VOL  : UNIT CELL VOLUME =     246.71680
       MODE OF CALCULATION IS       = RELA
       NON-SPINPOLARIZED CALCULATION
:IFFT  : FFT-parameters:   80   80   80 Factor: 2.00


   CONVERGENCE PARAMETER FOR PSEUDOCHARGE: NCON=  9
   MAXIMAL VALUE OF RMT(JATOM)*ABSK(NKK) : RK  =29.93539


:VKCOUL :  VK-COUL convergence: 0.655E-07
       ATOMNUMBER=  1 Pr         VCOUL-ZERO =  0.22213E+00
:FIT001: LUSE= 13 SIGMA OF V-XC FIT FOR ATOM  1  0.1690089E-04
:FIT001: LUSE= 13 SIGMA OF V-XC FIT FOR ATOM  1  0.1690089E-04
:DEN  : DENSITY INTEGRAL  =         -7072.83338317   (Ry)
       ELS_POTENTIAL_AT Z=0 and Z=0.5:  -2.45976  -2.45976
       ELS_POTENTIAL_AT Y=0 and Y=0.5:   0.00000   0.00000
:VZERO:v0,v0c,v0x  -3.42658  -2.45976  -0.96682 v5,v5c,v5x  -3.42658  -2.45976  -0.96682
:VZERY:v0,v0c,v0x  -0.70353   0.00000  -0.70353 v5,v5c,v5x  -0.70353   0.00000  -0.70353
:VZERX:v0,v0c,v0x  -0.70353   0.00000  -0.70353 v5,v5c,v5x  -0.70353   0.00000  -0.70353

------- case.scf1 --------
:LMAX-WF:   10   Non-Spherical LMAX:   4

          ATOMIC SPHERE DEPENDENT PARAMETERS FOR ATOM  Pr        
:e__0001: OVERALL ENERGY PARAMETER IS    0.3613
          OVERALL BASIS SET ON ATOM IS LAPW
:E0_0001: E( 0)=    0.3613
             APW+lo
:E0_0001: E( 0)=   -2.0980   E(BOTTOM)=   -2.482   E(TOP)=   -1.714  4  5   172
             LOCAL ORBITAL
:E1_0001: E( 1)=    0.7613
             APW+lo
:E1_0001: E( 1)=   -0.7125   E(BOTTOM)=   -1.363   E(TOP)=   -0.063  3  4   175
             LOCAL ORBITAL
:E3_0001: E( 3)=    0.5861   E(BOTTOM)=    0.441   E(TOP)=    0.731  0  1   122
             APW+lo
:E2_0001: E( 2)=    0.3613   E(BOTTOM)=    0.210   E(TOP)= -200.000  2 -1    89
             APW+lo

       K=   0.00000   0.00000   0.00000            1
:RKM  : MATRIX SIZE   189LOs:  20  RKM= 8.20  WEIGHT= 1.00  PGR:    
       EIGENVALUES ARE:
:EIG00001:      -2.0586451   -0.6957239   -0.6957239   -0.6957239    0.3105491
:EIG00006:       0.5806551    0.6000908    0.6000908    0.6000908    0.6259715
:EIG00011:       0.6259715    0.6259715    0.6952875    0.6952875    0.6952875
:EIG00016:       0.8653335    0.8653335    1.2642338    1.4869466    1.4869466
:EIG00021:       1.4869466    1.5877896    2.2647239    2.2647239    2.2647239
:EIG00026:       2.3436223    2.3436223    2.3436223    2.5477668    2.5477668
:EIG00031:       2.9107124    3.0700547    3.0700547    3.0700547    3.5064689
:EIG00036:       3.5064689    3.7384404    3.7384404    3.7384404    3.7849367
:EIG00041:       3.7849367    3.7849367    3.9083554    3.9083554    3.9083554
:EIG00046:       4.1882186    4.1882186    4.1882186    4.2019028    4.2888892
 
:EIG00051:       4.2888892    4.3601115    4.3601115    4.3601115    4.3907754
:EIG00056:       4.3907754    4.3907754    4.4991425    4.5110530    4.6347278
:EIG00061:       4.6347278    4.6347278    4.7598681    4.7598681    4.7598681
:EIG00066:       5.0163100    6.0122374    6.0179180    6.0179180    6.3549397
:EIG00071:       6.3549397    6.3549397    6.8345560    6.8345560    7.0138761
:EIG00076:       7.0138761    7.0138761    7.0656633    7.0656633    7.0656633
:EIG00081:       7.3246596    7.3246596    7.3246596    7.3467737    7.3467737
:EIG00086:       7.4175688    7.4175688    7.4175688    7.4376041    7.4376041
:EIG00091:       7.4376041    7.5387772    7.5387772    7.5387772    7.5403759
:EIG00096:       7.5403759    7.5403759    7.6321386    7.6883510    7.7926991
 
:EIG00101:       7.7926991    7.8178293    7.8178293    7.8178293    7.8260116
:EIG00106:       7.8260116    7.8260116    7.8596966    7.8596966    7.8596966
:EIG00111:       7.9651780    7.9651780
       ********************************************************

:KPT   :      NUMBER OF K-POINTS:   165

------- case.scfso --------
   0.0   0.0 angle (M,z), angle (M,x) deg
 
        SPIN-ORBIT EIGENVALUES:
     K=   0.00000   0.00000   0.00000            1
      MATRIX SIZE=  224   WEIGHT= 1.00
     EIGENVALUES ARE:
          -2.0586451   -2.0586451   -0.8423600   -0.8423600   -0.6270869
          -0.6270869   -0.6270868   -0.6270868    0.3105491    0.3105491
           0.5766846    0.5766846    0.5896222    0.5896222    0.5896222
           0.5896222    0.6115714    0.6115714    0.6257152    0.6257152
           0.6327132    0.6327132    0.6327132    0.6327132    0.6915654
           0.6915654    0.6915654    0.6915654    0.7016032    0.7016032
           0.8657010    0.8657010    0.8657010    0.8657010    1.2642939
           1.2642939    1.4821624    1.4821624    1.4891390    1.4891390

           1.4891390    1.4891390    1.5877896    1.5877896    2.2597538
           2.2597538    2.2597538    2.2597538    2.2716129    2.2716129
           2.2741540    2.2741540    2.3804417    2.3804417    2.3804417
           2.3804417    2.5480547    2.5480547    2.5480547    2.5480547
           2.9107124    2.9107124    3.0696177    3.0696177    3.0702865
           3.0702865    3.0702865    3.0702865    3.5064406    3.5064406
           3.5064406    3.5064406    3.7370833    3.7370833    3.7370833
           3.7370833    3.7414166    3.7414166    3.7531184    3.7531184

           3.8023445    3.8023445    3.8023445    3.8023445    3.9083470
           3.9083470    3.9083596    3.9083596    3.9083596    3.9083596
           4.1881686    4.1881686    4.1881686    4.1881686    4.1883247
           4.1883247    4.2019028    4.2019028    4.2888892    4.2888892
           4.2888892    4.2888892    4.3599451    4.3599451    4.3601864
           4.3601864    4.3601864    4.3601864    4.3906281    4.3906281
           4.3906281    4.3906281    4.3911142    4.3911142    4.4991464
           4.4991464
       ********************************************************

------- case.scf2 --------
:GMA  : POTENTIAL AND CHARGE CUT-OFF  12.00 Ry**.5




:POS001: at.nr.   1 position = 0.00000 0.00000 0.50000  multiplicity =  1

       lmmax  5
       lm=   0 0  4 0  4 4  6 0  6 4
:FER gutzwiller fermi energy   0.58430
:EORB         -0.041699538
:SUM sum of gutz band energies         -5.806602898

:CHA001: total charge inside sphere   1 =    10.032096
:PCS001: partial charges sphere =  1 s,p,d,f,      d-eg,d-t2g 
:QTL001: 2.0298 5.3550 0.6725 1.9745 0.0000 0.0000 0.0000 0.2400 0.4325 0.0000 0.0000 0.0000

:CHA  : total charge inside unit cell =       6.500000

------- case.scfc --------

        1.ATOM      Pr                   14 CORE STATES
:1S 001: 1S               -3066.993461065 Ry
:2S 001: 2S                -492.742983347 Ry
:2PP001: 2P*               -465.842922370 Ry
:2P 001: 2P                -430.445136610 Ry
:3S 001: 3S                -105.827279163 Ry
:3PP001: 3P*                -94.365377824 Ry
:3P 001: 3P                 -87.357402681 Ry
:3DD001: 3D*                -67.285039597 Ry
:3D 001: 3D                 -65.773399090 Ry
:4S 001: 4S                 -20.512023002 Ry
:4PP001: 4P*                -16.219609642 Ry
:4P 001: 4P                 -14.693327029 Ry
:4DD001: 4D*                 -7.628466460 Ry
:4D 001: 4D                  -7.359457742 Ry

------- case.scfm --------
:CINT001 Core Integral Atom   1   45.999507

       DENSITY AT NUCLEUS
        JATOM        VALENCE       SEMI-CORE          CORE           TOTAL
:RTO001:   1      648.905983        0.000000   656823.600489   657472.506472
     
       CHARGES OF NEW CHARGE DENSITY
:NTO   : INTERSTITIAL CHARGE =     2.967947
:NPC   : PW Pseudocharge     =     7.641967
:NTO001: CHARGE SPHERE  1    =    56.031603

:NEC01: NUCLEAR AND ELECTRONIC CHARGE     59.00000    58.99955
     
       CHARGES OF OLD CHARGE DENSITY
:OTO   : INTERSTITIAL CHARGE =     2.896253
:OPC   : PW Pseudocharge     =     7.578823
:OTO001: CHARGE SPHERE  1    =    56.103747

:NEC02: NUCLEAR AND ELECTRONIC CHARGE     59.00000    59.00000
     
       CONVERGENCE TEST
:DTO001: DIFFERENCE IN SPHERE  1 =  0.1266266

:DIS  :  CHARGE DISTANCE       ( 0.1266266 for atom    1 spin 1)      0.1266266
 PW Mixed is           55
 
******************************************************
* MULTISECANT MIXING VER9 RELEASE 10.4.0              *
* Standard Mode with controls                        *
* Fixed density scale                                *
* Regularization       1.000E-04                     *
* Trust Upper Limit    5.000E+00                     *
* Max Number of Memory Steps    8                    *
******************************************************
 
:PWTMP   1.8127E+02  1.2500E+02  2.4672E+02
:PLANE:  PW TOTAL      2.9502 DISTAN   5.98E-02  2.03E+00 %
:CHARG:  CLM/ATOM    977.1792 DISTAN   1.65E-01  1.69E-02 %
 
Step History
        DMIX         DMIXT        Red     Pred      Trust     Lambda    MagRel    MagAbs     Beta
  1   3.5000E-02   3.5000E-02 -1.00E+00  1.00E+00 -1.00E+01  1.00E+00  3.50E-02  3.50E-02  1.00E+00
  2   2.5000E-02   2.5000E-02  9.78E-01  1.00E+00 -1.00E+01  1.00E+00  2.50E-02  1.12E-02  1.00E+00
  3   3.0238E-02   3.0238E-02  7.86E-01  1.00E+00 -1.00E+01  8.51E-01  3.02E-02  1.33E-02  1.00E+00
  4   7.5594E-02   3.7926E-02  9.03E-01  8.65E-01  2.44E-01  6.49E-01  2.44E-01  8.46E-02  1.00E+00
  5   1.8898E-01   1.6486E-01 -1.00E+00  3.86E-01  6.15E-01  1.00E+00  6.15E-01  1.92E-01  1.00E+00
:JACOBIANS    8.057E-01   8.156E-01
  
:NORMS:  1/Froebius, Min, Max, Used   0.9743E+00  0.5493E+00  0.9984E+00  0.9743E+00
:INFO :  Number of Memory Steps    4 Skipping    0
:INFO :  SLambda=    0.5626192112  Max    0.5626192112
:PREDicted Charge, CTotal, PW Trust    1.507E-02   1.507E-02   3.875E-02
:PREDicted DMix, Beta, BLim   7.4041E-02  1.3972E+00  1.1271E+00

Eigenvalues, unscaled except for SY+YY
   #     SY Real        SY Imag          SS             YY         SY+YY Real      SY+YY Imag
   1   3.410537E+00   0.000000E+00   3.497225E+00   3.693516E+00   5.612160E+00   0.000000E+00
   2   2.994305E-01   0.000000E+00   2.994558E-01   3.061301E-01   4.747762E-01   0.000000E+00
   3  -3.063512E-15   0.000000E+00   1.572319E-06   3.496292E-04   3.633364E-04   0.000000E+00
   4   1.029783E-05   0.000000E+00  -2.402147E-16   4.415640E-06   4.961342E-06   0.000000E+00
 
:INFO :  Singular value  5.612E+00 Weight  1.000E+00 Projection -3.503E-02
:INFO :  Singular value  4.748E-01 Weight  1.000E+00 Projection -1.131E-01
:INFO :  Singular value  3.634E-04 Weight  4.919E-01 Projection  4.015E+00
:INFO :  Singular value  4.961E-06 Weight  1.804E-04 Projection -3.864E-04
:RANK :  ACTIVE   2.49/4  =  62.30 % ; YY RANK   2.47/4  =  61.82 %
 
:BLIM :  VZERO Control Off
:TRUST:  Step 8.20E-01  Charge 7.50E-02 (e) CTO  2.50E-01 (e) PW  3.50E-01 (e)
:DIRM :  MEMORY  4/8  SCALE   1.000 RED  0.56 PRED  0.39 NEXT  0.45 
:TRAVE:  Charge 3.94E-03 (e) CTO  3.94E-03 (e) PW  1.92E-02 (e)
:DIRP :  |MSR1|= 6.151E-02 |PRATT|= 5.980E-02 ANGLE=  15.9 DEGREES
:DIRQ :  |MSR1|= 6.865E-02 |PRATT|= 1.648E-01 ANGLE=  49.1 DEGREES
:DIRT :  |MSR1|= 9.218E-02 |PRATT|= 1.753E-01 ANGLE=  47.4 DEGREES
:MIX  :   MSD1   REGULARIZATION:  3.69E-04 GREED: 0.09748  Newton 1.00  0.5258                
     
       CHARGES OF MIXED CHARGE DENSITY
:CTO   : INTERSTITIAL CHARGE =     2.896637
:CPC   : PW Pseudocharge     =     7.616764
:CTO001: CHARGE SPHERE  1    =    56.103363

:NEC03: NUCLEAR AND ELECTRONIC CHARGE     59.00000    59.00000

PW CHANGE     H    K    L      Current       Change    Residue
:PTO001:      0    0    0  4.26132368E-02  1.553E-04  5.531E-04
:PTO002:     -1   -1   -1 -1.32913221E-01 -1.191E-03 -1.175E-03
:PTO003:      0    0   -2  7.89800645E-02  9.276E-04  8.351E-04
:PTO004:      0   -2   -2  6.70927063E-02  1.647E-03  1.535E-03
:PTO005:     -1   -1   -3 -6.31619180E-02 -3.208E-03 -2.857E-03
:PTO006:     -2   -2   -2  1.62652305E-02  1.092E-03  1.033E-03
:PTO007:      0    0   -4  2.66458979E-03  7.256E-04  6.347E-04
:PTO008:     -1   -3   -3 -6.27791677E-04 -2.486E-03 -2.221E-03
:PTO009:      0   -2   -4 -2.24631841E-03  2.381E-03  2.062E-03
:PTO010:     -2   -2   -4 -6.80041386E-03  2.115E-03  1.936E-03
:PTO011:     -3   -3   -3  2.44550592E-03 -6.489E-04 -6.280E-04
:PTO012:     -1   -1   -5  7.78100962E-03 -1.843E-03 -1.637E-03

:ENE  : ********** TOTAL ENERGY IN Ry =       -18472.12362893


------- case.scf0 --------
 Flat Integration
 New Mode for Coulomb Integral
 Consistent 3/8+Simpson combinations
 Extension of core to zero
 LDM version in phi
 Fifth-order quadrature in outwin


            ---------
:ITE028: 28. ITERATION
            ---------

:NATO :    1 INDEPENDENT AND    1 TOTAL ATOMS IN UNITCELL
       SUBSTANCE: blebleble                                                   

       LATTICE                      = F   
:POT  : POTENTIAL OPTION EX_LDA EC_LDA VX_LDA VC_LDA
:LAT  : LATTICE CONSTANTS=  9.95603  9.95603  9.95603    1.571    1.571    1.571
:VOL  : UNIT CELL VOLUME =     246.71680
       MODE OF CALCULATION IS       = RELA
       NON-SPINPOLARIZED CALCULATION
:IFFT  : FFT-parameters:   80   80   80 Factor: 2.00


   CONVERGENCE PARAMETER FOR PSEUDOCHARGE: NCON=  9
   MAXIMAL VALUE OF RMT(JATOM)*ABSK(NKK) : RK  =29.93539


:VKCOUL :  VK-COUL convergence: 0.555E-07
       ATOMNUMBER=  1 Pr         VCOUL-ZERO =  0.22163E+00
:FIT001: LUSE= 13 SIGMA OF V-XC FIT FOR ATOM  1  0.1455192E-04
:FIT001: LUSE= 13 SIGMA OF V-XC FIT FOR ATOM  1  0.1455192E-04
:DEN  : DENSITY INTEGRAL  =         -7072.58859961   (Ry)
       ELS_POTENTIAL_AT Z=0 and Z=0.5:  -2.45517  -2.45517
       ELS_POTENTIAL_AT Y=0 and Y=0.5:   0.00000   0.00000
:VZERO:v0,v0c,v0x  -3.42554  -2.45517  -0.97037 v5,v5c,v5x  -3.42554  -2.45517  -0.97037
:VZERY:v0,v0c,v0x  -0.70376   0.00000  -0.70376 v5,v5c,v5x  -0.70376   0.00000  -0.70376
:VZERX:v0,v0c,v0x  -0.70376   0.00000  -0.70376 v5,v5c,v5x  -0.70376   0.00000  -0.70376

------- case.scf1 --------
:LMAX-WF:   10   Non-Spherical LMAX:   4

          ATOMIC SPHERE DEPENDENT PARAMETERS FOR ATOM  Pr        
:e__0001: OVERALL ENERGY PARAMETER IS    0.3613
          OVERALL BASIS SET ON ATOM IS LAPW
:E0_0001: E( 0)=    0.3613
             APW+lo
:E0_0001: E( 0)=   -2.0991   E(BOTTOM)=   -2.483   E(TOP)=   -1.716  4  5   177
             LOCAL ORBITAL
:E1_0001: E( 1)=    0.7613
             APW+lo
:E1_0001: E( 1)=   -0.7136   E(BOTTOM)=   -1.363   E(TOP)=   -0.064  3  4   170
             LOCAL ORBITAL
:E3_0001: E( 3)=    0.5843   E(BOTTOM)=    0.439   E(TOP)=    0.729  0  1   119
             APW+lo
:E2_0001: E( 2)=    0.3613   E(BOTTOM)=    0.209   E(TOP)= -200.000  2 -1    89
             APW+lo

       K=   0.00000   0.00000   0.00000            1
:RKM  : MATRIX SIZE   189LOs:  20  RKM= 8.20  WEIGHT= 1.00  PGR:    
       EIGENVALUES ARE:
:EIG00001:      -2.0597821   -0.6967417   -0.6967417   -0.6967417    0.3099816
:EIG00006:       0.5789027    0.5983072    0.5983072    0.5983072    0.6241350
:EIG00011:       0.6241350    0.6241350    0.6945590    0.6945590    0.6945590
:EIG00016:       0.8645932    0.8645932    1.2634827    1.4863489    1.4863489
:EIG00021:       1.4863489    1.5873851    2.2639306    2.2639306    2.2639306
:EIG00026:       2.3429191    2.3429191    2.3429191    2.5469976    2.5469976
:EIG00031:       2.9100841    3.0694195    3.0694195    3.0694195    3.5058371
:EIG00036:       3.5058371    3.7378045    3.7378045    3.7378045    3.7843736
:EIG00041:       3.7843736    3.7843736    3.9078089    3.9078089    3.9078089
:EIG00046:       4.1876545    4.1876545    4.1876545    4.2012973    4.2883504
 
:EIG00051:       4.2883504    4.3595166    4.3595166    4.3595166    4.3903333
:EIG00056:       4.3903333    4.3903333    4.4986712    4.5104712    4.6342733
:EIG00061:       4.6342733    4.6342733    4.7593691    4.7593691    4.7593691
:EIG00066:       5.0158538    6.0116481    6.0173138    6.0173138    6.3544001
:EIG00071:       6.3544001    6.3544001    6.8336886    6.8336886    7.0130978
:EIG00076:       7.0130978    7.0130978    7.0649445    7.0649445    7.0649445
:EIG00081:       7.3240861    7.3240861    7.3240861    7.3462268    7.3462268
:EIG00086:       7.4168519    7.4168519    7.4168519    7.4370437    7.4370437
:EIG00091:       7.4370437    7.5382071    7.5382071    7.5382071    7.5398173
:EIG00096:       7.5398173    7.5398173    7.6316466    7.6877936    7.7921450
 
:EIG00101:       7.7921450    7.8173266    7.8173266    7.8173266    7.8255550
:EIG00106:       7.8255550    7.8255550    7.8592017    7.8592017    7.8592017
:EIG00111:       7.9645622    7.9645622
       ********************************************************

:KPT   :      NUMBER OF K-POINTS:   165

------- case.scfso --------
   0.0   0.0 angle (M,z), angle (M,x) deg
 
        SPIN-ORBIT EIGENVALUES:
     K=   0.00000   0.00000   0.00000            1
      MATRIX SIZE=  224   WEIGHT= 1.00
     EIGENVALUES ARE:
          -2.0597821   -2.0597821   -0.8434048   -0.8434048   -0.6280917
          -0.6280917   -0.6280917   -0.6280917    0.3099816    0.3099816
           0.5749182    0.5749182    0.5878218    0.5878218    0.5878218
           0.5878218    0.6097989    0.6097989    0.6238906    0.6238906
           0.6308893    0.6308893    0.6308893    0.6308893    0.6908352
           0.6908352    0.6908352    0.6908352    0.7008773    0.7008773
           0.8649611    0.8649611    0.8649611    0.8649611    1.2635425
           1.2635425    1.4815614    1.4815614    1.4885428    1.4885428

           1.4885428    1.4885428    1.5873851    1.5873851    2.2589593
           2.2589593    2.2589593    2.2589593    2.2709044    2.2709044
           2.2733628    2.2733628    2.3797416    2.3797416    2.3797416
           2.3797416    2.5472855    2.5472855    2.5472855    2.5472855
           2.9100841    2.9100841    3.0689828    3.0689828    3.0696511
           3.0696511    3.0696511    3.0696511    3.5058088    3.5058088
           3.5058088    3.5058088    3.7364476    3.7364476    3.7364476
           3.7364476    3.7407800    3.7407800    3.7525599    3.7525599

           3.8017790    3.8017790    3.8017790    3.8017790    3.9078005
           3.9078005    3.9078130    3.9078130    3.9078130    3.9078130
           4.1876046    4.1876046    4.1876046    4.1876046    4.1877607
           4.1877607    4.2012973    4.2012973    4.2883504    4.2883504
           4.2883504    4.2883504    4.3593504    4.3593504    4.3595915
           4.3595915    4.3595915    4.3595915    4.3901861    4.3901861
           4.3901861    4.3901861    4.3906716    4.3906716    4.4986751
           4.4986751
       ********************************************************

------- case.scf2 --------
:GMA  : POTENTIAL AND CHARGE CUT-OFF  12.00 Ry**.5




:POS001: at.nr.   1 position = 0.00000 0.00000 0.50000  multiplicity =  1

       lmmax  5
       lm=   0 0  4 0  4 4  6 0  6 4
:FER gutzwiller fermi energy   0.58403
:EORB         -0.045786340
:SUM sum of gutz band energies         -5.816832545

:CHA001: total charge inside sphere   1 =    10.030126
:PCS001: partial charges sphere =  1 s,p,d,f,      d-eg,d-t2g 
:QTL001: 2.0299 5.3557 0.6744 1.9698 0.0000 0.0000 0.0000 0.2405 0.4340 0.0000 0.0000 0.0000

:CHA  : total charge inside unit cell =       6.500000

------- case.scfc --------

        1.ATOM      Pr                   14 CORE STATES
:1S 001: 1S               -3067.002632120 Ry
:2S 001: 2S                -492.750879241 Ry
:2PP001: 2P*               -465.851097845 Ry
:2P 001: 2P                -430.453207096 Ry
:3S 001: 3S                -105.832708792 Ry
:3PP001: 3P*                -94.370944198 Ry
:3P 001: 3P                 -87.362828498 Ry
:3DD001: 3D*                -67.290830922 Ry
:3D 001: 3D                 -65.779141717 Ry
:4S 001: 4S                 -20.514861068 Ry
:4PP001: 4P*                -16.222391856 Ry
:4P 001: 4P                 -14.695985099 Ry
:4DD001: 4D*                 -7.630977568 Ry
:4D 001: 4D                  -7.361931632 Ry

------- case.scfm --------
:CINT001 Core Integral Atom   1   45.999508

       DENSITY AT NUCLEUS
        JATOM        VALENCE       SEMI-CORE          CORE           TOTAL
:RTO001:   1      649.011160        0.000000   656824.338339   657473.349499
     
       CHARGES OF NEW CHARGE DENSITY
:NTO   : INTERSTITIAL CHARGE =     2.969830
:NPC   : PW Pseudocharge     =     7.642750
:NTO001: CHARGE SPHERE  1    =    56.029633

:NEC01: NUCLEAR AND ELECTRONIC CHARGE     59.00000    58.99946
     
       CHARGES OF OLD CHARGE DENSITY
:OTO   : INTERSTITIAL CHARGE =     2.896637
:OPC   : PW Pseudocharge     =     7.616764
:OTO001: CHARGE SPHERE  1    =    56.103363

:NEC02: NUCLEAR AND ELECTRONIC CHARGE     59.00000    59.00000
     
       CONVERGENCE TEST
:DTO001: DIFFERENCE IN SPHERE  1 =  0.1275090

:DIS  :  CHARGE DISTANCE       ( 0.1275090 for atom    1 spin 1)      0.1275090
 PW Mixed is           55
 
******************************************************
* MULTISECANT MIXING VER9 RELEASE 10.4.0              *
* Standard Mode with controls                        *
* Fixed density scale                                *
* Regularization       1.000E-04                     *
* Trust Upper Limit    5.000E+00                     *
* Max Number of Memory Steps    8                    *
******************************************************
 
:PWTMP   1.8127E+02  1.2500E+02  2.4672E+02
:PLANE:  PW TOTAL      2.9792 DISTAN   1.73E-02  5.81E-01 %
:CHARG:  CLM/ATOM    977.1743 DISTAN   1.33E-01  1.37E-02 %
 
Step History
        DMIX         DMIXT        Red     Pred      Trust     Lambda    MagRel    MagAbs     Beta
  1   3.5000E-02   3.5000E-02 -1.00E+00  1.00E+00 -1.00E+01  1.00E+00  3.50E-02  3.50E-02  1.00E+00
  2   2.5000E-02   2.5000E-02  9.78E-01  1.00E+00 -1.00E+01  1.00E+00  2.50E-02  1.12E-02  1.00E+00
  3   3.0238E-02   3.0238E-02  7.86E-01  1.00E+00 -1.00E+01  8.51E-01  3.02E-02  1.33E-02  1.00E+00
  4   7.5594E-02   3.7926E-02  9.03E-01  8.65E-01  2.44E-01  6.49E-01  2.44E-01  8.46E-02  1.00E+00
  5   1.8898E-01   1.6486E-01  5.61E-01  3.86E-01  6.15E-01  5.63E-01  6.15E-01  1.92E-01  1.00E+00
  6   9.7481E-02   9.7481E-02 -1.00E+00  4.48E-01  8.20E-01  1.00E+00  5.26E-01  9.22E-02  1.00E+00
:JACOBIANS    9.031E-01   1.088E+00
  
:NORMS:  1/Froebius, Min, Max, Used   0.9955E+00  0.4620E+00  0.1005E+01  0.1005E+01
:INFO :  Number of Memory Steps    5 Skipping    0
:INFO :  SLambda=    0.4844111951  Max    0.4844111951
:PREDicted Charge, CTotal, PW Trust    2.705E-02   2.705E-02   3.629E-02
:PREDicted DMix, Beta, BLim   3.3060E-01  1.1967E+00  9.7817E-01

Eigenvalues, unscaled except for SY+YY
   #     SY Real        SY Imag          SS             YY         SY+YY Real      SY+YY Imag
   1   4.395146E+00   0.000000E+00   4.520138E+00   4.478667E+00   6.607173E+00   0.000000E+00
   2   4.438207E-01   0.000000E+00   4.326327E-01   5.096351E-01   7.248063E-01   0.000000E+00
   3   4.875357E-03   0.000000E+00   2.066210E-03   1.163993E-02   1.438014E-02   0.000000E+00
   4   6.548730E-15   0.000000E+00   1.601640E-07   5.731349E-05   5.074459E-05   0.000000E+00
   5  -3.519492E-07   0.000000E+00   7.322007E-17   1.042480E-06   1.155925E-06   0.000000E+00
 
:INFO :  Singular value  6.607E+00 Weight  1.000E+00 Projection -3.860E-03
:INFO :  Singular value  7.248E-01 Weight  1.000E+00 Projection -3.366E-02
:INFO :  Singular value  1.438E-02 Weight  9.990E-01 Projection  1.050E+00
:INFO :  Singular value  5.076E-05 Weight  1.268E-02 Projection  1.182E-01
:INFO :  Singular value  1.155E-06 Weight  6.654E-06 Projection -2.816E-05
:RANK :  ACTIVE   3.01/5  =  60.23 % ; YY RANK   3.01/5  =  60.29 %
 
:BLIM :  VZERO Control Off
:TRUST:  Step 1.07E+00  Charge 6.00E-02 (e) CTO  2.00E-01 (e) PW  2.80E-01 (e)
:DIRM :  MEMORY  5/8  SCALE   1.000 RED  0.77 PRED  0.45 NEXT  0.52 
:TRAVE:  Charge 1.67E-02 (e) CTO  1.67E-02 (e) PW  1.92E-02 (e)
:DIRP :  |MSR1|= 9.464E-03 |PRATT|= 1.732E-02 ANGLE=  30.3 DEGREES
:DIRQ :  |MSR1|= 5.782E-02 |PRATT|= 1.334E-01 ANGLE=  13.7 DEGREES
:DIRT :  |MSR1|= 5.859E-02 |PRATT|= 1.345E-01 ANGLE=  14.4 DEGREES
:MIX  :   MSD1   REGULARIZATION:  4.48E-04 GREED: 0.21990  Newton 1.00  0.4355                
     
       CHARGES OF MIXED CHARGE DENSITY
:CTO   : INTERSTITIAL CHARGE =     2.926136
:CPC   : PW Pseudocharge     =     7.625257
:CTO001: CHARGE SPHERE  1    =    56.073864

:NEC03: NUCLEAR AND ELECTRONIC CHARGE     59.00000    59.00000

PW CHANGE     H    K    L      Current       Change    Residue
:PTO001:      0    0    0  4.27672258E-02  1.540E-04  4.098E-04
:PTO002:     -1   -1   -1 -1.32828391E-01  8.483E-05  2.955E-06
:PTO003:      0    0   -2  7.88745005E-02 -1.056E-04 -9.589E-05
:PTO004:      0   -2   -2  6.69161569E-02 -1.765E-04 -1.010E-04
:PTO005:     -1   -1   -3 -6.27728116E-02  3.891E-04  3.429E-04
:PTO006:     -2   -2   -2  1.61775260E-02 -8.770E-05 -4.925E-05
:PTO007:      0    0   -4  2.57284907E-03 -9.174E-05 -9.248E-05
:PTO008:     -1   -3   -3 -3.01102922E-04  3.267E-04  2.662E-04
:PTO009:      0   -2   -4 -2.59705847E-03 -3.507E-04 -3.273E-04
:PTO010:     -2   -2   -4 -7.04106769E-03 -2.407E-04 -1.820E-04
:PTO011:     -3   -3   -3  2.49494162E-03  4.944E-05  1.990E-05
:PTO012:     -1   -1   -5  8.01465153E-03  2.336E-04  2.146E-04

:ENE  : ********** TOTAL ENERGY IN Ry =       -18472.12400556


------- case.scf0 --------
 Flat Integration
 New Mode for Coulomb Integral
 Consistent 3/8+Simpson combinations
 Extension of core to zero
 LDM version in phi
 Fifth-order quadrature in outwin


            ---------
:ITE029: 29. ITERATION
            ---------

:NATO :    1 INDEPENDENT AND    1 TOTAL ATOMS IN UNITCELL
       SUBSTANCE: blebleble                                                   

       LATTICE                      = F   
:POT  : POTENTIAL OPTION EX_LDA EC_LDA VX_LDA VC_LDA
:LAT  : LATTICE CONSTANTS=  9.95603  9.95603  9.95603    1.571    1.571    1.571
:VOL  : UNIT CELL VOLUME =     246.71680
       MODE OF CALCULATION IS       = RELA
       NON-SPINPOLARIZED CALCULATION
:IFFT  : FFT-parameters:   80   80   80 Factor: 2.00


   CONVERGENCE PARAMETER FOR PSEUDOCHARGE: NCON=  9
   MAXIMAL VALUE OF RMT(JATOM)*ABSK(NKK) : RK  =29.93539


:VKCOUL :  VK-COUL convergence: 0.575E-07
       ATOMNUMBER=  1 Pr         VCOUL-ZERO =  0.22182E+00
:FIT001: LUSE= 13 SIGMA OF V-XC FIT FOR ATOM  1  0.1478076E-04
:FIT001: LUSE= 13 SIGMA OF V-XC FIT FOR ATOM  1  0.1478076E-04
:DEN  : DENSITY INTEGRAL  =         -7069.60507585   (Ry)
       ELS_POTENTIAL_AT Z=0 and Z=0.5:  -2.47062  -2.47062
       ELS_POTENTIAL_AT Y=0 and Y=0.5:   0.00000   0.00000
:VZERO:v0,v0c,v0x  -3.44156  -2.47062  -0.97094 v5,v5c,v5x  -3.44156  -2.47062  -0.97094
:VZERY:v0,v0c,v0x  -0.70531   0.00000  -0.70531 v5,v5c,v5x  -0.70531   0.00000  -0.70531
:VZERX:v0,v0c,v0x  -0.70531   0.00000  -0.70531 v5,v5c,v5x  -0.70531   0.00000  -0.70531

------- case.scf1 --------
:LMAX-WF:   10   Non-Spherical LMAX:   4

          ATOMIC SPHERE DEPENDENT PARAMETERS FOR ATOM  Pr        
:e__0001: OVERALL ENERGY PARAMETER IS    0.3613
          OVERALL BASIS SET ON ATOM IS LAPW
:E0_0001: E( 0)=    0.3613
             APW+lo
:E0_0001: E( 0)=   -2.1208   E(BOTTOM)=   -2.501   E(TOP)=   -1.741  4  5   174
             LOCAL ORBITAL
:E1_0001: E( 1)=    0.7613
             APW+lo
:E1_0001: E( 1)=   -0.7320   E(BOTTOM)=   -1.377   E(TOP)=   -0.087  3  4   167
             LOCAL ORBITAL
:E3_0001: E( 3)=    0.5462   E(BOTTOM)=    0.406   E(TOP)=    0.687  0  1   115
             APW+lo
:E2_0001: E( 2)=    0.3613   E(BOTTOM)=    0.199   E(TOP)= -200.000  2 -1    89
             APW+lo

       K=   0.00000   0.00000   0.00000            1
:RKM  : MATRIX SIZE   189LOs:  20  RKM= 8.20  WEIGHT= 1.00  PGR:    
       EIGENVALUES ARE:
:EIG00001:      -2.0809602   -0.7135676   -0.7135676   -0.7135676    0.3094702
:EIG00006:       0.5442605    0.5613938    0.5613938    0.5613938    0.5848800
:EIG00011:       0.5848800    0.5848800    0.6897081    0.6897081    0.6897081
:EIG00016:       0.8575682    0.8575682    1.2593817    1.4844786    1.4844786
:EIG00021:       1.4844786    1.5906159    2.2572019    2.2572019    2.2572019
:EIG00026:       2.3378455    2.3378455    2.3378455    2.5428001    2.5428001
:EIG00031:       2.9073871    3.0683300    3.0683300    3.0683300    3.5023629
:EIG00036:       3.5023629    3.7353263    3.7353263    3.7353263    3.7839096
:EIG00041:       3.7839096    3.7839096    3.9064753    3.9064753    3.9064753
:EIG00046:       4.1886817    4.1886817    4.1886817    4.1992262    4.2900365
 
:EIG00051:       4.2900365    4.3607102    4.3607102    4.3607102    4.3918109
:EIG00056:       4.3918109    4.3918109    4.5013941    4.5094155    4.6368107
:EIG00061:       4.6368107    4.6368107    4.7614299    4.7614299    4.7614299
:EIG00066:       5.0183544    6.0109462    6.0164089    6.0164089    6.3546114
:EIG00071:       6.3546114    6.3546114    6.8275237    6.8275237    7.0082280
:EIG00076:       7.0082280    7.0082280    7.0606883    7.0606883    7.0606883
:EIG00081:       7.3240145    7.3240145    7.3240145    7.3469608    7.3469608
:EIG00086:       7.4143242    7.4143242    7.4143242    7.4370694    7.4370694
:EIG00091:       7.4370694    7.5373568    7.5373568    7.5373568    7.5397286
:EIG00096:       7.5397286    7.5397286    7.6326812    7.6883275    7.7925325
 
:EIG00101:       7.7925325    7.8187445    7.8187445    7.8187445    7.8280862
:EIG00106:       7.8280862    7.8280862    7.8603432    7.8603432    7.8603432
:EIG00111:       7.9646717    7.9646717
       ********************************************************

:KPT   :      NUMBER OF K-POINTS:   165

------- case.scfso --------
   0.0   0.0 angle (M,z), angle (M,x) deg
 
        SPIN-ORBIT EIGENVALUES:
     K=   0.00000   0.00000   0.00000            1
      MATRIX SIZE=  224   WEIGHT= 1.00
     EIGENVALUES ARE:
          -2.0809602   -2.0809602   -0.8612174   -0.8612174   -0.6444397
          -0.6444397   -0.6444397   -0.6444397    0.3094702    0.3094702
           0.5397030    0.5397030    0.5504135    0.5504135    0.5504135
           0.5504135    0.5731161    0.5731161    0.5851717    0.5851717
           0.5920410    0.5920410    0.5920410    0.5920410    0.6859132
           0.6859132    0.6859132    0.6859132    0.6961262    0.6961262
           0.8579542    0.8579542    0.8579542    0.8579542    1.2594341
           1.2594341    1.4795566    1.4795566    1.4867334    1.4867334

           1.4867334    1.4867334    1.5906159    1.5906159    2.2522196
           2.2522196    2.2522196    2.2522196    2.2657540    2.2657540
           2.2666609    2.2666609    2.3747280    2.3747280    2.3747280
           2.3747280    2.5430886    2.5430886    2.5430886    2.5430886
           2.9073871    2.9073871    3.0679047    3.0679047    3.0685554
           3.0685554    3.0685554    3.0685554    3.5023359    3.5023359
           3.5023359    3.5023359    3.7339773    3.7339773    3.7339773
           3.7339773    3.7382832    3.7382832    3.7522803    3.7522803

           3.8012129    3.8012129    3.8012129    3.8012129    3.9064668
           3.9064668    3.9064795    3.9064795    3.9064795    3.9064795
           4.1886310    4.1886310    4.1886310    4.1886310    4.1887893
           4.1887893    4.1992262    4.1992262    4.2900365    4.2900365
           4.2900365    4.2900365    4.3605482    4.3605482    4.3607835
           4.3607835    4.3607835    4.3607835    4.3916670    4.3916670
           4.3916670    4.3916670    4.3921411    4.3921411
       ********************************************************

------- case.scf2 --------
:GMA  : POTENTIAL AND CHARGE CUT-OFF  12.00 Ry**.5




:POS001: at.nr.   1 position = 0.00000 0.00000 0.50000  multiplicity =  1

       lmmax  5
       lm=   0 0  4 0  4 4  6 0  6 4
:FER gutzwiller fermi energy   0.57894
:EORB         -0.114792432
:SUM sum of gutz band energies         -5.974015399

:CHA001: total charge inside sphere   1 =    10.078973
:PCS001: partial charges sphere =  1 s,p,d,f,      d-eg,d-t2g 
:QTL001: 2.0308 5.3656 0.6733 2.0089 0.0000 0.0000 0.0000 0.2400 0.4333 0.0000 0.0000 0.0000

:CHA  : total charge inside unit cell =       6.500000

------- case.scfc --------

        1.ATOM      Pr                   14 CORE STATES
:1S 001: 1S               -3067.066026395 Ry
:2S 001: 2S                -492.815852161 Ry
:2PP001: 2P*               -465.915721066 Ry
:2P 001: 2P                -430.517959152 Ry
:3S 001: 3S                -105.898871982 Ry
:3PP001: 3P*                -94.437104624 Ry
:3P 001: 3P                 -87.428868758 Ry
:3DD001: 3D*                -67.356970144 Ry
:3D 001: 3D                 -65.845267217 Ry
:4S 001: 4S                 -20.569350918 Ry
:4PP001: 4P*                -16.276032415 Ry
:4P 001: 4P                 -14.748352028 Ry
:4DD001: 4D*                 -7.680995558 Ry
:4D 001: 4D                  -7.411507784 Ry

------- case.scfm --------
:CINT001 Core Integral Atom   1   45.999521

       DENSITY AT NUCLEUS
        JATOM        VALENCE       SEMI-CORE          CORE           TOTAL
:RTO001:   1      651.911347        0.000000   656826.511574   657478.422921
     
       CHARGES OF NEW CHARGE DENSITY
:NTO   : INTERSTITIAL CHARGE =     2.921112
[...]
:PLANE:  PW TOTAL      2.9837 DISTAN   8.60E-04  2.88E-02 %
:CHARG:  CLM/ATOM    977.1939 DISTAN   8.45E-04  8.65E-05 %
 
Step History
        DMIX         DMIXT        Red     Pred      Trust     Lambda    MagRel    MagAbs     Beta
 33   3.3874E-02   3.3874E-02  1.00E+00  3.11E-01  3.50E-02  7.03E-02  3.73E-03  6.29E-05  6.89E-01
 34   2.3158E-02   2.3158E-02  1.02E+00  4.28E-01  2.20E-02  7.10E-02  3.42E-03  5.79E-05  5.72E-01
 35   2.0862E-02   2.0862E-02  1.03E+00  2.84E-01  2.05E-02  2.05E-01  1.19E-02  2.04E-04  7.16E-01
 36   4.0816E-02   2.7143E-02  1.09E+00  1.06E-01  4.30E-02  2.24E-01  3.92E-02  6.94E-04  8.95E-01
 37   2.7959E-02   2.5451E-02  9.32E-01  2.85E-01  1.52E-01  1.45E-01  4.10E-02  7.90E-04  7.16E-01
 38   6.9896E-02   6.9896E-02  9.79E-01  1.75E-01  1.94E-01  1.39E-01  1.13E-02  2.02E-04  8.25E-01
 39   2.7959E-02   2.7959E-02  9.65E-01  7.18E-03  1.54E-01  1.96E-01  2.28E-02  4.01E-04  1.00E+00
 40   6.9896E-02   6.9896E-02  9.78E-01  4.98E-03  1.34E-01  9.66E-02  1.23E-02  2.09E-04  1.00E+00
 41   6.5677E-02   6.4574E-02  8.72E-01  5.71E-03  1.23E-01  6.95E-02  5.86E-02  9.73E-04  1.00E+00
 42   3.3655E-02   2.0168E-02  8.12E-01  2.52E-02  2.91E-01  9.52E-02  9.75E-02  1.41E-03  1.00E+00
 43   3.4152E-02   1.4494E-02  5.58E-01  2.37E-01  3.81E-01  6.04E-02  2.37E-01  2.78E-03  1.00E+00
 44   8.5381E-02   6.1233E-02 -1.00E+00  2.63E-01  4.77E-01  1.00E+00  4.55E-01  2.99E-03  1.00E+00
:JACOBIANS    3.580E-01   1.471E+00
  
:NORMS:  1/Froebius, Min, Max, Used   0.4884E+00  0.4875E+00  0.9605E+00  0.5025E+00
:INFO :  Number of Memory Steps   11 Skipping   32
:INFO :  SLambda=    0.1532702907  Max    0.5631305333
:PREDicted Charge, CTotal, PW Trust    1.824E-03   1.824E-03   1.109E-03
:PREDicted DMix, Beta, BLim   1.5186E-02  1.0350E+00  6.5245E-01

Eigenvalues, unscaled except for SY+YY
   #     SY Real        SY Imag          SS             YY         SY+YY Real      SY+YY Imag
   1   4.333052E+00   0.000000E+00   2.610269E+00   1.098441E+01   1.164861E+01   0.000000E+00
   2   1.431181E-02   0.000000E+00   1.346476E-02   1.540179E-02   1.753301E-02   0.000000E+00
   3   2.073868E-05   0.000000E+00   2.110577E-05   8.698489E-05   8.688075E-05   0.000000E+00
   4   4.700304E-06   3.494484E-06   7.430186E-06   6.927798E-05   7.035845E-05   0.000000E+00
   5   4.700304E-06  -3.494484E-06   2.122760E-06   1.868370E-05   1.748399E-05   0.000000E+00
   6   2.953043E-06   0.000000E+00   1.129227E-06   7.814679E-06   8.623158E-06   0.000000E+00
   7  -5.572807E-07   0.000000E+00   1.128589E-07   1.750336E-06   1.535333E-06   0.000000E+00
   8   1.542925E-07   0.000000E+00   3.298417E-08   1.236111E-06   9.634297E-07   0.000000E+00
   9   3.512267E-08   0.000000E+00   1.570313E-08   6.846630E-07   6.468988E-07   0.000000E+00
  10  -3.347920E-08   0.000000E+00   2.620107E-10   1.900984E-07   2.743025E-08   9.998475E-11
  11   1.340818E-10   0.000000E+00   1.202445E-10   1.322527E-08   2.743025E-08  -9.998475E-11
 
:INFO :  Singular value  1.165E+01 Weight  1.000E+00 Projection  1.863E-05
:INFO :  Singular value  1.753E-02 Weight  9.961E-01 Projection -8.769E-03
:INFO :  Singular value  8.691E-05 Weight  6.221E-03 Projection -1.826E-04
:INFO :  Singular value  7.048E-05 Weight  4.100E-03 Projection  6.461E-05
:INFO :  Singular value  1.794E-05 Weight  2.667E-04 Projection  1.966E-05
:INFO :  Singular value  8.633E-06 Weight  6.177E-05 Projection  1.968E-06
:INFO :  Singular value  1.697E-06 Weight  2.386E-06 Projection -9.754E-08
:INFO :  Singular value  9.242E-07 Weight  7.080E-07 Projection -9.114E-10
:INFO :  Singular value  6.295E-07 Weight  3.285E-07 Projection -1.657E-08
:INFO :  Singular value  4.041E-08 Weight  1.353E-09 Projection  3.458E-09
:INFO :  Singular value  1.753E-08 Weight  2.548E-10 Projection  3.761E-10
:RANK :  ACTIVE   2.01/11 =  18.24 % ; YY RANK   2.01/11 =  18.23 %
 
Increasing Charge by   1.667
:BLIM :  VZERO Control Off
:TRUST:  Step 6.35E-01  Charge 2.53E-03 (e) CTO  3.03E-03 (e) PW  3.50E-03 (e)
:DTRUS:  Lambda    7.673E-02 Increment    7.276E-12 Iterations    96 DMIX    3.652E-02
:INFOA:  Angle SubSpace to MSR1      1.17
:DIRM :  MEMORY 11/8  SCALE   1.000 RED  0.18 PRED  0.26 NEXT  0.48 
:INFO :  Limited by Atoms F by Step T

:TRAVE:  Charge 6.47E-04 (e) CTO  6.47E-04 (e) PW  4.11E-04 (e)
:DIRP :  |MSR1|= 4.879E-04 |PRATT|= 8.596E-04 ANGLE=  11.5 DEGREES
:DIRQ :  |MSR1|= 5.905E-04 |PRATT|= 8.450E-04 ANGLE=  33.5 DEGREES
:DIRT :  |MSR1|= 7.660E-04 |PRATT|= 1.205E-03 ANGLE=  26.4 DEGREES
:MIX  :   MSD1   REGULARIZATION:  1.10E-03 GREED: 0.03907  LMStep 0.74  0.6354 Step           
     
       CHARGES OF MIXED CHARGE DENSITY
:CTO   : INTERSTITIAL CHARGE =     2.933180
:CPC   : PW Pseudocharge     =     7.628234
:CTO001: CHARGE SPHERE  1    =    56.066820

:NEC03: NUCLEAR AND ELECTRONIC CHARGE     59.00000    59.00000

PW CHANGE     H    K    L      Current       Change    Residue
:PTO001:      0    0    0  4.28078448E-02  3.541E-07 -1.520E-06
:PTO002:     -1   -1   -1 -1.32952427E-01  1.134E-05  2.639E-05
:PTO003:      0    0   -2  7.88826343E-02 -1.366E-06 -8.633E-06
:PTO004:      0   -2   -2  6.71205604E-02 -1.785E-05 -3.035E-05
:PTO005:     -1   -1   -3 -6.31281598E-02  2.356E-05  4.154E-05
:PTO006:     -2   -2   -2  1.63264417E-02 -1.176E-05 -1.817E-05
:PTO007:      0    0   -4  2.61117386E-03 -3.736E-06 -7.046E-06
:PTO008:     -1   -3   -3 -4.69828079E-04  2.036E-05  3.252E-05
:PTO009:      0   -2   -4 -2.49718735E-03 -1.576E-05 -2.621E-05
:PTO010:     -2   -2   -4 -6.95739807E-03 -1.740E-05 -2.762E-05
:PTO011:     -3   -3   -3  2.46382408E-03  6.145E-06  9.588E-06
:PTO012:     -1   -1   -5  8.01123337E-03  1.094E-05  1.824E-05

:ENE  : ********** TOTAL ENERGY IN Ry =       -18472.12535766


------- case.scf0 --------
 Flat Integration
 New Mode for Coulomb Integral
 Consistent 3/8+Simpson combinations
 Extension of core to zero
 LDM version in phi
 Fifth-order quadrature in outwin


            ---------
:ITE067: 67. ITERATION
            ---------

:NATO :    1 INDEPENDENT AND    1 TOTAL ATOMS IN UNITCELL
       SUBSTANCE: blebleble                                                   

       LATTICE                      = F   
:POT  : POTENTIAL OPTION EX_LDA EC_LDA VX_LDA VC_LDA
:LAT  : LATTICE CONSTANTS=  9.95603  9.95603  9.95603    1.571    1.571    1.571
:VOL  : UNIT CELL VOLUME =     246.71680
       MODE OF CALCULATION IS       = RELA
       NON-SPINPOLARIZED CALCULATION
:IFFT  : FFT-parameters:   80   80   80 Factor: 2.00


   CONVERGENCE PARAMETER FOR PSEUDOCHARGE: NCON=  9
   MAXIMAL VALUE OF RMT(JATOM)*ABSK(NKK) : RK  =29.93539


:VKCOUL :  VK-COUL convergence: 0.579E-07
       ATOMNUMBER=  1 Pr         VCOUL-ZERO =  0.22153E+00
:FIT001: LUSE= 13 SIGMA OF V-XC FIT FOR ATOM  1  0.1611396E-04
:FIT001: LUSE= 13 SIGMA OF V-XC FIT FOR ATOM  1  0.1611396E-04
:DEN  : DENSITY INTEGRAL  =         -7069.54007987   (Ry)
       ELS_POTENTIAL_AT Z=0 and Z=0.5:  -2.47394  -2.47394
       ELS_POTENTIAL_AT Y=0 and Y=0.5:   0.00000   0.00000
:VZERO:v0,v0c,v0x  -3.44440  -2.47394  -0.97046 v5,v5c,v5x  -3.44440  -2.47394  -0.97046
:VZERY:v0,v0c,v0x  -0.70564   0.00000  -0.70564 v5,v5c,v5x  -0.70564   0.00000  -0.70564
:VZERX:v0,v0c,v0x  -0.70564   0.00000  -0.70564 v5,v5c,v5x  -0.70564   0.00000  -0.70564

------- case.scf1 --------
:LMAX-WF:   10   Non-Spherical LMAX:   4

          ATOMIC SPHERE DEPENDENT PARAMETERS FOR ATOM  Pr        
:e__0001: OVERALL ENERGY PARAMETER IS    0.3613
          OVERALL BASIS SET ON ATOM IS LAPW
:E0_0001: E( 0)=    0.3613
             APW+lo
:E0_0001: E( 0)=   -2.1248   E(BOTTOM)=   -2.504   E(TOP)=   -1.745  4  5   167
             LOCAL ORBITAL
:E1_0001: E( 1)=    0.7613
             APW+lo
:E1_0001: E( 1)=   -0.7353   E(BOTTOM)=   -1.380   E(TOP)=   -0.091  3  4   163
             LOCAL ORBITAL
:E3_0001: E( 3)=    0.5397   E(BOTTOM)=    0.400   E(TOP)=    0.680  0  1   117
             APW+lo
:E2_0001: E( 2)=    0.3613   E(BOTTOM)=    0.197   E(TOP)= -200.000  2 -1    94
             APW+lo

       K=   0.00000   0.00000   0.00000            1
:RKM  : MATRIX SIZE   189LOs:  20  RKM= 8.20  WEIGHT= 1.00  PGR:    
       EIGENVALUES ARE:
:EIG00001:      -2.0849128   -0.7166646   -0.7166646   -0.7166646    0.3092465
:EIG00006:       0.5384089    0.5551378    0.5551378    0.5551378    0.5783012
:EIG00011:       0.5783012    0.5783012    0.6888342    0.6888342    0.6888342
:EIG00016:       0.8562511    0.8562511    1.2588501    1.4840610    1.4840610
:EIG00021:       1.4840610    1.5910354    2.2559471    2.2559471    2.2559471
:EIG00026:       2.3369485    2.3369485    2.3369485    2.5419148    2.5419148
:EIG00031:       2.9069243    3.0681893    3.0681893    3.0681893    3.5015818
:EIG00036:       3.5015818    3.7348684    3.7348684    3.7348684    3.7837385
:EIG00041:       3.7837385    3.7837385    3.9061254    3.9061254    3.9061254
:EIG00046:       4.1887266    4.1887266    4.1887266    4.1987863    4.2902551
 
:EIG00051:       4.2902551    4.3608527    4.3608527    4.3608527    4.3920222
:EIG00056:       4.3920222    4.3920222    4.5019534    4.5091100    4.6371068
:EIG00061:       4.6371068    4.6371068    4.7617444    4.7617444    4.7617444
:EIG00066:       5.0188766    6.0106476    6.0160983    6.0160983    6.3545719
:EIG00071:       6.3545719    6.3545719    6.8262411    6.8262411    7.0072331
:EIG00076:       7.0072331    7.0072331    7.0599384    7.0599384    7.0599384
:EIG00081:       7.3238644    7.3238644    7.3238644    7.3470023    7.3470023
:EIG00086:       7.4138335    7.4138335    7.4138335    7.4370200    7.4370200
:EIG00091:       7.4370200    7.5370243    7.5370243    7.5370243    7.5395934
:EIG00096:       7.5395934    7.5395934    7.6326768    7.6882944    7.7924093
 
:EIG00101:       7.7924093    7.8188882    7.8188882    7.8188882    7.8283127
:EIG00106:       7.8283127    7.8283127    7.8604260    7.8604260    7.8604260
:EIG00111:       7.9645778    7.9645778
       ********************************************************

:KPT   :      NUMBER OF K-POINTS:   165

------- case.scfso --------
   0.0   0.0 angle (M,z), angle (M,x) deg
 
        SPIN-ORBIT EIGENVALUES:
     K=   0.00000   0.00000   0.00000            1
      MATRIX SIZE=  224   WEIGHT= 1.00
     EIGENVALUES ARE:
          -2.0849128   -2.0849128   -0.8645070   -0.8645070   -0.6474436
          -0.6474436   -0.6474436   -0.6474436    0.3092465    0.3092465
           0.5337586    0.5337586    0.5440937    0.5440937    0.5440937
           0.5440937    0.5668861    0.5668861    0.5786833    0.5786833
           0.5855156    0.5855156    0.5855156    0.5855156    0.6850262
           0.6850262    0.6850262    0.6850262    0.6952704    0.6952704
           0.8566406    0.8566406    0.8566406    0.8566406    1.2589013
           1.2589013    1.4791145    1.4791145    1.4863271    1.4863271

           1.4863271    1.4863271    1.5910354    1.5910354    2.2509618
           2.2509618    2.2509618    2.2509618    2.2648521    2.2648521
           2.2654126    2.2654126    2.3738373    2.3738373    2.3738373
           2.3738373    2.5422035    2.5422035    2.5422035    2.5422035
           2.9069243    2.9069243    3.0677662    3.0677662    3.0684137
           3.0684137    3.0684137    3.0684137    3.5015551    3.5015551
           3.5015551    3.5015551    3.7335205    3.7335205    3.7335205
           3.7335205    3.7378227    3.7378227    3.7521415    3.7521415

           3.8010241    3.8010241    3.8010241    3.8010241    3.9061169
           3.9061169    3.9061296    3.9061296    3.9061296    3.9061296
           4.1886759    4.1886759    4.1886759    4.1886759    4.1888343
           4.1888343    4.1987863    4.1987863    4.2902551    4.2902551
           4.2902551    4.2902551    4.3606914    4.3606914    4.3609257
           4.3609257    4.3609257    4.3609257    4.3918789    4.3918789
           4.3918789    4.3918789    4.3923508    4.3923508
       ********************************************************

------- case.scf2 --------
:GMA  : POTENTIAL AND CHARGE CUT-OFF  12.00 Ry**.5




:POS001: at.nr.   1 position = 0.00000 0.00000 0.50000  multiplicity =  1

       lmmax  5
       lm=   0 0  4 0  4 4  6 0  6 4
:FER gutzwiller fermi energy   0.58008
:EORB         -0.132274903
:SUM sum of gutz band energies         -5.997102608

:CHA001: total charge inside sphere   1 =    10.067534
:PCS001: partial charges sphere =  1 s,p,d,f,      d-eg,d-t2g 
:QTL001: 2.0312 5.3694 0.6842 1.9825 0.0000 0.0000 0.0000 0.2435 0.4407 0.0000 0.0000 0.0000

:CHA  : total charge inside unit cell =       6.500000

------- case.scfc --------

        1.ATOM      Pr                   14 CORE STATES
:1S 001: 1S               -3067.052228289 Ry
:2S 001: 2S                -492.806975653 Ry
:2PP001: 2P*               -465.905758860 Ry
:2P 001: 2P                -430.508403809 Ry
:3S 001: 3S                -105.899335155 Ry
:3PP001: 3P*                -94.437059578 Ry
:3P 001: 3P                 -87.429321197 Ry
:3DD001: 3D*                -67.356078804 Ry
:3D 001: 3D                 -65.844553404 Ry
:4S 001: 4S                 -20.576765410 Ry
:4PP001: 4P*                -16.283418130 Ry
:4P 001: 4P                 -14.755858432 Ry
:4DD001: 4D*                 -7.688368224 Ry
:4D 001: 4D                  -7.418896049 Ry

------- case.scfm --------
:CINT001 Core Integral Atom   1   45.999522

       DENSITY AT NUCLEUS
        JATOM        VALENCE       SEMI-CORE          CORE           TOTAL
:RTO001:   1      652.558488        0.000000   656824.368899   657476.927387
     
       CHARGES OF NEW CHARGE DENSITY
:NTO   : INTERSTITIAL CHARGE =     2.932444
:NPC   : PW Pseudocharge     =     7.626199
:NTO001: CHARGE SPHERE  1    =    56.067056

:NEC01: NUCLEAR AND ELECTRONIC CHARGE     59.00000    58.99950
     
       CHARGES OF OLD CHARGE DENSITY
:OTO   : INTERSTITIAL CHARGE =     2.933180
:OPC   : PW Pseudocharge     =     7.628234
:OTO001: CHARGE SPHERE  1    =    56.066820

:NEC02: NUCLEAR AND ELECTRONIC CHARGE     59.00000    59.00000
     
       CONVERGENCE TEST
:DTO001: DIFFERENCE IN SPHERE  1 =  0.0002830

:DIS  :  CHARGE DISTANCE       ( 0.0002830 for atom    1 spin 1)      0.0002830
 PW Mixed is           55
 
******************************************************
* MULTISECANT MIXING VER9 RELEASE 10.4.0              *
* Standard Mode with controls                        *
* Fixed density scale                                *
* Regularization       1.000E-04                     *
* Trust Upper Limit    5.000E+00                     *
* Max Number of Memory Steps    8                    *
******************************************************
 
:PWTMP   1.8127E+02  1.2500E+02  2.4672E+02
:PLANE:  PW TOTAL      2.9835 DISTAN   4.39E-04  1.47E-02 %
:CHARG:  CLM/ATOM    977.1941 DISTAN   4.00E-04  4.09E-05 %
 
Step History
        DMIX         DMIXT        Red     Pred      Trust     Lambda    MagRel    MagAbs     Beta
 35   2.0862E-02   2.0862E-02  1.03E+00  2.84E-01  2.05E-02  2.05E-01  1.19E-02  2.04E-04  7.16E-01
 36   4.0816E-02   2.7143E-02  1.09E+00  1.06E-01  4.30E-02  2.24E-01  3.92E-02  6.94E-04  8.95E-01
 37   2.7959E-02   2.5451E-02  9.32E-01  2.85E-01  1.52E-01  1.45E-01  4.10E-02  7.90E-04  7.16E-01
 38   6.9896E-02   6.9896E-02  9.79E-01  1.75E-01  1.94E-01  1.39E-01  1.13E-02  2.02E-04  8.25E-01
 39   2.7959E-02   2.7959E-02  9.65E-01  7.18E-03  1.54E-01  1.96E-01  2.28E-02  4.01E-04  1.00E+00
 40   6.9896E-02   6.9896E-02  9.78E-01  4.98E-03  1.34E-01  9.66E-02  1.23E-02  2.09E-04  1.00E+00
 41   6.5677E-02   6.4574E-02  8.72E-01  5.71E-03  1.23E-01  6.95E-02  5.86E-02  9.73E-04  1.00E+00
 42   3.3655E-02   2.0168E-02  8.12E-01  2.52E-02  2.91E-01  9.52E-02  9.75E-02  1.41E-03  1.00E+00
 43   3.4152E-02   1.4494E-02  5.58E-01  2.37E-01  3.81E-01  6.04E-02  2.37E-01  2.78E-03  1.00E+00
 44   8.5381E-02   6.1233E-02  1.84E-01  2.63E-01  4.77E-01  1.53E-01  4.55E-01  2.99E-03  1.00E+00
 45   3.9067E-02   3.6515E-02 -1.00E+00  4.84E-01  6.35E-01  1.00E+00  6.35E-01  7.66E-04  1.00E+00
:JACOBIANS    3.576E-01   1.190E+00
  
:NORMS:  1/Froebius, Min, Max, Used   0.5289E+00  0.4679E+00  0.9031E+00  0.5804E+00
:INFO :  Number of Memory Steps   10 Skipping   34
:INFO :  SLambda=    0.4691325629  Max    1.0000000000
:PREDicted Charge, CTotal, PW Trust    2.334E-04   2.334E-04   1.677E-05
:PREDicted DMix, Beta, BLim   3.0070E-03  1.3434E+00  8.6311E-01

Eigenvalues, unscaled except for SY+YY
   #     SY Real        SY Imag          SS             YY         SY+YY Real      SY+YY Imag
   1   3.313742E+00   0.000000E+00   1.991452E+00   9.096436E+00   1.068445E+01   0.000000E+00
   2   8.858281E-01   0.000000E+00   8.060646E-01   9.033424E-01   1.285492E+00   0.000000E+00
   3   2.124610E-05   0.000000E+00   2.373069E-05   8.972538E-05   9.234239E-05   0.000000E+00
   4   3.971500E-06   6.085457E-06   6.850808E-06   8.141219E-05   8.153058E-05   0.000000E+00
   5   3.971500E-06  -6.085457E-06   4.349043E-06   3.414676E-05   3.335727E-05   0.000000E+00
   6   6.976702E-06   0.000000E+00   9.245318E-07   9.226104E-06   1.344331E-05   0.000000E+00
   7  -4.913424E-08   0.000000E+00   2.489601E-07   4.781730E-06   6.761919E-06   0.000000E+00
   8   1.486662E-07   9.314886E-08   8.093568E-08   1.295645E-06   1.224913E-06   0.000000E+00
   9   1.486662E-07  -9.314886E-08   2.911242E-08   4.400514E-07   5.122307E-07   0.000000E+00
  10   6.546140E-07   0.000000E+00   5.787963E-09   2.864810E-07  -8.999995E-11   0.000000E+00
 
:INFO :  Singular value  1.069E+01 Weight  1.000E+00 Projection -5.049E-05
:INFO :  Singular value  1.284E+00 Weight  1.000E+00 Projection -3.056E-04
:INFO :  Singular value  9.267E-05 Weight  1.027E-02 Projection -8.545E-05
:INFO :  Singular value  8.209E-05 Weight  8.078E-03 Projection  2.535E-04
:INFO :  Singular value  3.457E-05 Weight  1.442E-03 Projection -8.438E-05
:INFO :  Singular value  1.339E-05 Weight  2.167E-04 Projection  3.117E-06
:INFO :  Singular value  7.063E-06 Weight  6.028E-05 Projection  8.640E-07
:INFO :  Singular value  1.188E-06 Weight  1.707E-06 Projection  2.577E-07
:INFO :  Singular value  5.127E-07 Weight  3.177E-07 Projection  6.123E-08
:INFO :  Singular value  8.506E-11 Weight  8.743E-15 Projection  1.857E-11
:RANK :  ACTIVE   2.02/10 =  20.20 % ; YY RANK   2.02/10 =  20.19 %
 
:BLIM :  VZERO Control Off
:TRUST:  Step 8.47E-01  Charge 2.53E-03 (e) CTO  3.03E-03 (e) PW  3.50E-03 (e)
:DIRM :  MEMORY 10/8  SCALE   1.000 RED  0.49 PRED  0.48 NEXT  0.83 
:TRAVE:  Charge 3.27E-04 (e) CTO  3.27E-04 (e) PW  2.26E-04 (e)
:DIRP :  |MSR1|= 1.787E-04 |PRATT|= 4.393E-04 ANGLE=  28.4 DEGREES
:DIRQ :  |MSR1|= 2.364E-04 |PRATT|= 3.995E-04 ANGLE=  72.8 DEGREES
:DIRT :  |MSR1|= 2.964E-04 |PRATT|= 5.938E-04 ANGLE=  56.6 DEGREES
:MIX  :   MSD1   REGULARIZATION:  9.10E-04 GREED: 0.02701  Newton 1.00  0.4991                
     
       CHARGES OF MIXED CHARGE DENSITY
:CTO   : INTERSTITIAL CHARGE =     2.933186
:CPC   : PW Pseudocharge     =     7.628146
:CTO001: CHARGE SPHERE  1    =    56.066814

:NEC03: NUCLEAR AND ELECTRONIC CHARGE     59.00000    59.00000

PW CHANGE     H    K    L      Current       Change    Residue
:PTO001:      0    0    0  4.28075116E-02 -3.332E-07 -3.940E-06
:PTO002:     -1   -1   -1 -1.32947959E-01  4.468E-06  1.578E-05
:PTO003:      0    0   -2  7.88819369E-02 -6.974E-07 -9.159E-06
:PTO004:      0   -2   -2  6.71138460E-02 -6.714E-06 -1.393E-05
:PTO005:     -1   -1   -3 -6.31192644E-02  8.895E-06  1.956E-05
:PTO006:     -2   -2   -2  1.63220526E-02 -4.389E-06 -6.598E-06
:PTO007:      0    0   -4  2.60979778E-03 -1.376E-06 -3.590E-06
:PTO008:     -1   -3   -3 -4.62682303E-04  7.146E-06  1.152E-05
:PTO009:      0   -2   -4 -2.50262358E-03 -5.436E-06 -1.014E-05
:PTO010:     -2   -2   -4 -6.96344735E-03 -6.049E-06 -9.765E-06
:PTO011:     -3   -3   -3  2.46599651E-03  2.172E-06  3.307E-06
:PTO012:     -1   -1   -5  8.01496395E-03  3.731E-06  7.277E-06

:ENE  : ********** TOTAL ENERGY IN Ry =       -18472.12535811

