
------- UO2_5.scf0 --------


            ---------
:ITE082: 82. ITERATION
            ---------

:NATO :    2 INDEPENDENT AND    3 TOTAL ATOMS IN UNITCELL
       SUBSTANCE: blebleble                                                   

       LATTICE                      = F   
:POT  : POTENTIAL OPTION    5
:LAT  : LATTICE CONSTANTS= 10.16717 10.16717 10.16717    1.571    1.571    1.571
:VOL  : UNIT CELL VOLUME =     262.74851
       MODE OF CALCULATION IS       = RELA
       NON-SPINPOLARIZED CALCULATION
:IFFT  : FFT-parameters:   80   80   80 Factor: 2.00
       ATOMNUMBER=  1 U  4+      VCOUL-ZERO = -0.37229E+00
       ATOMNUMBER=  2 O  2-      VCOUL-ZERO =  0.86911E+00
:FIT001: LUSE= 13 SIGMA OF V-XC FIT FOR ATOM  1  0.8045005E-04
:FIT001: LUSE= 13 SIGMA OF V-XC FIT FOR ATOM  1  0.8045005E-04
:FIT002: LUSE= 13 SIGMA OF V-XC FIT FOR ATOM  2  0.1620688E-03
:FIT002: LUSE= 13 SIGMA OF V-XC FIT FOR ATOM  2  0.1620688E-03
:DEN  : DENSITY INTEGRAL  =        -20912.92374194   (Ry)
       ELS_POTENTIAL_AT Z=0 and Z=0.5:  -3.43756  -3.43756
       ELS_POTENTIAL_AT Y=0 and Y=0.5:   0.00000   0.00000
:VZERO:v0,v0c,v0x  -4.18340  -3.43756  -0.74584 v5,v5c,v5x  -4.18340  -3.43756  -0.74584
:VZERY:v0,v0c,v0x  -0.88916   0.00000  -0.88916 v5,v5c,v5x  -0.88916   0.00000  -0.88916
:VZERX:v0,v0c,v0x  -0.88916   0.00000  -0.88916 v5,v5c,v5x  -0.88916   0.00000  -0.88916

------- UO2_5.scf1 --------

          ATOMIC SPHERE DEPENDENT PARAMETERS FOR ATOM  U  4+     
:e__0001: OVERALL ENERGY PARAMETER IS    0.8383
          OVERALL BASIS SET ON ATOM IS LAPW
:E0_0001: E( 0)=    0.8383
             APW+lo
:E0_0001: E( 0)=   -2.1183   E(BOTTOM)=   -3.467   E(TOP)=   -0.769  5  6   231
             LOCAL ORBITAL
:E1_0001: E( 1)=   -1.2800   E(BOTTOM)=   -1.735   E(TOP)= -200.000  4 -1   217
             APW+lo
:E1_0001: E( 1)=    1.2383
             LOCAL ORBITAL
:E3_0001: E( 3)=    1.1096   E(BOTTOM)=    0.319   E(TOP)=    1.900  1  2   180
             APW+lo
:E2_0001: E( 2)=    0.8759   E(BOTTOM)=    0.876   E(TOP)= -200.000  3 -1   109
             APW+lo

          ATOMIC SPHERE DEPENDENT PARAMETERS FOR ATOM  O  2-     
:e__0002: OVERALL ENERGY PARAMETER IS    0.8383
          OVERALL BASIS SET ON ATOM IS LAPW
:E0_0002: E( 0)=   -0.2393   E(BOTTOM)=   -1.612   E(TOP)=    1.134  1  2   239
             APW+lo
:E0_0002: E( 0)=    1.2383
             LOCAL ORBITAL
:E1_0002: E( 1)=    0.8383
             APW+lo

       K=   0.00000   0.00000   0.00000            1
:RKM  : MATRIX SIZE  675LOs:  30  RKM= 8.39  WEIGHT= 1.00  PGR:    
       EIGENVALUES ARE:
:EIG00001:      -2.2085639   -0.4474603   -0.3617617   -0.3617617   -0.3617617
:EIG00006:      -0.3421882    0.4649993    0.4649993    0.4649993    0.7107019
:EIG00011:       0.7107019    0.7107019    1.0824610    1.0824610    1.0824610
:EIG00016:       1.1276544    1.1524234    1.1524234    1.1524234    1.2122867
:EIG00021:       1.2369253    1.2369253    1.7798259    1.7798259    1.7798259
:EIG00026:       1.9794180    1.9794180    1.9794180    2.4110398    2.7340489
:EIG00031:       2.7340489    2.7500337    2.7500337    2.7500337    3.2221861
:EIG00036:       3.2221861    3.2221861    3.3124552    3.3124552    3.3124552
:EIG00041:       3.4664955    3.8010623    3.8010623    3.8997123    3.8997123
:EIG00046:       3.8997123    3.9012860    3.9012860    3.9106963    3.9106963
 
:EIG00051:       3.9106963    4.1444081    4.1904735    4.1904735    4.1904735
:EIG00056:       4.2467786    4.3049358    4.3049358    4.3049358    4.4185739
:EIG00061:       4.4185739    4.4185739    4.4303070    4.4303070    4.4303070
:EIG00066:       4.7889300    5.3397643    5.3397643    5.3397643    5.5450600
:EIG00071:       5.5450600    5.6294400    5.6294400    5.6294400    5.7803320
:EIG00076:       6.2588537    6.2588537    6.3013216    6.3013216    6.3013216
:EIG00081:       6.4893180    6.4893180    6.4893180    6.5412406    6.5412406
:EIG00086:       6.5412406    6.8499012    6.8499012    6.8499012    6.9281830
:EIG00091:       6.9281830    6.9633893    7.0566480    7.0566480    7.0864027
:EIG00096:       7.0864027    7.0864027    7.2334368    7.2334368    7.2334368
 
:EIG00101:       7.3070946    7.3070946    7.3070946    7.3430289    7.4607575
:EIG00106:       7.4607575    7.4607575    7.5738515    7.6488403    7.7441287
:EIG00111:       7.7441287    7.7504572    7.7504572    7.7504572    7.7798716
:EIG00116:       7.7798716    7.7798716    7.9506181    7.9506181    7.9506181
:EIG00121:       8.2120111    8.2120111    8.2120111
       ********************************************************

:KPT   :      NUMBER OF K-POINTS:   145

------- UO2_5.scfso --------
   0.0   0.0 angle (M,z), angle (M,x) deg
 
        SPIN-ORBIT EIGENVALUES:
     K=   0.00000   0.00000   0.00000            1
      MATRIX SIZE=  246   WEIGHT= 1.00
     EIGENVALUES ARE:
          -2.2085639   -2.2085639   -0.7610476   -0.7610476   -0.4474603
          -0.4474603   -0.3421925   -0.3421925   -0.1966892   -0.1966892
          -0.1966891   -0.1966891    0.4630018    0.4630018    0.4630018
           0.4630018    0.4681726    0.4681726    0.7040549    0.7040549
           0.7142467    0.7142467    0.7142467    0.7142467    1.0559540
           1.0559540    1.0742406    1.0742406    1.0742406    1.0742406
           1.1440092    1.1440092    1.1563747    1.1563747    1.1563747
           1.1563747    1.1708121    1.1708121    1.2122867    1.2122867

           1.2350502    1.2350502    1.2350502    1.2350502    1.7683144
           1.7683144    1.7683144    1.7683144    1.8027458    1.8027458
           1.9172231    1.9172231    2.0087898    2.0087898    2.0087898
           2.0087898    2.4110398    2.4110398    2.7234484    2.7234484
           2.7234484    2.7234484    2.7560863    2.7560863    2.7560863
           2.7560863    2.7592622    2.7592622    3.0409728    3.0409728
           3.3092910    3.3092910    3.3126406    3.3126406    3.3126406
           3.3126406    3.3265528    3.3265528    3.3265528    3.3265528

           3.4670103    3.4670103    3.7956162    3.7956162    3.7956162
           3.7956162    3.8966649    3.8966649    3.8966649    3.8966649
           3.9012860    3.9012860    3.9012860    3.9012860    3.9106773
           3.9106773    3.9107058    3.9107058    3.9107058    3.9107058
           3.9187802    3.9187802    4.1444081    4.1444081    4.1906518
           4.1906518    4.1906518    4.1906518    4.1906708    4.1906708
           4.2467786    4.2467786    4.3049254    4.3049254    4.3049254
           4.3049254    4.3049889    4.3049889    4.4124653    4.4124653

           4.4206769    4.4206769    4.4206769    4.4206769    4.4290288
           4.4290288    4.4341216    4.4341216    4.4341216    4.4341216

       ********************************************************

------- UO2_5.scf2 --------
:GMA  : POTENTIAL AND CHARGE CUT-OFF  12.00 Ry**.5
         Bandranges (emin - emax) and occupancy:
:BAN00018:  18    0.468173    0.704666  1.00000000
:BAN00019:  19    0.577565    0.707643  1.00000000
:BAN00020:  20    0.577565    0.707643  1.00000000
:BAN00021:  21    0.672686    0.739793  1.00000000
:BAN00022:  22    0.672686    0.739793  1.00000000
:BAN00023:  23    0.710287    0.778520  1.00000000
:BAN00024:  24    0.710287    0.778520  1.00000000
:BAN00025:  25    0.995359    1.055954  0.93307295
:BAN00026:  26    0.995359    1.055954  0.93307295
:BAN00027:  27    1.036207    1.074241  0.06692705
:BAN00028:  28    1.036207    1.074241  0.06692705
:BAN00029:  29    1.049110    1.074241  0.00000000
:BAN00030:  30    1.049110    1.074241  0.00000000
:BAN00031:  31    1.065499    1.144009  0.00000000
:BAN00032:  32    1.065499    1.144009  0.00000000
:BAN00033:  33    1.101506    1.156375  0.00000000
        Energy to separate low and high energystates:    0.94536


:NLDA  : NUMBER OF ELECTRONS          =  26.000

:FLDA  : F E R M I - ENERGY           =   1.54236




:POS001: AT.NR.   1 POSITION = 0.00000 0.00000 0.00000  MULTIPLICITY =  1

       LMMAX  5
       LM=   0 0  4 0  4 4  6 0  6 4




:POS002: AT.NR.   2 POSITION = 0.00000 0.00000 0.00000  MULTIPLICITY =  2

       LMMAX  6
       LM=   0 0  4 0  4 4  6 0  6 4 -3 2
:FER DMFT Fermi Energy   1.01566
:EORB          0.097881575
:SUM SUM OF DMFT BAND ENERGIES          1.295998370

:CHA001: TOTAL CHARGE INSIDE SPHERE   1 =     8.224487
:PCS001: PARTIAL CHARGES SPHERE =  1 S,P,D,F,      D-EG,D-T2G 
:QTL001: 1.8002 4.1871 0.2542 1.9786 0.0000 0.0000 0.0000 0.0607 0.2156 0.0000 0.0000 0.0000
        Q-s-low E-s-low   Q-p-low E-p-low   Q-d-low E-d-low   Q-f-low E-f-low
:EPL001:  1.8000 -2.1131    4.1848 -0.3296    0.2504  0.5188    0.2649  0.6635
        Q-s-hi  E-s-hi    Q-p-hi  E-p-hi    Q-d-hi  E-d-hi    Q-f-hi  E-f-hi 
:EPH001:  0.0002  1.0677    0.0023  1.0566    0.0038  1.0504    1.7136  1.0326

:CHA002: TOTAL CHARGE INSIDE SPHERE   2 =     5.238164
:PCS002: PARTIAL CHARGES SPHERE =  2 S,P,D,F,      D-EG,D-T2G 
:QTL002: 1.5827 3.6382 0.0146 0.0022 0.0000 0.0000 0.0000 0.0050 0.0159 0.0000 0.0000 0.0000
        Q-s-low E-s-low   Q-p-low E-p-low   Q-d-low E-d-low   Q-f-low E-f-low
:EPL002:  1.5810 -0.3677    3.6174  0.6156    0.0115  0.0924    0.0019  0.0063
        Q-s-hi  E-s-hi    Q-p-hi  E-p-hi    Q-d-hi  E-d-hi    Q-f-hi  E-f-hi 
:EPH002:  0.0017  1.0563    0.0208  1.0548    0.0031  1.0253    0.0003  1.0398

:CHA  : TOTAL CHARGE INSIDE UNIT CELL =      26.000000

:ESUM  : SUM OF EIGENVALUES =           1.347118880


------- UO2_5.scfc --------

        1.ATOM      U  4+                21 CORE STATES
:1S 001: 1S               -8506.219948464 Ry
:2S 001: 2S               -1587.668505024 Ry
:2PP001: 2P*              -1530.914177574 Ry
:2P 001: 2P               -1249.718511166 Ry
:3S 001: 3S                -399.809984046 Ry
:3PP001: 3P*               -374.036654855 Ry
:3P 001: 3P                -309.253472241 Ry
:3DD001: 3D*               -268.440936636 Ry
:3D 001: 3D                -255.295736412 Ry
:4S 001: 4S                -100.879196302 Ry
:4PP001: 4P*                -89.285638115 Ry
:4P 001: 4P                 -72.375913432 Ry
:4DD001: 4D*                -53.911112946 Ry
:4D 001: 4D                 -50.802537423 Ry
:5S 001: 5S                 -21.472415240 Ry
:5PP001: 5P*                -16.965776610 Ry
:5P 001: 5P                 -12.935895155 Ry
:4FF001: 4F*                -26.516186848 Ry
:4F 001: 4F                 -25.706195159 Ry
:5DD001: 5D*                 -6.347326954 Ry
:5D 001: 5D                  -5.749332670 Ry

        2.ATOM      O  2-                 1 CORE STATES
:1S 002: 1S                 -35.942539895 Ry

------- UO2_5.scfm --------
:CINT001 Core Integral Atom   1   77.964092
:CINT002 Core Integral Atom   2    2.000000
     
       CHARGES OF NEW CHARGE DENSITY
:NTO   : INTERSTITIAL CHARGE =     7.299167
:NTO001: CHARGE SPHERE  1    =    86.188579
:NTO002: CHARGE SPHERE  2    =     7.238164

:NEC01: NUCLEAR AND ELECTRONIC CHARGE    108.00000   107.96407
     
       CHARGES OF OLD CHARGE DENSITY
:OTO   : INTERSTITIAL CHARGE =     7.370689
:OTO001: CHARGE SPHERE  1    =    86.231937
:OTO002: CHARGE SPHERE  2    =     7.198687
:DNEW  1   -0.0434
:DNEW  2    0.0395

:NEC02: NUCLEAR AND ELECTRONIC CHARGE    108.00000   108.00000
     
       CONVERGENCE TEST
:DTO001: DIFFERENCE IN SPHERE  1 =  0.0303123
:DTO002: DIFFERENCE IN SPHERE  2 =  0.0493933

:DIS  :  CHARGE DISTANCE       ( 0.0493933 for atom    2 spin 1)      0.0430329
:BIG check (qbig,qrms,qtot)    0.165D-01   0.311D-01   0.430D-01
 
******************************************************
* MULTISECANT MIXING VER6 RELEASE 6.0 OPTIONS        *
* Standard Mode with controls                        *
* Regularization       1.000E-06                     *
* Trust Region Control Active                        *
* Max Number of Memory Steps    8                    *
******************************************************
 
:PLANE:  INTERSTITIAL TOTAL      2.54074 DISTAN  4.010E-01 % 
:CHARG:  CLM CHARGE   /ATOM    345.91502 DISTAN  2.374E-02 % 
:DIRM :  MEMORY  0/8 RESCALES   1.00
:MIX  :   PRATT  REGULARIZATION: 1.00E-06  GREED: 0.025
     
       CHARGES OF MIXED CHARGE DENSITY
:CTO   : INTERSTITIAL CHARGE =     7.369799
:CTO001: CHARGE SPHERE  1    =    86.230853
:CTO002: CHARGE SPHERE  2    =     7.199674

:NEC03: NUCLEAR AND ELECTRONIC CHARGE    108.00000   108.00000

PW CHANGE     H    K    L       Current     Change     Residue
:PTO001:      0    0    0  9.59781615E-02 -1.485E-06 -5.940E-05
:PTO002:     -1   -1   -1  2.26050229E-01 -1.170E-05 -4.680E-04
:PTO003:      0    0   -2 -1.04060009E-03 -2.662E-05 -1.065E-03
:PTO004:      0   -2   -2  2.98173306E-01  2.964E-05  1.186E-03
:PTO005:     -1   -1   -3  1.50176765E-01  1.040E-05  4.159E-04
:PTO006:     -2   -2   -2 -2.32019288E-02 -4.957E-06 -1.983E-04
:PTO007:      0    0   -4  4.10327062E-02  3.522E-06  1.409E-04
:PTO008:     -1   -3   -3  2.31965016E-02  4.310E-06  1.724E-04
:PTO009:      0   -2   -4 -5.39353502E-02 -4.779E-06 -1.912E-04
:PTO010:     -2   -2   -4  3.40197382E-02  7.106E-06  2.842E-04
:PTO011:     -3   -3   -3 -6.46016571E-03  4.881E-06  1.952E-04
:PTO012:     -1   -1   -5 -7.63197507E-03 -6.063E-06 -2.425E-04

:ENE  : ********** TOTAL ENERGY IN Ry =       -56437.56960955


------- UO2_5.scf0 --------


            ---------
:ITE083: 83. ITERATION
            ---------

:NATO :    2 INDEPENDENT AND    3 TOTAL ATOMS IN UNITCELL
       SUBSTANCE: blebleble                                                   

       LATTICE                      = F   
:POT  : POTENTIAL OPTION    5
:LAT  : LATTICE CONSTANTS= 10.16717 10.16717 10.16717    1.571    1.571    1.571
:VOL  : UNIT CELL VOLUME =     262.74851
       MODE OF CALCULATION IS       = RELA
       NON-SPINPOLARIZED CALCULATION
:IFFT  : FFT-parameters:   80   80   80 Factor: 2.00
       ATOMNUMBER=  1 U  4+      VCOUL-ZERO = -0.37271E+00
       ATOMNUMBER=  2 O  2-      VCOUL-ZERO =  0.86949E+00
:FIT001: LUSE= 13 SIGMA OF V-XC FIT FOR ATOM  1  0.8046915E-04
:FIT001: LUSE= 13 SIGMA OF V-XC FIT FOR ATOM  1  0.8046915E-04
:FIT002: LUSE= 13 SIGMA OF V-XC FIT FOR ATOM  2  0.1618857E-03
:FIT002: LUSE= 13 SIGMA OF V-XC FIT FOR ATOM  2  0.1618857E-03
:DEN  : DENSITY INTEGRAL  =        -20912.84561564   (Ry)
       ELS_POTENTIAL_AT Z=0 and Z=0.5:  -3.43847  -3.43847
       ELS_POTENTIAL_AT Y=0 and Y=0.5:   0.00000   0.00000
:VZERO:v0,v0c,v0x  -4.18420  -3.43847  -0.74572 v5,v5c,v5x  -4.18420  -3.43847  -0.74572
:VZERY:v0,v0c,v0x  -0.88913   0.00000  -0.88913 v5,v5c,v5x  -0.88913   0.00000  -0.88913
:VZERX:v0,v0c,v0x  -0.88913   0.00000  -0.88913 v5,v5c,v5x  -0.88913   0.00000  -0.88913

------- UO2_5.scf1 --------

          ATOMIC SPHERE DEPENDENT PARAMETERS FOR ATOM  U  4+     
:e__0001: OVERALL ENERGY PARAMETER IS    0.8383
          OVERALL BASIS SET ON ATOM IS LAPW
:E0_0001: E( 0)=    0.8383
             APW+lo
:E0_0001: E( 0)=   -2.1190   E(BOTTOM)=   -3.468   E(TOP)=   -0.770  5  6   234
             LOCAL ORBITAL
:E1_0001: E( 1)=   -1.2800   E(BOTTOM)=   -1.736   E(TOP)= -200.000  4 -1   218
             APW+lo
:E1_0001: E( 1)=    1.2383
             LOCAL ORBITAL
:E3_0001: E( 3)=    1.1088   E(BOTTOM)=    0.319   E(TOP)=    1.899  1  2   176
             APW+lo
:E2_0001: E( 2)=    0.8753   E(BOTTOM)=    0.875   E(TOP)= -200.000  3 -1   112
             APW+lo

          ATOMIC SPHERE DEPENDENT PARAMETERS FOR ATOM  O  2-     
:e__0002: OVERALL ENERGY PARAMETER IS    0.8383
          OVERALL BASIS SET ON ATOM IS LAPW
:E0_0002: E( 0)=   -0.2383   E(BOTTOM)=   -1.611   E(TOP)=    1.135  1  2   238
             APW+lo
:E0_0002: E( 0)=    1.2383
             LOCAL ORBITAL
:E1_0002: E( 1)=    0.8383
             APW+lo

       K=   0.00000   0.00000   0.00000            1
:RKM  : MATRIX SIZE  675LOs:  30  RKM= 8.39  WEIGHT= 1.00  PGR:    
       EIGENVALUES ARE:
:EIG00001:      -2.2092158   -0.4467862   -0.3622412   -0.3622412   -0.3622412
:EIG00006:      -0.3413956    0.4654833    0.4654833    0.4654833    0.7111862
:EIG00011:       0.7111862    0.7111862    1.0817370    1.0817370    1.0817370
:EIG00016:       1.1269698    1.1520080    1.1520080    1.1520080    1.2124408
:EIG00021:       1.2367356    1.2367356    1.7800385    1.7800385    1.7800385
:EIG00026:       1.9793946    1.9793946    1.9793946    2.4110536    2.7339988
:EIG00031:       2.7339988    2.7501410    2.7501410    2.7501410    3.2222095
:EIG00036:       3.2222095    3.2222095    3.3123335    3.3123335    3.3123335
:EIG00041:       3.4667243    3.8008691    3.8008691    3.8997727    3.8997727
:EIG00046:       3.8997727    3.9015956    3.9015956    3.9105797    3.9105797
 
:EIG00051:       3.9105797    4.1443343    4.1906156    4.1906156    4.1906156
:EIG00056:       4.2466732    4.3049558    4.3049558    4.3049558    4.4184732
:EIG00061:       4.4184732    4.4184732    4.4302552    4.4302552    4.4302552
:EIG00066:       4.7889386    5.3400226    5.3400226    5.3400226    5.5450224
:EIG00071:       5.5450224    5.6296149    5.6296149    5.6296149    5.7802743
:EIG00076:       6.2586961    6.2586961    6.3012152    6.3012152    6.3012152
:EIG00081:       6.4893487    6.4893487    6.4893487    6.5410333    6.5410333
:EIG00086:       6.5410333    6.8500704    6.8500704    6.8500704    6.9282743
:EIG00091:       6.9282743    6.9635057    7.0567596    7.0567596    7.0863371
:EIG00096:       7.0863371    7.0863371    7.2334716    7.2334716    7.2334716
 
:EIG00101:       7.3069562    7.3069562    7.3069562    7.3432368    7.4608948
:EIG00106:       7.4608948    7.4608948    7.5738945    7.6487866    7.7441784
:EIG00111:       7.7441784    7.7505559    7.7505559    7.7505559    7.7799252
:EIG00116:       7.7799252    7.7799252    7.9506500    7.9506500    7.9506500
:EIG00121:       8.2119495    8.2119495    8.2119495
       ********************************************************

:KPT   :      NUMBER OF K-POINTS:   145

------- UO2_5.scfso --------
   0.0   0.0 angle (M,z), angle (M,x) deg
 
        SPIN-ORBIT EIGENVALUES:
     K=   0.00000   0.00000   0.00000            1
      MATRIX SIZE=  246   WEIGHT= 1.00
     EIGENVALUES ARE:
          -2.2092158   -2.2092158   -0.7616023   -0.7616023   -0.4467862
          -0.4467862   -0.3414000   -0.3414000   -0.1971284   -0.1971284
          -0.1971284   -0.1971284    0.4634806    0.4634806    0.4634806
           0.4634806    0.4686649    0.4686649    0.7045878    0.7045878
           0.7146948    0.7146948    0.7146948    0.7146948    1.0552306
           1.0552306    1.0735777    1.0735777    1.0735777    1.0735777
           1.1433221    1.1433221    1.1559174    1.1559174    1.1559174
           1.1559174    1.1703757    1.1703757    1.2124408    1.2124408

           1.2348611    1.2348611    1.2348611    1.2348611    1.7685220
           1.7685220    1.7685220    1.7685220    1.8029676    1.8029676
           1.9171685    1.9171685    2.0087813    2.0087813    2.0087813
           2.0087813    2.4110536    2.4110536    2.7234561    2.7234561
           2.7234561    2.7234561    2.7561396    2.7561396    2.7561396
           2.7561396    2.7593638    2.7593638    3.0410133    3.0410133
           3.3091707    3.3091707    3.3125322    3.3125322    3.3125322
           3.3125322    3.3265559    3.3265559    3.3265559    3.3265559

           3.4672380    3.4672380    3.7954404    3.7954404    3.7954404
           3.7954404    3.8967106    3.8967106    3.8967106    3.8967106
           3.9015956    3.9015956    3.9015956    3.9015956    3.9105607
           3.9105607    3.9105892    3.9105892    3.9105892    3.9105892
           3.9188353    3.9188353    4.1443343    4.1443343    4.1907944
           4.1907944    4.1907944    4.1907944    4.1908131    4.1908131
           4.2466732    4.2466732    4.3049457    4.3049457    4.3049457
           4.3049457    4.3050084    4.3050084    4.4123725    4.4123725

           4.4205853    4.4205853    4.4205853    4.4205853    4.4289776
           4.4289776    4.4340549    4.4340549    4.4340549    4.4340549

       ********************************************************

------- UO2_5.scf2 --------
:GMA  : POTENTIAL AND CHARGE CUT-OFF  12.00 Ry**.5
         Bandranges (emin - emax) and occupancy:
:BAN00018:  18    0.468665    0.705348  1.00000000
:BAN00019:  19    0.578091    0.708160  1.00000000
:BAN00020:  20    0.578091    0.708160  1.00000000
:BAN00021:  21    0.673137    0.740390  1.00000000
:BAN00022:  22    0.673137    0.740390  1.00000000
:BAN00023:  23    0.710728    0.779133  1.00000000
:BAN00024:  24    0.710728    0.779133  1.00000000
:BAN00025:  25    0.994747    1.055231  0.93327480
:BAN00026:  26    0.994747    1.055231  0.93327480
:BAN00027:  27    1.035569    1.073578  0.06672520
:BAN00028:  28    1.035569    1.073578  0.06672520
:BAN00029:  29    1.048462    1.073578  0.00000000
:BAN00030:  30    1.048462    1.073578  0.00000000
:BAN00031:  31    1.064917    1.143322  0.00000000
:BAN00032:  32    1.064917    1.143322  0.00000000
:BAN00033:  33    1.100881    1.155917  0.00000000
        Energy to separate low and high energystates:    0.94475


:NLDA  : NUMBER OF ELECTRONS          =  26.000

:FLDA  : F E R M I - ENERGY           =   1.54173




:POS001: AT.NR.   1 POSITION = 0.00000 0.00000 0.00000  MULTIPLICITY =  1

       LMMAX  5
       LM=   0 0  4 0  4 4  6 0  6 4




:POS002: AT.NR.   2 POSITION = 0.00000 0.00000 0.00000  MULTIPLICITY =  2

       LMMAX  6
       LM=   0 0  4 0  4 4  6 0  6 4 -3 2
:FER DMFT Fermi Energy   1.01660
:EORB          0.093953640
:SUM SUM OF DMFT BAND ENERGIES          1.304015432

:CHA001: TOTAL CHARGE INSIDE SPHERE   1 =     8.225300
:PCS001: PARTIAL CHARGES SPHERE =  1 S,P,D,F,      D-EG,D-T2G 
:QTL001: 1.8003 4.1876 0.2548 1.9782 0.0000 0.0000 0.0000 0.0609 0.2160 0.0000 0.0000 0.0000
        Q-s-low E-s-low   Q-p-low E-p-low   Q-d-low E-d-low   Q-f-low E-f-low
:EPL001:  1.8001 -2.1137    4.1853 -0.3301    0.2510  0.5194    0.2648  0.6640
        Q-s-hi  E-s-hi    Q-p-hi  E-p-hi    Q-d-hi  E-d-hi    Q-f-hi  E-f-hi 
:EPH001:  0.0002  1.0670    0.0023  1.0559    0.0038  1.0496    1.7134  1.0320

:CHA002: TOTAL CHARGE INSIDE SPHERE   2 =     5.236285
:PCS002: PARTIAL CHARGES SPHERE =  2 S,P,D,F,      D-EG,D-T2G 
:QTL002: 1.5825 3.6365 0.0146 0.0022 0.0000 0.0000 0.0000 0.0050 0.0159 0.0000 0.0000 0.0000
        Q-s-low E-s-low   Q-p-low E-p-low   Q-d-low E-d-low   Q-f-low E-f-low
:EPL002:  1.5808 -0.3669    3.6157  0.6162    0.0115  0.0929    0.0019  0.0065
        Q-s-hi  E-s-hi    Q-p-hi  E-p-hi    Q-d-hi  E-d-hi    Q-f-hi  E-f-hi 
:EPH002:  0.0017  1.0557    0.0208  1.0541    0.0031  1.0247    0.0003  1.0392

:CHA  : TOTAL CHARGE INSIDE UNIT CELL =      26.000000

:ESUM  : SUM OF EIGENVALUES =           1.351256463


------- UO2_5.scfc --------

        1.ATOM      U  4+                21 CORE STATES
:1S 001: 1S               -8506.221180805 Ry
:2S 001: 2S               -1587.669741835 Ry
:2PP001: 2P*              -1530.915413512 Ry
:2P 001: 2P               -1249.719747869 Ry
:3S 001: 3S                -399.811211519 Ry
:3PP001: 3P*               -374.037884073 Ry
:3P 001: 3P                -309.254696601 Ry
:3DD001: 3D*               -268.442166630 Ry
:3D 001: 3D                -255.296965296 Ry
:4S 001: 4S                -100.880359878 Ry
:4PP001: 4P*                -89.286802301 Ry
:4P 001: 4P                 -72.377065066 Ry
:4DD001: 4D*                -53.912266190 Ry
:4D 001: 4D                 -50.803687077 Ry
:5S 001: 5S                 -21.473472922 Ry
:5PP001: 5P*                -16.966824228 Ry
:5P 001: 5P                 -12.936912469 Ry
:4FF001: 4F*                -26.517342934 Ry
:4F 001: 4F                 -25.707349385 Ry
:5DD001: 5D*                 -6.348302885 Ry
:5D 001: 5D                  -5.750295832 Ry

        2.ATOM      O  2-                 1 CORE STATES
:1S 002: 1S                 -35.940752370 Ry

------- UO2_5.scfm --------
:CINT001 Core Integral Atom   1   77.964100
:CINT002 Core Integral Atom   2    2.000000
     
       CHARGES OF NEW CHARGE DENSITY
:NTO   : INTERSTITIAL CHARGE =     7.302156
:NTO001: CHARGE SPHERE  1    =    86.189400
:NTO002: CHARGE SPHERE  2    =     7.236285

:NEC01: NUCLEAR AND ELECTRONIC CHARGE    108.00000   107.96413
     
       CHARGES OF OLD CHARGE DENSITY
:OTO   : INTERSTITIAL CHARGE =     7.369799
:OTO001: CHARGE SPHERE  1    =    86.230853
:OTO002: CHARGE SPHERE  2    =     7.199674
:DNEW  1   -0.0415
:DNEW  2    0.0366

:NEC02: NUCLEAR AND ELECTRONIC CHARGE    108.00000   108.00000
     
       CONVERGENCE TEST
:DTO001: DIFFERENCE IN SPHERE  1 =  0.0290451
:DTO002: DIFFERENCE IN SPHERE  2 =  0.0453230

:DIS  :  CHARGE DISTANCE       ( 0.0453230 for atom    2 spin 1)      0.0398970
:BIG check (qbig,qrms,qtot)    0.151D-01   0.287D-01   0.399D-01
 
******************************************************
* MULTISECANT MIXING VER6 RELEASE 6.0 OPTIONS        *
* Standard Mode with controls                        *
* Regularization       1.000E-06                     *
* Trust Region Control Active                        *
* Max Number of Memory Steps    8                    *
******************************************************
 
:PLANE:  INTERSTITIAL TOTAL      2.54079 DISTAN  3.737E-01 % 
:CHARG:  CLM CHARGE   /ATOM    345.91497 DISTAN  2.210E-02 % 
 
 Step History DMIX, Red, Pred, Trust, FRMS, FABS
  2  2.5000E-02  1.0000E+00  1.0000E+00  1.0000E+00
  
:DIRM :  MEMORY  1/8 RESCALES  16.11
:MIX  :   PRATT  REGULARIZATION: 1.00E-06  GREED: 0.062  Expand 2.50  0.06                
     
       CHARGES OF MIXED CHARGE DENSITY
:CTO   : INTERSTITIAL CHARGE =     7.367130
:CTO001: CHARGE SPHERE  1    =    86.227602
:CTO002: CHARGE SPHERE  2    =     7.202634

:NEC03: NUCLEAR AND ELECTRONIC CHARGE    108.00000   108.00000

PW CHANGE     H    K    L       Current     Change     Residue
:PTO001:      0    0    0  9.59737065E-02 -4.455E-06 -4.703E-05
:PTO002:     -1   -1   -1  2.26015129E-01 -3.510E-05 -4.262E-04
:PTO003:      0    0   -2 -1.12044678E-03 -7.985E-05 -9.802E-04
:PTO004:      0   -2   -2  2.98262224E-01  8.892E-05  1.123E-03
:PTO005:     -1   -1   -3  1.50207956E-01  3.119E-05  4.474E-04
:PTO006:     -2   -2   -2 -2.32167985E-02 -1.487E-05 -1.480E-04
:PTO007:      0    0   -4  4.10432712E-02  1.056E-05  1.251E-04
:PTO008:     -1   -3   -3  2.32094310E-02  1.293E-05  1.936E-04
:PTO009:      0   -2   -4 -5.39496869E-02 -1.434E-05 -1.233E-04
:PTO010:     -2   -2   -4  3.40410564E-02  2.132E-05  2.592E-04
:PTO011:     -3   -3   -3 -6.44552361E-03  1.464E-05  1.905E-04
:PTO012:     -1   -1   -5 -7.65016264E-03 -1.819E-05 -2.321E-04

:ENE  : ********** TOTAL ENERGY IN Ry =       -56437.56961095


------- UO2_5.scf0 --------


            ---------
:ITE084: 84. ITERATION
            ---------

:NATO :    2 INDEPENDENT AND    3 TOTAL ATOMS IN UNITCELL
       SUBSTANCE: blebleble                                                   

       LATTICE                      = F   
:POT  : POTENTIAL OPTION    5
:LAT  : LATTICE CONSTANTS= 10.16717 10.16717 10.16717    1.571    1.571    1.571
:VOL  : UNIT CELL VOLUME =     262.74851
       MODE OF CALCULATION IS       = RELA
       NON-SPINPOLARIZED CALCULATION
:IFFT  : FFT-parameters:   80   80   80 Factor: 2.00
       ATOMNUMBER=  1 U  4+      VCOUL-ZERO = -0.37396E+00
       ATOMNUMBER=  2 O  2-      VCOUL-ZERO =  0.87063E+00
:FIT001: LUSE= 13 SIGMA OF V-XC FIT FOR ATOM  1  0.8052692E-04
:FIT001: LUSE= 13 SIGMA OF V-XC FIT FOR ATOM  1  0.8052692E-04
:FIT002: LUSE= 13 SIGMA OF V-XC FIT FOR ATOM  2  0.1613370E-03
:FIT002: LUSE= 13 SIGMA OF V-XC FIT FOR ATOM  2  0.1613370E-03
:DEN  : DENSITY INTEGRAL  =        -20912.61125585   (Ry)
       ELS_POTENTIAL_AT Z=0 and Z=0.5:  -3.44121  -3.44121
       ELS_POTENTIAL_AT Y=0 and Y=0.5:   0.00000   0.00000
:VZERO:v0,v0c,v0x  -4.18659  -3.44121  -0.74539 v5,v5c,v5x  -4.18659  -3.44121  -0.74539
:VZERY:v0,v0c,v0x  -0.88907   0.00000  -0.88907 v5,v5c,v5x  -0.88907   0.00000  -0.88907
:VZERX:v0,v0c,v0x  -0.88907   0.00000  -0.88907 v5,v5c,v5x  -0.88907   0.00000  -0.88907

------- UO2_5.scf1 --------

          ATOMIC SPHERE DEPENDENT PARAMETERS FOR ATOM  U  4+     
:e__0001: OVERALL ENERGY PARAMETER IS    0.8383
          OVERALL BASIS SET ON ATOM IS LAPW
:E0_0001: E( 0)=    0.8383
             APW+lo
:E0_0001: E( 0)=   -2.1213   E(BOTTOM)=   -3.470   E(TOP)=   -0.773  5  6   236
             LOCAL ORBITAL
:E1_0001: E( 1)=   -1.2800   E(BOTTOM)=   -1.737   E(TOP)= -200.000  4 -1   214
             APW+lo
:E1_0001: E( 1)=    1.2383
             LOCAL ORBITAL
:E3_0001: E( 3)=    1.1063   E(BOTTOM)=    0.316   E(TOP)=    1.896  1  2   179
             APW+lo
:E2_0001: E( 2)=    0.8734   E(BOTTOM)=    0.873   E(TOP)= -200.000  3 -1   108
             APW+lo

          ATOMIC SPHERE DEPENDENT PARAMETERS FOR ATOM  O  2-     
:e__0002: OVERALL ENERGY PARAMETER IS    0.8383
          OVERALL BASIS SET ON ATOM IS LAPW
:E0_0002: E( 0)=   -0.2355   E(BOTTOM)=   -1.609   E(TOP)=    1.138  1  2   236
             APW+lo
:E0_0002: E( 0)=    1.2383
             LOCAL ORBITAL
:E1_0002: E( 1)=    0.8383
             APW+lo

       K=   0.00000   0.00000   0.00000            1
:RKM  : MATRIX SIZE  675LOs:  30  RKM= 8.39  WEIGHT= 1.00  PGR:    
       EIGENVALUES ARE:
:EIG00001:      -2.2111721   -0.4447651   -0.3636802   -0.3636802   -0.3636802
:EIG00006:      -0.3390188    0.4669327    0.4669327    0.4669327    0.7126293
:EIG00011:       0.7126293    0.7126293    1.0795645    1.0795645    1.0795645
:EIG00016:       1.1249158    1.1507696    1.1507696    1.1507696    1.2129035
:EIG00021:       1.2361660    1.2361660    1.7806770    1.7806770    1.7806770
:EIG00026:       1.9793251    1.9793251    1.9793251    2.4110950    2.7338485
:EIG00031:       2.7338485    2.7504637    2.7504637    2.7504637    3.2222802
:EIG00036:       3.2222802    3.2222802    3.3119683    3.3119683    3.3119683
:EIG00041:       3.4674109    3.8002894    3.8002894    3.8999542    3.8999542
:EIG00046:       3.8999542    3.9025242    3.9025242    3.9102296    3.9102296
 
:EIG00051:       3.9102296    4.1441132    4.1910410    4.1910410    4.1910410
:EIG00056:       4.2463567    4.3050158    4.3050158    4.3050158    4.4181716
:EIG00061:       4.4181716    4.4181716    4.4300998    4.4300998    4.4300998
:EIG00066:       4.7889646    5.3407978    5.3407978    5.3407978    5.5449080
:EIG00071:       5.5449080    5.6301391    5.6301391    5.6301391    5.7801009
:EIG00076:       6.2582238    6.2582238    6.3008962    6.3008962    6.3008962
:EIG00081:       6.4894404    6.4894404    6.4894404    6.5404109    6.5404109
:EIG00086:       6.5404109    6.8505782    6.8505782    6.8505782    6.9285481
:EIG00091:       6.9285481    6.9638549    7.0570947    7.0570947    7.0861403
:EIG00096:       7.0861403    7.0861403    7.2335766    7.2335766    7.2335766
 
:EIG00101:       7.3065407    7.3065407    7.3065407    7.3438605    7.4613065
:EIG00106:       7.4613065    7.4613065    7.5740233    7.6486252    7.7443278
:EIG00111:       7.7443278    7.7508514    7.7508514    7.7508514    7.7800858
:EIG00116:       7.7800858    7.7800858    7.9507462    7.9507462    7.9507462
:EIG00121:       8.2117647    8.2117647    8.2117647
       ********************************************************

:KPT   :      NUMBER OF K-POINTS:   145

------- UO2_5.scfso --------
   0.0   0.0 angle (M,z), angle (M,x) deg
 
        SPIN-ORBIT EIGENVALUES:
     K=   0.00000   0.00000   0.00000            1
      MATRIX SIZE=  246   WEIGHT= 1.00
     EIGENVALUES ARE:
          -2.2111721   -2.2111721   -0.7632664   -0.7632664   -0.4447651
          -0.4447651   -0.3390232   -0.3390232   -0.1984470   -0.1984470
          -0.1984470   -0.1984470    0.4649145    0.4649145    0.4649145
           0.4649145    0.4701393    0.4701393    0.7061783    0.7061783
           0.7160288    0.7160288    0.7160288    0.7160288    1.0530603
           1.0530603    1.0715888    1.0715888    1.0715888    1.0715888
           1.1412605    1.1412605    1.1545542    1.1545542    1.1545542
           1.1545542    1.1690725    1.1690725    1.2129035    1.2129035

           1.2342932    1.2342932    1.2342932    1.2342932    1.7691453
           1.7691453    1.7691453    1.7691453    1.8036335    1.8036335
           1.9170056    1.9170056    2.0087566    2.0087566    2.0087566
           2.0087566    2.4110950    2.4110950    2.7234773    2.7234773
           2.7234773    2.7234773    2.7563020    2.7563020    2.7563020
           2.7563020    2.7596694    2.7596694    3.0411351    3.0411351
           3.3088099    3.3088099    3.3122056    3.3122056    3.3122056
           3.3122056    3.3265668    3.3265668    3.3265668    3.3265668

           3.4679212    3.4679212    3.7949126    3.7949126    3.7949126
           3.7949126    3.8968483    3.8968483    3.8968483    3.8968483
           3.9025241    3.9025241    3.9025241    3.9025241    3.9102106
           3.9102106    3.9102391    3.9102391    3.9102391    3.9102391
           3.9190010    3.9190010    4.1441132    4.1441132    4.1912213
           4.1912213    4.1912213    4.1912213    4.1912389    4.1912389
           4.2463568    4.2463568    4.3050063    4.3050063    4.3050063
           4.3050063    4.3050667    4.3050667    4.4120946    4.4120946

           4.4203106    4.4203106    4.4203106    4.4203106    4.4288240
           4.4288240    4.4338556    4.4338556    4.4338556    4.4338556

       ********************************************************

------- UO2_5.scf2 --------
:GMA  : POTENTIAL AND CHARGE CUT-OFF  12.00 Ry**.5
         Bandranges (emin - emax) and occupancy:
:BAN00018:  18    0.470139    0.707391  1.00000000
:BAN00019:  19    0.579663    0.709703  1.00000000
:BAN00020:  20    0.579663    0.709703  1.00000000
:BAN00021:  21    0.674486    0.742171  1.00000000
:BAN00022:  22    0.674486    0.742171  1.00000000
:BAN00023:  23    0.712042    0.780966  1.00000000
:BAN00024:  24    0.712042    0.780966  1.00000000
:BAN00025:  25    0.992908    1.053060  0.93387938
:BAN00026:  26    0.992908    1.053060  0.93387938
:BAN00027:  27    1.033654    1.071589  0.06612062
:BAN00028:  28    1.033654    1.071589  0.06612062
:BAN00029:  29    1.046517    1.071589  0.00000000
:BAN00030:  30    1.046517    1.071589  0.00000000
:BAN00031:  31    1.063168    1.141260  0.00000000
:BAN00032:  32    1.063168    1.141260  0.00000000
:BAN00033:  33    1.099007    1.154554  0.00000000
        Energy to separate low and high energystates:    0.94291


:NLDA  : NUMBER OF ELECTRONS          =  26.000

:FLDA  : F E R M I - ENERGY           =   1.53986




:POS001: AT.NR.   1 POSITION = 0.00000 0.00000 0.00000  MULTIPLICITY =  1

       LMMAX  5
       LM=   0 0  4 0  4 4  6 0  6 4




:POS002: AT.NR.   2 POSITION = 0.00000 0.00000 0.00000  MULTIPLICITY =  2

       LMMAX  6
       LM=   0 0  4 0  4 4  6 0  6 4 -3 2
:FER DMFT Fermi Energy   1.01789
:EORB          0.086534534
:SUM SUM OF DMFT BAND ENERGIES          1.323804075

:CHA001: TOTAL CHARGE INSIDE SPHERE   1 =     8.231182
:PCS001: PARTIAL CHARGES SPHERE =  1 S,P,D,F,      D-EG,D-T2G 
:QTL001: 1.8006 4.1890 0.2565 1.9806 0.0000 0.0000 0.0000 0.0614 0.2171 0.0000 0.0000 0.0000
        Q-s-low E-s-low   Q-p-low E-p-low   Q-d-low E-d-low   Q-f-low E-f-low
:EPL001:  1.8004 -2.1155    4.1867 -0.3315    0.2527  0.5211    0.2670  0.6658
        Q-s-hi  E-s-hi    Q-p-hi  E-p-hi    Q-d-hi  E-d-hi    Q-f-hi  E-f-hi 
:EPH001:  0.0002  1.0651    0.0023  1.0540    0.0039  1.0477    1.7136  1.0301

:CHA002: TOTAL CHARGE INSIDE SPHERE   2 =     5.228851
:PCS002: PARTIAL CHARGES SPHERE =  2 S,P,D,F,      D-EG,D-T2G 
:QTL002: 1.5818 3.6298 0.0146 0.0022 0.0000 0.0000 0.0000 0.0050 0.0159 0.0000 0.0000 0.0000
        Q-s-low E-s-low   Q-p-low E-p-low   Q-d-low E-d-low   Q-f-low E-f-low
:EPL002:  1.5801 -0.3647    3.6088  0.6178    0.0115  0.0946    0.0019  0.0074
        Q-s-hi  E-s-hi    Q-p-hi  E-p-hi    Q-d-hi  E-d-hi    Q-f-hi  E-f-hi 
:EPH002:  0.0017  1.0539    0.0209  1.0522    0.0031  1.0228    0.0003  1.0373

:CHA  : TOTAL CHARGE INSIDE UNIT CELL =      26.000000

:ESUM  : SUM OF EIGENVALUES =           1.363259809


------- UO2_5.scfc --------

        1.ATOM      U  4+                21 CORE STATES
:1S 001: 1S               -8506.224877826 Ry
:2S 001: 2S               -1587.673452270 Ry
:2PP001: 2P*              -1530.919121325 Ry
:2P 001: 2P               -1249.723457975 Ry
:3S 001: 3S                -399.814893938 Ry
:3PP001: 3P*               -374.041571727 Ry
:3P 001: 3P                -309.258369682 Ry
:3DD001: 3D*               -268.445856610 Ry
:3D 001: 3D                -255.300651947 Ry
:4S 001: 4S                -100.883850607 Ry
:4PP001: 4P*                -89.290294863 Ry
:4P 001: 4P                 -72.380519967 Ry
:4DD001: 4D*                -53.915725922 Ry
:4D 001: 4D                 -50.807136042 Ry
:5S 001: 5S                 -21.476645970 Ry
:5PP001: 5P*                -16.969967086 Ry
:5P 001: 5P                 -12.939964417 Ry
:4FF001: 4F*                -26.520811194 Ry
:4F 001: 4F                 -25.710812064 Ry
:5DD001: 5D*                 -6.351230694 Ry
:5D 001: 5D                  -5.753185342 Ry

        2.ATOM      O  2-                 1 CORE STATES
:1S 002: 1S                 -35.935389783 Ry

------- UO2_5.scfm --------
:CINT001 Core Integral Atom   1   77.964126
:CINT002 Core Integral Atom   2    2.000000
     
       CHARGES OF NEW CHARGE DENSITY
:NTO   : INTERSTITIAL CHARGE =     7.311084
:NTO001: CHARGE SPHERE  1    =    86.195308
:NTO002: CHARGE SPHERE  2    =     7.228851

:NEC01: NUCLEAR AND ELECTRONIC CHARGE    108.00000   107.96409
     
       CHARGES OF OLD CHARGE DENSITY
:OTO   : INTERSTITIAL CHARGE =     7.367130
:OTO001: CHARGE SPHERE  1    =    86.227602
:OTO002: CHARGE SPHERE  2    =     7.202634
:DNEW  1   -0.0323
:DNEW  2    0.0262

:NEC02: NUCLEAR AND ELECTRONIC CHARGE    108.00000   108.00000
     
       CONVERGENCE TEST
:DTO001: DIFFERENCE IN SPHERE  1 =  0.0227575
:DTO002: DIFFERENCE IN SPHERE  2 =  0.0310215

:DIS  :  CHARGE DISTANCE       ( 0.0310215 for atom    2 spin 1)      0.0282668
:BIG check (qbig,qrms,qtot)    0.103D-01   0.202D-01   0.283D-01
 
******************************************************
* MULTISECANT MIXING VER6 RELEASE 6.0 OPTIONS        *
* Standard Mode with controls                        *
* Regularization       1.000E-06                     *
* Trust Region Control Active                        *
* Max Number of Memory Steps    8                    *
******************************************************
 
:PLANE:  INTERSTITIAL TOTAL      2.54091 DISTAN  2.819E-01 % 
:CHARG:  CLM CHARGE   /ATOM    345.91484 DISTAN  1.606E-02 % 
 
 Step History DMIX, Red, Pred, Trust, FRMS, FABS
  2  2.5000E-02  1.0000E+00  1.0000E+00  1.0000E+00
  3  6.2500E-02  1.0000E+00  1.0000E+00  1.0000E+00
  
:NORMS:  Nuclear, Spectral, Froebius, Shanno-Pua   0.3599E+01  0.3558E+01  0.3558E+01  0.2611E+00
:INFO :  Number of Memory Steps    2 Skipping    0
:INFO :  SLambda=    3.0000000  Max    3.0000000

Eigenvalues, unscaled except for SY+YY
   #     SY Real        SY Imag          SS             YY         SY+YY Real      SY+YY Imag
   1   5.220758E-01   0.000000E+00   1.580066E-01   2.706181E-04   3.566014E+00   0.000000E+00
   2   5.551115E-17   0.000000E+00  -2.775558E-17   1.999729E+00   2.130405E-04   0.000000E+00
 
:INFO :  Singular value   3.566E+00 Weight  1.0000E+00 Projections   1.838E+00  1.053E-01
:INFO :  Singular value   2.130E-04 Weight  9.9991E-01 Projections  -1.982E+00 -2.701E+00
 
:DIRM :  MEMORY 2/8 RESCALE  15.91 RED 0.740 PRED 1.000 NEXT 0.400
:INFO :  Blimit    1.197E+00  8.433E-01  4.719E-01  1.592E+00
:DIRP :  |MSR1|= 1.478E-02 |PRATT|= 1.140E-01 ANGLE=   5.2 DEGREES
:DIRQ :  |MSR1|= 1.353E-02 |PRATT|= 1.111E-01 ANGLE=   7.3 DEGREES
:DIR  :  |MSR1|= 2.004E-02 |PRATT|= 1.592E-01 ANGLE=   6.5 DEGREES
:MIX  :   MSE1   REGULARIZATION: 2.00E-06  GREED: 0.071  Newton 1.00  0.13                
     
       CHARGES OF MIXED CHARGE DENSITY
:CTO   : INTERSTITIAL CHARGE =     7.363787
:CTO001: CHARGE SPHERE  1    =    86.224352
:CTO002: CHARGE SPHERE  2    =     7.205930

:NEC03: NUCLEAR AND ELECTRONIC CHARGE    108.00000   108.00000

PW CHANGE     H    K    L       Current     Change     Residue
:PTO001:      0    0    0  9.59706690E-02 -3.038E-06 -1.044E-05
:PTO002:     -1   -1   -1  2.25991027E-01 -2.410E-05 -2.636E-04
:PTO003:      0    0   -2 -1.20653612E-03 -8.609E-05 -6.798E-04
:PTO004:      0   -2   -2  2.98386491E-01  1.243E-04  8.996E-04
:PTO005:     -1   -1   -3  1.50279043E-01  7.109E-05  5.300E-04
:PTO006:     -2   -2   -2 -2.32148668E-02  1.932E-06  1.202E-05
:PTO007:      0    0   -4  4.10516730E-02  8.402E-06  7.058E-05
:PTO008:     -1   -3   -3  2.32364607E-02  2.703E-05  2.426E-04
:PTO009:      0   -2   -4 -5.39458338E-02  3.853E-06  7.759E-05
:PTO010:     -2   -2   -4  3.40609816E-02  1.993E-05  1.689E-04
:PTO011:     -3   -3   -3 -6.42525870E-03  2.026E-05  1.661E-04
:PTO012:     -1   -1   -5 -7.67902111E-03 -2.886E-05 -1.970E-04

:ENE  : ********** TOTAL ENERGY IN Ry =       -56437.56953233


------- UO2_5.scf0 --------


            ---------
:ITE085: 85. ITERATION
            ---------

:NATO :    2 INDEPENDENT AND    3 TOTAL ATOMS IN UNITCELL
       SUBSTANCE: blebleble                                                   

       LATTICE                      = F   
:POT  : POTENTIAL OPTION    5
:LAT  : LATTICE CONSTANTS= 10.16717 10.16717 10.16717    1.571    1.571    1.571
:VOL  : UNIT CELL VOLUME =     262.74851
       MODE OF CALCULATION IS       = RELA
       NON-SPINPOLARIZED CALCULATION
:IFFT  : FFT-parameters:   80   80   80 Factor: 2.00
       ATOMNUMBER=  1 U  4+      VCOUL-ZERO = -0.37533E+00
       ATOMNUMBER=  2 O  2-      VCOUL-ZERO =  0.87193E+00
:FIT001: LUSE= 13 SIGMA OF V-XC FIT FOR ATOM  1  0.8074739E-04
:FIT001: LUSE= 13 SIGMA OF V-XC FIT FOR ATOM  1  0.8074739E-04
:FIT002: LUSE= 13 SIGMA OF V-XC FIT FOR ATOM  2  0.1606002E-03
:FIT002: LUSE= 13 SIGMA OF V-XC FIT FOR ATOM  2  0.1606002E-03
:DEN  : DENSITY INTEGRAL  =        -20912.42990561   (Ry)
       ELS_POTENTIAL_AT Z=0 and Z=0.5:  -3.44425  -3.44425
       ELS_POTENTIAL_AT Y=0 and Y=0.5:   0.00000   0.00000
:VZERO:v0,v0c,v0x  -4.18916  -3.44425  -0.74491 v5,v5c,v5x  -4.18916  -3.44425  -0.74491
:VZERY:v0,v0c,v0x  -0.88898   0.00000  -0.88898 v5,v5c,v5x  -0.88898   0.00000  -0.88898
:VZERX:v0,v0c,v0x  -0.88898   0.00000  -0.88898 v5,v5c,v5x  -0.88898   0.00000  -0.88898

------- UO2_5.scf1 --------

          ATOMIC SPHERE DEPENDENT PARAMETERS FOR ATOM  U  4+     
:e__0001: OVERALL ENERGY PARAMETER IS    0.8383
          OVERALL BASIS SET ON ATOM IS LAPW
:E0_0001: E( 0)=    0.8383
             APW+lo
:E0_0001: E( 0)=   -2.1234   E(BOTTOM)=   -3.472   E(TOP)=   -0.775  5  6   236
             LOCAL ORBITAL
:E1_0001: E( 1)=   -1.2800   E(BOTTOM)=   -1.739   E(TOP)= -200.000  4 -1   208
             APW+lo
:E1_0001: E( 1)=    1.2383
             LOCAL ORBITAL
:E3_0001: E( 3)=    1.1040   E(BOTTOM)=    0.314   E(TOP)=    1.894  1  2   178
             APW+lo
:E2_0001: E( 2)=    0.8716   E(BOTTOM)=    0.872   E(TOP)= -200.000  3 -1   113
             APW+lo

          ATOMIC SPHERE DEPENDENT PARAMETERS FOR ATOM  O  2-     
:e__0002: OVERALL ENERGY PARAMETER IS    0.8383
          OVERALL BASIS SET ON ATOM IS LAPW
:E0_0002: E( 0)=   -0.2323   E(BOTTOM)=   -1.606   E(TOP)=    1.142  1  2   239
             APW+lo
:E0_0002: E( 0)=    1.2383
             LOCAL ORBITAL
:E1_0002: E( 1)=    0.8383
             APW+lo

       K=   0.00000   0.00000   0.00000            1
:RKM  : MATRIX SIZE  675LOs:  30  RKM= 8.39  WEIGHT= 1.00  PGR:    
       EIGENVALUES ARE:
:EIG00001:      -2.2130848   -0.4425443   -0.3651090   -0.3651090   -0.3651090
:EIG00006:      -0.3364174    0.4685256    0.4685256    0.4685256    0.7142295
:EIG00011:       0.7142295    0.7142295    1.0774917    1.0774917    1.0774917
:EIG00016:       1.1229947    1.1496769    1.1496769    1.1496769    1.2134124
:EIG00021:       1.2355912    1.2355912    1.7814337    1.7814337    1.7814337
:EIG00026:       1.9792917    1.9792917    1.9792917    2.4111680    2.7337270
:EIG00031:       2.7337270    2.7508409    2.7508409    2.7508409    3.2224327
:EIG00036:       3.2224327    3.2224327    3.3116421    3.3116421    3.3116421
:EIG00041:       3.4682131    3.7997083    3.7997083    3.9002071    3.9002071
:EIG00046:       3.9002071    3.9035504    3.9035504    3.9098681    3.9098681
 
:EIG00051:       3.9098681    4.1439258    4.1915193    4.1915193    4.1915193
:EIG00056:       4.2460329    4.3050930    4.3050930    4.3050930    4.4178977
:EIG00061:       4.4178977    4.4178977    4.4299648    4.4299648    4.4299648
:EIG00066:       4.7890433    5.3416507    5.3416507    5.3416507    5.5448284
:EIG00071:       5.5448284    5.6307316    5.6307316    5.6307316    5.7799371
:EIG00076:       6.2577647    6.2577647    6.3006324    6.3006324    6.3006324
:EIG00081:       6.4895742    6.4895742    6.4895742    6.5398040    6.5398040
:EIG00086:       6.5398040    6.8511555    6.8511555    6.8511555    6.9288613
:EIG00091:       6.9288613    6.9642679    7.0575044    7.0575044    7.0859643
:EIG00096:       7.0859643    7.0859643    7.2337075    7.2337075    7.2337075
 
:EIG00101:       7.3061064    7.3061064    7.3061064    7.3445676    7.4617568
:EIG00106:       7.4617568    7.4617568    7.5742215    7.6484523    7.7444912
:EIG00111:       7.7444912    7.7511722    7.7511722    7.7511722    7.7802922
:EIG00116:       7.7802922    7.7802922    7.9508943    7.9508943    7.9508943
:EIG00121:       8.2116325    8.2116325    8.2116325
       ********************************************************

:KPT   :      NUMBER OF K-POINTS:   145

------- UO2_5.scfso --------
   0.0   0.0 angle (M,z), angle (M,x) deg
 
        SPIN-ORBIT EIGENVALUES:
     K=   0.00000   0.00000   0.00000            1
      MATRIX SIZE=  246   WEIGHT= 1.00
     EIGENVALUES ARE:
          -2.2130848   -2.2130848   -0.7649130   -0.7649130   -0.4425443
          -0.4425443   -0.3364218   -0.3364218   -0.1997574   -0.1997574
          -0.1997574   -0.1997574    0.4664908    0.4664908    0.4664908
           0.4664908    0.4717591    0.4717591    0.7079346    0.7079346
           0.7175137    0.7175137    0.7175137    0.7175137    1.0509990
           1.0509990    1.0697086    1.0697086    1.0697086    1.0697086
           1.1393233    1.1393233    1.1533333    1.1533333    1.1533333
           1.1533333    1.1679045    1.1679045    1.2134124    1.2134124

           1.2337204    1.2337204    1.2337204    1.2337204    1.7698864
           1.7698864    1.7698864    1.7698864    1.8044182    1.8044182
           1.9168757    1.9168757    2.0087695    2.0087695    2.0087695
           2.0087695    2.4111680    2.4111680    2.7235336    2.7235336
           2.7235336    2.7235336    2.7565132    2.7565132    2.7565132
           2.7565132    2.7600284    2.7600284    3.0413366    3.0413366
           3.3084882    3.3084882    3.3119196    3.3119196    3.3119196
           3.3119196    3.3266589    3.3266589    3.3266589    3.3266589

           3.4687198    3.4687198    3.7943870    3.7943870    3.7943870
           3.7943870    3.8970543    3.8970543    3.8970543    3.8970543
           3.9035503    3.9035503    3.9035503    3.9035503    3.9098490
           3.9098490    3.9098776    3.9098776    3.9098776    3.9098776
           3.9192371    3.9192371    4.1439258    4.1439258    4.1917007
           4.1917007    4.1917007    4.1917007    4.1917184    4.1917184
           4.2460329    4.2460329    4.3050842    4.3050842    4.3050842
           4.3050842    4.3051421    4.3051421    4.4118476    4.4118476

           4.4200593    4.4200593    4.4200593    4.4200593    4.4286907
           4.4286907    4.4336791    4.4336791    4.4336791    4.4336791

       ********************************************************

------- UO2_5.scf2 --------
:GMA  : POTENTIAL AND CHARGE CUT-OFF  12.00 Ry**.5
         Bandranges (emin - emax) and occupancy:
:BAN00018:  18    0.471759    0.709627  1.00000000
:BAN00019:  19    0.581397    0.711420  1.00000000
:BAN00020:  20    0.581397    0.711420  1.00000000
:BAN00021:  21    0.675984    0.744135  1.00000000
:BAN00022:  22    0.675984    0.744135  1.00000000
:BAN00023:  23    0.713506    0.782990  1.00000000
:BAN00024:  24    0.713506    0.782990  1.00000000
:BAN00025:  25    0.991147    1.050999  0.93446441
:BAN00026:  26    0.991147    1.050999  0.93446441
:BAN00027:  27    1.031833    1.069709  0.06553559
:BAN00028:  28    1.031833    1.069709  0.06553559
:BAN00029:  29    1.044666    1.069709  0.00000000
:BAN00030:  30    1.044666    1.069709  0.00000000
:BAN00031:  31    1.061499    1.139323  0.00000000
:BAN00032:  32    1.061499    1.139323  0.00000000
:BAN00033:  33    1.097230    1.153333  0.00000000
        Energy to separate low and high energystates:    0.94115


:NLDA  : NUMBER OF ELECTRONS          =  26.000

:FLDA  : F E R M I - ENERGY           =   1.53809




:POS001: AT.NR.   1 POSITION = 0.00000 0.00000 0.00000  MULTIPLICITY =  1

       LMMAX  5
       LM=   0 0  4 0  4 4  6 0  6 4




:POS002: AT.NR.   2 POSITION = 0.00000 0.00000 0.00000  MULTIPLICITY =  2

       LMMAX  6
       LM=   0 0  4 0  4 4  6 0  6 4 -3 2
:FER DMFT Fermi Energy   1.01924
:EORB          0.079312847
:SUM SUM OF DMFT BAND ENERGIES          1.346643088

:CHA001: TOTAL CHARGE INSIDE SPHERE   1 =     8.237527
:PCS001: PARTIAL CHARGES SPHERE =  1 S,P,D,F,      D-EG,D-T2G 
:QTL001: 1.8009 4.1903 0.2584 1.9835 0.0000 0.0000 0.0000 0.0619 0.2182 0.0000 0.0000 0.0000
        Q-s-low E-s-low   Q-p-low E-p-low   Q-d-low E-d-low   Q-f-low E-f-low
:EPL001:  1.8007 -2.1172    4.1880 -0.3329    0.2544  0.5229    0.2697  0.6679
        Q-s-hi  E-s-hi    Q-p-hi  E-p-hi    Q-d-hi  E-d-hi    Q-f-hi  E-f-hi 
:EPH001:  0.0002  1.0637    0.0023  1.0522    0.0039  1.0459    1.7138  1.0283

:CHA002: TOTAL CHARGE INSIDE SPHERE   2 =     5.220709
:PCS002: PARTIAL CHARGES SPHERE =  2 S,P,D,F,      D-EG,D-T2G 
:QTL002: 1.5810 3.6224 0.0146 0.0022 0.0000 0.0000 0.0000 0.0050 0.0159 0.0000 0.0000 0.0000
        Q-s-low E-s-low   Q-p-low E-p-low   Q-d-low E-d-low   Q-f-low E-f-low
:EPL002:  1.5793 -0.3622    3.6013  0.6196    0.0115  0.0965    0.0019  0.0085
        Q-s-hi  E-s-hi    Q-p-hi  E-p-hi    Q-d-hi  E-d-hi    Q-f-hi  E-f-hi 
:EPH002:  0.0017  1.0523    0.0211  1.0504    0.0031  1.0210    0.0003  1.0355

:CHA  : TOTAL CHARGE INSIDE UNIT CELL =      26.000000

:ESUM  : SUM OF EIGENVALUES =           1.378411637


------- UO2_5.scfc --------

        1.ATOM      U  4+                21 CORE STATES
:1S 001: 1S               -8506.227636704 Ry
:2S 001: 2S               -1587.676271147 Ry
:2PP001: 2P*              -1530.921926044 Ry
:2P 001: 2P               -1249.726275986 Ry
:3S 001: 3S                -399.817779045 Ry
:3PP001: 3P*               -374.044452978 Ry
:3P 001: 3P                -309.261254884 Ry
:3DD001: 3D*               -268.448736950 Ry
:3D 001: 3D                -255.303534491 Ry
:4S 001: 4S                -100.886707070 Ry
:4PP001: 4P*                -89.293151223 Ry
:4P 001: 4P                 -72.383369213 Ry
:4DD001: 4D*                -53.918576262 Ry
:4D 001: 4D                 -50.809984552 Ry
:5S 001: 5S                 -21.479435079 Ry
:5PP001: 5P*                -16.972742947 Ry
:5P 001: 5P                 -12.942699015 Ry
:4FF001: 4F*                -26.523669025 Ry
:4F 001: 4F                 -25.713668780 Ry
:5DD001: 5D*                 -6.353892336 Ry
:5D 001: 5D                  -5.755823867 Ry

        2.ATOM      O  2-                 1 CORE STATES
:1S 002: 1S                 -35.929680322 Ry

------- UO2_5.scfm --------
:CINT001 Core Integral Atom   1   77.964146
:CINT002 Core Integral Atom   2    2.000000
     
       CHARGES OF NEW CHARGE DENSITY
:NTO   : INTERSTITIAL CHARGE =     7.321076
:NTO001: CHARGE SPHERE  1    =    86.201673
:NTO002: CHARGE SPHERE  2    =     7.220708

:NEC01: NUCLEAR AND ELECTRONIC CHARGE    108.00000   107.96417
     
       CHARGES OF OLD CHARGE DENSITY
:OTO   : INTERSTITIAL CHARGE =     7.363787
:OTO001: CHARGE SPHERE  1    =    86.224352
:OTO002: CHARGE SPHERE  2    =     7.205930
:DNEW  1   -0.0227
:DNEW  2    0.0148

:NEC02: NUCLEAR AND ELECTRONIC CHARGE    108.00000   108.00000
     
       CONVERGENCE TEST
:DTO001: DIFFERENCE IN SPHERE  1 =  0.0168740
:DTO002: DIFFERENCE IN SPHERE  2 =  0.0158525

:DIS  :  CHARGE DISTANCE       ( 0.0168740 for atom    1 spin 1)      0.0161930
:BIG check (qbig,qrms,qtot)    0.562D-02   0.115D-01   0.162D-01
 
******************************************************
* MULTISECANT MIXING VER6 RELEASE 6.0 OPTIONS        *
* Standard Mode with controls                        *
* Regularization       1.000E-06                     *
* Trust Region Control Active                        *
* Max Number of Memory Steps    8                    *
******************************************************
 
:PLANE:  INTERSTITIAL TOTAL      2.54119 DISTAN  1.942E-01 % 
:CHARG:  CLM CHARGE   /ATOM    345.91492 DISTAN  9.775E-03 % 
 
 Step History DMIX, Red, Pred, Trust, FRMS, FABS
  2  2.5000E-02  1.0000E+00  1.0000E+00  1.0000E+00
  3  6.2500E-02  7.4047E-01  1.0000E+00  1.0000E+00
  4  7.0780E-02  1.0000E+00  3.9981E-01  1.5917E+00
  
:NORMS:  Nuclear, Spectral, Froebius, Shanno-Pua   0.3380E+01  0.3449E+01  0.3445E+01  0.2624E+00
:INFO :  Number of Memory Steps    3 Skipping    0
:INFO :  SLambda=    3.0000000  Max    3.0000000

Eigenvalues, unscaled except for SY+YY
   #     SY Real        SY Imag          SS             YY         SY+YY Real      SY+YY Imag
   1   7.864246E-01   0.000000E+00   2.520131E-01   2.997662E+00   5.357112E+00   0.000000E+00
   2  -7.314346E-17   0.000000E+00   3.445819E-18   5.988274E-05   5.302000E-05   0.000000E+00
   3   1.328243E-03   0.000000E+00   7.100943E-04   2.277890E-03   6.093084E-03   0.000000E+00
 
:INFO :  Singular value   5.357E+00 Weight  1.0000E+00 Projections   3.204E+00  4.940E-02
:INFO :  Singular value   6.097E-03 Weight  1.0000E+00 Projections  -2.708E+00 -1.314E+00
:INFO :  Singular value   5.298E-05 Weight  9.9681E-01 Projections  -5.670E-01 -4.024E+00
 
:DIRM :  MEMORY 3/8 RESCALE  15.33 RED 0.650 PRED 0.400 NEXT 0.156
:INFO :  Blimit    1.487E+00  8.876E-01  5.819E-01  2.066E+00
:DIRP :  |MSR1|= 2.957E-02 |PRATT|= 7.564E-02 ANGLE=  43.2 DEGREES
:DIRQ :  |MSR1|= 1.594E-02 |PRATT|= 6.763E-02 ANGLE=  79.0 DEGREES
:DIR  :  |MSR1|= 3.359E-02 |PRATT|= 1.015E-01 ANGLE=  57.4 DEGREES
:MIX  :   MSE1   REGULARIZATION: 3.00E-06  GREED: 0.087  Newton 1.00  0.33                
     
       CHARGES OF MIXED CHARGE DENSITY
:CTO   : INTERSTITIAL CHARGE =     7.360265
:CTO001: CHARGE SPHERE  1    =    86.226436
:CTO002: CHARGE SPHERE  2    =     7.206649

:NEC03: NUCLEAR AND ELECTRONIC CHARGE    108.00000   108.00000

PW CHANGE     H    K    L       Current     Change     Residue
:PTO001:      0    0    0  9.59834151E-02  1.275E-05  2.506E-05
:PTO002:     -1   -1   -1  2.26092967E-01  1.019E-04 -1.145E-04
:PTO003:      0    0   -2 -1.20787911E-03 -1.343E-06 -3.585E-04
:PTO004:      0   -2   -2  2.98596336E-01  2.098E-04  6.050E-04
:PTO005:     -1   -1   -3  1.50561792E-01  2.827E-04  5.544E-04
:PTO006:     -2   -2   -2 -2.30740408E-02  1.408E-04  1.601E-04
:PTO007:      0    0   -4  4.10237928E-02 -2.788E-05  1.005E-05
:PTO008:     -1   -3   -3  2.33313799E-02  9.492E-05  2.675E-04
:PTO009:      0   -2   -4 -5.37953347E-02  1.505E-04  2.665E-04
:PTO010:     -2   -2   -4  3.40292159E-02 -3.177E-05  6.562E-05
:PTO011:     -3   -3   -3 -6.39102239E-03  3.424E-05  1.327E-04
:PTO012:     -1   -1   -5 -7.75535008E-03 -7.633E-05 -1.520E-04

:ENE  : ********** TOTAL ENERGY IN Ry =       -56437.56951587


------- UO2_5.scf0 --------


            ---------
:ITE086: 86. ITERATION
            ---------

:NATO :    2 INDEPENDENT AND    3 TOTAL ATOMS IN UNITCELL
       SUBSTANCE: blebleble                                                   

       LATTICE                      = F   
:POT  : POTENTIAL OPTION    5
:LAT  : LATTICE CONSTANTS= 10.16717 10.16717 10.16717    1.571    1.571    1.571
:VOL  : UNIT CELL VOLUME =     262.74851
       MODE OF CALCULATION IS       = RELA
       NON-SPINPOLARIZED CALCULATION
:IFFT  : FFT-parameters:   80   80   80 Factor: 2.00
       ATOMNUMBER=  1 U  4+      VCOUL-ZERO = -0.37548E+00
       ATOMNUMBER=  2 O  2-      VCOUL-ZERO =  0.87243E+00
:FIT001: LUSE= 13 SIGMA OF V-XC FIT FOR ATOM  1  0.8200430E-04
:FIT001: LUSE= 13 SIGMA OF V-XC FIT FOR ATOM  1  0.8200430E-04
:FIT002: LUSE= 13 SIGMA OF V-XC FIT FOR ATOM  2  0.1594387E-03
:FIT002: LUSE= 13 SIGMA OF V-XC FIT FOR ATOM  2  0.1594387E-03
:DEN  : DENSITY INTEGRAL  =        -20912.96533741   (Ry)
       ELS_POTENTIAL_AT Z=0 and Z=0.5:  -3.44492  -3.44492
       ELS_POTENTIAL_AT Y=0 and Y=0.5:   0.00000   0.00000
:VZERO:v0,v0c,v0x  -4.18893  -3.44492  -0.74401 v5,v5c,v5x  -4.18893  -3.44492  -0.74401
:VZERY:v0,v0c,v0x  -0.88888   0.00000  -0.88888 v5,v5c,v5x  -0.88888   0.00000  -0.88888
:VZERX:v0,v0c,v0x  -0.88888   0.00000  -0.88888 v5,v5c,v5x  -0.88888   0.00000  -0.88888

------- UO2_5.scf1 --------

          ATOMIC SPHERE DEPENDENT PARAMETERS FOR ATOM  U  4+     
:e__0001: OVERALL ENERGY PARAMETER IS    0.8383
          OVERALL BASIS SET ON ATOM IS LAPW
:E0_0001: E( 0)=    0.8383
             APW+lo
:E0_0001: E( 0)=   -2.1216   E(BOTTOM)=   -3.471   E(TOP)=   -0.773  5  6   236
             LOCAL ORBITAL
:E1_0001: E( 1)=   -1.2800   E(BOTTOM)=   -1.738   E(TOP)= -200.000  4 -1   215
             APW+lo
:E1_0001: E( 1)=    1.2383
             LOCAL ORBITAL
:E3_0001: E( 3)=    1.1064   E(BOTTOM)=    0.316   E(TOP)=    1.897  1  2   181
             APW+lo
:E2_0001: E( 2)=    0.8729   E(BOTTOM)=    0.873   E(TOP)= -200.000  3 -1   111
             APW+lo

          ATOMIC SPHERE DEPENDENT PARAMETERS FOR ATOM  O  2-     
:e__0002: OVERALL ENERGY PARAMETER IS    0.8383
          OVERALL BASIS SET ON ATOM IS LAPW
:E0_0002: E( 0)=   -0.2321   E(BOTTOM)=   -1.606   E(TOP)=    1.142  1  2   240
             APW+lo
:E0_0002: E( 0)=    1.2383
             LOCAL ORBITAL
:E1_0002: E( 1)=    0.8383
             APW+lo

       K=   0.00000   0.00000   0.00000            1
:RKM  : MATRIX SIZE  675LOs:  30  RKM= 8.39  WEIGHT= 1.00  PGR:    
       EIGENVALUES ARE:
:EIG00001:      -2.2115350   -0.4422745   -0.3641321   -0.3641321   -0.3641321
:EIG00006:      -0.3361834    0.4687469    0.4687469    0.4687469    0.7146442
:EIG00011:       0.7146442    0.7146442    1.0796055    1.0796055    1.0796055
:EIG00016:       1.1252881    1.1514491    1.1514491    1.1514491    1.2134643
:EIG00021:       1.2359094    1.2359094    1.7819203    1.7819203    1.7819203
:EIG00026:       1.9795948    1.9795948    1.9795948    2.4113810    2.7340362
:EIG00031:       2.7340362    2.7510437    2.7510437    2.7510437    3.2230027
:EIG00036:       3.2230027    3.2230027    3.3121643    3.3121643    3.3121643
:EIG00041:       3.4686585    3.8000559    3.8000559    3.9006343    3.9006343
:EIG00046:       3.9006343    3.9037220    3.9037220    3.9100003    3.9100003
 
:EIG00051:       3.9100003    4.1443126    4.1916701    4.1916701    4.1916701
:EIG00056:       4.2461751    4.3051886    4.3051886    4.3051886    4.4182833
:EIG00061:       4.4182833    4.4182833    4.4302132    4.4302132    4.4302132
:EIG00066:       4.7894234    5.3417539    5.3417539    5.3417539    5.5451855
:EIG00071:       5.5451855    5.6309306    5.6309306    5.6309306    5.7801235
:EIG00076:       6.2581476    6.2581476    6.3012495    6.3012495    6.3012495
:EIG00081:       6.4898374    6.4898374    6.4898374    6.5403176    6.5403176
:EIG00086:       6.5403176    6.8513689    6.8513689    6.8513689    6.9289919
:EIG00091:       6.9289919    6.9645350    7.0578593    7.0578593    7.0862411
:EIG00096:       7.0862411    7.0862411    7.2338370    7.2338370    7.2338370
 
:EIG00101:       7.3062204    7.3062204    7.3062204    7.3448075    7.4617929
:EIG00106:       7.4617929    7.4617929    7.5746678    7.6484632    7.7445042
:EIG00111:       7.7445042    7.7511871    7.7511871    7.7511871    7.7805396
:EIG00116:       7.7805396    7.7805396    7.9512210    7.9512210    7.9512210
:EIG00121:       8.2121477    8.2121477    8.2121477
       ********************************************************

:KPT   :      NUMBER OF K-POINTS:   145

------- UO2_5.scfso --------
   0.0   0.0 angle (M,z), angle (M,x) deg
 
        SPIN-ORBIT EIGENVALUES:
     K=   0.00000   0.00000   0.00000            1
      MATRIX SIZE=  246   WEIGHT= 1.00
     EIGENVALUES ARE:
          -2.2115350   -2.2115350   -0.7637429   -0.7637429   -0.4422745
          -0.4422745   -0.3361878   -0.3361878   -0.1988686   -0.1988686
          -0.1988686   -0.1988686    0.4667136    0.4667136    0.4667136
           0.4667136    0.4719780    0.4719780    0.7083088    0.7083088
           0.7179597    0.7179597    0.7179597    0.7179597    1.0531828
           1.0531828    1.0717747    1.0717747    1.0717747    1.0717747
           1.1415572    1.1415572    1.1551452    1.1551452    1.1551452
           1.1551452    1.1696556    1.1696556    1.2134643    1.2134643

           1.2340404    1.2340404    1.2340404    1.2340404    1.7703786
           1.7703786    1.7703786    1.7703786    1.8048909    1.8048909
           1.9172167    1.9172167    2.0090563    2.0090563    2.0090563
           2.0090563    2.4113810    2.4113810    2.7238086    2.7238086
           2.7238086    2.7238086    2.7567482    2.7567482    2.7567482
           2.7567482    2.7602347    2.7602347    3.0418571    3.0418571
           3.3090080    3.3090080    3.3124471    3.3124471    3.3124471
           3.3124471    3.3272454    3.3272454    3.3272454    3.3272454

           3.4691659    3.4691659    3.7947370    3.7947370    3.7947370
           3.7947370    3.8974780    3.8974780    3.8974780    3.8974780
           3.9037220    3.9037220    3.9037220    3.9037220    3.9099813
           3.9099813    3.9100099    3.9100099    3.9100099    3.9100099
           3.9196663    3.9196663    4.1443126    4.1443126    4.1918465
           4.1918465    4.1918465    4.1918465    4.1918750    4.1918750
           4.2461751    4.2461751    4.3051796    4.3051796    4.3051796
           4.3051796    4.3052382    4.3052382    4.4122435    4.4122435

           4.4204040    4.4204040    4.4204040    4.4204040    4.4289371
           4.4289371    4.4339649    4.4339649    4.4339649    4.4339649

       ********************************************************

------- UO2_5.scf2 --------
:GMA  : POTENTIAL AND CHARGE CUT-OFF  12.00 Ry**.5
         Bandranges (emin - emax) and occupancy:
:BAN00018:  18    0.471978    0.709854  1.00000000
:BAN00019:  19    0.581696    0.711934  1.00000000
:BAN00020:  20    0.581696    0.711934  1.00000000
:BAN00021:  21    0.676331    0.744497  1.00000000
:BAN00022:  22    0.676331    0.744497  1.00000000
:BAN00023:  23    0.713924    0.783358  1.00000000
:BAN00024:  24    0.713924    0.783358  1.00000000
:BAN00025:  25    0.992913    1.053183  0.93394448
:BAN00026:  26    0.992913    1.053183  0.93394448
:BAN00027:  27    1.033727    1.071775  0.06605552
:BAN00028:  28    1.033727    1.071775  0.06605552
:BAN00029:  29    1.046576    1.071775  0.00000000
:BAN00030:  30    1.046576    1.071775  0.00000000
:BAN00031:  31    1.063237    1.141557  0.00000000
:BAN00032:  32    1.063237    1.141557  0.00000000
:BAN00033:  33    1.099122    1.155145  0.00000000
        Energy to separate low and high energystates:    0.94291


:NLDA  : NUMBER OF ELECTRONS          =  26.000

:FLDA  : F E R M I - ENERGY           =   1.54000




:POS001: AT.NR.   1 POSITION = 0.00000 0.00000 0.00000  MULTIPLICITY =  1

       LMMAX  5
       LM=   0 0  4 0  4 4  6 0  6 4




:POS002: AT.NR.   2 POSITION = 0.00000 0.00000 0.00000  MULTIPLICITY =  2

       LMMAX  6
       LM=   0 0  4 0  4 4  6 0  6 4 -3 2
:FER DMFT Fermi Energy   1.02064
:EORB          0.080615662
:SUM SUM OF DMFT BAND ENERGIES          1.362539179

:CHA001: TOTAL CHARGE INSIDE SPHERE   1 =     8.232867
:PCS001: PARTIAL CHARGES SPHERE =  1 S,P,D,F,      D-EG,D-T2G 
:QTL001: 1.8007 4.1893 0.2582 1.9802 0.0000 0.0000 0.0000 0.0620 0.2181 0.0000 0.0000 0.0000
        Q-s-low E-s-low   Q-p-low E-p-low   Q-d-low E-d-low   Q-f-low E-f-low
:EPL001:  1.8005 -2.1156    4.1870 -0.3318    0.2543  0.5232    0.2680  0.6680
        Q-s-hi  E-s-hi    Q-p-hi  E-p-hi    Q-d-hi  E-d-hi    Q-f-hi  E-f-hi 
:EPH001:  0.0002  1.0652    0.0023  1.0539    0.0040  1.0473    1.7122  1.0301

:CHA002: TOTAL CHARGE INSIDE SPHERE   2 =     5.221840
:PCS002: PARTIAL CHARGES SPHERE =  2 S,P,D,F,      D-EG,D-T2G 
:QTL002: 1.5810 3.6234 0.0147 0.0022 0.0000 0.0000 0.0000 0.0050 0.0159 0.0000 0.0000 0.0000
        Q-s-low E-s-low   Q-p-low E-p-low   Q-d-low E-d-low   Q-f-low E-f-low
:EPL002:  1.5794 -0.3619    3.6024  0.6199    0.0115  0.0970    0.0019  0.0091
        Q-s-hi  E-s-hi    Q-p-hi  E-p-hi    Q-d-hi  E-d-hi    Q-f-hi  E-f-hi 
:EPH002:  0.0017  1.0542    0.0211  1.0522    0.0031  1.0228    0.0003  1.0374

:CHA  : TOTAL CHARGE INSIDE UNIT CELL =      26.000000

:ESUM  : SUM OF EIGENVALUES =           1.395748610


------- UO2_5.scfc --------

        1.ATOM      U  4+                21 CORE STATES
:1S 001: 1S               -8506.218580263 Ry
:2S 001: 2S               -1587.667524478 Ry
:2PP001: 2P*              -1530.913102653 Ry
:2P 001: 2P               -1249.717525913 Ry
:3S 001: 3S                -399.809688771 Ry
:3PP001: 3P*               -374.036297572 Ry
:3P 001: 3P                -309.253234909 Ry
:3DD001: 3D*               -268.440558391 Ry
:3D 001: 3D                -255.295395635 Ry
:4S 001: 4S                -100.879858013 Ry
:4PP001: 4P*                -89.286287932 Ry
:4P 001: 4P                 -72.376742072 Ry
:4DD001: 4D*                -53.911920967 Ry
:4D 001: 4D                 -50.803398420 Ry
:5S 001: 5S                 -21.474573355 Ry
:5PP001: 5P*                -16.968025392 Ry
:5P 001: 5P                 -12.938405539 Ry
:4FF001: 4F*                -26.517002208 Ry
:4F 001: 4F                 -25.707036664 Ry
:5DD001: 5D*                 -6.350058846 Ry
:5D 001: 5D                  -5.752127796 Ry

        2.ATOM      O  2-                 1 CORE STATES
:1S 002: 1S                 -35.930453228 Ry

------- UO2_5.scfm --------
:CINT001 Core Integral Atom   1   77.964086
:CINT002 Core Integral Atom   2    2.000000
     
       CHARGES OF NEW CHARGE DENSITY
:NTO   : INTERSTITIAL CHARGE =     7.323472
:NTO001: CHARGE SPHERE  1    =    86.196953
:NTO002: CHARGE SPHERE  2    =     7.221840

:NEC01: NUCLEAR AND ELECTRONIC CHARGE    108.00000   107.96410
     
       CHARGES OF OLD CHARGE DENSITY
:OTO   : INTERSTITIAL CHARGE =     7.360265
:OTO001: CHARGE SPHERE  1    =    86.226436
:OTO002: CHARGE SPHERE  2    =     7.206649
:DNEW  1   -0.0295
:DNEW  2    0.0152

:NEC02: NUCLEAR AND ELECTRONIC CHARGE    108.00000   108.00000
     
       CONVERGENCE TEST
:DTO001: DIFFERENCE IN SPHERE  1 =  0.0260848
:DTO002: DIFFERENCE IN SPHERE  2 =  0.0175771

:DIS  :  CHARGE DISTANCE       ( 0.0260848 for atom    1 spin 1)      0.0204130
:BIG check (qbig,qrms,qtot)    0.869D-02   0.147D-01   0.204D-01
 
******************************************************
* MULTISECANT MIXING VER6 RELEASE 6.0 OPTIONS        *
* Standard Mode with controls                        *
* Regularization       1.000E-06                     *
* Trust Region Control Active                        *
* Max Number of Memory Steps    8                    *
******************************************************
 
:PLANE:  INTERSTITIAL TOTAL      2.54226 DISTAN  1.595E-01 % 
:CHARG:  CLM CHARGE   /ATOM    345.91650 DISTAN  1.087E-02 % 
 
 Step History DMIX, Red, Pred, Trust, FRMS, FABS
  2  2.5000E-02  1.0000E+00  1.0000E+00  1.0000E+00
  3  6.2500E-02  7.4047E-01  1.0000E+00  1.0000E+00
  4  7.0780E-02  6.4954E-01  3.9981E-01  1.5917E+00
  5  8.7285E-02  1.0000E+00  1.5577E-01  2.0659E+00
  
:NORMS:  Nuclear, Spectral, Froebius, Shanno-Pua   0.2056E+01  0.1672E+01  0.1857E+01  0.4641E+00
:INFO :  Number of Memory Steps    4 Skipping    0
:INFO :  SLambda=    2.0555168  Max    2.0555168

Eigenvalues, unscaled except for SY+YY
   #     SY Real        SY Imag          SS             YY         SY+YY Real      SY+YY Imag
   1   1.506387E+00   0.000000E+00   1.067817E+00   2.984243E+00   5.967777E+00   0.000000E+00
   2   3.444874E-01   0.000000E+00   9.266007E-02   1.015556E+00   1.836551E+00   0.000000E+00
   3   9.167124E-16   0.000000E+00  -5.179797E-17   1.930370E-04   1.710355E-04   0.000000E+00
   4   2.197310E-06   0.000000E+00   1.011648E-06   7.309295E-06   9.466598E-06   0.000000E+00
 
:INFO :  Increased using Multisecant Shanno-Phua
:INFO :  Singular value   5.977E+00 Weight  1.0000E+00 Projections   4.218E+00  3.393E-02
:INFO :  Singular value   1.834E+00 Weight  1.0000E+00 Projections  -6.040E+00  5.420E-02
:INFO :  Singular value   1.711E-04 Weight  9.9970E-01 Projections   1.969E+00  2.968E+00
:INFO :  Singular value   9.465E-06 Weight  9.0959E-01 Projections  -4.704E-01 -7.040E+00
 
:DIRM :  MEMORY 4/8 RESCALE  15.92 RED 0.956 PRED 0.156 NEXT 0.126
:INFO :  Blimit    2.259E+00  1.230E+00  7.736E-01  3.805E+00
:DIRP :  |MSR1|= 4.323E-03 |PRATT|= 6.456E-02 ANGLE=  71.0 DEGREES
:DIRQ :  |MSR1|= 2.841E-03 |PRATT|= 7.518E-02 ANGLE=  97.5 DEGREES
:DIR  :  |MSR1|= 5.173E-03 |PRATT|= 9.909E-02 ANGLE=  82.9 DEGREES
:MIX  :   MSE1   REGULARIZATION: 2.98E-06  GREED: 0.116  Newton 1.00  0.05                
     
       CHARGES OF MIXED CHARGE DENSITY
:CTO   : INTERSTITIAL CHARGE =     7.360030
:CTO001: CHARGE SPHERE  1    =    86.226610
:CTO002: CHARGE SPHERE  2    =     7.206680

:NEC03: NUCLEAR AND ELECTRONIC CHARGE    108.00000   108.00000

PW CHANGE     H    K    L       Current     Change     Residue
:PTO001:      0    0    0  9.59861394E-02  2.724E-06  9.352E-06
:PTO002:     -1   -1   -1  2.26101962E-01  8.995E-06 -3.278E-04
:PTO003:      0    0   -2 -1.21644123E-03 -8.562E-06 -4.421E-04
:PTO004:      0   -2   -2  2.98618337E-01  2.200E-05  2.934E-04
:PTO005:     -1   -1   -3  1.50590250E-01  2.846E-05  1.026E-04
:PTO006:     -2   -2   -2 -2.30542633E-02  1.978E-05 -4.943E-05
:PTO007:      0    0   -4  4.10121550E-02 -1.164E-05  1.841E-05
:PTO008:     -1   -3   -3  2.33304472E-02 -9.327E-07  7.685E-05
:PTO009:      0   -2   -4 -5.37763279E-02  1.901E-05  4.469E-05
:PTO010:     -2   -2   -4  3.40094259E-02 -1.979E-05  5.136E-05
:PTO011:     -3   -3   -3 -6.38725818E-03  3.764E-06  8.891E-05
:PTO012:     -1   -1   -5 -7.77600791E-03 -2.066E-05 -9.480E-05

:ENE  : ********** TOTAL ENERGY IN Ry =       -56437.56949655


------- UO2_5.scf0 --------


            ---------
:ITE087: 87. ITERATION
            ---------

:NATO :    2 INDEPENDENT AND    3 TOTAL ATOMS IN UNITCELL
       SUBSTANCE: blebleble                                                   

       LATTICE                      = F   
:POT  : POTENTIAL OPTION    5
:LAT  : LATTICE CONSTANTS= 10.16717 10.16717 10.16717    1.571    1.571    1.571
:VOL  : UNIT CELL VOLUME =     262.74851
       MODE OF CALCULATION IS       = RELA
       NON-SPINPOLARIZED CALCULATION
:IFFT  : FFT-parameters:   80   80   80 Factor: 2.00
       ATOMNUMBER=  1 U  4+      VCOUL-ZERO = -0.37552E+00
       ATOMNUMBER=  2 O  2-      VCOUL-ZERO =  0.87253E+00
:FIT001: LUSE= 13 SIGMA OF V-XC FIT FOR ATOM  1  0.8222882E-04
:FIT001: LUSE= 13 SIGMA OF V-XC FIT FOR ATOM  1  0.8222882E-04
:FIT002: LUSE= 13 SIGMA OF V-XC FIT FOR ATOM  2  0.1591911E-03
:FIT002: LUSE= 13 SIGMA OF V-XC FIT FOR ATOM  2  0.1591911E-03
:DEN  : DENSITY INTEGRAL  =        -20912.97697506   (Ry)
       ELS_POTENTIAL_AT Z=0 and Z=0.5:  -3.44509  -3.44509
       ELS_POTENTIAL_AT Y=0 and Y=0.5:   0.00000   0.00000
:VZERO:v0,v0c,v0x  -4.18891  -3.44509  -0.74382 v5,v5c,v5x  -4.18891  -3.44509  -0.74382
:VZERY:v0,v0c,v0x  -0.88887   0.00000  -0.88887 v5,v5c,v5x  -0.88887   0.00000  -0.88887
:VZERX:v0,v0c,v0x  -0.88887   0.00000  -0.88887 v5,v5c,v5x  -0.88887   0.00000  -0.88887

------- UO2_5.scf1 --------

          ATOMIC SPHERE DEPENDENT PARAMETERS FOR ATOM  U  4+     
:e__0001: OVERALL ENERGY PARAMETER IS    0.8383
          OVERALL BASIS SET ON ATOM IS LAPW
:E0_0001: E( 0)=    0.8383
             APW+lo
:E0_0001: E( 0)=   -2.1214   E(BOTTOM)=   -3.470   E(TOP)=   -0.772  5  6   235
             LOCAL ORBITAL
:E1_0001: E( 1)=   -1.2800   E(BOTTOM)=   -1.738   E(TOP)= -200.000  4 -1   213
             APW+lo
:E1_0001: E( 1)=    1.2383
             LOCAL ORBITAL
:E3_0001: E( 3)=    1.1066   E(BOTTOM)=    0.316   E(TOP)=    1.897  1  2   180
             APW+lo
:E2_0001: E( 2)=    0.8730   E(BOTTOM)=    0.873   E(TOP)= -200.000  3 -1   112
             APW+lo

          ATOMIC SPHERE DEPENDENT PARAMETERS FOR ATOM  O  2-     
:e__0002: OVERALL ENERGY PARAMETER IS    0.8383
          OVERALL BASIS SET ON ATOM IS LAPW
:E0_0002: E( 0)=   -0.2321   E(BOTTOM)=   -1.606   E(TOP)=    1.142  1  2   241
             APW+lo
:E0_0002: E( 0)=    1.2383
             LOCAL ORBITAL
:E1_0002: E( 1)=    0.8383
             APW+lo

       K=   0.00000   0.00000   0.00000            1
:RKM  : MATRIX SIZE  675LOs:  30  RKM= 8.39  WEIGHT= 1.00  PGR:    
       EIGENVALUES ARE:
:EIG00001:      -2.2114268   -0.4422764   -0.3640645   -0.3640645   -0.3640645
:EIG00006:      -0.3361946    0.4687499    0.4687499    0.4687499    0.7146492
:EIG00011:       0.7146492    0.7146492    1.0797573    1.0797573    1.0797573
:EIG00016:       1.1254625    1.1515592    1.1515592    1.1515592    1.2134729
:EIG00021:       1.2359374    1.2359374    1.7819306    1.7819306    1.7819306
:EIG00026:       1.9796255    1.9796255    1.9796255    2.4114056    2.7340679
:EIG00031:       2.7340679    2.7510648    2.7510648    2.7510648    3.2230402
:EIG00036:       3.2230402    3.2230402    3.3122136    3.3122136    3.3122136
:EIG00041:       3.4686789    3.8000970    3.8000970    3.9006729    3.9006729
:EIG00046:       3.9006729    3.9037506    3.9037506    3.9100200    3.9100200
 
:EIG00051:       3.9100200    4.1443427    4.1916970    4.1916970    4.1916970
:EIG00056:       4.2461986    4.3052102    4.3052102    4.3052102    4.4183146
:EIG00061:       4.4183146    4.4183146    4.4302465    4.4302465    4.4302465
:EIG00066:       4.7894604    5.3417642    5.3417642    5.3417642    5.5452237
:EIG00071:       5.5452237    5.6309456    5.6309456    5.6309456    5.7801524
:EIG00076:       6.2581825    6.2581825    6.3013036    6.3013036    6.3013036
:EIG00081:       6.4898623    6.4898623    6.4898623    6.5403620    6.5403620
:EIG00086:       6.5403620    6.8513961    6.8513961    6.8513961    6.9290121
:EIG00091:       6.9290121    6.9645540    7.0578958    7.0578958    7.0862690
:EIG00096:       7.0862690    7.0862690    7.2338659    7.2338659    7.2338659
 
:EIG00101:       7.3062383    7.3062383    7.3062383    7.3448241    7.4618052
:EIG00106:       7.4618052    7.4618052    7.5747073    7.6484802    7.7445275
:EIG00111:       7.7445275    7.7512108    7.7512108    7.7512108    7.7805704
:EIG00116:       7.7805704    7.7805704    7.9512539    7.9512539    7.9512539
:EIG00121:       8.2121916    8.2121916    8.2121916
       ********************************************************

:KPT   :      NUMBER OF K-POINTS:   145

------- UO2_5.scfso --------
   0.0   0.0 angle (M,z), angle (M,x) deg
 
        SPIN-ORBIT EIGENVALUES:
     K=   0.00000   0.00000   0.00000            1
      MATRIX SIZE=  246   WEIGHT= 1.00
     EIGENVALUES ARE:
          -2.2114268   -2.2114268   -0.7636620   -0.7636620   -0.4422764
          -0.4422764   -0.3361990   -0.3361990   -0.1988071   -0.1988071
          -0.1988071   -0.1988071    0.4667170    0.4667170    0.4667170
           0.4667170    0.4719805    0.4719805    0.7083102    0.7083102
           0.7179676    0.7179676    0.7179676    0.7179676    1.0533412
           1.0533412    1.0719199    1.0719199    1.0719199    1.0719199
           1.1417257    1.1417257    1.1552608    1.1552608    1.1552608
           1.1552608    1.1697653    1.1697653    1.2134729    1.2134729

           1.2340684    1.2340684    1.2340684    1.2340684    1.7703895
           1.7703895    1.7703895    1.7703895    1.8049002    1.8049002
           1.9172518    1.9172518    2.0090848    2.0090848    2.0090848
           2.0090848    2.4114056    2.4114056    2.7238364    2.7238364
           2.7238364    2.7238364    2.7567727    2.7567727    2.7567727
           2.7567727    2.7602565    2.7602565    3.0418907    3.0418907
           3.3090570    3.3090570    3.3124955    3.3124955    3.3124955
           3.3124955    3.3272853    3.3272853    3.3272853    3.3272853

           3.4691864    3.4691864    3.7947778    3.7947778    3.7947778
           3.7947778    3.8975166    3.8975166    3.8975166    3.8975166
           3.9037506    3.9037506    3.9037506    3.9037506    3.9100010
           3.9100010    3.9100295    3.9100295    3.9100295    3.9100295
           3.9197050    3.9197050    4.1443427    4.1443427    4.1918731
           4.1918731    4.1918731    4.1918731    4.1919025    4.1919025
           4.2461986    4.2461986    4.3052012    4.3052012    4.3052012
           4.3052012    4.3052598    4.3052598    4.4122746    4.4122746

           4.4204355    4.4204355    4.4204355    4.4204355    4.4289703
           4.4289703    4.4339984    4.4339984    4.4339984    4.4339984

       ********************************************************

------- UO2_5.scf2 --------
:GMA  : POTENTIAL AND CHARGE CUT-OFF  12.00 Ry**.5
         Bandranges (emin - emax) and occupancy:
:BAN00018:  18    0.471981    0.709843  1.00000000
:BAN00019:  19    0.581699    0.711948  1.00000000
:BAN00020:  20    0.581699    0.711948  1.00000000
:BAN00021:  21    0.676335    0.744494  1.00000000
:BAN00022:  22    0.676335    0.744494  1.00000000
:BAN00023:  23    0.713931    0.783353  1.00000000
:BAN00024:  24    0.713931    0.783353  1.00000000
:BAN00025:  25    0.993038    1.053341  0.93390044
:BAN00026:  26    0.993038    1.053341  0.93390044
:BAN00027:  27    1.033860    1.071920  0.06609956
:BAN00028:  28    1.033860    1.071920  0.06609956
:BAN00029:  29    1.046707    1.071920  0.00000000
:BAN00030:  30    1.046707    1.071920  0.00000000
:BAN00031:  31    1.063358    1.141726  0.00000000
:BAN00032:  32    1.063358    1.141726  0.00000000
:BAN00033:  33    1.099254    1.155261  0.00000000
        Energy to separate low and high energystates:    0.94304


:NLDA  : NUMBER OF ELECTRONS          =  26.000

:FLDA  : F E R M I - ENERGY           =   1.54014




:POS001: AT.NR.   1 POSITION = 0.00000 0.00000 0.00000  MULTIPLICITY =  1

       LMMAX  5
       LM=   0 0  4 0  4 4  6 0  6 4




:POS002: AT.NR.   2 POSITION = 0.00000 0.00000 0.00000  MULTIPLICITY =  2

       LMMAX  6
       LM=   0 0  4 0  4 4  6 0  6 4 -3 2
:FER DMFT Fermi Energy   1.02117
:EORB          0.079490266
:SUM SUM OF DMFT BAND ENERGIES          1.364486824

:CHA001: TOTAL CHARGE INSIDE SPHERE   1 =     8.231455
:PCS001: PARTIAL CHARGES SPHERE =  1 S,P,D,F,      D-EG,D-T2G 
:QTL001: 1.8007 4.1893 0.2582 1.9788 0.0000 0.0000 0.0000 0.0620 0.2181 0.0000 0.0000 0.0000
        Q-s-low E-s-low   Q-p-low E-p-low   Q-d-low E-d-low   Q-f-low E-f-low
:EPL001:  1.8005 -2.1155    4.1870 -0.3318    0.2543  0.5232    0.2670  0.6678
        Q-s-hi  E-s-hi    Q-p-hi  E-p-hi    Q-d-hi  E-d-hi    Q-f-hi  E-f-hi 
:EPH001:  0.0002  1.0652    0.0023  1.0540    0.0040  1.0473    1.7117  1.0303

:CHA002: TOTAL CHARGE INSIDE SPHERE   2 =     5.222573
:PCS002: PARTIAL CHARGES SPHERE =  2 S,P,D,F,      D-EG,D-T2G 
:QTL002: 1.5811 3.6242 0.0147 0.0022 0.0000 0.0000 0.0000 0.0050 0.0159 0.0000 0.0000 0.0000
        Q-s-low E-s-low   Q-p-low E-p-low   Q-d-low E-d-low   Q-f-low E-f-low
:EPL002:  1.5794 -0.3619    3.6031  0.6199    0.0115  0.0970    0.0019  0.0090
[...]
* Max Number of Memory Steps    8                    *
******************************************************
 
:PLANE:  INTERSTITIAL TOTAL      2.54490 DISTAN  1.042E-03 % 
:CHARG:  CLM CHARGE   /ATOM    345.91574 DISTAN  6.290E-05 % 
 
 Step History DMIX, Red, Pred, Trust, FRMS, FABS
 18  4.1358E-02  7.0212E-01  1.9309E-02  5.5144E-01
 19  5.5610E-02  2.6476E-01  5.5645E-02  7.4146E-01
 20  6.3669E-02  6.2549E-01  2.6066E-01  8.4893E-01
 21  7.9142E-02  7.8039E-01  2.4341E-01  1.0552E+00
 22  9.9366E-02  2.4609E+00  2.7486E-01  2.7179E+00
 23  9.6381E-02  6.5481E-01  7.4690E-02  1.2851E+00
 24  1.0597E-01  2.8823E-01  5.4971E-02  2.9966E+00
 25  1.2789E-01  1.0000E+00  1.3396E-01  2.5155E+00
  
:NORMS:  Nuclear, Spectral, Froebius, Shanno-Pua   0.1355E+01  0.1424E+01  0.1404E+01  0.2194E+00
:INFO :  Number of Memory Steps    8 Skipping   16
:INFO :  SLambda=    1.4236349  Max    1.4236349

Eigenvalues, unscaled except for SY+YY
   #     SY Real        SY Imag          SS             YY         SY+YY Real      SY+YY Imag
   1   1.730385E+00   0.000000E+00   3.762554E+00   7.625705E+00   1.001768E+01   0.000000E+00
   2   1.260915E-01   6.451355E-03   2.377501E-01   2.669218E-01   5.849826E-01   0.000000E+00
   3   1.260915E-01  -6.451355E-03   4.283469E-02   8.809516E-02   2.005216E-01   0.000000E+00
   4   1.046065E-02   0.000000E+00   9.297254E-03   1.188616E-02   2.517706E-02   0.000000E+00
   5   3.824665E-03   0.000000E+00   3.405575E-03   6.515745E-03   1.354797E-02   0.000000E+00
   6   1.930701E-06   0.000000E+00   1.050567E-06   6.956184E-04   9.297493E-04   0.000000E+00
   7   1.546394E-04   7.075728E-05   6.517532E-05   2.672714E-06   2.704093E-06   0.000000E+00
   8   1.546394E-04  -7.075728E-05   1.077633E-04   1.775697E-04   3.869035E-04   0.000000E+00
 
:INFO :  Singular value   1.005E+01 Weight  1.0000E+00 Projections   7.448E-03 -4.809E-05
:INFO :  Singular value   5.851E-01 Weight  1.0000E+00 Projections   8.521E-03 -1.094E-05
:INFO :  Singular value   2.017E-01 Weight  1.0000E+00 Projections  -8.544E-03 -2.786E-04
:INFO :  Singular value   2.510E-02 Weight  1.0000E+00 Projections   1.744E-02  3.242E-04
:INFO :  Singular value   1.359E-02 Weight  1.0000E+00 Projections  -1.633E-02  1.151E-03
:INFO :  Singular value   9.316E-04 Weight  9.9993E-01 Projections   7.808E-03  1.120E-02
:INFO :  Singular value   3.834E-04 Weight  9.9960E-01 Projections   9.868E-03 -3.899E-02
:INFO :  Singular value   2.698E-06 Weight  1.1124E-01 Projections  -2.687E-02 -2.146E-03
 
:DIRM :  MEMORY 8/8 RESCALE  18.59 RED 0.118 PRED 0.134 NEXT 0.518
:INFO :  Blimit    2.856E+00  1.051E+00  1.000E+00  4.202E+00
:DIRP :  |MSR1|= 7.493E-04 |PRATT|= 4.929E-04 ANGLE=  55.1 DEGREES
:DIRQ :  |MSR1|= 4.080E-04 |PRATT|= 4.352E-04 ANGLE=  25.8 DEGREES
:DIR  :  |MSR1|= 8.531E-04 |PRATT|= 6.575E-04 ANGLE=  48.5 DEGREES
:MIX  :   MSE1   REGULARIZATION: 7.63E-06  GREED: 0.165  Newton 1.00  1.30                
     
       CHARGES OF MIXED CHARGE DENSITY
:CTO   : INTERSTITIAL CHARGE =     7.367339
:CTO001: CHARGE SPHERE  1    =    86.209756
:CTO002: CHARGE SPHERE  2    =     7.211452

:NEC03: NUCLEAR AND ELECTRONIC CHARGE    108.00000   108.00000

PW CHANGE     H    K    L       Current     Change     Residue
:PTO001:      0    0    0  9.60613496E-02 -5.420E-07  3.116E-08
:PTO002:     -1   -1   -1  2.26239542E-01 -1.082E-06  1.830E-06
:PTO003:      0    0   -2 -1.11609697E-03  4.668E-07  1.086E-06
:PTO004:      0   -2   -2  2.99016475E-01 -4.105E-06 -3.038E-07
:PTO005:     -1   -1   -3  1.51296054E-01 -4.750E-06 -1.737E-06
:PTO006:     -2   -2   -2 -2.27400529E-02 -5.062E-07  5.613E-07
:PTO007:      0    0   -4  4.10346200E-02 -9.922E-07 -2.950E-07
:PTO008:     -1   -3   -3  2.37638891E-02 -2.280E-06  1.077E-06
:PTO009:      0   -2   -4 -5.33019042E-02 -1.538E-06 -6.093E-07
:PTO010:     -2   -2   -4  3.40864050E-02 -3.386E-06 -1.214E-06
:PTO011:     -3   -3   -3 -6.30411401E-03 -1.788E-06 -1.113E-06
:PTO012:     -1   -1   -5 -7.79625889E-03 -1.095E-06 -9.853E-07

:ENE  : ********** TOTAL ENERGY IN Ry =       -56437.57015189


------- UO2_5.scf0 --------


            ---------
:ITE107:107. ITERATION
            ---------

:NATO :    2 INDEPENDENT AND    3 TOTAL ATOMS IN UNITCELL
       SUBSTANCE: blebleble                                                   

       LATTICE                      = F   
:POT  : POTENTIAL OPTION    5
:LAT  : LATTICE CONSTANTS= 10.16717 10.16717 10.16717    1.571    1.571    1.571
:VOL  : UNIT CELL VOLUME =     262.74851
       MODE OF CALCULATION IS       = RELA
       NON-SPINPOLARIZED CALCULATION
:IFFT  : FFT-parameters:   80   80   80 Factor: 2.00
       ATOMNUMBER=  1 U  4+      VCOUL-ZERO = -0.38063E+00
       ATOMNUMBER=  2 O  2-      VCOUL-ZERO =  0.87591E+00
:FIT001: LUSE= 13 SIGMA OF V-XC FIT FOR ATOM  1  0.8382322E-04
:FIT001: LUSE= 13 SIGMA OF V-XC FIT FOR ATOM  1  0.8382322E-04
:FIT002: LUSE= 13 SIGMA OF V-XC FIT FOR ATOM  2  0.1578163E-03
:FIT002: LUSE= 13 SIGMA OF V-XC FIT FOR ATOM  2  0.1578163E-03
:DEN  : DENSITY INTEGRAL  =        -20911.68184257   (Ry)
       ELS_POTENTIAL_AT Z=0 and Z=0.5:  -3.45503  -3.45503
       ELS_POTENTIAL_AT Y=0 and Y=0.5:   0.00000   0.00000
:VZERO:v0,v0c,v0x  -4.19942  -3.45503  -0.74439 v5,v5c,v5x  -4.19942  -3.45503  -0.74439
:VZERY:v0,v0c,v0x  -0.88929   0.00000  -0.88929 v5,v5c,v5x  -0.88929   0.00000  -0.88929
:VZERX:v0,v0c,v0x  -0.88929   0.00000  -0.88929 v5,v5c,v5x  -0.88929   0.00000  -0.88929

------- UO2_5.scf1 --------

          ATOMIC SPHERE DEPENDENT PARAMETERS FOR ATOM  U  4+     
:e__0001: OVERALL ENERGY PARAMETER IS    0.8383
          OVERALL BASIS SET ON ATOM IS LAPW
:E0_0001: E( 0)=    0.8383
             APW+lo
:E0_0001: E( 0)=   -2.1322   E(BOTTOM)=   -3.480   E(TOP)=   -0.784  5  6   232
             LOCAL ORBITAL
:E1_0001: E( 1)=   -1.2800   E(BOTTOM)=   -1.747   E(TOP)= -200.000  4 -1   216
             APW+lo
:E1_0001: E( 1)=    1.2383
             LOCAL ORBITAL
:E3_0001: E( 3)=    1.0945   E(BOTTOM)=    0.306   E(TOP)=    1.883  1  2   175
             APW+lo
:E2_0001: E( 2)=    0.8644   E(BOTTOM)=    0.864   E(TOP)= -200.000  3 -1   109
             APW+lo

          ATOMIC SPHERE DEPENDENT PARAMETERS FOR ATOM  O  2-     
:e__0002: OVERALL ENERGY PARAMETER IS    0.8383
          OVERALL BASIS SET ON ATOM IS LAPW
:E0_0002: E( 0)=   -0.2271   E(BOTTOM)=   -1.601   E(TOP)=    1.147  1  2   239
             APW+lo
:E0_0002: E( 0)=    1.2383
             LOCAL ORBITAL
:E1_0002: E( 1)=    0.8383
             APW+lo

       K=   0.00000   0.00000   0.00000            1
:RKM  : MATRIX SIZE  675LOs:  30  RKM= 8.39  WEIGHT= 1.00  PGR:    
       EIGENVALUES ARE:
:EIG00001:      -2.2208382   -0.4387330   -0.3708475   -0.3708475   -0.3708475
:EIG00006:      -0.3319396    0.4711694    0.4711694    0.4711694    0.7161684
:EIG00011:       0.7161684    0.7161684    1.0691008    1.0691008    1.0691008
:EIG00016:       1.1149381    1.1436961    1.1436961    1.1436961    1.2147047
:EIG00021:       1.2335779    1.2335779    1.7811646    1.7811646    1.7811646
:EIG00026:       1.9791976    1.9791976    1.9791976    2.4111921    2.7330236
:EIG00031:       2.7330236    2.7515133    2.7515133    2.7515133    3.2216373
:EIG00036:       3.2216373    3.2216373    3.3105728    3.3105728    3.3105728
:EIG00041:       3.4690493    3.7980856    3.7980856    3.9002011    3.9002011
:EIG00046:       3.9002011    3.9060085    3.9060085    3.9086559    3.9086559
 
:EIG00051:       3.9086559    4.1428259    4.1928297    4.1928297    4.1928297
:EIG00056:       4.2450536    4.3054158    4.3054158    4.3054158    4.4169293
:EIG00061:       4.4169293    4.4169293    4.4297943    4.4297943    4.4297943
:EIG00066:       4.7892341    5.3433639    5.3433639    5.3433639    5.5437923
:EIG00071:       5.5437923    5.6315272    5.6315272    5.6315272    5.7794159
:EIG00076:       6.2558757    6.2558757    6.2986881    6.2986881    6.2986881
:EIG00081:       6.4895032    6.4895032    6.4895032    6.5370926    6.5370926
:EIG00086:       6.5370926    6.8522884    6.8522884    6.8522884    6.9293526
:EIG00091:       6.9293526    6.9644346    7.0579593    7.0579593    7.0851813
:EIG00096:       7.0851813    7.0851813    7.2340842    7.2340842    7.2340842
 
:EIG00101:       7.3048349    7.3048349    7.3048349    7.3459571    7.4630517
:EIG00106:       7.4630517    7.4630517    7.5739836    7.6482992    7.7455192
:EIG00111:       7.7455192    7.7525860    7.7525860    7.7525860    7.7807563
:EIG00116:       7.7807563    7.7807563    7.9510928    7.9510928    7.9510928
:EIG00121:       8.2101994    8.2101994    8.2101994
       ********************************************************

:KPT   :      NUMBER OF K-POINTS:   145

------- UO2_5.scfso --------
   0.0   0.0 angle (M,z), angle (M,x) deg
 
        SPIN-ORBIT EIGENVALUES:
     K=   0.00000   0.00000   0.00000            1
      MATRIX SIZE=  246   WEIGHT= 1.00
     EIGENVALUES ARE:
          -2.2208382   -2.2208382   -0.7715198   -0.7715198   -0.4387330
          -0.4387330   -0.3319442   -0.3319442   -0.2050498   -0.2050498
          -0.2050498   -0.2050498    0.4690968    0.4690968    0.4690968
           0.4690968    0.4744628    0.4744628    0.7102795    0.7102795
           0.7191507    0.7191507    0.7191507    0.7191507    1.0426039
           1.0426039    1.0617773    1.0617773    1.0617773    1.0617773
           1.1312522    1.1312522    1.1470546    1.1470546    1.1470546
           1.1470546    1.1617770    1.1617770    1.2147047    1.2147047

           1.2317023    1.2317023    1.2317023    1.2317023    1.7695744
           1.7695744    1.7695744    1.7695744    1.8042450    1.8042450
           1.9165381    1.9165381    2.0087793    2.0087793    2.0087793
           2.0087793    2.4111921    2.4111921    2.7232846    2.7232846
           2.7232846    2.7232846    2.7567558    2.7567558    2.7567558
           2.7567558    2.7606653    2.7606653    3.0407409    3.0407409
           3.3074293    3.3074293    3.3108672    3.3108672    3.3108672
           3.3108672    3.3257552    3.3257552    3.3257552    3.3257552

           3.4695497    3.4695497    3.7928790    3.7928790    3.7928790
           3.7928790    3.8969556    3.8969556    3.8969556    3.8969556
           3.9060085    3.9060085    3.9060085    3.9060085    3.9086367
           3.9086367    3.9086655    3.9086655    3.9086655    3.9086655
           3.9191907    3.9191907    4.1428259    4.1428259    4.1930205
           4.1930205    4.1930205    4.1930205    4.1930235    4.1930235
           4.2450536    4.2450536    4.3054101    4.3054101    4.3054101
           4.3054101    4.3054571    4.3054571    4.4108890    4.4108890

           4.4192727    4.4192727    4.4192727    4.4192727    4.4285274
           4.4285274    4.4333090    4.4333090    4.4333090    4.4333090

       ********************************************************

------- UO2_5.scf2 --------
:GMA  : POTENTIAL AND CHARGE CUT-OFF  12.00 Ry**.5
         Bandranges (emin - emax) and occupancy:
:BAN00018:  18    0.474463    0.713254  1.00000000
:BAN00019:  19    0.584045    0.714350  1.00000000
:BAN00020:  20    0.584045    0.714350  1.00000000
:BAN00021:  21    0.677969    0.746866  1.00000000
:BAN00022:  22    0.677969    0.746866  1.00000000
:BAN00023:  23    0.715183    0.785771  1.00000000
:BAN00024:  24    0.715183    0.785771  1.00000000
:BAN00025:  25    0.984002    1.042604  0.93629814
:BAN00026:  26    0.984002    1.042604  0.93629814
:BAN00027:  27    1.024270    1.061777  0.06370186
:BAN00028:  28    1.024270    1.061777  0.06370186
:BAN00029:  29    1.036999    1.061777  0.00000000
:BAN00030:  30    1.036999    1.061777  0.00000000
:BAN00031:  31    1.054455    1.131252  0.00000000
:BAN00032:  32    1.054455    1.131252  0.00000000
:BAN00033:  33    1.089743    1.147055  0.00000000
        Energy to separate low and high energystates:    0.93400


:NLDA  : NUMBER OF ELECTRONS          =  26.000

:FLDA  : F E R M I - ENERGY           =   1.53064




:POS001: AT.NR.   1 POSITION = 0.00000 0.00000 0.00000  MULTIPLICITY =  1

       LMMAX  5
       LM=   0 0  4 0  4 4  6 0  6 4




:POS002: AT.NR.   2 POSITION = 0.00000 0.00000 0.00000  MULTIPLICITY =  2

       LMMAX  6
       LM=   0 0  4 0  4 4  6 0  6 4 -3 2
:FER DMFT Fermi Energy   1.02468
:EORB          0.046399692
:SUM SUM OF DMFT BAND ENERGIES          1.365208009

:CHA001: TOTAL CHARGE INSIDE SPHERE   1 =     8.245465
:PCS001: PARTIAL CHARGES SPHERE =  1 S,P,D,F,      D-EG,D-T2G 
:QTL001: 1.8018 4.1960 0.2628 1.9805 0.0000 0.0000 0.0000 0.0632 0.2209 0.0000 0.0000 0.0000
        Q-s-low E-s-low   Q-p-low E-p-low   Q-d-low E-d-low   Q-f-low E-f-low
:EPL001:  1.8015 -2.1246    4.1936 -0.3386    0.2586  0.5261    0.2673  0.6694
        Q-s-hi  E-s-hi    Q-p-hi  E-p-hi    Q-d-hi  E-d-hi    Q-f-hi  E-f-hi 
:EPH001:  0.0002  1.0553    0.0023  1.0443    0.0041  1.0386    1.7132  1.0209

:CHA002: TOTAL CHARGE INSIDE SPHERE   2 =     5.211471
:PCS002: PARTIAL CHARGES SPHERE =  2 S,P,D,F,      D-EG,D-T2G 
:QTL002: 1.5798 3.6144 0.0146 0.0022 0.0000 0.0000 0.0000 0.0050 0.0159 0.0000 0.0000 0.0000
        Q-s-low E-s-low   Q-p-low E-p-low   Q-d-low E-d-low   Q-f-low E-f-low
:EPL002:  1.5781 -0.3579    3.5932  0.6223    0.0115  0.0981    0.0019  0.0074
        Q-s-hi  E-s-hi    Q-p-hi  E-p-hi    Q-d-hi  E-d-hi    Q-f-hi  E-f-hi 
:EPH002:  0.0017  1.0451    0.0211  1.0427    0.0031  1.0137    0.0003  1.0282

:CHA  : TOTAL CHARGE INSIDE UNIT CELL =      26.000000

:ESUM  : SUM OF EIGENVALUES =           1.364603891


------- UO2_5.scfc --------

        1.ATOM      U  4+                21 CORE STATES
:1S 001: 1S               -8506.234823390 Ry
:2S 001: 2S               -1587.684422380 Ry
:2PP001: 2P*              -1530.929845727 Ry
:2P 001: 2P               -1249.734412644 Ry
:3S 001: 3S                -399.827174771 Ry
:3PP001: 3P*               -374.053760087 Ry
:3P 001: 3P                -309.270693041 Ry
:3DD001: 3D*               -268.458019586 Ry
:3D 001: 3D                -255.312869088 Ry
:4S 001: 4S                -100.896513354 Ry
:4PP001: 4P*                -89.302948437 Ry
:4P 001: 4P                 -72.393243925 Ry
:4DD001: 4D*                -53.928451047 Ry
:4D 001: 4D                 -50.819887077 Ry
:5S 001: 5S                 -21.490196758 Ry
:5PP001: 5P*                -16.983521060 Ry
:5P 001: 5P                 -12.953510606 Ry
:4FF001: 4F*                -26.533645080 Ry
:4F 001: 4F                 -25.723656229 Ry
:5DD001: 5D*                 -6.364542738 Ry
:5D 001: 5D                  -5.766418496 Ry

        2.ATOM      O  2-                 1 CORE STATES
:1S 002: 1S                 -35.923961161 Ry

------- UO2_5.scfm --------
:CINT001 Core Integral Atom   1   77.964224
:CINT002 Core Integral Atom   2    2.000000
     
       CHARGES OF NEW CHARGE DENSITY
:NTO   : INTERSTITIAL CHARGE =     7.331592
:NTO001: CHARGE SPHERE  1    =    86.209689
:NTO002: CHARGE SPHERE  2    =     7.211471

:NEC01: NUCLEAR AND ELECTRONIC CHARGE    108.00000   107.96422
     
       CHARGES OF OLD CHARGE DENSITY
:OTO   : INTERSTITIAL CHARGE =     7.367339
:OTO001: CHARGE SPHERE  1    =    86.209756
:OTO002: CHARGE SPHERE  2    =     7.211452
:DNEW  1   -0.0001
:DNEW  2    0.0000

:NEC02: NUCLEAR AND ELECTRONIC CHARGE    108.00000   108.00000
     
       CONVERGENCE TEST
:DTO001: DIFFERENCE IN SPHERE  1 =  0.0000548
:DTO002: DIFFERENCE IN SPHERE  2 =  0.0000464

:DIS  :  CHARGE DISTANCE       ( 0.0000548 for atom    1 spin 1)      0.0000492
:BIG check (qbig,qrms,qtot)    0.183D-04   0.349D-04   0.492D-04
 
******************************************************
* MULTISECANT MIXING VER6 RELEASE 6.0 OPTIONS        *
* Standard Mode with controls                        *
* Regularization       1.000E-06                     *
* Trust Region Control Active                        *
* Max Number of Memory Steps    8                    *
******************************************************
 
:PLANE:  INTERSTITIAL TOTAL      2.54488 DISTAN  1.305E-03 % 
:CHARG:  CLM CHARGE   /ATOM    345.91570 DISTAN  3.423E-05 % 
 
 Step History DMIX, Red, Pred, Trust, FRMS, FABS
 19  5.5610E-02  2.6476E-01  5.5645E-02  7.4146E-01
 20  6.3669E-02  6.2549E-01  2.6066E-01  8.4893E-01
 21  7.9142E-02  7.8039E-01  2.4341E-01  1.0552E+00
 22  9.9366E-02  2.4609E+00  2.7486E-01  2.7179E+00
 23  9.6381E-02  6.5481E-01  7.4690E-02  1.2851E+00
 24  1.0597E-01  2.8823E-01  5.4971E-02  2.9966E+00
 25  1.2789E-01  1.1773E-01  1.3396E-01  2.5155E+00
 26  1.6510E-01  1.0000E+00  5.1824E-01  4.2022E+00
  
:NORMS:  Nuclear, Spectral, Froebius, Shanno-Pua   0.1347E+01  0.1432E+01  0.1397E+01  0.2716E+00
:INFO :  Number of Memory Steps    8 Skipping   17
:INFO :  SLambda=    1.4318324  Max    1.4318324

Eigenvalues, unscaled except for SY+YY
   #     SY Real        SY Imag          SS             YY         SY+YY Real      SY+YY Imag
   1   1.972267E+00   0.000000E+00   3.346749E+00   6.861316E+00   9.511793E+00   0.000000E+00
   2   5.310751E-01   0.000000E+00   5.030448E-01   8.265115E-01   1.684724E+00   0.000000E+00
   3   1.485606E-01   0.000000E+00   2.166825E-01   2.551164E-01   5.606288E-01   0.000000E+00
   4   4.936145E-02   0.000000E+00   2.292891E-02   4.169841E-02   9.585412E-02   0.000000E+00
   5   9.185642E-03   0.000000E+00   6.905883E-03   1.114533E-02   2.296364E-02   0.000000E+00
   6   2.484658E-03   0.000000E+00   1.998278E-03   3.589709E-03   7.874075E-03   0.000000E+00
   7   8.243420E-06   0.000000E+00   4.940239E-05   3.678534E-05   5.223262E-05   0.000000E+00
   8   1.232993E-04   0.000000E+00   1.423618E-06   5.855932E-04   7.661505E-04   0.000000E+00
 
:INFO :  Singular value   9.562E+00 Weight  1.0000E+00 Projections  -1.651E-03  2.066E-04
:INFO :  Singular value   1.681E+00 Weight  1.0000E+00 Projections   2.104E-03 -3.414E-04
:INFO :  Singular value   5.601E-01 Weight  1.0000E+00 Projections  -3.226E-03  1.518E-04
:INFO :  Singular value   9.681E-02 Weight  1.0000E+00 Projections   2.105E-03 -1.634E-03
:INFO :  Singular value   2.284E-02 Weight  1.0000E+00 Projections  -3.222E-03  5.051E-04
:INFO :  Singular value   7.929E-03 Weight  1.0000E+00 Projections   2.009E-03 -3.059E-03
:INFO :  Singular value   7.563E-04 Weight  9.9992E-01 Projections   6.037E-04  2.730E-03
:INFO :  Singular value   5.220E-05 Weight  9.8301E-01 Projections  -2.655E-04 -4.114E-03
 
:DIRM :  MEMORY 8/8 RESCALE  16.75 RED 0.973 PRED 0.518 NEXT 0.210
:INFO :  Blimit    3.321E+00  1.063E+00  1.000E+00  4.252E+00
:DIRP :  |MSR1|= 5.148E-04 |PRATT|= 5.565E-04 ANGLE=  12.4 DEGREES
:DIRQ :  |MSR1|= 1.452E-04 |PRATT|= 2.368E-04 ANGLE=  25.9 DEGREES
:DIR  :  |MSR1|= 5.349E-04 |PRATT|= 6.048E-04 ANGLE=  16.1 DEGREES
:MIX  :   MSE1   REGULARIZATION: 6.86E-06  GREED: 0.200  Newton 1.00  0.88                
     
       CHARGES OF MIXED CHARGE DENSITY
:CTO   : INTERSTITIAL CHARGE =     7.367343
:CTO001: CHARGE SPHERE  1    =    86.209734
:CTO002: CHARGE SPHERE  2    =     7.211462

:NEC03: NUCLEAR AND ELECTRONIC CHARGE    108.00000   108.00000

PW CHANGE     H    K    L       Current     Change     Residue
:PTO001:      0    0    0  9.60618593E-02  5.097E-07  7.025E-07
:PTO002:     -1   -1   -1  2.26241438E-01  1.896E-06  1.866E-06
:PTO003:      0    0   -2 -1.11605319E-03  4.379E-08 -6.669E-07
:PTO004:      0   -2   -2  2.99020250E-01  3.775E-06  4.087E-06
:PTO005:     -1   -1   -3  1.51299423E-01  3.369E-06  2.872E-06
:PTO006:     -2   -2   -2 -2.27391130E-02  9.399E-07  8.335E-07
:PTO007:      0    0   -4  4.10354178E-02  7.977E-07  7.257E-07
:PTO008:     -1   -3   -3  2.37670785E-02  3.189E-06  3.446E-06
:PTO009:      0   -2   -4 -5.33006150E-02  1.289E-06  1.108E-06
:PTO010:     -2   -2   -4  3.40886258E-02  2.221E-06  2.379E-06
:PTO011:     -3   -3   -3 -6.30328757E-03  8.264E-07  9.958E-07
:PTO012:     -1   -1   -5 -7.79588142E-03  3.775E-07  1.738E-08

:ENE  : ********** TOTAL ENERGY IN Ry =       -56437.57015407

