
------- case.scf0 --------
 Flat Integration
 New Mode for Coulomb Integral
 Consistent 3/8+Simpson combinations
 Extension of core to zero
 LDM version in phi
 Fifth-order quadrature in outwin


            ---------
:ITE023: 23. ITERATION
            ---------

:NATO :    1 INDEPENDENT AND    1 TOTAL ATOMS IN UNITCELL
       SUBSTANCE: blebleble                                                   

       LATTICE                      = F   
:POT  : POTENTIAL OPTION EX_LDA EC_LDA VX_LDA VC_LDA
:LAT  : LATTICE CONSTANTS=  9.04565  9.04565  9.04565    1.571    1.571    1.571
:VOL  : UNIT CELL VOLUME =     185.03757
       MODE OF CALCULATION IS       = RELA
       NON-SPINPOLARIZED CALCULATION
:IFFT  : FFT-parameters:   72   72   72 Factor: 2.00


   CONVERGENCE PARAMETER FOR PSEUDOCHARGE: NCON=  9
   MAXIMAL VALUE OF RMT(JATOM)*ABSK(NKK) : RK  =29.87623


:VKCOUL :  VK-COUL convergence: 0.133E-06
       ATOMNUMBER=  1 Pr         VCOUL-ZERO =  0.47792E+00
:FIT001: LUSE= 13 SIGMA OF V-XC FIT FOR ATOM  1  0.5502399E-04
:FIT001: LUSE= 13 SIGMA OF V-XC FIT FOR ATOM  1  0.5502399E-04
:DEN  : DENSITY INTEGRAL  =         -7084.43960272   (Ry)
       ELS_POTENTIAL_AT Z=0 and Z=0.5:  -2.72277  -2.72277
       ELS_POTENTIAL_AT Y=0 and Y=0.5:   0.00000   0.00000
:VZERO:v0,v0c,v0x  -3.76229  -2.72277  -1.03952 v5,v5c,v5x  -3.76229  -2.72277  -1.03952
:VZERY:v0,v0c,v0x  -0.79378   0.00000  -0.79378 v5,v5c,v5x  -0.79378   0.00000  -0.79378
:VZERX:v0,v0c,v0x  -0.79378   0.00000  -0.79378 v5,v5c,v5x  -0.79378   0.00000  -0.79378

------- case.scf1 --------
:LMAX-WF:   10   Non-Spherical LMAX:   4

          ATOMIC SPHERE DEPENDENT PARAMETERS FOR ATOM  Pr        
:e__0001: OVERALL ENERGY PARAMETER IS    0.5969
          OVERALL BASIS SET ON ATOM IS LAPW
:E0_0001: E( 0)=    0.5969
             APW+lo
:E0_0001: E( 0)=   -1.8583   E(BOTTOM)=   -2.240   E(TOP)=   -1.476  4  5   197
             LOCAL ORBITAL
:E1_0001: E( 1)=    0.9969
             APW+lo
:E1_0001: E( 1)=   -0.4704   E(BOTTOM)=   -1.119   E(TOP)=    0.178  3  4   193
             LOCAL ORBITAL
:E3_0001: E( 3)=    0.8010   E(BOTTOM)=    0.661   E(TOP)=    0.941  0  1   119
             APW+lo
:E2_0001: E( 2)=    0.5969   E(BOTTOM)=    0.454   E(TOP)= -200.000  2 -1    80
             APW+lo

       K=   0.00000   0.00000   0.00000            1
:RKM  : MATRIX SIZE   133LOs:  20  RKM= 7.77  WEIGHT= 1.00  PGR:    
       EIGENVALUES ARE:
:EIG00001:      -1.8398427   -0.4189898   -0.4189898   -0.4189898    0.5608975
:EIG00006:       0.7767096    0.8086486    0.8086486    0.8086486    0.8496296
:EIG00011:       0.8496296    0.8496296    0.9379030    0.9379030    0.9379030
:EIG00016:       1.1735220    1.1735220    1.6003224    1.8814815    1.8814815
:EIG00021:       1.8814815    1.9729276    2.9632031    2.9632031    2.9632031
:EIG00026:       3.1305125    3.1305125    3.1305125    3.2314737    3.2314737
:EIG00031:       3.7808470    3.9476899    3.9476899    3.9476899    4.4670442
:EIG00036:       4.4670442    4.7008957    4.7008957    4.7008957    4.7679943
:EIG00041:       4.7679943    4.7679943    4.7791227    4.7791227    4.7791227
:EIG00046:       5.1303391    5.1303391    5.1303391    5.2341834    5.2341834
 
:EIG00051:       5.3220197    5.4816625    5.4816625    5.4816625    5.5920138
:EIG00056:       5.5922648    5.5922648    5.5922648    5.6639067    5.6639067
:EIG00061:       5.6639067    5.6791607    6.1829490    6.1829490    6.1829490
:EIG00066:       6.8362798    7.4879032    7.5072656    7.5072656    8.1053445
:EIG00071:       8.1053445    8.1053445
       ********************************************************

:KPT   :      NUMBER OF K-POINTS:   165

------- case.scfso --------
   0.0   0.0 angle (M,z), angle (M,x) deg
 
        SPIN-ORBIT EIGENVALUES:
     K=   0.00000   0.00000   0.00000            1
      MATRIX SIZE=  144   WEIGHT= 1.00
     EIGENVALUES ARE:
          -1.8398427   -1.8398427   -0.5711474   -0.5711474   -0.3470206
          -0.3470206   -0.3470206   -0.3470206    0.5608975    0.5608975
           0.7741645    0.7741645    0.7993106    0.7993106    0.7993106
           0.7993106    0.8201297    0.8201297    0.8478124    0.8478124
           0.8553114    0.8553114    0.8553114    0.8553114    0.9338198
           0.9338198    0.9338198    0.9338198    0.9450323    0.9450323
           1.1738656    1.1738656    1.1738656    1.1738656    1.6003913
           1.6003913    1.8773303    1.8773303    1.8834935    1.8834935

           1.8834935    1.8834935    1.9729276    1.9729276    2.9578897
           2.9578897    2.9578897    2.9578897    2.9733020    2.9733020
           3.0471314    3.0471314    3.1732052    3.1732052    3.1732052
           3.1732052    3.2317754    3.2317754    3.2317754    3.2317754
           3.7808470    3.7808470    3.9473053    3.9473053    3.9478922
           3.9478922    3.9478922    3.9478922    4.4669862    4.4669862
           4.4669862    4.4669862
       ********************************************************

------- case.scf2 --------
:GMA  : POTENTIAL AND CHARGE CUT-OFF  12.00 Ry**.5




:POS001: at.nr.   1 position = 0.00000 0.00000 0.50000  multiplicity =  1

       lmmax  5
       lm=   0 0  4 0  4 4  6 0  6 4
:FER gutzwiller fermi energy   0.80706
:EORB         -0.051734637
:SUM sum of gutz band energies         -2.817577033

:CHA001: total charge inside sphere   1 =    10.340217
:PCS001: partial charges sphere =  1 s,p,d,f,      d-eg,d-t2g 
:QTL001: 2.0402 5.3311 0.8412 2.1264 0.0000 0.0000 0.0000 0.3105 0.5307 0.0000 0.0000 0.0000

:CHA  : total charge inside unit cell =       6.500000

------- case.scfc --------

        1.ATOM      Pr                   14 CORE STATES
:1S 001: 1S               -3066.801583891 Ry
:2S 001: 2S                -492.555656602 Ry
:2PP001: 2P*               -465.654370232 Ry
:2P 001: 2P                -430.257033857 Ry
:3S 001: 3S                -105.650113569 Ry
:3PP001: 3P*                -94.187790111 Ry
:3P 001: 3P                 -87.180028808 Ry
:3DD001: 3D*                -67.106518580 Ry
:3D 001: 3D                 -65.595010660 Ry
:4S 001: 4S                 -20.320938577 Ry
:4PP001: 4P*                -16.027112352 Ry
:4P 001: 4P                 -14.498835885 Ry
:4DD001: 4D*                 -7.430065689 Ry
:4D 001: 4D                  -7.160356875 Ry

------- case.scfm --------
:CINT001 Core Integral Atom   1   45.999520

       DENSITY AT NUCLEUS
        JATOM        VALENCE       SEMI-CORE          CORE           TOTAL
:RTO001:   1      655.268221        0.000000   656825.629193   657480.897415
 :WARNING: K-list has changed
     
       CHARGES OF NEW CHARGE DENSITY
:NTO   : INTERSTITIAL CHARGE =     2.659821
:NPC   : PW Pseudocharge     =     7.790037
:NTO001: CHARGE SPHERE  1    =    56.339737

:NEC01: NUCLEAR AND ELECTRONIC CHARGE     59.00000    58.99956
     
       CHARGES OF OLD CHARGE DENSITY
:OTO   : INTERSTITIAL CHARGE =     2.753563
:OPC   : PW Pseudocharge     =     7.802779
:OTO001: CHARGE SPHERE  1    =    56.246437

:NEC02: NUCLEAR AND ELECTRONIC CHARGE     59.00000    59.00000
     
       CONVERGENCE TEST
:DTO001: DIFFERENCE IN SPHERE  1 =  0.1792137

:DIS  :  CHARGE DISTANCE       ( 0.1792137 for atom    1 spin 1)      0.1792137
 PW Mixed is           41
 
******************************************************
* MULTISECANT MIXING VER9 RELEASE 10.4.0              *
* Standard Mode with controls                        *
* Fixed density scale                                *
* Regularization       1.000E-04                     *
* Trust Upper Limit    5.000E+00                     *
* Max Number of Memory Steps    8                    *
******************************************************
 
:PWTMP   1.1959E+02  1.2500E+02  1.8504E+02
:PLANE:  PW TOTAL      3.4095 DISTAN   3.08E-02  9.03E-01 %
:CHARG:  CLM/ATOM    977.1941 DISTAN   3.28E-01  3.36E-02 %
 
Step History
        DMIX         DMIXT        Red     Pred      Trust     Lambda    MagRel    MagAbs     Beta
  1   3.5000E-02   3.5000E-02 -1.00E+00  1.00E+00 -1.00E+01  1.00E+00  3.50E-02  3.50E-02  1.00E+00
:INFO :  Note, Pratt in use
:TRUST:  Step 3.75E-02  Charge 7.50E-02 (e) CTO  2.50E-01 (e) PW  3.50E-01 (e)
:DIRM :  MEMORY  0/ 8 SCALE   1.000
Performing Pseudo Compensation
Final Pseudo Compensation Rescaling     1.00000E+00
:MIX  :   PRATT  REGULARIZATION:  1.00E-04 GREED: 0.02500                  
     
       CHARGES OF MIXED CHARGE DENSITY
:CTO   : INTERSTITIAL CHARGE =     2.751231
:CPC   : PW Pseudocharge     =     7.806496
:CTO001: CHARGE SPHERE  1    =    56.248769

:NEC03: NUCLEAR AND ELECTRONIC CHARGE     59.00000    59.00000

PW CHANGE     H    K    L      Current       Change    Residue
:PTO001:      0    0    0  5.70572064E-02  7.486E-06 -5.661E-04
:PTO002:     -1   -1   -1 -1.51950843E-01 -2.465E-04 -6.958E-04
:PTO003:      0    0   -2  8.54933033E-02  2.000E-04  1.011E-03
:PTO004:      0   -2   -2  5.96943755E-02  3.049E-04 -1.801E-04
:PTO005:     -1   -1   -3 -4.18209425E-02 -5.075E-04 -5.116E-04
:PTO006:     -2   -2   -2  9.01010817E-03  1.611E-04  4.416E-04
:PTO007:      0    0   -4 -1.05171377E-03  7.591E-05  2.237E-04
:PTO008:     -1   -3   -3  7.34557604E-03 -1.682E-04  3.666E-04
:PTO009:      0   -2   -4 -8.62293881E-03  1.366E-04 -4.692E-04
:PTO010:     -2   -2   -4 -9.59178931E-03  6.451E-05  1.891E-04
:PTO011:     -3   -3   -3  2.99000614E-03 -1.340E-05 -2.725E-04
:PTO012:     -1   -1   -5  8.49796786E-03 -2.393E-05 -1.672E-04

:ENE  : ********** TOTAL ENERGY IN Ry =       -18472.12618154


------- case.scf0 --------
 Flat Integration
 New Mode for Coulomb Integral
 Consistent 3/8+Simpson combinations
 Extension of core to zero
 LDM version in phi
 Fifth-order quadrature in outwin


            ---------
:ITE024: 24. ITERATION
            ---------

:NATO :    1 INDEPENDENT AND    1 TOTAL ATOMS IN UNITCELL
       SUBSTANCE: blebleble                                                   

       LATTICE                      = F   
:POT  : POTENTIAL OPTION EX_LDA EC_LDA VX_LDA VC_LDA
:LAT  : LATTICE CONSTANTS=  9.04565  9.04565  9.04565    1.571    1.571    1.571
:VOL  : UNIT CELL VOLUME =     185.03757
       MODE OF CALCULATION IS       = RELA
       NON-SPINPOLARIZED CALCULATION
:IFFT  : FFT-parameters:   72   72   72 Factor: 2.00


   CONVERGENCE PARAMETER FOR PSEUDOCHARGE: NCON=  9
   MAXIMAL VALUE OF RMT(JATOM)*ABSK(NKK) : RK  =29.87623


:VKCOUL :  VK-COUL convergence: 0.131E-06
       ATOMNUMBER=  1 Pr         VCOUL-ZERO =  0.47746E+00
:FIT001: LUSE= 13 SIGMA OF V-XC FIT FOR ATOM  1  0.5400228E-04
:FIT001: LUSE= 13 SIGMA OF V-XC FIT FOR ATOM  1  0.5400228E-04
:DEN  : DENSITY INTEGRAL  =         -7084.69160808   (Ry)
       ELS_POTENTIAL_AT Z=0 and Z=0.5:  -2.72040  -2.72040
       ELS_POTENTIAL_AT Y=0 and Y=0.5:   0.00000   0.00000
:VZERO:v0,v0c,v0x  -3.76034  -2.72040  -1.03994 v5,v5c,v5x  -3.76034  -2.72040  -1.03994
:VZERY:v0,v0c,v0x  -0.79364   0.00000  -0.79364 v5,v5c,v5x  -0.79364   0.00000  -0.79364
:VZERX:v0,v0c,v0x  -0.79364   0.00000  -0.79364 v5,v5c,v5x  -0.79364   0.00000  -0.79364

------- case.scf1 --------
:LMAX-WF:   10   Non-Spherical LMAX:   4

          ATOMIC SPHERE DEPENDENT PARAMETERS FOR ATOM  Pr        
:e__0001: OVERALL ENERGY PARAMETER IS    0.5969
          OVERALL BASIS SET ON ATOM IS LAPW
:E0_0001: E( 0)=    0.5969
             APW+lo
:E0_0001: E( 0)=   -1.8569   E(BOTTOM)=   -2.239   E(TOP)=   -1.475  4  5   188
             LOCAL ORBITAL
:E1_0001: E( 1)=    0.9969
             APW+lo
:E1_0001: E( 1)=   -0.4693   E(BOTTOM)=   -1.118   E(TOP)=    0.180  3  4   194
             LOCAL ORBITAL
:E3_0001: E( 3)=    0.8039   E(BOTTOM)=    0.663   E(TOP)=    0.945  0  1   116
             APW+lo
:E2_0001: E( 2)=    0.5969   E(BOTTOM)=    0.454   E(TOP)= -200.000  2 -1    82
             APW+lo

       K=   0.00000   0.00000   0.00000            1
:RKM  : MATRIX SIZE   133LOs:  20  RKM= 7.77  WEIGHT= 1.00  PGR:    
       EIGENVALUES ARE:
:EIG00001:      -1.8385169   -0.4179459   -0.4179459   -0.4179459    0.5607320
:EIG00006:       0.7791852    0.8114100    0.8114100    0.8114100    0.8526756
:EIG00011:       0.8526756    0.8526756    0.9379839    0.9379839    0.9379839
:EIG00016:       1.1738064    1.1738064    1.6005488    1.8814426    1.8814426
:EIG00021:       1.8814426    1.9723726    2.9634934    2.9634934    2.9634934
:EIG00026:       3.1306556    3.1306556    3.1306556    3.2314903    3.2314903
:EIG00031:       3.7807010    3.9473380    3.9473380    3.9473380    4.4671685
:EIG00036:       4.4671685    4.7008810    4.7008810    4.7008810    4.7678220
:EIG00041:       4.7678220    4.7678220    4.7789472    4.7789472    4.7789472
:EIG00046:       5.1299285    5.1299285    5.1299285    5.2337276    5.2337276
 
:EIG00051:       5.3218380    5.4812098    5.4812098    5.4812098    5.5914158
:EIG00056:       5.5917693    5.5917693    5.5917693    5.6634035    5.6634035
:EIG00061:       5.6634035    5.6791608    6.1823428    6.1823428    6.1823428
:EIG00066:       6.8355213    7.4876388    7.5070204    7.5070204    8.1049077
:EIG00071:       8.1049077    8.1049077
       ********************************************************

:KPT   :      NUMBER OF K-POINTS:   165

------- case.scfso --------
   0.0   0.0 angle (M,z), angle (M,x) deg
 
        SPIN-ORBIT EIGENVALUES:
     K=   0.00000   0.00000   0.00000            1
      MATRIX SIZE=  144   WEIGHT= 1.00
     EIGENVALUES ARE:
          -1.8385169   -1.8385169   -0.5700261   -0.5700261   -0.3460142
          -0.3460142   -0.3460142   -0.3460142    0.5607320    0.5607320
           0.7766685    0.7766685    0.8021081    0.8021081    0.8021081
           0.8021081    0.8228699    0.8228699    0.8508331    0.8508331
           0.8583295    0.8583295    0.8583295    0.8583295    0.9339054
           0.9339054    0.9339054    0.9339054    0.9451061    0.9451061
           1.1741490    1.1741490    1.1741490    1.1741490    1.6006184
           1.6006184    1.8773031    1.8773031    1.8834491    1.8834491

           1.8834491    1.8834491    1.9723726    1.9723726    2.9581810
           2.9581810    2.9581810    2.9581810    2.9735897    2.9735897
           3.0472904    3.0472904    3.1733381    3.1733381    3.1733381
           3.1733381    3.2317921    3.2317921    3.2317921    3.2317921
           3.7807010    3.7807010    3.9469526    3.9469526    3.9475407
           3.9475407    3.9475407    3.9475407    4.4671103    4.4671103
           4.4671103    4.4671103
       ********************************************************

------- case.scf2 --------
:GMA  : POTENTIAL AND CHARGE CUT-OFF  12.00 Ry**.5




:POS001: at.nr.   1 position = 0.00000 0.00000 0.50000  multiplicity =  1

       lmmax  5
       lm=   0 0  4 0  4 4  6 0  6 4
:FER gutzwiller fermi energy   0.80680
:EORB         -0.044707879
:SUM sum of gutz band energies         -2.810469781

:CHA001: total charge inside sphere   1 =    10.339143
:PCS001: partial charges sphere =  1 s,p,d,f,      d-eg,d-t2g 
:QTL001: 2.0401 5.3299 0.8394 2.1285 0.0000 0.0000 0.0000 0.3099 0.5295 0.0000 0.0000 0.0000

:CHA  : total charge inside unit cell =       6.500000

------- case.scfc --------

        1.ATOM      Pr                   14 CORE STATES
:1S 001: 1S               -3066.795560082 Ry
:2S 001: 2S                -492.549654894 Ry
:2PP001: 2P*               -465.648362387 Ry
:2P 001: 2P                -430.251028412 Ry
:3S 001: 3S                -105.644339702 Ry
:3PP001: 3P*                -94.181998243 Ry
:3P 001: 3P                 -87.174266343 Ry
:3DD001: 3D*                -67.100697871 Ry
:3D 001: 3D                 -65.589197721 Ry
:4S 001: 4S                 -20.316532659 Ry
:4PP001: 4P*                -16.022787139 Ry
:4P 001: 4P                 -14.494637515 Ry
:4DD001: 4D*                 -7.426087330 Ry
:4D 001: 4D                  -7.156421455 Ry

------- case.scfm --------
:CINT001 Core Integral Atom   1   45.999519

       DENSITY AT NUCLEUS
        JATOM        VALENCE       SEMI-CORE          CORE           TOTAL
:RTO001:   1      654.993410        0.000000   656825.342960   657480.336371
     
       CHARGES OF NEW CHARGE DENSITY
:NTO   : INTERSTITIAL CHARGE =     2.660935
:NPC   : PW Pseudocharge     =     7.790583
:NTO001: CHARGE SPHERE  1    =    56.338662

:NEC01: NUCLEAR AND ELECTRONIC CHARGE     59.00000    58.99960
     
       CHARGES OF OLD CHARGE DENSITY
:OTO   : INTERSTITIAL CHARGE =     2.751231
:OPC   : PW Pseudocharge     =     7.806496
:OTO001: CHARGE SPHERE  1    =    56.248769

:NEC02: NUCLEAR AND ELECTRONIC CHARGE     59.00000    59.00000
     
       CONVERGENCE TEST
:DTO001: DIFFERENCE IN SPHERE  1 =  0.1713810

:DIS  :  CHARGE DISTANCE       ( 0.1713810 for atom    1 spin 1)      0.1713810
 PW Mixed is           41
 
******************************************************
* MULTISECANT MIXING VER9 RELEASE 10.4.0              *
* Slow Mode, cautious                                *
* Fixed density scale                                *
* Regularization       1.000E-04                     *
* Step Trust Radius    0.75000                       *
* Trust Upper Limit    2.000E+00                     *
* Max Number of Memory Steps   12                    *
******************************************************
 
:PWTMP   1.1959E+02  1.2500E+02  1.8504E+02
:PLANE:  PW TOTAL      3.4141 DISTAN   2.82E-02  8.25E-01 %
:CHARG:  CLM/ATOM    977.1945 DISTAN   3.17E-01  3.25E-02 %
 
Step History
        DMIX         DMIXT        Red     Pred      Trust     Lambda    MagRel    MagAbs     Beta
  1   3.5000E-02   3.5000E-02 -1.00E+00  1.00E+00 -1.00E+01  1.00E+00  3.50E-02  3.50E-02  1.00E+00
  2   2.5000E-02   2.5000E-02 -1.00E+00  1.00E+00 -1.00E+01  1.00E+00  2.50E-02  8.23E-03  1.00E+00
:JACOBIANS    1.460E-01   2.104E-01
  
:TRUST:  Step 3.09E-02  Charge 7.50E-02 (e) CTO  2.50E-01 (e) PW  3.50E-01 (e)
:DIRM :  MEMORY  1/12 SCALE   1.000
:MIX  :   PRATT  REGULARIZATION:  1.00E-04 GREED: 0.03094  Expand 1.24  0.0309                
     
       CHARGES OF MIXED CHARGE DENSITY
:CTO   : INTERSTITIAL CHARGE =     2.713088
:CPC   : PW Pseudocharge     =     7.867291
:CTO001: CHARGE SPHERE  1    =    56.286912

:NEC03: NUCLEAR AND ELECTRONIC CHARGE     59.00000    59.00000

PW CHANGE     H    K    L      Current       Change    Residue
:PTO001:      0    0    0  5.71796283E-02  1.224E-04 -5.654E-04
:PTO002:     -1   -1   -1 -1.55981420E-01 -4.031E-03 -4.368E-04
:PTO003:      0    0   -2  8.87639684E-02  3.271E-03  8.047E-04
:PTO004:      0   -2   -2  6.46794198E-02  4.985E-03 -5.000E-04
:PTO005:     -1   -1   -3 -5.01200641E-02 -8.299E-03  1.905E-05
:PTO006:     -2   -2   -2  1.16447984E-02  2.635E-03  2.700E-04
:PTO007:      0    0   -4  1.89626247E-04  1.241E-03  1.468E-04
:PTO008:     -1   -3   -3  4.59475552E-03 -2.751E-03  5.324E-04
:PTO009:      0   -2   -4 -6.38977939E-03  2.233E-03 -5.998E-04
:PTO010:     -2   -2   -4 -8.53696158E-03  1.055E-03  1.281E-04
:PTO011:     -3   -3   -3  2.77094133E-03 -2.191E-04 -2.590E-04
:PTO012:     -1   -1   -5  8.10660387E-03 -3.914E-04 -1.484E-04

:ENE  : ********** TOTAL ENERGY IN Ry =       -18472.12584089


------- case.scf0 --------
 Flat Integration
 New Mode for Coulomb Integral
 Consistent 3/8+Simpson combinations
 Extension of core to zero
 LDM version in phi
 Fifth-order quadrature in outwin


            ---------
:ITE025: 25. ITERATION
            ---------

:NATO :    1 INDEPENDENT AND    1 TOTAL ATOMS IN UNITCELL
       SUBSTANCE: blebleble                                                   

       LATTICE                      = F   
:POT  : POTENTIAL OPTION EX_LDA EC_LDA VX_LDA VC_LDA
:LAT  : LATTICE CONSTANTS=  9.04565  9.04565  9.04565    1.571    1.571    1.571
:VOL  : UNIT CELL VOLUME =     185.03757
       MODE OF CALCULATION IS       = RELA
       NON-SPINPOLARIZED CALCULATION
:IFFT  : FFT-parameters:   72   72   72 Factor: 2.00


   CONVERGENCE PARAMETER FOR PSEUDOCHARGE: NCON=  9
   MAXIMAL VALUE OF RMT(JATOM)*ABSK(NKK) : RK  =29.87623


:VKCOUL :  VK-COUL convergence: 0.934E-07
       ATOMNUMBER=  1 Pr         VCOUL-ZERO =  0.46991E+00
:FIT001: LUSE= 13 SIGMA OF V-XC FIT FOR ATOM  1  0.3871841E-04
:FIT001: LUSE= 13 SIGMA OF V-XC FIT FOR ATOM  1  0.3871841E-04
:DEN  : DENSITY INTEGRAL  =         -7088.81439917   (Ry)
       ELS_POTENTIAL_AT Z=0 and Z=0.5:  -2.68165  -2.68165
       ELS_POTENTIAL_AT Y=0 and Y=0.5:   0.00000   0.00000
:VZERO:v0,v0c,v0x  -3.72838  -2.68165  -1.04672 v5,v5c,v5x  -3.72838  -2.68165  -1.04672
:VZERY:v0,v0c,v0x  -0.79131   0.00000  -0.79131 v5,v5c,v5x  -0.79131   0.00000  -0.79131
:VZERX:v0,v0c,v0x  -0.79131   0.00000  -0.79131 v5,v5c,v5x  -0.79131   0.00000  -0.79131

------- case.scf1 --------
:LMAX-WF:   10   Non-Spherical LMAX:   4

          ATOMIC SPHERE DEPENDENT PARAMETERS FOR ATOM  Pr        
:e__0001: OVERALL ENERGY PARAMETER IS    0.5969
          OVERALL BASIS SET ON ATOM IS LAPW
:E0_0001: E( 0)=    0.5969
             APW+lo
:E0_0001: E( 0)=   -1.8340   E(BOTTOM)=   -2.221   E(TOP)=   -1.447  4  5   199
             LOCAL ORBITAL
:E1_0001: E( 1)=    0.9969
             APW+lo
:E1_0001: E( 1)=   -0.4509   E(BOTTOM)=   -1.106   E(TOP)=    0.204  3  4   195
             LOCAL ORBITAL
:E3_0001: E( 3)=    0.8510   E(BOTTOM)=    0.704   E(TOP)=    0.998  0  1   124
             APW+lo
:E2_0001: E( 2)=    0.5969   E(BOTTOM)=    0.461   E(TOP)= -200.000  2 -1    80
             APW+lo

       K=   0.00000   0.00000   0.00000            1
:RKM  : MATRIX SIZE   133LOs:  20  RKM= 7.77  WEIGHT= 1.00  PGR:    
       EIGENVALUES ARE:
:EIG00001:      -1.8169283   -0.4009455   -0.4009455   -0.4009455    0.5580713
:EIG00006:       0.8187726    0.8560375    0.8560375    0.8560375    0.9022692
:EIG00011:       0.9022692    0.9022692    0.9392424    0.9392424    0.9392424
:EIG00016:       1.1783875    1.1783875    1.6050690    1.8812274    1.8812274
:EIG00021:       1.8812274    1.9633180    2.9682408    2.9682408    2.9682408
:EIG00026:       3.1330135    3.1330135    3.1330135    3.2317526    3.2317526
:EIG00031:       3.7783060    3.9417985    3.9417985    3.9417985    4.4692293
:EIG00036:       4.4692293    4.7006704    4.7006704    4.7006704    4.7650497
:EIG00041:       4.7650497    4.7650497    4.7760748    4.7760748    4.7760748
:EIG00046:       5.1232277    5.1232277    5.1232277    5.2262926    5.2262926
 
:EIG00051:       5.3188467    5.4738526    5.4738526    5.4738526    5.5816920
:EIG00056:       5.5838342    5.5838342    5.5838342    5.6552007    5.6552007
:EIG00061:       5.6552007    5.6792292    6.1726078    6.1726078    6.1726078
:EIG00066:       6.8234073    7.4833340    7.5030241    7.5030241    8.0978410
:EIG00071:       8.0978410    8.0978410
       ********************************************************

:KPT   :      NUMBER OF K-POINTS:   165

------- case.scfso --------
   0.0   0.0 angle (M,z), angle (M,x) deg
 
        SPIN-ORBIT EIGENVALUES:
     K=   0.00000   0.00000   0.00000            1
      MATRIX SIZE=  144   WEIGHT= 1.00
     EIGENVALUES ARE:
          -1.8169283   -1.8169283   -0.5517627   -0.5517627   -0.3296278
          -0.3296278   -0.3296277   -0.3296277    0.5580713    0.5580713
           0.8166869    0.8166869    0.8473217    0.8473217    0.8473217
           0.8473217    0.8671394    0.8671394    0.9000467    0.9000467
           0.9074790    0.9074790    0.9074790    0.9074790    0.9352412
           0.9352412    0.9352412    0.9352412    0.9462499    0.9462499
           1.1787131    1.1787131    1.1787131    1.1787131    1.6051497
           1.6051497    1.8772882    1.8772882    1.8831405    1.8831405

           1.8831405    1.8831405    1.9633180    1.9633180    2.9629461
           2.9629461    2.9629461    2.9629461    2.9782940    2.9782940
           3.0499122    3.0499122    3.1755275    3.1755275    3.1755275
           3.1755275    3.2320554    3.2320554    3.2320554    3.2320554
           3.7783060    3.7783060    3.9413999    3.9413999    3.9420082
           3.9420082    3.9420082    3.9420082    4.4691678    4.4691678
           4.4691678    4.4691678
       ********************************************************

------- case.scf2 --------
:GMA  : POTENTIAL AND CHARGE CUT-OFF  12.00 Ry**.5




:POS001: at.nr.   1 position = 0.00000 0.00000 0.50000  multiplicity =  1

       lmmax  5
       lm=   0 0  4 0  4 4  6 0  6 4
:FER gutzwiller fermi energy   0.81210
:EORB          0.042932602
:SUM sum of gutz band energies         -2.667009950

:CHA001: total charge inside sphere   1 =    10.260836
:PCS001: partial charges sphere =  1 s,p,d,f,      d-eg,d-t2g 
:QTL001: 2.0394 5.3167 0.8573 2.0462 0.0000 0.0000 0.0000 0.3159 0.5414 0.0000 0.0000 0.0000

:CHA  : total charge inside unit cell =       6.500000

------- case.scfc --------

        1.ATOM      Pr                   14 CORE STATES
:1S 001: 1S               -3066.697056220 Ry
:2S 001: 2S                -492.451512453 Ry
:2PP001: 2P*               -465.550119595 Ry
:2P 001: 2P                -430.152824864 Ry
:3S 001: 3S                -105.549922624 Ry
:3PP001: 3P*                -94.087286869 Ry
:3P 001: 3P                 -87.080035730 Ry
:3DD001: 3D*                -67.005515026 Ry
:3D 001: 3D                 -65.494141932 Ry
:4S 001: 4S                 -20.244491326 Ry
:4PP001: 4P*                -15.952068636 Ry
:4P 001: 4P                 -14.425995205 Ry
:4DD001: 4D*                 -7.361057671 Ry
:4D 001: 4D                  -7.092095266 Ry

------- case.scfm --------
:CINT001 Core Integral Atom   1   45.999500

       DENSITY AT NUCLEUS
        JATOM        VALENCE       SEMI-CORE          CORE           TOTAL
:RTO001:   1      651.163343        0.000000   656820.659772   657471.823114
     
       CHARGES OF NEW CHARGE DENSITY
:NTO   : INTERSTITIAL CHARGE =     2.739306
:NPC   : PW Pseudocharge     =     7.835916
:NTO001: CHARGE SPHERE  1    =    56.260336

:NEC01: NUCLEAR AND ELECTRONIC CHARGE     59.00000    58.99964
     
       CHARGES OF OLD CHARGE DENSITY
:OTO   : INTERSTITIAL CHARGE =     2.713088
:OPC   : PW Pseudocharge     =     7.867291
:OTO001: CHARGE SPHERE  1    =    56.286912

:NEC02: NUCLEAR AND ELECTRONIC CHARGE     59.00000    59.00000
     
       CONVERGENCE TEST
:DTO001: DIFFERENCE IN SPHERE  1 =  0.1017808

:DIS  :  CHARGE DISTANCE       ( 0.1017808 for atom    1 spin 1)      0.1017808
 PW Mixed is           41
 
******************************************************
* MULTISECANT MIXING VER9 RELEASE 10.4.0              *
* Slow Mode, cautious                                *
* Fixed density scale                                *
* Regularization       1.000E-04                     *
* Step Trust Radius    0.75000                       *
* Trust Upper Limit    2.000E+00                     *
* Max Number of Memory Steps   12                    *
******************************************************
 
:PWTMP   1.1959E+02  1.2500E+02  1.8504E+02
:PLANE:  PW TOTAL      3.4903 DISTAN   1.25E-01  3.59E+00 %
:CHARG:  CLM/ATOM    977.2009 DISTAN   1.95E-01  2.00E-02 %
 
Step History
        DMIX         DMIXT        Red     Pred      Trust     Lambda    MagRel    MagAbs     Beta
  1   3.5000E-02   3.5000E-02 -1.00E+00  1.00E+00 -1.00E+01  1.00E+00  3.50E-02  3.50E-02  1.00E+00
  2   2.5000E-02   2.5000E-02  9.67E-01  1.00E+00 -1.00E+01  1.00E+00  2.50E-02  8.23E-03  1.00E+00
  3   3.0941E-02   3.0941E-02 -1.00E+00  1.00E+00 -1.00E+01  1.00E+00  3.09E-02  9.85E-03  1.00E+00
:JACOBIANS    1.916E-01   2.812E-01
  
:NORMS:  1/Froebius, Min, Max, Used   0.6105E+00  0.3697E+00  0.7395E+00  0.6105E+00
:INFO :  Number of Memory Steps    2 Skipping    0
:INFO :  SLambda=    1.6522653257  Max    1.6522653257
:PREDicted Charge, CTotal, PW Trust    3.626E-02   3.626E-02   1.392E-02
:PREDicted DMix, Beta, BLim   3.2959E-01  9.1346E-01  5.3473E-01

Eigenvalues, unscaled except for SY+YY
   #     SY Real        SY Imag          SS             YY         SY+YY Real      SY+YY Imag
   1   1.000504E+00   0.000000E+00   7.454281E-01   1.999847E+00   3.652912E+00   0.000000E+00
   2  -1.942890E-15   0.000000E+00  -5.551115E-17   1.531757E-04   1.863188E-04   0.000000E+00
 
:INFO :  Singular value  3.653E+00 Weight  1.000E+00 Projection  3.345E-02
:INFO :  Singular value  1.863E-04 Weight  4.647E-01 Projection  2.751E+00
:RANK :  ACTIVE   1.46/2  =  73.23 % ; YY RANK   1.37/2  =  68.49 %
 
:DLIM :  Beta Active  9.351E-01
:BLIM :  VZERO Control Off
:TRUST:  Step 2.90E-01  Charge 7.50E-02 (e) CTO  2.50E-01 (e) PW  3.50E-01 (e)
:DIRM :  MEMORY  2/12 SCALE   1.000 RED  0.73 PRED  1.00 NEXT  0.92 BETA  0.94
:TRAVE:  Charge 2.48E-03 (e) CTO  2.48E-03 (e) PW  3.53E-03 (e)
:DIRP :  |MSR1|= 1.845E-02 |PRATT|= 1.253E-01 ANGLE=   4.9 DEGREES
:DIRQ :  |MSR1|= 9.401E-03 |PRATT|= 1.951E-01 ANGLE=  32.0 DEGREES
:DIRT :  |MSR1|= 2.071E-02 |PRATT|= 2.319E-01 ANGLE=  36.5 DEGREES
:MIX  :   MSE1   REGULARIZATION:  2.00E-04 GREED: 0.07735  Newton 1.00  0.0893                
     
       CHARGES OF MIXED CHARGE DENSITY
:CTO   : INTERSTITIAL CHARGE =     2.715569
:CPC   : PW Pseudocharge     =     7.859341
:CTO001: CHARGE SPHERE  1    =    56.284431

:NEC03: NUCLEAR AND ELECTRONIC CHARGE     59.00000    59.00000

PW CHANGE     H    K    L      Current       Change    Residue
:PTO001:      0    0    0  5.71500685E-02 -2.956E-05 -2.039E-05
:PTO002:     -1   -1   -1 -1.55415510E-01  5.659E-04  3.635E-03
:PTO003:      0    0   -2  8.83380772E-02 -4.259E-04 -2.575E-03
:PTO004:      0   -2   -2  6.38949996E-02 -7.844E-04 -5.636E-03
:PTO005:     -1   -1   -3 -4.88713214E-02  1.249E-03  8.724E-03
:PTO006:     -2   -2   -2  1.12691522E-02 -3.756E-04 -2.472E-03
:PTO007:      0    0   -4  1.62416843E-05 -1.734E-04 -1.140E-03
:PTO008:     -1   -3   -3  5.03815252E-03  4.434E-04  3.265E-03
:PTO009:      0   -2   -4 -6.76117483E-03 -3.714E-04 -2.827E-03
:PTO010:     -2   -2   -4 -8.67750681E-03 -1.405E-04 -8.592E-04
:PTO011:     -3   -3   -3  2.78181110E-03  1.087E-05 -7.047E-05
:PTO012:     -1   -1   -5  8.14788029E-03  4.128E-05  1.879E-04

:ENE  : ********** TOTAL ENERGY IN Ry =       -18472.12252914


------- case.scf0 --------
 Flat Integration
 New Mode for Coulomb Integral
 Consistent 3/8+Simpson combinations
 Extension of core to zero
 LDM version in phi
 Fifth-order quadrature in outwin


            ---------
:ITE026: 26. ITERATION
            ---------

:NATO :    1 INDEPENDENT AND    1 TOTAL ATOMS IN UNITCELL
       SUBSTANCE: blebleble                                                   

       LATTICE                      = F   
:POT  : POTENTIAL OPTION EX_LDA EC_LDA VX_LDA VC_LDA
:LAT  : LATTICE CONSTANTS=  9.04565  9.04565  9.04565    1.571    1.571    1.571
:VOL  : UNIT CELL VOLUME =     185.03757
       MODE OF CALCULATION IS       = RELA
       NON-SPINPOLARIZED CALCULATION
:IFFT  : FFT-parameters:   72   72   72 Factor: 2.00


   CONVERGENCE PARAMETER FOR PSEUDOCHARGE: NCON=  9
   MAXIMAL VALUE OF RMT(JATOM)*ABSK(NKK) : RK  =29.87623


:VKCOUL :  VK-COUL convergence: 0.926E-07
       ATOMNUMBER=  1 Pr         VCOUL-ZERO =  0.47091E+00
:FIT001: LUSE= 13 SIGMA OF V-XC FIT FOR ATOM  1  0.3828346E-04
:FIT001: LUSE= 13 SIGMA OF V-XC FIT FOR ATOM  1  0.3828346E-04
:DEN  : DENSITY INTEGRAL  =         -7088.43930186   (Ry)
       ELS_POTENTIAL_AT Z=0 and Z=0.5:  -2.68576  -2.68576
       ELS_POTENTIAL_AT Y=0 and Y=0.5:   0.00000   0.00000
:VZERO:v0,v0c,v0x  -3.73187  -2.68576  -1.04610 v5,v5c,v5x  -3.73187  -2.68576  -1.04610
:VZERY:v0,v0c,v0x  -0.79152   0.00000  -0.79152 v5,v5c,v5x  -0.79152   0.00000  -0.79152
:VZERX:v0,v0c,v0x  -0.79152   0.00000  -0.79152 v5,v5c,v5x  -0.79152   0.00000  -0.79152

------- case.scf1 --------
:LMAX-WF:   10   Non-Spherical LMAX:   4

          ATOMIC SPHERE DEPENDENT PARAMETERS FOR ATOM  Pr        
:e__0001: OVERALL ENERGY PARAMETER IS    0.5969
          OVERALL BASIS SET ON ATOM IS LAPW
:E0_0001: E( 0)=    0.5969
             APW+lo
:E0_0001: E( 0)=   -1.8354   E(BOTTOM)=   -2.222   E(TOP)=   -1.449  4  5   195
             LOCAL ORBITAL
:E1_0001: E( 1)=    0.9969
             APW+lo
:E1_0001: E( 1)=   -0.4520   E(BOTTOM)=   -1.107   E(TOP)=    0.203  3  4   195
             LOCAL ORBITAL
:E3_0001: E( 3)=    0.8476   E(BOTTOM)=    0.701   E(TOP)=    0.994  0  1   124
             APW+lo
:E2_0001: E( 2)=    0.5969   E(BOTTOM)=    0.461   E(TOP)= -200.000  2 -1    81
             APW+lo

       K=   0.00000   0.00000   0.00000            1
:RKM  : MATRIX SIZE   133LOs:  20  RKM= 7.77  WEIGHT= 1.00  PGR:    
       EIGENVALUES ARE:
:EIG00001:      -1.8182113   -0.4018724   -0.4018724   -0.4018724    0.5586578
:EIG00006:       0.8159910    0.8528374    0.8528374    0.8528374    0.8986440
:EIG00011:       0.8986440    0.8986440    0.9395178    0.9395178    0.9395178
:EIG00016:       1.1784278    1.1784278    1.6049592    1.8815856    1.8815856
:EIG00021:       1.8815856    1.9644295    2.9682628    2.9682628    2.9682628
:EIG00026:       3.1331917    3.1331917    3.1331917    3.2321148    3.2321148
:EIG00031:       3.7788660    3.9425821    3.9425821    3.9425821    4.4695207
:EIG00036:       4.4695207    4.7010928    4.7010928    4.7010928    4.7656450
:EIG00041:       4.7656450    4.7656450    4.7767269    4.7767269    4.7767269
:EIG00046:       5.1241339    5.1241339    5.1241339    5.2272436    5.2272436
 
:EIG00051:       5.3195003    5.4748281    5.4748281    5.4748281    5.5828193
:EIG00056:       5.5848075    5.5848075    5.5848075    5.6562361    5.6562361
:EIG00061:       5.6562361    5.6796045    6.1737460    6.1737460    6.1737460
:EIG00066:       6.8246890    7.4840927    7.5037695    7.5037695    8.0987740
:EIG00071:       8.0987740    8.0987740
       ********************************************************

:KPT   :      NUMBER OF K-POINTS:   165

------- case.scfso --------
   0.0   0.0 angle (M,z), angle (M,x) deg
 
        SPIN-ORBIT EIGENVALUES:
     K=   0.00000   0.00000   0.00000            1
      MATRIX SIZE=  144   WEIGHT= 1.00
     EIGENVALUES ARE:
          -1.8182113   -1.8182113   -0.5527875   -0.5527875   -0.3305070
          -0.3305070   -0.3305070   -0.3305070    0.5586578    0.5586578
           0.8138725    0.8138725    0.8440729    0.8440729    0.8440729
           0.8440729    0.8639710    0.8639710    0.8964496    0.8964496
           0.9038899    0.9038899    0.9038899    0.9038899    0.9355109
           0.9355109    0.9355109    0.9355109    0.9465338    0.9465338
           1.1787546    1.1787546    1.1787546    1.1787546    1.6050389
           1.6050389    1.8776303    1.8776303    1.8835064    1.8835064

           1.8835064    1.8835064    1.9644295    1.9644295    2.9629671
           2.9629671    2.9629671    2.9629671    2.9783184    2.9783184
           3.0500688    3.0500688    3.1757194    3.1757194    3.1757194
           3.1757194    3.2324175    3.2324175    3.2324175    3.2324175
           3.7788660    3.7788660    3.9421846    3.9421846    3.9427913
           3.9427913    3.9427913    3.9427913    4.4694595    4.4694595
           4.4694595    4.4694595
       ********************************************************

------- case.scf2 --------
:GMA  : POTENTIAL AND CHARGE CUT-OFF  12.00 Ry**.5




:POS001: at.nr.   1 position = 0.00000 0.00000 0.50000  multiplicity =  1

       lmmax  5
       lm=   0 0  4 0  4 4  6 0  6 4
:FER gutzwiller fermi energy   0.81264
:EORB          0.033888649
:SUM sum of gutz band energies         -2.671233453

:CHA001: total charge inside sphere   1 =    10.263615
:PCS001: partial charges sphere =  1 s,p,d,f,      d-eg,d-t2g 
:QTL001: 2.0396 5.3181 0.8587 2.0459 0.0000 0.0000 0.0000 0.3163 0.5424 0.0000 0.0000 0.0000

:CHA  : total charge inside unit cell =       6.500000

------- case.scfc --------

        1.ATOM      Pr                   14 CORE STATES
:1S 001: 1S               -3066.708285376 Ry
:2S 001: 2S                -492.461972172 Ry
:2PP001: 2P*               -465.560748999 Ry
:2P 001: 2P                -430.163390440 Ry
:3S 001: 3S                -105.558701603 Ry
:3PP001: 3P*                -94.096164989 Ry
:3P 001: 3P                 -87.088799601 Ry
:3DD001: 3D*                -67.014554626 Ry
:3D 001: 3D                 -65.503144675 Ry
:4S 001: 4S                 -20.250227314 Ry
:4PP001: 4P*                -15.957680532 Ry
:4P 001: 4P                 -14.431391603 Ry
:4DD001: 4D*                 -7.366118379 Ry
:4D 001: 4D                  -7.097085772 Ry

------- case.scfm --------
:CINT001 Core Integral Atom   1   45.999502

       DENSITY AT NUCLEUS
        JATOM        VALENCE       SEMI-CORE          CORE           TOTAL
:RTO001:   1      651.506071        0.000000   656821.411003   657472.917075
     
       CHARGES OF NEW CHARGE DENSITY
:NTO   : INTERSTITIAL CHARGE =     2.736396
:NPC   : PW Pseudocharge     =     7.834504
:NTO001: CHARGE SPHERE  1    =    56.263117

:NEC01: NUCLEAR AND ELECTRONIC CHARGE     59.00000    58.99951
     
       CHARGES OF OLD CHARGE DENSITY
:OTO   : INTERSTITIAL CHARGE =     2.715569
:OPC   : PW Pseudocharge     =     7.859341
:OTO001: CHARGE SPHERE  1    =    56.284431

:NEC02: NUCLEAR AND ELECTRONIC CHARGE     59.00000    59.00000
     
       CONVERGENCE TEST
:DTO001: DIFFERENCE IN SPHERE  1 =  0.0819281

:DIS  :  CHARGE DISTANCE       ( 0.0819281 for atom    1 spin 1)      0.0819281
 PW Mixed is           41
 
******************************************************
* MULTISECANT MIXING VER9 RELEASE 10.4.0              *
* Standard Mode with controls                        *
* Fixed density scale                                *
* Regularization       1.000E-04                     *
* Trust Upper Limit    5.000E+00                     *
* Max Number of Memory Steps    8                    *
******************************************************
 
:PWTMP   1.1959E+02  1.2500E+02  1.8504E+02
:PLANE:  PW TOTAL      3.4791 DISTAN   1.07E-01  3.06E+00 %
:CHARG:  CLM/ATOM    977.1977 DISTAN   1.83E-01  1.87E-02 %
 
Step History
        DMIX         DMIXT        Red     Pred      Trust     Lambda    MagRel    MagAbs     Beta
  1   3.5000E-02   3.5000E-02 -1.00E+00  1.00E+00 -1.00E+01  1.00E+00  3.50E-02  3.50E-02  1.00E+00
  2   2.5000E-02   2.5000E-02  9.67E-01  1.00E+00 -1.00E+01  1.00E+00  2.50E-02  8.23E-03  1.00E+00
  3   3.0941E-02   3.0941E-02  7.28E-01  1.00E+00 -1.00E+01  1.65E+00  3.09E-02  9.85E-03  1.00E+00
  4   7.7352E-02   7.7352E-02 -1.00E+00  9.22E-01  2.90E-01  1.00E+00  8.93E-02  2.07E-02  9.35E-01
:JACOBIANS    3.532E-01   6.200E-01
  
:NORMS:  1/Froebius, Min, Max, Used   0.6624E+00  0.5627E+00  0.9863E+00  0.6980E+00
:INFO :  Number of Memory Steps    3 Skipping    0
:INFO :  SLambda=    1.3178771828  Max    1.3178771828
:PREDicted Charge, CTotal, PW Trust    4.568E-04   4.568E-04   3.452E-02
:PREDicted DMix, Beta, BLim   9.0593E-01  6.0493E+00  8.2302E-01

Eigenvalues, unscaled except for SY+YY
   #     SY Real        SY Imag          SS             YY         SY+YY Real      SY+YY Imag
   1   1.395172E+00   0.000000E+00   1.017735E+00   2.658322E+00   4.494070E+00   0.000000E+00
   2  -3.062948E-15   0.000000E+00   2.984398E-01   3.415075E-01   2.098341E-04   0.000000E+00
   3   2.906651E-01   0.000000E+00   3.863402E-17   1.706946E-04   7.274461E-01   0.000000E+00
 
:INFO :  Singular value  4.498E+00 Weight  1.000E+00 Projection  4.550E-02
:INFO :  Singular value  7.268E-01 Weight  1.000E+00 Projection -3.224E-01
:INFO :  Singular value  2.098E-04 Weight  3.839E-01 Projection  2.882E+00
:RANK :  ACTIVE   2.38/3  =  79.46 % ; YY RANK   2.29/3  =  76.40 %
 
:BLIM :  VZERO Control Off
:TRUST:  Step 5.18E-01  Charge 7.50E-02 (e) CTO  2.50E-01 (e) PW  3.50E-01 (e)
:DTRUS:  Lambda    2.279E+00 Increment    7.276E-12 Iterations   111 DMIX    1.584E-01
:INFOA:  Angle SubSpace to MSR1      2.63
:DIRM :  MEMORY  3/8  SCALE   1.000 RED  0.91 PRED  0.92 NEXT  0.48 
:INFO :  Limited by Atoms F by Step T

:TRAVE:  Charge 3.25E-03 (e) CTO  3.25E-03 (e) PW  7.51E-03 (e)
:DIRP :  |MSR1|= 6.584E-02 |PRATT|= 1.065E-01 ANGLE=   3.1 DEGREES
:DIRQ :  |MSR1|= 8.742E-02 |PRATT|= 1.826E-01 ANGLE=   8.2 DEGREES
:DIRT :  |MSR1|= 1.094E-01 |PRATT|= 2.114E-01 ANGLE=   9.7 DEGREES
:MIX  :   MSE1   REGULARIZATION:  2.66E-04 GREED: 0.19338  LMStep 0.58  0.5177 Step           
     
       CHARGES OF MIXED CHARGE DENSITY
:CTO   : INTERSTITIAL CHARGE =     2.719592
:CPC   : PW Pseudocharge     =     7.837541
:CTO001: CHARGE SPHERE  1    =    56.280408

:NEC03: NUCLEAR AND ELECTRONIC CHARGE     59.00000    59.00000

PW CHANGE     H    K    L      Current       Change    Residue
:PTO001:      0    0    0  5.70539964E-02 -9.607E-05 -1.150E-05
:PTO002:     -1   -1   -1 -1.53503717E-01  1.912E-03  3.046E-03
:PTO003:      0    0   -2  8.69841026E-02 -1.354E-03 -2.138E-03
:PTO004:      0   -2   -2  6.09381419E-02 -2.957E-03 -4.834E-03
:PTO005:     -1   -1   -3 -4.43098300E-02  4.561E-03  7.446E-03
:PTO006:     -2   -2   -2  9.97116010E-03 -1.298E-03 -2.082E-03
:PTO007:      0    0   -4 -5.81165287E-04 -5.974E-04 -9.654E-04
:PTO008:     -1   -3   -3  6.75525751E-03  1.717E-03  2.828E-03
:PTO009:      0   -2   -4 -8.24302678E-03 -1.482E-03 -2.467E-03
:PTO010:     -2   -2   -4 -9.13938631E-03 -4.619E-04 -7.243E-04
:PTO011:     -3   -3   -3  2.75212946E-03 -2.968E-05 -8.149E-05
:PTO012:     -1   -1   -5  8.25439596E-03  1.065E-04  1.546E-04

:ENE  : ********** TOTAL ENERGY IN Ry =       -18472.12260991


------- case.scf0 --------
 Flat Integration
 New Mode for Coulomb Integral
 Consistent 3/8+Simpson combinations
 Extension of core to zero
 LDM version in phi
 Fifth-order quadrature in outwin


            ---------
:ITE027: 27. ITERATION
            ---------

:NATO :    1 INDEPENDENT AND    1 TOTAL ATOMS IN UNITCELL
       SUBSTANCE: blebleble                                                   

       LATTICE                      = F   
:POT  : POTENTIAL OPTION EX_LDA EC_LDA VX_LDA VC_LDA
:LAT  : LATTICE CONSTANTS=  9.04565  9.04565  9.04565    1.571    1.571    1.571
:VOL  : UNIT CELL VOLUME =     185.03757
       MODE OF CALCULATION IS       = RELA
       NON-SPINPOLARIZED CALCULATION
:IFFT  : FFT-parameters:   72   72   72 Factor: 2.00


   CONVERGENCE PARAMETER FOR PSEUDOCHARGE: NCON=  9
   MAXIMAL VALUE OF RMT(JATOM)*ABSK(NKK) : RK  =29.87623


:VKCOUL :  VK-COUL convergence: 0.695E-07
       ATOMNUMBER=  1 Pr         VCOUL-ZERO =  0.47461E+00
:FIT001: LUSE= 13 SIGMA OF V-XC FIT FOR ATOM  1  0.2976963E-04
:FIT001: LUSE= 13 SIGMA OF V-XC FIT FOR ATOM  1  0.2976963E-04
:DEN  : DENSITY INTEGRAL  =         -7087.41909991   (Ry)
       ELS_POTENTIAL_AT Z=0 and Z=0.5:  -2.69863  -2.69863
       ELS_POTENTIAL_AT Y=0 and Y=0.5:   0.00000   0.00000
:VZERO:v0,v0c,v0x  -3.74369  -2.69863  -1.04505 v5,v5c,v5x  -3.74369  -2.69863  -1.04505
:VZERY:v0,v0c,v0x  -0.79215   0.00000  -0.79215 v5,v5c,v5x  -0.79215   0.00000  -0.79215
:VZERX:v0,v0c,v0x  -0.79215   0.00000  -0.79215 v5,v5c,v5x  -0.79215   0.00000  -0.79215

------- case.scf1 --------
:LMAX-WF:   10   Non-Spherical LMAX:   4

          ATOMIC SPHERE DEPENDENT PARAMETERS FOR ATOM  Pr        
:e__0001: OVERALL ENERGY PARAMETER IS    0.5969
          OVERALL BASIS SET ON ATOM IS LAPW
:E0_0001: E( 0)=    0.5969
             APW+lo
:E0_0001: E( 0)=   -1.8375   E(BOTTOM)=   -2.223   E(TOP)=   -1.452  4  5   203
             LOCAL ORBITAL
:E1_0001: E( 1)=    0.9969
             APW+lo
:E1_0001: E( 1)=   -0.4532   E(BOTTOM)=   -1.107   E(TOP)=    0.200  3  4   198
             LOCAL ORBITAL
:E3_0001: E( 3)=    0.8403   E(BOTTOM)=    0.695   E(TOP)=    0.986  0  1   125
             APW+lo
:E2_0001: E( 2)=    0.5969   E(BOTTOM)=    0.462   E(TOP)= -200.000  2 -1    82
             APW+lo

       K=   0.00000   0.00000   0.00000            1
:RKM  : MATRIX SIZE   133LOs:  20  RKM= 7.77  WEIGHT= 1.00  PGR:    
       EIGENVALUES ARE:
:EIG00001:      -1.8200392   -0.4028520   -0.4028520   -0.4028520    0.5612640
:EIG00006:       0.8101512    0.8460457    0.8460457    0.8460457    0.8908470
:EIG00011:       0.8908470    0.8908470    0.9412918    0.9412918    0.9412918
:EIG00016:       1.1797549    1.1797549    1.6056897    1.8836891    1.8836891
:EIG00021:       1.8836891    1.9684100    2.9695427    2.9695427    2.9695427
:EIG00026:       3.1347601    3.1347601    3.1347601    3.2341151    3.2341151
:EIG00031:       3.7813780    3.9456108    3.9456108    3.9456108    4.4717035
:EIG00036:       4.4717035    4.7033703    4.7033703    4.7033703    4.7682789
:EIG00041:       4.7682789    4.7682789    4.7796238    4.7796238    4.7796238
:EIG00046:       5.1274532    5.1274532    5.1274532    5.2306367    5.2306367
 
:EIG00051:       5.3224084    5.4784554    5.4784554    5.4784554    5.5866767
:EIG00056:       5.5882341    5.5882341    5.5882341    5.6599639    5.6599639
:EIG00061:       5.6599639    5.6816911    6.1777148    6.1777148    6.1777148
:EIG00066:       6.8288667    7.4872097    7.5069118    7.5069118    8.1022080
:EIG00071:       8.1022080    8.1022080
       ********************************************************

:KPT   :      NUMBER OF K-POINTS:   165

------- case.scfso --------
   0.0   0.0 angle (M,z), angle (M,x) deg
 
        SPIN-ORBIT EIGENVALUES:
     K=   0.00000   0.00000   0.00000            1
      MATRIX SIZE=  144   WEIGHT= 1.00
     EIGENVALUES ARE:
          -1.8200392   -1.8200392   -0.5539988   -0.5539988   -0.3313737
          -0.3313737   -0.3313737   -0.3313737    0.5612640    0.5612640
           0.8079510    0.8079510    0.8371574    0.8371574    0.8371574
           0.8371574    0.8572618    0.8572618    0.8887214    0.8887214
           0.8961842    0.8961842    0.8961842    0.8961842    0.9372723
           0.9372723    0.9372723    0.9372723    0.9483268    0.9483268
           1.1800842    1.1800842    1.1800842    1.1800842    1.6057672
           1.6057672    1.8796969    1.8796969    1.8856270    1.8856270

           1.8856270    1.8856270    1.9684100    1.9684100    2.9642464
           2.9642464    2.9642464    2.9642464    2.9796016    2.9796016
           3.0515822    3.0515822    3.1773226    3.1773226    3.1773226
           3.1773226    3.2344174    3.2344174    3.2344174    3.2344174
           3.7813780    3.7813780    3.9452158    3.9452158    3.9458187
           3.9458187    3.9458187    3.9458187    4.4716428    4.4716428
           4.4716428    4.4716428
       ********************************************************

------- case.scf2 --------
:GMA  : POTENTIAL AND CHARGE CUT-OFF  12.00 Ry**.5




:POS001: at.nr.   1 position = 0.00000 0.00000 0.50000  multiplicity =  1

       lmmax  5
       lm=   0 0  4 0  4 4  6 0  6 4
:FER gutzwiller fermi energy   0.81427
:EORB          0.014821573
:SUM sum of gutz band energies         -2.668360843

:CHA001: total charge inside sphere   1 =    10.275304
:PCS001: partial charges sphere =  1 s,p,d,f,      d-eg,d-t2g 
:QTL001: 2.0398 5.3209 0.8580 2.0553 0.0000 0.0000 0.0000 0.3158 0.5422 0.0000 0.0000 0.0000

:CHA  : total charge inside unit cell =       6.500000

------- case.scfc --------

        1.ATOM      Pr                   14 CORE STATES
:1S 001: 1S               -3066.744220556 Ry
:2S 001: 2S                -492.494057855 Ry
:2PP001: 2P*               -465.593672952 Ry
:2P 001: 2P                -430.195998936 Ry
:3S 001: 3S                -105.583080841 Ry
:3PP001: 3P*                -94.120984421 Ry
:3P 001: 3P                 -87.113141883 Ry
:3DD001: 3D*                -67.040090008 Ry
:3D 001: 3D                 -65.528520473 Ry
:4S 001: 4S                 -20.263929459 Ry
:4PP001: 4P*                -15.971036753 Ry
:4P 001: 4P                 -14.444098206 Ry
:4DD001: 4D*                 -7.377895861 Ry
:4D 001: 4D                  -7.108657396 Ry

------- case.scfm --------
:CINT001 Core Integral Atom   1   45.999506

       DENSITY AT NUCLEUS
        JATOM        VALENCE       SEMI-CORE          CORE           TOTAL
:RTO001:   1      652.280613        0.000000   656824.223149   657476.503762
     
       CHARGES OF NEW CHARGE DENSITY
:NTO   : INTERSTITIAL CHARGE =     2.724669
:NPC   : PW Pseudocharge     =     7.828200
:NTO001: CHARGE SPHERE  1    =    56.274810

:NEC01: NUCLEAR AND ELECTRONIC CHARGE     59.00000    58.99948
     
       CHARGES OF OLD CHARGE DENSITY
:OTO   : INTERSTITIAL CHARGE =     2.719592
:OPC   : PW Pseudocharge     =     7.837541
:OTO001: CHARGE SPHERE  1    =    56.280408

:NEC02: NUCLEAR AND ELECTRONIC CHARGE     59.00000    59.00000
     
       CONVERGENCE TEST
:DTO001: DIFFERENCE IN SPHERE  1 =  0.0137628

:DIS  :  CHARGE DISTANCE       ( 0.0137628 for atom    1 spin 1)      0.0137628
 PW Mixed is           41
 
******************************************************
* MULTISECANT MIXING VER9 RELEASE 10.4.0              *
* Standard Mode with controls                        *
* Fixed density scale                                *
* Regularization       1.000E-04                     *
* Trust Upper Limit    5.000E+00                     *
* Max Number of Memory Steps    8                    *
******************************************************
 
:PWTMP   1.1959E+02  1.2500E+02  1.8504E+02
:PLANE:  PW TOTAL      3.4413 DISTAN   4.01E-02  1.16E+00 %
:CHARG:  CLM/ATOM    977.1823 DISTAN   8.26E-02  8.46E-03 %
 
Step History
        DMIX         DMIXT        Red     Pred      Trust     Lambda    MagRel    MagAbs     Beta
  1   3.5000E-02   3.5000E-02 -1.00E+00  1.00E+00 -1.00E+01  1.00E+00  3.50E-02  3.50E-02  1.00E+00
  2   2.5000E-02   2.5000E-02  9.67E-01  1.00E+00 -1.00E+01  1.00E+00  2.50E-02  8.23E-03  1.00E+00
  3   3.0941E-02   3.0941E-02  7.28E-01  1.00E+00 -1.00E+01  1.65E+00  3.09E-02  9.85E-03  1.00E+00
  4   7.7352E-02   7.7352E-02  9.12E-01  9.22E-01  2.90E-01  1.32E+00  8.93E-02  2.07E-02  9.35E-01
  5   1.9338E-01   1.5845E-01 -1.00E+00  4.83E-01  5.18E-01  1.00E+00  5.18E-01  1.09E-01  1.00E+00
:JACOBIANS    4.638E-01   9.330E-01
  
:NORMS:  1/Froebius, Min, Max, Used   0.8199E+00  0.6093E+00  0.9884E+00  0.9884E+00
:INFO :  Number of Memory Steps    4 Skipping    0
:INFO :  SLambda=    0.9736333270  Max    0.9736333270
:PREDicted Charge, CTotal, PW Trust    2.185E-03   2.185E-03   1.425E-02
:PREDicted DMix, Beta, BLim   2.0522E-01  1.4360E+00  8.9477E-01

Eigenvalues, unscaled except for SY+YY
   #     SY Real        SY Imag          SS             YY         SY+YY Real      SY+YY Imag
   1   2.043741E+00   0.000000E+00   2.058413E+00   2.107107E+00   4.095418E+00   0.000000E+00
   2   9.185486E-01   0.000000E+00   6.306178E-01   1.891442E+00   2.787151E+00   0.000000E+00
   3   1.227123E-16   0.000000E+00   6.835897E-05   1.449729E-03   1.504952E-06   0.000000E+00
   4   2.907082E-04   0.000000E+00   2.276699E-16   9.562693E-07   1.896958E-03   0.000000E+00
 
:INFO :  Singular value  4.105E+00 Weight  1.000E+00 Projection -5.884E-02
:INFO :  Singular value  2.780E+00 Weight  1.000E+00 Projection -1.383E-02
:INFO :  Singular value  1.899E-03 Weight  9.878E-01 Projection -5.503E-01
:INFO :  Singular value  1.503E-06 Weight  5.088E-05 Projection  1.545E-03
:RANK :  ACTIVE   2.99/4  =  74.70 % ; YY RANK   2.98/4  =  74.48 %
 
:BLIM :  VZERO Control Off
:TRUST:  Step 6.90E-01  Charge 7.50E-02 (e) CTO  2.50E-01 (e) PW  3.50E-01 (e)
:DTRUS:  Lambda    8.610E-01 Increment    7.276E-12 Iterations   108 DMIX    1.553E-01
:INFOA:  Angle SubSpace to MSR1      1.46
:DIRM :  MEMORY  4/8  SCALE   1.000 RED  0.43 PRED  0.48 NEXT  0.36 
:INFO :  Limited by Atoms F by Step T

:TRAVE:  Charge 2.01E-03 (e) CTO  2.01E-03 (e) PW  5.43E-03 (e)
:DIRP :  |MSR1|= 2.254E-02 |PRATT|= 4.005E-02 ANGLE=   3.3 DEGREES
:DIRQ :  |MSR1|= 5.923E-02 |PRATT|= 8.263E-02 ANGLE=  10.5 DEGREES
:DIRT :  |MSR1|= 6.338E-02 |PRATT|= 9.183E-02 ANGLE=  10.9 DEGREES
:MIX  :   MSD1   REGULARIZATION:  2.11E-04 GREED: 0.16443  LMStep 0.77  0.6902 Step           
     
       CHARGES OF MIXED CHARGE DENSITY
:CTO   : INTERSTITIAL CHARGE =     2.718816
:CPC   : PW Pseudocharge     =     7.833127
:CTO001: CHARGE SPHERE  1    =    56.281184

:NEC03: NUCLEAR AND ELECTRONIC CHARGE     59.00000    59.00000

PW CHANGE     H    K    L      Current       Change    Residue
:PTO001:      0    0    0  5.70259503E-02 -2.805E-05 -1.215E-05
:PTO002:     -1   -1   -1 -1.52906419E-01  5.973E-04  1.098E-03
:PTO003:      0    0   -2  8.65933438E-02 -3.908E-04 -7.804E-04
:PTO004:      0   -2   -2  5.98636281E-02 -1.075E-03 -1.840E-03
:PTO005:     -1   -1   -3 -4.27082854E-02  1.602E-03  2.823E-03
:PTO006:     -2   -2   -2  9.55257508E-03 -4.186E-04 -7.532E-04
:PTO007:      0    0   -4 -7.77183750E-04 -1.960E-04 -3.677E-04
:PTO008:     -1   -3   -3  7.40376006E-03  6.485E-04  1.118E-03
:PTO009:      0   -2   -4 -8.82540952E-03 -5.824E-04 -1.004E-03
:PTO010:     -2   -2   -4 -9.28069529E-03 -1.413E-04 -2.772E-04
:PTO011:     -3   -3   -3  2.71040546E-03 -4.172E-05 -4.867E-05
:PTO012:     -1   -1   -5  8.27616251E-03  2.177E-05  6.924E-05

:ENE  : ********** TOTAL ENERGY IN Ry =       -18472.12257164


------- case.scf0 --------
 Flat Integration
 New Mode for Coulomb Integral
 Consistent 3/8+Simpson combinations
 Extension of core to zero
 LDM version in phi
 Fifth-order quadrature in outwin


            ---------
:ITE028: 28. ITERATION
            ---------

:NATO :    1 INDEPENDENT AND    1 TOTAL ATOMS IN UNITCELL
       SUBSTANCE: blebleble                                                   

       LATTICE                      = F   
:POT  : POTENTIAL OPTION EX_LDA EC_LDA VX_LDA VC_LDA
:LAT  : LATTICE CONSTANTS=  9.04565  9.04565  9.04565    1.571    1.571    1.571
:VOL  : UNIT CELL VOLUME =     185.03757
       MODE OF CALCULATION IS       = RELA
       NON-SPINPOLARIZED CALCULATION
:IFFT  : FFT-parameters:   72   72   72 Factor: 2.00


   CONVERGENCE PARAMETER FOR PSEUDOCHARGE: NCON=  9
   MAXIMAL VALUE OF RMT(JATOM)*ABSK(NKK) : RK  =29.87623


:VKCOUL :  VK-COUL convergence: 0.521E-07
       ATOMNUMBER=  1 Pr         VCOUL-ZERO =  0.47593E+00
:FIT001: LUSE= 13 SIGMA OF V-XC FIT FOR ATOM  1  0.2467373E-04
:FIT001: LUSE= 13 SIGMA OF V-XC FIT FOR ATOM  1  0.2467373E-04
:DEN  : DENSITY INTEGRAL  =         -7087.31309792   (Ry)
       ELS_POTENTIAL_AT Z=0 and Z=0.5:  -2.70230  -2.70230
       ELS_POTENTIAL_AT Y=0 and Y=0.5:   0.00000   0.00000
:VZERO:v0,v0c,v0x  -3.74748  -2.70230  -1.04518 v5,v5c,v5x  -3.74748  -2.70230  -1.04518
:VZERY:v0,v0c,v0x  -0.79231   0.00000  -0.79231 v5,v5c,v5x  -0.79231   0.00000  -0.79231
:VZERX:v0,v0c,v0x  -0.79231   0.00000  -0.79231 v5,v5c,v5x  -0.79231   0.00000  -0.79231

------- case.scf1 --------
:LMAX-WF:   10   Non-Spherical LMAX:   4

          ATOMIC SPHERE DEPENDENT PARAMETERS FOR ATOM  Pr        
:e__0001: OVERALL ENERGY PARAMETER IS    0.5969
          OVERALL BASIS SET ON ATOM IS LAPW
:E0_0001: E( 0)=    0.5969
             APW+lo
:E0_0001: E( 0)=   -1.8367   E(BOTTOM)=   -2.222   E(TOP)=   -1.451  4  5   194
             LOCAL ORBITAL
:E1_0001: E( 1)=    0.9969
             APW+lo
:E1_0001: E( 1)=   -0.4524   E(BOTTOM)=   -1.106   E(TOP)=    0.201  3  4   193
             LOCAL ORBITAL
:E3_0001: E( 3)=    0.8405   E(BOTTOM)=    0.695   E(TOP)=    0.986  0  1   127
             APW+lo
:E2_0001: E( 2)=    0.5969   E(BOTTOM)=    0.463   E(TOP)= -200.000  2 -1    77
             APW+lo

       K=   0.00000   0.00000   0.00000            1
:RKM  : MATRIX SIZE   133LOs:  20  RKM= 7.77  WEIGHT= 1.00  PGR:    
       EIGENVALUES ARE:
:EIG00001:      -1.8192477   -0.4019906   -0.4019906   -0.4019906    0.5624261
:EIG00006:       0.8104565    0.8462977    0.8462977    0.8462977    0.8910327
:EIG00011:       0.8910327    0.8910327    0.9423154    0.9423154    0.9423154
:EIG00016:       1.1808151    1.1808151    1.6065732    1.8848474    1.8848474
:EIG00021:       1.8848474    1.9697686    2.9706159    2.9706159    2.9706159
:EIG00026:       3.1358025    3.1358025    3.1358025    3.2351711    3.2351711
:EIG00031:       3.7825182    3.9467762    3.9467762    3.9467762    4.4730309
:EIG00036:       4.4730309    4.7045567    4.7045567    4.7045567    4.7694489
:EIG00041:       4.7694489    4.7694489    4.7808833    4.7808833    4.7808833
:EIG00046:       5.1286307    5.1286307    5.1286307    5.2318039    5.2318039
 
:EIG00051:       5.3236877    5.4797622    5.4797622    5.4797622    5.5879226
:EIG00056:       5.5893826    5.5893826    5.5893826    5.6612523    5.6612523
:EIG00061:       5.6612523    5.6827979    6.1790123    6.1790123    6.1790123
:EIG00066:       6.8300953    7.4884703    7.5082230    7.5082230    8.1034369
:EIG00071:       8.1034369    8.1034369
       ********************************************************

:KPT   :      NUMBER OF K-POINTS:   165

------- case.scfso --------
   0.0   0.0 angle (M,z), angle (M,x) deg
 
        SPIN-ORBIT EIGENVALUES:
     K=   0.00000   0.00000   0.00000            1
      MATRIX SIZE=  144   WEIGHT= 1.00
     EIGENVALUES ARE:
          -1.8192477   -1.8192477   -0.5531560   -0.5531560   -0.3305032
          -0.3305032   -0.3305031   -0.3305031    0.5624261    0.5624261
           0.8082495    0.8082495    0.8373975    0.8373975    0.8373975
           0.8373975    0.8575237    0.8575237    0.8889120    0.8889120
           0.8963781    0.8963781    0.8963781    0.8963781    0.9382955
           0.9382955    0.9382955    0.9382955    0.9493514    0.9493514
           1.1811445    1.1811445    1.1811445    1.1811445    1.6066505
           1.6066505    1.8808532    1.8808532    1.8867861    1.8867861

           1.8867861    1.8867861    1.9697686    1.9697686    2.9653205
           2.9653205    2.9653205    2.9653205    2.9806731    2.9806731
           3.0526182    3.0526182    3.1783689    3.1783689    3.1783690
           3.1783690    3.2354734    3.2354734    3.2354734    3.2354734
           3.7825182    3.7825182    3.9463814    3.9463814    3.9469840
           3.9469840    3.9469840    3.9469840    4.4729701    4.4729701
           4.4729701    4.4729701
       ********************************************************

------- case.scf2 --------
:GMA  : POTENTIAL AND CHARGE CUT-OFF  12.00 Ry**.5




:POS001: at.nr.   1 position = 0.00000 0.00000 0.50000  multiplicity =  1

       lmmax  5
       lm=   0 0  4 0  4 4  6 0  6 4
:FER gutzwiller fermi energy   0.81555
:EORB          0.012213796
:SUM sum of gutz band energies         -2.655257436

:CHA001: total charge inside sphere   1 =    10.275293
:PCS001: partial charges sphere =  1 s,p,d,f,      d-eg,d-t2g 
:QTL001: 2.0399 5.3213 0.8590 2.0538 0.0000 0.0000 0.0000 0.3160 0.5430 0.0000 0.0000 0.0000

:CHA  : total charge inside unit cell =       6.500000

------- case.scfc --------

        1.ATOM      Pr                   14 CORE STATES
:1S 001: 1S               -3066.750381371 Ry
:2S 001: 2S                -492.499071709 Ry
:2PP001: 2P*               -465.598930539 Ry
:2P 001: 2P                -430.201164475 Ry
:3S 001: 3S                -105.585977140 Ry
:3PP001: 3P*                -94.123999638 Ry
:3P 001: 3P                 -87.116034801 Ry
:3DD001: 3D*                -67.043296851 Ry
:3D 001: 3D                 -65.531685309 Ry
:4S 001: 4S                 -20.264568052 Ry
:4PP001: 4P*                -15.971629234 Ry
:4P 001: 4P                 -14.444585496 Ry
:4DD001: 4D*                 -7.378260719 Ry
:4D 001: 4D                  -7.108990839 Ry

------- case.scfm --------
:CINT001 Core Integral Atom   1   45.999507

       DENSITY AT NUCLEUS
        JATOM        VALENCE       SEMI-CORE          CORE           TOTAL
:RTO001:   1      652.363567        0.000000   656824.863222   657477.226789
     
       CHARGES OF NEW CHARGE DENSITY
:NTO   : INTERSTITIAL CHARGE =     2.724766
:NPC   : PW Pseudocharge     =     7.828685
:NTO001: CHARGE SPHERE  1    =    56.274799

:NEC01: NUCLEAR AND ELECTRONIC CHARGE     59.00000    58.99957
     
       CHARGES OF OLD CHARGE DENSITY
:OTO   : INTERSTITIAL CHARGE =     2.718816
:OPC   : PW Pseudocharge     =     7.833127
:OTO001: CHARGE SPHERE  1    =    56.281184

:NEC02: NUCLEAR AND ELECTRONIC CHARGE     59.00000    59.00000
     
       CONVERGENCE TEST
:DTO001: DIFFERENCE IN SPHERE  1 =  0.0161263

:DIS  :  CHARGE DISTANCE       ( 0.0161263 for atom    1 spin 1)      0.0161263
 PW Mixed is           41
 
******************************************************
* MULTISECANT MIXING VER9 RELEASE 10.4.0              *
* Standard Mode with controls                        *
* Fixed density scale                                *
* Regularization       1.000E-04                     *
* Trust Upper Limit    5.000E+00                     *
* Max Number of Memory Steps    8                    *
******************************************************
 
:PWTMP   1.1959E+02  1.2500E+02  1.8504E+02
:PLANE:  PW TOTAL      3.4294 DISTAN   1.76E-02  5.12E-01 %
:CHARG:  CLM/ATOM    977.1780 DISTAN   2.86E-02  2.93E-03 %
 
Step History
        DMIX         DMIXT        Red     Pred      Trust     Lambda    MagRel    MagAbs     Beta
  1   3.5000E-02   3.5000E-02 -1.00E+00  1.00E+00 -1.00E+01  1.00E+00  3.50E-02  3.50E-02  1.00E+00
  2   2.5000E-02   2.5000E-02  9.67E-01  1.00E+00 -1.00E+01  1.00E+00  2.50E-02  8.23E-03  1.00E+00
  3   3.0941E-02   3.0941E-02  7.28E-01  1.00E+00 -1.00E+01  1.65E+00  3.09E-02  9.85E-03  1.00E+00
  4   7.7352E-02   7.7352E-02  9.12E-01  9.22E-01  2.90E-01  1.32E+00  8.93E-02  2.07E-02  9.35E-01
  5   1.9338E-01   1.5845E-01  4.34E-01  4.83E-01  5.18E-01  9.74E-01  5.18E-01  1.09E-01  1.00E+00
  6   1.6443E-01   1.5532E-01 -1.00E+00  3.60E-01  6.90E-01  1.00E+00  6.90E-01  6.34E-02  1.00E+00
:JACOBIANS    4.874E-01   1.337E+00
  
:NORMS:  1/Froebius, Min, Max, Used   0.9082E+00  0.5577E+00  0.1004E+01  0.9990E+00
:INFO :  Number of Memory Steps    5 Skipping    0
:INFO :  SLambda=    0.9286025530  Max    0.9286025530
:PREDicted Charge, CTotal, PW Trust    3.015E-03   3.015E-03   2.053E-03
:PREDicted DMix, Beta, BLim   4.6178E-01  1.4229E+00  9.8882E-01

Eigenvalues, unscaled except for SY+YY
   #     SY Real        SY Imag          SS             YY         SY+YY Real      SY+YY Imag
   1   3.673878E+00   0.000000E+00   3.700730E+00   3.707812E+00   7.120757E+00   0.000000E+00
   2   6.097971E-01   0.000000E+00   4.197296E-01   1.281373E+00   1.846024E+00   0.000000E+00
   3   6.114616E-03   0.000000E+00   4.044033E-03   1.059070E-02   1.643116E-02   0.000000E+00
   4   5.010292E-17   0.000000E+00   8.862967E-06   2.238006E-04   5.862237E-07   0.000000E+00
   5   5.119437E-05   0.000000E+00   1.027428E-16   5.574573E-07   3.443599E-04   0.000000E+00
 
:INFO :  Singular value  7.123E+00 Weight  1.000E+00 Projection -1.233E-02
:INFO :  Singular value  1.845E+00 Weight  1.000E+00 Projection -1.016E-02
:INFO :  Singular value  1.644E-02 Weight  9.995E-01 Projection -2.006E-01
:INFO :  Singular value  3.442E-04 Weight  4.629E-01 Projection -3.260E-01
:INFO :  Singular value  5.860E-07 Weight  2.498E-06 Projection -7.583E-06
:RANK :  ACTIVE   3.46/5  =  69.25 % ; YY RANK   3.27/5  =  65.32 %
 
:BLIM :  VZERO Control Off
:TRUST:  Step 9.20E-01  Charge 7.50E-02 (e) CTO  2.50E-01 (e) PW  3.50E-01 (e)
:DIRM :  MEMORY  5/8  SCALE   1.000 RED  0.37 PRED  0.36 NEXT  0.20 
:TRAVE:  Charge 2.38E-03 (e) CTO  2.38E-03 (e) PW  2.81E-03 (e)
:DIRP :  |MSR1|= 1.436E-02 |PRATT|= 1.757E-02 ANGLE=   2.9 DEGREES
:DIRQ :  |MSR1|= 2.690E-02 |PRATT|= 2.860E-02 ANGLE=  14.1 DEGREES
:DIRT :  |MSR1|= 3.050E-02 |PRATT|= 3.356E-02 ANGLE=  12.8 DEGREES
:MIX  :   MSD1   REGULARIZATION:  3.71E-04 GREED: 0.30291  Newton 1.00  0.9086                
     
       CHARGES OF MIXED CHARGE DENSITY
:CTO   : INTERSTITIAL CHARGE =     2.721572
:CPC   : PW Pseudocharge     =     7.830091
:CTO001: CHARGE SPHERE  1    =    56.278428

:NEC03: NUCLEAR AND ELECTRONIC CHARGE     59.00000    59.00000

PW CHANGE     H    K    L      Current       Change    Residue
:PTO001:      0    0    0  5.70244370E-02 -1.513E-06  1.724E-05
:PTO002:     -1   -1   -1 -1.52520103E-01  3.863E-04  4.875E-04
:PTO003:      0    0   -2  8.62850937E-02 -3.083E-04 -3.969E-04
:PTO004:      0   -2   -2  5.92232727E-02 -6.404E-04 -7.629E-04
:PTO005:     -1   -1   -3 -4.16994344E-02  1.009E-03  1.224E-03
:PTO006:     -2   -2   -2  9.28961752E-03 -2.630E-04 -3.271E-04
:PTO007:      0    0   -4 -9.17642360E-04 -1.405E-04 -1.746E-04
:PTO008:     -1   -3   -3  7.80539024E-03  4.016E-04  4.730E-04
:PTO009:      0   -2   -4 -9.19470024E-03 -3.693E-04 -4.320E-04
:PTO010:     -2   -2   -4 -9.39203583E-03 -1.113E-04 -1.382E-04
:PTO011:     -3   -3   -3  2.69829887E-03 -1.211E-05 -8.173E-06
:PTO012:     -1   -1   -5  8.31789995E-03  4.174E-05  5.363E-05

:ENE  : ********** TOTAL ENERGY IN Ry =       -18472.12268318


------- case.scf0 --------
 Flat Integration
 New Mode for Coulomb Integral
 Consistent 3/8+Simpson combinations
 Extension of core to zero
 LDM version in phi
 Fifth-order quadrature in outwin


            ---------
:ITE029: 29. ITERATION
            ---------

:NATO :    1 INDEPENDENT AND    1 TOTAL ATOMS IN UNITCELL
       SUBSTANCE: blebleble                                                   

       LATTICE                      = F   
:POT  : POTENTIAL OPTION EX_LDA EC_LDA VX_LDA VC_LDA
:LAT  : LATTICE CONSTANTS=  9.04565  9.04565  9.04565    1.571    1.571    1.571
:VOL  : UNIT CELL VOLUME =     185.03757
       MODE OF CALCULATION IS       = RELA
       NON-SPINPOLARIZED CALCULATION
:IFFT  : FFT-parameters:   72   72   72 Factor: 2.00


   CONVERGENCE PARAMETER FOR PSEUDOCHARGE: NCON=  9
   MAXIMAL VALUE OF RMT(JATOM)*ABSK(NKK) : RK  =29.87623


:VKCOUL :  VK-COUL convergence: 0.448E-07
       ATOMNUMBER=  1 Pr         VCOUL-ZERO =  0.47693E+00
:FIT001: LUSE= 13 SIGMA OF V-XC FIT FOR ATOM  1  0.2333332E-04
:FIT001: LUSE= 13 SIGMA OF V-XC FIT FOR ATOM  1  0.2333332E-04
:DEN  : DENSITY INTEGRAL  =         -7087.22694329   (Ry)
       ELS_POTENTIAL_AT Z=0 and Z=0.5:  -2.70661  -2.70661
       ELS_POTENTIAL_AT Y=0 and Y=0.5:   0.00000   0.00000
:VZERO:v0,v0c,v0x  -3.75144  -2.70661  -1.04483 v5,v5c,v5x  -3.75144  -2.70661  -1.04483
:VZERY:v0,v0c,v0x  -0.79256   0.00000  -0.79256 v5,v5c,v5x  -0.79256   0.00000  -0.79256
:VZERX:v0,v0c,v0x  -0.79256   0.00000  -0.79256 v5,v5c,v5x  -0.79256   0.00000  -0.79256

------- case.scf1 --------
:LMAX-WF:   10   Non-Spherical LMAX:   4

          ATOMIC SPHERE DEPENDENT PARAMETERS FOR ATOM  Pr        
:e__0001: OVERALL ENERGY PARAMETER IS    0.5969
          OVERALL BASIS SET ON ATOM IS LAPW
:E0_0001: E( 0)=    0.5969
             APW+lo
:E0_0001: E( 0)=   -1.8379   E(BOTTOM)=   -2.223   E(TOP)=   -1.453  4  5   200
             LOCAL ORBITAL
:E1_0001: E( 1)=    0.9969
             APW+lo
:E1_0001: E( 1)=   -0.4532   E(BOTTOM)=   -1.106   E(TOP)=    0.200  3  4   195
             LOCAL ORBITAL
:E3_0001: E( 3)=    0.8380   E(BOTTOM)=    0.693   E(TOP)=    0.983  0  1   119
             APW+lo
:E2_0001: E( 2)=    0.5969   E(BOTTOM)=    0.463   E(TOP)= -200.000  2 -1    81
             APW+lo

       K=   0.00000   0.00000   0.00000            1
:RKM  : MATRIX SIZE   133LOs:  20  RKM= 7.77  WEIGHT= 1.00  PGR:    
       EIGENVALUES ARE:
:EIG00001:      -1.8203124   -0.4027326   -0.4027326   -0.4027326    0.5630814
:EIG00006:       0.8084904    0.8440036    0.8440036    0.8440036    0.8884678
:EIG00011:       0.8884678    0.8884678    0.9426603    0.9426603    0.9426603
:EIG00016:       1.1809513    1.1809513    1.6068294    1.8854151    1.8854151
:EIG00021:       1.8854151    1.9708897    2.9707877    2.9707877    2.9707877
:EIG00026:       3.1361416    3.1361416    3.1361416    3.2355692    3.2355692
:EIG00031:       3.7831715    3.9476469    3.9476469    3.9476469    4.4734503
:EIG00036:       4.4734503    4.7050813    4.7050813    4.7050813    4.7701223
:EIG00041:       4.7701223    4.7701223    4.7815293    4.7815293    4.7815293
:EIG00046:       5.1295061    5.1295061    5.1295061    5.2327520    5.2327520
 
:EIG00051:       5.3243853    5.4807603    5.4807603    5.4807603    5.5890710
:EIG00056:       5.5903515    5.5903515    5.5903515    5.6622907    5.6622907
:EIG00061:       5.6622907    5.6832538    6.1801552    6.1801552    6.1801552
:EIG00066:       6.8314043    7.4892040    7.5089830    7.5089830    8.1043923
:EIG00071:       8.1043923    8.1043923
       ********************************************************

:KPT   :      NUMBER OF K-POINTS:   165

------- case.scfso --------
   0.0   0.0 angle (M,z), angle (M,x) deg
 
        SPIN-ORBIT EIGENVALUES:
     K=   0.00000   0.00000   0.00000            1
      MATRIX SIZE=  144   WEIGHT= 1.00
     EIGENVALUES ARE:
          -1.8203124   -1.8203124   -0.5539873   -0.5539873   -0.3312016
          -0.3312016   -0.3312016   -0.3312016    0.5630814    0.5630814
           0.8062598    0.8062598    0.8350732    0.8350732    0.8350732
           0.8350732    0.8552484    0.8552484    0.8863690    0.8863690
           0.8938356    0.8938356    0.8938356    0.8938356    0.9386350
           0.9386350    0.9386350    0.9386350    0.9497045    0.9497045
           1.1812818    1.1812818    1.1812818    1.1812818    1.6069060
           1.6069060    1.8814080    1.8814080    1.8873598    1.8873598

           1.8873598    1.8873598    1.9708897    1.9708897    2.9654913
           2.9654913    2.9654913    2.9654913    2.9808472    2.9808472
           3.0529402    3.0529402    3.1787192    3.1787192    3.1787192
           3.1787192    3.2358715    3.2358715    3.2358715    3.2358715
           3.7831715    3.7831715    3.9472529    3.9472529    3.9478542
           3.9478542    3.9478542    3.9478542    4.4733897    4.4733897
           4.4733897    4.4733897
       ********************************************************

------- case.scf2 --------
:GMA  : POTENTIAL AND CHARGE CUT-OFF  12.00 Ry**.5




:POS001: at.nr.   1 position = 0.00000 0.00000 0.50000  multiplicity =  1

       lmmax  5
       lm=   0 0  4 0  4 4  6 0  6 4
:FER gutzwiller fermi energy   0.81593
:EORB          0.006193598
:SUM sum of gutz band energies         -2.658582369

:CHA001: total charge inside sphere   1 =    10.278836
:PCS001: partial charges sphere =  1 s,p,d,f,      d-eg,d-t2g 
:QTL001: 2.0400 5.3224 0.8593 2.0559 0.0000 0.0000 0.0000 0.3160 0.5433 0.0000 0.0000 0.0000

:CHA  : total charge inside unit cell =       6.500000

------- case.scfc --------

        1.ATOM      Pr                   14 CORE STATES
:1S 001: 1S               -3066.748007349 Ry
:2S 001: 2S                -492.498243546 Ry
:2PP001: 2P*               -465.597756392 Ry
:2P 001: 2P                -430.200119408 Ry
:3S 001: 3S                -105.587964288 Ry
:3PP001: 3P*                -94.125840329 Ry
:3P 001: 3P                 -87.118011104 Ry
:3DD001: 3D*                -67.044892742 Ry
:3D 001: 3D                 -65.533331974 Ry
:4S 001: 4S                 -20.267908800 Ry
:4PP001: 4P*                -15.974929822 Ry
:4P 001: 4P                 -14.447867849 Ry
:4DD001: 4D*                 -7.381421259 Ry
:4D 001: 4D                  -7.112138636 Ry

------- case.scfm --------
:CINT001 Core Integral Atom   1   45.999508

       DENSITY AT NUCLEUS
        JATOM        VALENCE       SEMI-CORE          CORE           TOTAL
:RTO001:   1      652.645690        0.000000   656824.330144   657476.975834
     
       CHARGES OF NEW CHARGE DENSITY
:NTO   : INTERSTITIAL CHARGE =     2.721283
:NPC   : PW Pseudocharge     =     7.827260
:NTO001: CHARGE SPHERE  1    =    56.278344

:NEC01: NUCLEAR AND ELECTRONIC CHARGE     59.00000    58.99963
     
       CHARGES OF OLD CHARGE DENSITY
:OTO   : INTERSTITIAL CHARGE =     2.721572
:OPC   : PW Pseudocharge     =     7.830091
:OTO001: CHARGE SPHERE  1    =    56.278428

:NEC02: NUCLEAR AND ELECTRONIC CHARGE     59.00000    59.00000
     
       CONVERGENCE TEST
:DTO001: DIFFERENCE IN SPHERE  1 =  0.0019811

:DIS  :  CHARGE DISTANCE       ( 0.0019811 for atom    1 spin 1)      0.0019811
 PW Mixed is           41
 
******************************************************
* MULTISECANT MIXING VER9 RELEASE 10.4.0              *
* Standard Mode with controls                        *
* Fixed density scale                                *
* Regularization       1.000E-04                     *
* Trust Upper Limit    5.000E+00                     *
* Max Number of Memory Steps    8                    *
******************************************************
 
:PWTMP   1.1959E+02  1.2500E+02  1.8504E+02
:PLANE:  PW TOTAL      3.4220 DISTAN   2.87E-03  8.39E-02 %
:CHARG:  CLM/ATOM    977.1834 DISTAN   2.20E-03  2.25E-04 %
 
Step History
        DMIX         DMIXT        Red     Pred      Trust     Lambda    MagRel    MagAbs     Beta
  1   3.5000E-02   3.5000E-02 -1.00E+00  1.00E+00 -1.00E+01  1.00E+00  3.50E-02  3.50E-02  1.00E+00
  2   2.5000E-02   2.5000E-02  9.67E-01  1.00E+00 -1.00E+01  1.00E+00  2.50E-02  8.23E-03  1.00E+00
  3   3.0941E-02   3.0941E-02  7.28E-01  1.00E+00 -1.00E+01  1.65E+00  3.09E-02  9.85E-03  1.00E+00
  4   7.7352E-02   7.7352E-02  9.12E-01  9.22E-01  2.90E-01  1.32E+00  8.93E-02  2.07E-02  9.35E-01
  5   1.9338E-01   1.5845E-01  4.34E-01  4.83E-01  5.18E-01  9.74E-01  5.18E-01  1.09E-01  1.00E+00
  6   1.6443E-01   1.5532E-01  3.66E-01  3.60E-01  6.90E-01  9.29E-01  6.90E-01  6.34E-02  1.00E+00
  7   3.0291E-01   3.0291E-01 -1.00E+00  2.01E-01  9.20E-01  1.00E+00  9.09E-01  3.05E-02  1.00E+00
:JACOBIANS    6.742E-01   1.587E+00
  
:NORMS:  1/Froebius, Min, Max, Used   0.9287E+00  0.5643E+00  0.1012E+01  0.1012E+01
:INFO :  Number of Memory Steps    6 Skipping    0
:INFO :  SLambda=    1.0500982074  Max    1.0500982074
:PREDicted Charge, CTotal, PW Trust    3.440E-03   3.440E-03   8.872E-04
:PREDicted DMix, Beta, BLim   3.5631E-01  1.0554E+00  9.5287E-01

Eigenvalues, unscaled except for SY+YY
   #     SY Real        SY Imag          SS             YY         SY+YY Real      SY+YY Imag
   1   4.541082E+00   0.000000E+00   4.599721E+00   4.495610E+00   9.263945E+00   0.000000E+00
   2   5.788183E-01   0.000000E+00   4.308566E-01   1.221080E+00   1.833536E+00   0.000000E+00
   3   2.104217E-01   0.000000E+00   1.445590E-01   2.822928E-01   4.986380E-01   0.000000E+00
   4   2.632180E-04   0.000000E+00   5.707737E-05   1.012144E-03   1.513746E-03   0.000000E+00
   5  -2.050835E-16   0.000000E+00   7.458493E-07   4.786982E-06   3.661864E-07   0.000000E+00
   6   1.604402E-06   0.000000E+00  -4.237933E-16   3.292586E-07   7.312302E-06   0.000000E+00
 
:INFO :  Singular value  9.265E+00 Weight  1.000E+00 Projection  9.627E-05
:INFO :  Singular value  1.837E+00 Weight  1.000E+00 Projection -2.160E-03
:INFO :  Singular value  4.977E-01 Weight  1.000E+00 Projection -1.044E-03
:INFO :  Singular value  1.515E-03 Weight  9.191E-01 Projection -7.085E-02
:INFO :  Singular value  7.352E-06 Weight  2.674E-04 Projection -2.345E-04
:INFO :  Singular value  3.639E-07 Weight  6.552E-07 Projection  5.292E-07
:RANK :  ACTIVE   3.92/6  =  65.32 % ; YY RANK   3.84/6  =  63.92 %
 
:BLIM :  VZERO Control Off
:TRUST:  Step 2.40E+00  Charge 6.00E-02 (e) CTO  2.00E-01 (e) PW  2.80E-01 (e)
:DIRM :  MEMORY  6/8  SCALE   1.000 RED  0.11 PRED  0.20 NEXT  0.56 
:TRAVE:  Charge 1.41E-03 (e) CTO  1.41E-03 (e) PW  1.68E-03 (e)
:DIRP :  |MSR1|= 2.643E-03 |PRATT|= 2.871E-03 ANGLE=   4.2 DEGREES
:DIRQ :  |MSR1|= 1.591E-03 |PRATT|= 2.198E-03 ANGLE=  38.7 DEGREES
:DIRT :  |MSR1|= 3.085E-03 |PRATT|= 3.616E-03 ANGLE=  22.6 DEGREES
:MIX  :   MSE1   REGULARIZATION:  4.50E-04 GREED: 0.28989  Newton 1.00  0.8531                
     
       CHARGES OF MIXED CHARGE DENSITY
:CTO   : INTERSTITIAL CHARGE =     2.722016
:CPC   : PW Pseudocharge     =     7.828800
:CTO001: CHARGE SPHERE  1    =    56.277984

:NEC03: NUCLEAR AND ELECTRONIC CHARGE     59.00000    59.00000

PW CHANGE     H    K    L      Current       Change    Residue
:PTO001:      0    0    0  5.70198573E-02 -4.580E-06 -9.050E-06
:PTO002:     -1   -1   -1 -1.52441317E-01  7.879E-05  8.368E-05
:PTO003:      0    0   -2  8.62163229E-02 -6.877E-05 -7.911E-05
:PTO004:      0   -2   -2  5.91185832E-02 -1.047E-04 -1.070E-04
:PTO005:     -1   -1   -3 -4.15230799E-02  1.764E-04  1.878E-04
:PTO006:     -2   -2   -2  9.23843674E-03 -5.118E-05 -5.312E-05
:PTO007:      0    0   -4 -9.45547529E-04 -2.791E-05 -3.245E-05
:PTO008:     -1   -3   -3  7.87151334E-03  6.612E-05  7.462E-05
:PTO009:      0   -2   -4 -9.25315258E-03 -5.845E-05 -6.816E-05
:PTO010:     -2   -2   -4 -9.41747178E-03 -2.544E-05 -3.212E-05
:PTO011:     -3   -3   -3  2.70174116E-03  3.442E-06  5.162E-06
:PTO012:     -1   -1   -5  8.32995524E-03  1.206E-05  1.772E-05

:ENE  : ********** TOTAL ENERGY IN Ry =       -18472.12270622


------- case.scf0 --------
 Flat Integration
 New Mode for Coulomb Integral
 Consistent 3/8+Simpson combinations
 Extension of core to zero
 LDM version in phi
 Fifth-order quadrature in outwin


            ---------
:ITE030: 30. ITERATION
            ---------

:NATO :    1 INDEPENDENT AND    1 TOTAL ATOMS IN UNITCELL
       SUBSTANCE: blebleble                                                   

       LATTICE                      = F   
:POT  : POTENTIAL OPTION EX_LDA EC_LDA VX_LDA VC_LDA
:LAT  : LATTICE CONSTANTS=  9.04565  9.04565  9.04565    1.571    1.571    1.571
:VOL  : UNIT CELL VOLUME =     185.03757
       MODE OF CALCULATION IS       = RELA
       NON-SPINPOLARIZED CALCULATION
:IFFT  : FFT-parameters:   72   72   72 Factor: 2.00


   CONVERGENCE PARAMETER FOR PSEUDOCHARGE: NCON=  9
   MAXIMAL VALUE OF RMT(JATOM)*ABSK(NKK) : RK  =29.87623


:VKCOUL :  VK-COUL convergence: 0.450E-07
       ATOMNUMBER=  1 Pr         VCOUL-ZERO =  0.47707E+00
:FIT001: LUSE= 13 SIGMA OF V-XC FIT FOR ATOM  1  0.2349039E-04
:FIT001: LUSE= 13 SIGMA OF V-XC FIT FOR ATOM  1  0.2349039E-04
:DEN  : DENSITY INTEGRAL  =         -7087.19459038   (Ry)
       ELS_POTENTIAL_AT Z=0 and Z=0.5:  -2.70729  -2.70729
       ELS_POTENTIAL_AT Y=0 and Y=0.5:   0.00000   0.00000
:VZERO:v0,v0c,v0x  -3.75195  -2.70729  -1.04466 v5,v5c,v5x  -3.75195  -2.70729  -1.04466
:VZERY:v0,v0c,v0x  -0.79259   0.00000  -0.79259 v5,v5c,v5x  -0.79259   0.00000  -0.79259
:VZERX:v0,v0c,v0x  -0.79259   0.00000  -0.79259 v5,v5c,v5x  -0.79259   0.00000  -0.79259

------- case.scf1 --------
:LMAX-WF:   10   Non-Spherical LMAX:   4

          ATOMIC SPHERE DEPENDENT PARAMETERS FOR ATOM  Pr        
:e__0001: OVERALL ENERGY PARAMETER IS    0.5969
          OVERALL BASIS SET ON ATOM IS LAPW
:E0_0001: E( 0)=    0.5969
             APW+lo
:E0_0001: E( 0)=   -1.8381   E(BOTTOM)=   -2.223   E(TOP)=   -1.453  4  5   195
             LOCAL ORBITAL
:E1_0001: E( 1)=    0.9969
             APW+lo
:E1_0001: E( 1)=   -0.4534   E(BOTTOM)=   -1.106   E(TOP)=    0.200  3  4   194
             LOCAL ORBITAL
:E3_0001: E( 3)=    0.8375   E(BOTTOM)=    0.693   E(TOP)=    0.982  0  1   128
             APW+lo
:E2_0001: E( 2)=    0.5969   E(BOTTOM)=    0.463   E(TOP)= -200.000  2 -1    77
             APW+lo

       K=   0.00000   0.00000   0.00000            1
:RKM  : MATRIX SIZE   133LOs:  20  RKM= 7.77  WEIGHT= 1.00  PGR:    
       EIGENVALUES ARE:
:EIG00001:      -1.8204996   -0.4028637   -0.4028637   -0.4028637    0.5631590
:EIG00006:       0.8081014    0.8435497    0.8435497    0.8435497    0.8879603
:EIG00011:       0.8879603    0.8879603    0.9427085    0.9427085    0.9427085
:EIG00016:       1.1809593    1.1809593    1.6068347    1.8854611    1.8854611
:EIG00021:       1.8854611    1.9710330    2.9707928    2.9707928    2.9707928
:EIG00026:       3.1361736    3.1361736    3.1361736    3.2356221    3.2356221
:EIG00031:       3.7832517    3.9477663    3.9477663    3.9477663    4.4734828
:EIG00036:       4.4734828    4.7051507    4.7051507    4.7051507    4.7702031
:EIG00041:       4.7702031    4.7702031    4.7816235    4.7816235    4.7816235
:EIG00046:       5.1296327    5.1296327    5.1296327    5.2328928    5.2328928
 
:EIG00051:       5.3244709    5.4808971    5.4808971    5.4808971    5.5892307
:EIG00056:       5.5905003    5.5905003    5.5905003    5.6624308    5.6624308
:EIG00061:       5.6624308    5.6833077    6.1803164    6.1803164    6.1803164
:EIG00066:       6.8316050    7.4893059    7.5090849    7.5090849    8.1045287
[...]

       lmmax  5
       lm=   0 0  4 0  4 4  6 0  6 4
:FER gutzwiller fermi energy   0.81697
:EORB         -0.007196612
:SUM sum of gutz band energies         -2.669458082

:CHA001: total charge inside sphere   1 =    10.274924
:PCS001: partial charges sphere =  1 s,p,d,f,      d-eg,d-t2g 
:QTL001: 2.0404 5.3249 0.8667 2.0417 0.0000 0.0000 0.0000 0.3186 0.5482 0.0000 0.0000 0.0000

:CHA  : total charge inside unit cell =       6.499999

------- case.scfc --------

        1.ATOM      Pr                   14 CORE STATES
:1S 001: 1S               -3066.753766647 Ry
:2S 001: 2S                -492.504437544 Ry
:2PP001: 2P*               -465.603848891 Ry
:2P 001: 2P                -430.206249506 Ry
:3S 001: 3S                -105.594971354 Ry
:3PP001: 3P*                -94.132807276 Ry
:3P 001: 3P                 -87.125006960 Ry
:3DD001: 3D*                -67.051786046 Ry
:3D 001: 3D                 -65.540237921 Ry
:4S 001: 4S                 -20.274328724 Ry
:4PP001: 4P*                -15.981250387 Ry
:4P 001: 4P                 -14.454056532 Ry
:4DD001: 4D*                 -7.387322390 Ry
:4D 001: 4D                  -7.117990544 Ry

------- case.scfm --------
:CINT001 Core Integral Atom   1   45.999509

       DENSITY AT NUCLEUS
        JATOM        VALENCE       SEMI-CORE          CORE           TOTAL
:RTO001:   1      653.115678        0.000000   656824.414353   657477.530031
     
       CHARGES OF NEW CHARGE DENSITY
:NTO   : INTERSTITIAL CHARGE =     2.725204
:NPC   : PW Pseudocharge     =     7.830044
:NTO001: CHARGE SPHERE  1    =    56.274434

:NEC01: NUCLEAR AND ELECTRONIC CHARGE     59.00000    58.99964
     
       CHARGES OF OLD CHARGE DENSITY
:OTO   : INTERSTITIAL CHARGE =     2.723663
:OPC   : PW Pseudocharge     =     7.829985
:OTO001: CHARGE SPHERE  1    =    56.276337

:NEC02: NUCLEAR AND ELECTRONIC CHARGE     59.00000    59.00000
     
       CONVERGENCE TEST
:DTO001: DIFFERENCE IN SPHERE  1 =  0.0017908

:DIS  :  CHARGE DISTANCE       ( 0.0017908 for atom    1 spin 1)      0.0017908
 PW Mixed is           41
 
******************************************************
* MULTISECANT MIXING VER9 RELEASE 10.4.0              *
* Standard Mode with controls                        *
* Fixed density scale                                *
* Regularization       1.000E-04                     *
* Trust Upper Limit    5.000E+00                     *
* Max Number of Memory Steps    8                    *
******************************************************
 
:PWTMP   1.1959E+02  1.2500E+02  1.8504E+02
:PLANE:  PW TOTAL      3.4210 DISTAN   9.95E-04  2.91E-02 %
:CHARG:  CLM/ATOM    977.1845 DISTAN   2.75E-03  2.82E-04 %
 
Step History
        DMIX         DMIXT        Red     Pred      Trust     Lambda    MagRel    MagAbs     Beta
 55   4.0900E-02   4.0900E-02  1.01E+00  6.40E-01  3.50E-02  2.82E-01  6.91E-03  1.09E-04  3.60E-01
 56   1.0225E-01   1.0225E-01  9.98E-01  5.50E-01  4.04E-02  1.00E+00  1.01E-02  1.61E-04  4.50E-01
 57   4.3614E-02   4.3614E-02  9.67E-01  6.41E-01  5.45E-02  1.29E+00  2.04E-02  3.25E-04  3.60E-01
 58   1.0904E-01   1.0904E-01  9.55E-01  5.52E-01  1.01E-01  1.44E+00  4.55E-02  7.00E-04  4.50E-01
 59   6.2777E-02   6.2777E-02  9.49E-01  4.81E-01  2.17E-01  1.36E+00  6.00E-02  8.81E-04  5.63E-01
 60   8.0688E-02   8.0688E-02  6.69E-01  4.43E-01  3.30E-01  1.73E+00  2.09E-01  2.91E-03  7.03E-01
 61   4.7574E-02   4.7574E-02  5.42E-01  5.41E-01  6.22E-01  1.89E+00  3.37E-01  3.14E-03  8.79E-01
 62   7.7516E-02   4.6286E-02  8.24E-01  8.88E-01  8.29E-01  1.80E+00  1.69E-01  8.54E-04  1.00E+00
 63   1.9379E-01   1.0289E-01 -1.00E+00  7.08E-01  1.01E+00  1.00E+00  2.65E-01  1.10E-03  1.00E+00
:JACOBIANS    5.836E-01   2.412E+00
  
:NORMS:  1/Froebius, Min, Max, Used   0.5590E+00  0.4479E+00  0.1055E+01  0.6247E+00
:INFO :  Number of Memory Steps    8 Skipping   54
:INFO :  SLambda=    1.2808216833  Max    1.2808216833
:PREDicted Charge, CTotal, PW Trust    1.927E-03   1.927E-03   1.980E-03
:PREDicted DMix, Beta, BLim   7.9853E-01  1.5455E+00  1.5700E+00

Eigenvalues, unscaled except for SY+YY
   #     SY Real        SY Imag          SS             YY         SY+YY Real      SY+YY Imag
   1   2.327230E+00   0.000000E+00   1.335403E+00   6.657983E+00   9.698775E+00   0.000000E+00
   2   1.235991E+00   0.000000E+00   1.101231E+00   1.273952E+00   2.796766E+00   0.000000E+00
   3   6.137655E-02   0.000000E+00   5.933920E-02   6.354309E-02   1.424270E-01   0.000000E+00
   4   4.051573E-03   0.000000E+00   4.000739E-03   4.153648E-03   9.318821E-03   0.000000E+00
   5   2.956667E-04   0.000000E+00   2.909584E-04   3.039099E-04   6.842907E-04   0.000000E+00
   6   1.827617E-05   0.000000E+00   1.239531E-05   3.002513E-05   4.700778E-05   0.000000E+00
   7   2.721397E-07   0.000000E+00   9.279190E-07   2.479996E-05   2.625720E-05   0.000000E+00
   8   1.547023E-06   0.000000E+00   2.943224E-07   9.040086E-06   1.176750E-05   0.000000E+00
 
:INFO :  Singular value  9.730E+00 Weight  1.000E+00 Projection  3.777E-04
:INFO :  Singular value  2.788E+00 Weight  1.000E+00 Projection -2.412E-03
:INFO :  Singular value  1.424E-01 Weight  1.000E+00 Projection -1.194E-04
:INFO :  Singular value  9.318E-03 Weight  9.949E-01 Projection -4.992E-03
:INFO :  Singular value  6.849E-04 Weight  5.142E-01 Projection  6.078E-03
:INFO :  Singular value  5.106E-05 Weight  5.848E-03 Projection  1.495E-05
:INFO :  Singular value  2.625E-05 Weight  1.552E-03 Projection  3.131E-05
:INFO :  Singular value  1.083E-05 Weight  2.643E-04 Projection -1.964E-05
:RANK :  ACTIVE   4.52/8  =  56.46 % ; YY RANK   4.15/8  =  51.89 %
 
Increasing Charge by   1.458
:BLIM :  VZERO Control Off
:TRUST:  Step 1.34E+00  Charge 8.49E-04 (e) CTO  2.50E-03 (e) PW  3.85E-03 (e)
:DTRUS:  Lambda    3.085E-01 Increment    7.276E-12 Iterations   101 DMIX    2.991E-01
:INFOA:  Angle SubSpace to MSR1      5.64
:DIRM :  MEMORY  8/8  SCALE   1.000 RED  0.70 PRED  0.71 NEXT  0.39 
:INFO :  Limited by Atoms F by Step T

:TRAVE:  Charge 6.25E-04 (e) CTO  6.25E-04 (e) PW  7.61E-04 (e)
:DIRP :  |MSR1|= 5.331E-04 |PRATT|= 9.945E-04 ANGLE=   6.5 DEGREES
:DIRQ :  |MSR1|= 1.546E-03 |PRATT|= 2.752E-03 ANGLE=  18.2 DEGREES
:DIRT :  |MSR1|= 1.636E-03 |PRATT|= 2.926E-03 ANGLE=  17.3 DEGREES
:MIX  :   MSE1   REGULARIZATION:  6.66E-04 GREED: 0.35000  LMStep 0.62  0.5589 Charge         
     
       CHARGES OF MIXED CHARGE DENSITY
:CTO   : INTERSTITIAL CHARGE =     2.724513
:CPC   : PW Pseudocharge     =     7.830523
:CTO001: CHARGE SPHERE  1    =    56.275487

:NEC03: NUCLEAR AND ELECTRONIC CHARGE     59.00000    59.00000

PW CHANGE     H    K    L      Current       Change    Residue
:PTO001:      0    0    0  5.70426628E-02  7.498E-06  1.622E-05
:PTO002:     -1   -1   -1 -1.52457456E-01 -1.645E-05 -2.728E-05
:PTO003:      0    0   -2  8.62259890E-02 -1.345E-05 -2.377E-05
:PTO004:      0   -2   -2  5.91246607E-02  2.112E-05  3.765E-05
:PTO005:     -1   -1   -3 -4.15347336E-02 -1.529E-05 -2.619E-05
:PTO006:     -2   -2   -2  9.26275507E-03 -5.180E-07  1.590E-07
:PTO007:      0    0   -4 -9.48795766E-04 -4.670E-08 -7.418E-07
:PTO008:     -1   -3   -3  7.89973085E-03 -1.307E-05 -2.319E-05
:PTO009:      0   -2   -4 -9.29657417E-03  1.636E-05  2.693E-05
:PTO010:     -2   -2   -4 -9.42872227E-03  3.673E-06  6.248E-06
:PTO011:     -3   -3   -3  2.69615475E-03  2.613E-06  4.058E-06
:PTO012:     -1   -1   -5  8.34720495E-03 -5.891E-06 -8.269E-06

:ENE  : ********** TOTAL ENERGY IN Ry =       -18472.12286832


------- case.scf0 --------
 Flat Integration
 New Mode for Coulomb Integral
 Consistent 3/8+Simpson combinations
 Extension of core to zero
 LDM version in phi
 Fifth-order quadrature in outwin


            ---------
:ITE086: 86. ITERATION
            ---------

:NATO :    1 INDEPENDENT AND    1 TOTAL ATOMS IN UNITCELL
       SUBSTANCE: blebleble                                                   

       LATTICE                      = F   
:POT  : POTENTIAL OPTION EX_LDA EC_LDA VX_LDA VC_LDA
:LAT  : LATTICE CONSTANTS=  9.04565  9.04565  9.04565    1.571    1.571    1.571
:VOL  : UNIT CELL VOLUME =     185.03757
       MODE OF CALCULATION IS       = RELA
       NON-SPINPOLARIZED CALCULATION
:IFFT  : FFT-parameters:   72   72   72 Factor: 2.00


   CONVERGENCE PARAMETER FOR PSEUDOCHARGE: NCON=  9
   MAXIMAL VALUE OF RMT(JATOM)*ABSK(NKK) : RK  =29.87623


:VKCOUL :  VK-COUL convergence: 0.430E-07
       ATOMNUMBER=  1 Pr         VCOUL-ZERO =  0.47725E+00
:FIT001: LUSE= 13 SIGMA OF V-XC FIT FOR ATOM  1  0.2310854E-04
:FIT001: LUSE= 13 SIGMA OF V-XC FIT FOR ATOM  1  0.2310854E-04
:DEN  : DENSITY INTEGRAL  =         -7086.91227847   (Ry)
       ELS_POTENTIAL_AT Z=0 and Z=0.5:  -2.70869  -2.70869
       ELS_POTENTIAL_AT Y=0 and Y=0.5:   0.00000   0.00000
:VZERO:v0,v0c,v0x  -3.75348  -2.70869  -1.04479 v5,v5c,v5x  -3.75348  -2.70869  -1.04479
:VZERY:v0,v0c,v0x  -0.79274   0.00000  -0.79274 v5,v5c,v5x  -0.79274   0.00000  -0.79274
:VZERX:v0,v0c,v0x  -0.79274   0.00000  -0.79274 v5,v5c,v5x  -0.79274   0.00000  -0.79274

------- case.scf1 --------
:LMAX-WF:   10   Non-Spherical LMAX:   4

          ATOMIC SPHERE DEPENDENT PARAMETERS FOR ATOM  Pr        
:e__0001: OVERALL ENERGY PARAMETER IS    0.5969
          OVERALL BASIS SET ON ATOM IS LAPW
:E0_0001: E( 0)=    0.5969
             APW+lo
:E0_0001: E( 0)=   -1.8402   E(BOTTOM)=   -2.225   E(TOP)=   -1.455  4  5   199
             LOCAL ORBITAL
:E1_0001: E( 1)=    0.9969
             APW+lo
:E1_0001: E( 1)=   -0.4551   E(BOTTOM)=   -1.107   E(TOP)=    0.197  3  4   192
             LOCAL ORBITAL
:E3_0001: E( 3)=    0.8336   E(BOTTOM)=    0.689   E(TOP)=    0.978  0  1   122
             APW+lo
:E2_0001: E( 2)=    0.5969   E(BOTTOM)=    0.462   E(TOP)= -200.000  2 -1    76
             APW+lo

       K=   0.00000   0.00000   0.00000            1
:RKM  : MATRIX SIZE   133LOs:  20  RKM= 7.77  WEIGHT= 1.00  PGR:    
       EIGENVALUES ARE:
:EIG00001:      -1.8225075   -0.4045007   -0.4045007   -0.4045007    0.5629733
:EIG00006:       0.8047278    0.8397717    0.8397717    0.8397717    0.8838203
:EIG00011:       0.8838203    0.8838203    0.9422540    0.9422540    0.9422540
:EIG00016:       1.1802769    1.1802769    1.6060973    1.8851055    1.8851055
:EIG00021:       1.8851055    1.9713518    2.9700419    2.9700419    2.9700419
:EIG00026:       3.1356340    3.1356340    3.1356340    3.2351843    3.2351843
:EIG00031:       3.7830614    3.9478360    3.9478360    3.9478360    4.4729547
:EIG00036:       4.4729547    4.7047825    4.7047825    4.7047825    4.7700379
:EIG00041:       4.7700379    4.7700379    4.7814973    4.7814973    4.7814973
:EIG00046:       5.1297258    5.1297258    5.1297258    5.2330669    5.2330669
 
:EIG00051:       5.3243375    5.4811118    5.4811118    5.4811118    5.5895756
:EIG00056:       5.5907326    5.5907326    5.5907326    5.6626663    5.6626663
:EIG00061:       5.6626663    5.6829054    6.1807097    6.1807097    6.1807097
:EIG00066:       6.8321927    7.4892179    7.5089889    7.5089889    8.1046934
:EIG00071:       8.1046934    8.1046934
       ********************************************************

:KPT   :      NUMBER OF K-POINTS:   165

------- case.scfso --------
   0.0   0.0 angle (M,z), angle (M,x) deg
 
        SPIN-ORBIT EIGENVALUES:
     K=   0.00000   0.00000   0.00000            1
      MATRIX SIZE=  144   WEIGHT= 1.00
     EIGENVALUES ARE:
          -1.8225075   -1.8225075   -0.5558707   -0.5558707   -0.3329138
          -0.3329138   -0.3329137   -0.3329137    0.5629733    0.5629733
           0.8024607    0.8024607    0.8307928    0.8307928    0.8307928
           0.8307928    0.8510469    0.8510469    0.8817540    0.8817540
           0.8892245    0.8892245    0.8892245    0.8892245    0.9382222
           0.9382222    0.9382222    0.9382222    0.9493079    0.9493079
           1.1806088    1.1806088    1.1806088    1.1806088    1.6061729
           1.6061729    1.8810807    1.8810807    1.8870585    1.8870585

           1.8870585    1.8870585    1.9713518    1.9713518    2.9647433
           2.9647433    2.9647433    2.9647433    2.9801065    2.9801065
           3.0524102    3.0524102    3.1782259    3.1782259    3.1782259
           3.1782259    3.2354866    3.2354866    3.2354866    3.2354866
           3.7830614    3.7830614    3.9474432    3.9474432    3.9480426
           3.9480426    3.9480426    3.9480426    4.4728945    4.4728945
           4.4728945    4.4728945
       ********************************************************

------- case.scf2 --------
:GMA  : POTENTIAL AND CHARGE CUT-OFF  12.00 Ry**.5




:POS001: at.nr.   1 position = 0.00000 0.00000 0.50000  multiplicity =  1

       lmmax  5
       lm=   0 0  4 0  4 4  6 0  6 4
:FER gutzwiller fermi energy   0.81701
:EORB         -0.007262622
:SUM sum of gutz band energies         -2.669166079

:CHA001: total charge inside sphere   1 =    10.275261
:PCS001: partial charges sphere =  1 s,p,d,f,      d-eg,d-t2g 
:QTL001: 2.0404 5.3249 0.8666 2.0421 0.0000 0.0000 0.0000 0.3185 0.5481 0.0000 0.0000 0.0000

:CHA  : total charge inside unit cell =       6.500000

------- case.scfc --------

        1.ATOM      Pr                   14 CORE STATES
:1S 001: 1S               -3066.753435889 Ry
:2S 001: 2S                -492.504227709 Ry
:2PP001: 2P*               -465.603616525 Ry
:2P 001: 2P                -430.206025829 Ry
:3S 001: 3S                -105.594905924 Ry
:3PP001: 3P*                -94.132734341 Ry
:3P 001: 3P                 -87.124940539 Ry
:3DD001: 3D*                -67.051703264 Ry
:3D 001: 3D                 -65.540157604 Ry
:4S 001: 4S                 -20.274330696 Ry
:4PP001: 4P*                -15.981252465 Ry
:4P 001: 4P                 -14.454060406 Ry
:4DD001: 4D*                 -7.387328453 Ry
:4D 001: 4D                  -7.117997208 Ry

------- case.scfm --------
:CINT001 Core Integral Atom   1   45.999509

       DENSITY AT NUCLEUS
        JATOM        VALENCE       SEMI-CORE          CORE           TOTAL
:RTO001:   1      653.119179        0.000000   656824.378033   657477.497212
     
       CHARGES OF NEW CHARGE DENSITY
:NTO   : INTERSTITIAL CHARGE =     2.724888
:NPC   : PW Pseudocharge     =     7.829842
:NTO001: CHARGE SPHERE  1    =    56.274770

:NEC01: NUCLEAR AND ELECTRONIC CHARGE     59.00000    58.99966
     
       CHARGES OF OLD CHARGE DENSITY
:OTO   : INTERSTITIAL CHARGE =     2.724513
:OPC   : PW Pseudocharge     =     7.830523
:OTO001: CHARGE SPHERE  1    =    56.275487

:NEC02: NUCLEAR AND ELECTRONIC CHARGE     59.00000    59.00000
     
       CONVERGENCE TEST
:DTO001: DIFFERENCE IN SPHERE  1 =  0.0006791

:DIS  :  CHARGE DISTANCE       ( 0.0006791 for atom    1 spin 1)      0.0006791
 PW Mixed is           41
 
******************************************************
* MULTISECANT MIXING VER9 RELEASE 10.4.0              *
* Standard Mode with controls                        *
* Fixed density scale                                *
* Regularization       1.000E-04                     *
* Trust Upper Limit    5.000E+00                     *
* Max Number of Memory Steps    8                    *
******************************************************
 
:PWTMP   1.1959E+02  1.2500E+02  1.8504E+02
:PLANE:  PW TOTAL      3.4213 DISTAN   3.65E-04  1.07E-02 %
:CHARG:  CLM/ATOM    977.1849 DISTAN   1.06E-03  1.09E-04 %
 
Step History
        DMIX         DMIXT        Red     Pred      Trust     Lambda    MagRel    MagAbs     Beta
 56   1.0225E-01   1.0225E-01  9.98E-01  5.50E-01  4.04E-02  1.00E+00  1.01E-02  1.61E-04  4.50E-01
 57   4.3614E-02   4.3614E-02  9.67E-01  6.41E-01  5.45E-02  1.29E+00  2.04E-02  3.25E-04  3.60E-01
 58   1.0904E-01   1.0904E-01  9.55E-01  5.52E-01  1.01E-01  1.44E+00  4.55E-02  7.00E-04  4.50E-01
 59   6.2777E-02   6.2777E-02  9.49E-01  4.81E-01  2.17E-01  1.36E+00  6.00E-02  8.81E-04  5.63E-01
 60   8.0688E-02   8.0688E-02  6.69E-01  4.43E-01  3.30E-01  1.73E+00  2.09E-01  2.91E-03  7.03E-01
 61   4.7574E-02   4.7574E-02  5.42E-01  5.41E-01  6.22E-01  1.89E+00  3.37E-01  3.14E-03  8.79E-01
 62   7.7516E-02   4.6286E-02  8.24E-01  8.88E-01  8.29E-01  1.80E+00  1.69E-01  8.54E-04  1.00E+00
 63   1.9379E-01   1.0289E-01  7.03E-01  7.08E-01  1.01E+00  1.28E+00  2.65E-01  1.10E-03  1.00E+00
 64   3.5000E-01   2.9914E-01 -1.00E+00  3.90E-01  1.34E+00  1.00E+00  5.59E-01  1.64E-03  1.00E+00
:JACOBIANS    6.373E-01   2.809E+00
  
:NORMS:  1/Froebius, Min, Max, Used   0.6389E+00  0.6207E+00  0.1186E+01  0.6632E+00
:INFO :  Number of Memory Steps    8 Skipping   55
:INFO :  SLambda=    1.2078715196  Max    1.2078715196
:PREDicted Charge, CTotal, PW Trust    1.349E-03   1.349E-03   1.382E-03
:PREDicted DMix, Beta, BLim   4.2809E-01  1.4906E+00  4.0881E+00

Eigenvalues, unscaled except for SY+YY
   #     SY Real        SY Imag          SS             YY         SY+YY Real      SY+YY Imag
   1   2.605828E+00   0.000000E+00   2.288103E+00   5.939713E+00   8.900314E+00   0.000000E+00
   2   1.597178E+00   0.000000E+00   9.481703E-01   2.027649E+00   4.143383E+00   0.000000E+00
   3   2.628749E-02   0.000000E+00   2.507735E-02   2.752723E-02   5.952212E-02   0.000000E+00
   4   3.562663E-03   0.000000E+00   3.262197E-03   4.011926E-03   8.362512E-03   0.000000E+00
   5   8.876914E-04   0.000000E+00   8.382220E-04   9.527006E-04   2.069353E-03   0.000000E+00
   6   1.147376E-04   0.000000E+00   1.143353E-04   1.151699E-04   2.795844E-04   0.000000E+00
   7   1.668380E-05   0.000000E+00   1.107850E-05   2.361572E-05   4.010684E-05   0.000000E+00
   8   1.153470E-06   0.000000E+00   1.812488E-07   7.471121E-06   9.071528E-06   0.000000E+00
 
:INFO :  Singular value  8.939E+00 Weight  1.000E+00 Projection  3.590E-04
:INFO :  Singular value  4.125E+00 Weight  1.000E+00 Projection -5.792E-04
:INFO :  Singular value  5.954E-02 Weight  9.999E-01 Projection  4.750E-05
:INFO :  Singular value  8.371E-03 Weight  9.950E-01 Projection -1.335E-03
:INFO :  Singular value  2.071E-03 Weight  9.240E-01 Projection  3.120E-03
:INFO :  Singular value  2.801E-04 Weight  1.819E-01 Projection  2.496E-03
:INFO :  Singular value  4.185E-05 Weight  4.939E-03 Projection -8.638E-05
:INFO :  Singular value  8.659E-06 Weight  2.125E-04 Projection -1.695E-06
:RANK :  ACTIVE   5.11/8  =  63.82 % ; YY RANK   4.74/8  =  59.20 %
 
Increasing Charge by   1.667
:BLIM :  VZERO Control Off
:TRUST:  Step 2.58E+00  Charge 1.42E-03 (e) CTO  2.50E-03 (e) PW  3.85E-03 (e)
:DIRM :  MEMORY  8/8  SCALE   1.000 RED  0.38 PRED  0.39 NEXT  0.15 
:TRAVE:  Charge 5.71E-04 (e) CTO  5.71E-04 (e) PW  6.25E-04 (e)
:DIRP :  |MSR1|= 3.171E-04 |PRATT|= 3.648E-04 ANGLE=   6.3 DEGREES
:DIRQ :  |MSR1|= 9.575E-04 |PRATT|= 1.060E-03 ANGLE=  14.6 DEGREES
:DIRT :  |MSR1|= 1.009E-03 |PRATT|= 1.121E-03 ANGLE=  14.0 DEGREES
:MIX  :   MSE1   REGULARIZATION:  5.94E-04 GREED: 0.33451  Newton 1.00  0.8995                
     
       CHARGES OF MIXED CHARGE DENSITY
:CTO   : INTERSTITIAL CHARGE =     2.725030
:CPC   : PW Pseudocharge     =     7.830763
:CTO001: CHARGE SPHERE  1    =    56.274970

:NEC03: NUCLEAR AND ELECTRONIC CHARGE     59.00000    59.00000

PW CHANGE     H    K    L      Current       Change    Residue
:PTO001:      0    0    0  5.70467532E-02  4.090E-06  5.500E-06
:PTO002:     -1   -1   -1 -1.52465607E-01 -8.151E-06 -7.911E-06
:PTO003:      0    0   -2  8.62178889E-02 -8.100E-06 -9.305E-06
:PTO004:      0   -2   -2  5.91384901E-02  1.383E-05  1.518E-05
:PTO005:     -1   -1   -3 -4.15459933E-02 -1.126E-05 -1.189E-05
:PTO006:     -2   -2   -2  9.26251043E-03 -2.446E-07 -2.275E-07
:PTO007:      0    0   -4 -9.48739383E-04  5.638E-08 -5.660E-08
:PTO008:     -1   -3   -3  7.89063326E-03 -9.098E-06 -9.919E-06
:PTO009:      0   -2   -4 -9.28563216E-03  1.094E-05  1.160E-05
:PTO010:     -2   -2   -4 -9.42636127E-03  2.361E-06  2.390E-06
:PTO011:     -3   -3   -3  2.69779251E-03  1.638E-06  1.756E-06
:PTO012:     -1   -1   -5  8.34398842E-03 -3.217E-06 -3.013E-06

:ENE  : ********** TOTAL ENERGY IN Ry =       -18472.12287710

