
------- epsilon_Pu_0.scf0 --------


            ---------
:ITE098: 98. ITERATION
            ---------

:NATO :    1 INDEPENDENT AND    1 TOTAL ATOMS IN UNITCELL
       SUBSTANCE: cubic body-centered  (epsilon Pu)                           

       LATTICE                      = B   
:POT  : POTENTIAL OPTION    5
:LAT  : LATTICE CONSTANTS=  5.80584  5.80584  5.80584    1.571    1.571    1.571
:VOL  : UNIT CELL VOLUME =      97.85088
       MODE OF CALCULATION IS       = RELA
       NON-SPINPOLARIZED CALCULATION
:IFFT  : FFT-parameters:   48   48   48 Factor: 2.00
       ATOMNUMBER=  1 Pu  0+     VCOUL-ZERO =  0.11452E+01
:FIT001: LUSE= 13 SIGMA OF V-XC FIT FOR ATOM  1  0.1111013E-03
:FIT001: LUSE= 13 SIGMA OF V-XC FIT FOR ATOM  1  0.1111013E-03
:DEN  : DENSITY INTEGRAL  =        -21964.11662034   (Ry)
       ELS_POTENTIAL_AT Z=0 and Z=0.5:  -2.79875  -2.79875
       ELS_POTENTIAL_AT Y=0 and Y=0.5:   0.00000   0.00000
:VZERO:v0,v0c,v0x  -3.95177  -2.79875  -1.15302 v5,v5c,v5x  -3.95177  -2.79875  -1.15302
:VZERY:v0,v0c,v0x  -1.10611   0.00000  -1.10611 v5,v5c,v5x  -1.10611   0.00000  -1.10611
:VZERX:v0,v0c,v0x  -1.10611   0.00000  -1.10611 v5,v5c,v5x  -1.10611   0.00000  -1.10611

------- epsilon_Pu_0.scf1 --------

          ATOMIC SPHERE DEPENDENT PARAMETERS FOR ATOM  Pu  0+    
:e__0001: OVERALL ENERGY PARAMETER IS    1.7892
          OVERALL BASIS SET ON ATOM IS LAPW
:E0_0001: E( 0)=    1.7892
             APW+lo
:E0_0001: E( 0)=   -1.4260   E(BOTTOM)=   -2.203   E(TOP)=   -0.649
             LOCAL ORBITAL
:E1_0001: E( 1)=   -0.5100   E(BOTTOM)=   -0.510   E(TOP)= -200.000
             APW+lo
:E1_0001: E( 1)=    1.7892
             LOCAL ORBITAL
:E3_0001: E( 3)=    1.7892   E(BOTTOM)=    1.534   E(TOP)= -200.000
             APW+lo
:E2_0001: E( 2)=    1.7892   E(BOTTOM)=    1.689   E(TOP)= -200.000
             APW+lo

       K=   0.00000   0.00000   0.00000            1
:RKM  : MATRIX SIZE  107LOs:  20  RKM= 8.06  WEIGHT= 1.00  PGR:    
       EIGENVALUES ARE:
:EIG00001:      -1.5224324    0.8984165    0.8984165    0.8984165    1.7682731
:EIG00006:       1.8440170    1.8440170    1.8440170    2.1462427    2.1462427
:EIG00011:       2.1462427    2.2241926    2.2241926    2.2241926    2.2356425
:EIG00016:       2.5763897    2.5763897    3.5375987    3.5375987    3.5375987
:EIG00021:       4.5420986    4.5420986    4.8400769    5.2443999    5.2443999
:EIG00026:       5.2443999    6.4264393    6.4264393    6.4264393    6.6735831
:EIG00031:       6.6735831    6.6735831    7.2050406    7.2050406    7.2050406
:EIG00036:       7.2569640    7.2569640    7.2907050    7.2907050    7.2907050
:EIG00041:       7.4068686    7.4068686
       ********************************************************

:KPT   :      NUMBER OF K-POINTS:   286

------- epsilon_Pu_0.scfso --------
   0.0   0.0 angle (M,z), angle (M,x) deg
 
        SPIN-ORBIT EIGENVALUES:
     K=   0.00000   0.00000   0.00000            1
      MATRIX SIZE=   84   WEIGHT= 1.00
     EIGENVALUES ARE:
          -1.5224324   -1.5224324    0.3673430    0.3673430    1.1343909
           1.1343909    1.1343909    1.1343909    1.7682731    1.7682731
           1.8319005    1.8319005    1.8438801    1.8438801    1.8438801
           1.8438801    2.1341232    2.1341232    2.1341232    2.1341232
           2.1800058    2.1800058    2.2023638    2.2023638    2.2023638
           2.2023638    2.2383362    2.2383362    2.2578387    2.2578387
           2.5798551    2.5798551    2.5798551    2.5798551    3.5315534
           3.5315534    3.5417497    3.5417497    3.5417497    3.5417497

       ********************************************************

------- epsilon_Pu_0.scf2 --------
:GMA  : POTENTIAL AND CHARGE CUT-OFF  12.00 Ry**.5
         Bandranges (emin - emax) and occupancy:
:BAN00008:   8    0.581601    1.134391  1.00000000
:BAN00009:   9    1.540034    1.978330  1.00000000
:BAN00010:  10    1.540034    1.978330  1.00000000
:BAN00011:  11    1.547397    1.986982  1.00000000
:BAN00012:  12    1.547397    1.986982  1.00000000
:BAN00013:  13    1.827206    1.991297  1.00000000
:BAN00014:  14    1.827206    1.991297  1.00000000
:BAN00015:  15    1.843880    2.064317  0.89075108
:BAN00016:  16    1.843880    2.064317  0.89075108
:BAN00017:  17    1.962205    2.134123  0.10924892
:BAN00018:  18    1.962205    2.134123  0.10924892
:BAN00019:  19    2.041771    2.134123  0.00000000
:BAN00020:  20    2.041771    2.134123  0.00000000
:BAN00021:  21    2.086797    2.180006  0.00000000
:BAN00022:  22    2.086797    2.180006  0.00000000
:BAN00023:  23    2.132329    2.263664  0.00000000
        Energy to separate low and high energystates:    1.49003


:NLDA  : NUMBER OF ELECTRONS          =  16.000

:FLDA  : F E R M I - ENERGY           =   2.50272




:POS001: AT.NR.   1 POSITION = 0.00000 0.00000 0.00000  MULTIPLICITY =  1

       LMMAX  5
       LM=   0 0  4 0  4 4  6 0  6 4
:FER DMFT Fermi Energy   2.00105
:EORB    0.09959201
:SUM SUM OF DMFT BAND ENERGIES   15.47683973

:CHA001: TOTAL CHARGE INSIDE SPHERE   1 =    11.960004
:PCS001: PARTIAL CHARGES SPHERE =  1 S,P,D,F,      D-EG,D-T2G 
:QTL001: 1.9651 4.5559 0.8695 4.5571 0.0000 0.0000 0.0000 0.3419 0.5744 0.0000 0.0000 0.0000
        Q-s-low E-s-low   Q-p-low E-p-low   Q-d-low E-d-low   Q-f-low E-f-low
:EPL001:  1.8827 -1.3634    4.4052  0.5270    0.0592  0.6394    0.0313  0.7140
        Q-s-hi  E-s-hi    Q-p-hi  E-p-hi    Q-d-hi  E-d-hi    Q-f-hi  E-f-hi 
:EPH001:  0.0824  1.8210    0.1506  1.8620    0.8103  1.8155    4.5258  1.9176

:CHA  : TOTAL CHARGE INSIDE UNIT CELL =      16.000000

:ESUM  : SUM OF EIGENVALUES =          15.511825921


------- epsilon_Pu_0.scfc --------

        1.ATOM      Pu  0+               21 CORE STATES
:1S 001: 1S               -8965.749196215 Ry
:2S 001: 2S               -1686.424126169 Ry
:2PP001: 2P*              -1627.116977795 Ry
:2P 001: 2P               -1313.966317024 Ry
:3S 001: 3S                -426.971158751 Ry
:3PP001: 3P*               -400.046452646 Ry
:3P 001: 3P                -327.485527753 Ry
:3DD001: 3D*               -285.244816777 Ry
:3D 001: 3D                -270.702801567 Ry
:4S 001: 4S                -108.451530782 Ry
:4PP001: 4P*                -96.263677810 Ry
:4P 001: 4P                 -77.118129773 Ry
:4DD001: 4D*                -57.830732530 Ry
:4D 001: 4D                 -54.336120998 Ry
:5S 001: 5S                 -22.605793853 Ry
:5PP001: 5P*                -17.787607872 Ry
:5P 001: 5P                 -13.097689741 Ry
:4FF001: 4F*                -28.936705497 Ry
:4F 001: 4F                 -28.008604409 Ry
:5DD001: 5D*                 -6.061125951 Ry
:5D 001: 5D                  -5.361748065 Ry

------- epsilon_Pu_0.scfm --------

       DENSITY AT NUCLEUS
        JATOM    VALENCE       SEMI-CORE            CORE           TOTAL
:RTO001:   1    23755.339348        0.000000 45141814.573366 45165569.912715
     
       CHARGES OF NEW CHARGE DENSITY
:NTO  : TOTAL   INTERSTITIAL CHARGE=    4.0399851
:NTO001: TOTAL   CHARGE IN SPHERE  1 =       89.9505409

:NEC01: NUCLEAR AND ELECTRONIC CHARGE     94.00000    93.99053     1.00010
     
       CHARGES OF OLD CHARGE DENSITY
:OTO  : TOTAL   INTERSTITIAL CHARGE=    4.0425285
:OTO001: TOTAL   CHARGE IN SPHERE  1 =       89.9574715

:NEC02: NUCLEAR AND ELECTRONIC CHARGE     94.00000    94.00000     1.00000
     
       CONVERGENCE TEST
:DTO001: TOTAL   DIFFERENCE CHARGE**2 IN SPHERE  1 =  0.0086110

:DIS  :  CHARGE DISTANCE       ( 0.0086110 for atom    1 spin 1)      0.0086110
:BIG check (qbig,qrms,qtot)    0.287D-02   0.609D-02   0.861D-02
 
******************************************************
* MULTISECANT MIXING VER4 OPTIONS                    *
* Unpredicted Step Limit   0.100000                  *
* Plane Wave Dynamic Rescaling                       *
* Dynamic Regularization active                      *
* Upper Cutoff Lambda  1.0E-01 Lower 3.5E-04         *
* SQRT Multiplicity/Degeneracy                       *
* Max Number of Memory Steps    8                    *
******************************************************
 
:PLANE:  INTERSTITIAL TOTAL      1.94874 DISTAN  6.786E-02 % 
:CHARG:  CLM CHARGE   /ATOM    713.23422 DISTAN  4.172E-03 % 
:MIX  :  PRATT  REGULARIZATION: 3.50E-04  GREED: 0.035
     
       CHARGES OF MIXED CHARGE DENSITY
:CTO  : TOTAL   INTERSTITIAL CHARGE=    4.0427711
:CTO001: TOTAL   CHARGE IN SPHERE  1 =       89.9572289

:NEC03: NUCLEAR AND ELECTRONIC CHARGE     94.00000    94.00000     1.00000


:ENE  : ********** TOTAL ENERGY IN Ry =       -59354.68368262


------- epsilon_Pu_0.scf0 --------


            ---------
:ITE099: 99. ITERATION
            ---------

:NATO :    1 INDEPENDENT AND    1 TOTAL ATOMS IN UNITCELL
       SUBSTANCE: cubic body-centered  (epsilon Pu)                           

       LATTICE                      = B   
:POT  : POTENTIAL OPTION    5
:LAT  : LATTICE CONSTANTS=  5.80584  5.80584  5.80584    1.571    1.571    1.571
:VOL  : UNIT CELL VOLUME =      97.85088
       MODE OF CALCULATION IS       = RELA
       NON-SPINPOLARIZED CALCULATION
:IFFT  : FFT-parameters:   48   48   48 Factor: 2.00
       ATOMNUMBER=  1 Pu  0+     VCOUL-ZERO =  0.11452E+01
:FIT001: LUSE= 13 SIGMA OF V-XC FIT FOR ATOM  1  0.1111811E-03
:FIT001: LUSE= 13 SIGMA OF V-XC FIT FOR ATOM  1  0.1111811E-03
:DEN  : DENSITY INTEGRAL  =        -21964.08359735   (Ry)
       ELS_POTENTIAL_AT Z=0 and Z=0.5:  -2.79883  -2.79883
       ELS_POTENTIAL_AT Y=0 and Y=0.5:   0.00000   0.00000
:VZERO:v0,v0c,v0x  -3.95185  -2.79883  -1.15302 v5,v5c,v5x  -3.95185  -2.79883  -1.15302
:VZERY:v0,v0c,v0x  -1.10612   0.00000  -1.10612 v5,v5c,v5x  -1.10612   0.00000  -1.10612
:VZERX:v0,v0c,v0x  -1.10612   0.00000  -1.10612 v5,v5c,v5x  -1.10612   0.00000  -1.10612

------- epsilon_Pu_0.scf1 --------

          ATOMIC SPHERE DEPENDENT PARAMETERS FOR ATOM  Pu  0+    
:e__0001: OVERALL ENERGY PARAMETER IS    1.7892
          OVERALL BASIS SET ON ATOM IS LAPW
:E0_0001: E( 0)=    1.7892
             APW+lo
:E0_0001: E( 0)=   -1.4270   E(BOTTOM)=   -2.204   E(TOP)=   -0.650
             LOCAL ORBITAL
:E1_0001: E( 1)=   -0.5100   E(BOTTOM)=   -0.510   E(TOP)= -200.000
             APW+lo
:E1_0001: E( 1)=    1.7892
             LOCAL ORBITAL
:E3_0001: E( 3)=    1.7892   E(BOTTOM)=    1.534   E(TOP)= -200.000
             APW+lo
:E2_0001: E( 2)=    1.7892   E(BOTTOM)=    1.689   E(TOP)= -200.000
             APW+lo

       K=   0.00000   0.00000   0.00000            1
:RKM  : MATRIX SIZE  107LOs:  20  RKM= 8.06  WEIGHT= 1.00  PGR:    
       EIGENVALUES ARE:
:EIG00001:      -1.5225406    0.8983285    0.8983285    0.8983285    1.7682593
:EIG00006:       1.8439042    1.8439042    1.8439042    2.1460620    2.1460620
:EIG00011:       2.1460620    2.2241770    2.2241770    2.2241770    2.2354579
:EIG00016:       2.5763816    2.5763816    3.5375270    3.5375270    3.5375270
:EIG00021:       4.5420814    4.5420814    4.8400833    5.2443670    5.2443670
:EIG00026:       5.2443670    6.4264028    6.4264028    6.4264028    6.6735717
:EIG00031:       6.6735717    6.6735717    7.2050274    7.2050274    7.2050274
:EIG00036:       7.2569894    7.2569894    7.2906887    7.2906887    7.2906887
:EIG00041:       7.4068676    7.4068676
       ********************************************************

:KPT   :      NUMBER OF K-POINTS:   286

------- epsilon_Pu_0.scfso --------
   0.0   0.0 angle (M,z), angle (M,x) deg
 
        SPIN-ORBIT EIGENVALUES:
     K=   0.00000   0.00000   0.00000            1
      MATRIX SIZE=   84   WEIGHT= 1.00
     EIGENVALUES ARE:
          -1.5225406   -1.5225406    0.3672404    0.3672404    1.1343095
           1.1343095    1.1343095    1.1343095    1.7682593    1.7682593
           1.8317849    1.8317849    1.8437660    1.8437660    1.8437660
           1.8437660    2.1339431    2.1339431    2.1339431    2.1339431
           2.1798283    2.1798283    2.2023475    2.2023475    2.2023475
           2.2023475    2.2381530    2.2381530    2.2578239    2.2578239
           2.5798472    2.5798472    2.5798472    2.5798472    3.5314822
           3.5314822    3.5416777    3.5416777    3.5416777    3.5416777

       ********************************************************

------- epsilon_Pu_0.scf2 --------
:GMA  : POTENTIAL AND CHARGE CUT-OFF  12.00 Ry**.5
         Bandranges (emin - emax) and occupancy:
:BAN00008:   8    0.581554    1.134309  1.00000000
:BAN00009:   9    1.540044    1.978179  1.00000000
:BAN00010:  10    1.540044    1.978179  1.00000000
:BAN00011:  11    1.547406    1.986823  1.00000000
:BAN00012:  12    1.547406    1.986823  1.00000000
:BAN00013:  13    1.827151    1.991141  1.00000000
:BAN00014:  14    1.827151    1.991141  1.00000000
:BAN00015:  15    1.843766    2.064183  0.89071438
:BAN00016:  16    1.843766    2.064183  0.89071438
:BAN00017:  17    1.962086    2.133943  0.10928562
:BAN00018:  18    1.962086    2.133943  0.10928562
:BAN00019:  19    2.041620    2.133943  0.00000000
:BAN00020:  20    2.041620    2.133943  0.00000000
:BAN00021:  21    2.086639    2.179828  0.00000000
:BAN00022:  22    2.086639    2.179828  0.00000000
:BAN00023:  23    2.132190    2.263610  0.00000000
        Energy to separate low and high energystates:    1.49004


:NLDA  : NUMBER OF ELECTRONS          =  16.000

:FLDA  : F E R M I - ENERGY           =   2.50258




:POS001: AT.NR.   1 POSITION = 0.00000 0.00000 0.00000  MULTIPLICITY =  1

       LMMAX  5
       LM=   0 0  4 0  4 4  6 0  6 4
:FER DMFT Fermi Energy   2.00078
:EORB    0.10036962
:SUM SUM OF DMFT BAND ENERGIES   15.47468591

:CHA001: TOTAL CHARGE INSIDE SPHERE   1 =    11.961164
:PCS001: PARTIAL CHARGES SPHERE =  1 S,P,D,F,      D-EG,D-T2G 
:QTL001: 1.9650 4.5558 0.8689 4.5589 0.0000 0.0000 0.0000 0.3417 0.5740 0.0000 0.0000 0.0000
        Q-s-low E-s-low   Q-p-low E-p-low   Q-d-low E-d-low   Q-f-low E-f-low
:EPL001:  1.8827 -1.3635    4.4054  0.5269    0.0592  0.6394    0.0313  0.7140
        Q-s-hi  E-s-hi    Q-p-hi  E-p-hi    Q-d-hi  E-d-hi    Q-f-hi  E-f-hi 
:EPH001:  0.0823  1.8209    0.1505  1.8619    0.8098  1.8154    4.5276  1.9175

:CHA  : TOTAL CHARGE INSIDE UNIT CELL =      16.000000

:ESUM  : SUM OF EIGENVALUES =          15.510502051


------- epsilon_Pu_0.scfc --------

        1.ATOM      Pu  0+               21 CORE STATES
:1S 001: 1S               -8965.749683090 Ry
:2S 001: 2S               -1686.424610129 Ry
:2PP001: 2P*              -1627.117462573 Ry
:2P 001: 2P               -1313.966800938 Ry
:3S 001: 3S                -426.971627608 Ry
:3PP001: 3P*               -400.046923450 Ry
:3P 001: 3P                -327.485993694 Ry
:3DD001: 3D*               -285.245288154 Ry
:3D 001: 3D                -270.703271690 Ry
:4S 001: 4S                -108.451948267 Ry
:4PP001: 4P*                -96.264095938 Ry
:4P 001: 4P                 -77.118537317 Ry
:4DD001: 4D*                -57.831141566 Ry
:4D 001: 4D                 -54.336527001 Ry
:5S 001: 5S                 -22.606125199 Ry
:5PP001: 5P*                -17.787932416 Ry
:5P 001: 5P                 -13.097991500 Ry
:4FF001: 4F*                -28.937116636 Ry
:4F 001: 4F                 -28.009014008 Ry
:5DD001: 5D*                 -6.061403390 Ry
:5D 001: 5D                  -5.362017325 Ry

------- epsilon_Pu_0.scfm --------

       DENSITY AT NUCLEUS
        JATOM    VALENCE       SEMI-CORE            CORE           TOTAL
:RTO001:   1    23754.896608        0.000000 45141815.288322 45165570.184930
     
       CHARGES OF NEW CHARGE DENSITY
:NTO  : TOTAL   INTERSTITIAL CHARGE=    4.0388254
:NTO001: TOTAL   CHARGE IN SPHERE  1 =       89.9517018

:NEC01: NUCLEAR AND ELECTRONIC CHARGE     94.00000    93.99053     1.00010
     
       CHARGES OF OLD CHARGE DENSITY
:OTO  : TOTAL   INTERSTITIAL CHARGE=    4.0427711
:OTO001: TOTAL   CHARGE IN SPHERE  1 =       89.9572289

:NEC02: NUCLEAR AND ELECTRONIC CHARGE     94.00000    94.00000     1.00000
     
       CONVERGENCE TEST
:DTO001: TOTAL   DIFFERENCE CHARGE**2 IN SPHERE  1 =  0.0068390

:DIS  :  CHARGE DISTANCE       ( 0.0068390 for atom    1 spin 1)      0.0068390
:BIG check (qbig,qrms,qtot)    0.228D-02   0.484D-02   0.684D-02
 
******************************************************
* MULTISECANT MIXING VER4 OPTIONS                    *
* Unpredicted Step Limit   0.100000                  *
* Plane Wave Dynamic Rescaling                       *
* Dynamic Regularization active                      *
* Upper Cutoff Lambda  1.0E-01 Lower 3.5E-04         *
* SQRT Multiplicity/Degeneracy                       *
* Max Number of Memory Steps    8                    *
******************************************************
 
:PLANE:  INTERSTITIAL TOTAL      1.94873 DISTAN  6.002E-02 % 
:CHARG:  CLM CHARGE   /ATOM    713.23408 DISTAN  3.728E-03 % 
:INFO :  Dynamic rescale   2.262E+01  1.000E-01
:INFO :  Number of Memory Steps    1 Skipping    0
:INFO :  Bounds         0.394D-01  0.200D+00  0.140D+00  0.394D-01
:DIRM :  MEMORY 1/8 RESCALE  22.62 RED 0.889 PRED 1.000 NEXT 0.714 COND 1.00E+00
:DIRP :  |BROYD|= 4.823E-03 |PRATT|= 1.041E-03 ANGLE=   0.8 DEGREES
:DIRB :  |BROYD|= 6.841E-03 |PRATT|= 1.477E-03 ANGLE=   0.7 DEGREES
:MIX  :  MSR1   REGULARIZATION: 3.50E-04  GREED: 0.039
     
       CHARGES OF MIXED CHARGE DENSITY
:CTO  : TOTAL   INTERSTITIAL CHARGE=    4.0437656
:CTO001: TOTAL   CHARGE IN SPHERE  1 =       89.9562344

:NEC03: NUCLEAR AND ELECTRONIC CHARGE     94.00000    94.00000     1.00000


:ENE  : ********** TOTAL ENERGY IN Ry =       -59354.68369337


------- epsilon_Pu_0.scf0 --------


            ---------
:ITE100:100. ITERATION
            ---------

:NATO :    1 INDEPENDENT AND    1 TOTAL ATOMS IN UNITCELL
       SUBSTANCE: cubic body-centered  (epsilon Pu)                           

       LATTICE                      = B   
:POT  : POTENTIAL OPTION    5
:LAT  : LATTICE CONSTANTS=  5.80584  5.80584  5.80584    1.571    1.571    1.571
:VOL  : UNIT CELL VOLUME =      97.85088
       MODE OF CALCULATION IS       = RELA
       NON-SPINPOLARIZED CALCULATION
:IFFT  : FFT-parameters:   48   48   48 Factor: 2.00
       ATOMNUMBER=  1 Pu  0+     VCOUL-ZERO =  0.11453E+01
:FIT001: LUSE= 13 SIGMA OF V-XC FIT FOR ATOM  1  0.1115687E-03
:FIT001: LUSE= 13 SIGMA OF V-XC FIT FOR ATOM  1  0.1115687E-03
:DEN  : DENSITY INTEGRAL  =        -21963.94767575   (Ry)
       ELS_POTENTIAL_AT Z=0 and Z=0.5:  -2.79916  -2.79916
       ELS_POTENTIAL_AT Y=0 and Y=0.5:   0.00000   0.00000
:VZERO:v0,v0c,v0x  -3.95217  -2.79916  -1.15301 v5,v5c,v5x  -3.95217  -2.79916  -1.15301
:VZERY:v0,v0c,v0x  -1.10616   0.00000  -1.10616 v5,v5c,v5x  -1.10616   0.00000  -1.10616
:VZERX:v0,v0c,v0x  -1.10616   0.00000  -1.10616 v5,v5c,v5x  -1.10616   0.00000  -1.10616

------- epsilon_Pu_0.scf1 --------

          ATOMIC SPHERE DEPENDENT PARAMETERS FOR ATOM  Pu  0+    
:e__0001: OVERALL ENERGY PARAMETER IS    1.7892
          OVERALL BASIS SET ON ATOM IS LAPW
:E0_0001: E( 0)=    1.7892
             APW+lo
:E0_0001: E( 0)=   -1.4270   E(BOTTOM)=   -2.204   E(TOP)=   -0.650
             LOCAL ORBITAL
:E1_0001: E( 1)=   -0.5120   E(BOTTOM)=   -0.512   E(TOP)= -200.000
             APW+lo
:E1_0001: E( 1)=    1.7892
             LOCAL ORBITAL
:E3_0001: E( 3)=    1.7892   E(BOTTOM)=    1.534   E(TOP)= -200.000
             APW+lo
:E2_0001: E( 2)=    1.7892   E(BOTTOM)=    1.689   E(TOP)= -200.000
             APW+lo

       K=   0.00000   0.00000   0.00000            1
:RKM  : MATRIX SIZE  107LOs:  20  RKM= 8.06  WEIGHT= 1.00  PGR:    
       EIGENVALUES ARE:
:EIG00001:      -1.5229898    0.8979613    0.8979613    0.8979613    1.7681949
:EIG00006:       1.8434355    1.8434355    1.8434355    2.1453127    2.1453127
:EIG00011:       2.1453127    2.2241097    2.2241097    2.2241097    2.2347017
:EIG00016:       2.5763375    2.5763375    3.5372251    3.5372251    3.5372251
:EIG00021:       4.5420040    4.5420040    4.8401023    5.2442249    5.2442249
:EIG00026:       5.2442249    6.4262489    6.4262489    6.4262489    6.6735165
:EIG00031:       6.6735165    6.6735165    7.2049674    7.2049674    7.2049674
:EIG00036:       7.2570887    7.2570887    7.2906252    7.2906252    7.2906252
:EIG00041:       7.4068525    7.4068525
       ********************************************************

:KPT   :      NUMBER OF K-POINTS:   286

------- epsilon_Pu_0.scfso --------
   0.0   0.0 angle (M,z), angle (M,x) deg
 
        SPIN-ORBIT EIGENVALUES:
     K=   0.00000   0.00000   0.00000            1
      MATRIX SIZE=   84   WEIGHT= 1.00
     EIGENVALUES ARE:
          -1.5229898   -1.5229898    0.3668142    0.3668142    1.1339696
           1.1339696    1.1339696    1.1339696    1.7681949    1.7681949
           1.8313048    1.8313048    1.8432917    1.8432917    1.8432917
           1.8432917    2.1331965    2.1331965    2.1331965    2.1331965
           2.1790920    2.1790920    2.2022774    2.2022774    2.2022774
           2.2022774    2.2374030    2.2374030    2.2577596    2.2577596
           2.5798040    2.5798040    2.5798040    2.5798040    3.5311822
           3.5311822    3.5413742    3.5413742    3.5413742    3.5413742

       ********************************************************

------- epsilon_Pu_0.scf2 --------
:GMA  : POTENTIAL AND CHARGE CUT-OFF  12.00 Ry**.5
         Bandranges (emin - emax) and occupancy:
:BAN00008:   8    0.581357    1.133970  1.00000000
:BAN00009:   9    1.540075    1.977553  1.00000000
:BAN00010:  10    1.540075    1.977553  1.00000000
:BAN00011:  11    1.547434    1.986165  1.00000000
:BAN00012:  12    1.547434    1.986165  1.00000000
:BAN00013:  13    1.826922    1.990496  1.00000000
:BAN00014:  14    1.826922    1.990496  1.00000000
:BAN00015:  15    1.843292    2.063628  0.89056397
:BAN00016:  16    1.843292    2.063628  0.89056397
:BAN00017:  17    1.961598    2.133197  0.10943259
:BAN00018:  18    1.961598    2.133197  0.10943259
:BAN00019:  19    2.040992    2.133197  0.00000000
:BAN00020:  20    2.040992    2.133197  0.00000000
:BAN00021:  21    2.085981    2.179092  0.00000000
:BAN00022:  22    2.085981    2.179092  0.00000000
:BAN00023:  23    2.131613    2.263379  0.00000000
        Energy to separate low and high energystates:    1.49008


:NLDA  : NUMBER OF ELECTRONS          =  16.000

:FLDA  : F E R M I - ENERGY           =   2.50203




:POS001: AT.NR.   1 POSITION = 0.00000 0.00000 0.00000  MULTIPLICITY =  1

       LMMAX  5
       LM=   0 0  4 0  4 4  6 0  6 4
:FER DMFT Fermi Energy   2.00032
:EORB    0.09961462
:SUM SUM OF DMFT BAND ENERGIES   15.46969279

:CHA001: TOTAL CHARGE INSIDE SPHERE   1 =    11.964017
:PCS001: PARTIAL CHARGES SPHERE =  1 S,P,D,F,      D-EG,D-T2G 
:QTL001: 1.9650 4.5560 0.8680 4.5626 0.0000 0.0000 0.0000 0.3414 0.5733 0.0000 0.0000 0.0000
        Q-s-low E-s-low   Q-p-low E-p-low   Q-d-low E-d-low   Q-f-low E-f-low
:EPL001:  1.8828 -1.3640    4.4058  0.5267    0.0592  0.6391    0.0313  0.7138
        Q-s-hi  E-s-hi    Q-p-hi  E-p-hi    Q-d-hi  E-d-hi    Q-f-hi  E-f-hi 
:EPH001:  0.0822  1.8206    0.1502  1.8616    0.8089  1.8151    4.5313  1.9170

:CHA  : TOTAL CHARGE INSIDE UNIT CELL =      16.000000

:ESUM  : SUM OF EIGENVALUES =          15.504928315


------- epsilon_Pu_0.scfc --------

        1.ATOM      Pu  0+               21 CORE STATES
:1S 001: 1S               -8965.751678649 Ry
:2S 001: 2S               -1686.426594195 Ry
:2PP001: 2P*              -1627.119449896 Ry
:2P 001: 2P               -1313.968784816 Ry
:3S 001: 3S                -426.973551299 Ry
:3PP001: 3P*               -400.048854884 Ry
:3P 001: 3P                -327.487905814 Ry
:3DD001: 3D*               -285.247221902 Ry
:3D 001: 3D                -270.705200448 Ry
:4S 001: 4S                -108.453667750 Ry
:4PP001: 4P*                -96.265817958 Ry
:4P 001: 4P                 -77.120216910 Ry
:4DD001: 4D*                -57.832827034 Ry
:4D 001: 4D                 -54.338200273 Ry
:5S 001: 5S                 -22.607493028 Ry
:5PP001: 5P*                -17.789272126 Ry
:5P 001: 5P                 -13.099237075 Ry
:4FF001: 4F*                -28.938810217 Ry
:4F 001: 4F                 -28.010701398 Ry
:5DD001: 5D*                 -6.062548633 Ry
:5D 001: 5D                  -5.363128834 Ry

------- epsilon_Pu_0.scfm --------

       DENSITY AT NUCLEUS
        JATOM    VALENCE       SEMI-CORE            CORE           TOTAL
:RTO001:   1    23755.945021        0.000000 45141818.197834 45165574.142855
     
       CHARGES OF NEW CHARGE DENSITY
:NTO  : TOTAL   INTERSTITIAL CHARGE=    4.0359726
:NTO001: TOTAL   CHARGE IN SPHERE  1 =       89.9545597

:NEC01: NUCLEAR AND ELECTRONIC CHARGE     94.00000    93.99053     1.00010
     
       CHARGES OF OLD CHARGE DENSITY
:OTO  : TOTAL   INTERSTITIAL CHARGE=    4.0437656
:OTO001: TOTAL   CHARGE IN SPHERE  1 =       89.9562344

:NEC02: NUCLEAR AND ELECTRONIC CHARGE     94.00000    94.00000     1.00000
     
       CONVERGENCE TEST
:DTO001: TOTAL   DIFFERENCE CHARGE**2 IN SPHERE  1 =  0.0019721

:DIS  :  CHARGE DISTANCE       ( 0.0019721 for atom    1 spin 1)      0.0019721
:BIG check (qbig,qrms,qtot)    0.657D-03   0.139D-02   0.197D-02
 
******************************************************
* MULTISECANT MIXING VER4 OPTIONS                    *
* Unpredicted Step Limit   0.100000                  *
* Plane Wave Dynamic Rescaling                       *
* Dynamic Regularization active                      *
* Upper Cutoff Lambda  1.0E-01 Lower 3.5E-04         *
* SQRT Multiplicity/Degeneracy                       *
* Max Number of Memory Steps    8                    *
******************************************************
 
:PLANE:  INTERSTITIAL TOTAL      1.94867 DISTAN  3.692E-02 % 
:CHARG:  CLM CHARGE   /ATOM    713.23350 DISTAN  2.491E-03 % 
:INFO :  Dynamic rescale   2.329E+01  1.000E-01
:INFO :  Number of Memory Steps    2 Skipping    0
:INFO :  Singular value   2.589E+00 Weight   9.901E-01 Projections  -7.975E-03  1.138E-02
:INFO :  Singular value   2.941E-03 Weight   1.290E-04 Projections  -8.120E-03 -5.090E-05
:INFO :  Bounds         0.614D-01  0.200D+00  0.117D+00  0.614D-01
:DIRM :  MEMORY 2/8 RESCALE  23.29 RED 0.642 PRED 0.714 NEXT 0.853 COND 1.30E+00
:DIRP :  |BROYD|= 4.491E-03 |PRATT|= 1.028E-03 ANGLE=  14.4 DEGREES
:DIRB :  |BROYD|= 6.399E-03 |PRATT|= 1.498E-03 ANGLE=  13.4 DEGREES
:MIX  :  MSR1   REGULARIZATION: 2.59E-01  GREED: 0.061
     
       CHARGES OF MIXED CHARGE DENSITY
:CTO  : TOTAL   INTERSTITIAL CHARGE=    4.0444933
:CTO001: TOTAL   CHARGE IN SPHERE  1 =       89.9555067

:NEC03: NUCLEAR AND ELECTRONIC CHARGE     94.00000    94.00000     1.00000


:ENE  : ********** TOTAL ENERGY IN Ry =       -59354.68374646


------- epsilon_Pu_0.scf0 --------


            ---------
:ITE101:101. ITERATION
            ---------

:NATO :    1 INDEPENDENT AND    1 TOTAL ATOMS IN UNITCELL
       SUBSTANCE: cubic body-centered  (epsilon Pu)                           

       LATTICE                      = B   
:POT  : POTENTIAL OPTION    5
:LAT  : LATTICE CONSTANTS=  5.80584  5.80584  5.80584    1.571    1.571    1.571
:VOL  : UNIT CELL VOLUME =      97.85088
       MODE OF CALCULATION IS       = RELA
       NON-SPINPOLARIZED CALCULATION
:IFFT  : FFT-parameters:   48   48   48 Factor: 2.00
       ATOMNUMBER=  1 Pu  0+     VCOUL-ZERO =  0.11454E+01
:FIT001: LUSE= 13 SIGMA OF V-XC FIT FOR ATOM  1  0.1119482E-03
:FIT001: LUSE= 13 SIGMA OF V-XC FIT FOR ATOM  1  0.1119482E-03
:DEN  : DENSITY INTEGRAL  =        -21963.85197262   (Ry)
       ELS_POTENTIAL_AT Z=0 and Z=0.5:  -2.79940  -2.79940
       ELS_POTENTIAL_AT Y=0 and Y=0.5:   0.00000   0.00000
:VZERO:v0,v0c,v0x  -3.95239  -2.79940  -1.15300 v5,v5c,v5x  -3.95239  -2.79940  -1.15300
:VZERY:v0,v0c,v0x  -1.10618   0.00000  -1.10618 v5,v5c,v5x  -1.10618   0.00000  -1.10618
:VZERX:v0,v0c,v0x  -1.10618   0.00000  -1.10618 v5,v5c,v5x  -1.10618   0.00000  -1.10618

------- epsilon_Pu_0.scf1 --------

          ATOMIC SPHERE DEPENDENT PARAMETERS FOR ATOM  Pu  0+    
:e__0001: OVERALL ENERGY PARAMETER IS    1.7892
          OVERALL BASIS SET ON ATOM IS LAPW
:E0_0001: E( 0)=    1.7892
             APW+lo
:E0_0001: E( 0)=   -1.4275   E(BOTTOM)=   -2.204   E(TOP)=   -0.651
             LOCAL ORBITAL
:E1_0001: E( 1)=   -0.5120   E(BOTTOM)=   -0.512   E(TOP)= -200.000
             APW+lo
:E1_0001: E( 1)=    1.7892
             LOCAL ORBITAL
:E3_0001: E( 3)=    1.7892   E(BOTTOM)=    1.534   E(TOP)= -200.000
             APW+lo
:E2_0001: E( 2)=    1.7892   E(BOTTOM)=    1.689   E(TOP)= -200.000
             APW+lo

       K=   0.00000   0.00000   0.00000            1
:RKM  : MATRIX SIZE  107LOs:  20  RKM= 8.06  WEIGHT= 1.00  PGR:    
       EIGENVALUES ARE:
:EIG00001:      -1.5233204    0.8976888    0.8976888    0.8976888    1.7681390
:EIG00006:       1.8430912    1.8430912    1.8430912    2.1447640    2.1447640
:EIG00011:       2.1447640    2.2240578    2.2240578    2.2240578    2.2341631
:EIG00016:       2.5762908    2.5762908    3.5369992    3.5369992    3.5369992
:EIG00021:       4.5419388    4.5419388    4.8401071    5.2441111    5.2441111
:EIG00026:       5.2441111    6.4261331    6.4261331    6.4261331    6.6734649
:EIG00031:       6.6734649    6.6734649    7.2049175    7.2049175    7.2049175
:EIG00036:       7.2571536    7.2571536    7.2905597    7.2905597    7.2905597
:EIG00041:       7.4068267    7.4068267
       ********************************************************

:KPT   :      NUMBER OF K-POINTS:   286

------- epsilon_Pu_0.scfso --------
   0.0   0.0 angle (M,z), angle (M,x) deg
 
        SPIN-ORBIT EIGENVALUES:
     K=   0.00000   0.00000   0.00000            1
      MATRIX SIZE=   84   WEIGHT= 1.00
     EIGENVALUES ARE:
          -1.5233204   -1.5233204    0.3664992    0.3664992    1.1337160
           1.1337160    1.1337160    1.1337160    1.7681390    1.7681390
           1.8309525    1.8309525    1.8429435    1.8429435    1.8429435
           1.8429435    2.1326500    2.1326500    2.1326500    2.1326500
           2.1785522    2.1785522    2.2022233    2.2022233    2.2022233
           2.2022233    2.2368686    2.2368686    2.2577100    2.2577100
           2.5797580    2.5797580    2.5797580    2.5797580    3.5309578
           3.5309578    3.5411473    3.5411473    3.5411473    3.5411473

       ********************************************************

------- epsilon_Pu_0.scf2 --------
:GMA  : POTENTIAL AND CHARGE CUT-OFF  12.00 Ry**.5
         Bandranges (emin - emax) and occupancy:
:BAN00008:   8    0.581208    1.133716  1.00000000
:BAN00009:   9    1.540085    1.977097  1.00000000
:BAN00010:  10    1.540085    1.977097  1.00000000
:BAN00011:  11    1.547442    1.985682  1.00000000
:BAN00012:  12    1.547442    1.985682  1.00000000
:BAN00013:  13    1.826750    1.990028  1.00000000
:BAN00014:  14    1.826750    1.990028  1.00000000
:BAN00015:  15    1.842943    2.063223  0.89046097
:BAN00016:  16    1.842943    2.063223  0.89046097
:BAN00017:  17    1.961246    2.132650  0.10953903
:BAN00018:  18    1.961246    2.132650  0.10953903
:BAN00019:  19    2.040528    2.132650  0.00000000
:BAN00020:  20    2.040528    2.132650  0.00000000
:BAN00021:  21    2.085499    2.178552  0.00000000
:BAN00022:  22    2.085499    2.178552  0.00000000
:BAN00023:  23    2.131185    2.263202  0.00000000
        Energy to separate low and high energystates:    1.49009


:NLDA  : NUMBER OF ELECTRONS          =  16.000

:FLDA  : F E R M I - ENERGY           =   2.50163




:POS001: AT.NR.   1 POSITION = 0.00000 0.00000 0.00000  MULTIPLICITY =  1

       LMMAX  5
       LM=   0 0  4 0  4 4  6 0  6 4
:FER DMFT Fermi Energy   1.99992
:EORB    0.09947069
:SUM SUM OF DMFT BAND ENERGIES   15.46556797

:CHA001: TOTAL CHARGE INSIDE SPHERE   1 =    11.966262
:PCS001: PARTIAL CHARGES SPHERE =  1 S,P,D,F,      D-EG,D-T2G 
:QTL001: 1.9649 4.5561 0.8672 4.5656 0.0000 0.0000 0.0000 0.3412 0.5727 0.0000 0.0000 0.0000
        Q-s-low E-s-low   Q-p-low E-p-low   Q-d-low E-d-low   Q-f-low E-f-low
:EPL001:  1.8828 -1.3644    4.4061  0.5265    0.0591  0.6389    0.0313  0.7136
        Q-s-hi  E-s-hi    Q-p-hi  E-p-hi    Q-d-hi  E-d-hi    Q-f-hi  E-f-hi 
:EPH001:  0.0821  1.8203    0.1500  1.8614    0.8081  1.8149    4.5343  1.9166

:CHA  : TOTAL CHARGE INSIDE UNIT CELL =      16.000000

:ESUM  : SUM OF EIGENVALUES =          15.500794533


------- epsilon_Pu_0.scfc --------

        1.ATOM      Pu  0+               21 CORE STATES
:1S 001: 1S               -8965.753042078 Ry
:2S 001: 2S               -1686.427956638 Ry
:2PP001: 2P*              -1627.120812870 Ry
:2P 001: 2P               -1313.970147115 Ry
:3S 001: 3S                -426.974885052 Ry
:3PP001: 3P*               -400.050192702 Ry
:3P 001: 3P                -327.489232981 Ry
:3DD001: 3D*               -285.248561022 Ry
:3D 001: 3D                -270.706536916 Ry
:4S 001: 4S                -108.454881171 Ry
:4PP001: 4P*                -96.267032788 Ry
:4P 001: 4P                 -77.121405791 Ry
:4DD001: 4D*                -57.834019279 Ry
:4D 001: 4D                 -54.339384995 Ry
:5S 001: 5S                 -22.608476587 Ry
:5PP001: 5P*                -17.790236029 Ry
:5P 001: 5P                 -13.100135188 Ry
:4FF001: 4F*                -28.940007369 Ry
:4F 001: 4F                 -28.011894726 Ry
:5DD001: 5D*                 -6.063375813 Ry
:5D 001: 5D                  -5.363932162 Ry

------- epsilon_Pu_0.scfm --------

       DENSITY AT NUCLEUS
        JATOM    VALENCE       SEMI-CORE            CORE           TOTAL
:RTO001:   1    23756.394762        0.000000 45141820.049570 45165576.444331
     
       CHARGES OF NEW CHARGE DENSITY
:NTO  : TOTAL   INTERSTITIAL CHARGE=    4.0337272
:NTO001: TOTAL   CHARGE IN SPHERE  1 =       89.9568088

:NEC01: NUCLEAR AND ELECTRONIC CHARGE     94.00000    93.99054     1.00010
     
       CHARGES OF OLD CHARGE DENSITY
:OTO  : TOTAL   INTERSTITIAL CHARGE=    4.0444933
:OTO001: TOTAL   CHARGE IN SPHERE  1 =       89.9555067

:NEC02: NUCLEAR AND ELECTRONIC CHARGE     94.00000    94.00000     1.00000
     
       CONVERGENCE TEST
:DTO001: TOTAL   DIFFERENCE CHARGE**2 IN SPHERE  1 =  0.0018495

:DIS  :  CHARGE DISTANCE       ( 0.0018495 for atom    1 spin 1)      0.0018495
:BIG check (qbig,qrms,qtot)    0.617D-03   0.131D-02   0.185D-02
 
******************************************************
* MULTISECANT MIXING VER4 OPTIONS                    *
* Unpredicted Step Limit   0.100000                  *
* Plane Wave Dynamic Rescaling                       *
* Dynamic Regularization active                      *
* Upper Cutoff Lambda  1.0E-01 Lower 3.5E-04         *
* SQRT Multiplicity/Degeneracy                       *
* Max Number of Memory Steps    8                    *
******************************************************
 
:PLANE:  INTERSTITIAL TOTAL      1.94858 DISTAN  2.933E-02 % 
:CHARG:  CLM CHARGE   /ATOM    713.23313 DISTAN  1.905E-03 % 
:INFO :  Dynamic rescale   2.341E+01  1.000E-01
:INFO :  Number of Memory Steps    3 Skipping    0
:INFO :  Singular value   3.962E+00 Weight   1.000E+00 Projections   2.041E-01  1.852E-03
:INFO :  Singular value   7.184E-03 Weight   9.976E-01 Projections   1.244E-02  2.976E-01
:INFO :  Singular value   2.338E-04 Weight   3.085E-01 Projections  -2.163E-01 -5.822E-03
:INFO :  Bounds         0.788D-01  0.200D+00  0.910D+00  0.788D-01
:DIRM :  MEMORY 3/8 RESCALE  23.41 RED 0.779 PRED 0.853 NEXT 0.110 COND 1.10E+00
:DIRP :  |BROYD|= 1.088E-02 |PRATT|= 1.054E-03 ANGLE=  18.3 DEGREES
:DIRB :  |BROYD|= 1.583E-02 |PRATT|= 1.502E-03 ANGLE=  16.7 DEGREES
:MIX  :  MSR1   REGULARIZATION: 3.50E-04  GREED: 0.079
     
       CHARGES OF MIXED CHARGE DENSITY
:CTO  : TOTAL   INTERSTITIAL CHARGE=    4.0443883
:CTO001: TOTAL   CHARGE IN SPHERE  1 =       89.9556117

:NEC03: NUCLEAR AND ELECTRONIC CHARGE     94.00000    94.00000     1.00000


:ENE  : ********** TOTAL ENERGY IN Ry =       -59354.68380101


------- epsilon_Pu_0.scf0 --------


            ---------
:ITE102:102. ITERATION
            ---------

:NATO :    1 INDEPENDENT AND    1 TOTAL ATOMS IN UNITCELL
       SUBSTANCE: cubic body-centered  (epsilon Pu)                           

       LATTICE                      = B   
:POT  : POTENTIAL OPTION    5
:LAT  : LATTICE CONSTANTS=  5.80584  5.80584  5.80584    1.571    1.571    1.571
:VOL  : UNIT CELL VOLUME =      97.85088
       MODE OF CALCULATION IS       = RELA
       NON-SPINPOLARIZED CALCULATION
:IFFT  : FFT-parameters:   48   48   48 Factor: 2.00
       ATOMNUMBER=  1 Pu  0+     VCOUL-ZERO =  0.11453E+01
:FIT001: LUSE= 13 SIGMA OF V-XC FIT FOR ATOM  1  0.1128375E-03
:FIT001: LUSE= 13 SIGMA OF V-XC FIT FOR ATOM  1  0.1128375E-03
:DEN  : DENSITY INTEGRAL  =        -21963.90018070   (Ry)
       ELS_POTENTIAL_AT Z=0 and Z=0.5:  -2.79934  -2.79934
       ELS_POTENTIAL_AT Y=0 and Y=0.5:   0.00000   0.00000
:VZERO:v0,v0c,v0x  -3.95220  -2.79934  -1.15285 v5,v5c,v5x  -3.95220  -2.79934  -1.15285
:VZERY:v0,v0c,v0x  -1.10614   0.00000  -1.10614 v5,v5c,v5x  -1.10614   0.00000  -1.10614
:VZERX:v0,v0c,v0x  -1.10614   0.00000  -1.10614 v5,v5c,v5x  -1.10614   0.00000  -1.10614

------- epsilon_Pu_0.scf1 --------

          ATOMIC SPHERE DEPENDENT PARAMETERS FOR ATOM  Pu  0+    
:e__0001: OVERALL ENERGY PARAMETER IS    1.7892
          OVERALL BASIS SET ON ATOM IS LAPW
:E0_0001: E( 0)=    1.7892
             APW+lo
:E0_0001: E( 0)=   -1.4275   E(BOTTOM)=   -2.204   E(TOP)=   -0.651
             LOCAL ORBITAL
:E1_0001: E( 1)=   -0.5120   E(BOTTOM)=   -0.512   E(TOP)= -200.000
             APW+lo
:E1_0001: E( 1)=    1.7892
             LOCAL ORBITAL
:E3_0001: E( 3)=    1.7892   E(BOTTOM)=    1.534   E(TOP)= -200.000
             APW+lo
:E2_0001: E( 2)=    1.7892   E(BOTTOM)=    1.689   E(TOP)= -200.000
             APW+lo

       K=   0.00000   0.00000   0.00000            1
:RKM  : MATRIX SIZE  107LOs:  20  RKM= 8.06  WEIGHT= 1.00  PGR:    
       EIGENVALUES ARE:
:EIG00001:      -1.5232950    0.8976860    0.8976860    0.8976860    1.7680551
:EIG00006:       1.8431247    1.8431247    1.8431247    2.1448326    2.1448326
:EIG00011:       2.1448326    2.2240360    2.2240360    2.2240360    2.2343800
:EIG00016:       2.5761506    2.5761506    3.5369757    3.5369757    3.5369757
:EIG00021:       4.5418608    4.5418608    4.8400127    5.2440351    5.2440351
:EIG00026:       5.2440351    6.4261153    6.4261153    6.4261153    6.6733586
:EIG00031:       6.6733586    6.6733586    7.2048603    7.2048603    7.2048603
:EIG00036:       7.2570651    7.2570651    7.2904636    7.2904636    7.2904636
:EIG00041:       7.4066810    7.4066810
       ********************************************************

:KPT   :      NUMBER OF K-POINTS:   286

------- epsilon_Pu_0.scfso --------
   0.0   0.0 angle (M,z), angle (M,x) deg
 
        SPIN-ORBIT EIGENVALUES:
     K=   0.00000   0.00000   0.00000            1
      MATRIX SIZE=   84   WEIGHT= 1.00
     EIGENVALUES ARE:
          -1.5232950   -1.5232950    0.3665139    0.3665139    1.1337044
           1.1337044    1.1337044    1.1337044    1.7680551    1.7680551
           1.8309899    1.8309899    1.8429778    1.8429778    1.8429778
           1.8429778    2.1327207    2.1327207    2.1327207    2.1327207
           2.1786146    2.1786146    2.2022009    2.2022009    2.2022009
           2.2022009    2.2370829    2.2370829    2.2576876    2.2576876
           2.5796188    2.5796188    2.5796188    2.5796188    3.5309338
           3.5309338    3.5411242    3.5411242    3.5411242    3.5411242

       ********************************************************

------- epsilon_Pu_0.scf2 --------
:GMA  : POTENTIAL AND CHARGE CUT-OFF  12.00 Ry**.5
         Bandranges (emin - emax) and occupancy:
:BAN00008:   8    0.581189    1.133704  1.00000000
:BAN00009:   9    1.539955    1.977185  1.00000000
:BAN00010:  10    1.539955    1.977185  1.00000000
:BAN00011:  11    1.547313    1.985736  1.00000000
:BAN00012:  12    1.547313    1.985736  1.00000000
:BAN00013:  13    1.826724    1.990130  1.00000000
:BAN00014:  14    1.826724    1.990130  1.00000000
:BAN00015:  15    1.842978    2.063295  0.89053378
:BAN00016:  16    1.842978    2.063295  0.89053378
:BAN00017:  17    1.961348    2.132721  0.10946622
:BAN00018:  18    1.961348    2.132721  0.10946622
:BAN00019:  19    2.040544    2.132721  0.00000000
:BAN00020:  20    2.040544    2.132721  0.00000000
:BAN00021:  21    2.085555    2.178615  0.00000000
:BAN00022:  22    2.085555    2.178615  0.00000000
:BAN00023:  23    2.131244    2.263144  0.00000000
        Energy to separate low and high energystates:    1.48995


:NLDA  : NUMBER OF ELECTRONS          =  16.000

:FLDA  : F E R M I - ENERGY           =   2.50168




:POS001: AT.NR.   1 POSITION = 0.00000 0.00000 0.00000  MULTIPLICITY =  1

       LMMAX  5
       LM=   0 0  4 0  4 4  6 0  6 4
:FER DMFT Fermi Energy   1.99970
:EORB    0.10120791
:SUM SUM OF DMFT BAND ENERGIES   15.46389698

:CHA001: TOTAL CHARGE INSIDE SPHERE   1 =    11.966296
:PCS001: PARTIAL CHARGES SPHERE =  1 S,P,D,F,      D-EG,D-T2G 
:QTL001: 1.9649 4.5560 0.8669 4.5661 0.0000 0.0000 0.0000 0.3412 0.5725 0.0000 0.0000 0.0000
        Q-s-low E-s-low   Q-p-low E-p-low   Q-d-low E-d-low   Q-f-low E-f-low
:EPL001:  1.8828 -1.3643    4.4060  0.5264    0.0591  0.6389    0.0313  0.7136
        Q-s-hi  E-s-hi    Q-p-hi  E-p-hi    Q-d-hi  E-d-hi    Q-f-hi  E-f-hi 
:EPH001:  0.0821  1.8203    0.1500  1.8614    0.8078  1.8149    4.5348  1.9166

:CHA  : TOTAL CHARGE INSIDE UNIT CELL =      16.000000

:ESUM  : SUM OF EIGENVALUES =          15.500848672


------- epsilon_Pu_0.scfc --------

        1.ATOM      Pu  0+               21 CORE STATES
:1S 001: 1S               -8965.751952490 Ry
:2S 001: 2S               -1686.426935502 Ry
:2PP001: 2P*              -1627.119774672 Ry
:2P 001: 2P               -1313.969125934 Ry
:3S 001: 3S                -426.974010210 Ry
:3PP001: 3P*               -400.049302497 Ry
:3P 001: 3P                -327.488376567 Ry
:3DD001: 3D*               -285.247667090 Ry
:3D 001: 3D                -270.705652601 Ry
:4S 001: 4S                -108.454295151 Ry
:4PP001: 4P*                -96.266442408 Ry
:4P 001: 4P                 -77.120866756 Ry
:4DD001: 4D*                -57.833471004 Ry
:4D 001: 4D                 -54.338850887 Ry
:5S 001: 5S                 -22.608178561 Ry
:5PP001: 5P*                -17.789949270 Ry
:5P 001: 5P                 -13.099886297 Ry
:4FF001: 4F*                -28.939448508 Ry
:4F 001: 4F                 -28.011342990 Ry
:5DD001: 5D*                 -6.063160033 Ry
:5D 001: 5D                  -5.363727509 Ry

------- epsilon_Pu_0.scfm --------

       DENSITY AT NUCLEUS
        JATOM    VALENCE       SEMI-CORE            CORE           TOTAL
:RTO001:   1    23755.268396        0.000000 45141817.216134 45165572.484530
     
       CHARGES OF NEW CHARGE DENSITY
:NTO  : TOTAL   INTERSTITIAL CHARGE=    4.0336935
:NTO001: TOTAL   CHARGE IN SPHERE  1 =       89.9568411

:NEC01: NUCLEAR AND ELECTRONIC CHARGE     94.00000    93.99053     1.00010
     
       CHARGES OF OLD CHARGE DENSITY
:OTO  : TOTAL   INTERSTITIAL CHARGE=    4.0443883
:OTO001: TOTAL   CHARGE IN SPHERE  1 =       89.9556117

:NEC02: NUCLEAR AND ELECTRONIC CHARGE     94.00000    94.00000     1.00000
     
       CONVERGENCE TEST
:DTO001: TOTAL   DIFFERENCE CHARGE**2 IN SPHERE  1 =  0.0016265

:DIS  :  CHARGE DISTANCE       ( 0.0016265 for atom    1 spin 1)      0.0016265
:BIG check (qbig,qrms,qtot)    0.542D-03   0.115D-02   0.163D-02
 
******************************************************
* MULTISECANT MIXING VER4 OPTIONS                    *
* Unpredicted Step Limit   0.100000                  *
* Plane Wave Dynamic Rescaling                       *
* Dynamic Regularization active                      *
* Upper Cutoff Lambda  1.0E-01 Lower 3.5E-04         *
* SQRT Multiplicity/Degeneracy                       *
* Max Number of Memory Steps    8                    *
******************************************************
 
:PLANE:  INTERSTITIAL TOTAL      1.94819 DISTAN  1.187E-02 % 
:CHARG:  CLM CHARGE   /ATOM    713.23369 DISTAN  5.423E-04 % 
:INFO :  Dynamic rescale   2.190E+01  1.000E-01
:INFO :  Number of Memory Steps    4 Skipping    0
:INFO :  Singular value   6.050E+00 Weight   1.000E+00 Projections   3.074E-02 -5.007E-05
:INFO :  Singular value   7.649E-01 Weight   1.000E+00 Projections  -2.465E-02 -7.762E-03
:INFO :  Singular value   2.038E-04 Weight   2.531E-01 Projections  -1.548E-03  3.875E-02
:INFO :  Singular value   2.375E-06 Weight   4.605E-05 Projections  -2.702E-03 -4.534E-05
:INFO :  Bounds         0.158D+00  0.200D+00  0.278D+00  0.158D+00
:DIRM :  MEMORY 4/8 RESCALE  21.90 RED 0.345 PRED 0.110 NEXT 0.360 COND 1.51E+00
:DIRP :  |BROYD|= 1.549E-03 |PRATT|= 7.984E-04 ANGLE=  26.7 DEGREES
:DIRB :  |BROYD|= 2.085E-03 |PRATT|= 1.005E-03 ANGLE=  34.2 DEGREES
:MIX  :  MSR1   REGULARIZATION: 3.50E-04  GREED: 0.158
     
       CHARGES OF MIXED CHARGE DENSITY
:CTO  : TOTAL   INTERSTITIAL CHARGE=    4.0441383
:CTO001: TOTAL   CHARGE IN SPHERE  1 =       89.9558617

:NEC03: NUCLEAR AND ELECTRONIC CHARGE     94.00000    94.00000     1.00000


:ENE  : ********** TOTAL ENERGY IN Ry =       -59354.68379301


------- epsilon_Pu_0.scf0 --------


            ---------
:ITE103:103. ITERATION
            ---------

:NATO :    1 INDEPENDENT AND    1 TOTAL ATOMS IN UNITCELL
       SUBSTANCE: cubic body-centered  (epsilon Pu)                           

       LATTICE                      = B   
:POT  : POTENTIAL OPTION    5
:LAT  : LATTICE CONSTANTS=  5.80584  5.80584  5.80584    1.571    1.571    1.571
:VOL  : UNIT CELL VOLUME =      97.85088
       MODE OF CALCULATION IS       = RELA
       NON-SPINPOLARIZED CALCULATION
:IFFT  : FFT-parameters:   48   48   48 Factor: 2.00
       ATOMNUMBER=  1 Pu  0+     VCOUL-ZERO =  0.11453E+01
:FIT001: LUSE= 13 SIGMA OF V-XC FIT FOR ATOM  1  0.1128747E-03
:FIT001: LUSE= 13 SIGMA OF V-XC FIT FOR ATOM  1  0.1128747E-03
:DEN  : DENSITY INTEGRAL  =        -21963.93319863   (Ry)
       ELS_POTENTIAL_AT Z=0 and Z=0.5:  -2.79924  -2.79924
       ELS_POTENTIAL_AT Y=0 and Y=0.5:   0.00000   0.00000
:VZERO:v0,v0c,v0x  -3.95207  -2.79924  -1.15283 v5,v5c,v5x  -3.95207  -2.79924  -1.15283
:VZERY:v0,v0c,v0x  -1.10613   0.00000  -1.10613 v5,v5c,v5x  -1.10613   0.00000  -1.10613
:VZERX:v0,v0c,v0x  -1.10613   0.00000  -1.10613 v5,v5c,v5x  -1.10613   0.00000  -1.10613

------- epsilon_Pu_0.scf1 --------

          ATOMIC SPHERE DEPENDENT PARAMETERS FOR ATOM  Pu  0+    
:e__0001: OVERALL ENERGY PARAMETER IS    1.7892
          OVERALL BASIS SET ON ATOM IS LAPW
:E0_0001: E( 0)=    1.7892
             APW+lo
:E0_0001: E( 0)=   -1.4270   E(BOTTOM)=   -2.204   E(TOP)=   -0.650
             LOCAL ORBITAL
:E1_0001: E( 1)=   -0.5120   E(BOTTOM)=   -0.512   E(TOP)= -200.000
             APW+lo
:E1_0001: E( 1)=    1.7892
             LOCAL ORBITAL
:E3_0001: E( 3)=    1.7892   E(BOTTOM)=    1.534   E(TOP)= -200.000
             APW+lo
:E2_0001: E( 2)=    1.7892   E(BOTTOM)=    1.689   E(TOP)= -200.000
             APW+lo

       K=   0.00000   0.00000   0.00000            1
:RKM  : MATRIX SIZE  107LOs:  20  RKM= 8.06  WEIGHT= 1.00  PGR:    
       EIGENVALUES ARE:
:EIG00001:      -1.5231954    0.8977627    0.8977627    0.8977627    1.7680500
:EIG00006:       1.8432285    1.8432285    1.8432285    2.1450047    2.1450047
:EIG00011:       2.1450047    2.2240415    2.2240415    2.2240415    2.2345761
:EIG00016:       2.5761329    2.5761329    3.5370313    3.5370313    3.5370313
:EIG00021:       4.5418599    4.5418599    4.8399882    5.2440479    5.2440479
:EIG00026:       5.2440479    6.4261414    6.4261414    6.4261414    6.6733494
:EIG00031:       6.6733494    6.6733494    7.2048580    7.2048580    7.2048580
:EIG00036:       7.2570231    7.2570231    7.2904590    7.2904590    7.2904590
:EIG00041:       7.4066556    7.4066556
       ********************************************************

:KPT   :      NUMBER OF K-POINTS:   286

------- epsilon_Pu_0.scfso --------
   0.0   0.0 angle (M,z), angle (M,x) deg
 
        SPIN-ORBIT EIGENVALUES:
     K=   0.00000   0.00000   0.00000            1
      MATRIX SIZE=   84   WEIGHT= 1.00
     EIGENVALUES ARE:
          -1.5231954   -1.5231954    0.3666068    0.3666068    1.1337736
           1.1337736    1.1337736    1.1337736    1.7680500    1.7680500
           1.8310969    1.8310969    1.8430831    1.8430831    1.8430831
           1.8430831    2.1328925    2.1328925    2.1328925    2.1328925
           2.1787830    2.1787830    2.2022070    2.2022070    2.2022070
           2.2022070    2.2372773    2.2372773    2.2576923    2.2576923
           2.5796011    2.5796011    2.5796011    2.5796011    3.5309888
           3.5309888    3.5411802    3.5411802    3.5411802    3.5411802

       ********************************************************

------- epsilon_Pu_0.scf2 --------
:GMA  : POTENTIAL AND CHARGE CUT-OFF  12.00 Ry**.5
         Bandranges (emin - emax) and occupancy:
:BAN00008:   8    0.581225    1.133774  1.00000000
:BAN00009:   9    1.539922    1.977333  1.00000000
:BAN00010:  10    1.539922    1.977333  1.00000000
:BAN00011:  11    1.547280    1.985885  1.00000000
:BAN00012:  12    1.547280    1.985885  1.00000000
:BAN00013:  13    1.826765    1.990284  1.00000000
:BAN00014:  14    1.826765    1.990284  1.00000000
:BAN00015:  15    1.843083    2.063424  0.89057865
:BAN00016:  16    1.843083    2.063424  0.89057865
:BAN00017:  17    1.961467    2.132893  0.10942135
:BAN00018:  18    1.961467    2.132893  0.10942135
:BAN00019:  19    2.040681    2.132893  0.00000000
:BAN00020:  20    2.040681    2.132893  0.00000000
:BAN00021:  21    2.085704    2.178783  0.00000000
:BAN00022:  22    2.085704    2.178783  0.00000000
:BAN00023:  23    2.131374    2.263181  0.00000000
        Energy to separate low and high energystates:    1.48992


:NLDA  : NUMBER OF ELECTRONS          =  16.000

:FLDA  : F E R M I - ENERGY           =   2.50181




:POS001: AT.NR.   1 POSITION = 0.00000 0.00000 0.00000  MULTIPLICITY =  1

       LMMAX  5
       LM=   0 0  4 0  4 4  6 0  6 4
:FER DMFT Fermi Energy   1.99958
:EORB    0.10279878
:SUM SUM OF DMFT BAND ENERGIES   15.46349946

:CHA001: TOTAL CHARGE INSIDE SPHERE   1 =    11.966231
:PCS001: PARTIAL CHARGES SPHERE =  1 S,P,D,F,      D-EG,D-T2G 
:QTL001: 1.9649 4.5558 0.8667 4.5664 0.0000 0.0000 0.0000 0.3411 0.5723 0.0000 0.0000 0.0000
        Q-s-low E-s-low   Q-p-low E-p-low   Q-d-low E-d-low   Q-f-low E-f-low
:EPL001:  1.8828 -1.3642    4.4059  0.5265    0.0592  0.6390    0.0313  0.7137
        Q-s-hi  E-s-hi    Q-p-hi  E-p-hi    Q-d-hi  E-d-hi    Q-f-hi  E-f-hi 
:EPH001:  0.0821  1.8204    0.1499  1.8614    0.8076  1.8150    4.5351  1.9167

:CHA  : TOTAL CHARGE INSIDE UNIT CELL =      16.000000

:ESUM  : SUM OF EIGENVALUES =          15.502028657


------- epsilon_Pu_0.scfc --------

        1.ATOM      Pu  0+               21 CORE STATES
:1S 001: 1S               -8965.751465823 Ry
:2S 001: 2S               -1686.426450221 Ry
:2PP001: 2P*              -1627.119289069 Ry
:2P 001: 2P               -1313.968640686 Ry
:3S 001: 3S                -426.973536205 Ry
:3PP001: 3P*               -400.048826741 Ry
:3P 001: 3P                -327.487905491 Ry
:3DD001: 3D*               -285.247190967 Ry
:3D 001: 3D                -270.705177597 Ry
:4S 001: 4S                -108.453875276 Ry
:4PP001: 4P*                -96.266021867 Ry
:4P 001: 4P                 -77.120457480 Ry
:4DD001: 4D*                -57.833060121 Ry
:4D 001: 4D                 -54.338443200 Ry
:5S 001: 5S                 -22.607846658 Ry
:5PP001: 5P*                -17.789624199 Ry
:5P 001: 5P                 -13.099584122 Ry
:4FF001: 4F*                -28.939034841 Ry
:4F 001: 4F                 -28.010930950 Ry
:5DD001: 5D*                 -6.062882765 Ry
:5D 001: 5D                  -5.363458621 Ry

------- epsilon_Pu_0.scfm --------

       DENSITY AT NUCLEUS
        JATOM    VALENCE       SEMI-CORE            CORE           TOTAL
:RTO001:   1    23754.292603        0.000000 45141816.505125 45165570.797728
     
       CHARGES OF NEW CHARGE DENSITY
:NTO  : TOTAL   INTERSTITIAL CHARGE=    4.0337585
:NTO001: TOTAL   CHARGE IN SPHERE  1 =       89.9567747

:NEC01: NUCLEAR AND ELECTRONIC CHARGE     94.00000    93.99053     1.00010
     
       CHARGES OF OLD CHARGE DENSITY
:OTO  : TOTAL   INTERSTITIAL CHARGE=    4.0441383
:OTO001: TOTAL   CHARGE IN SPHERE  1 =       89.9558617

:NEC02: NUCLEAR AND ELECTRONIC CHARGE     94.00000    94.00000     1.00000
     
       CONVERGENCE TEST
:DTO001: TOTAL   DIFFERENCE CHARGE**2 IN SPHERE  1 =  0.0012269

:DIS  :  CHARGE DISTANCE       ( 0.0012269 for atom    1 spin 1)      0.0012269
:BIG check (qbig,qrms,qtot)    0.409D-03   0.868D-03   0.123D-02
 
******************************************************
* MULTISECANT MIXING VER4 OPTIONS                    *
* Unpredicted Step Limit   0.100000                  *
* Plane Wave Dynamic Rescaling                       *
* Dynamic Regularization active                      *
* Upper Cutoff Lambda  1.0E-01 Lower 3.5E-04         *
* SQRT Multiplicity/Degeneracy                       *
* Max Number of Memory Steps    8                    *
******************************************************
 
:PLANE:  INTERSTITIAL TOTAL      1.94813 DISTAN  1.004E-02 % 
:CHARG:  CLM CHARGE   /ATOM    713.23384 DISTAN  4.041E-04 % 
:INFO :  Dynamic rescale   2.051E+01  1.000E-01
:INFO :  Number of Memory Steps    5 Skipping    0
:INFO :  Singular value   6.294E+00 Weight   1.000E+00 Projections   4.425E-03  9.602E-05
:INFO :  Singular value   2.397E+00 Weight   1.000E+00 Projections   2.780E-03 -2.976E-03
:INFO :  Singular value   3.235E-02 Weight   9.849E-01 Projections  -6.506E-04  8.443E-03
:INFO :  Singular value   6.514E-05 Weight   2.646E-04 Projections  -6.592E-03  1.093E-04
:INFO :  Singular value   7.253E-07 Weight   3.282E-08 Projections   2.996E-03  5.295E-09
:INFO :  Bounds         0.200D+00  0.200D+00  0.197D+00  0.197D+00
:DIRM :  MEMORY 5/8 RESCALE  20.51 RED 0.807 PRED 0.360 NEXT 0.508 COND 1.26E+00
:DIRP :  |BROYD|= 1.172E-04 |PRATT|= 7.891E-04 ANGLE=  13.0 DEGREES
:DIRB :  |BROYD|= 1.494E-04 |PRATT|= 9.718E-04 ANGLE=  20.5 DEGREES
:MIX  :  MSR1   REGULARIZATION: 4.00E-03  GREED: 0.197
     
       CHARGES OF MIXED CHARGE DENSITY
:CTO  : TOTAL   INTERSTITIAL CHARGE=    4.0441094
:CTO001: TOTAL   CHARGE IN SPHERE  1 =       89.9558906

:NEC03: NUCLEAR AND ELECTRONIC CHARGE     94.00000    94.00000     1.00000


:ENE  : ********** TOTAL ENERGY IN Ry =       -59354.68379219


------- epsilon_Pu_0.scf0 --------


            ---------
:ITE104:104. ITERATION
            ---------

:NATO :    1 INDEPENDENT AND    1 TOTAL ATOMS IN UNITCELL
       SUBSTANCE: cubic body-centered  (epsilon Pu)                           

       LATTICE                      = B   
:POT  : POTENTIAL OPTION    5
:LAT  : LATTICE CONSTANTS=  5.80584  5.80584  5.80584    1.571    1.571    1.571
:VOL  : UNIT CELL VOLUME =      97.85088
       MODE OF CALCULATION IS       = RELA
       NON-SPINPOLARIZED CALCULATION
:IFFT  : FFT-parameters:   48   48   48 Factor: 2.00
       ATOMNUMBER=  1 Pu  0+     VCOUL-ZERO =  0.11453E+01
:FIT001: LUSE= 13 SIGMA OF V-XC FIT FOR ATOM  1  0.1128724E-03
:FIT001: LUSE= 13 SIGMA OF V-XC FIT FOR ATOM  1  0.1128724E-03
:DEN  : DENSITY INTEGRAL  =        -21963.93622802   (Ry)
       ELS_POTENTIAL_AT Z=0 and Z=0.5:  -2.79923  -2.79923
       ELS_POTENTIAL_AT Y=0 and Y=0.5:   0.00000   0.00000
:VZERO:v0,v0c,v0x  -3.95206  -2.79923  -1.15283 v5,v5c,v5x  -3.95206  -2.79923  -1.15283
:VZERY:v0,v0c,v0x  -1.10613   0.00000  -1.10613 v5,v5c,v5x  -1.10613   0.00000  -1.10613
:VZERX:v0,v0c,v0x  -1.10613   0.00000  -1.10613 v5,v5c,v5x  -1.10613   0.00000  -1.10613

------- epsilon_Pu_0.scf1 --------

          ATOMIC SPHERE DEPENDENT PARAMETERS FOR ATOM  Pu  0+    
:e__0001: OVERALL ENERGY PARAMETER IS    1.7892
          OVERALL BASIS SET ON ATOM IS LAPW
:E0_0001: E( 0)=    1.7892
             APW+lo
:E0_0001: E( 0)=   -1.4270   E(BOTTOM)=   -2.204   E(TOP)=   -0.650
             LOCAL ORBITAL
:E1_0001: E( 1)=   -0.5120   E(BOTTOM)=   -0.512   E(TOP)= -200.000
             APW+lo
:E1_0001: E( 1)=    1.7892
             LOCAL ORBITAL
:E3_0001: E( 3)=    1.7892   E(BOTTOM)=    1.534   E(TOP)= -200.000
             APW+lo
:E2_0001: E( 2)=    1.7892   E(BOTTOM)=    1.689   E(TOP)= -200.000
             APW+lo

       K=   0.00000   0.00000   0.00000            1
:RKM  : MATRIX SIZE  107LOs:  20  RKM= 8.06  WEIGHT= 1.00  PGR:    
       EIGENVALUES ARE:
:EIG00001:      -1.5231845    0.8977712    0.8977712    0.8977712    1.7680498
:EIG00006:       1.8432398    1.8432398    1.8432398    2.1450232    2.1450232
:EIG00011:       2.1450232    2.2240422    2.2240422    2.2240422    2.2345963
:EIG00016:       2.5761317    2.5761317    3.5370373    3.5370373    3.5370373
:EIG00021:       4.5418602    4.5418602    4.8399860    5.2440496    5.2440496
:EIG00026:       5.2440496    6.4261444    6.4261444    6.4261444    6.6733491
:EIG00031:       6.6733491    6.6733491    7.2048580    7.2048580    7.2048580
:EIG00036:       7.2570189    7.2570189    7.2904589    7.2904589    7.2904589
:EIG00041:       7.4066536    7.4066536
       ********************************************************

:KPT   :      NUMBER OF K-POINTS:   286

------- epsilon_Pu_0.scfso --------
   0.0   0.0 angle (M,z), angle (M,x) deg
 
        SPIN-ORBIT EIGENVALUES:
     K=   0.00000   0.00000   0.00000            1
      MATRIX SIZE=   84   WEIGHT= 1.00
     EIGENVALUES ARE:
          -1.5231845   -1.5231845    0.3666171    0.3666171    1.1337814
           1.1337814    1.1337814    1.1337814    1.7680498    1.7680498
           1.8311084    1.8311084    1.8430944    1.8430944    1.8430944
           1.8430944    2.1329110    2.1329110    2.1329110    2.1329110
           2.1788012    2.1788012    2.2022077    2.2022077    2.2022077
           2.2022077    2.2372972    2.2372972    2.2576928    2.2576928
           2.5795999    2.5795999    2.5795999    2.5795999    3.5309948
           3.5309948    3.5411863    3.5411863    3.5411863    3.5411863

       ********************************************************

------- epsilon_Pu_0.scf2 --------
:GMA  : POTENTIAL AND CHARGE CUT-OFF  12.00 Ry**.5
         Bandranges (emin - emax) and occupancy:
:BAN00008:   8    0.581229    1.133781  1.00000000
:BAN00009:   9    1.539919    1.977348  1.00000000
:BAN00010:  10    1.539919    1.977348  1.00000000
:BAN00011:  11    1.547277    1.985902  1.00000000
:BAN00012:  12    1.547277    1.985902  1.00000000
:BAN00013:  13    1.826770    1.990300  1.00000000
:BAN00014:  14    1.826770    1.990300  1.00000000
:BAN00015:  15    1.843094    2.063438  0.89058314
:BAN00016:  16    1.843094    2.063438  0.89058314
:BAN00017:  17    1.961480    2.132911  0.10941686
:BAN00018:  18    1.961480    2.132911  0.10941686
:BAN00019:  19    2.040696    2.132911  0.00000000
:BAN00020:  20    2.040696    2.132911  0.00000000
:BAN00021:  21    2.085720    2.178801  0.00000000
:BAN00022:  22    2.085720    2.178801  0.00000000
:BAN00023:  23    2.131388    2.263185  0.00000000
        Energy to separate low and high energystates:    1.48992


:NLDA  : NUMBER OF ELECTRONS          =  16.000

:FLDA  : F E R M I - ENERGY           =   2.50182




:POS001: AT.NR.   1 POSITION = 0.00000 0.00000 0.00000  MULTIPLICITY =  1

       LMMAX  5
       LM=   0 0  4 0  4 4  6 0  6 4
:FER DMFT Fermi Energy   1.99942
:EORB    0.10385721
:SUM SUM OF DMFT BAND ENERGIES   15.46256810

:CHA001: TOTAL CHARGE INSIDE SPHERE   1 =    11.966661
:PCS001: PARTIAL CHARGES SPHERE =  1 S,P,D,F,      D-EG,D-T2G 
:QTL001: 1.9648 4.5557 0.8664 4.5673 0.0000 0.0000 0.0000 0.3410 0.5721 0.0000 0.0000 0.0000
        Q-s-low E-s-low   Q-p-low E-p-low   Q-d-low E-d-low   Q-f-low E-f-low
:EPL001:  1.8828 -1.3642    4.4059  0.5265    0.0592  0.6390    0.0313  0.7137
        Q-s-hi  E-s-hi    Q-p-hi  E-p-hi    Q-d-hi  E-d-hi    Q-f-hi  E-f-hi 
:EPH001:  0.0821  1.8204    0.1499  1.8615    0.8072  1.8150    4.5360  1.9167

:CHA  : TOTAL CHARGE INSIDE UNIT CELL =      16.000000

:ESUM  : SUM OF EIGENVALUES =          15.502168678


------- epsilon_Pu_0.scfc --------

        1.ATOM      Pu  0+               21 CORE STATES
:1S 001: 1S               -8965.751427408 Ry
:2S 001: 2S               -1686.426410678 Ry
:2PP001: 2P*              -1627.119249809 Ry
:2P 001: 2P               -1313.968601146 Ry
:3S 001: 3S                -426.973495392 Ry
:3PP001: 3P*               -400.048785980 Ry
:3P 001: 3P                -327.487864733 Ry
:3DD001: 3D*               -285.247150228 Ry
:3D 001: 3D                -270.705136829 Ry
:4S 001: 4S                -108.453836385 Ry
:4PP001: 4P*                -96.265982966 Ry
:4P 001: 4P                 -77.120419097 Ry
:4DD001: 4D*                -57.833021687 Ry
:4D 001: 4D                 -54.338404915 Ry
:5S 001: 5S                 -22.607813133 Ry
:5PP001: 5P*                -17.789591256 Ry
:5P 001: 5P                 -13.099553135 Ry
:4FF001: 4F*                -28.938996196 Ry
:4F 001: 4F                 -28.010892383 Ry
:5DD001: 5D*                 -6.062854086 Ry
:5D 001: 5D                  -5.363430720 Ry

------- epsilon_Pu_0.scfm --------

       DENSITY AT NUCLEUS
        JATOM    VALENCE       SEMI-CORE            CORE           TOTAL
:RTO001:   1    23753.672576        0.000000 45141816.470493 45165570.143069
     
       CHARGES OF NEW CHARGE DENSITY
:NTO  : TOTAL   INTERSTITIAL CHARGE=    4.0333288
:NTO001: TOTAL   CHARGE IN SPHERE  1 =       89.9572044

:NEC01: NUCLEAR AND ELECTRONIC CHARGE     94.00000    93.99053     1.00010
     
       CHARGES OF OLD CHARGE DENSITY
:OTO  : TOTAL   INTERSTITIAL CHARGE=    4.0441094
:OTO001: TOTAL   CHARGE IN SPHERE  1 =       89.9558906

:NEC02: NUCLEAR AND ELECTRONIC CHARGE     94.00000    94.00000     1.00000
     
       CONVERGENCE TEST
:DTO001: TOTAL   DIFFERENCE CHARGE**2 IN SPHERE  1 =  0.0017333

:DIS  :  CHARGE DISTANCE       ( 0.0017333 for atom    1 spin 1)      0.0017333
:BIG check (qbig,qrms,qtot)    0.578D-03   0.123D-02   0.173D-02
 
******************************************************
* MULTISECANT MIXING VER4 OPTIONS                    *
* Unpredicted Step Limit   0.100000                  *
* Plane Wave Dynamic Rescaling                       *
* Dynamic Regularization active                      *
* Upper Cutoff Lambda  1.0E-01 Lower 3.5E-04         *
* SQRT Multiplicity/Degeneracy                       *
* Max Number of Memory Steps    8                    *
******************************************************
 
:PLANE:  INTERSTITIAL TOTAL      1.94812 DISTAN  1.369E-02 % 
:CHARG:  CLM CHARGE   /ATOM    713.23385 DISTAN  5.538E-04 % 
:INFO :  Dynamic rescale   1.958E+01  1.000E-01
:INFO :  Number of Memory Steps    6 Skipping    0
:INFO :  Singular value   6.451E+00 Weight   1.000E+00 Projections  -9.676E-03 -1.935E-04
:INFO :  Singular value   1.912E+00 Weight   1.000E+00 Projections  -9.506E-03 -4.365E-03
:INFO :  Singular value   7.482E-01 Weight   1.000E+00 Projections   2.174E-03  2.621E-03
:INFO :  Singular value   3.901E-03 Weight   9.920E-01 Projections   1.774E-02 -3.294E-02
:INFO :  Singular value   1.461E-06 Weight   1.742E-05 Projections  -8.629E-03  1.540E-07
:INFO :  Singular value   7.157E-07 Weight   4.182E-06 Projections   2.308E-02  1.314E-06
:INFO :  Bounds         0.144D+00  0.200D+00  0.159D+01  0.144D+00
:DIRM :  MEMORY 6/8 RESCALE  19.58 RED 1.366 PRED 0.508 NEXT 0.063 COND 1.08E+00
:DIRP :  |BROYD|= 7.885E-04 |PRATT|= 7.517E-04 ANGLE=  60.3 DEGREES
:DIRB :  |BROYD|= 1.193E-03 |PRATT|= 9.427E-04 ANGLE=  69.0 DEGREES
:MIX  :  MSR1   REGULARIZATION: 3.50E-04  GREED: 0.144
     
       CHARGES OF MIXED CHARGE DENSITY
:CTO  : TOTAL   INTERSTITIAL CHARGE=    4.0441446
:CTO001: TOTAL   CHARGE IN SPHERE  1 =       89.9558554

:NEC03: NUCLEAR AND ELECTRONIC CHARGE     94.00000    94.00000     1.00000


:ENE  : ********** TOTAL ENERGY IN Ry =       -59354.68379620


------- epsilon_Pu_0.scf0 --------


            ---------
:ITE105:105. ITERATION
            ---------

:NATO :    1 INDEPENDENT AND    1 TOTAL ATOMS IN UNITCELL
       SUBSTANCE: cubic body-centered  (epsilon Pu)                           

       LATTICE                      = B   
:POT  : POTENTIAL OPTION    5
:LAT  : LATTICE CONSTANTS=  5.80584  5.80584  5.80584    1.571    1.571    1.571
:VOL  : UNIT CELL VOLUME =      97.85088
       MODE OF CALCULATION IS       = RELA
       NON-SPINPOLARIZED CALCULATION
:IFFT  : FFT-parameters:   48   48   48 Factor: 2.00
       ATOMNUMBER=  1 Pu  0+     VCOUL-ZERO =  0.11452E+01
:FIT001: LUSE= 13 SIGMA OF V-XC FIT FOR ATOM  1  0.1127194E-03
:FIT001: LUSE= 13 SIGMA OF V-XC FIT FOR ATOM  1  0.1127194E-03
:DEN  : DENSITY INTEGRAL  =        -21963.91139285   (Ry)
       ELS_POTENTIAL_AT Z=0 and Z=0.5:  -2.79918  -2.79918
       ELS_POTENTIAL_AT Y=0 and Y=0.5:   0.00000   0.00000
:VZERO:v0,v0c,v0x  -3.95203  -2.79918  -1.15285 v5,v5c,v5x  -3.95203  -2.79918  -1.15285
:VZERY:v0,v0c,v0x  -1.10613   0.00000  -1.10613 v5,v5c,v5x  -1.10613   0.00000  -1.10613
:VZERX:v0,v0c,v0x  -1.10613   0.00000  -1.10613 v5,v5c,v5x  -1.10613   0.00000  -1.10613

------- epsilon_Pu_0.scf1 --------

          ATOMIC SPHERE DEPENDENT PARAMETERS FOR ATOM  Pu  0+    
:e__0001: OVERALL ENERGY PARAMETER IS    1.7892
          OVERALL BASIS SET ON ATOM IS LAPW
:E0_0001: E( 0)=    1.7892
             APW+lo
:E0_0001: E( 0)=   -1.4275   E(BOTTOM)=   -2.204   E(TOP)=   -0.651
             LOCAL ORBITAL
:E1_0001: E( 1)=   -0.5120   E(BOTTOM)=   -0.512   E(TOP)= -200.000
             APW+lo
:E1_0001: E( 1)=    1.7892
             LOCAL ORBITAL
:E3_0001: E( 3)=    1.7892   E(BOTTOM)=    1.534   E(TOP)= -200.000
             APW+lo
:E2_0001: E( 2)=    1.7892   E(BOTTOM)=    1.689   E(TOP)= -200.000
             APW+lo

       K=   0.00000   0.00000   0.00000            1
:RKM  : MATRIX SIZE  107LOs:  20  RKM= 8.06  WEIGHT= 1.00  PGR:    
       EIGENVALUES ARE:
:EIG00001:      -1.5232238    0.8977388    0.8977388    0.8977388    1.7680378
:EIG00006:       1.8431954    1.8431954    1.8431954    2.1449636    2.1449636
:EIG00011:       2.1449636    2.2240218    2.2240218    2.2240218    2.2345149
:EIG00016:       2.5761301    2.5761301    3.5370028    3.5370028    3.5370028
:EIG00021:       4.5418475    4.5418475    4.8399811    5.2440303    5.2440303
:EIG00026:       5.2440303    6.4261210    6.4261210    6.4261210    6.6733432
:EIG00031:       6.6733432    6.6733432    7.2048414    7.2048414    7.2048414
:EIG00036:       7.2570149    7.2570149    7.2904478    7.2904478    7.2904478
:EIG00041:       7.4066528    7.4066528
       ********************************************************

:KPT   :      NUMBER OF K-POINTS:   286

------- epsilon_Pu_0.scfso --------
   0.0   0.0 angle (M,z), angle (M,x) deg
 
        SPIN-ORBIT EIGENVALUES:
     K=   0.00000   0.00000   0.00000            1
      MATRIX SIZE=   84   WEIGHT= 1.00
     EIGENVALUES ARE:
          -1.5232238   -1.5232238    0.3665802    0.3665802    1.1337510
           1.1337510    1.1337510    1.1337510    1.7680378    1.7680378
           1.8310630    1.8310630    1.8430497    1.8430497    1.8430497
           1.8430497    2.1328510    2.1328510    2.1328510    2.1328510
           2.1787432    2.1787432    2.2021874    2.2021874    2.2021874
           2.2021874    2.2372165    2.2372165    2.2576726    2.2576726
           2.5795982    2.5795982    2.5795982    2.5795982    3.5309604
           3.5309604    3.5411517    3.5411517    3.5411517    3.5411517

       ********************************************************

------- epsilon_Pu_0.scf2 --------
:GMA  : POTENTIAL AND CHARGE CUT-OFF  12.00 Ry**.5
         Bandranges (emin - emax) and occupancy:
:BAN00008:   8    0.581205    1.133751  1.00000000
:BAN00009:   9    1.539918    1.977291  1.00000000
:BAN00010:  10    1.539918    1.977291  1.00000000
:BAN00011:  11    1.547276    1.985847  1.00000000
:BAN00012:  12    1.547276    1.985847  1.00000000
:BAN00013:  13    1.826745    1.990239  1.00000000
:BAN00014:  14    1.826745    1.990239  1.00000000
:BAN00015:  15    1.843050    2.063385  0.89056764
:BAN00016:  16    1.843050    2.063385  0.89056764
:BAN00017:  17    1.961426    2.132851  0.10943236
:BAN00018:  18    1.961426    2.132851  0.10943236
:BAN00019:  19    2.040649    2.132851  0.00000000
:BAN00020:  20    2.040649    2.132851  0.00000000
:BAN00021:  21    2.085666    2.178743  0.00000000
:BAN00022:  22    2.085666    2.178743  0.00000000
:BAN00023:  23    2.131337    2.263164  0.00000000
        Energy to separate low and high energystates:    1.48992


:NLDA  : NUMBER OF ELECTRONS          =  16.000

:FLDA  : F E R M I - ENERGY           =   2.50177




:POS001: AT.NR.   1 POSITION = 0.00000 0.00000 0.00000  MULTIPLICITY =  1

       LMMAX  5
       LM=   0 0  4 0  4 4  6 0  6 4
:FER DMFT Fermi Energy   1.99924
:EORB    0.10463567
:SUM SUM OF DMFT BAND ENERGIES   15.46125011

:CHA001: TOTAL CHARGE INSIDE SPHERE   1 =    11.967270
:PCS001: PARTIAL CHARGES SPHERE =  1 S,P,D,F,      D-EG,D-T2G 
:QTL001: 1.9648 4.5557 0.8661 4.5683 0.0000 0.0000 0.0000 0.3409 0.5719 0.0000 0.0000 0.0000
        Q-s-low E-s-low   Q-p-low E-p-low   Q-d-low E-d-low   Q-f-low E-f-low
:EPL001:  1.8828 -1.3643    4.4059  0.5265    0.0591  0.6389    0.0313  0.7136
        Q-s-hi  E-s-hi    Q-p-hi  E-p-hi    Q-d-hi  E-d-hi    Q-f-hi  E-f-hi 
:EPH001:  0.0820  1.8203    0.1498  1.8615    0.8069  1.8150    4.5370  1.9166

:CHA  : TOTAL CHARGE INSIDE UNIT CELL =      16.000000

:ESUM  : SUM OF EIGENVALUES =          15.501642890


------- epsilon_Pu_0.scfc --------

        1.ATOM      Pu  0+               21 CORE STATES
:1S 001: 1S               -8965.751990968 Ry
:2S 001: 2S               -1686.426934466 Ry
:2PP001: 2P*              -1627.119783897 Ry
:2P 001: 2P               -1313.969124928 Ry
:3S 001: 3S                -426.973931733 Ry
:3PP001: 3P*               -400.049230908 Ry
:3P 001: 3P                -327.488291498 Ry
:3DD001: 3D*               -285.247597721 Ry
:3D 001: 3D                -270.705578916 Ry
:4S 001: 4S                -108.454130232 Ry
:4PP001: 4P*                -96.266279022 Ry
:4P 001: 4P                 -77.120690451 Ry
:4DD001: 4D*                -57.833297533 Ry
:4D 001: 4D                 -54.338673878 Ry
:5S 001: 5S                 -22.607963646 Ry
:5PP001: 5P*                -17.789736135 Ry
:5P 001: 5P                 -13.099679109 Ry
:4FF001: 4F*                -28.939275598 Ry
:4F 001: 4F                 -28.011168331 Ry
:5DD001: 5D*                 -6.062965042 Ry
:5D 001: 5D                  -5.363536634 Ry

------- epsilon_Pu_0.scfm --------

       DENSITY AT NUCLEUS
        JATOM    VALENCE       SEMI-CORE            CORE           TOTAL
:RTO001:   1    23753.203261        0.000000 45141817.947292 45165571.150553
     
       CHARGES OF NEW CHARGE DENSITY
:NTO  : TOTAL   INTERSTITIAL CHARGE=    4.0327196
:NTO001: TOTAL   CHARGE IN SPHERE  1 =       89.9578140

:NEC01: NUCLEAR AND ELECTRONIC CHARGE     94.00000    93.99053     1.00010
     
       CHARGES OF OLD CHARGE DENSITY
:OTO  : TOTAL   INTERSTITIAL CHARGE=    4.0441446
:OTO001: TOTAL   CHARGE IN SPHERE  1 =       89.9558554

:NEC02: NUCLEAR AND ELECTRONIC CHARGE     94.00000    94.00000     1.00000
     
       CONVERGENCE TEST
:DTO001: TOTAL   DIFFERENCE CHARGE**2 IN SPHERE  1 =  0.0024856

:DIS  :  CHARGE DISTANCE       ( 0.0024856 for atom    1 spin 1)      0.0024856
:BIG check (qbig,qrms,qtot)    0.829D-03   0.176D-02   0.249D-02
 
******************************************************
* MULTISECANT MIXING VER4 OPTIONS                    *
* Unpredicted Step Limit   0.100000                  *
* Plane Wave Dynamic Rescaling                       *
* Dynamic Regularization active                      *
* Upper Cutoff Lambda  1.0E-01 Lower 3.5E-04         *
* SQRT Multiplicity/Degeneracy                       *
* Max Number of Memory Steps    8                    *
******************************************************
 
:PLANE:  INTERSTITIAL TOTAL      1.94810 DISTAN  1.781E-02 % 
:CHARG:  CLM CHARGE   /ATOM    713.23357 DISTAN  7.854E-04 % 
:INFO :  Dynamic rescale   1.910E+01  1.000E-01
:INFO :  Number of Memory Steps    7 Skipping    0
:INFO :  Singular value   6.358E+00 Weight   1.000E+00 Projections   5.178E-03 -9.215E-04
:INFO :  Singular value   3.094E+00 Weight   1.000E+00 Projections   3.317E-03 -3.823E-03
:INFO :  Singular value   2.179E-01 Weight   1.000E+00 Projections  -1.769E-04 -7.785E-03
:INFO :  Singular value   7.847E-02 Weight   1.000E+00 Projections  -7.546E-03  1.376E-02
:INFO :  Singular value   4.113E-05 Weight   1.362E-02 Projections   5.951E-03  1.805E-05
:INFO :  Singular value   1.239E-06 Weight   1.253E-05 Projections   6.302E-03  1.961E-06
:INFO :  Singular value   4.276E-07 Weight   1.492E-06 Projections  -9.770E-03  8.712E-08
:INFO :  Bounds         0.107D+00  0.200D+00  0.399D+01  0.107D+00
:DIRM :  MEMORY 7/8 RESCALE  19.10 RED 1.347 PRED 0.063 NEXT 0.025 COND 9.08E-01
:DIRP :  |BROYD|= 2.093E-04 |PRATT|= 7.089E-04 ANGLE= 169.3 DEGREES
:DIRB :  |BROYD|= 2.852E-04 |PRATT|= 9.282E-04 ANGLE= 152.6 DEGREES
:MIX  :  MSR1   REGULARIZATION: 3.50E-04  GREED: 0.107
     
       CHARGES OF MIXED CHARGE DENSITY
:CTO  : TOTAL   INTERSTITIAL CHARGE=    4.0442035
:CTO001: TOTAL   CHARGE IN SPHERE  1 =       89.9557965

:NEC03: NUCLEAR AND ELECTRONIC CHARGE     94.00000    94.00000     1.00000


:ENE  : ********** TOTAL ENERGY IN Ry =       -59354.68379102


------- epsilon_Pu_0.scf0 --------


            ---------
:ITE106:106. ITERATION
            ---------

:NATO :    1 INDEPENDENT AND    1 TOTAL ATOMS IN UNITCELL
       SUBSTANCE: cubic body-centered  (epsilon Pu)                           

       LATTICE                      = B   
:POT  : POTENTIAL OPTION    5
:LAT  : LATTICE CONSTANTS=  5.80584  5.80584  5.80584    1.571    1.571    1.571
:VOL  : UNIT CELL VOLUME =      97.85088
       MODE OF CALCULATION IS       = RELA
       NON-SPINPOLARIZED CALCULATION
:IFFT  : FFT-parameters:   48   48   48 Factor: 2.00
       ATOMNUMBER=  1 Pu  0+     VCOUL-ZERO =  0.11453E+01
:FIT001: LUSE= 13 SIGMA OF V-XC FIT FOR ATOM  1  0.1127283E-03
:FIT001: LUSE= 13 SIGMA OF V-XC FIT FOR ATOM  1  0.1127283E-03
:DEN  : DENSITY INTEGRAL  =        -21963.90980716   (Ry)
       ELS_POTENTIAL_AT Z=0 and Z=0.5:  -2.79921  -2.79921
       ELS_POTENTIAL_AT Y=0 and Y=0.5:   0.00000   0.00000
:VZERO:v0,v0c,v0x  -3.95206  -2.79921  -1.15285 v5,v5c,v5x  -3.95206  -2.79921  -1.15285
:VZERY:v0,v0c,v0x  -1.10613   0.00000  -1.10613 v5,v5c,v5x  -1.10613   0.00000  -1.10613
:VZERX:v0,v0c,v0x  -1.10613   0.00000  -1.10613 v5,v5c,v5x  -1.10613   0.00000  -1.10613

------- epsilon_Pu_0.scf1 --------

          ATOMIC SPHERE DEPENDENT PARAMETERS FOR ATOM  Pu  0+    
:e__0001: OVERALL ENERGY PARAMETER IS    1.7892
          OVERALL BASIS SET ON ATOM IS LAPW
:E0_0001: E( 0)=    1.7892
             APW+lo
:E0_0001: E( 0)=   -1.4275   E(BOTTOM)=   -2.204   E(TOP)=   -0.651
             LOCAL ORBITAL
:E1_0001: E( 1)=   -0.5120   E(BOTTOM)=   -0.512   E(TOP)= -200.000
             APW+lo
:E1_0001: E( 1)=    1.7892
             LOCAL ORBITAL
:E3_0001: E( 3)=    1.7892   E(BOTTOM)=    1.534   E(TOP)= -200.000
             APW+lo
:E2_0001: E( 2)=    1.7892   E(BOTTOM)=    1.689   E(TOP)= -200.000
             APW+lo

       K=   0.00000   0.00000   0.00000            1
:RKM  : MATRIX SIZE  107LOs:  20  RKM= 8.06  WEIGHT= 1.00  PGR:    
       EIGENVALUES ARE:
:EIG00001:      -1.5232409    0.8977254    0.8977254    0.8977254    1.7680398
:EIG00006:       1.8431789    1.8431789    1.8431789    2.1449356    2.1449356
:EIG00011:       2.1449356    2.2240219    2.2240219    2.2240219    2.2344855
:EIG00016:       2.5761328    2.5761328    3.5369959    3.5369959    3.5369959
:EIG00021:       4.5418482    4.5418482    4.8399854    5.2440295    5.2440295
:EIG00026:       5.2440295    6.4261167    6.4261167    6.4261167    6.6733437
:EIG00031:       6.6733437    6.6733437    7.2048431    7.2048431    7.2048431
:EIG00036:       7.2570225    7.2570225    7.2904494    7.2904494    7.2904494
:EIG00041:       7.4066574    7.4066574
       ********************************************************

:KPT   :      NUMBER OF K-POINTS:   286

------- epsilon_Pu_0.scfso --------
   0.0   0.0 angle (M,z), angle (M,x) deg
 
        SPIN-ORBIT EIGENVALUES:
     K=   0.00000   0.00000   0.00000            1
      MATRIX SIZE=   84   WEIGHT= 1.00
     EIGENVALUES ARE:
          -1.5232409   -1.5232409    0.3665640    0.3665640    1.1337390
           1.1337390    1.1337390    1.1337390    1.7680398    1.7680398
           1.8310460    1.8310460    1.8430330    1.8430330    1.8430330
           1.8430330    2.1328232    2.1328232    2.1328232    2.1328232
           2.1787157    2.1787157    2.2021873    2.2021873    2.2021873
           2.2021873    2.2371874    2.2371874    2.2576729    2.2576729
           2.5796009    2.5796009    2.5796009    2.5796009    3.5309536
           3.5309536    3.5411447    3.5411447    3.5411447    3.5411447

       ********************************************************

------- epsilon_Pu_0.scf2 --------
:GMA  : POTENTIAL AND CHARGE CUT-OFF  12.00 Ry**.5
         Bandranges (emin - emax) and occupancy:
:BAN00008:   8    0.581199    1.133739  1.00000000
:BAN00009:   9    1.539924    1.977267  1.00000000
:BAN00010:  10    1.539924    1.977267  1.00000000
:BAN00011:  11    1.547282    1.985823  1.00000000
:BAN00012:  12    1.547282    1.985823  1.00000000
:BAN00013:  13    1.826738    1.990215  1.00000000
:BAN00014:  14    1.826738    1.990215  1.00000000
:BAN00015:  15    1.843033    2.063365  0.89056062
:BAN00016:  16    1.843033    2.063365  0.89056062
:BAN00017:  17    1.961408    2.132823  0.10943938
:BAN00018:  18    1.961408    2.132823  0.10943938
:BAN00019:  19    2.040627    2.132823  0.00000000
:BAN00020:  20    2.040627    2.132823  0.00000000
:BAN00021:  21    2.085642    2.178716  0.00000000
:BAN00022:  22    2.085642    2.178716  0.00000000
:BAN00023:  23    2.131316    2.263158  0.00000000
        Energy to separate low and high energystates:    1.48992


:NLDA  : NUMBER OF ELECTRONS          =  16.000

:FLDA  : F E R M I - ENERGY           =   2.50175




:POS001: AT.NR.   1 POSITION = 0.00000 0.00000 0.00000  MULTIPLICITY =  1

       LMMAX  5
       LM=   0 0  4 0  4 4  6 0  6 4
:FER DMFT Fermi Energy   1.99910
:EORB    0.10537931
:SUM SUM OF DMFT BAND ENERGIES   15.46029296

:CHA001: TOTAL CHARGE INSIDE SPHERE   1 =    11.967787
:PCS001: PARTIAL CHARGES SPHERE =  1 S,P,D,F,      D-EG,D-T2G 
:QTL001: 1.9648 4.5556 0.8658 4.5692 0.0000 0.0000 0.0000 0.3408 0.5716 0.0000 0.0000 0.0000
        Q-s-low E-s-low   Q-p-low E-p-low   Q-d-low E-d-low   Q-f-low E-f-low
:EPL001:  1.8828 -1.3643    4.4059  0.5265    0.0591  0.6389    0.0313  0.7136
        Q-s-hi  E-s-hi    Q-p-hi  E-p-hi    Q-d-hi  E-d-hi    Q-f-hi  E-f-hi 
:EPH001:  0.0820  1.8203    0.1497  1.8615    0.8066  1.8149    4.5379  1.9166

:CHA  : TOTAL CHARGE INSIDE UNIT CELL =      16.000001

:ESUM  : SUM OF EIGENVALUES =          15.501463337


------- epsilon_Pu_0.scfc --------

        1.ATOM      Pu  0+               21 CORE STATES
:1S 001: 1S               -8965.751964280 Ry
:2S 001: 2S               -1686.426917903 Ry
:2PP001: 2P*              -1627.119764766 Ry
:2P 001: 2P               -1313.969108359 Ry
:3S 001: 3S                -426.973933953 Ry
:3PP001: 3P*               -400.049231455 Ry
:3P 001: 3P                -327.488295324 Ry
:3DD001: 3D*               -285.247597776 Ry
:3D 001: 3D                -270.705580017 Ry
:4S 001: 4S                -108.454154117 Ry
:4PP001: 4P*                -96.266302535 Ry
:4P 001: 4P                 -77.120717446 Ry
:4DD001: 4D*                -57.833323841 Ry
:4D 001: 4D                 -54.338701157 Ry
:5S 001: 5S                 -22.608004335 Ry
:5PP001: 5P*                -17.789776815 Ry
:5P 001: 5P                 -13.099719731 Ry
[...]
:INFO :  Bounds         0.221D+00  0.200D+00  0.343D+00  0.200D+00
:DIRM :  MEMORY 8/8 RESCALE  17.34 RED 0.311 PRED 0.353 NEXT 0.291 COND 1.48E+00
:DIRP :  |BROYD|= 5.049E-04 |PRATT|= 2.131E-04 ANGLE=  29.1 DEGREES
:DIRB :  |BROYD|= 1.018E-03 |PRATT|= 3.378E-04 ANGLE=  24.6 DEGREES
:MIX  :  MSR1   REGULARIZATION: 3.50E-04  GREED: 0.200
     
       CHARGES OF MIXED CHARGE DENSITY
:CTO  : TOTAL   INTERSTITIAL CHARGE=    4.0420336
:CTO001: TOTAL   CHARGE IN SPHERE  1 =       89.9579664

:NEC03: NUCLEAR AND ELECTRONIC CHARGE     94.00000    94.00000     1.00000


:ENE  : ********** TOTAL ENERGY IN Ry =       -59354.68372754


------- epsilon_Pu_0.scf0 --------


            ---------
:ITE128:128. ITERATION
            ---------

:NATO :    1 INDEPENDENT AND    1 TOTAL ATOMS IN UNITCELL
       SUBSTANCE: cubic body-centered  (epsilon Pu)                           

       LATTICE                      = B   
:POT  : POTENTIAL OPTION    5
:LAT  : LATTICE CONSTANTS=  5.80584  5.80584  5.80584    1.571    1.571    1.571
:VOL  : UNIT CELL VOLUME =      97.85088
       MODE OF CALCULATION IS       = RELA
       NON-SPINPOLARIZED CALCULATION
:IFFT  : FFT-parameters:   48   48   48 Factor: 2.00
       ATOMNUMBER=  1 Pu  0+     VCOUL-ZERO =  0.11449E+01
:FIT001: LUSE= 13 SIGMA OF V-XC FIT FOR ATOM  1  0.1125592E-03
:FIT001: LUSE= 13 SIGMA OF V-XC FIT FOR ATOM  1  0.1125592E-03
:DEN  : DENSITY INTEGRAL  =        -21964.05163024   (Ry)
       ELS_POTENTIAL_AT Z=0 and Z=0.5:  -2.79827  -2.79827
       ELS_POTENTIAL_AT Y=0 and Y=0.5:   0.00000   0.00000
:VZERO:v0,v0c,v0x  -3.95094  -2.79827  -1.15267 v5,v5c,v5x  -3.95094  -2.79827  -1.15267
:VZERY:v0,v0c,v0x  -1.10599   0.00000  -1.10599 v5,v5c,v5x  -1.10599   0.00000  -1.10599
:VZERX:v0,v0c,v0x  -1.10599   0.00000  -1.10599 v5,v5c,v5x  -1.10599   0.00000  -1.10599

------- epsilon_Pu_0.scf1 --------

          ATOMIC SPHERE DEPENDENT PARAMETERS FOR ATOM  Pu  0+    
:e__0001: OVERALL ENERGY PARAMETER IS    1.7892
          OVERALL BASIS SET ON ATOM IS LAPW
:E0_0001: E( 0)=    1.7892
             APW+lo
:E0_0001: E( 0)=   -1.4270   E(BOTTOM)=   -2.204   E(TOP)=   -0.650
             LOCAL ORBITAL
:E1_0001: E( 1)=   -0.5100   E(BOTTOM)=   -0.510   E(TOP)= -200.000
             APW+lo
:E1_0001: E( 1)=    1.7892
             LOCAL ORBITAL
:E3_0001: E( 3)=    1.7892   E(BOTTOM)=    1.534   E(TOP)= -200.000
             APW+lo
:E2_0001: E( 2)=    1.7892   E(BOTTOM)=    1.689   E(TOP)= -200.000
             APW+lo

       K=   0.00000   0.00000   0.00000            1
:RKM  : MATRIX SIZE  107LOs:  20  RKM= 8.06  WEIGHT= 1.00  PGR:    
       EIGENVALUES ARE:
:EIG00001:      -1.5226113    0.8982062    0.8982062    0.8982062    1.7679346
:EIG00006:       1.8438045    1.8438045    1.8438045    2.1460121    2.1460121
:EIG00011:       2.1460121    2.2239903    2.2239903    2.2239903    2.2356629
:EIG00016:       2.5759747    2.5759747    3.5372595    3.5372595    3.5372595
:EIG00021:       4.5417859    4.5417859    4.8397730    5.2440310    5.2440310
:EIG00026:       5.2440310    6.4262428    6.4262428    6.4262428    6.6732605
:EIG00031:       6.6732605    6.6732605    7.2047540    7.2047540    7.2047540
:EIG00036:       7.2566840    7.2566840    7.2903389    7.2903389    7.2903389
:EIG00041:       7.4064345    7.4064345
       ********************************************************

:KPT   :      NUMBER OF K-POINTS:   286

------- epsilon_Pu_0.scfso --------
   0.0   0.0 angle (M,z), angle (M,x) deg
 
        SPIN-ORBIT EIGENVALUES:
     K=   0.00000   0.00000   0.00000            1
      MATRIX SIZE=   84   WEIGHT= 1.00
     EIGENVALUES ARE:
          -1.5226113   -1.5226113    0.3671542    0.3671542    1.1341688
           1.1341688    1.1341688    1.1341688    1.7679346    1.7679346
           1.8316905    1.8316905    1.8436672    1.8436672    1.8436672
           1.8436672    2.1338961    2.1338961    2.1338961    2.1338961
           2.1797710    2.1797710    2.2021605    2.2021605    2.2021605
           2.2021605    2.2383541    2.2383541    2.2576348    2.2576348
           2.5794419    2.5794419    2.5794419    2.5794419    3.5312135
           3.5312135    3.5414113    3.5414113    3.5414113    3.5414113

       ********************************************************

------- epsilon_Pu_0.scf2 --------
:GMA  : POTENTIAL AND CHARGE CUT-OFF  12.00 Ry**.5
         Bandranges (emin - emax) and occupancy:
:BAN00008:   8    0.581394    1.134169  1.00000000
:BAN00009:   9    1.539649    1.978169  1.00000000
:BAN00010:  10    1.539649    1.978169  1.00000000
:BAN00011:  11    1.547014    1.986751  1.00000000
:BAN00012:  12    1.547014    1.986751  1.00000000
:BAN00013:  13    1.826951    1.991152  1.00000000
:BAN00014:  14    1.826951    1.991152  1.00000000
:BAN00015:  15    1.843667    2.064143  0.89084440
:BAN00016:  16    1.843667    2.064143  0.89084440
:BAN00017:  17    1.962111    2.133896  0.10915560
:BAN00018:  18    1.962111    2.133896  0.10915560
:BAN00019:  19    2.041491    2.133896  0.00000000
:BAN00020:  20    2.041491    2.133896  0.00000000
:BAN00021:  21    2.086573    2.179771  0.00000000
:BAN00022:  22    2.086573    2.179771  0.00000000
:BAN00023:  23    2.132118    2.263344  0.00000000
        Energy to separate low and high energystates:    1.48965


:NLDA  : NUMBER OF ELECTRONS          =  16.000

:FLDA  : F E R M I - ENERGY           =   2.50252




:POS001: AT.NR.   1 POSITION = 0.00000 0.00000 0.00000  MULTIPLICITY =  1

       LMMAX  5
       LM=   0 0  4 0  4 4  6 0  6 4
:FER DMFT Fermi Energy   1.99809
:EORB    0.11667381
:SUM SUM OF DMFT BAND ENERGIES   15.45618251

:CHA001: TOTAL CHARGE INSIDE SPHERE   1 =    11.967709
:PCS001: PARTIAL CHARGES SPHERE =  1 S,P,D,F,      D-EG,D-T2G 
:QTL001: 1.9646 4.5546 0.8641 4.5720 0.0000 0.0000 0.0000 0.3403 0.5704 0.0000 0.0000 0.0000
        Q-s-low E-s-low   Q-p-low E-p-low   Q-d-low E-d-low   Q-f-low E-f-low
:EPL001:  1.8827 -1.3635    4.4051  0.5268    0.0592  0.6392    0.0313  0.7139
        Q-s-hi  E-s-hi    Q-p-hi  E-p-hi    Q-d-hi  E-d-hi    Q-f-hi  E-f-hi 
:EPH001:  0.0819  1.8206    0.1495  1.8619    0.8049  1.8153    4.5408  1.9171

:CHA  : TOTAL CHARGE INSIDE UNIT CELL =      16.000000

:ESUM  : SUM OF EIGENVALUES =          15.508509369


------- epsilon_Pu_0.scfc --------

        1.ATOM      Pu  0+               21 CORE STATES
:1S 001: 1S               -8965.750586040 Ry
:2S 001: 2S               -1686.425360580 Ry
:2PP001: 2P*              -1627.118252555 Ry
:2P 001: 2P               -1313.967551788 Ry
:3S 001: 3S                -426.972135324 Ry
:3PP001: 3P*               -400.047448589 Ry
:3P 001: 3P                -327.486491367 Ry
:3DD001: 3D*               -285.245819390 Ry
:3D 001: 3D                -270.703792047 Ry
:4S 001: 4S                -108.452360056 Ry
:4PP001: 4P*                -96.264509612 Ry
:4P 001: 4P                 -77.118928262 Ry
:4DD001: 4D*                -57.831533481 Ry
:4D 001: 4D                 -54.336910961 Ry
:5S 001: 5S                 -22.606228501 Ry
:5PP001: 5P*                -17.788017201 Ry
:5P 001: 5P                 -13.098016896 Ry
:4FF001: 4F*                -28.937488234 Ry
:4F 001: 4F                 -28.009382184 Ry
:5DD001: 5D*                 -6.061397684 Ry
:5D 001: 5D                  -5.362001840 Ry

------- epsilon_Pu_0.scfm --------

       DENSITY AT NUCLEUS
        JATOM    VALENCE       SEMI-CORE            CORE           TOTAL
:RTO001:   1    23745.583947        0.000000 45141818.467538 45165564.051485
     
       CHARGES OF NEW CHARGE DENSITY
:NTO  : TOTAL   INTERSTITIAL CHARGE=    4.0322799
:NTO001: TOTAL   CHARGE IN SPHERE  1 =       89.9582466

:NEC01: NUCLEAR AND ELECTRONIC CHARGE     94.00000    93.99053     1.00010
     
       CHARGES OF OLD CHARGE DENSITY
:OTO  : TOTAL   INTERSTITIAL CHARGE=    4.0420336
:OTO001: TOTAL   CHARGE IN SPHERE  1 =       89.9579664

:NEC02: NUCLEAR AND ELECTRONIC CHARGE     94.00000    94.00000     1.00000
     
       CONVERGENCE TEST
:DTO001: TOTAL   DIFFERENCE CHARGE**2 IN SPHERE  1 =  0.0003455

:DIS  :  CHARGE DISTANCE       ( 0.0003455 for atom    1 spin 1)      0.0003455
:BIG check (qbig,qrms,qtot)    0.115D-03   0.244D-03   0.345D-03
 
******************************************************
* MULTISECANT MIXING VER4 OPTIONS                    *
* Unpredicted Step Limit   0.100000                  *
* Plane Wave Dynamic Rescaling                       *
* Dynamic Regularization active                      *
* Upper Cutoff Lambda  1.0E-01 Lower 3.5E-04         *
* SQRT Multiplicity/Degeneracy                       *
* Max Number of Memory Steps    8                    *
******************************************************
 
:PLANE:  INTERSTITIAL TOTAL      1.94740 DISTAN  2.568E-03 % 
:CHARG:  CLM CHARGE   /ATOM    713.23365 DISTAN  1.232E-04 % 
:INFO :  Dynamic rescale   1.747E+01  1.000E-01
:INFO :  Number of Memory Steps    8 Skipping   22
:INFO :  Singular value   1.044E+01 Weight   1.000E+00 Projections   2.920E-03  4.246E-04
:INFO :  Singular value   1.573E+00 Weight   1.000E+00 Projections   1.396E-03  2.873E-04
:INFO :  Singular value   1.949E-04 Weight   2.367E-01 Projections  -1.575E-03  4.090E-03
:INFO :  Singular value   1.297E-04 Weight   1.208E-01 Projections  -2.678E-03  3.233E-03
:INFO :  Singular value   5.276E-05 Weight   2.222E-02 Projections  -6.271E-04  4.486E-05
:INFO :  Singular value   4.031E-06 Weight   1.326E-04 Projections   1.068E-03 -2.351E-05
:INFO :  Singular value   2.912E-06 Weight   6.920E-05 Projections   2.169E-03  1.695E-06
:INFO :  Singular value   1.158E-07 Weight   1.095E-07 Projections  -1.038E-03  3.268E-08
:INFO :  Bounds         0.273D+00  0.200D+00  0.281D+00  0.200D+00
:DIRM :  MEMORY 8/8 RESCALE  17.47 RED 0.732 PRED 0.291 NEXT 0.356 COND 1.31E+00
:DIRP :  |BROYD|= 6.052E-04 |PRATT|= 1.747E-04 ANGLE=  32.8 DEGREES
:DIRB :  |BROYD|= 6.760E-04 |PRATT|= 2.479E-04 ANGLE=  36.3 DEGREES
:MIX  :  MSR1   REGULARIZATION: 3.50E-04  GREED: 0.200
     
       CHARGES OF MIXED CHARGE DENSITY
:CTO  : TOTAL   INTERSTITIAL CHARGE=    4.0419406
:CTO001: TOTAL   CHARGE IN SPHERE  1 =       89.9580594

:NEC03: NUCLEAR AND ELECTRONIC CHARGE     94.00000    94.00000     1.00000


:ENE  : ********** TOTAL ENERGY IN Ry =       -59354.68374227


------- epsilon_Pu_0.scf0 --------


            ---------
:ITE129:129. ITERATION
            ---------

:NATO :    1 INDEPENDENT AND    1 TOTAL ATOMS IN UNITCELL
       SUBSTANCE: cubic body-centered  (epsilon Pu)                           

       LATTICE                      = B   
:POT  : POTENTIAL OPTION    5
:LAT  : LATTICE CONSTANTS=  5.80584  5.80584  5.80584    1.571    1.571    1.571
:VOL  : UNIT CELL VOLUME =      97.85088
       MODE OF CALCULATION IS       = RELA
       NON-SPINPOLARIZED CALCULATION
:IFFT  : FFT-parameters:   48   48   48 Factor: 2.00
       ATOMNUMBER=  1 Pu  0+     VCOUL-ZERO =  0.11449E+01
:FIT001: LUSE= 13 SIGMA OF V-XC FIT FOR ATOM  1  0.1125470E-03
:FIT001: LUSE= 13 SIGMA OF V-XC FIT FOR ATOM  1  0.1125470E-03
:DEN  : DENSITY INTEGRAL  =        -21964.05737960   (Ry)
       ELS_POTENTIAL_AT Z=0 and Z=0.5:  -2.79823  -2.79823
       ELS_POTENTIAL_AT Y=0 and Y=0.5:   0.00000   0.00000
:VZERO:v0,v0c,v0x  -3.95089  -2.79823  -1.15266 v5,v5c,v5x  -3.95089  -2.79823  -1.15266
:VZERY:v0,v0c,v0x  -1.10598   0.00000  -1.10598 v5,v5c,v5x  -1.10598   0.00000  -1.10598
:VZERX:v0,v0c,v0x  -1.10598   0.00000  -1.10598 v5,v5c,v5x  -1.10598   0.00000  -1.10598

------- epsilon_Pu_0.scf1 --------

          ATOMIC SPHERE DEPENDENT PARAMETERS FOR ATOM  Pu  0+    
:e__0001: OVERALL ENERGY PARAMETER IS    1.7892
          OVERALL BASIS SET ON ATOM IS LAPW
:E0_0001: E( 0)=    1.7892
             APW+lo
:E0_0001: E( 0)=   -1.4265   E(BOTTOM)=   -2.204   E(TOP)=   -0.649
             LOCAL ORBITAL
:E1_0001: E( 1)=   -0.5100   E(BOTTOM)=   -0.510   E(TOP)= -200.000
             APW+lo
:E1_0001: E( 1)=    1.7892
             LOCAL ORBITAL
:E3_0001: E( 3)=    1.7892   E(BOTTOM)=    1.534   E(TOP)= -200.000
             APW+lo
:E2_0001: E( 2)=    1.7892   E(BOTTOM)=    1.689   E(TOP)= -200.000
             APW+lo

       K=   0.00000   0.00000   0.00000            1
:RKM  : MATRIX SIZE  107LOs:  20  RKM= 8.06  WEIGHT= 1.00  PGR:    
       EIGENVALUES ARE:
:EIG00001:      -1.5225848    0.8982265    0.8982265    0.8982265    1.7679303
:EIG00006:       1.8438308    1.8438308    1.8438308    2.1460571    2.1460571
:EIG00011:       2.1460571    2.2239891    2.2239891    2.2239891    2.2357122
:EIG00016:       2.5759681    2.5759681    3.5372707    3.5372707    3.5372707
:EIG00021:       4.5417834    4.5417834    4.8397641    5.2440312    5.2440312
:EIG00026:       5.2440312    6.4262482    6.4262482    6.4262482    6.6732572
:EIG00031:       6.6732572    6.6732572    7.2047504    7.2047504    7.2047504
:EIG00036:       7.2566699    7.2566699    7.2903349    7.2903349    7.2903349
:EIG00041:       7.4064252    7.4064252
       ********************************************************

:KPT   :      NUMBER OF K-POINTS:   286

------- epsilon_Pu_0.scfso --------
   0.0   0.0 angle (M,z), angle (M,x) deg
 
        SPIN-ORBIT EIGENVALUES:
     K=   0.00000   0.00000   0.00000            1
      MATRIX SIZE=   84   WEIGHT= 1.00
     EIGENVALUES ARE:
          -1.5225848   -1.5225848    0.3671791    0.3671791    1.1341869
           1.1341869    1.1341869    1.1341869    1.7679303    1.7679303
           1.8317176    1.8317176    1.8436939    1.8436939    1.8436939
           1.8436939    2.1339409    2.1339409    2.1339409    2.1339409
           2.1798151    2.1798151    2.2021595    2.2021595    2.2021595
           2.2021595    2.2384029    2.2384029    2.2576333    2.2576333
           2.5794353    2.5794353    2.5794353    2.5794353    3.5312246
           3.5312246    3.5414226    3.5414226    3.5414226    3.5414226

       ********************************************************

------- epsilon_Pu_0.scf2 --------
:GMA  : POTENTIAL AND CHARGE CUT-OFF  12.00 Ry**.5
         Bandranges (emin - emax) and occupancy:
:BAN00008:   8    0.581402    1.134187  1.00000000
:BAN00009:   9    1.539638    1.978207  1.00000000
:BAN00010:  10    1.539638    1.978207  1.00000000
:BAN00011:  11    1.547003    1.986789  1.00000000
:BAN00012:  12    1.547003    1.986789  1.00000000
:BAN00013:  13    1.826960    1.991191  1.00000000
:BAN00014:  14    1.826960    1.991191  1.00000000
:BAN00015:  15    1.843694    2.064176  0.89085614
:BAN00016:  16    1.843694    2.064176  0.89085614
:BAN00017:  17    1.962140    2.133941  0.10914386
:BAN00018:  18    1.962140    2.133941  0.10914386
:BAN00019:  19    2.041527    2.133941  0.00000000
:BAN00020:  20    2.041527    2.133941  0.00000000
:BAN00021:  21    2.086612    2.179815  0.00000000
:BAN00022:  22    2.086612    2.179815  0.00000000
:BAN00023:  23    2.132152    2.263351  0.00000000
        Energy to separate low and high energystates:    1.48964


:NLDA  : NUMBER OF ELECTRONS          =  16.000

:FLDA  : F E R M I - ENERGY           =   2.50256




:POS001: AT.NR.   1 POSITION = 0.00000 0.00000 0.00000  MULTIPLICITY =  1

       LMMAX  5
       LM=   0 0  4 0  4 4  6 0  6 4
:FER DMFT Fermi Energy   1.99811
:EORB    0.11673590
:SUM SUM OF DMFT BAND ENERGIES   15.45642722

:CHA001: TOTAL CHARGE INSIDE SPHERE   1 =    11.967507
:PCS001: PARTIAL CHARGES SPHERE =  1 S,P,D,F,      D-EG,D-T2G 
:QTL001: 1.9646 4.5546 0.8642 4.5718 0.0000 0.0000 0.0000 0.3403 0.5705 0.0000 0.0000 0.0000
        Q-s-low E-s-low   Q-p-low E-p-low   Q-d-low E-d-low   Q-f-low E-f-low
:EPL001:  1.8827 -1.3635    4.4051  0.5268    0.0592  0.6392    0.0313  0.7139
        Q-s-hi  E-s-hi    Q-p-hi  E-p-hi    Q-d-hi  E-d-hi    Q-f-hi  E-f-hi 
:EPH001:  0.0819  1.8206    0.1495  1.8620    0.8049  1.8153    4.5405  1.9171

:CHA  : TOTAL CHARGE INSIDE UNIT CELL =      16.000000

:ESUM  : SUM OF EIGENVALUES =          15.508800779


------- epsilon_Pu_0.scfc --------

        1.ATOM      Pu  0+               21 CORE STATES
:1S 001: 1S               -8965.750535264 Ry
:2S 001: 2S               -1686.425300908 Ry
:2PP001: 2P*              -1627.118195072 Ry
:2P 001: 2P               -1313.967492144 Ry
:3S 001: 3S                -426.972063788 Ry
:3PP001: 3P*               -400.047377872 Ry
:3P 001: 3P                -327.486419468 Ry
:3DD001: 3D*               -285.245748878 Ry
:3D 001: 3D                -270.703721039 Ry
:4S 001: 4S                -108.452286969 Ry
:4PP001: 4P*                -96.264436603 Ry
:4P 001: 4P                 -77.118855147 Ry
:4DD001: 4D*                -57.831460359 Ry
:4D 001: 4D                 -54.336837771 Ry
:5S 001: 5S                 -22.606154615 Ry
:5PP001: 5P*                -17.787943950 Ry
:5P 001: 5P                 -13.097945864 Ry
:4FF001: 4F*                -28.937414118 Ry
:4F 001: 4F                 -28.009308062 Ry
:5DD001: 5D*                 -6.061330591 Ry
:5D 001: 5D                  -5.361936101 Ry

------- epsilon_Pu_0.scfm --------

       DENSITY AT NUCLEUS
        JATOM    VALENCE       SEMI-CORE            CORE           TOTAL
:RTO001:   1    23745.573669        0.000000 45141818.520695 45165564.094365
     
       CHARGES OF NEW CHARGE DENSITY
:NTO  : TOTAL   INTERSTITIAL CHARGE=    4.0324823
:NTO001: TOTAL   CHARGE IN SPHERE  1 =       89.9580439

:NEC01: NUCLEAR AND ELECTRONIC CHARGE     94.00000    93.99053     1.00010
     
       CHARGES OF OLD CHARGE DENSITY
:OTO  : TOTAL   INTERSTITIAL CHARGE=    4.0419406
:OTO001: TOTAL   CHARGE IN SPHERE  1 =       89.9580594

:NEC02: NUCLEAR AND ELECTRONIC CHARGE     94.00000    94.00000     1.00000
     
       CONVERGENCE TEST
:DTO001: TOTAL   DIFFERENCE CHARGE**2 IN SPHERE  1 =  0.0000538

:DIS  :  CHARGE DISTANCE       ( 0.0000538 for atom    1 spin 1)      0.0000538
:BIG check (qbig,qrms,qtot)    0.179D-04   0.380D-04   0.538D-04
 
******************************************************
* MULTISECANT MIXING VER4 OPTIONS                    *
* Unpredicted Step Limit   0.100000                  *
* Plane Wave Dynamic Rescaling                       *
* Dynamic Regularization active                      *
* Upper Cutoff Lambda  1.0E-01 Lower 3.5E-04         *
* SQRT Multiplicity/Degeneracy                       *
* Max Number of Memory Steps    8                    *
******************************************************
 
:PLANE:  INTERSTITIAL TOTAL      1.94736 DISTAN  2.100E-04 % 
:CHARG:  CLM CHARGE   /ATOM    713.23364 DISTAN  4.094E-05 % 
:INFO :  Dynamic rescale   1.994E+01  1.000E-01
:INFO :  Number of Memory Steps    8 Skipping   23
:INFO :  Singular value   1.046E+01 Weight   1.000E+00 Projections   5.351E-04 -2.713E-05
:INFO :  Singular value   1.805E+00 Weight   1.000E+00 Projections   1.239E-04 -7.326E-05
:INFO :  Singular value   2.039E-02 Weight   9.997E-01 Projections   7.165E-04 -2.372E-03
:INFO :  Singular value   1.783E-04 Weight   2.060E-01 Projections   5.166E-04 -9.623E-04
:INFO :  Singular value   4.922E-05 Weight   1.939E-02 Projections   8.470E-04  1.220E-04
:INFO :  Singular value   3.069E-05 Weight   7.629E-03 Projections   5.808E-04 -2.881E-04
:INFO :  Singular value   3.329E-06 Weight   9.044E-05 Projections  -1.293E-04  8.532E-07
:INFO :  Singular value   4.987E-07 Weight   2.030E-06 Projections  -2.122E-03 -1.357E-07
:INFO :  Bounds         0.400D+00  0.200D+00  0.206D+00  0.200D+00
:DIRM :  MEMORY 8/8 RESCALE  19.94 RED 0.228 PRED 0.356 NEXT 0.485 COND 1.31E+00
:DIRP :  |BROYD|= 1.629E-04 |PRATT|= 1.631E-05 ANGLE=  59.9 DEGREES
:DIRB :  |BROYD|= 2.992E-04 |PRATT|= 6.063E-05 ANGLE=  34.5 DEGREES
:MIX  :  MSR1   REGULARIZATION: 3.50E-04  GREED: 0.200
     
       CHARGES OF MIXED CHARGE DENSITY
:CTO  : TOTAL   INTERSTITIAL CHARGE=    4.0419649
:CTO001: TOTAL   CHARGE IN SPHERE  1 =       89.9580351

:NEC03: NUCLEAR AND ELECTRONIC CHARGE     94.00000    94.00000     1.00000


:ENE  : ********** TOTAL ENERGY IN Ry =       -59354.68373504

