
:LABEL1: Calculations in /home/ykent/GWIEN/example/Pr/aU/V4/case
:LABEL2: on didymium-2.cmpgroup.ameslab.gov at Fri Jul 10 13:18:39 CDT 2020
:LABEL3: using WIEN2k_19.1 (Release 25/6/2019) in /home/ykent/opt/src/WIEN2k_19.1
:LABEL4: using the command: run_lapw -cc 0.0001
 Flat Integration
 New Mode for Coulomb Integral
 Consistent 3/8+Simpson combinations
 Extension of core to zero
 LDM version in phi
 Fifth-order quadrature in outwin


            ---------
:ITE001:  1. ITERATION
            ---------

:NATO :    1 INDEPENDENT AND    2 TOTAL ATOMS IN UNITCELL
       SUBSTANCE: aU                                                          

       LATTICE                      = CXY 
:POT  : POTENTIAL OPTION EX_LDA EC_LDA VX_LDA VC_LDA
:LAT  : LATTICE CONSTANTS=  5.26305 10.68006  9.22032    1.571    1.571    1.571
:VOL  : UNIT CELL VOLUME =     259.13599
       MODE OF CALCULATION IS       = RELA
       NON-SPINPOLARIZED CALCULATION
:IFFT  : FFT-parameters:   48   90   72 Factor: 2.00


   CONVERGENCE PARAMETER FOR PSEUDOCHARGE: NCON=  9
   MAXIMAL VALUE OF RMT(JATOM)*ABSK(NKK) : RK  =27.59449


:VKCOUL :  VK-COUL convergence: 0.211E-06
       ATOMNUMBER=  1 Pr1        VCOUL-ZERO =  0.70041E+00
:EFG001:                        EFG         =    -0.08678   *10**21  V / m**2
                               V20  TOT/SRF=    -0.07516    -0.09039
                               V22  TOT/SRF=     0.01134     0.01398
                               V22M TOT/SRF=     0.00000     0.00000
                               V21  TOT/SRF=     0.00000     0.00000
                               V21M TOT/SRF=     0.00000     0.00000

              0.05473    0.00000    0.00000        0.05473    0.00000    0.00000
              0.00000    0.03205    0.00000        0.00000    0.03205    0.00000
              0.00000    0.00000   -0.08678        0.00000    0.00000   -0.08678

         MAIN DIRECTIONS OF THE EFG   1.0000  0.0000  0.0000
                                      0.0000  1.0000  0.0000
                                      0.0000  0.0000  1.0000
:ANG001:  ANGLE WITH OLD X-AXIS =         0.0

:ETA001:                         ASYMM. ETA =     0.26130


     HELLMANN-FEYNMAN-FORCE IN mRy/a.u. = |F|  Fx       Fy             Fz
:FHF001:   1.ATOM    942.948353583674      0.000000000000      0.000000000000   -942.948353583674

:FIT001: LUSE= 13 SIGMA OF V-XC FIT FOR ATOM  1  0.5815437E-04
:FIT001: LUSE= 13 SIGMA OF V-XC FIT FOR ATOM  1  0.5815437E-04
:DEN  : DENSITY INTEGRAL  =        -14244.47788116   (Ry)
       ELS_POTENTIAL_AT Z=0 and Z=0.5:   1.02727   1.02727
       ELS_POTENTIAL_AT Y=0 and Y=0.5:  -0.04745  -0.04745
:VZERO:v0,v0c,v0x   0.26025   1.02727  -0.76701 v5,v5c,v5x   0.26025   1.02727  -0.76701
:VZERY:v0,v0c,v0x  -1.03127  -0.04745  -0.98381 v5,v5c,v5x  -1.03127  -0.04745  -0.98381
:VZERX:v0,v0c,v0x  -1.30109  -0.38353  -0.91756 v5,v5c,v5x  -1.30109  -0.38353  -0.91756
:LMAX-WF:   10   Non-Spherical LMAX:   4

          ATOMIC SPHERE DEPENDENT PARAMETERS FOR ATOM  Pr1       
:e__0001: OVERALL ENERGY PARAMETER IS    0.3000
          OVERALL BASIS SET ON ATOM IS LAPW
:E0_0001: E( 0)=    0.3000
             APW+lo
:E0_0001: E( 0)=   -1.2962   E(BOTTOM)=   -1.955   E(TOP)=   -0.637  4  5   259
             LOCAL ORBITAL
:E1_0001: E( 1)=    0.7000
             APW+lo
:E1_0001: E( 1)=   -0.8266   E(BOTTOM)=   -0.827   E(TOP)= -200.000  3 -1   203
             LOCAL ORBITAL
:E3_0001: E( 3)=    1.1762   E(BOTTOM)=    1.176   E(TOP)= -200.000  0 -1   142
             APW+lo
:E2_0001: E( 2)=    0.8956   E(BOTTOM)=    0.896   E(TOP)= -200.000  2 -1   115
             APW+lo

       K=   0.06250   0.00000   0.06250            1
:RKM  : MATRIX SIZE   266LOs:  40  RKM= 8.47  WEIGHT= 4.00  PGR:    
       EIGENVALUES ARE:
:EIG00001:      -1.3787434   -1.2662662   -0.2468087    0.0887094    0.1663463
:EIG00006:       0.1904080    0.2164881    0.2256868    1.1010674    1.1597302
:EIG00011:       1.2651808    1.3118359    1.3164525    1.3184009    1.3536081
:EIG00016:       1.4014951    1.4028959    1.4154989    1.4163928    1.4301939
:EIG00021:       1.4343374    1.4421295    1.4557093    1.4944296    1.4944948
:EIG00026:       1.5119455    1.5404341    1.5638507    1.6300016    1.6762924
:EIG00031:       1.7474990    1.9352662    1.9910661
       ********************************************************

:KPT   :      NUMBER OF K-POINTS:   288
:GAP (global)   :    0.0    Ry =     0.0   eV (metal)
         Bandranges (emin - emax) and occupancy:
:BAN00005:   5   -0.126264    0.166346  2.00000000
:BAN00006:   6   -0.085445    0.209528  2.00000000
:BAN00007:   7   -0.014242    0.223023  2.00000000
:BAN00008:   8    0.115698    0.244249  2.00000000
:BAN00009:   9    0.984400    1.215662  2.00000000
:BAN00010:  10    1.043486    1.246106  2.00000000
:BAN00011:  11    1.105175    1.338560  2.00000000
:BAN00012:  12    1.184528    1.356108  1.97725123
:BAN00013:  13    1.258376    1.399282  1.38483797
:BAN00014:  14    1.299894    1.409357  0.61115125
:BAN00015:  15    1.335464    1.421372  0.02675954
:BAN00016:  16    1.357813    1.426159  0.00000000
:BAN00017:  17    1.395860    1.439414  0.00000000
:BAN00018:  18    1.404846    1.440407  0.00000000
:BAN00019:  19    1.413419    1.451801  0.00000000
:BAN00020:  20    1.420437    1.458261  0.00000000
        Energy to separate low and high energystates:    0.93440


:NOE  : NUMBER OF ELECTRONS          =   26.000

:FER  : F E R M I - ENERGY(TETRAH.M.)=   1.3465704052
:GMA  : POTENTIAL AND CHARGE CUT-OFF  12.00 Ry**.5

:POS001: ATOM   -1 X,Y,Z = 0.00000 0.89750 0.25000  MULT= 2  ZZ= 59.000  Pr1       

       LMMAX 16
       LM=   0 0  1 0  2 0  2 2  3 0  3 2  4 0  4 2  4 4  5 0  5 2  5 4  6 0  6 2  6 4  6 6

:CHA001: TOTAL VALENCE CHARGE INSIDE SPHERE   1 =   9.4224    (RMT=  2.3000 )
:PCS001: PARTIAL CHARGES SPHERE =  1 S,P,D,F,PX,PY,PZ,D-Z2,D-X2Y2,D-XY,D-XZ,D-YZ 
:QTL001: 1.9430 4.9514 1.2109 1.3110 1.6500 1.6446 1.6569 0.2425 0.2402 0.2335 0.2492 0.2455
        Q-s-low E-s-low   Q-p-low E-p-low   Q-d-low E-d-low   Q-f-low E-f-low
:EPL001:  1.8628 -1.2541    4.8008  0.0206    0.0379 -0.0363    0.0118 -0.0356
        Q-s-hi  E-s-hi    Q-p-hi  E-p-hi    Q-d-hi  E-d-hi    Q-f-hi  E-f-hi 
:EPH001:  0.0801  1.2089    0.1507  1.2248    1.1729  1.1909    1.2993  1.2808

                      VXX         VYY         VZZ       UP TO R
:VZZ001:            -0.27102     9.51696    -9.24593       2.300

:CHA  : TOTAL VALENCE CHARGE INSIDE UNIT CELL =      26.000000

:SUM  : SUM OF EIGENVALUES =           7.245248021



   QTL-B VALUE .EQ.    2.44879   in Band of energy    1.17790   ATOM=    1   L=  0
    Most likely no ghostbands, but adjust Energy-parameters for this ATOM and L


:WARN : QTL-B value eq.   2.45 in Band of energy   1.17790  ATOM=    1  L=  0
:WARN : You should change the E-parameter for this atom and L-value in case.in1 (or try the -in1new switch)

        1.ATOM      Pr1                  14 CORE STATES
       CORE-FORCE in mRy/a.u. = |F|      Fx             Fy             Fz
:FCO001:   1.ATOM    757.758365126621      0.000000000000      0.000000000000    757.758365126621

:1S 001: 1S               -3066.094282996 Ry
:2S 001: 2S                -491.860365484 Ry
:2PP001: 2P*               -464.957887500 Ry
:2P 001: 2P                -429.561126524 Ry
:3S 001: 3S                -104.960333389 Ry
:3PP001: 3P*                -93.497577381 Ry
:3P 001: 3P                 -86.490440857 Ry
:3DD001: 3D*                -66.416256330 Ry
:3D 001: 3D                 -64.904901573 Ry
:4S 001: 4S                 -19.657892705 Ry
:4PP001: 4P*                -15.365965252 Ry
:4P 001: 4P                 -13.840499244 Ry
:4DD001: 4D*                 -6.777919839 Ry
:4D 001: 4D                  -6.509305170 Ry
:CINT001 Core Integral Atom   1   45.998342

       DENSITY AT NUCLEUS
        JATOM        VALENCE       SEMI-CORE          CORE           TOTAL
:RTO001:   1      638.665056        0.000000   656817.808729   657456.473785
     
       CHARGES OF NEW CHARGE DENSITY
:NTO   : INTERSTITIAL CHARGE =     7.155174
:NPC   : PW Pseudocharge     =    18.346213
:NTO001: CHARGE SPHERE  1    =    55.420752

:NEC01: NUCLEAR AND ELECTRONIC CHARGE    118.00000   117.99668
     
       CHARGES OF OLD CHARGE DENSITY
:OTO   : INTERSTITIAL CHARGE =     5.954708
:OPC   : PW Pseudocharge     =    16.734961
:OTO001: CHARGE SPHERE  1    =    56.023256

:NEC02: NUCLEAR AND ELECTRONIC CHARGE    118.00000   118.00122
     
       CONVERGENCE TEST
:DTO001: DIFFERENCE IN SPHERE  1 =  1.1767825

:DIS  :  CHARGE DISTANCE       ( 1.1767825 for atom    1 spin 1)      1.1767825
 PW Mixed is          280
 
******************************************************
* MULTISECANT MIXING VER9 RELEASE 10.4.0              *
* Standard Mode with controls                        *
* Fixed density scale                                *
* Regularization       1.000E-04                     *
* Trust Upper Limit    5.000E+00                     *
* Max Number of Memory Steps    8                    *
******************************************************
 
:PWTMP   1.5721E+02  1.9467E+02  2.5914E+02
:PLANE:  PW TOTAL      5.4270 DISTAN   6.35E-01  1.17E+01 %
:CHARG:  CLM/ATOM   1382.0589 DISTAN   1.69E+00  1.23E-01 %
INFO: Reducing dbase  2.50000E-02 1.17678E+00 2.30458E-02
 
Step History
        DMIX         DMIXT        Red     Pred      Trust     Lambda    MagRel    MagAbs     Beta
  1   3.5000E-02   3.5000E-02 -1.00E+00  1.00E+00 -1.00E+01  1.00E+00  3.50E-02  3.50E-02  1.00E+00
:INFO :  Note, Pratt in use
INFO: Reducing dbase  2.30458E-02 1.17678E+00 2.12444E-02
:TRUST:  Step 3.75E-02  Charge 7.50E-02 (e) CTO  2.50E-01 (e) PW  3.50E-01 (e)
:DIRM :  MEMORY  0/ 8 SCALE   1.000
Performing Pseudo Compensation
Final Pseudo Compensation Rescaling     1.00000E+00
:MIX  :   PRATT  REGULARIZATION:  1.00E-04 GREED: 0.02500                  
     
       CHARGES OF MIXED CHARGE DENSITY
:CTO   : INTERSTITIAL CHARGE =     5.983614
:CPC   : PW Pseudocharge     =    17.456390
:CTO001: CHARGE SPHERE  1    =    56.008193

:NEC03: NUCLEAR AND ELECTRONIC CHARGE    118.00000   118.00000

PW CHANGE     H    K    L      Current       Change    Residue
:PTO001:      0    0    0  9.04544535E-02  2.913E-03  1.091E-02
:PTO003:      0    2    0  1.90310976E-02  1.164E-03  2.905E-03
:PTO004:     -1    1    0  8.88247347E-02  5.971E-03  9.098E-03
:PTO005:      0    2   -1 -1.02402899E-01 -6.980E-03 -8.052E-03
:PTO006:      0    0   -2 -5.30719493E-02 -3.620E-03 -3.877E-03
:PTO007:     -1    1   -1 -1.04887063E-01 -7.931E-03 -6.329E-03
:PTO008:      0    2   -2 -1.44397505E-02 -1.448E-03 -5.184E-04
:PTO009:     -1    1   -2 -6.72842474E-02 -7.645E-03 -5.171E-03
:PTO011:     -1    3    0 -8.85715307E-03 -1.370E-03 -1.324E-03
:PTO012:     -1    3   -1 -3.51948691E-02 -6.487E-03 -6.948E-03
:PTO013:      0    4    0 -5.55429323E-03 -1.284E-03 -1.480E-03
:PTO014:      0    2   -3  1.24255222E-02  2.924E-03  4.250E-03

:ENE  : *WARNING** TOTAL ENERGY IN Ry =       -36944.47027523

       TOTAL FORCE IN mRy/a.u. = |F|     Fx             Fy             Fz     with/without FOR in case.in2
:FOR001:   1.ATOM        185.190          0.000          0.000       -185.190 partial forces
       TOTAL FORCE WITH RESPECT TO GLOBAL CARTESIAN COORDINATES:
:FCA001:   1.ATOM                         0.000       -185.190          0.000 partial forces
       TOTAL FORCE WITH RESPECT TO THE GLOBAL COORDINATE SYSTEM:
:FGL001:   1.ATOM                 0.000000000  -185.189988457     0.000000000 partial forces

:LABEL1: Calculations in /home/ykent/GWIEN/example/Pr/aU/V4/case
:LABEL2: on didymium-2.cmpgroup.ameslab.gov at Fri Jul 10 13:19:10 CDT 2020
:LABEL3: using WIEN2k_19.1 (Release 25/6/2019) in /home/ykent/opt/src/WIEN2k_19.1
:LABEL4: using the command: run_lapw -cc 0.0001
 Flat Integration
 New Mode for Coulomb Integral
 Consistent 3/8+Simpson combinations
 Extension of core to zero
 LDM version in phi
 Fifth-order quadrature in outwin


            ---------
:ITE002:  2. ITERATION
            ---------

:NATO :    1 INDEPENDENT AND    2 TOTAL ATOMS IN UNITCELL
       SUBSTANCE: aU                                                          

       LATTICE                      = CXY 
:POT  : POTENTIAL OPTION EX_LDA EC_LDA VX_LDA VC_LDA
:LAT  : LATTICE CONSTANTS=  5.26305 10.68006  9.22032    1.571    1.571    1.571
:VOL  : UNIT CELL VOLUME =     259.13599
       MODE OF CALCULATION IS       = RELA
       NON-SPINPOLARIZED CALCULATION
:IFFT  : FFT-parameters:   48   90   72 Factor: 2.00


   CONVERGENCE PARAMETER FOR PSEUDOCHARGE: NCON=  9
   MAXIMAL VALUE OF RMT(JATOM)*ABSK(NKK) : RK  =27.59449


:VKCOUL :  VK-COUL convergence: 0.137E-06
       ATOMNUMBER=  1 Pr1        VCOUL-ZERO =  0.70912E+00
:EFG001:                        EFG         =    -0.31863   *10**21  V / m**2
                               V20  TOT/SRF=    -0.27594    -0.09008
                               V22  TOT/SRF=    -0.11142     0.01305
                               V22M TOT/SRF=     0.00000     0.00000
                               V21  TOT/SRF=     0.00000     0.00000
                               V21M TOT/SRF=     0.00000     0.00000

              0.04789    0.00000    0.00000        0.04789    0.00000    0.00000
              0.00000    0.27073    0.00000        0.00000    0.27073    0.00000
              0.00000    0.00000   -0.31863        0.00000    0.00000   -0.31863

         MAIN DIRECTIONS OF THE EFG   1.0000  0.0000  0.0000
                                      0.0000  1.0000  0.0000
                                      0.0000  0.0000  1.0000
:ANG001:  ANGLE WITH OLD X-AXIS =         0.0

:ETA001:                         ASYMM. ETA =     0.69938


     HELLMANN-FEYNMAN-FORCE IN mRy/a.u. = |F|  Fx       Fy             Fz
:FHF001:   1.ATOM    936.584808631432      0.000000000000      0.000000000000   -936.584808631432

:FIT001: LUSE= 13 SIGMA OF V-XC FIT FOR ATOM  1  0.5952131E-04
:FIT001: LUSE= 13 SIGMA OF V-XC FIT FOR ATOM  1  0.5952131E-04
:DEN  : DENSITY INTEGRAL  =        -14241.91060297   (Ry)
       ELS_POTENTIAL_AT Z=0 and Z=0.5:   1.03769   1.03769
       ELS_POTENTIAL_AT Y=0 and Y=0.5:  -0.04409  -0.04409
:VZERO:v0,v0c,v0x   0.26949   1.03769  -0.76820 v5,v5c,v5x   0.26949   1.03769  -0.76820
:VZERY:v0,v0c,v0x  -1.03296  -0.04409  -0.98887 v5,v5c,v5x  -1.03296  -0.04409  -0.98887
:VZERX:v0,v0c,v0x  -1.31481  -0.39053  -0.92429 v5,v5c,v5x  -1.31481  -0.39053  -0.92429
:LMAX-WF:   10   Non-Spherical LMAX:   4

          ATOMIC SPHERE DEPENDENT PARAMETERS FOR ATOM  Pr1       
:e__0001: OVERALL ENERGY PARAMETER IS    0.5000
          OVERALL BASIS SET ON ATOM IS LAPW
:E0_0001: E( 0)=    0.5000
             APW+lo
:E0_0001: E( 0)=   -1.2996   E(BOTTOM)=   -1.956   E(TOP)=   -0.643  4  5   254
             LOCAL ORBITAL
:E1_0001: E( 1)=    0.9000
             APW+lo
:E1_0001: E( 1)=   -0.8257   E(BOTTOM)=   -0.826   E(TOP)= -200.000  3 -1   203
             LOCAL ORBITAL
:E3_0001: E( 3)=    1.1667   E(BOTTOM)=    1.167   E(TOP)= -200.000  0 -1   116
             APW+lo
:E2_0001: E( 2)=    0.8978   E(BOTTOM)=    0.898   E(TOP)= -200.000  2 -1    95
             APW+lo

       K=   0.06250   0.00000   0.06250            1
:RKM  : MATRIX SIZE   266LOs:  40  RKM= 8.47  WEIGHT= 4.00  PGR:    
       EIGENVALUES ARE:
:EIG00001:      -1.3803575   -1.2689183   -0.2444756    0.0883785    0.1654796
:EIG00006:       0.1895556    0.2156352    0.2245125    1.1067517    1.1648832
:EIG00011:       1.2659263    1.3068977    1.3113432    1.3123424    1.3463951
:EIG00016:       1.3911248    1.3996259    1.4061870    1.4072049    1.4187004
:EIG00021:       1.4241430    1.4320642    1.4445929    1.4806239    1.4827666
:EIG00026:       1.5008473    1.5397607    1.5601766    1.6305167    1.6774548
:EIG00031:       1.7485512    1.9366252    1.9938144    2.0513239
       ********************************************************

:KPT   :      NUMBER OF K-POINTS:   288
:GAP (global)   :    0.0    Ry =     0.0   eV (metal)
         Bandranges (emin - emax) and occupancy:
:BAN00005:   5   -0.124913    0.165480  2.00000000
:BAN00006:   6   -0.084271    0.208510  2.00000000
:BAN00007:   7   -0.013655    0.221881  2.00000000
:BAN00008:   8    0.116091    0.242904  2.00000000
:BAN00009:   9    0.990856    1.217826  2.00000000
:BAN00010:  10    1.049595    1.247443  2.00000000
:BAN00011:  11    1.110675    1.331500  2.00000000
:BAN00012:  12    1.187874    1.347670  1.97717269
:BAN00013:  13    1.259247    1.388213  1.36727062
:BAN00014:  14    1.296753    1.401499  0.62773872
:BAN00015:  15    1.328934    1.410890  0.02781797
:BAN00016:  16    1.350854    1.415093  0.00000000
:BAN00017:  17    1.387447    1.427792  0.00000000
:BAN00018:  18    1.395755    1.428655  0.00000000
:BAN00019:  19    1.402618    1.439568  0.00000000
:BAN00020:  20    1.409917    1.445737  0.00000000
        Energy to separate low and high energystates:    0.94086


:NOE  : NUMBER OF ELECTRONS          =   26.000

:FER  : F E R M I - ENERGY(TETRAH.M.)=   1.3401731252
:GMA  : POTENTIAL AND CHARGE CUT-OFF  12.00 Ry**.5

:POS001: ATOM   -1 X,Y,Z = 0.00000 0.89750 0.25000  MULT= 2  ZZ= 59.000  Pr1       

       LMMAX 16
       LM=   0 0  1 0  2 0  2 2  3 0  3 2  4 0  4 2  4 4  5 0  5 2  5 4  6 0  6 2  6 4  6 6

:CHA001: TOTAL VALENCE CHARGE INSIDE SPHERE   1 =   9.4899    (RMT=  2.3000 )
:PCS001: PARTIAL CHARGES SPHERE =  1 S,P,D,F,PX,PY,PZ,D-Z2,D-X2Y2,D-XY,D-XZ,D-YZ 
:QTL001: 1.9410 4.9525 1.1758 1.4147 1.6506 1.6450 1.6569 0.2350 0.2301 0.2279 0.2430 0.2397
        Q-s-low E-s-low   Q-p-low E-p-low   Q-d-low E-d-low   Q-f-low E-f-low
:EPL001:  1.8639 -1.2570    4.8103  0.0210    0.0374 -0.0359    0.0117 -0.0353
        Q-s-hi  E-s-hi    Q-p-hi  E-p-hi    Q-d-hi  E-d-hi    Q-f-hi  E-f-hi 
:EPH001:  0.0770  1.2092    0.1422  1.2243    1.1384  1.1910    1.4030  1.2783

                      VXX         VYY         VZZ       UP TO R
:VZZ001:            -0.90790     9.43849    -8.53058       2.300

:CHA  : TOTAL VALENCE CHARGE INSIDE UNIT CELL =      26.000000

:SUM  : SUM OF EIGENVALUES =           7.253471195


        1.ATOM      Pr1                  14 CORE STATES
       CORE-FORCE in mRy/a.u. = |F|      Fx             Fy             Fz
:FCO001:   1.ATOM    760.416078424687      0.000000000000      0.000000000000    760.416078424687

:1S 001: 1S               -3066.127668031 Ry
:2S 001: 2S                -491.893068728 Ry
:2PP001: 2P*               -464.990686430 Ry
:2P 001: 2P                -429.593884381 Ry
:3S 001: 3S                -104.991576900 Ry
:3PP001: 3P*                -93.528936685 Ry
:3P 001: 3P                 -86.521616268 Ry
:3DD001: 3D*                -66.447767898 Ry
:3D 001: 3D                 -64.936365066 Ry
:4S 001: 4S                 -19.680665496 Ry
:4PP001: 4P*                -15.388223591 Ry
:4P 001: 4P                 -13.861957394 Ry
:4DD001: 4D*                 -6.797935537 Ry
:4D 001: 4D                  -6.529044993 Ry
:CINT001 Core Integral Atom   1   45.998365

       DENSITY AT NUCLEUS
        JATOM        VALENCE       SEMI-CORE          CORE           TOTAL
:RTO001:   1      638.889562        0.000000   656819.680624   657458.570185
     
       CHARGES OF NEW CHARGE DENSITY
:NTO   : INTERSTITIAL CHARGE =     7.020151
:NPC   : PW Pseudocharge     =    18.270333
:NTO001: CHARGE SPHERE  1    =    55.488287

:NEC01: NUCLEAR AND ELECTRONIC CHARGE    118.00000   117.99672
     
       CHARGES OF OLD CHARGE DENSITY
:OTO   : INTERSTITIAL CHARGE =     5.983614
:OPC   : PW Pseudocharge     =    17.456390
:OTO001: CHARGE SPHERE  1    =    56.008193

:NEC02: NUCLEAR AND ELECTRONIC CHARGE    118.00000   118.00000
     
       CONVERGENCE TEST
:DTO001: DIFFERENCE IN SPHERE  1 =  1.0139705

:DIS  :  CHARGE DISTANCE       ( 1.0139705 for atom    1 spin 1)      1.0139705
 PW Mixed is          280
 
******************************************************
* MULTISECANT MIXING VER9 RELEASE 10.4.0              *
* Standard Mode with controls                        *
* Fixed density scale                                *
* Regularization       1.000E-04                     *
* Trust Upper Limit    5.000E+00                     *
* Max Number of Memory Steps    8                    *
******************************************************
 
:PWTMP   1.5721E+02  1.9467E+02  2.5914E+02
:PLANE:  PW TOTAL      5.7374 DISTAN   3.48E-01  6.07E+00 %
:CHARG:  CLM/ATOM   1382.0518 DISTAN   1.47E+00  1.06E-01 %
INFO: Reducing dbase  2.50000E-02 1.01397E+00 2.48272E-02
 
Step History
        DMIX         DMIXT        Red     Pred      Trust     Lambda    MagRel    MagAbs     Beta
  1   3.5000E-02   3.5000E-02 -1.00E+00  1.00E+00 -1.00E+01  1.00E+00  3.50E-02  3.50E-02  1.00E+00
:INFO :  Note, Pratt in use
INFO: Reducing dbase  2.48272E-02 1.01397E+00 2.46556E-02
:TRUST:  Step 3.75E-02  Charge 7.50E-02 (e) CTO  2.50E-01 (e) PW  3.50E-01 (e)
:DIRM :  MEMORY  0/ 8 SCALE   1.000
Performing Pseudo Compensation
Final Pseudo Compensation Rescaling     1.00000E+00
:MIX  :   PRATT  REGULARIZATION:  1.00E-04 GREED: 0.02500                  
     
       CHARGES OF MIXED CHARGE DENSITY
:CTO   : INTERSTITIAL CHARGE =     6.009609
:CPC   : PW Pseudocharge     =    17.680526
:CTO001: CHARGE SPHERE  1    =    55.995195

:NEC03: NUCLEAR AND ELECTRONIC CHARGE    118.00000   118.00000

PW CHANGE     H    K    L      Current       Change    Residue
:PTO001:      0    0    0  9.14197026E-02  9.652E-04  7.187E-03
:PTO003:      0    2    0  1.93466022E-02  3.155E-04  1.762E-03
:PTO004:     -1    1    0  9.02522185E-02  1.427E-03  3.241E-03
:PTO005:      0    2   -1 -1.03999809E-01 -1.597E-03 -1.089E-03
:PTO006:      0    0   -2 -5.38938530E-02 -8.219E-04 -2.935E-04
:PTO007:     -1    1   -1 -1.06538424E-01 -1.651E-03  1.418E-03
:PTO008:      0    2   -2 -1.46718785E-02 -2.321E-04  9.319E-04
:PTO009:     -1    1   -2 -6.84473971E-02 -1.163E-03  2.323E-03
:PTO011:     -1    3    0 -9.02347434E-03 -1.663E-04  5.315E-06
:PTO012:     -1    3   -1 -3.58674768E-02 -6.726E-04 -5.558E-04
:PTO013:      0    4    0 -5.65899996E-03 -1.047E-04 -1.871E-04
:PTO014:      0    2   -3  1.26807676E-02  2.552E-04  1.304E-03

:ENE  : ********** TOTAL ENERGY IN Ry =       -36944.43064775

       TOTAL FORCE IN mRy/a.u. = |F|     Fx             Fy             Fz     with/without FOR in case.in2
:FOR001:   1.ATOM        176.169          0.000          0.000       -176.169 partial forces
       TOTAL FORCE WITH RESPECT TO GLOBAL CARTESIAN COORDINATES:
:FCA001:   1.ATOM                         0.000       -176.169          0.000 partial forces
       TOTAL FORCE WITH RESPECT TO THE GLOBAL COORDINATE SYSTEM:
:FGL001:   1.ATOM                 0.000000000  -176.168730207     0.000000000 partial forces
 Flat Integration
 New Mode for Coulomb Integral
 Consistent 3/8+Simpson combinations
 Extension of core to zero
 LDM version in phi
 Fifth-order quadrature in outwin


            ---------
:ITE003:  3. ITERATION
            ---------

:NATO :    1 INDEPENDENT AND    2 TOTAL ATOMS IN UNITCELL
       SUBSTANCE: aU                                                          

       LATTICE                      = CXY 
:POT  : POTENTIAL OPTION EX_LDA EC_LDA VX_LDA VC_LDA
:LAT  : LATTICE CONSTANTS=  5.26305 10.68006  9.22032    1.571    1.571    1.571
:VOL  : UNIT CELL VOLUME =     259.13599
       MODE OF CALCULATION IS       = RELA
       NON-SPINPOLARIZED CALCULATION
:IFFT  : FFT-parameters:   48   90   72 Factor: 2.00


   CONVERGENCE PARAMETER FOR PSEUDOCHARGE: NCON=  9
   MAXIMAL VALUE OF RMT(JATOM)*ABSK(NKK) : RK  =27.59449


:VKCOUL :  VK-COUL convergence: 0.143E-06
       ATOMNUMBER=  1 Pr1        VCOUL-ZERO =  0.71524E+00
:EFG001:                        EFG         =    -0.52677   *10**21  V / m**2
                               V20  TOT/SRF=    -0.45619    -0.08974
                               V22  TOT/SRF=    -0.23814     0.01208
                               V22M TOT/SRF=     0.00000     0.00000
                               V21  TOT/SRF=     0.00000     0.00000
                               V21M TOT/SRF=     0.00000     0.00000

              0.02525    0.00000    0.00000        0.02525    0.00000    0.00000
              0.00000    0.50152    0.00000        0.00000    0.50152    0.00000
              0.00000    0.00000   -0.52677        0.00000    0.00000   -0.52677

         MAIN DIRECTIONS OF THE EFG   1.0000  0.0000  0.0000
                                      0.0000  1.0000  0.0000
                                      0.0000  0.0000  1.0000
:ANG001:  ANGLE WITH OLD X-AXIS =         0.0

:ETA001:                         ASYMM. ETA =     0.90415


     HELLMANN-FEYNMAN-FORCE IN mRy/a.u. = |F|  Fx       Fy             Fz
:FHF001:   1.ATOM    930.741231456052      0.000000000000      0.000000000000   -930.741231456052

:FIT001: LUSE= 13 SIGMA OF V-XC FIT FOR ATOM  1  0.6086288E-04
:FIT001: LUSE= 13 SIGMA OF V-XC FIT FOR ATOM  1  0.6086288E-04
:DEN  : DENSITY INTEGRAL  =        -14239.54011732   (Ry)
       ELS_POTENTIAL_AT Z=0 and Z=0.5:   1.04533   1.04533
       ELS_POTENTIAL_AT Y=0 and Y=0.5:  -0.04245  -0.04245
:VZERO:v0,v0c,v0x   0.27610   1.04533  -0.76923 v5,v5c,v5x   0.27610   1.04533  -0.76923
:VZERY:v0,v0c,v0x  -1.03417  -0.04245  -0.99172 v5,v5c,v5x  -1.03417  -0.04245  -0.99172
:VZERX:v0,v0c,v0x  -1.32111  -0.39445  -0.92666 v5,v5c,v5x  -1.32111  -0.39445  -0.92666
:LMAX-WF:   10   Non-Spherical LMAX:   4

          ATOMIC SPHERE DEPENDENT PARAMETERS FOR ATOM  Pr1       
:e__0001: OVERALL ENERGY PARAMETER IS    0.7000
          OVERALL BASIS SET ON ATOM IS LAPW
:E0_0001: E( 0)=    0.7000
             APW+lo
:E0_0001: E( 0)=   -1.3039   E(BOTTOM)=   -1.959   E(TOP)=   -0.649  4  5   245
             LOCAL ORBITAL
:E1_0001: E( 1)=    1.1000
             APW+lo
:E1_0001: E( 1)=    0.1553   E(BOTTOM)=   -0.826   E(TOP)=    1.137  3  4   257
             LOCAL ORBITAL
:E3_0001: E( 3)=    1.3790   E(BOTTOM)=    1.157   E(TOP)=    1.601  0  1   167
             APW+lo
:E2_0001: E( 2)=    0.8984   E(BOTTOM)=    0.898   E(TOP)= -200.000  2 -1   122
             APW+lo

       K=   0.06250   0.00000   0.06250            1
:RKM  : MATRIX SIZE   266LOs:  40  RKM= 8.47  WEIGHT= 4.00  PGR:    
       EIGENVALUES ARE:
:EIG00001:      -1.3831909   -1.2726492   -0.2438466    0.0866962    0.1632604
:EIG00006:       0.1874842    0.2135675    0.2220954    1.1102367    1.1679188
:EIG00011:       1.2646514    1.3005510    1.3035187    1.3068305    1.3385064
:EIG00016:       1.3804033    1.3924270    1.3971542    1.3987029    1.4070311
:EIG00021:       1.4133854    1.4217471    1.4329532    1.4666816    1.4704180
:EIG00026:       1.4899455    1.5383676    1.5557056    1.6294620    1.6766809
:EIG00031:       1.7473984    1.9348254    1.9937654    2.0481138    2.3343399
:EIG00036:       2.3797429
       ********************************************************

:KPT   :      NUMBER OF K-POINTS:   288
:GAP (global)   :    0.0    Ry =     0.0   eV (metal)
         Bandranges (emin - emax) and occupancy:
:BAN00005:   5   -0.125018    0.163260  2.00000000
:BAN00006:   6   -0.084658    0.206316  2.00000000
:BAN00007:   7   -0.014542    0.219561  2.00000000
:BAN00008:   8    0.115059    0.240354  2.00000000
:BAN00009:   9    0.995039    1.217959  2.00000000
:BAN00010:  10    1.053440    1.246822  2.00000000
:BAN00011:  11    1.113973    1.323591  2.00000000
:BAN00012:  12    1.189149    1.338751  1.97631791
:BAN00013:  13    1.258167    1.377005  1.34712764
:BAN00014:  14    1.292068    1.392437  0.64880061
:BAN00015:  15    1.321523    1.399645  0.02775384
:BAN00016:  16    1.342932    1.403824  0.00000000
:BAN00017:  17    1.377674    1.415989  0.00000000
:BAN00018:  18    1.386025    1.416747  0.00000000
:BAN00019:  19    1.392694    1.426872  0.00000000
:BAN00020:  20    1.399358    1.433039  0.00000000
        Energy to separate low and high energystates:    0.94504


:NOE  : NUMBER OF ELECTRONS          =   26.000

:FER  : F E R M I - ENERGY(TETRAH.M.)=   1.3328318633
:GMA  : POTENTIAL AND CHARGE CUT-OFF  12.00 Ry**.5

:POS001: ATOM   -1 X,Y,Z = 0.00000 0.89750 0.25000  MULT= 2  ZZ= 59.000  Pr1       

       LMMAX 16
       LM=   0 0  1 0  2 0  2 2  3 0  3 2  4 0  4 2  4 4  5 0  5 2  5 4  6 0  6 2  6 4  6 6

:CHA001: TOTAL VALENCE CHARGE INSIDE SPHERE   1 =   9.5545    (RMT=  2.3000 )
:PCS001: PARTIAL CHARGES SPHERE =  1 S,P,D,F,PX,PY,PZ,D-Z2,D-X2Y2,D-XY,D-XZ,D-YZ 
:QTL001: 1.9387 4.9529 1.1424 1.5147 1.6511 1.6453 1.6565 0.2272 0.2212 0.2228 0.2370 0.2343
        Q-s-low E-s-low   Q-p-low E-p-low   Q-d-low E-d-low   Q-f-low E-f-low
:EPL001:  1.8649 -1.2609    4.8184  0.0199    0.0370 -0.0370    0.0120 -0.0368
        Q-s-hi  E-s-hi    Q-p-hi  E-p-hi    Q-d-hi  E-d-hi    Q-f-hi  E-f-hi 
:EPH001:  0.0738  1.2072    0.1345  1.2219    1.1055  1.1893    1.5028  1.2743

                      VXX         VYY         VZZ       UP TO R
:VZZ001:            -1.67734     9.37701    -7.69968       2.300

:CHA  : TOTAL VALENCE CHARGE INSIDE UNIT CELL =      26.000000

:SUM  : SUM OF EIGENVALUES =           7.220917141


        1.ATOM      Pr1                  14 CORE STATES
       CORE-FORCE in mRy/a.u. = |F|      Fx             Fy             Fz
:FCO001:   1.ATOM    763.577717952372      0.000000000000      0.000000000000    763.577717952372

:1S 001: 1S               -3066.157653439 Ry
:2S 001: 2S                -491.922459820 Ry
:2PP001: 2P*               -465.020155105 Ry
:2P 001: 2P                -429.623319010 Ry
:3S 001: 3S                -105.019798975 Ry
:3PP001: 3P*                -93.557253767 Ry
:3P 001: 3P                 -86.549780161 Ry
:3DD001: 3D*                -66.476205062 Ry
:3D 001: 3D                 -64.964762686 Ry
:4S 001: 4S                 -19.701708125 Ry
:4PP001: 4P*                -15.408826800 Ry
:4P 001: 4P                 -13.881878134 Ry
:4DD001: 4D*                 -6.816622834 Ry
:4D 001: 4D                  -6.547496664 Ry
:CINT001 Core Integral Atom   1   45.998385

       DENSITY AT NUCLEUS
        JATOM        VALENCE       SEMI-CORE          CORE           TOTAL
:RTO001:   1      638.801383        0.000000   656821.269472   657460.070855
     
       CHARGES OF NEW CHARGE DENSITY
:NTO   : INTERSTITIAL CHARGE =     6.890942
:NPC   : PW Pseudocharge     =    18.197118
:NTO001: CHARGE SPHERE  1    =    55.552911

:NEC01: NUCLEAR AND ELECTRONIC CHARGE    118.00000   117.99676
     
       CHARGES OF OLD CHARGE DENSITY
:OTO   : INTERSTITIAL CHARGE =     6.009609
:OPC   : PW Pseudocharge     =    17.680526
:OTO001: CHARGE SPHERE  1    =    55.995195

:NEC02: NUCLEAR AND ELECTRONIC CHARGE    118.00000   118.00000
     
       CONVERGENCE TEST
:DTO001: DIFFERENCE IN SPHERE  1 =  0.8612315

:DIS  :  CHARGE DISTANCE       ( 0.8612315 for atom    1 spin 1)      0.8612315
 PW Mixed is          280
 
******************************************************
* MULTISECANT MIXING VER9 RELEASE 10.4.0              *
* Slow Mode, cautious                                *
* Fixed density scale                                *
* Regularization       1.000E-04                     *
* Step Trust Radius    0.75000                       *
* Trust Upper Limit    2.000E+00                     *
* Max Number of Memory Steps   12                    *
******************************************************
 
:PWTMP   1.5721E+02  1.9467E+02  2.5914E+02
:PLANE:  PW TOTAL      5.8148 DISTAN   2.73E-01  4.70E+00 %
:CHARG:  CLM/ATOM   1382.0456 DISTAN   1.26E+00  9.13E-02 %
 
Step History
        DMIX         DMIXT        Red     Pred      Trust     Lambda    MagRel    MagAbs     Beta
  1   3.5000E-02   3.5000E-02 -1.00E+00  1.00E+00 -1.00E+01  1.00E+00  3.50E-02  3.50E-02  1.00E+00
  2   2.5000E-02   2.5000E-02 -1.00E+00  1.00E+00 -1.00E+01  1.00E+00  2.50E-02  3.78E-02  1.00E+00
:JACOBIANS    6.694E-02   6.655E-02
  
:TRUST:  Step 5.35E-02  Charge 7.50E-02 (e) CTO  2.50E-01 (e) PW  3.50E-01 (e)
:DIRM :  MEMORY  1/12 SCALE   1.000
:MIX  :   PRATT  REGULARIZATION:  1.00E-04 GREED: 0.05354  Expand 2.14  0.0535 PW             
     
       CHARGES OF MIXED CHARGE DENSITY
:CTO   : INTERSTITIAL CHARGE =     6.068261
:CPC   : PW Pseudocharge     =    18.186234
:CTO001: CHARGE SPHERE  1    =    55.965869

:NEC03: NUCLEAR AND ELECTRONIC CHARGE    118.00000   118.00000

PW CHANGE     H    K    L      Current       Change    Residue
:PTO001:      0    0    0  9.35975576E-02  2.178E-03  5.440E-03
:PTO003:      0    2    0  2.00584631E-02  7.119E-04  1.483E-03
:PTO004:     -1    1    0  9.34729958E-02  3.221E-03  1.931E-03
:PTO005:      0    2   -1 -1.07602856E-01 -3.603E-03  5.094E-04
:PTO006:      0    0   -2 -5.57482830E-02 -1.854E-03  5.139E-04
:PTO007:     -1    1   -1 -1.10264328E-01 -3.726E-03  2.914E-03
:PTO008:      0    2   -2 -1.51956200E-02 -5.237E-04  1.171E-03
:PTO009:     -1    1   -2 -7.10717676E-02 -2.624E-03  3.356E-03
:PTO011:     -1    3    0 -9.39873869E-03 -3.753E-04  1.485E-04
:PTO012:     -1    3   -1 -3.73850561E-02 -1.518E-03  4.071E-06
:PTO013:      0    4    0 -5.89524578E-03 -2.362E-04 -6.984E-05
:PTO014:      0    2   -3  1.32566683E-02  5.759E-04  1.018E-03

:ENE  : ********** TOTAL ENERGY IN Ry =       -36944.40017811

       TOTAL FORCE IN mRy/a.u. = |F|     Fx             Fy             Fz     with/without FOR in case.in2
:FOR001:   1.ATOM        167.164          0.000          0.000       -167.164 partial forces
       TOTAL FORCE WITH RESPECT TO GLOBAL CARTESIAN COORDINATES:
:FCA001:   1.ATOM                         0.000       -167.164          0.000 partial forces
       TOTAL FORCE WITH RESPECT TO THE GLOBAL COORDINATE SYSTEM:
:FGL001:   1.ATOM                 0.000000000  -167.163513504     0.000000000 partial forces
 Flat Integration
 New Mode for Coulomb Integral
 Consistent 3/8+Simpson combinations
 Extension of core to zero
 LDM version in phi
 Fifth-order quadrature in outwin


            ---------
:ITE004:  4. ITERATION
            ---------

:NATO :    1 INDEPENDENT AND    2 TOTAL ATOMS IN UNITCELL
       SUBSTANCE: aU                                                          

       LATTICE                      = CXY 
:POT  : POTENTIAL OPTION EX_LDA EC_LDA VX_LDA VC_LDA
:LAT  : LATTICE CONSTANTS=  5.26305 10.68006  9.22032    1.571    1.571    1.571
:VOL  : UNIT CELL VOLUME =     259.13599
       MODE OF CALCULATION IS       = RELA
       NON-SPINPOLARIZED CALCULATION
:IFFT  : FFT-parameters:   48   90   72 Factor: 2.00


   CONVERGENCE PARAMETER FOR PSEUDOCHARGE: NCON=  9
   MAXIMAL VALUE OF RMT(JATOM)*ABSK(NKK) : RK  =27.59449


:VKCOUL :  VK-COUL convergence: 0.158E-06
       ATOMNUMBER=  1 Pr1        VCOUL-ZERO =  0.72905E+00
:EFG001:                        EFG         =     1.02224   *10**21  V / m**2
                               V20  TOT/SRF=    -0.86290    -0.08898
                               V22  TOT/SRF=    -0.52405     0.00988
                               V22M TOT/SRF=     0.00000     0.00000
                               V21  TOT/SRF=     0.00000     0.00000
                               V21M TOT/SRF=     0.00000     0.00000

             -0.02585    0.00000    0.00000       -0.02585    0.00000    0.00000
              0.00000    1.02224    0.00000        0.00000    1.02224    0.00000
              0.00000    0.00000   -0.99639        0.00000    0.00000   -0.99639

         MAIN DIRECTIONS OF THE EFG   1.0000  0.0000  0.0000
                                      0.0000  1.0000  0.0000
                                      0.0000  0.0000  1.0000
:ANG001:  ANGLE WITH OLD X-AXIS =         0.0

:ETA001:                         ASYMM. ETA =     0.94942


     HELLMANN-FEYNMAN-FORCE IN mRy/a.u. = |F|  Fx       Fy             Fz
:FHF001:   1.ATOM    917.556590978334      0.000000000000      0.000000000000   -917.556590978334

:FIT001: LUSE= 13 SIGMA OF V-XC FIT FOR ATOM  1  0.6412726E-04
:FIT001: LUSE= 13 SIGMA OF V-XC FIT FOR ATOM  1  0.6412726E-04
:DEN  : DENSITY INTEGRAL  =        -14234.19477883   (Ry)
       ELS_POTENTIAL_AT Z=0 and Z=0.5:   1.06258   1.06258
       ELS_POTENTIAL_AT Y=0 and Y=0.5:  -0.03875  -0.03875
:VZERO:v0,v0c,v0x   0.29104   1.06258  -0.77154 v5,v5c,v5x   0.29104   1.06258  -0.77154
:VZERY:v0,v0c,v0x  -1.03681  -0.03875  -0.99806 v5,v5c,v5x  -1.03681  -0.03875  -0.99806
:VZERX:v0,v0c,v0x  -1.33525  -0.40330  -0.93194 v5,v5c,v5x  -1.33525  -0.40330  -0.93194
:LMAX-WF:   10   Non-Spherical LMAX:   4

          ATOMIC SPHERE DEPENDENT PARAMETERS FOR ATOM  Pr1       
:e__0001: OVERALL ENERGY PARAMETER IS    0.9000
          OVERALL BASIS SET ON ATOM IS LAPW
:E0_0001: E( 0)=    0.9000
             APW+lo
:E0_0001: E( 0)=   -1.3139   E(BOTTOM)=   -1.964   E(TOP)=   -0.664  4  5   247
             LOCAL ORBITAL
:E1_0001: E( 1)=    1.3000
             APW+lo
:E1_0001: E( 1)=    0.1482   E(BOTTOM)=   -0.828   E(TOP)=    1.124  3  4   260
             LOCAL ORBITAL
:E3_0001: E( 3)=    1.3506   E(BOTTOM)=    1.135   E(TOP)=    1.566  0  1   144
             APW+lo
:E2_0001: E( 2)=    0.9000   E(BOTTOM)=    0.900   E(TOP)= -200.000  2 -1   111
             APW+lo

       K=   0.06250   0.00000   0.06250            1
:RKM  : MATRIX SIZE   266LOs:  40  RKM= 8.47  WEIGHT= 4.00  PGR:    
       EIGENVALUES ARE:
:EIG00001:      -1.3897099   -1.2811831   -0.2425464    0.0826359    0.1581709
:EIG00006:       0.1824853    0.2086456    0.2164663    1.1179099    1.1747238
:EIG00011:       1.2594916    1.2844995    1.2848928    1.2923903    1.3202851
:EIG00016:       1.3559090    1.3688353    1.3731673    1.3810026    1.3862303
:EIG00021:       1.3888542    1.3993214    1.4066965    1.4364038    1.4441478
:EIG00026:       1.4698695    1.5380679    1.5488835    1.6293170    1.6769273
:EIG00031:       1.7474243    1.9348723    1.9963824    2.0472374    2.3363550
:EIG00036:       2.3820485    2.4226608
       ********************************************************

:KPT   :      NUMBER OF K-POINTS:   288
:GAP (global)   :    0.0    Ry =     0.0   eV (metal)
         Bandranges (emin - emax) and occupancy:
:BAN00005:   5   -0.125597    0.158171  2.00000000
:BAN00006:   6   -0.085750    0.200998  2.00000000
:BAN00007:   7   -0.016786    0.213998  2.00000000
:BAN00008:   8    0.112473    0.234398  2.00000000
:BAN00009:   9    1.004229    1.216780  2.00000000
:BAN00010:  10    1.062001    1.243862  2.00000000
:BAN00011:  11    1.121180    1.311592  2.00000000
:BAN00012:  12    1.191071    1.318112  1.97947754
:BAN00013:  13    1.254012    1.351595  1.31326642
:BAN00014:  14    1.279517    1.370367  0.68523047
:BAN00015:  15    1.303919    1.373552  0.02202557
:BAN00016:  16    1.323971    1.378663  0.00000000
:BAN00017:  17    1.355003    1.389420  0.00000000
:BAN00018:  18    1.363830    1.390001  0.00000000
:BAN00019:  19    1.375508    1.398468  0.00000000
:BAN00020:  20    1.379969    1.407724  0.00000000
        Energy to separate low and high energystates:    0.95423


:NOE  : NUMBER OF ELECTRONS          =   26.000

:FER  : F E R M I - ENERGY(TETRAH.M.)=   1.3147487435
:GMA  : POTENTIAL AND CHARGE CUT-OFF  12.00 Ry**.5

:POS001: ATOM   -1 X,Y,Z = 0.00000 0.89750 0.25000  MULT= 2  ZZ= 59.000  Pr1       

       LMMAX 16
       LM=   0 0  1 0  2 0  2 2  3 0  3 2  4 0  4 2  4 4  5 0  5 2  5 4  6 0  6 2  6 4  6 6

:CHA001: TOTAL VALENCE CHARGE INSIDE SPHERE   1 =   9.7071    (RMT=  2.3000 )
:PCS001: PARTIAL CHARGES SPHERE =  1 S,P,D,F,PX,PY,PZ,D-Z2,D-X2Y2,D-XY,D-XZ,D-YZ 
:QTL001: 1.9337 4.9540 1.0636 1.7505 1.6520 1.6459 1.6561 0.2094 0.2009 0.2102 0.2221 0.2208
        Q-s-low E-s-low   Q-p-low E-p-low   Q-d-low E-d-low   Q-f-low E-f-low
:EPL001:  1.8671 -1.2698    4.8367  0.0173    0.0359 -0.0396    0.0118 -0.0395
        Q-s-hi  E-s-hi    Q-p-hi  E-p-hi    Q-d-hi  E-d-hi    Q-f-hi  E-f-hi 
:EPH001:  0.0667  1.2027    0.1173  1.2161    1.0276  1.1850    1.7387  1.2632

                      VXX         VYY         VZZ       UP TO R
:VZZ001:            -3.23654     9.08005    -5.84351       2.300

:CHA  : TOTAL VALENCE CHARGE INSIDE UNIT CELL =      26.000000

:SUM  : SUM OF EIGENVALUES =           7.131387362


        1.ATOM      Pr1                  14 CORE STATES
       CORE-FORCE in mRy/a.u. = |F|      Fx             Fy             Fz
:FCO001:   1.ATOM    770.734488756779      0.000000000000      0.000000000000    770.734488756779

:1S 001: 1S               -3066.225308371 Ry
:2S 001: 2S                -491.988773819 Ry
:2PP001: 2P*               -465.086644154 Ry
:2P 001: 2P                -429.689731242 Ry
:3S 001: 3S                -105.083475348 Ry
:3PP001: 3P*                -93.621144521 Ry
:3P 001: 3P                 -86.613325295 Ry
:3DD001: 3D*                -66.540366824 Ry
:3D 001: 3D                 -65.028835238 Ry
:4S 001: 4S                 -19.749192268 Ry
:4PP001: 4P*                -15.455321982 Ry
:4P 001: 4P                 -13.926835200 Ry
:4DD001: 4D*                 -6.858809180 Ry
:4D 001: 4D                  -6.589152520 Ry
:CINT001 Core Integral Atom   1   45.998428

       DENSITY AT NUCLEUS
        JATOM        VALENCE       SEMI-CORE          CORE           TOTAL
:RTO001:   1      638.582009        0.000000   656824.852029   657463.434037
     
       CHARGES OF NEW CHARGE DENSITY
:NTO   : INTERSTITIAL CHARGE =     6.585698
:NPC   : PW Pseudocharge     =    18.027660
:NTO001: CHARGE SPHERE  1    =    55.705575

:NEC01: NUCLEAR AND ELECTRONIC CHARGE    118.00000   117.99685
     
       CHARGES OF OLD CHARGE DENSITY
:OTO   : INTERSTITIAL CHARGE =     6.068261
:OPC   : PW Pseudocharge     =    18.186234
:OTO001: CHARGE SPHERE  1    =    55.965869

:NEC02: NUCLEAR AND ELECTRONIC CHARGE    118.00000   118.00000
     
       CONVERGENCE TEST
:DTO001: DIFFERENCE IN SPHERE  1 =  0.5071927

:DIS  :  CHARGE DISTANCE       ( 0.5071927 for atom    1 spin 1)      0.5071927
 PW Mixed is          280
 
******************************************************
* MULTISECANT MIXING VER9 RELEASE 10.4.0              *
* Standard Mode with controls                        *
* Fixed density scale                                *
* Regularization       1.000E-04                     *
* Trust Upper Limit    5.000E+00                     *
* Max Number of Memory Steps    8                    *
******************************************************
 
:PWTMP   1.5721E+02  1.9467E+02  2.5914E+02
:PLANE:  PW TOTAL      5.9900 DISTAN   2.12E-01  3.54E+00 %
:CHARG:  CLM/ATOM   1382.0317 DISTAN   8.02E-01  5.80E-02 %
 
Step History
        DMIX         DMIXT        Red     Pred      Trust     Lambda    MagRel    MagAbs     Beta
  1   3.5000E-02   3.5000E-02 -1.00E+00  1.00E+00 -1.00E+01  1.00E+00  3.50E-02  3.50E-02  1.00E+00
  2   2.5000E-02   2.5000E-02  8.55E-01  1.00E+00 -1.00E+01  1.00E+00  2.50E-02  3.78E-02  1.00E+00
  3   5.3541E-02   5.3541E-02 -1.00E+00  1.00E+00 -1.00E+01  1.00E+00  5.35E-02  6.92E-02  1.00E+00
:JACOBIANS    1.013E-01   9.722E-02
  
:NORMS:  1/Froebius, Min, Max, Used   0.3554E+00  0.2079E+00  0.4158E+00  0.3554E+00
:INFO :  Number of Memory Steps    2 Skipping    0
:INFO :  SLambda=    2.8274755503  Max    2.8274755503
:PREDicted Charge, CTotal, PW Trust    5.564E-02   1.113E-01   6.495E-01
:PREDicted DMix, Beta, BLim   1.3620E-01  1.5265E+00  1.1609E+00

Eigenvalues, unscaled except for SY+YY
   #     SY Real        SY Imag          SS             YY         SY+YY Real      SY+YY Imag
   1   5.032349E-01   0.000000E+00   2.526518E-01   1.999951E+00   3.422822E+00   0.000000E+00
   2   8.604228E-15   0.000000E+00   1.387779E-17   4.927785E-05   6.264583E-05   0.000000E+00
 
:INFO :  Singular value  3.423E+00 Weight  1.000E+00 Projection -3.281E-01
:INFO :  Singular value  6.265E-05 Weight  8.935E-02 Projection -1.663E+00
:RANK :  ACTIVE   1.09/2  =  54.47 % ; YY RANK   1.06/2  =  52.86 %
 
Increasing PW by   1.596
:BLIM :  VZERO Control Off
:TRUST:  Step 3.73E-01  Charge 7.50E-02 (e) CTO  2.50E-01 (e) PW  6.15E-01 (e)
:DIRM :  MEMORY  2/8  SCALE   1.000 RED  0.64 PRED  1.00 NEXT  0.73 
:TRAVE:  Charge 3.33E-02 (e) CTO  6.66E-02 (e) PW  2.47E-01 (e)
:DIRP :  |MSR1|= 1.225E-01 |PRATT|= 2.121E-01 ANGLE= 113.0 DEGREES
:DIRQ :  |MSR1|= 1.038E-01 |PRATT|= 8.018E-01 ANGLE=   1.8 DEGREES
:DIRT :  |MSR1|= 1.606E-01 |PRATT|= 8.294E-01 ANGLE=  56.7 DEGREES
:MIX  :   MSE1   REGULARIZATION:  2.00E-04 GREED: 0.08898  Newton 1.00  0.1936                
     
       CHARGES OF MIXED CHARGE DENSITY
:CTO   : INTERSTITIAL CHARGE =     6.134870
:CPC   : PW Pseudocharge     =    18.527484
:CTO001: CHARGE SPHERE  1    =    55.932565

:NEC03: NUCLEAR AND ELECTRONIC CHARGE    118.00000   118.00000

PW CHANGE     H    K    L      Current       Change    Residue
:PTO001:      0    0    0  9.51714750E-02  1.574E-03  1.430E-03
:PTO003:      0    2    0  2.06616145E-02  6.032E-04  8.784E-04
:PTO004:     -1    1    0  9.57340080E-02  2.261E-03 -1.037E-03
:PTO005:      0    2   -1 -1.09869544E-01 -2.267E-03  4.019E-03
:PTO006:      0    0   -2 -5.68948291E-02 -1.147E-03  2.301E-03
:PTO007:     -1    1   -1 -1.12432033E-01 -2.168E-03  6.288E-03
:PTO008:      0    2   -2 -1.54190855E-02 -2.235E-04  1.726E-03
:PTO009:     -1    1   -2 -7.24887025E-02 -1.417E-03  5.693E-03
:PTO011:     -1    3    0 -9.62877861E-03 -2.300E-04  4.905E-04
:PTO012:     -1    3   -1 -3.83781613E-02 -9.931E-04  1.330E-03
:PTO013:      0    4    0 -6.04871360E-03 -1.535E-04  1.876E-04
:PTO014:      0    2   -3  1.37064038E-02  4.497E-04  3.906E-04

:ENE  : ********** TOTAL ENERGY IN Ry =       -36944.35122834

       TOTAL FORCE IN mRy/a.u. = |F|     Fx             Fy             Fz     with/without FOR in case.in2
:FOR001:   1.ATOM        146.822          0.000          0.000       -146.822 partial forces
       TOTAL FORCE WITH RESPECT TO GLOBAL CARTESIAN COORDINATES:
:FCA001:   1.ATOM                         0.000       -146.822          0.000 partial forces
       TOTAL FORCE WITH RESPECT TO THE GLOBAL COORDINATE SYSTEM:
:FGL001:   1.ATOM                 0.000000000  -146.822102222     0.000000000 partial forces
 Flat Integration
 New Mode for Coulomb Integral
 Consistent 3/8+Simpson combinations
 Extension of core to zero
 LDM version in phi
 Fifth-order quadrature in outwin


            ---------
:ITE005:  5. ITERATION
            ---------

:NATO :    1 INDEPENDENT AND    2 TOTAL ATOMS IN UNITCELL
       SUBSTANCE: aU                                                          

       LATTICE                      = CXY 
:POT  : POTENTIAL OPTION EX_LDA EC_LDA VX_LDA VC_LDA
:LAT  : LATTICE CONSTANTS=  5.26305 10.68006  9.22032    1.571    1.571    1.571
:VOL  : UNIT CELL VOLUME =     259.13599
       MODE OF CALCULATION IS       = RELA
       NON-SPINPOLARIZED CALCULATION
:IFFT  : FFT-parameters:   48   90   72 Factor: 2.00


   CONVERGENCE PARAMETER FOR PSEUDOCHARGE: NCON=  9
   MAXIMAL VALUE OF RMT(JATOM)*ABSK(NKK) : RK  =27.59449


:VKCOUL :  VK-COUL convergence: 0.179E-06
       ATOMNUMBER=  1 Pr1        VCOUL-ZERO =  0.74028E+00
:EFG001:                        EFG         =     2.09459   *10**21  V / m**2
                               V20  TOT/SRF=    -1.42605    -0.08588
                               V22  TOT/SRF=    -1.27126     0.00390
                               V22M TOT/SRF=     0.00000     0.00000
                               V21  TOT/SRF=     0.00000     0.00000
                               V21M TOT/SRF=     0.00000     0.00000

             -0.44793    0.00000    0.00000       -0.44793    0.00000    0.00000
              0.00000    2.09459    0.00000        0.00000    2.09459    0.00000
              0.00000    0.00000   -1.64666        0.00000    0.00000   -1.64666

         MAIN DIRECTIONS OF THE EFG   1.0000  0.0000  0.0000
                                      0.0000  1.0000  0.0000
                                      0.0000  0.0000  1.0000
:ANG001:  ANGLE WITH OLD X-AXIS =         0.0

:ETA001:                         ASYMM. ETA =     0.57230


     HELLMANN-FEYNMAN-FORCE IN mRy/a.u. = |F|  Fx       Fy             Fz
:FHF001:   1.ATOM    882.825439324899      0.000000000000      0.000000000000   -882.825439324899

:FIT001: LUSE= 13 SIGMA OF V-XC FIT FOR ATOM  1  0.7262993E-04
:FIT001: LUSE= 13 SIGMA OF V-XC FIT FOR ATOM  1  0.7262993E-04
:DEN  : DENSITY INTEGRAL  =        -14227.81589206   (Ry)
       ELS_POTENTIAL_AT Z=0 and Z=0.5:   1.07785   1.07785
       ELS_POTENTIAL_AT Y=0 and Y=0.5:  -0.03369  -0.03369
:VZERO:v0,v0c,v0x   0.30369   1.07785  -0.77415 v5,v5c,v5x   0.30369   1.07785  -0.77415
:VZERY:v0,v0c,v0x  -1.03702  -0.03369  -1.00333 v5,v5c,v5x  -1.03702  -0.03369  -1.00333
:VZERX:v0,v0c,v0x  -1.34583  -0.40958  -0.93625 v5,v5c,v5x  -1.34583  -0.40958  -0.93625
:LMAX-WF:   10   Non-Spherical LMAX:   4

          ATOMIC SPHERE DEPENDENT PARAMETERS FOR ATOM  Pr1       
:e__0001: OVERALL ENERGY PARAMETER IS    1.1000
          OVERALL BASIS SET ON ATOM IS LAPW
:E0_0001: E( 0)=    1.1000
             APW+lo
:E0_0001: E( 0)=   -1.3305   E(BOTTOM)=   -1.975   E(TOP)=   -0.686  4  5   246
             LOCAL ORBITAL
:E1_0001: E( 1)=    1.5000
             APW+lo
:E1_0001: E( 1)=    0.1348   E(BOTTOM)=   -0.835   E(TOP)=    1.104  3  4   258
             LOCAL ORBITAL
:E3_0001: E( 3)=    1.3131   E(BOTTOM)=    1.104   E(TOP)=    1.522  0  1   121
             APW+lo
:E2_0001: E( 2)=    1.1000   E(BOTTOM)=    0.896   E(TOP)= -200.000  2 -1   119
             APW+lo

       K=   0.06250   0.00000   0.06250            1
:RKM  : MATRIX SIZE   266LOs:  40  RKM= 8.47  WEIGHT= 4.00  PGR:    
       EIGENVALUES ARE:
:EIG00001:      -1.4023770   -1.2963289   -0.2452753    0.0719930    0.1463538
:EIG00006:       0.1715328    0.1984250    0.2046359    1.1211456    1.1771236
:EIG00011:       1.2444710    1.2577771    1.2583505    1.2686823    1.2940288
:EIG00016:       1.3227056    1.3349604    1.3394224    1.3463269    1.3542663
:EIG00021:       1.3622424    1.3680269    1.3710042    1.3971213    1.4122835
:EIG00026:       1.4495925    1.5345212    1.5396138    1.6251364    1.6725281
:EIG00031:       1.7434570    1.9301389    1.9948146    2.0415605    2.3340615
:EIG00036:       2.3801650    2.4218954    2.6907793    2.7021957
       ********************************************************

:KPT   :      NUMBER OF K-POINTS:   288
:GAP (global)   :    0.0    Ry =     0.0   eV (metal)
         Bandranges (emin - emax) and occupancy:
:BAN00005:   5   -0.130234    0.146354  2.00000000
:BAN00006:   6   -0.092458    0.189692  2.00000000
:BAN00007:   7   -0.024994    0.202349  2.00000000
:BAN00008:   8    0.104500    0.222206  2.00000000
:BAN00009:   9    1.009704    1.207925  2.00000000
:BAN00010:  10    1.066401    1.233208  2.00000000
:BAN00011:  11    1.123675    1.286763  2.00000000
:BAN00012:  12    1.186571    1.292757  1.97640052
:BAN00013:  13    1.241181    1.321776  1.26710108
:BAN00014:  14    1.257621    1.337885  0.73415132
:BAN00015:  15    1.277875    1.340303  0.02234708
:BAN00016:  16    1.295370    1.343337  0.00000000
:BAN00017:  17    1.322016    1.353967  0.00000000
:BAN00018:  18    1.331528    1.356862  0.00000000
:BAN00019:  19    1.343356    1.367068  0.00000000
:BAN00020:  20    1.347460    1.372105  0.00000000
        Energy to separate low and high energystates:    0.95970


:NOE  : NUMBER OF ELECTRONS          =   26.000

:FER  : F E R M I - ENERGY(TETRAH.M.)=   1.2879796677
:GMA  : POTENTIAL AND CHARGE CUT-OFF  12.00 Ry**.5

:POS001: ATOM   -1 X,Y,Z = 0.00000 0.89750 0.25000  MULT= 2  ZZ= 59.000  Pr1       

       LMMAX 16
       LM=   0 0  1 0  2 0  2 2  3 0  3 2  4 0  4 2  4 4  5 0  5 2  5 4  6 0  6 2  6 4  6 6

:CHA001: TOTAL VALENCE CHARGE INSIDE SPHERE   1 =   9.8967    (RMT=  2.3000 )
:PCS001: PARTIAL CHARGES SPHERE =  1 S,P,D,F,PX,PY,PZ,D-Z2,D-X2Y2,D-XY,D-XZ,D-YZ 
:QTL001: 1.9271 4.9546 0.9667 2.0434 1.6529 1.6466 1.6550 0.1894 0.1769 0.1950 0.2015 0.2037
        Q-s-low E-s-low   Q-p-low E-p-low   Q-d-low E-d-low   Q-f-low E-f-low
:EPL001:  1.8695 -1.2854    4.8575  0.0091    0.0348 -0.0470    0.0116 -0.0469
        Q-s-hi  E-s-hi    Q-p-hi  E-p-hi    Q-d-hi  E-d-hi    Q-f-hi  E-f-hi 
:EPH001:  0.0577  1.1911    0.0971  1.2024    0.9319  1.1745    2.0318  1.2432

                      VXX         VYY         VZZ       UP TO R
:VZZ001:            -3.97937     8.28640    -4.30703       2.300

:CHA  : TOTAL VALENCE CHARGE INSIDE UNIT CELL =      26.000000

:SUM  : SUM OF EIGENVALUES =           6.873942719


        1.ATOM      Pr1                  14 CORE STATES
       CORE-FORCE in mRy/a.u. = |F|      Fx             Fy             Fz
:FCO001:   1.ATOM    785.402765976722      0.000000000000      0.000000000000    785.402765976722

:1S 001: 1S               -3066.302243213 Ry
:2S 001: 2S                -492.063837259 Ry
:2PP001: 2P*               -465.161855144 Ry
:2P 001: 2P                -429.764864587 Ry
:3S 001: 3S                -105.156996590 Ry
:3PP001: 3P*                -93.694828463 Ry
:3P 001: 3P                 -86.686712357 Ry
:3DD001: 3D*                -66.614161096 Ry
:3D 001: 3D                 -65.102561132 Ry
:4S 001: 4S                 -19.806903886 Ry
:4PP001: 4P*                -15.512002805 Ry
:4P 001: 4P                 -13.981938432 Ry
:4DD001: 4D*                 -6.910969884 Ry
:4D 001: 4D                  -6.640759996 Ry
:CINT001 Core Integral Atom   1   45.998474

       DENSITY AT NUCLEUS
        JATOM        VALENCE       SEMI-CORE          CORE           TOTAL
:RTO001:   1      637.928860        0.000000   656828.443460   657466.372320
     
       CHARGES OF NEW CHARGE DENSITY
:NTO   : INTERSTITIAL CHARGE =     6.206639
:NPC   : PW Pseudocharge     =    17.816443
:NTO001: CHARGE SPHERE  1    =    55.895151

:NEC01: NUCLEAR AND ELECTRONIC CHARGE    118.00000   117.99694
     
       CHARGES OF OLD CHARGE DENSITY
:OTO   : INTERSTITIAL CHARGE =     6.134870
:OPC   : PW Pseudocharge     =    18.527484
:OTO001: CHARGE SPHERE  1    =    55.932565

:NEC02: NUCLEAR AND ELECTRONIC CHARGE    118.00000   118.00000
     
       CONVERGENCE TEST
:DTO001: DIFFERENCE IN SPHERE  1 =  0.1608764

:DIS  :  CHARGE DISTANCE       ( 0.1608764 for atom    1 spin 1)      0.1608764
 PW Mixed is          280
 
******************************************************
* MULTISECANT MIXING VER9 RELEASE 10.4.0              *
* Standard Mode with controls                        *
* Fixed density scale                                *
* Regularization       1.000E-04                     *
* Trust Upper Limit    5.000E+00                     *
* Max Number of Memory Steps    8                    *
******************************************************
 
:PWTMP   1.5721E+02  1.9467E+02  2.5914E+02
:PLANE:  PW TOTAL      6.1076 DISTAN   2.92E-01  4.77E+00 %
:CHARG:  CLM/ATOM   1382.0127 DISTAN   4.12E-01  2.98E-02 %
 
Step History
        DMIX         DMIXT        Red     Pred      Trust     Lambda    MagRel    MagAbs     Beta
  1   3.5000E-02   3.5000E-02 -1.00E+00  1.00E+00 -1.00E+01  1.00E+00  3.50E-02  3.50E-02  1.00E+00
  2   2.5000E-02   2.5000E-02  8.55E-01  1.00E+00 -1.00E+01  1.00E+00  2.50E-02  3.78E-02  1.00E+00
  3   5.3541E-02   5.3541E-02  6.42E-01  1.00E+00 -1.00E+01  2.83E+00  5.35E-02  6.92E-02  1.00E+00
  4   8.8985E-02   8.8985E-02 -1.00E+00  7.35E-01  3.73E-01  1.00E+00  1.94E-01  1.61E-01  1.00E+00
:JACOBIANS    3.787E-01   1.683E-01
  
:NORMS:  1/Froebius, Min, Max, Used   0.2796E+00  0.2788E+00  0.7692E+00  0.2901E+00
:INFO :  Number of Memory Steps    3 Skipping    0
:INFO :  SLambda=    1.2180288510  Max    1.2180288510
:PREDicted Charge, CTotal, PW Trust    2.915E-02   5.829E-02   3.441E-01
:PREDicted DMix, Beta, BLim   2.1363E-01  8.2254E-02  8.2824E-01

Eigenvalues, unscaled except for SY+YY
   #     SY Real        SY Imag          SS             YY         SY+YY Real      SY+YY Imag
   1   5.901891E-01   0.000000E+00   2.326995E-01   2.993903E+00   3.711826E+00   0.000000E+00
   2   1.970941E-15   0.000000E+00   1.868289E-03   6.085720E-03   1.245720E-05   0.000000E+00
   3   3.294476E-03   0.000000E+00   8.063399E-18   1.134188E-05   1.104198E-02   0.000000E+00
 
:INFO :  Singular value  3.712E+00 Weight  1.000E+00 Projection  2.970E-02
:INFO :  Singular value  1.104E-02 Weight  9.993E-01 Projection -5.492E+00
:INFO :  Singular value  1.246E-05 Weight  1.728E-03 Projection  7.107E-02
:RANK :  ACTIVE   2.00/3  =  66.70 % ; YY RANK   2.00/3  =  66.63 %
 
:DLIM :  Beta Active  8.000E-01
:BLIM :  VZERO Control Off
:TRUST:  Step 6.01E-01  Charge 7.50E-02 (e) CTO  2.50E-01 (e) PW  6.15E-01 (e)
:DIRM :  MEMORY  3/8  SCALE   1.000 RED  0.61 PRED  0.73 NEXT  0.61 BETA  0.80
:TRAVE:  Charge 1.82E-02 (e) CTO  3.64E-02 (e) PW  3.34E-01 (e)
:DIRP :  |MSR1|= 2.596E-01 |PRATT|= 2.916E-01 ANGLE=  13.7 DEGREES
:DIRQ :  |MSR1|= 1.247E-01 |PRATT|= 4.120E-01 ANGLE=  20.8 DEGREES
:DIRT :  |MSR1|= 2.880E-01 |PRATT|= 5.047E-01 ANGLE=  33.2 DEGREES
:MIX  :   MSE1   REGULARIZATION:  2.99E-04 GREED: 0.13950  Newton 1.00  0.5707                
     
       CHARGES OF MIXED CHARGE DENSITY
:CTO   : INTERSTITIAL CHARGE =     6.128708
:CPC   : PW Pseudocharge     =    17.841012
:CTO001: CHARGE SPHERE  1    =    55.935646

:NEC03: NUCLEAR AND ELECTRONIC CHARGE    118.00000   118.00000

PW CHANGE     H    K    L      Current       Change    Residue
:PTO001:      0    0    0  9.24986139E-02 -2.673E-03 -2.421E-03
:PTO003:      0    2    0  2.00787489E-02 -5.829E-04  2.388E-04
:PTO004:     -1    1    0  9.16326315E-02 -4.101E-03 -3.274E-03
:PTO005:      0    2   -1 -1.04575441E-01  5.294E-03  6.043E-03
:PTO006:      0    0   -2 -5.41498929E-02  2.745E-03  3.213E-03
:PTO007:     -1    1   -1 -1.06264918E-01  6.167E-03  7.982E-03
:PTO008:      0    2   -2 -1.42198841E-02  1.199E-03  2.019E-03
:PTO009:     -1    1   -2 -6.77525691E-02  4.736E-03  6.707E-03
:PTO011:     -1    3    0 -9.04858581E-03  5.802E-04  6.775E-04
:PTO012:     -1    3   -1 -3.61568177E-02  2.221E-03  2.261E-03
:PTO013:      0    4    0 -5.72392744E-03  3.248E-04  3.481E-04
:PTO014:      0    2   -3  1.31598259E-02 -5.466E-04 -1.321E-04

:ENE  : ********** TOTAL ENERGY IN Ry =       -36944.32564317

       TOTAL FORCE IN mRy/a.u. = |F|     Fx             Fy             Fz     with/without FOR in case.in2
:FOR001:   1.ATOM         97.423          0.000          0.000        -97.423 partial forces
       TOTAL FORCE WITH RESPECT TO GLOBAL CARTESIAN COORDINATES:
:FCA001:   1.ATOM                         0.000        -97.423          0.000 partial forces
       TOTAL FORCE WITH RESPECT TO THE GLOBAL COORDINATE SYSTEM:
:FGL001:   1.ATOM                 0.000000000   -97.422673348     0.000000000 partial forces
 Flat Integration
 New Mode for Coulomb Integral
 Consistent 3/8+Simpson combinations
 Extension of core to zero
 LDM version in phi
 Fifth-order quadrature in outwin


            ---------
:ITE006:  6. ITERATION
            ---------

:NATO :    1 INDEPENDENT AND    2 TOTAL ATOMS IN UNITCELL
       SUBSTANCE: aU                                                          

       LATTICE                      = CXY 
:POT  : POTENTIAL OPTION EX_LDA EC_LDA VX_LDA VC_LDA
:LAT  : LATTICE CONSTANTS=  5.26305 10.68006  9.22032    1.571    1.571    1.571
:VOL  : UNIT CELL VOLUME =     259.13599
       MODE OF CALCULATION IS       = RELA
       NON-SPINPOLARIZED CALCULATION
:IFFT  : FFT-parameters:   48   90   72 Factor: 2.00


   CONVERGENCE PARAMETER FOR PSEUDOCHARGE: NCON=  9
   MAXIMAL VALUE OF RMT(JATOM)*ABSK(NKK) : RK  =27.59449


:VKCOUL :  VK-COUL convergence: 0.206E-06
       ATOMNUMBER=  1 Pr1        VCOUL-ZERO =  0.72724E+00
:EFG001:                        EFG         =     3.77332   *10**21  V / m**2
                               V20  TOT/SRF=    -2.22271    -0.07871
                               V22  TOT/SRF=    -2.49004    -0.00294
                               V22M TOT/SRF=     0.00000     0.00000
                               V21  TOT/SRF=     0.00000     0.00000
                               V21M TOT/SRF=     0.00000     0.00000

             -1.20676    0.00000    0.00000       -1.20676    0.00000    0.00000
              0.00000    3.77332    0.00000        0.00000    3.77332    0.00000
              0.00000    0.00000   -2.56656        0.00000    0.00000   -2.56656

         MAIN DIRECTIONS OF THE EFG   1.0000  0.0000  0.0000
                                      0.0000  1.0000  0.0000
                                      0.0000  0.0000  1.0000
:ANG001:  ANGLE WITH OLD X-AXIS =         0.0

:ETA001:                         ASYMM. ETA =     0.36037


     HELLMANN-FEYNMAN-FORCE IN mRy/a.u. = |F|  Fx       Fy             Fz
:FHF001:   1.ATOM    914.392552140931      0.000000000000      0.000000000000   -914.392552140931

:FIT001: LUSE= 13 SIGMA OF V-XC FIT FOR ATOM  1  0.9014079E-04
:FIT001: LUSE= 13 SIGMA OF V-XC FIT FOR ATOM  1  0.9014079E-04
:DEN  : DENSITY INTEGRAL  =        -14227.88231156   (Ry)
       ELS_POTENTIAL_AT Z=0 and Z=0.5:   1.06338   1.06338
       ELS_POTENTIAL_AT Y=0 and Y=0.5:  -0.03023  -0.03023
:VZERO:v0,v0c,v0x   0.28991   1.06338  -0.77346 v5,v5c,v5x   0.28991   1.06338  -0.77346
:VZERY:v0,v0c,v0x  -1.02809  -0.03023  -0.99786 v5,v5c,v5x  -1.02809  -0.03023  -0.99786
:VZERX:v0,v0c,v0x  -1.32950  -0.39801  -0.93149 v5,v5c,v5x  -1.32950  -0.39801  -0.93149
:LMAX-WF:   10   Non-Spherical LMAX:   4

          ATOMIC SPHERE DEPENDENT PARAMETERS FOR ATOM  Pr1       
:e__0001: OVERALL ENERGY PARAMETER IS    1.0920
          OVERALL BASIS SET ON ATOM IS LAPW
:E0_0001: E( 0)=    1.0920
             APW+lo
:E0_0001: E( 0)=   -1.3442   E(BOTTOM)=   -1.989   E(TOP)=   -0.700  4  5   241
             LOCAL ORBITAL
:E1_0001: E( 1)=    1.4920
             APW+lo
:E1_0001: E( 1)=    0.1210   E(BOTTOM)=   -0.849   E(TOP)=    1.091  3  4   247
             LOCAL ORBITAL
:E3_0001: E( 3)=    1.3039   E(BOTTOM)=    1.094   E(TOP)=    1.514  0  1   119
             APW+lo
:E2_0001: E( 2)=    1.0920   E(BOTTOM)=    0.882   E(TOP)= -200.000  2 -1   121
             APW+lo

       K=   0.06250   0.00000   0.06250            1
:RKM  : MATRIX SIZE   266LOs:  40  RKM= 8.47  WEIGHT= 4.00  PGR:    
       EIGENVALUES ARE:
:EIG00001:      -1.4158835   -1.3103208   -0.2569133    0.0560295    0.1304744
:EIG00006:       0.1580152    0.1857714    0.1906834    1.1061511    1.1622415
:EIG00011:       1.2344298    1.2458180    1.2483695    1.2601551    1.2839515
:EIG00016:       1.3135881    1.3256611    1.3305308    1.3373594    1.3430470
:EIG00021:       1.3529885    1.3559324    1.3604701    1.3881450    1.4016281
:EIG00026:       1.4388260    1.5196507    1.5278118    1.6103956    1.6575003
:EIG00031:       1.7302112    1.9164354    1.9813688    2.0289380    2.3196545
:EIG00036:       2.3659948    2.4064004    2.6757092    2.6894006
       ********************************************************

:KPT   :      NUMBER OF K-POINTS:   288
:GAP (global)   :    0.0    Ry =     0.0   eV (metal)
         Bandranges (emin - emax) and occupancy:
:BAN00005:   5   -0.141106    0.130474  2.00000000
:BAN00006:   6   -0.107098    0.176222  2.00000000
:BAN00007:   7   -0.039794    0.188693  2.00000000
:BAN00008:   8    0.090500    0.208288  2.00000000
:BAN00009:   9    0.995998    1.196994  2.00000000
:BAN00010:  10    1.051644    1.221895  2.00000000
:BAN00011:  11    1.108733    1.277036  2.00000000
:BAN00012:  12    1.174709    1.283479  1.96681520
:BAN00013:  13    1.229474    1.310340  1.26195389
:BAN00014:  14    1.248129    1.327086  0.74154449
:BAN00015:  15    1.266310    1.329216  0.02968641
:BAN00016:  16    1.283729    1.332769  0.00000000
:BAN00017:  17    1.311997    1.345130  0.00000000
:BAN00018:  18    1.321423    1.347874  0.00000000
:BAN00019:  19    1.333066    1.358012  0.00000000
:BAN00020:  20    1.337392    1.361523  0.00000000
        Energy to separate low and high energystates:    0.94600


:NOE  : NUMBER OF ELECTRONS          =   26.000

:FER  : F E R M I - ENERGY(TETRAH.M.)=   1.2774062439
:GMA  : POTENTIAL AND CHARGE CUT-OFF  12.00 Ry**.5

:POS001: ATOM   -1 X,Y,Z = 0.00000 0.89750 0.25000  MULT= 2  ZZ= 59.000  Pr1       

       LMMAX 16
       LM=   0 0  1 0  2 0  2 2  3 0  3 2  4 0  4 2  4 4  5 0  5 2  5 4  6 0  6 2  6 4  6 6

:CHA001: TOTAL VALENCE CHARGE INSIDE SPHERE   1 =   9.8671    (RMT=  2.3000 )
:PCS001: PARTIAL CHARGES SPHERE =  1 S,P,D,F,PX,PY,PZ,D-Z2,D-X2Y2,D-XY,D-XZ,D-YZ 
:QTL001: 1.9285 4.9571 0.9801 1.9965 1.6536 1.6471 1.6564 0.1932 0.1775 0.1981 0.2041 0.2073
        Q-s-low E-s-low   Q-p-low E-p-low   Q-d-low E-d-low   Q-f-low E-f-low
:EPL001:  1.8693 -1.2991    4.8567 -0.0048    0.0346 -0.0582    0.0115 -0.0584
        Q-s-hi  E-s-hi    Q-p-hi  E-p-hi    Q-d-hi  E-d-hi    Q-f-hi  E-f-hi 
:EPH001:  0.0592  1.1787    0.1004  1.1906    0.9454  1.1622    1.9851  1.2323

                      VXX         VYY         VZZ       UP TO R
:VZZ001:            -2.25342     9.22128    -6.96786       2.300

:CHA  : TOTAL VALENCE CHARGE INSIDE UNIT CELL =      26.000000

:SUM  : SUM OF EIGENVALUES =           6.528878115


        1.ATOM      Pr1                  14 CORE STATES
       CORE-FORCE in mRy/a.u. = |F|      Fx             Fy             Fz
:FCO001:   1.ATOM    894.443034413822      0.000000000000      0.000000000000    894.443034413822

:1S 001: 1S               -3066.291112344 Ry
:2S 001: 2S                -492.050517001 Ry
:2PP001: 2P*               -465.148498812 Ry
:2P 001: 2P                -429.751483123 Ry
:3S 001: 3S                -105.148408550 Ry
:3PP001: 3P*                -93.685964413 Ry
:3P 001: 3P                 -86.678206387 Ry
:3DD001: 3D*                -66.604585198 Ry
:3D 001: 3D                 -65.093102999 Ry
:4S 001: 4S                 -19.809913348 Ry
:4PP001: 4P*                -15.515495491 Ry
:4P 001: 4P                 -13.986281836 Ry
:4DD001: 4D*                 -6.916397854 Ry
:4D 001: 4D                  -6.646441464 Ry
:CINT001 Core Integral Atom   1   45.998465

       DENSITY AT NUCLEUS
        JATOM        VALENCE       SEMI-CORE          CORE           TOTAL
:RTO001:   1      638.522386        0.000000   656826.417936   657464.940322
     
       CHARGES OF NEW CHARGE DENSITY
:NTO   : INTERSTITIAL CHARGE =     6.265742
:NPC   : PW Pseudocharge     =    17.846832
:NTO001: CHARGE SPHERE  1    =    55.865590

:NEC01: NUCLEAR AND ELECTRONIC CHARGE    118.00000   117.99692
     
       CHARGES OF OLD CHARGE DENSITY
:OTO   : INTERSTITIAL CHARGE =     6.128708
:OPC   : PW Pseudocharge     =    17.841012
:OTO001: CHARGE SPHERE  1    =    55.935646

:NEC02: NUCLEAR AND ELECTRONIC CHARGE    118.00000   118.00000
     
       CONVERGENCE TEST
:DTO001: DIFFERENCE IN SPHERE  1 =  0.1536231

:DIS  :  CHARGE DISTANCE       ( 0.1536231 for atom    1 spin 1)      0.1536231
 PW Mixed is          280
 
******************************************************
* MULTISECANT MIXING VER9 RELEASE 10.4.0              *
* Standard Mode with controls                        *
* Fixed density scale                                *
* Regularization       1.000E-04                     *
* Trust Upper Limit    5.000E+00                     *
* Max Number of Memory Steps    8                    *
******************************************************
 
:PWTMP   1.5721E+02  1.9467E+02  2.5914E+02
:PLANE:  PW TOTAL      5.8672 DISTAN   6.56E-02  1.12E+00 %
:CHARG:  CLM/ATOM   1381.9965 DISTAN   2.86E-01  2.07E-02 %
 
Step History
        DMIX         DMIXT        Red     Pred      Trust     Lambda    MagRel    MagAbs     Beta
  1   3.5000E-02   3.5000E-02 -1.00E+00  1.00E+00 -1.00E+01  1.00E+00  3.50E-02  3.50E-02  1.00E+00
  2   2.5000E-02   2.5000E-02  8.55E-01  1.00E+00 -1.00E+01  1.00E+00  2.50E-02  3.78E-02  1.00E+00
  3   5.3541E-02   5.3541E-02  6.42E-01  1.00E+00 -1.00E+01  2.83E+00  5.35E-02  6.92E-02  1.00E+00
  4   8.8985E-02   8.8985E-02  6.09E-01  7.35E-01  3.73E-01  1.22E+00  1.94E-01  1.61E-01  1.00E+00
  5   1.3950E-01   1.3950E-01 -1.00E+00  6.11E-01  6.01E-01  1.00E+00  5.71E-01  2.88E-01  8.00E-01
:JACOBIANS    5.303E-01   4.409E-01
  
:NORMS:  1/Froebius, Min, Max, Used   0.4856E+00  0.3731E+00  0.8735E+00  0.5156E+00
:INFO :  Number of Memory Steps    4 Skipping    0
:INFO :  SLambda=    1.8270432765  Max    1.8270432765
:PREDicted Charge, CTotal, PW Trust    2.598E-02   5.195E-02   4.511E-01
:PREDicted DMix, Beta, BLim   3.9777E-01  1.4039E+00  3.3769E+00

Eigenvalues, unscaled except for SY+YY
   #     SY Real        SY Imag          SS             YY         SY+YY Real      SY+YY Imag
   1   8.274189E-01   0.000000E+00   7.903699E-01   2.972844E+00   3.822744E+00   0.000000E+00
   2   5.180416E-01   0.000000E+00   1.529511E-01   1.026178E+00   2.634310E+00   0.000000E+00
   3   1.173806E-15   0.000000E+00   6.873016E-05   9.651483E-04   1.369035E-05   0.000000E+00
   4   2.824333E-04   0.000000E+00  -2.146984E-17   1.276097E-05   1.662847E-03   0.000000E+00
 
:INFO :  Singular value  3.862E+00 Weight  1.000E+00 Projection -1.402E-01
:INFO :  Singular value  2.608E+00 Weight  1.000E+00 Projection -1.313E-01
:INFO :  Singular value  1.663E-03 Weight  9.690E-01 Projection  4.489E+00
:INFO :  Singular value  1.369E-05 Weight  2.115E-03 Projection -8.930E-03
:RANK :  ACTIVE   2.97/4  =  74.28 % ; YY RANK   2.92/4  =  72.88 %
 
:BLIM :  VZERO Control Off
:TRUST:  Step 1.93E+00  Charge 7.50E-02 (e) CTO  2.00E-01 (e) PW  6.15E-01 (e)
:DIRM :  MEMORY  4/8  SCALE   1.000 RED  0.58 PRED  0.61 NEXT  0.42 
:TRAVE:  Charge 1.97E-02 (e) CTO  3.94E-02 (e) PW  1.86E-01 (e)
:DIRP :  |MSR1|= 5.925E-02 |PRATT|= 6.555E-02 ANGLE=  41.6 DEGREES
:DIRQ :  |MSR1|= 1.771E-01 |PRATT|= 2.863E-01 ANGLE=  24.2 DEGREES
:DIRT :  |MSR1|= 1.867E-01 |PRATT|= 2.937E-01 ANGLE=  26.3 DEGREES
:MIX  :   MSE1   REGULARIZATION:  2.97E-04 GREED: 0.25010  Newton 1.00  0.6357                
     
       CHARGES OF MIXED CHARGE DENSITY
:CTO   : INTERSTITIAL CHARGE =     6.171164
:CPC   : PW Pseudocharge     =    17.736929
:CTO001: CHARGE SPHERE  1    =    55.914418

:NEC03: NUCLEAR AND ELECTRONIC CHARGE    118.00000   118.00000

PW CHANGE     H    K    L      Current       Change    Residue
:PTO001:      0    0    0  9.22607986E-02 -2.378E-04  5.970E-04
:PTO003:      0    2    0  2.01645810E-02  8.583E-05  2.459E-04
:PTO004:     -1    1    0  9.14690118E-02 -1.636E-04  4.904E-04
:PTO005:      0    2   -1 -1.03469664E-01  1.106E-03  6.981E-04
:PTO006:      0    0   -2 -5.35817194E-02  5.682E-04  3.597E-04
:PTO007:     -1    1   -1 -1.04687126E-01  1.578E-03  1.335E-03
:PTO008:      0    2   -2 -1.34924112E-02  7.275E-04  8.654E-04
:PTO009:     -1    1   -2 -6.60830804E-02  1.669E-03  1.717E-03
:PTO011:     -1    3    0 -9.02921313E-03  1.937E-05 -6.498E-05
:PTO012:     -1    3   -1 -3.57951709E-02  3.616E-04  1.625E-04
:PTO013:      0    4    0 -5.66693078E-03  5.700E-05  1.934E-05
:PTO014:      0    2   -3  1.33568656E-02  1.970E-04  4.154E-04

:ENE  : ********** TOTAL ENERGY IN Ry =       -36944.32324202

       TOTAL FORCE IN mRy/a.u. = |F|     Fx             Fy             Fz     with/without FOR in case.in2
:FOR001:   1.ATOM         19.950          0.000          0.000        -19.950 partial forces
       TOTAL FORCE WITH RESPECT TO GLOBAL CARTESIAN COORDINATES:
:FCA001:   1.ATOM                         0.000        -19.950          0.000 partial forces
       TOTAL FORCE WITH RESPECT TO THE GLOBAL COORDINATE SYSTEM:
:FGL001:   1.ATOM                 0.000000000   -19.949517727     0.000000000 partial forces
 Flat Integration
 New Mode for Coulomb Integral
 Consistent 3/8+Simpson combinations
 Extension of core to zero
 LDM version in phi
 Fifth-order quadrature in outwin


            ---------
:ITE007:  7. ITERATION
            ---------

:NATO :    1 INDEPENDENT AND    2 TOTAL ATOMS IN UNITCELL
       SUBSTANCE: aU                                                          

       LATTICE                      = CXY 
:POT  : POTENTIAL OPTION EX_LDA EC_LDA VX_LDA VC_LDA
:LAT  : LATTICE CONSTANTS=  5.26305 10.68006  9.22032    1.571    1.571    1.571
:VOL  : UNIT CELL VOLUME =     259.13599
       MODE OF CALCULATION IS       = RELA
       NON-SPINPOLARIZED CALCULATION
:IFFT  : FFT-parameters:   48   90   72 Factor: 2.00


   CONVERGENCE PARAMETER FOR PSEUDOCHARGE: NCON=  9
   MAXIMAL VALUE OF RMT(JATOM)*ABSK(NKK) : RK  =27.59449


:VKCOUL :  VK-COUL convergence: 0.267E-06
       ATOMNUMBER=  1 Pr1        VCOUL-ZERO =  0.72908E+00
:EFG001:                        EFG         =     7.59311   *10**21  V / m**2
                               V20  TOT/SRF=    -4.70886    -0.07511
                               V22  TOT/SRF=    -4.87444    -0.01739
                               V22M TOT/SRF=     0.00000     0.00000
                               V21  TOT/SRF=     0.00000     0.00000
                               V21M TOT/SRF=     0.00000     0.00000

             -2.15578    0.00000    0.00000       -2.15578    0.00000    0.00000
              0.00000    7.59311    0.00000        0.00000    7.59311    0.00000
              0.00000    0.00000   -5.43732        0.00000    0.00000   -5.43732

         MAIN DIRECTIONS OF THE EFG   1.0000  0.0000  0.0000
                                      0.0000  1.0000  0.0000
                                      0.0000  0.0000  1.0000
:ANG001:  ANGLE WITH OLD X-AXIS =         0.0

:ETA001:                         ASYMM. ETA =     0.43217


     HELLMANN-FEYNMAN-FORCE IN mRy/a.u. = |F|  Fx       Fy             Fz
:FHF001:   1.ATOM   1218.386455835763      0.000000000000      0.000000000000  -1218.386455835763

:FIT001: LUSE= 13 SIGMA OF V-XC FIT FOR ATOM  1  0.1260677E-03
:FIT001: LUSE= 13 SIGMA OF V-XC FIT FOR ATOM  1  0.1260677E-03
:DEN  : DENSITY INTEGRAL  =        -14223.67841073   (Ry)
       ELS_POTENTIAL_AT Z=0 and Z=0.5:   1.06671   1.06671
       ELS_POTENTIAL_AT Y=0 and Y=0.5:  -0.02472  -0.02472
:VZERO:v0,v0c,v0x   0.29218   1.06671  -0.77454 v5,v5c,v5x   0.29218   1.06671  -0.77454
:VZERY:v0,v0c,v0x  -1.02334  -0.02472  -0.99862 v5,v5c,v5x  -1.02334  -0.02472  -0.99862
:VZERX:v0,v0c,v0x  -1.32810  -0.39623  -0.93187 v5,v5c,v5x  -1.32810  -0.39623  -0.93187
:LMAX-WF:   10   Non-Spherical LMAX:   4

          ATOMIC SPHERE DEPENDENT PARAMETERS FOR ATOM  Pr1       
:e__0001: OVERALL ENERGY PARAMETER IS    1.0823
          OVERALL BASIS SET ON ATOM IS LAPW
:E0_0001: E( 0)=    1.0823
             APW+lo
:E0_0001: E( 0)=   -1.3650   E(BOTTOM)=   -2.006   E(TOP)=   -0.724  4  5   240
             LOCAL ORBITAL
:E1_0001: E( 1)=    1.4823
             APW+lo
:E1_0001: E( 1)=    0.1027   E(BOTTOM)=   -0.863   E(TOP)=    1.068  3  4   249
             LOCAL ORBITAL
:E3_0001: E( 3)=    1.2714   E(BOTTOM)=    1.065   E(TOP)=    1.478  0  1   116
             APW+lo
:E2_0001: E( 2)=    1.0823   E(BOTTOM)=    0.871   E(TOP)= -200.000  2 -1   122
             APW+lo

       K=   0.06250   0.00000   0.06250            1
:RKM  : MATRIX SIZE   266LOs:  40  RKM= 8.47  WEIGHT= 4.00  PGR:    
       EIGENVALUES ARE:
:EIG00001:      -1.4335838   -1.3302600   -0.2653250    0.0389088    0.1123045
:EIG00006:       0.1410004    0.1707737    0.1727966    1.1004348    1.1556076
:EIG00011:       1.2131377    1.2180846    1.2230321    1.2375700    1.2604405
:EIG00016:       1.2838879    1.2948637    1.2995360    1.3078510    1.3111402
:EIG00021:       1.3244974    1.3265067    1.3278947    1.3551113    1.3758455
:EIG00026:       1.4215258    1.5099432    1.5160371    1.5995135    1.6461678
:EIG00031:       1.7200216    1.9054715    1.9726045    2.0187481    2.3104940
:EIG00036:       2.3570346    2.3977986    2.6692598    2.6835962
       ********************************************************

:KPT   :      NUMBER OF K-POINTS:   288
:GAP (global)   :    0.0    Ry =     0.0   eV (metal)
         Bandranges (emin - emax) and occupancy:
:BAN00005:   5   -0.153092    0.112304  2.00000000
:BAN00006:   6   -0.120676    0.158961  2.00000000
:BAN00007:   7   -0.055316    0.171083  2.00000000
:BAN00008:   8    0.076431    0.190141  2.00000000
:BAN00009:   9    0.991474    1.182976  2.00000000
:BAN00010:  10    1.046403    1.207201  2.00000000
:BAN00011:  11    1.101683    1.250831  2.00000000
:BAN00012:  12    1.163371    1.258617  1.94678962
:BAN00013:  13    1.208553    1.279041  1.23514233
:BAN00014:  14    1.225419    1.293886  0.75490801
:BAN00015:  15    1.240539    1.297904  0.06316004
:BAN00016:  16    1.255562    1.302503  0.00000000
:BAN00017:  17    1.283258    1.313386  0.00000000
:BAN00018:  18    1.291846    1.316870  0.00000000
:BAN00019:  19    1.300725    1.325274  0.00000000
:BAN00020:  20    1.303427    1.328421  0.00000000
        Energy to separate low and high energystates:    0.94147


:NOE  : NUMBER OF ELECTRONS          =   26.000

:FER  : F E R M I - ENERGY(TETRAH.M.)=   1.2509503617
:GMA  : POTENTIAL AND CHARGE CUT-OFF  12.00 Ry**.5

:POS001: ATOM   -1 X,Y,Z = 0.00000 0.89750 0.25000  MULT= 2  ZZ= 59.000  Pr1       

       LMMAX 16
       LM=   0 0  1 0  2 0  2 2  3 0  3 2  4 0  4 2  4 4  5 0  5 2  5 4  6 0  6 2  6 4  6 6

:CHA001: TOTAL VALENCE CHARGE INSIDE SPHERE   1 =   9.9988    (RMT=  2.3000 )
:PCS001: PARTIAL CHARGES SPHERE =  1 S,P,D,F,PX,PY,PZ,D-Z2,D-X2Y2,D-XY,D-XZ,D-YZ 
:QTL001: 1.9245 4.9597 0.9115 2.1985 1.6548 1.6481 1.6569 0.1789 0.1601 0.1885 0.1882 0.1958
        Q-s-low E-s-low   Q-p-low E-p-low   Q-d-low E-d-low   Q-f-low E-f-low
:EPL001:  1.8710 -1.3191    4.8720 -0.0193    0.0337 -0.0701    0.0113 -0.0704
        Q-s-hi  E-s-hi    Q-p-hi  E-p-hi    Q-d-hi  E-d-hi    Q-f-hi  E-f-hi 
:EPH001:  0.0534  1.1632    0.0878  1.1732    0.8778  1.1471    2.1873  1.2103

                      VXX         VYY         VZZ       UP TO R
:VZZ001:            -0.59724     8.95355    -8.35631       2.300

:CHA  : TOTAL VALENCE CHARGE INSIDE UNIT CELL =      26.000000

:SUM  : SUM OF EIGENVALUES =           6.123258560


        1.ATOM      Pr1                  14 CORE STATES
       CORE-FORCE in mRy/a.u. = |F|      Fx             Fy             Fz
:FCO001:   1.ATOM   1270.410390802638      0.000000000000      0.000000000000   1270.410390802638

:1S 001: 1S               -3066.335101683 Ry
:2S 001: 2S                -492.090048344 Ry
:2PP001: 2P*               -465.188193923 Ry
:2P 001: 2P                -429.791052625 Ry
:3S 001: 3S                -105.191199809 Ry
:3PP001: 3P*                -93.728624632 Ry
:3P 001: 3P                 -86.720974495 Ry
:3DD001: 3D*                -66.646608920 Ry
:3D 001: 3D                 -65.135186394 Ry
:4S 001: 4S                 -19.851835118 Ry
:4PP001: 4P*                -15.557109350 Ry
:4P 001: 4P                 -14.027532644 Ry
:4DD001: 4D*                 -6.956459777 Ry
:4D 001: 4D                  -6.686330595 Ry
:CINT001 Core Integral Atom   1   45.998490

       DENSITY AT NUCLEUS
        JATOM        VALENCE       SEMI-CORE          CORE           TOTAL
:RTO001:   1      638.517434        0.000000   656827.331167   657465.848601
     
       CHARGES OF NEW CHARGE DENSITY
:NTO   : INTERSTITIAL CHARGE =     6.002486
:NPC   : PW Pseudocharge     =    17.702955
:NTO001: CHARGE SPHERE  1    =    55.997244

:NEC01: NUCLEAR AND ELECTRONIC CHARGE    118.00000   117.99697
     
       CHARGES OF OLD CHARGE DENSITY
:OTO   : INTERSTITIAL CHARGE =     6.171164
:OPC   : PW Pseudocharge     =    17.736929
:OTO001: CHARGE SPHERE  1    =    55.914418

:NEC02: NUCLEAR AND ELECTRONIC CHARGE    118.00000   118.00000
     
       CONVERGENCE TEST
:DTO001: DIFFERENCE IN SPHERE  1 =  0.1697345

:DIS  :  CHARGE DISTANCE       ( 0.1697345 for atom    1 spin 1)      0.1697345
 PW Mixed is          280
 
******************************************************
* MULTISECANT MIXING VER9 RELEASE 10.4.0              *
* Standard Mode with controls                        *
* Fixed density scale                                *
* Regularization       1.000E-04                     *
* Trust Upper Limit    5.000E+00                     *
* Max Number of Memory Steps    8                    *
******************************************************
 
:PWTMP   1.5721E+02  1.9467E+02  2.5914E+02
:PLANE:  PW TOTAL      5.8307 DISTAN   4.70E-02  8.06E-01 %
:CHARG:  CLM/ATOM   1381.9594 DISTAN   2.56E-01  1.85E-02 %
 
Step History
[...]
:OTO   : INTERSTITIAL CHARGE =     6.141535
:OPC   : PW Pseudocharge     =    17.790272
:OTO001: CHARGE SPHERE  1    =    55.929233

:NEC02: NUCLEAR AND ELECTRONIC CHARGE    118.00000   118.00000
     
       CONVERGENCE TEST
:DTO001: DIFFERENCE IN SPHERE  1 =  0.0002046

:DIS  :  CHARGE DISTANCE       ( 0.0002046 for atom    1 spin 1)      0.0002046
 PW Mixed is          280
 
******************************************************
* MULTISECANT MIXING VER9 RELEASE 10.4.0              *
* Standard Mode with controls                        *
* Fixed density scale                                *
* Regularization       1.000E-04                     *
* Trust Upper Limit    5.000E+00                     *
* Max Number of Memory Steps    8                    *
******************************************************
 
:PWTMP   1.5721E+02  1.9467E+02  2.5914E+02
:PLANE:  PW TOTAL      5.8513 DISTAN   1.13E-04  1.93E-03 %
:CHARG:  CLM/ATOM   1381.9404 DISTAN   3.99E-04  2.89E-05 %
 
Step History
        DMIX         DMIXT        Red     Pred      Trust     Lambda    MagRel    MagAbs     Beta
  4   8.8985E-02   8.8985E-02  6.09E-01  7.35E-01  3.73E-01  1.22E+00  1.94E-01  1.61E-01  1.00E+00
  5   1.3950E-01   1.3950E-01  5.82E-01  6.11E-01  6.01E-01  1.83E+00  5.71E-01  2.88E-01  8.00E-01
  6   2.5010E-01   2.5010E-01  8.87E-01  4.16E-01  1.93E+00  2.26E+00  6.36E-01  1.87E-01  1.00E+00
  7   2.4130E-01   2.4130E-01  2.33E-01  2.68E-01  2.18E+00  1.89E+00  1.98E-01  5.16E-02  9.32E-01
  8   2.3675E-01   2.3675E-01  3.81E-01  4.65E-01  2.90E+00  1.96E+00  5.01E-01  3.04E-02  1.00E+00
  9   3.5000E-01   3.5000E-01  7.48E-01  4.63E-01  3.87E+00  1.87E+00  6.36E-01  1.47E-02  1.00E+00
 10   3.4561E-01   3.4561E-01  1.48E-01  1.66E-01  5.16E+00  1.79E+00  2.85E-01  4.92E-03  1.00E+00
 11   2.8535E-01   2.8535E-01  4.20E-01  3.43E-01  6.88E+00  1.75E+00  3.31E-01  8.45E-04  1.00E+00
 12   3.5000E-01   3.5000E-01 -1.00E+00  4.01E-01  9.18E+00  1.00E+00  5.72E-01  6.14E-04  1.00E+00
:JACOBIANS    1.089E+00   2.940E+00
  
:NORMS:  1/Froebius, Min, Max, Used   0.6012E+00  0.5848E+00  0.9973E+00  0.6012E+00
:INFO :  Number of Memory Steps    8 Skipping    3
:INFO :  SLambda=    1.7099526681  Max    1.7099526681
:PREDicted Charge, CTotal, PW Trust    1.431E-05   2.863E-05   2.175E-04
:PREDicted DMix, Beta, BLim   4.4989E-01  1.0431E+00  2.5876E+00

Eigenvalues, unscaled except for SY+YY
   #     SY Real        SY Imag          SS             YY         SY+YY Real      SY+YY Imag
   1   1.725177E+00   0.000000E+00   1.612986E+00   4.475011E+00   6.423374E+00   0.000000E+00
   2   1.075327E+00   0.000000E+00   7.048867E-01   1.912504E+00   4.632591E+00   0.000000E+00
   3   6.697146E-01   0.000000E+00   3.553573E-01   9.190189E-01   2.072398E+00   0.000000E+00
   4   2.181845E-01   0.000000E+00   1.637041E-01   4.561082E-01   8.997807E-01   0.000000E+00
   5   1.345003E-01   0.000000E+00   4.661952E-02   1.782555E-01   4.470085E-01   0.000000E+00
   6   1.067835E-04   0.000000E+00   4.614423E-03   3.886139E-02   4.952165E-04   0.000000E+00
   7   9.391329E-03   0.000000E+00   3.149188E-03   1.994461E-02   5.998920E-02   0.000000E+00
   8   1.251365E-02   0.000000E+00   3.620940E-05   2.958136E-04   3.898717E-02   0.000000E+00
 
:INFO :  Singular value  6.460E+00 Weight  1.000E+00 Projection  1.454E-04
:INFO :  Singular value  4.622E+00 Weight  1.000E+00 Projection  2.947E-05
:INFO :  Singular value  2.070E+00 Weight  1.000E+00 Projection  3.863E-05
:INFO :  Singular value  8.984E-01 Weight  1.000E+00 Projection -1.474E-04
:INFO :  Singular value  4.470E-01 Weight  1.000E+00 Projection -1.160E-04
:INFO :  Singular value  5.996E-02 Weight  9.999E-01 Projection -1.338E-04
:INFO :  Singular value  3.897E-02 Weight  9.999E-01 Projection  1.382E-03
:INFO :  Singular value  4.952E-04 Weight  5.504E-01 Projection  2.825E-03
:RANK :  ACTIVE   7.55/8  =  94.38 % ; YY RANK   7.30/8  =  91.29 %
 
:BLIM :  VZERO Control Off
:TRUST:  Step 1.22E+01  Charge 1.94E-02 (e) CTO  4.19E-02 (e) PW  1.61E-01 (e)
:DIRM :  MEMORY  8/8  SCALE   1.000 RED  0.39 PRED  0.40 NEXT  0.26 
:TRAVE:  Charge 3.72E-04 (e) CTO  7.44E-04 (e) PW  2.11E-03 (e)
:DIRP :  |MSR1|= 7.512E-05 |PRATT|= 1.131E-04 ANGLE=  23.9 DEGREES
:DIRQ :  |MSR1|= 1.611E-04 |PRATT|= 3.994E-04 ANGLE=  41.1 DEGREES
:DIRT :  |MSR1|= 1.778E-04 |PRATT|= 4.151E-04 ANGLE=  40.3 DEGREES
:MIX  :   MSE1   REGULARIZATION:  4.48E-04 GREED: 0.35000  Newton 1.00  0.4282                
     
       CHARGES OF MIXED CHARGE DENSITY
:CTO   : INTERSTITIAL CHARGE =     6.141585
:CPC   : PW Pseudocharge     =    17.790461
:CTO001: CHARGE SPHERE  1    =    55.929207

:NEC03: NUCLEAR AND ELECTRONIC CHARGE    118.00000   118.00000

PW CHANGE     H    K    L      Current       Change    Residue
:PTO001:      0    0    0  9.23532355E-02  9.257E-07  1.923E-06
:PTO003:      0    2    0  2.00946447E-02  4.670E-07  5.354E-07
:PTO004:     -1    1    0  9.18718203E-02  1.553E-06  1.697E-06
:PTO005:      0    2   -1 -1.04126730E-01 -1.460E-06 -1.247E-06
:PTO006:      0    0   -2 -5.39526145E-02 -1.124E-07  3.894E-07
:PTO007:     -1    1   -1 -1.05483526E-01 -6.354E-07  2.156E-09
:PTO008:      0    2   -2 -1.34485525E-02  3.495E-07  5.962E-07
:PTO009:     -1    1   -2 -6.64606212E-02  4.975E-07  1.641E-06
:PTO011:     -1    3    0 -9.25891413E-03  1.553E-07  2.820E-07
:PTO012:     -1    3   -1 -3.60392940E-02  2.794E-07  6.048E-07
:PTO013:      0    4    0 -5.72485250E-03 -2.569E-07 -3.158E-07
:PTO014:      0    2   -3  1.35097245E-02 -9.844E-08 -2.031E-07

:ENE  : ********** TOTAL ENERGY IN Ry =       -36944.32046456

       TOTAL FORCE IN mRy/a.u. = |F|     Fx             Fy             Fz     with/without FOR in case.in2
:FOR001:   1.ATOM         11.869          0.000          0.000         11.869 partial forces
       TOTAL FORCE WITH RESPECT TO GLOBAL CARTESIAN COORDINATES:
:FCA001:   1.ATOM                         0.000         11.869          0.000 partial forces
       TOTAL FORCE WITH RESPECT TO THE GLOBAL COORDINATE SYSTEM:
:FGL001:   1.ATOM                 0.000000000    11.869200436     0.000000000 partial forces
 Flat Integration
 New Mode for Coulomb Integral
 Consistent 3/8+Simpson combinations
 Extension of core to zero
 LDM version in phi
 Fifth-order quadrature in outwin


            ---------
:ITE014: 14. ITERATION
            ---------

:NATO :    1 INDEPENDENT AND    2 TOTAL ATOMS IN UNITCELL
       SUBSTANCE: aU                                                          

       LATTICE                      = CXY 
:POT  : POTENTIAL OPTION EX_LDA EC_LDA VX_LDA VC_LDA
:LAT  : LATTICE CONSTANTS=  5.26305 10.68006  9.22032    1.571    1.571    1.571
:VOL  : UNIT CELL VOLUME =     259.13599
       MODE OF CALCULATION IS       = RELA
       NON-SPINPOLARIZED CALCULATION
:IFFT  : FFT-parameters:   48   90   72 Factor: 2.00


   CONVERGENCE PARAMETER FOR PSEUDOCHARGE: NCON=  9
   MAXIMAL VALUE OF RMT(JATOM)*ABSK(NKK) : RK  =27.59449


:VKCOUL :  VK-COUL convergence: 0.287E-06
       ATOMNUMBER=  1 Pr1        VCOUL-ZERO =  0.72872E+00
:EFG001:                        EFG         =     9.55979   *10**21  V / m**2
                               V20  TOT/SRF=    -6.62473    -0.07767
                               V22  TOT/SRF=    -5.73500    -0.01382
                               V22M TOT/SRF=     0.00000     0.00000
                               V21  TOT/SRF=     0.00000     0.00000
                               V21M TOT/SRF=     0.00000     0.00000

             -1.91021    0.00000    0.00000       -1.91021    0.00000    0.00000
              0.00000    9.55979    0.00000        0.00000    9.55979    0.00000
              0.00000    0.00000   -7.64958        0.00000    0.00000   -7.64958

         MAIN DIRECTIONS OF THE EFG   1.0000  0.0000  0.0000
                                      0.0000  1.0000  0.0000
                                      0.0000  0.0000  1.0000
:ANG001:  ANGLE WITH OLD X-AXIS =         0.0

:ETA001:                         ASYMM. ETA =     0.60037


     HELLMANN-FEYNMAN-FORCE IN mRy/a.u. = |F|  Fx       Fy             Fz
:FHF001:   1.ATOM   1517.598627461476      0.000000000000      0.000000000000  -1517.598627461476

:FIT001: LUSE= 13 SIGMA OF V-XC FIT FOR ATOM  1  0.1251101E-03
:FIT001: LUSE= 13 SIGMA OF V-XC FIT FOR ATOM  1  0.1251101E-03
:DEN  : DENSITY INTEGRAL  =        -14226.08621545   (Ry)
       ELS_POTENTIAL_AT Z=0 and Z=0.5:   1.06304   1.06304
       ELS_POTENTIAL_AT Y=0 and Y=0.5:  -0.02588  -0.02588
:VZERO:v0,v0c,v0x   0.29029   1.06304  -0.77275 v5,v5c,v5x   0.29029   1.06304  -0.77275
:VZERY:v0,v0c,v0x  -1.02395  -0.02588  -0.99807 v5,v5c,v5x  -1.02395  -0.02588  -0.99807
:VZERX:v0,v0c,v0x  -1.32763  -0.39634  -0.93129 v5,v5c,v5x  -1.32763  -0.39634  -0.93129
:LMAX-WF:   10   Non-Spherical LMAX:   4

          ATOMIC SPHERE DEPENDENT PARAMETERS FOR ATOM  Pr1       
:e__0001: OVERALL ENERGY PARAMETER IS    1.0630
          OVERALL BASIS SET ON ATOM IS LAPW
:E0_0001: E( 0)=    1.0630
             APW+lo
:E0_0001: E( 0)=   -1.3575   E(BOTTOM)=   -2.000   E(TOP)=   -0.715  4  5   252
             LOCAL ORBITAL
:E1_0001: E( 1)=    1.4630
             APW+lo
:E1_0001: E( 1)=    0.1092   E(BOTTOM)=   -0.858   E(TOP)=    1.077  3  4   252
             LOCAL ORBITAL
:E3_0001: E( 3)=    1.2864   E(BOTTOM)=    1.078   E(TOP)=    1.495  0  1   121
             APW+lo
:E2_0001: E( 2)=    1.0630   E(BOTTOM)=    0.874   E(TOP)= -200.000  2 -1   122
             APW+lo

       K=   0.06250   0.00000   0.06250            1
:RKM  : MATRIX SIZE   266LOs:  40  RKM= 8.47  WEIGHT= 4.00  PGR:    
       EIGENVALUES ARE:
:EIG00001:      -1.4273324   -1.3231548   -0.2628839    0.0451895    0.1188474
:EIG00006:       0.1468044    0.1754018    0.1789934    1.1022645    1.1575098
:EIG00011:       1.2234176    1.2308818    1.2348048    1.2479353    1.2714658
:EIG00016:       1.2972190    1.3088119    1.3135533    1.3211362    1.3256052
:EIG00021:       1.3387904    1.3393505    1.3418658    1.3706548    1.3874423
:EIG00026:       1.4289409    1.5132029    1.5205800    1.6032840    1.6502056
:EIG00031:       1.7228856    1.9088132    1.9748678    2.0223431    2.3141334
:EIG00036:       2.3603749    2.4005332    2.6711002    2.6856268
       ********************************************************

:KPT   :      NUMBER OF K-POINTS:   288
:GAP (global)   :    0.0    Ry =     0.0   eV (metal)
         Bandranges (emin - emax) and occupancy:
:BAN00005:   5   -0.149959    0.118847  2.00000000
:BAN00006:   6   -0.116010    0.164867  2.00000000
:BAN00007:   7   -0.050060    0.177140  2.00000000
:BAN00008:   8    0.080548    0.196436  2.00000000
:BAN00009:   9    0.991732    1.189308  2.00000000
:BAN00010:  10    1.047661    1.214399  2.00000000
:BAN00011:  11    1.103646    1.263075  1.99999999
:BAN00012:  12    1.168033    1.270275  1.95502932
:BAN00013:  13    1.217992    1.293779  1.24406509
:BAN00014:  14    1.236026    1.308788  0.75390794
:BAN00015:  15    1.251750    1.311929  0.04699766
:BAN00016:  16    1.268062    1.316558  0.00000000
:BAN00017:  17    1.296817    1.328033  0.00000000
:BAN00018:  18    1.305434    1.330959  0.00000000
:BAN00019:  19    1.316086    1.340844  0.00000000
:BAN00020:  20    1.319476    1.342914  0.00000000
        Energy to separate low and high energystates:    0.94173


:NOE  : NUMBER OF ELECTRONS          =   26.000

:FER  : F E R M I - ENERGY(TETRAH.M.)=   1.2630593054
:GMA  : POTENTIAL AND CHARGE CUT-OFF  12.00 Ry**.5

:POS001: ATOM   -1 X,Y,Z = 0.00000 0.89750 0.25000  MULT= 2  ZZ= 59.000  Pr1       

       LMMAX 16
       LM=   0 0  1 0  2 0  2 2  3 0  3 2  4 0  4 2  4 4  5 0  5 2  5 4  6 0  6 2  6 4  6 6

:CHA001: TOTAL VALENCE CHARGE INSIDE SPHERE   1 =   9.9308    (RMT=  2.3000 )
:PCS001: PARTIAL CHARGES SPHERE =  1 S,P,D,F,PX,PY,PZ,D-Z2,D-X2Y2,D-XY,D-XZ,D-YZ 
:QTL001: 1.9267 4.9600 0.9475 2.0918 1.6549 1.6480 1.6572 0.1864 0.1683 0.1942 0.1964 0.2022
        Q-s-low E-s-low   Q-p-low E-p-low   Q-d-low E-d-low   Q-f-low E-f-low
:EPL001:  1.8703 -1.3120    4.8657 -0.0145    0.0340 -0.0658    0.0113 -0.0658
        Q-s-hi  E-s-hi    Q-p-hi  E-p-hi    Q-d-hi  E-d-hi    Q-f-hi  E-f-hi 
:EPH001:  0.0564  1.1697    0.0943  1.1806    0.9135  1.1534    2.0805  1.2202

                      VXX         VYY         VZZ       UP TO R
:VZZ001:            -1.96037     9.50223    -7.54186       2.300

:CHA  : TOTAL VALENCE CHARGE INSIDE UNIT CELL =      26.000000

:SUM  : SUM OF EIGENVALUES =           6.275317404


        1.ATOM      Pr1                  14 CORE STATES
       CORE-FORCE in mRy/a.u. = |F|      Fx             Fy             Fz
:FCO001:   1.ATOM   1529.488012150885      0.000000000000      0.000000000000   1529.488012150885

:1S 001: 1S               -3066.312141201 Ry
:2S 001: 2S                -492.063909424 Ry
:2PP001: 2P*               -465.162511098 Ry
:2P 001: 2P                -429.765178831 Ry
:3S 001: 3S                -105.163320898 Ry
:3PP001: 3P*                -93.700816541 Ry
:3P 001: 3P                 -86.693160978 Ry
:3DD001: 3D*                -66.618820302 Ry
:3D 001: 3D                 -65.107385097 Ry
:4S 001: 4S                 -19.829340280 Ry
:4PP001: 4P*                -15.535063006 Ry
:4P 001: 4P                 -14.006153494 Ry
:4DD001: 4D*                 -6.936243974 Ry
:4D 001: 4D                  -6.666339609 Ry
:CINT001 Core Integral Atom   1   45.998475

       DENSITY AT NUCLEUS
        JATOM        VALENCE       SEMI-CORE          CORE           TOTAL
:RTO001:   1      638.799346        0.000000   656826.696821   657465.496167
     
       CHARGES OF NEW CHARGE DENSITY
:NTO   : INTERSTITIAL CHARGE =     6.138492
:NPC   : PW Pseudocharge     =    17.781561
:NTO001: CHARGE SPHERE  1    =    55.929225

:NEC01: NUCLEAR AND ELECTRONIC CHARGE    118.00000   117.99694
     
       CHARGES OF OLD CHARGE DENSITY
:OTO   : INTERSTITIAL CHARGE =     6.141585
:OPC   : PW Pseudocharge     =    17.790461
:OTO001: CHARGE SPHERE  1    =    55.929207

:NEC02: NUCLEAR AND ELECTRONIC CHARGE    118.00000   118.00000
     
       CONVERGENCE TEST
:DTO001: DIFFERENCE IN SPHERE  1 =  0.0000446

:DIS  :  CHARGE DISTANCE       ( 0.0000446 for atom    1 spin 1)      0.0000446
 PW Mixed is          280
 
******************************************************
* MULTISECANT MIXING VER9 RELEASE 10.4.0              *
* Standard Mode with controls                        *
* Fixed density scale                                *
* Regularization       1.000E-04                     *
* Trust Upper Limit    5.000E+00                     *
* Max Number of Memory Steps    8                    *
******************************************************
 
:PWTMP   1.5721E+02  1.9467E+02  2.5914E+02
:PLANE:  PW TOTAL      5.8514 DISTAN   2.35E-05  4.02E-04 %
:CHARG:  CLM/ATOM   1381.9404 DISTAN   9.20E-05  6.66E-06 %
 
Step History
        DMIX         DMIXT        Red     Pred      Trust     Lambda    MagRel    MagAbs     Beta
  5   1.3950E-01   1.3950E-01  5.82E-01  6.11E-01  6.01E-01  1.83E+00  5.71E-01  2.88E-01  8.00E-01
  6   2.5010E-01   2.5010E-01  8.87E-01  4.16E-01  1.93E+00  2.26E+00  6.36E-01  1.87E-01  1.00E+00
  7   2.4130E-01   2.4130E-01  2.33E-01  2.68E-01  2.18E+00  1.89E+00  1.98E-01  5.16E-02  9.32E-01
  8   2.3675E-01   2.3675E-01  3.81E-01  4.65E-01  2.90E+00  1.96E+00  5.01E-01  3.04E-02  1.00E+00
  9   3.5000E-01   3.5000E-01  7.48E-01  4.63E-01  3.87E+00  1.87E+00  6.36E-01  1.47E-02  1.00E+00
 10   3.4561E-01   3.4561E-01  1.48E-01  1.66E-01  5.16E+00  1.79E+00  2.85E-01  4.92E-03  1.00E+00
 11   2.8535E-01   2.8535E-01  4.20E-01  3.43E-01  6.88E+00  1.75E+00  3.31E-01  8.45E-04  1.00E+00
 12   3.5000E-01   3.5000E-01  3.87E-01  4.01E-01  9.18E+00  1.71E+00  5.72E-01  6.14E-04  1.00E+00
 13   3.5000E-01   3.5000E-01 -1.00E+00  2.59E-01  1.22E+01  1.00E+00  4.28E-01  1.78E-04  1.00E+00
:JACOBIANS    1.147E+00   3.397E+00
  
:NORMS:  1/Froebius, Min, Max, Used   0.5679E+00  0.4951E+00  0.1036E+01  0.5679E+00
:INFO :  Number of Memory Steps    8 Skipping    4
:INFO :  SLambda=    2.0199969738  Max    2.0199969738
:PREDicted Charge, CTotal, PW Trust    2.672E-05   5.343E-05   1.129E-04
:PREDicted DMix, Beta, BLim   5.3885E-01  1.0806E+00  8.1941E+00

Eigenvalues, unscaled except for SY+YY
   #     SY Real        SY Imag          SS             YY         SY+YY Real      SY+YY Imag
   1   1.260474E+00   5.975170E-02   1.194466E+00   4.873886E+00   7.161890E+00   0.000000E+00
   2   1.260474E+00  -5.975170E-02   8.436105E-01   1.422201E+00   3.901957E+00   0.000000E+00
   3   4.587728E-01   3.983300E-02   3.224099E-01   7.744388E-01   2.001477E+00   0.000000E+00
   4   4.587728E-01  -3.983300E-02   1.674433E-01   6.747822E-01   1.597964E+00   0.000000E+00
   5   8.311262E-02   0.000000E+00   4.168577E-02   1.891728E-01   3.829777E-01   0.000000E+00
   6   1.578146E-02   0.000000E+00   5.272294E-03   5.111181E-02   8.316079E-02   0.000000E+00
   7   1.209446E-03   0.000000E+00   4.638616E-03   1.260785E-02   3.318679E-02   0.000000E+00
   8   9.454516E-03   0.000000E+00   6.536146E-04   1.800486E-03   4.442024E-03   0.000000E+00
 
:INFO :  Singular value  7.183E+00 Weight  1.000E+00 Projection -2.552E-05
:INFO :  Singular value  3.907E+00 Weight  1.000E+00 Projection -1.389E-06
:INFO :  Singular value  2.027E+00 Weight  1.000E+00 Projection -1.280E-05
:INFO :  Singular value  1.574E+00 Weight  1.000E+00 Projection  7.932E-06
:INFO :  Singular value  3.826E-01 Weight  1.000E+00 Projection -5.252E-05
:INFO :  Singular value  8.313E-02 Weight  1.000E+00 Projection  3.269E-05
:INFO :  Singular value  3.318E-02 Weight  9.998E-01 Projection  1.174E-04
:INFO :  Singular value  4.441E-03 Weight  9.881E-01 Projection -1.504E-03
:RANK :  ACTIVE   7.99/8  =  99.85 % ; YY RANK   7.93/8  =  99.13 %
 
:BLIM :  VZERO Control Off
:TRUST:  Step 1.63E+01  Charge 1.55E-02 (e) CTO  3.36E-02 (e) PW  1.29E-01 (e)
:DIRM :  MEMORY  8/8  SCALE   1.000 RED  0.23 PRED  0.26 NEXT  0.29 
:TRAVE:  Charge 1.87E-04 (e) CTO  3.73E-04 (e) PW  1.07E-03 (e)
:DIRP :  |MSR1|= 2.323E-05 |PRATT|= 2.351E-05 ANGLE=  25.1 DEGREES
:DIRQ :  |MSR1|= 5.168E-05 |PRATT|= 9.201E-05 ANGLE=  31.4 DEGREES
:DIRT :  |MSR1|= 5.666E-05 |PRATT|= 9.496E-05 ANGLE=  32.2 DEGREES
:MIX  :   MSE1   REGULARIZATION:  4.87E-04 GREED: 0.35000  Newton 1.00  0.5966                
     
       CHARGES OF MIXED CHARGE DENSITY
:CTO   : INTERSTITIAL CHARGE =     6.141583
:CPC   : PW Pseudocharge     =    17.790417
:CTO001: CHARGE SPHERE  1    =    55.929208

:NEC03: NUCLEAR AND ELECTRONIC CHARGE    118.00000   118.00000

PW CHANGE     H    K    L      Current       Change    Residue
:PTO001:      0    0    0  9.23530569E-02 -1.786E-07 -2.926E-07
:PTO003:      0    2    0  2.00945325E-02 -1.122E-07 -1.083E-07
:PTO004:     -1    1    0  9.18715904E-02 -2.298E-07 -1.062E-07
:PTO005:      0    2   -1 -1.04126229E-01  5.006E-07  4.097E-07
:PTO006:      0    0   -2 -5.39525301E-02  8.447E-08 -1.140E-07
:PTO007:     -1    1   -1 -1.05483152E-01  3.749E-07  1.595E-07
:PTO008:      0    2   -2 -1.34483333E-02  2.192E-07  2.345E-07
:PTO009:     -1    1   -2 -6.64601001E-02  5.211E-07  3.795E-07
:PTO011:     -1    3    0 -9.25876479E-03  1.493E-07  1.565E-07
:PTO012:     -1    3   -1 -3.60387537E-02  5.402E-07  5.915E-07
:PTO013:      0    4    0 -5.72481789E-03  3.461E-08  4.289E-08
:PTO014:      0    2   -3  1.35096753E-02 -4.919E-08  5.546E-09

:ENE  : ********** TOTAL ENERGY IN Ry =       -36944.32046494

       TOTAL FORCE IN mRy/a.u. = |F|     Fx             Fy             Fz     with/without FOR in case.in2
:FOR001:   1.ATOM         11.889          0.000          0.000         11.889 partial forces
       TOTAL FORCE WITH RESPECT TO GLOBAL CARTESIAN COORDINATES:
:FCA001:   1.ATOM                         0.000         11.889          0.000 partial forces
       TOTAL FORCE WITH RESPECT TO THE GLOBAL COORDINATE SYSTEM:
:FGL001:   1.ATOM                 0.000000000    11.889384689     0.000000000 partial forces
