
------- case.scf0 --------
 Flat Integration
 New Mode for Coulomb Integral
 Consistent 3/8+Simpson combinations
 Extension of core to zero
 LDM version in phi
 Fifth-order quadrature in outwin


            ---------
:ITE076: 76. ITERATION
            ---------

:NATO :    1 INDEPENDENT AND    2 TOTAL ATOMS IN UNITCELL
       SUBSTANCE: aU                                                          

       LATTICE                      = CXY 
:POT  : POTENTIAL OPTION EX_LDA EC_LDA VX_LDA VC_LDA
:LAT  : LATTICE CONSTANTS=  5.47380 11.10771  9.58952    1.571    1.571    1.571
:VOL  : UNIT CELL VOLUME =     291.52801
       MODE OF CALCULATION IS       = RELA
       NON-SPINPOLARIZED CALCULATION
:IFFT  : FFT-parameters:   48   90   80 Factor: 2.00


   CONVERGENCE PARAMETER FOR PSEUDOCHARGE: NCON=  9
   MAXIMAL VALUE OF RMT(JATOM)*ABSK(NKK) : RK  =27.59298


:VKCOUL :  VK-COUL convergence: 0.184E-06
       ATOMNUMBER=  1 Pr1        VCOUL-ZERO =  0.58444E+00
:EFG001:                        EFG         =    -8.33815   *10**21  V / m**2
                               V20  TOT/SRF=    -7.22105    -0.06989
                               V22  TOT/SRF=    -3.85512    -0.00879
                               V22M TOT/SRF=     0.00000     0.00000
                               V21  TOT/SRF=     0.00000     0.00000
                               V21M TOT/SRF=     0.00000     0.00000

              0.31396    0.00000    0.00000        0.31396    0.00000    0.00000
              0.00000    8.02420    0.00000        0.00000    8.02420    0.00000
              0.00000    0.00000   -8.33815        0.00000    0.00000   -8.33815

         MAIN DIRECTIONS OF THE EFG   1.0000  0.0000  0.0000
                                      0.0000  1.0000  0.0000
                                      0.0000  0.0000  1.0000
:ANG001:  ANGLE WITH OLD X-AXIS =         0.0

:ETA001:                         ASYMM. ETA =     0.92469


     HELLMANN-FEYNMAN-FORCE IN mRy/a.u. = |F|  Fx       Fy             Fz
:FHF001:   1.ATOM   1288.983946749849      0.000000000000      0.000000000000  -1288.983946749849

:FIT001: LUSE= 13 SIGMA OF V-XC FIT FOR ATOM  1  0.5362997E-04
:FIT001: LUSE= 13 SIGMA OF V-XC FIT FOR ATOM  1  0.5362997E-04
:DEN  : DENSITY INTEGRAL  =        -14214.31868187   (Ry)
       ELS_POTENTIAL_AT Z=0 and Z=0.5:   0.98116   0.98116
       ELS_POTENTIAL_AT Y=0 and Y=0.5:  -0.00158  -0.00158
:VZERO:v0,v0c,v0x   0.25501   0.98116  -0.72615 v5,v5c,v5x   0.25501   0.98116  -0.72615
:VZERY:v0,v0c,v0x  -0.95201  -0.00158  -0.95043 v5,v5c,v5x  -0.95201  -0.00158  -0.95043
:VZERX:v0,v0c,v0x  -1.28462  -0.39569  -0.88893 v5,v5c,v5x  -1.28462  -0.39569  -0.88893

------- case.scf1 --------
:LMAX-WF:   10   Non-Spherical LMAX:   4

          ATOMIC SPHERE DEPENDENT PARAMETERS FOR ATOM  Pr1       
:e__0001: OVERALL ENERGY PARAMETER IS    0.9118
          OVERALL BASIS SET ON ATOM IS LAPW
:E0_0001: E( 0)=    0.9118
             APW+lo
:E0_0001: E( 0)=   -1.4902   E(BOTTOM)=   -2.135   E(TOP)=   -0.846  4  5   236
             LOCAL ORBITAL
:E1_0001: E( 1)=    1.3118
             APW+lo
:E1_0001: E( 1)=   -0.0249   E(BOTTOM)=   -0.994   E(TOP)=    0.944  3  4   238
             LOCAL ORBITAL
:E3_0001: E( 3)=    1.1729   E(BOTTOM)=    0.959   E(TOP)=    1.387  0  1   124
             APW+lo
:E2_0001: E( 2)=    0.9118   E(BOTTOM)=    0.738   E(TOP)= -200.000  2 -1   118
             APW+lo

       K=   0.06250   0.00000   0.06250            1
:RKM  : MATRIX SIZE   297LOs:  40  RKM= 8.46  WEIGHT= 4.00  PGR:    
       EIGENVALUES ARE:
:EIG00001:      -1.5301461   -1.4543686   -0.3509099   -0.1019605   -0.0440850
:EIG00006:      -0.0232776   -0.0001218    0.0019355    0.9627776    0.9716995
:EIG00011:       1.1098283    1.1256752    1.1300798    1.1355420    1.1538381
:EIG00016:       1.1843844    1.1955338    1.1978228    1.2032984    1.2072280
:EIG00021:       1.2088963    1.2168460    1.2237593    1.2478600    1.2550202
:EIG00026:       1.2761034    1.3557433    1.3634861    1.4373486    1.4790760
:EIG00031:       1.5281252    1.7078658    1.7271830    1.8046627    2.0989814
:EIG00036:       2.1468547    2.1822358    2.4012895    2.4269061    2.5365237
:EIG00041:       2.7332356    2.7922572    2.9446806    2.9908532    3.1414064
:EIG00046:       3.1521201    3.1671907    3.3411640    3.3470312    3.4906036
 
:EIG00051:       3.5870472    3.7098550    3.7455125    3.9034988    3.9123813
:EIG00056:       3.9838567    4.0488292    4.2388088    4.2527152    4.3194028
:EIG00061:       4.3860326    4.4860406    4.5159257    4.6069110    4.6712888
:EIG00066:       4.7670735    4.7729456    4.8319091    4.9374389    4.9560053
:EIG00071:       5.0556912    5.0934894    5.1593462    5.2395721    5.2462881
:EIG00076:       5.2576881    5.3176209    5.3238129    5.3514666    5.4473015
:EIG00081:       5.4611306    5.4983678    5.5519990    5.5836201    5.6242927
:EIG00086:       5.6846204    5.8065057    5.8810601    5.9140996    5.9491561
:EIG00091:       6.0061923    6.0637868    6.0977912    6.1239959    6.1305399
:EIG00096:       6.2566368    6.2792775    6.2880458    6.3462732    6.4385946
 
:EIG00101:       6.4451514    6.5739833    6.6381074    6.6696576    6.6813073
:EIG00106:       6.8155681    6.8218500    6.8652646    6.9523070    7.1111183
:EIG00111:       7.1967884    7.2372185    7.2783215    7.3153489    7.4306031
:EIG00116:       7.5184529    7.5866275    7.7000725    7.7003351    7.7569800
:EIG00121:       7.8183382    7.8463220    7.8927722    8.0071266    8.0261295
:EIG00126:       8.0405881    8.1303489    8.2199021    8.2220550    8.2736220
:EIG00131:       8.2930764    8.3268192    8.3564925    8.5089231    8.5365156
:EIG00136:       8.5943117
       ********************************************************

:KPT   :      NUMBER OF K-POINTS:   288

------- case.scfso --------
   0.0   0.0 angle (M,z), angle (M,x) deg
 
        SPIN-ORBIT EIGENVALUES:
     K=   0.06250   0.00000   0.06250            1
      MATRIX SIZE=  272   WEIGHT= 4.00
     EIGENVALUES ARE:
          -1.5301483   -1.5301483   -1.4543702   -1.4543702   -0.3844169
          -0.3844169   -0.1802806   -0.1802806   -0.1159750   -0.1159750
           0.0360451    0.0360451    0.0407651    0.0407651    0.0649925
           0.0649925    0.9628604    0.9628604    0.9716771    0.9716771
           1.1088775    1.1088775    1.1240740    1.1240740    1.1284017
           1.1284017    1.1343484    1.1343484    1.1519097    1.1519097
           1.1783230    1.1783230    1.1882833    1.1882833    1.1977324
           1.1977324    1.2062025    1.2062025    1.2089084    1.2089084

           1.2129977    1.2129977    1.2180719    1.2180719    1.2273173
           1.2273173    1.2502095    1.2502095    1.2568536    1.2568536
           1.2769555    1.2769555    1.3532677    1.3532677    1.3663133
           1.3663134    1.4378560    1.4378560    1.4790611    1.4790611
           1.5285222    1.5285222    1.7080476    1.7080476    1.7273377
           1.7273377    1.8048647    1.8048647    2.0994426    2.0994426
           2.1469326    2.1469326    2.1822437    2.1822437    2.4011251
           2.4011251    2.4267812    2.4267812    2.5359212    2.5359212

           2.7335183    2.7335183    2.7918195    2.7918195    2.9445508
           2.9445508    2.9904869    2.9904869    3.1413409    3.1413409
           3.1515518    3.1515518    3.1674839    3.1674839    3.3369159
           3.3369159    3.3513136    3.3513136    3.4908803    3.4908803
           3.5866768    3.5866768    3.7076040    3.7076040    3.7462786
           3.7462786    3.9032960    3.9032960    3.9118418    3.9118418
           3.9842800    3.9842800    4.0465082    4.0465082    4.2403967
           4.2403967    4.2532323    4.2532323    4.3193759    4.3193759

           4.3876745    4.3876745    4.4855647    4.4855647
       ********************************************************

------- case.scf2 --------
:GMA  : POTENTIAL AND CHARGE CUT-OFF  12.00 Ry**.5




:POS001: at.nr.  -1 position = 0.00000 0.89750 0.25000  multiplicity =  2

       lmmax 16
       lm=   0 0  1 0  2 0  2 2  3 0  3 2  4 0  4 2  4 4  5 0  5 2  5 4  6 0  6 2  6 4  6 6
:FER gutzwiller fermi energy   1.12985
:EORB          0.185110151
:SUM sum of gutz band energies          2.898032354

:CHA001: total charge inside sphere   1 =     9.797595
:PCS001: partial charges sphere =  1 s,p,d,f,px,py,pz,d-z2,d-x2y2,d-xy,d-xz,d-yz 
:QTL001: 1.9356 4.9527 0.8730 2.0334 1.6509 1.6461 1.6557 0.1718 0.1568 0.1769 0.1808 0.1868

                      vxx         vyy         vzz       up to r

:VZZ001:             0.57946     8.12073    -8.70019       2.300

:CHA  : total charge inside unit cell =      13.000000

------- case.scfc --------

        1.ATOM      Pr1                  14 CORE STATES
       CORE-FORCE in mRy/a.u. = |F|      Fx             Fy             Fz
:FCO001:   1.ATOM   1286.661766807587      0.000000000000      0.000000000000   1286.661766807587

:1S 001: 1S               -3066.408462359 Ry
:2S 001: 2S                -492.155758476 Ry
:2PP001: 2P*               -465.255526547 Ry
:2P 001: 2P                -429.857770648 Ry
:3S 001: 3S                -105.246272194 Ry
:3PP001: 3P*                -93.784147111 Ry
:3P 001: 3P                 -86.776301162 Ry
:3DD001: 3D*                -66.702929877 Ry
:3D 001: 3D                 -65.191378765 Ry
:4S 001: 4S                 -19.924127676 Ry
:4PP001: 4P*                -15.631038294 Ry
:4P 001: 4P                 -14.103806424 Ry
:4DD001: 4D*                 -7.037108909 Ry
:4D 001: 4D                  -6.767784355 Ry

------- case.scfm --------
:CINT001 Core Integral Atom   1   45.998444

       DENSITY AT NUCLEUS
        JATOM        VALENCE       SEMI-CORE          CORE           TOTAL
:RTO001:   1      641.992805        0.000000   656825.040641   657467.033446
     
       CHARGES OF NEW CHARGE DENSITY
:NTO   : INTERSTITIAL CHARGE =     6.405486
:NPC   : PW Pseudocharge     =    17.592659
:NTO001: CHARGE SPHERE  1    =    55.796039

:NEC01: NUCLEAR AND ELECTRONIC CHARGE    118.00000   117.99757
     
       CHARGES OF OLD CHARGE DENSITY
:OTO   : INTERSTITIAL CHARGE =     6.336951
:OPC   : PW Pseudocharge     =    17.559084
:OTO001: CHARGE SPHERE  1    =    55.831524

:NEC02: NUCLEAR AND ELECTRONIC CHARGE    118.00000   118.00000
     
       CONVERGENCE TEST
:DTO001: DIFFERENCE IN SPHERE  1 =  0.0679968

:DIS  :  CHARGE DISTANCE       ( 0.0679968 for atom    1 spin 1)      0.0679968
 PW Mixed is          316
 
******************************************************
* MULTISECANT MIXING VER9 RELEASE 10.4.0              *
* Standard Mode with controls                        *
* Fixed density scale                                *
* Regularization       1.000E-04                     *
* Trust Upper Limit    5.000E+00                     *
* Max Number of Memory Steps    8                    *
******************************************************
 
:PWTMP   1.8960E+02  1.9467E+02  2.9153E+02
:PLANE:  PW TOTAL      6.0203 DISTAN   1.89E-02  3.14E-01 %
:CHARG:  CLM/ATOM   1381.9264 DISTAN   9.63E-02  6.97E-03 %
 
Step History
        DMIX         DMIXT        Red     Pred      Trust     Lambda    MagRel    MagAbs     Beta
  1   3.5000E-02   3.5000E-02 -1.00E+00  1.00E+00 -1.00E+01  1.00E+00  3.50E-02  3.50E-02  1.00E+00
:INFO :  Note, Pratt in use
:TRUST:  Step 3.75E-02  Charge 7.50E-02 (e) CTO  2.50E-01 (e) PW  3.50E-01 (e)
:DIRM :  MEMORY  0/ 8 SCALE   1.000
Performing Pseudo Compensation
Final Pseudo Compensation Rescaling     1.00000E+00
:MIX  :   PRATT  REGULARIZATION:  1.00E-04 GREED: 0.02500                  
     
       CHARGES OF MIXED CHARGE DENSITY
:CTO   : INTERSTITIAL CHARGE =     6.338725
:CPC   : PW Pseudocharge     =    17.569981
:CTO001: CHARGE SPHERE  1    =    55.830637

:NEC03: NUCLEAR AND ELECTRONIC CHARGE    118.00000   118.00000

PW CHANGE     H    K    L      Current       Change    Residue
:PTO001:      0    0    0  8.20116945E-02  4.347E-05  3.815E-04
:PTO003:      0    2    0  1.88155005E-02  1.213E-05 -2.289E-05
:PTO004:     -1    1    0  8.81449882E-02  6.564E-05  3.105E-05
:PTO005:      0    2   -1 -1.00618462E-01 -7.729E-05 -4.828E-05
:PTO006:      0    0   -2 -5.22494472E-02 -4.007E-05 -2.219E-05
:PTO007:     -1    1   -1 -1.04072631E-01 -8.498E-05 -1.816E-05
:PTO008:      0    2   -2 -1.42761927E-02 -1.483E-05 -2.150E-05
:PTO009:     -1    1   -2 -7.09393582E-02 -7.246E-05 -9.701E-06
:PTO011:     -1    3    0 -1.03001691E-02 -1.224E-05 -2.015E-05
:PTO012:     -1    3   -1 -4.18566658E-02 -5.336E-05 -2.306E-05
:PTO013:      0    4    0 -6.91641890E-03 -1.015E-05 -1.275E-05
:PTO014:      0    2   -3  1.60892953E-02  2.349E-05  5.373E-05

:ENE  : ********** TOTAL ENERGY IN Ry =       -36944.19016359

       TOTAL FORCE IN mRy/a.u. = |F|     Fx             Fy             Fz     with/without FOR in case.in2
:FOR001:   1.ATOM          2.322          0.000          0.000         -2.322 partial forces
       TOTAL FORCE WITH RESPECT TO GLOBAL CARTESIAN COORDINATES:
:FCA001:   1.ATOM                         0.000         -2.322          0.000 partial forces
       TOTAL FORCE WITH RESPECT TO THE GLOBAL COORDINATE SYSTEM:
:FGL001:   1.ATOM                 0.000000000    -2.322179942     0.000000000 partial forces

------- case.scf0 --------
 Flat Integration
 New Mode for Coulomb Integral
 Consistent 3/8+Simpson combinations
 Extension of core to zero
 LDM version in phi
 Fifth-order quadrature in outwin


            ---------
:ITE077: 77. ITERATION
            ---------

:NATO :    1 INDEPENDENT AND    2 TOTAL ATOMS IN UNITCELL
       SUBSTANCE: aU                                                          

       LATTICE                      = CXY 
:POT  : POTENTIAL OPTION EX_LDA EC_LDA VX_LDA VC_LDA
:LAT  : LATTICE CONSTANTS=  5.47380 11.10771  9.58952    1.571    1.571    1.571
:VOL  : UNIT CELL VOLUME =     291.52801
       MODE OF CALCULATION IS       = RELA
       NON-SPINPOLARIZED CALCULATION
:IFFT  : FFT-parameters:   48   90   80 Factor: 2.00


   CONVERGENCE PARAMETER FOR PSEUDOCHARGE: NCON=  9
   MAXIMAL VALUE OF RMT(JATOM)*ABSK(NKK) : RK  =27.59298


:VKCOUL :  VK-COUL convergence: 0.184E-06
       ATOMNUMBER=  1 Pr1        VCOUL-ZERO =  0.58467E+00
:EFG001:                        EFG         =    -8.34941   *10**21  V / m**2
                               V20  TOT/SRF=    -7.23080    -0.06992
                               V22  TOT/SRF=    -3.85298    -0.00878
                               V22M TOT/SRF=     0.00000     0.00000
                               V21  TOT/SRF=     0.00000     0.00000
                               V21M TOT/SRF=     0.00000     0.00000

              0.32173    0.00000    0.00000        0.32173    0.00000    0.00000
              0.00000    8.02768    0.00000        0.00000    8.02768    0.00000
              0.00000    0.00000   -8.34941        0.00000    0.00000   -8.34941

         MAIN DIRECTIONS OF THE EFG   1.0000  0.0000  0.0000
                                      0.0000  1.0000  0.0000
                                      0.0000  0.0000  1.0000
:ANG001:  ANGLE WITH OLD X-AXIS =         0.0

:ETA001:                         ASYMM. ETA =     0.92293


     HELLMANN-FEYNMAN-FORCE IN mRy/a.u. = |F|  Fx       Fy             Fz
:FHF001:   1.ATOM   1289.817299388549      0.000000000000      0.000000000000  -1289.817299388549

:FIT001: LUSE= 13 SIGMA OF V-XC FIT FOR ATOM  1  0.5366428E-04
:FIT001: LUSE= 13 SIGMA OF V-XC FIT FOR ATOM  1  0.5366428E-04
:DEN  : DENSITY INTEGRAL  =        -14214.14689287   (Ry)
       ELS_POTENTIAL_AT Z=0 and Z=0.5:   0.98152   0.98152
       ELS_POTENTIAL_AT Y=0 and Y=0.5:  -0.00157  -0.00157
:VZERO:v0,v0c,v0x   0.25530   0.98152  -0.72621 v5,v5c,v5x   0.25530   0.98152  -0.72621
:VZERY:v0,v0c,v0x  -0.95212  -0.00157  -0.95055 v5,v5c,v5x  -0.95212  -0.00157  -0.95055
:VZERX:v0,v0c,v0x  -1.28492  -0.39586  -0.88906 v5,v5c,v5x  -1.28492  -0.39586  -0.88906

------- case.scf1 --------
:LMAX-WF:   10   Non-Spherical LMAX:   4

          ATOMIC SPHERE DEPENDENT PARAMETERS FOR ATOM  Pr1       
:e__0001: OVERALL ENERGY PARAMETER IS    0.9118
          OVERALL BASIS SET ON ATOM IS LAPW
:E0_0001: E( 0)=    0.9118
             APW+lo
:E0_0001: E( 0)=   -1.4906   E(BOTTOM)=   -2.135   E(TOP)=   -0.846  4  5   234
             LOCAL ORBITAL
:E1_0001: E( 1)=    1.3118
             APW+lo
:E1_0001: E( 1)=   -0.0253   E(BOTTOM)=   -0.995   E(TOP)=    0.944  3  4   237
             LOCAL ORBITAL
:E3_0001: E( 3)=    1.1720   E(BOTTOM)=    0.959   E(TOP)=    1.385  0  1   124
             APW+lo
:E2_0001: E( 2)=    0.9118   E(BOTTOM)=    0.738   E(TOP)= -200.000  2 -1   118
             APW+lo

       K=   0.06250   0.00000   0.06250            1
:RKM  : MATRIX SIZE   297LOs:  40  RKM= 8.46  WEIGHT= 4.00  PGR:    
       EIGENVALUES ARE:
:EIG00001:      -1.5305011   -1.4547645   -0.3510544   -0.1022057   -0.0443561
:EIG00006:      -0.0235619   -0.0004157    0.0016400    0.9628807    0.9717988
:EIG00011:       1.1094145    1.1250275    1.1293236    1.1348902    1.1531372
:EIG00016:       1.1835000    1.1946341    1.1969319    1.2024012    1.2064677
:EIG00021:       1.2082362    1.2160278    1.2227966    1.2468441    1.2541846
:EIG00026:       1.2754844    1.3556780    1.3632192    1.4372667    1.4789957
:EIG00031:       1.5280312    1.7077546    1.7271384    1.8045248    2.0989573
:EIG00036:       2.1468375    2.1822558    2.4012706    2.4269838    2.5365472
:EIG00041:       2.7332609    2.7923065    2.9447613    2.9908848    3.1414823
:EIG00046:       3.1522496    3.1672564    3.3412866    3.3471181    3.4907489
 
:EIG00051:       3.5871308    3.7099327    3.7455274    3.9034938    3.9124717
:EIG00056:       3.9838995    4.0488880    4.2388764    4.2526559    4.3195202
:EIG00061:       4.3861644    4.4861295    4.5160739    4.6069077    4.6713127
:EIG00066:       4.7672242    4.7731044    4.8320739    4.9375705    4.9561193
:EIG00071:       5.0558264    5.0936138    5.1594318    5.2397242    5.2464493
:EIG00076:       5.2578371    5.3177930    5.3239638    5.3516336    5.4474779
:EIG00081:       5.4613060    5.4985441    5.5521955    5.5837881    5.6244409
:EIG00086:       5.6848478    5.8066899    5.8812145    5.9143164    5.9493280
:EIG00091:       6.0063682    6.0639540    6.0979123    6.1241335    6.1306126
:EIG00096:       6.2568250    6.2794808    6.2882083    6.3464102    6.4387262
 
:EIG00101:       6.4452933    6.5741477    6.6382637    6.6698592    6.6814956
:EIG00106:       6.8157502    6.8220857    6.8653992    6.9524709    7.1113358
:EIG00111:       7.1968918    7.2374070    7.2785310    7.3155534    7.4307566
:EIG00116:       7.5186919    7.5867359    7.7001602    7.7004120    7.7571240
:EIG00121:       7.8185173    7.8464671    7.8929492    8.0073184    8.0263197
:EIG00126:       8.0407867    8.1305240    8.2200804    8.2222748    8.2738478
:EIG00131:       8.2932587    8.3270274    8.3566746    8.5091445    8.5367118
:EIG00136:       8.5944967
       ********************************************************

:KPT   :      NUMBER OF K-POINTS:   288

------- case.scfso --------
   0.0   0.0 angle (M,z), angle (M,x) deg
 
        SPIN-ORBIT EIGENVALUES:
     K=   0.06250   0.00000   0.06250            1
      MATRIX SIZE=  272   WEIGHT= 4.00
     EIGENVALUES ARE:
          -1.5305033   -1.5305033   -1.4547661   -1.4547661   -0.3845932
          -0.3845932   -0.1805907   -0.1805907   -0.1162127   -0.1162127
           0.0357799    0.0357799    0.0404951    0.0404951    0.0647162
           0.0647162    0.9629633    0.9629633    0.9717760    0.9717760
           1.1084490    1.1084491    1.1234165    1.1234165    1.1276402
           1.1276402    1.1336884    1.1336884    1.1511959    1.1511959
           1.1774152    1.1774152    1.1874218    1.1874218    1.1968902
           1.1968902    1.2054635    1.2054635    1.2081107    1.2081107

           1.2122146    1.2122146    1.2172355    1.2172355    1.2263808
           1.2263808    1.2491999    1.2491999    1.2560172    1.2560172
           1.2763244    1.2763245    1.3531372    1.3531373    1.3661016
           1.3661017    1.4377744    1.4377744    1.4789794    1.4789794
           1.5284280    1.5284280    1.7079365    1.7079365    1.7272924
           1.7272924    1.8047271    1.8047271    2.0994185    2.0994185
           2.1469153    2.1469153    2.1822635    2.1822635    2.4011067
           2.4011067    2.4268584    2.4268584    2.5359448    2.5359448

           2.7335437    2.7335437    2.7918688    2.7918688    2.9446306
           2.9446307    2.9905192    2.9905192    3.1414176    3.1414176
           3.1516801    3.1516801    3.1675500    3.1675500    3.3370280
           3.3370280    3.3514107    3.3514107    3.4910254    3.4910254
           3.5867604    3.5867604    3.7076779    3.7076779    3.7462972
           3.7462972    3.9032912    3.9032912    3.9119318    3.9119318
           3.9843240    3.9843240    4.0465672    4.0465672    4.2404623
           4.2404623    4.2531774    4.2531774    4.3194922    4.3194922

           4.3878056    4.3878056    4.4856524    4.4856524
       ********************************************************

------- case.scf2 --------
:GMA  : POTENTIAL AND CHARGE CUT-OFF  12.00 Ry**.5




:POS001: at.nr.  -1 position = 0.00000 0.89750 0.25000  multiplicity =  2

       lmmax 16
       lm=   0 0  1 0  2 0  2 2  3 0  3 2  4 0  4 2  4 4  5 0  5 2  5 4  6 0  6 2  6 4  6 6
:FER gutzwiller fermi energy   1.12989
:EORB          0.180711054
:SUM sum of gutz band energies          2.894870830

:CHA001: total charge inside sphere   1 =     9.799227
:PCS001: partial charges sphere =  1 s,p,d,f,px,py,pz,d-z2,d-x2y2,d-xy,d-xz,d-yz 
:QTL001: 1.9357 4.9531 0.8730 2.0345 1.6510 1.6463 1.6558 0.1718 0.1568 0.1769 0.1808 0.1868

                      vxx         vyy         vzz       up to r

:VZZ001:             0.58256     8.11211    -8.69467       2.300

:CHA  : total charge inside unit cell =      13.000000

------- case.scfc --------

        1.ATOM      Pr1                  14 CORE STATES
       CORE-FORCE in mRy/a.u. = |F|      Fx             Fy             Fz
:FCO001:   1.ATOM   1287.351384870713      0.000000000000      0.000000000000   1287.351384870713

:1S 001: 1S               -3066.410484853 Ry
:2S 001: 2S                -492.157795497 Ry
:2PP001: 2P*               -465.257560479 Ry
:2P 001: 2P                -429.859805682 Ry
:3S 001: 3S                -105.248274751 Ry
:3PP001: 3P*                -93.786153626 Ry
:3P 001: 3P                 -86.778299520 Ry
:3DD001: 3D*                -66.704942340 Ry
:3D 001: 3D                 -65.193389319 Ry
:4S 001: 4S                 -19.925664498 Ry
:4PP001: 4P*                -15.632545087 Ry
:4P 001: 4P                 -14.105267003 Ry
:4DD001: 4D*                 -7.038486934 Ry
:4D 001: 4D                  -6.769146555 Ry

------- case.scfm --------
:CINT001 Core Integral Atom   1   45.998445

       DENSITY AT NUCLEUS
        JATOM        VALENCE       SEMI-CORE          CORE           TOTAL
:RTO001:   1      642.087846        0.000000   656825.135188   657467.223034
     
       CHARGES OF NEW CHARGE DENSITY
:NTO   : INTERSTITIAL CHARGE =     6.402322
:NPC   : PW Pseudocharge     =    17.592257
:NTO001: CHARGE SPHERE  1    =    55.797672

:NEC01: NUCLEAR AND ELECTRONIC CHARGE    118.00000   117.99767
     
       CHARGES OF OLD CHARGE DENSITY
:OTO   : INTERSTITIAL CHARGE =     6.338726
:OPC   : PW Pseudocharge     =    17.569981
:OTO001: CHARGE SPHERE  1    =    55.830637

:NEC02: NUCLEAR AND ELECTRONIC CHARGE    118.00000   118.00000
     
       CONVERGENCE TEST
:DTO001: DIFFERENCE IN SPHERE  1 =  0.0632096

:DIS  :  CHARGE DISTANCE       ( 0.0632096 for atom    1 spin 1)      0.0632096
 PW Mixed is          316
 
******************************************************
* MULTISECANT MIXING VER9 RELEASE 10.4.0              *
* Slow Mode, cautious                                *
* Fixed density scale                                *
* Regularization       1.000E-04                     *
* Step Trust Radius    0.75000                       *
* Trust Upper Limit    2.000E+00                     *
* Max Number of Memory Steps   12                    *
******************************************************
 
:PWTMP   1.8960E+02  1.9467E+02  2.9153E+02
:PLANE:  PW TOTAL      6.0245 DISTAN   1.61E-02  2.67E-01 %
:CHARG:  CLM/ATOM   1381.9263 DISTAN   8.95E-02  6.48E-03 %
 
Step History
        DMIX         DMIXT        Red     Pred      Trust     Lambda    MagRel    MagAbs     Beta
  1   3.5000E-02   3.5000E-02 -1.00E+00  1.00E+00 -1.00E+01  1.00E+00  3.50E-02  3.50E-02  1.00E+00
  2   2.5000E-02   2.5000E-02 -1.00E+00  1.00E+00 -1.00E+01  1.00E+00  2.50E-02  2.45E-03  1.00E+00
:JACOBIANS    1.266E-01   1.154E-01
  
:NORMS:  1/Froebius, Min, Max, Used   0.3401E+00  0.3401E+00  0.4796E+00  0.3401E+00
:INFO :  Number of Memory Steps    1 Skipping    0
:PREDicted Charge, CTotal, PW Trust    8.755E-03   1.751E-02   8.133E-02
:PREDicted DMix, Beta, BLim   1.0000E-02  9.8692E+00  7.0698E-01

Eigenvalues, unscaled except for SY+YY
   #     SY Real        SY Imag          SS             YY         SY+YY Real      SY+YY Imag
   1   4.795558E-01   0.000000E+00   3.401478E-01   1.000000E+00   1.479556E+00   0.000000E+00
 
:BLIM :  VZERO Control Off
:TRUST:  Step 6.97E-01  Charge 7.50E-02 (e) CTO  2.50E-01 (e) PW  3.50E-01 (e)
:DIRM :  MEMORY  1/12 SCALE   1.000 RED  0.93 PRED  1.00 NEXT  0.56 
:TRAVE:  Charge 8.08E-03 (e) CTO  1.62E-02 (e) PW  7.24E-02 (e)
:DIRP :  |MSR1|= 3.789E-02 |PRATT|= 1.608E-02 ANGLE=  65.0 DEGREES
:DIRQ :  |MSR1|= 2.194E-02 |PRATT|= 8.953E-02 ANGLE=   0.3 DEGREES
:DIRT :  |MSR1|= 4.378E-02 |PRATT|= 9.096E-02 ANGLE=  56.1 DEGREES
:MIX  :   MSR1   REGULARIZATION:  1.00E-04 GREED: 0.02000  Newton 1.00  0.4813                
     
       CHARGES OF MIXED CHARGE DENSITY
:CTO   : INTERSTITIAL CHARGE =     6.354886
:CPC   : PW Pseudocharge     =    17.665149
:CTO001: CHARGE SPHERE  1    =    55.822557

:NEC03: NUCLEAR AND ELECTRONIC CHARGE    118.00000   118.00000

PW CHANGE     H    K    L      Current       Change    Residue
:PTO001:      0    0    0  8.23935736E-02  3.819E-04  3.246E-04
:PTO003:      0    2    0  1.89208053E-02  1.053E-04 -3.222E-05
:PTO004:     -1    1    0  8.87163092E-02  5.713E-04 -2.694E-05
:PTO005:      0    2   -1 -1.01291504E-01 -6.730E-04  1.972E-05
:PTO006:      0    0   -2 -5.25983638E-02 -3.489E-04  1.262E-05
:PTO007:     -1    1   -1 -1.04812050E-01 -7.394E-04  5.611E-05
:PTO008:      0    2   -2 -1.44057183E-02 -1.295E-04 -9.123E-06
:PTO009:     -1    1   -2 -7.15700248E-02 -6.307E-04  5.202E-05
:PTO011:     -1    3    0 -1.04068801E-02 -1.067E-04 -8.846E-06
:PTO012:     -1    3   -1 -4.23217593E-02 -4.651E-04  2.069E-05
:PTO013:      0    4    0 -7.00497665E-03 -8.856E-05 -4.119E-06
:PTO014:      0    2   -3  1.62946671E-02  2.054E-04  3.326E-05

:ENE  : ********** TOTAL ENERGY IN Ry =       -36944.19006847

       TOTAL FORCE IN mRy/a.u. = |F|     Fx             Fy             Fz     with/without FOR in case.in2
:FOR001:   1.ATOM          2.466          0.000          0.000         -2.466 partial forces
       TOTAL FORCE WITH RESPECT TO GLOBAL CARTESIAN COORDINATES:
:FCA001:   1.ATOM                         0.000         -2.466          0.000 partial forces
       TOTAL FORCE WITH RESPECT TO THE GLOBAL COORDINATE SYSTEM:
:FGL001:   1.ATOM                 0.000000000    -2.465914518     0.000000000 partial forces

------- case.scf0 --------
 Flat Integration
 New Mode for Coulomb Integral
 Consistent 3/8+Simpson combinations
 Extension of core to zero
 LDM version in phi
 Fifth-order quadrature in outwin


            ---------
:ITE078: 78. ITERATION
            ---------

:NATO :    1 INDEPENDENT AND    2 TOTAL ATOMS IN UNITCELL
       SUBSTANCE: aU                                                          

       LATTICE                      = CXY 
:POT  : POTENTIAL OPTION EX_LDA EC_LDA VX_LDA VC_LDA
:LAT  : LATTICE CONSTANTS=  5.47380 11.10771  9.58952    1.571    1.571    1.571
:VOL  : UNIT CELL VOLUME =     291.52801
       MODE OF CALCULATION IS       = RELA
       NON-SPINPOLARIZED CALCULATION
:IFFT  : FFT-parameters:   48   90   80 Factor: 2.00


   CONVERGENCE PARAMETER FOR PSEUDOCHARGE: NCON=  9
   MAXIMAL VALUE OF RMT(JATOM)*ABSK(NKK) : RK  =27.59298


:VKCOUL :  VK-COUL convergence: 0.184E-06
       ATOMNUMBER=  1 Pr1        VCOUL-ZERO =  0.58670E+00
:EFG001:                        EFG         =    -8.45492   *10**21  V / m**2
                               V20  TOT/SRF=    -7.32218    -0.07022
                               V22  TOT/SRF=    -3.83155    -0.00863
                               V22M TOT/SRF=     0.00000     0.00000
                               V21  TOT/SRF=     0.00000     0.00000
                               V21M TOT/SRF=     0.00000     0.00000

              0.39591    0.00000    0.00000        0.39591    0.00000    0.00000
              0.00000    8.05901    0.00000        0.00000    8.05901    0.00000
              0.00000    0.00000   -8.45492        0.00000    0.00000   -8.45492

         MAIN DIRECTIONS OF THE EFG   1.0000  0.0000  0.0000
                                      0.0000  1.0000  0.0000
                                      0.0000  0.0000  1.0000
:ANG001:  ANGLE WITH OLD X-AXIS =         0.0

:ETA001:                         ASYMM. ETA =     0.90635


     HELLMANN-FEYNMAN-FORCE IN mRy/a.u. = |F|  Fx       Fy             Fz
:FHF001:   1.ATOM   1297.231329437559      0.000000000000      0.000000000000  -1297.231329437559

:FIT001: LUSE= 13 SIGMA OF V-XC FIT FOR ATOM  1  0.5398508E-04
:FIT001: LUSE= 13 SIGMA OF V-XC FIT FOR ATOM  1  0.5398508E-04
:DEN  : DENSITY INTEGRAL  =        -14212.58469045   (Ry)
       ELS_POTENTIAL_AT Z=0 and Z=0.5:   0.98468   0.98468
       ELS_POTENTIAL_AT Y=0 and Y=0.5:  -0.00156  -0.00156
:VZERO:v0,v0c,v0x   0.25787   0.98468  -0.72681 v5,v5c,v5x   0.25787   0.98468  -0.72681
:VZERY:v0,v0c,v0x  -0.95312  -0.00156  -0.95156 v5,v5c,v5x  -0.95312  -0.00156  -0.95156
:VZERX:v0,v0c,v0x  -1.28759  -0.39737  -0.89021 v5,v5c,v5x  -1.28759  -0.39737  -0.89021

------- case.scf1 --------
:LMAX-WF:   10   Non-Spherical LMAX:   4

          ATOMIC SPHERE DEPENDENT PARAMETERS FOR ATOM  Pr1       
:e__0001: OVERALL ENERGY PARAMETER IS    0.9118
          OVERALL BASIS SET ON ATOM IS LAPW
:E0_0001: E( 0)=    0.9118
             APW+lo
:E0_0001: E( 0)=   -1.4947   E(BOTTOM)=   -2.138   E(TOP)=   -0.852  4  5   233
             LOCAL ORBITAL
:E1_0001: E( 1)=    1.3118
             APW+lo
:E1_0001: E( 1)=   -0.0286   E(BOTTOM)=   -0.996   E(TOP)=    0.939  3  4   241
             LOCAL ORBITAL
:E3_0001: E( 3)=    1.1629   E(BOTTOM)=    0.951   E(TOP)=    1.375  0  1   124
             APW+lo
:E2_0001: E( 2)=    0.9118   E(BOTTOM)=    0.737   E(TOP)= -200.000  2 -1   119
             APW+lo

       K=   0.06250   0.00000   0.06250            1
:RKM  : MATRIX SIZE   297LOs:  40  RKM= 8.46  WEIGHT= 4.00  PGR:    
       EIGENVALUES ARE:
:EIG00001:      -1.5338066   -1.4584407   -0.3524446   -0.1045099   -0.0468945
:EIG00006:      -0.0262211   -0.0031639   -0.0011204    0.9637520    0.9726232
:EIG00011:       1.1053766    1.1189568    1.1223263    1.1287840    1.1466555
:EIG00016:       1.1753534    1.1863186    1.1886779    1.1941460    1.1986819
:EIG00021:       1.2027048    1.2085359    1.2139395    1.2375301    1.2466846
:EIG00026:       1.2700853    1.3550655    1.3608255    1.4364979    1.4782275
:EIG00031:       1.5271320    1.7066906    1.7266736    1.8032135    2.0986985
:EIG00036:       2.1466406    2.1823902    2.4010331    2.4276366    2.5367020
:EIG00041:       2.7334334    2.7926987    2.9454338    2.9911118    3.1421109
:EIG00046:       3.1533654    3.1677873    3.3423370    3.3478453    3.4920067
 
:EIG00051:       3.5878254    3.7105742    3.7455989    3.9033814    3.9132272
:EIG00056:       3.9842242    4.0493590    4.2394290    4.2520459    4.3205213
:EIG00061:       4.3872920    4.4868807    4.5173574    4.6068094    4.6714625
:EIG00066:       4.7685302    4.7744783    4.8335061    4.9387017    4.9570946
:EIG00071:       5.0569881    5.0946831    5.1601412    5.2410453    5.2478491
:EIG00076:       5.2591287    5.3192924    5.3252696    5.3530865    5.4490179
:EIG00081:       5.4628357    5.5000837    5.5539160    5.5852522    5.6257258
:EIG00086:       5.6868515    5.8083004    5.8825475    5.9162224    5.9508299
:EIG00091:       6.0079029    6.0654060    6.0989332    6.1253307    6.1312028
:EIG00096:       6.2584755    6.2812711    6.2896216    6.3475890    6.4398601
 
:EIG00101:       6.4465164    6.5755764    6.6396143    6.6716263    6.6831455
:EIG00106:       6.8173403    6.8241603    6.8665594    6.9538960    7.1132474
:EIG00111:       7.1977642    7.2390541    7.2803680    7.3173473    7.4320830
:EIG00116:       7.5207982    7.5876494    7.7008868    7.7010348    7.7583661
:EIG00121:       7.8200775    7.8477178    7.8944908    8.0089983    8.0279804
:EIG00126:       8.0425258    8.1320483    8.2216344    8.2242069    8.2758383
:EIG00131:       8.2948480    8.3288555    8.3582626    8.5110913    8.5384273
:EIG00136:       8.5961123
       ********************************************************

:KPT   :      NUMBER OF K-POINTS:   288

------- case.scfso --------
   0.0   0.0 angle (M,z), angle (M,x) deg
 
        SPIN-ORBIT EIGENVALUES:
     K=   0.06250   0.00000   0.06250            1
      MATRIX SIZE=  272   WEIGHT= 4.00
     EIGENVALUES ARE:
          -1.5338089   -1.5338089   -1.4584422   -1.4584422   -0.3862738
          -0.3862738   -0.1834851   -0.1834851   -0.1184483   -0.1184483
           0.0332936    0.0332936    0.0379667    0.0379667    0.0621290
           0.0621290    0.9638332    0.9638332    0.9725965    0.9725965
           1.1042687    1.1042687    1.1172542    1.1172542    1.1205953
           1.1205953    1.1275086    1.1275086    1.1445901    1.1445901
           1.1690517    1.1690517    1.1794974    1.1794974    1.1890016
           1.1890016    1.1981091    1.1981091    1.2007967    1.2007967

           1.2053177    1.2053177    1.2096087    1.2096087    1.2177772
           1.2177772    1.2399411    1.2399411    1.2484964    1.2484964
           1.2708082    1.2708082    1.3518850    1.3518850    1.3642606
           1.3642606    1.4370090    1.4370090    1.4781991    1.4781991
           1.5275279    1.5275279    1.7068737    1.7068737    1.7268215
           1.7268215    1.8034187    1.8034187    2.0991594    2.0991594
           2.1467171    2.1467171    2.1823969    2.1823969    2.4008736
           2.4008736    2.4275073    2.4275073    2.5361005    2.5361005

           2.7337165    2.7337165    2.7922604    2.7922604    2.9452953
           2.9452953    2.9907522    2.9907522    3.1420531    3.1420531
           3.1527848    3.1527848    3.1680839    3.1680839    3.3379819
           3.3379819    3.3522329    3.3522329    3.4922811    3.4922811
           3.5874546    3.5874546    3.7082844    3.7082844    3.7464025
           3.7464025    3.9031810    3.9031810    3.9126839    3.9126839
           3.9846602    3.9846602    4.0470402    4.0470402    4.2409947
           4.2409947    4.2526106    4.2526106    4.3204834    4.3204834

           4.3889275    4.3889275    4.4863925    4.4863925
       ********************************************************

------- case.scf2 --------
:GMA  : POTENTIAL AND CHARGE CUT-OFF  12.00 Ry**.5




:POS001: at.nr.  -1 position = 0.00000 0.89750 0.25000  multiplicity =  2

       lmmax 16
       lm=   0 0  1 0  2 0  2 2  3 0  3 2  4 0  4 2  4 4  5 0  5 2  5 4  6 0  6 2  6 4  6 6
:FER gutzwiller fermi energy   1.12933
:EORB          0.144316304
:SUM sum of gutz band energies          2.860440032

:CHA001: total charge inside sphere   1 =     9.819755
:PCS001: partial charges sphere =  1 s,p,d,f,px,py,pz,d-z2,d-x2y2,d-xy,d-xz,d-yz 
:QTL001: 1.9359 4.9565 0.8703 2.0542 1.6522 1.6474 1.6569 0.1711 0.1563 0.1765 0.1802 0.1863

                      vxx         vyy         vzz       up to r

:VZZ001:             0.55404     8.01512    -8.56916       2.300

:CHA  : total charge inside unit cell =      13.000000

------- case.scfc --------

        1.ATOM      Pr1                  14 CORE STATES
       CORE-FORCE in mRy/a.u. = |F|      Fx             Fy             Fz
:FCO001:   1.ATOM   1293.486761176878      0.000000000000      0.000000000000   1293.486761176878

:1S 001: 1S               -3066.428706953 Ry
:2S 001: 2S                -492.176198905 Ry
:2PP001: 2P*               -465.275924900 Ry
:2P 001: 2P                -429.878184217 Ry
:3S 001: 3S                -105.266459606 Ry
:3PP001: 3P*                -93.804369306 Ry
:3P 001: 3P                 -86.796446199 Ry
:3DD001: 3D*                -66.723203506 Ry
:3D 001: 3D                 -65.211634951 Ry
:4S 001: 4S                 -19.939698286 Ry
:4PP001: 4P*                -15.646306871 Ry
:4P 001: 4P                 -14.118611599 Ry
:4DD001: 4D*                 -7.051083619 Ry
:4D 001: 4D                  -6.781600179 Ry

------- case.scfm --------
:CINT001 Core Integral Atom   1   45.998456

       DENSITY AT NUCLEUS
        JATOM        VALENCE       SEMI-CORE          CORE           TOTAL
:RTO001:   1      642.815060        0.000000   656825.969904   657468.784964
     
       CHARGES OF NEW CHARGE DENSITY
:NTO   : INTERSTITIAL CHARGE =     6.361173
:NPC   : PW Pseudocharge     =    17.581369
:NTO001: CHARGE SPHERE  1    =    55.818211

:NEC01: NUCLEAR AND ELECTRONIC CHARGE    118.00000   117.99760
     
       CHARGES OF OLD CHARGE DENSITY
:OTO   : INTERSTITIAL CHARGE =     6.354886
:OPC   : PW Pseudocharge     =    17.665149
:OTO001: CHARGE SPHERE  1    =    55.822557

:NEC02: NUCLEAR AND ELECTRONIC CHARGE    118.00000   118.00000
     
       CONVERGENCE TEST
:DTO001: DIFFERENCE IN SPHERE  1 =  0.0204544

:DIS  :  CHARGE DISTANCE       ( 0.0204544 for atom    1 spin 1)      0.0204544
 PW Mixed is          316
 
******************************************************
* MULTISECANT MIXING VER9 RELEASE 10.4.0              *
* Slow Mode, cautious                                *
* Fixed density scale                                *
* Regularization       1.000E-04                     *
* Step Trust Radius    0.75000                       *
* Trust Upper Limit    2.000E+00                     *
* Max Number of Memory Steps   12                    *
******************************************************
 
:PWTMP   1.8960E+02  1.9467E+02  2.9153E+02
:PLANE:  PW TOTAL      6.0608 DISTAN   3.16E-02  5.21E-01 %
:CHARG:  CLM/ATOM   1381.9258 DISTAN   2.91E-02  2.11E-03 %
 
Step History
        DMIX         DMIXT        Red     Pred      Trust     Lambda    MagRel    MagAbs     Beta
  1   3.5000E-02   3.5000E-02 -1.00E+00  1.00E+00 -1.00E+01  1.00E+00  3.50E-02  3.50E-02  1.00E+00
  2   2.5000E-02   2.5000E-02  9.27E-01  1.00E+00 -1.00E+01  1.00E+00  2.50E-02  2.45E-03  1.00E+00
  3   2.0000E-02   2.0000E-02 -1.00E+00  5.58E-01  6.97E-01  1.00E+00  4.81E-01  4.38E-02  1.00E+00
:JACOBIANS    1.685E-01   1.592E-01
  
:NORMS:  1/Froebius, Min, Max, Used   0.4878E+00  0.4063E+00  0.7502E+00  0.4878E+00
:INFO :  Number of Memory Steps    2 Skipping    0
:INFO :  SLambda=    0.9807488227  Max    0.9807488227
:PREDicted Charge, CTotal, PW Trust    6.334E-03   1.267E-02   5.568E-02
:PREDicted DMix, Beta, BLim   2.1714E-02  7.7464E-01  5.0917E-01

Eigenvalues, unscaled except for SY+YY
   #     SY Real        SY Imag          SS             YY         SY+YY Real      SY+YY Imag
   1   7.728474E-01   0.000000E+00   4.758185E-01   1.999952E+00   2.757910E+00   0.000000E+00
   2   5.851196E-06   0.000000E+00   6.206537E-07   4.833672E-05   6.456379E-05   0.000000E+00
 
:INFO :  Singular value  2.758E+00 Weight  1.000E+00 Projection  1.027E-02
:INFO :  Singular value  6.456E-05 Weight  9.438E-02 Projection -5.527E-01
:RANK :  ACTIVE   1.09/2  =  54.72 % ; YY RANK   1.06/2  =  52.76 %
 
:DLIM :  Beta Active  8.310E-01
:BLIM :  VZERO Control Off
:TRUST:  Step 8.71E-01  Charge 7.50E-02 (e) CTO  2.50E-01 (e) PW  3.50E-01 (e)
:DIRM :  MEMORY  2/12 SCALE   1.000 RED  0.47 PRED  0.56 NEXT  0.90 BETA  0.83
:TRAVE:  Charge 4.69E-03 (e) CTO  9.37E-03 (e) PW  4.36E-02 (e)
:DIRP :  |MSR1|= 8.090E-03 |PRATT|= 3.156E-02 ANGLE=   7.7 DEGREES
:DIRQ :  |MSR1|= 3.568E-03 |PRATT|= 2.914E-02 ANGLE= 103.6 DEGREES
:DIRT :  |MSR1|= 8.842E-03 |PRATT|= 4.295E-02 ANGLE=  53.0 DEGREES
:MIX  :   MSD1   REGULARIZATION:  2.00E-04 GREED: 0.02336  Newton 1.00  0.2058                
     
       CHARGES OF MIXED CHARGE DENSITY
:CTO   : INTERSTITIAL CHARGE =     6.352301
:CPC   : PW Pseudocharge     =    17.644921
:CTO001: CHARGE SPHERE  1    =    55.823849

:NEC03: NUCLEAR AND ELECTRONIC CHARGE    118.00000   118.00000

PW CHANGE     H    K    L      Current       Change    Residue
:PTO001:      0    0    0  8.23153220E-02 -7.825E-05 -2.348E-04
:PTO003:      0    2    0  1.88975762E-02 -2.323E-05 -1.064E-04
:PTO004:     -1    1    0  8.85924301E-02 -1.239E-04 -5.214E-04
:PTO005:      0    2   -1 -1.01145891E-01  1.456E-04  6.036E-04
:PTO006:      0    0   -2 -5.25229189E-02  7.544E-05  3.108E-04
:PTO007:     -1    1   -1 -1.04651340E-01  1.607E-04  6.857E-04
:PTO008:      0    2   -2 -1.43781613E-02  2.756E-05  1.002E-04
:PTO009:     -1    1   -2 -7.14331594E-02  1.369E-04  5.756E-04
:PTO011:     -1    3    0 -1.03839642E-02  2.292E-05  9.119E-05
:PTO012:     -1    3   -1 -4.22216219E-02  1.001E-04  3.964E-04
:PTO013:      0    4    0 -6.98603638E-03  1.894E-05  7.199E-05
:PTO014:      0    2   -3  1.62512418E-02 -4.343E-05 -1.519E-04

:ENE  : ********** TOTAL ENERGY IN Ry =       -36944.18964810

       TOTAL FORCE IN mRy/a.u. = |F|     Fx             Fy             Fz     with/without FOR in case.in2
:FOR001:   1.ATOM          3.745          0.000          0.000         -3.745 partial forces
       TOTAL FORCE WITH RESPECT TO GLOBAL CARTESIAN COORDINATES:
:FCA001:   1.ATOM                         0.000         -3.745          0.000 partial forces
       TOTAL FORCE WITH RESPECT TO THE GLOBAL COORDINATE SYSTEM:
:FGL001:   1.ATOM                 0.000000000    -3.744568261     0.000000000 partial forces

------- case.scf0 --------
 Flat Integration
 New Mode for Coulomb Integral
 Consistent 3/8+Simpson combinations
 Extension of core to zero
 LDM version in phi
 Fifth-order quadrature in outwin


            ---------
:ITE079: 79. ITERATION
            ---------

:NATO :    1 INDEPENDENT AND    2 TOTAL ATOMS IN UNITCELL
       SUBSTANCE: aU                                                          

       LATTICE                      = CXY 
:POT  : POTENTIAL OPTION EX_LDA EC_LDA VX_LDA VC_LDA
:LAT  : LATTICE CONSTANTS=  5.47380 11.10771  9.58952    1.571    1.571    1.571
:VOL  : UNIT CELL VOLUME =     291.52801
       MODE OF CALCULATION IS       = RELA
       NON-SPINPOLARIZED CALCULATION
:IFFT  : FFT-parameters:   48   90   80 Factor: 2.00


   CONVERGENCE PARAMETER FOR PSEUDOCHARGE: NCON=  9
   MAXIMAL VALUE OF RMT(JATOM)*ABSK(NKK) : RK  =27.59298


:VKCOUL :  VK-COUL convergence: 0.184E-06
       ATOMNUMBER=  1 Pr1        VCOUL-ZERO =  0.58629E+00
:EFG001:                        EFG         =    -8.44174   *10**21  V / m**2
                               V20  TOT/SRF=    -7.31076    -0.07017
                               V22  TOT/SRF=    -3.83267    -0.00865
                               V22M TOT/SRF=     0.00000     0.00000
                               V21  TOT/SRF=     0.00000     0.00000
                               V21M TOT/SRF=     0.00000     0.00000

              0.38820    0.00000    0.00000        0.38820    0.00000    0.00000
              0.00000    8.05354    0.00000        0.00000    8.05354    0.00000
              0.00000    0.00000   -8.44174        0.00000    0.00000   -8.44174

         MAIN DIRECTIONS OF THE EFG   1.0000  0.0000  0.0000
                                      0.0000  1.0000  0.0000
                                      0.0000  0.0000  1.0000
:ANG001:  ANGLE WITH OLD X-AXIS =         0.0

:ETA001:                         ASYMM. ETA =     0.90803


     HELLMANN-FEYNMAN-FORCE IN mRy/a.u. = |F|  Fx       Fy             Fz
:FHF001:   1.ATOM   1295.786137397259      0.000000000000      0.000000000000  -1295.786137397259

:FIT001: LUSE= 13 SIGMA OF V-XC FIT FOR ATOM  1  0.5394233E-04
:FIT001: LUSE= 13 SIGMA OF V-XC FIT FOR ATOM  1  0.5394233E-04
:DEN  : DENSITY INTEGRAL  =        -14212.83895912   (Ry)
       ELS_POTENTIAL_AT Z=0 and Z=0.5:   0.98409   0.98409
       ELS_POTENTIAL_AT Y=0 and Y=0.5:  -0.00159  -0.00159
:VZERO:v0,v0c,v0x   0.25737   0.98409  -0.72672 v5,v5c,v5x   0.25737   0.98409  -0.72672
:VZERY:v0,v0c,v0x  -0.95295  -0.00159  -0.95136 v5,v5c,v5x  -0.95295  -0.00159  -0.95136
:VZERX:v0,v0c,v0x  -1.28706  -0.39707  -0.88999 v5,v5c,v5x  -1.28706  -0.39707  -0.88999

------- case.scf1 --------
:LMAX-WF:   10   Non-Spherical LMAX:   4

          ATOMIC SPHERE DEPENDENT PARAMETERS FOR ATOM  Pr1       
:e__0001: OVERALL ENERGY PARAMETER IS    0.9118
          OVERALL BASIS SET ON ATOM IS LAPW
:E0_0001: E( 0)=    0.9118
             APW+lo
:E0_0001: E( 0)=   -1.4941   E(BOTTOM)=   -2.137   E(TOP)=   -0.851  4  5   233
             LOCAL ORBITAL
:E1_0001: E( 1)=    1.3118
             APW+lo
:E1_0001: E( 1)=   -0.0281   E(BOTTOM)=   -0.996   E(TOP)=    0.940  3  4   240
             LOCAL ORBITAL
:E3_0001: E( 3)=    1.1643   E(BOTTOM)=    0.952   E(TOP)=    1.376  0  1   122
             APW+lo
:E2_0001: E( 2)=    0.9118   E(BOTTOM)=    0.737   E(TOP)= -200.000  2 -1   116
             APW+lo

       K=   0.06250   0.00000   0.06250            1
:RKM  : MATRIX SIZE   297LOs:  40  RKM= 8.46  WEIGHT= 4.00  PGR:    
       EIGENVALUES ARE:
:EIG00001:      -1.5333564   -1.4579307   -0.3523035   -0.1042200   -0.0465666
:EIG00006:      -0.0258734   -0.0028042   -0.0007562    0.9635304    0.9724108
:EIG00011:       1.1059755    1.1198732    1.1233831    1.1297034    1.1476287
:EIG00016:       1.1765947    1.1875908    1.1899420    1.1954046    1.1999047
:EIG00021:       1.2035101    1.2096674    1.2152966    1.2389575    1.2477971
:EIG00026:       1.2708423    1.3550785    1.3611194    1.4365374    1.4782686
:EIG00031:       1.5271934    1.7067801    1.7266661    1.8033430    2.0986595
:EIG00036:       2.1465920    2.1822873    2.4009906    2.4274507    2.5365953
:EIG00041:       2.7333245    2.7925545    2.9452446    2.9909942    3.1419286
:EIG00046:       3.1531044    3.1676199    3.3420863    3.3476469    3.4917232
 
:EIG00051:       3.5876314    3.7103890    3.7455057    3.9033159    3.9130230
:EIG00056:       3.9840911    4.0492023    4.2392594    4.2520603    4.3202763
:EIG00061:       4.3870291    4.4866776    4.5170672    4.6067424    4.6713538
:EIG00066:       4.7682358    4.7741732    4.8331927    4.9384363    4.9568549
:EIG00071:       5.0567189    5.0944284    5.1599457    5.2407500    5.2475410
:EIG00076:       5.2588376    5.3189677    5.3249764    5.3527693    5.4486874
:EIG00081:       5.4625065    5.4997531    5.5535557    5.5849338    5.6254370
:EIG00086:       5.6864460    5.8079585    5.8822503    5.9158322    5.9505037
:EIG00091:       6.0075723    6.0650900    6.0986849    6.1250526    6.1310205
:EIG00096:       6.2581285    6.2809002    6.2893100    6.3473135    6.4395946
 
:EIG00101:       6.4462356    6.5752616    6.6393136    6.6712578    6.6827959
:EIG00106:       6.8170003    6.8237434    6.8662891    6.9535832    7.1128561
:EIG00111:       7.1975390    7.2387047    7.2799876    7.3169746    7.4317820
:EIG00116:       7.5203751    7.5874137    7.7006806    7.7008474    7.7580778
:EIG00121:       7.8197407    7.8474284    7.8941567    8.0086429    8.0276271
:EIG00126:       8.0421604    8.1317182    8.2212991    8.2238110    8.2754343
:EIG00131:       8.2945070    8.3284767    8.3579207    8.5106941    8.5380650
:EIG00136:       8.5957679
       ********************************************************

:KPT   :      NUMBER OF K-POINTS:   288

------- case.scfso --------
   0.0   0.0 angle (M,z), angle (M,x) deg
 
        SPIN-ORBIT EIGENVALUES:
     K=   0.06250   0.00000   0.06250            1
      MATRIX SIZE=  272   WEIGHT= 4.00
     EIGENVALUES ARE:
          -1.5333586   -1.5333586   -1.4579323   -1.4579323   -0.3860856
          -0.3860856   -0.1831005   -0.1831005   -0.1181696   -0.1181696
           0.0336133    0.0336133    0.0382933    0.0382933    0.0624637
           0.0624637    0.9636118    0.9636118    0.9723847    0.9723847
           1.1048917    1.1048917    1.1181858    1.1181858    1.1216597
           1.1216597    1.1284399    1.1284399    1.1455844    1.1455844
           1.1703287    1.1703287    1.1807018    1.1807018    1.1902141
           1.1902141    1.1992741    1.1992741    1.2019142    1.2019142

           1.2063199    1.2063199    1.2107571    1.2107571    1.2190913
           1.2190913    1.2413597    1.2413597    1.2496140    1.2496140
           1.2715848    1.2715849    1.3520069    1.3520069    1.3644593
           1.3644593    1.4370479    1.4370479    1.4782422    1.4782422
           1.5275895    1.5275895    1.7069630    1.7069630    1.7268149
           1.7268149    1.8035477    1.8035477    2.0991204    2.0991204
           2.1466687    2.1466687    2.1822941    2.1822941    2.4008303
           2.4008303    2.4273221    2.4273221    2.5359936    2.5359936

           2.7336075    2.7336075    2.7921163    2.7921163    2.9451073
           2.9451073    2.9906336    2.9906336    3.1418698    3.1418698
           3.1525255    3.1525255    3.1679160    3.1679160    3.3377470
           3.3377470    3.3520189    3.3520189    3.4919979    3.4919979
           3.5872607    3.5872607    3.7081050    3.7081050    3.7463038
           3.7463038    3.9031152    3.9031152    3.9124802    3.9124802
           3.9845254    3.9845254    4.0468832    4.0468832    4.2408287
           4.2408287    4.2526179    4.2526179    4.3202400    4.3202400

           4.3886654    4.3886654    4.4861911    4.4861911
       ********************************************************

------- case.scf2 --------
:GMA  : POTENTIAL AND CHARGE CUT-OFF  12.00 Ry**.5




:POS001: at.nr.  -1 position = 0.00000 0.89750 0.25000  multiplicity =  2

       lmmax 16
       lm=   0 0  1 0  2 0  2 2  3 0  3 2  4 0  4 2  4 4  5 0  5 2  5 4  6 0  6 2  6 4  6 6
:FER gutzwiller fermi energy   1.12919
:EORB          0.150846048
:SUM sum of gutz band energies          2.863247208

:CHA001: total charge inside sphere   1 =     9.817480
:PCS001: partial charges sphere =  1 s,p,d,f,px,py,pz,d-z2,d-x2y2,d-xy,d-xz,d-yz 
:QTL001: 1.9358 4.9558 0.8702 2.0528 1.6520 1.6472 1.6566 0.1710 0.1562 0.1765 0.1801 0.1863

                      vxx         vyy         vzz       up to r

:VZZ001:             0.54726     8.02750    -8.57475       2.300

:CHA  : total charge inside unit cell =      13.000000

------- case.scfc --------

        1.ATOM      Pr1                  14 CORE STATES
       CORE-FORCE in mRy/a.u. = |F|      Fx             Fy             Fz
:FCO001:   1.ATOM   1292.284126189601      0.000000000000      0.000000000000   1292.284126189601

:1S 001: 1S               -3066.425526199 Ry
:2S 001: 2S                -492.173050328 Ry
:2PP001: 2P*               -465.272769011 Ry
:2P 001: 2P                -429.875031149 Ry
:3S 001: 3S                -105.263465604 Ry
:3PP001: 3P*                -93.801363789 Ry
:3P 001: 3P                 -86.793458430 Ry
:3DD001: 3D*                -66.720179788 Ry
:3D 001: 3D                 -65.208616061 Ry
:4S 001: 4S                 -19.937485335 Ry
:4PP001: 4P*                -15.644139335 Ry
:4P 001: 4P                 -14.116515678 Ry
:4DD001: 4D*                 -7.049112001 Ry
:4D 001: 4D                  -6.779652824 Ry

------- case.scfm --------
:CINT001 Core Integral Atom   1   45.998455

       DENSITY AT NUCLEUS
        JATOM        VALENCE       SEMI-CORE          CORE           TOTAL
:RTO001:   1      642.676781        0.000000   656825.802759   657468.479539
     
       CHARGES OF NEW CHARGE DENSITY
:NTO   : INTERSTITIAL CHARGE =     6.365717
:NPC   : PW Pseudocharge     =    17.581948
:NTO001: CHARGE SPHERE  1    =    55.815934

:NEC01: NUCLEAR AND ELECTRONIC CHARGE    118.00000   117.99759
     
       CHARGES OF OLD CHARGE DENSITY
:OTO   : INTERSTITIAL CHARGE =     6.352301
:OPC   : PW Pseudocharge     =    17.644921
:OTO001: CHARGE SPHERE  1    =    55.823849

:NEC02: NUCLEAR AND ELECTRONIC CHARGE    118.00000   118.00000
     
       CONVERGENCE TEST
:DTO001: DIFFERENCE IN SPHERE  1 =  0.0214721

:DIS  :  CHARGE DISTANCE       ( 0.0214721 for atom    1 spin 1)      0.0214721
 PW Mixed is          316
 
******************************************************
* MULTISECANT MIXING VER9 RELEASE 10.4.0              *
* Slow Mode, cautious                                *
* Fixed density scale                                *
* Regularization       1.000E-04                     *
* Step Trust Radius    0.75000                       *
* Trust Upper Limit    2.000E+00                     *
* Max Number of Memory Steps   12                    *
******************************************************
 
:PWTMP   1.8960E+02  1.9467E+02  2.9153E+02
:PLANE:  PW TOTAL      6.0531 DISTAN   2.41E-02  3.98E-01 %
:CHARG:  CLM/ATOM   1381.9262 DISTAN   3.05E-02  2.21E-03 %
 
Step History
        DMIX         DMIXT        Red     Pred      Trust     Lambda    MagRel    MagAbs     Beta
  1   3.5000E-02   3.5000E-02 -1.00E+00  1.00E+00 -1.00E+01  1.00E+00  3.50E-02  3.50E-02  1.00E+00
  2   2.5000E-02   2.5000E-02  9.27E-01  1.00E+00 -1.00E+01  1.00E+00  2.50E-02  2.45E-03  1.00E+00
  3   2.0000E-02   2.0000E-02  4.72E-01  5.58E-01  6.97E-01  9.81E-01  4.81E-01  4.38E-02  1.00E+00
  4   2.3357E-02   2.3357E-02 -1.00E+00  8.99E-01  8.71E-01  1.00E+00  2.06E-01  8.84E-03  8.31E-01
:JACOBIANS    4.869E-01   2.064E-01
  
:NORMS:  1/Froebius, Min, Max, Used   0.5329E+00  0.5161E+00  0.1010E+01  0.5351E+00
:INFO :  Number of Memory Steps    3 Skipping    0
:INFO :  SLambda=    0.7841406088  Max    0.7841406088
:PREDicted Charge, CTotal, PW Trust    2.359E-03   4.719E-03   6.497E-02
:PREDicted DMix, Beta, BLim   5.2859E-01  4.2652E+00  1.0135E+00

Eigenvalues, unscaled except for SY+YY
   #     SY Real        SY Imag          SS             YY         SY+YY Real      SY+YY Imag
   1   1.256659E+00   0.000000E+00   8.454729E-01   2.953083E+00   3.931579E+00   0.000000E+00
   2  -6.459063E-09   0.000000E+00   6.331007E-03   4.691669E-02   1.198775E-07   0.000000E+00
   3   1.818062E-02   0.000000E+00   3.275595E-10   6.587311E-07   6.807449E-02   0.000000E+00
 
:INFO :  Singular value  3.933E+00 Weight  1.000E+00 Projection  1.541E-03
:INFO :  Singular value  6.806E-02 Weight  1.000E+00 Projection -1.737E-01
:INFO :  Singular value  1.199E-07 Weight  1.648E-07 Projection  1.986E-06
:RANK :  ACTIVE   2.00/3  =  66.67 % ; YY RANK   2.00/3  =  66.67 %
 
:BLIM :  VZERO Control Off
:TRUST:  Step 9.62E-01  Charge 7.50E-02 (e) CTO  2.50E-01 (e) PW  3.50E-01 (e)
:DIRM :  MEMORY  3/12 SCALE   1.000 RED  0.91 PRED  0.90 NEXT  0.18 
:TRAVE:  Charge 2.87E-03 (e) CTO  5.75E-03 (e) PW  4.62E-02 (e)
:DIRP :  |MSR1|= 2.954E-02 |PRATT|= 2.408E-02 ANGLE=   9.4 DEGREES
:DIRQ :  |MSR1|= 9.067E-03 |PRATT|= 3.054E-02 ANGLE=  63.3 DEGREES
:DIRT :  |MSR1|= 3.090E-02 |PRATT|= 3.889E-02 ANGLE=  46.6 DEGREES
:MIX  :   MSD1   REGULARIZATION:  2.95E-04 GREED: 0.05839  Newton 1.00  0.7944                
     
       CHARGES OF MIXED CHARGE DENSITY
:CTO   : INTERSTITIAL CHARGE =     6.350181
:CPC   : PW Pseudocharge     =    17.571935
:CTO001: CHARGE SPHERE  1    =    55.824910

:NEC03: NUCLEAR AND ELECTRONIC CHARGE    118.00000   118.00000

PW CHANGE     H    K    L      Current       Change    Residue
:PTO001:      0    0    0  8.20576901E-02 -2.576E-04 -1.388E-04
:PTO003:      0    2    0  1.88066248E-02 -9.095E-05 -8.746E-05
:PTO004:     -1    1    0  8.81250091E-02 -4.674E-04 -4.104E-04
:PTO005:      0    2   -1 -1.00599374E-01  5.465E-04  4.733E-04
:PTO006:      0    0   -2 -5.22400102E-02  2.829E-04  2.441E-04
:PTO007:     -1    1   -1 -1.04041906E-01  6.094E-04  5.424E-04
:PTO008:      0    2   -2 -1.42788317E-02  9.933E-05  7.656E-05
:PTO009:     -1    1   -2 -7.09157922E-02  5.174E-04  4.561E-04
:PTO011:     -1    3    0 -1.02993587E-02  8.461E-05  6.991E-05
:PTO012:     -1    3   -1 -4.18503842E-02  3.712E-04  3.111E-04
:PTO013:      0    4    0 -6.91684247E-03  6.919E-05  5.545E-05
:PTO014:      0    2   -3  1.60970998E-02 -1.541E-04 -1.132E-04

:ENE  : ********** TOTAL ENERGY IN Ry =       -36944.18966726

       TOTAL FORCE IN mRy/a.u. = |F|     Fx             Fy             Fz     with/without FOR in case.in2
:FOR001:   1.ATOM          3.502          0.000          0.000         -3.502 partial forces
       TOTAL FORCE WITH RESPECT TO GLOBAL CARTESIAN COORDINATES:
:FCA001:   1.ATOM                         0.000         -3.502          0.000 partial forces
       TOTAL FORCE WITH RESPECT TO THE GLOBAL COORDINATE SYSTEM:
:FGL001:   1.ATOM                 0.000000000    -3.502011208     0.000000000 partial forces

------- case.scf0 --------
 Flat Integration
 New Mode for Coulomb Integral
 Consistent 3/8+Simpson combinations
 Extension of core to zero
 LDM version in phi
 Fifth-order quadrature in outwin


            ---------
:ITE080: 80. ITERATION
            ---------

:NATO :    1 INDEPENDENT AND    2 TOTAL ATOMS IN UNITCELL
       SUBSTANCE: aU                                                          

       LATTICE                      = CXY 
:POT  : POTENTIAL OPTION EX_LDA EC_LDA VX_LDA VC_LDA
:LAT  : LATTICE CONSTANTS=  5.47380 11.10771  9.58952    1.571    1.571    1.571
:VOL  : UNIT CELL VOLUME =     291.52801
       MODE OF CALCULATION IS       = RELA
       NON-SPINPOLARIZED CALCULATION
:IFFT  : FFT-parameters:   48   90   80 Factor: 2.00


   CONVERGENCE PARAMETER FOR PSEUDOCHARGE: NCON=  9
   MAXIMAL VALUE OF RMT(JATOM)*ABSK(NKK) : RK  =27.59298


:VKCOUL :  VK-COUL convergence: 0.184E-06
       ATOMNUMBER=  1 Pr1        VCOUL-ZERO =  0.58499E+00
:EFG001:                        EFG         =    -8.47516   *10**21  V / m**2
                               V20  TOT/SRF=    -7.33971    -0.07010
                               V22  TOT/SRF=    -3.80649    -0.00856
                               V22M TOT/SRF=     0.00000     0.00000
                               V21  TOT/SRF=     0.00000     0.00000
                               V21M TOT/SRF=     0.00000     0.00000

              0.43109    0.00000    0.00000        0.43109    0.00000    0.00000
              0.00000    8.04407    0.00000        0.00000    8.04407    0.00000
              0.00000    0.00000   -8.47516        0.00000    0.00000   -8.47516

         MAIN DIRECTIONS OF THE EFG   1.0000  0.0000  0.0000
                                      0.0000  1.0000  0.0000
                                      0.0000  0.0000  1.0000
:ANG001:  ANGLE WITH OLD X-AXIS =         0.0

:ETA001:                         ASYMM. ETA =     0.89827


     HELLMANN-FEYNMAN-FORCE IN mRy/a.u. = |F|  Fx       Fy             Fz
:FHF001:   1.ATOM   1291.296866244299      0.000000000000      0.000000000000  -1291.296866244299

:FIT001: LUSE= 13 SIGMA OF V-XC FIT FOR ATOM  1  0.5401585E-04
:FIT001: LUSE= 13 SIGMA OF V-XC FIT FOR ATOM  1  0.5401585E-04
:DEN  : DENSITY INTEGRAL  =        -14213.10339065   (Ry)
       ELS_POTENTIAL_AT Z=0 and Z=0.5:   0.98264   0.98264
       ELS_POTENTIAL_AT Y=0 and Y=0.5:  -0.00195  -0.00195
:VZERO:v0,v0c,v0x   0.25599   0.98264  -0.72665 v5,v5c,v5x   0.25599   0.98264  -0.72665
:VZERY:v0,v0c,v0x  -0.95270  -0.00195  -0.95075 v5,v5c,v5x  -0.95270  -0.00195  -0.95075
:VZERX:v0,v0c,v0x  -1.28550  -0.39608  -0.88942 v5,v5c,v5x  -1.28550  -0.39608  -0.88942

------- case.scf1 --------
:LMAX-WF:   10   Non-Spherical LMAX:   4

          ATOMIC SPHERE DEPENDENT PARAMETERS FOR ATOM  Pr1       
:e__0001: OVERALL ENERGY PARAMETER IS    0.9118
          OVERALL BASIS SET ON ATOM IS LAPW
:E0_0001: E( 0)=    0.9118
             APW+lo
:E0_0001: E( 0)=   -1.4945   E(BOTTOM)=   -2.138   E(TOP)=   -0.851  4  5   235
             LOCAL ORBITAL
:E1_0001: E( 1)=    1.3118
             APW+lo
:E1_0001: E( 1)=   -0.0286   E(BOTTOM)=   -0.997   E(TOP)=    0.940  3  4   238
             LOCAL ORBITAL
:E3_0001: E( 3)=    1.1647   E(BOTTOM)=    0.952   E(TOP)=    1.377  0  1   125
             APW+lo
:E2_0001: E( 2)=    0.9118   E(BOTTOM)=    0.736   E(TOP)= -200.000  2 -1   117
             APW+lo

       K=   0.06250   0.00000   0.06250            1
:RKM  : MATRIX SIZE   297LOs:  40  RKM= 8.46  WEIGHT= 4.00  PGR:    
       EIGENVALUES ARE:
:EIG00001:      -1.5338816   -1.4584012   -0.3531126   -0.1048769   -0.0471873
:EIG00006:      -0.0264701   -0.0034160   -0.0013370    0.9624195    0.9713094
:EIG00011:       1.1056424    1.1198554    1.1234746    1.1296612    1.1476514
:EIG00016:       1.1768702    1.1879009    1.1902369    1.1956998    1.2001601
:EIG00021:       1.2033793    1.2098581    1.2156942    1.2394173    1.2479801
:EIG00026:       1.2706876    1.3541944    1.3604980    1.4356857    1.4774190
:EIG00031:       1.5263469    1.7059644    1.7257476    1.8025586    2.0977547
:EIG00036:       2.1456821    2.1813087    2.4000487    2.4263960    2.5355943
:EIG00041:       2.7323283    2.7915301    2.9441740    2.9899873    3.1408626
:EIG00046:       3.1519629    3.1665522    3.3409489    3.3465624    3.4905644
 
:EIG00051:       3.5865382    3.7093074    3.7445099    3.9023224    3.9119160
:EIG00056:       3.9830689    4.0481588    4.2382102    4.2511342    4.3191195
:EIG00061:       4.3858759    4.4855877    4.5158748    4.6057536    4.6703113
:EIG00066:       4.7670328    4.7729568    4.8319832    4.9372682    4.9557217
:EIG00071:       5.0555555    5.0932815    5.1588571    5.2395654    5.2463390
:EIG00076:       5.2576498    5.3177446    5.3237855    5.3515536    5.4474674
:EIG00081:       5.4612840    5.4985340    5.5522999    5.5837267    5.6242659
:EIG00086:       5.6851555    5.8067296    5.8810526    5.9145487    5.9492734
:EIG00091:       6.0063442    6.0638843    6.0975063    6.1238658    6.1298798
:EIG00096:       6.2569135    6.2796519    6.2880942    6.3461084    6.4384327
 
:EIG00101:       6.4450441    6.5740304    6.6381059    6.6699881    6.6815478
:EIG00106:       6.8157573    6.8224379    6.8651164    6.9523715    7.1115720
:EIG00111:       7.1963883    7.2374494    7.2786980    7.3157027    7.4305344
:EIG00116:       7.5190547    7.5862096    7.6994977    7.6996970    7.7568351
:EIG00121:       7.8184811    7.8461852    7.8928966    8.0073770    8.0263472
:EIG00126:       8.0408779    8.1304727    8.2200468    8.2225082    8.2741426
:EIG00131:       8.2932469    8.3271950    8.3566490    8.5094004    8.5367754
:EIG00136:       8.5945158
       ********************************************************

:KPT   :      NUMBER OF K-POINTS:   288

------- case.scfso --------
   0.0   0.0 angle (M,z), angle (M,x) deg
 
        SPIN-ORBIT EIGENVALUES:
     K=   0.06250   0.00000   0.06250            1
      MATRIX SIZE=  272   WEIGHT= 4.00
     EIGENVALUES ARE:
          -1.5338839   -1.5338839   -1.4584028   -1.4584028   -0.3868512
          -0.3868512   -0.1836761   -0.1836761   -0.1188368   -0.1188368
           0.0329881    0.0329881    0.0376769    0.0376769    0.0618386
           0.0618386    0.9625012    0.9625012    0.9712839    0.9712839
           1.1045817    1.1045817    1.1181826    1.1181826    1.1217593
           1.1217593    1.1284096    1.1284096    1.1456271    1.1456271
           1.1706390    1.1706390    1.1809494    1.1809494    1.1904635
           1.1904635    1.1994625    1.1994625    1.2020744    1.2020744

           1.2063841    1.2063841    1.2109628    1.2109628    1.2194474
           1.2194474    1.2418109    1.2418109    1.2498004    1.2498004
           1.2714483    1.2714484    1.3512222    1.3512222    1.3637512
           1.3637513    1.4361957    1.4361957    1.4773942    1.4773942
           1.5267431    1.5267432    1.7061470    1.7061470    1.7258974
           1.7258974    1.8027629    1.8027629    2.0982157    2.0982157
           2.1457590    2.1457590    2.1813157    2.1813157    2.3998879
           2.3998879    2.4262679    2.4262679    2.5349925    2.5349925

           2.7326112    2.7326112    2.7910919    2.7910919    2.9440378
           2.9440378    2.9896258    2.9896258    3.1408028    3.1408028
           3.1513856    3.1513856    3.1668481    3.1668481    3.3366253
           3.3366253    3.3509190    3.3509190    3.4908393    3.4908393
           3.5861676    3.5861676    3.7070283    3.7070283    3.7453031
           3.7453031    3.9021215    3.9021215    3.9113739    3.9113739
           3.9835014    3.9835014    4.0458389    4.0458389    4.2397817
           4.2397817    4.2516866    4.2516866    4.3190844    4.3190844

           4.3875125    4.3875125    4.4851019    4.4851019
       ********************************************************

------- case.scf2 --------
:GMA  : POTENTIAL AND CHARGE CUT-OFF  12.00 Ry**.5




:POS001: at.nr.  -1 position = 0.00000 0.89750 0.25000  multiplicity =  2

       lmmax 16
       lm=   0 0  1 0  2 0  2 2  3 0  3 2  4 0  4 2  4 4  5 0  5 2  5 4  6 0  6 2  6 4  6 6
:FER gutzwiller fermi energy   1.12820
:EORB          0.156884624
:SUM sum of gutz band energies          2.842062587

:CHA001: total charge inside sphere   1 =     9.815001
:PCS001: partial charges sphere =  1 s,p,d,f,px,py,pz,d-z2,d-x2y2,d-xy,d-xz,d-yz 
:QTL001: 1.9357 4.9553 0.8702 2.0509 1.6518 1.6470 1.6565 0.1711 0.1562 0.1765 0.1802 0.1863

                      vxx         vyy         vzz       up to r

:VZZ001:             0.52973     8.04411    -8.57384       2.300

:CHA  : total charge inside unit cell =      13.000000

------- case.scfc --------

        1.ATOM      Pr1                  14 CORE STATES
       CORE-FORCE in mRy/a.u. = |F|      Fx             Fy             Fz
:FCO001:   1.ATOM   1288.452037045087      0.000000000000      0.000000000000   1288.452037045087

:1S 001: 1S               -3066.419737899 Ry
:2S 001: 2S                -492.168012827 Ry
:2PP001: 2P*               -465.267565089 Ry
:2P 001: 2P                -429.869889688 Ry
:3S 001: 3S                -105.259972633 Ry
:3PP001: 3P*                -93.797783305 Ry
:3P 001: 3P                 -86.789972090 Ry
:3DD001: 3D*                -66.716454775 Ry
:3D 001: 3D                 -65.204922782 Ry
:4S 001: 4S                 -19.936020447 Ry
:4PP001: 4P*                -15.642734177 Ry
:4P 001: 4P                 -14.115226869 Ry
:4DD001: 4D*                 -7.047980471 Ry
:4D 001: 4D                  -6.778557467 Ry

------- case.scfm --------
:CINT001 Core Integral Atom   1   45.998453

       DENSITY AT NUCLEUS
        JATOM        VALENCE       SEMI-CORE          CORE           TOTAL
:RTO001:   1      642.562346        0.000000   656825.267583   657467.829929
     
       CHARGES OF NEW CHARGE DENSITY
:NTO   : INTERSTITIAL CHARGE =     6.370497
:NPC   : PW Pseudocharge     =    17.582813
:NTO001: CHARGE SPHERE  1    =    55.813454

:NEC01: NUCLEAR AND ELECTRONIC CHARGE    118.00000   117.99740
     
       CHARGES OF OLD CHARGE DENSITY
:OTO   : INTERSTITIAL CHARGE =     6.350181
:OPC   : PW Pseudocharge     =    17.571935
:OTO001: CHARGE SPHERE  1    =    55.824910

:NEC02: NUCLEAR AND ELECTRONIC CHARGE    118.00000   118.00000
     
       CONVERGENCE TEST
:DTO001: DIFFERENCE IN SPHERE  1 =  0.0226262

:DIS  :  CHARGE DISTANCE       ( 0.0226262 for atom    1 spin 1)      0.0226262
 PW Mixed is          316
 
******************************************************
* MULTISECANT MIXING VER9 RELEASE 10.4.0              *
* Standard Mode with controls                        *
* Fixed density scale                                *
* Regularization       1.000E-04                     *
* Trust Upper Limit    5.000E+00                     *
* Max Number of Memory Steps    8                    *
******************************************************
 
:PWTMP   1.8960E+02  1.9467E+02  2.9153E+02
:PLANE:  PW TOTAL      6.0253 DISTAN   7.61E-03  1.26E-01 %
:CHARG:  CLM/ATOM   1381.9304 DISTAN   3.21E-02  2.32E-03 %
 
Step History
        DMIX         DMIXT        Red     Pred      Trust     Lambda    MagRel    MagAbs     Beta
  1   3.5000E-02   3.5000E-02 -1.00E+00  1.00E+00 -1.00E+01  1.00E+00  3.50E-02  3.50E-02  1.00E+00
  2   2.5000E-02   2.5000E-02  9.27E-01  1.00E+00 -1.00E+01  1.00E+00  2.50E-02  2.45E-03  1.00E+00
  3   2.0000E-02   2.0000E-02  4.72E-01  5.58E-01  6.97E-01  9.81E-01  4.81E-01  4.38E-02  1.00E+00
  4   2.3357E-02   2.3357E-02  9.05E-01  8.99E-01  8.71E-01  7.84E-01  2.06E-01  8.84E-03  8.31E-01
  5   5.8392E-02   5.8392E-02 -1.00E+00  1.85E-01  9.62E-01  1.00E+00  7.94E-01  3.09E-02  1.00E+00
:JACOBIANS    6.386E-01   2.979E-01
  
:NORMS:  1/Froebius, Min, Max, Used   0.6451E+00  0.5980E+00  0.9352E+00  0.7204E+00
:INFO :  Number of Memory Steps    4 Skipping    0
:INFO :  SLambda=    0.4954152655  Max    1.1762109132
:PREDicted Charge, CTotal, PW Trust    2.011E-03   4.023E-03   4.140E-02
:PREDicted DMix, Beta, BLim   2.4060E-02  9.6238E-01  1.3543E+00

Eigenvalues, unscaled except for SY+YY
   #     SY Real        SY Imag          SS             YY         SY+YY Real      SY+YY Imag
   1   1.641053E+00   0.000000E+00   1.467951E+00   2.828424E+00   3.492756E+00   0.000000E+00
   2   4.913139E-01   0.000000E+00   1.967860E-01   1.171559E+00   1.563648E+00   0.000000E+00
   3   8.471648E-09   0.000000E+00   2.991342E-07   1.749756E-05   6.372352E-07   9.993119E-11
   4  -2.475863E-06   0.000000E+00   1.889496E-10   4.324381E-07   6.372352E-07  -9.993119E-11
 
:INFO :  Singular value  3.494E+00 Weight  1.000E+00 Projection -1.428E-02
:INFO :  Singular value  1.563E+00 Weight  1.000E+00 Projection -1.735E-02
:INFO :  Singular value  9.215E-07 Weight  1.061E-05 Projection -8.551E-07
:INFO :  Singular value  4.407E-07 Weight  2.427E-06 Projection  8.748E-06
:RANK :  ACTIVE   2.00/4  =  50.00 % ; YY RANK   2.00/4  =  50.10 %
 
:DLIM :  Beta Active  9.718E-01
:BLIM :  VZERO Control Off
:TRUST:  Step 1.13E+00  Charge 5.63E-02 (e) CTO  1.88E-01 (e) PW  2.63E-01 (e)
:DIRM :  MEMORY  4/8  SCALE   1.000 RED  0.85 PRED  0.18 NEXT  0.29 BETA  0.97
:TRAVE:  Charge 2.98E-03 (e) CTO  5.96E-03 (e) PW  2.70E-02 (e)
:DIRP :  |MSR1|= 2.397E-03 |PRATT|= 7.614E-03 ANGLE=   8.7 DEGREES
:DIRQ :  |MSR1|= 9.686E-03 |PRATT|= 3.207E-02 ANGLE=  20.0 DEGREES
:DIRT :  |MSR1|= 9.978E-03 |PRATT|= 3.296E-02 ANGLE=  19.5 DEGREES
:MIX  :   MSD1   REGULARIZATION:  2.83E-04 GREED: 0.03267  Newton 1.00  0.3027                
     
       CHARGES OF MIXED CHARGE DENSITY
:CTO   : INTERSTITIAL CHARGE =     6.356355
:CPC   : PW Pseudocharge     =    17.577598
:CTO001: CHARGE SPHERE  1    =    55.821822

:NEC03: NUCLEAR AND ELECTRONIC CHARGE    118.00000   118.00000

PW CHANGE     H    K    L      Current       Change    Residue
:PTO001:      0    0    0  8.20982967E-02  4.061E-05  1.405E-04
:PTO003:      0    2    0  1.88077792E-02  1.154E-06  2.914E-07
:PTO004:     -1    1    0  8.81444675E-02  1.946E-05  4.922E-05
:PTO005:      0    2   -1 -1.00624413E-01 -2.504E-05 -6.205E-05
:PTO006:      0    0   -2 -5.22532041E-02 -1.319E-05 -3.117E-05
:PTO007:     -1    1   -1 -1.04064683E-01 -2.278E-05 -5.445E-05
:PTO008:      0    2   -2 -1.42868052E-02 -7.974E-06 -1.935E-05
:PTO009:     -1    1   -2 -7.09365763E-02 -2.078E-05 -4.681E-05
:PTO011:     -1    3    0 -1.03043745E-02 -5.016E-06 -1.387E-05
:PTO012:     -1    3   -1 -4.18713840E-02 -2.100E-05 -4.831E-05
:PTO013:      0    4    0 -6.92161328E-03 -4.771E-06 -1.205E-05
:PTO014:      0    2   -3  1.61114619E-02  1.436E-05  3.723E-05

:ENE  : ********** TOTAL ENERGY IN Ry =       -36944.18970308

       TOTAL FORCE IN mRy/a.u. = |F|     Fx             Fy             Fz     with/without FOR in case.in2
:FOR001:   1.ATOM          2.845          0.000          0.000         -2.845 partial forces
       TOTAL FORCE WITH RESPECT TO GLOBAL CARTESIAN COORDINATES:
:FCA001:   1.ATOM                         0.000         -2.845          0.000 partial forces
       TOTAL FORCE WITH RESPECT TO THE GLOBAL COORDINATE SYSTEM:
:FGL001:   1.ATOM                 0.000000000    -2.844829199     0.000000000 partial forces

------- case.scf0 --------
 Flat Integration
 New Mode for Coulomb Integral
 Consistent 3/8+Simpson combinations
 Extension of core to zero
 LDM version in phi
 Fifth-order quadrature in outwin


            ---------
:ITE081: 81. ITERATION
            ---------

:NATO :    1 INDEPENDENT AND    2 TOTAL ATOMS IN UNITCELL
       SUBSTANCE: aU                                                          

       LATTICE                      = CXY 
:POT  : POTENTIAL OPTION EX_LDA EC_LDA VX_LDA VC_LDA
:LAT  : LATTICE CONSTANTS=  5.47380 11.10771  9.58952    1.571    1.571    1.571
:VOL  : UNIT CELL VOLUME =     291.52801
       MODE OF CALCULATION IS       = RELA
       NON-SPINPOLARIZED CALCULATION
:IFFT  : FFT-parameters:   48   90   80 Factor: 2.00


   CONVERGENCE PARAMETER FOR PSEUDOCHARGE: NCON=  9
   MAXIMAL VALUE OF RMT(JATOM)*ABSK(NKK) : RK  =27.59298


:VKCOUL :  VK-COUL convergence: 0.183E-06
       ATOMNUMBER=  1 Pr1        VCOUL-ZERO =  0.58524E+00
:EFG001:                        EFG         =    -8.54160   *10**21  V / m**2
                               V20  TOT/SRF=    -7.39725    -0.07020
                               V22  TOT/SRF=    -3.78238    -0.00845
                               V22M TOT/SRF=     0.00000     0.00000
                               V21  TOT/SRF=     0.00000     0.00000
                               V21M TOT/SRF=     0.00000     0.00000

              0.48843    0.00000    0.00000        0.48843    0.00000    0.00000
              0.00000    8.05318    0.00000        0.00000    8.05318    0.00000
              0.00000    0.00000   -8.54160        0.00000    0.00000   -8.54160

         MAIN DIRECTIONS OF THE EFG   1.0000  0.0000  0.0000
                                      0.0000  1.0000  0.0000
                                      0.0000  0.0000  1.0000
:ANG001:  ANGLE WITH OLD X-AXIS =         0.0

:ETA001:                         ASYMM. ETA =     0.88564


     HELLMANN-FEYNMAN-FORCE IN mRy/a.u. = |F|  Fx       Fy             Fz
:FHF001:   1.ATOM   1292.177727165013      0.000000000000      0.000000000000  -1292.177727165013

:FIT001: LUSE= 13 SIGMA OF V-XC FIT FOR ATOM  1  0.5420661E-04
:FIT001: LUSE= 13 SIGMA OF V-XC FIT FOR ATOM  1  0.5420661E-04
:DEN  : DENSITY INTEGRAL  =        -14212.54123428   (Ry)
       ELS_POTENTIAL_AT Z=0 and Z=0.5:   0.98332   0.98332
       ELS_POTENTIAL_AT Y=0 and Y=0.5:  -0.00213  -0.00213
:VZERO:v0,v0c,v0x   0.25644   0.98332  -0.72688 v5,v5c,v5x   0.25644   0.98332  -0.72688
:VZERY:v0,v0c,v0x  -0.95303  -0.00213  -0.95090 v5,v5c,v5x  -0.95303  -0.00213  -0.95090
:VZERX:v0,v0c,v0x  -1.28591  -0.39625  -0.88965 v5,v5c,v5x  -1.28591  -0.39625  -0.88965

------- case.scf1 --------
:LMAX-WF:   10   Non-Spherical LMAX:   4

          ATOMIC SPHERE DEPENDENT PARAMETERS FOR ATOM  Pr1       
:e__0001: OVERALL ENERGY PARAMETER IS    0.9118
          OVERALL BASIS SET ON ATOM IS LAPW
:E0_0001: E( 0)=    0.9118
             APW+lo
:E0_0001: E( 0)=   -1.4966   E(BOTTOM)=   -2.140   E(TOP)=   -0.853  4  5   230
             LOCAL ORBITAL
:E1_0001: E( 1)=    1.3118
             APW+lo
:E1_0001: E( 1)=   -0.0304   E(BOTTOM)=   -0.998   E(TOP)=    0.937  3  4   237
             LOCAL ORBITAL
:E3_0001: E( 3)=    1.1609   E(BOTTOM)=    0.949   E(TOP)=    1.373  0  1   124
             APW+lo
:E2_0001: E( 2)=    0.9118   E(BOTTOM)=    0.735   E(TOP)= -200.000  2 -1   120
             APW+lo

       K=   0.06250   0.00000   0.06250            1
:RKM  : MATRIX SIZE   297LOs:  40  RKM= 8.46  WEIGHT= 4.00  PGR:    
       EIGENVALUES ARE:
:EIG00001:      -1.5356349   -1.4602928   -0.3541500   -0.1062472   -0.0486441
:EIG00006:      -0.0279687   -0.0049619   -0.0028729    0.9622447    0.9711150
:EIG00011:       1.1036027    1.1170906    1.1203671    1.1268692    1.1447419
:EIG00016:       1.1733448    1.1843108    1.1866610    1.1921368    1.1966852
:EIG00021:       1.2008626    1.2065980    1.2119138    1.2354701    1.2447571
:EIG00026:       1.2682721    1.3534827    1.3591364    1.4349193    1.4766500
:EIG00031:       1.5255192    1.7050764    1.7250738    1.8015745    2.0971852
:EIG00036:       2.1451377    2.1808760    2.3994633    2.4261556    2.5351569
:EIG00041:       2.7319012    2.7911876    2.9439322    2.9895786    3.1406035
:EIG00046:       3.1518838    3.1662470    3.3408420    3.3463380    3.4905397
 
:EIG00051:       3.5862937    3.7090453    3.7440365    3.9017671    3.9116919
:EIG00056:       3.9826949    4.0478397    4.2379256    4.2503892    4.3189804
:EIG00061:       4.3857943    4.4853731    4.5158447    4.6052066    4.6698487
:EIG00066:       4.7670076    4.7729537    4.8320106    4.9371821    4.9555848
:EIG00071:       5.0554846    5.0931792    5.1586212    5.2395568    5.2463557
:EIG00076:       5.2576260    5.3177954    5.3237657    5.3515873    5.4475381
:EIG00081:       5.4613489    5.4986057    5.5524330    5.5837707    5.6242480
:EIG00086:       5.6853983    5.8068279    5.8810399    5.9147508    5.9493234
:EIG00091:       6.0064090    6.0639222    6.0973607    6.1238037    6.1295646
:EIG00096:       6.2570377    6.2798222    6.2881114    6.3460249    6.4383519
 
:EIG00101:       6.4449869    6.5740456    6.6380965    6.6701354    6.6816543
:EIG00106:       6.8158389    6.8227037    6.8650413    6.9523950    7.1117769
:EIG00111:       7.1961946    7.2375499    7.2788659    7.3158608    7.4304950
:EIG00116:       7.5193275    7.5860068    7.6992225    7.6993897    7.7567611
:EIG00121:       7.8185405    7.8461146    7.8929476    8.0074880    8.0264411
:EIG00126:       8.0410060    8.1305229    8.2201073    8.2227124    8.2743802
:EIG00131:       8.2933187    8.3273643    8.3567146    8.5096160    8.5368891
:EIG00136:       8.5946037
       ********************************************************

:KPT   :      NUMBER OF K-POINTS:   288

------- case.scfso --------
   0.0   0.0 angle (M,z), angle (M,x) deg
 
        SPIN-ORBIT EIGENVALUES:
     K=   0.06250   0.00000   0.06250            1
      MATRIX SIZE=  272   WEIGHT= 4.00
     EIGENVALUES ARE:
          -1.5356372   -1.5356372   -1.4602944   -1.4602944   -0.3879971
          -0.3879971   -0.1852698   -0.1852698   -0.1201813   -0.1201813
           0.0315526    0.0315526    0.0362272    0.0362272    0.0603582
           0.0603582    0.9623258    0.9623258    0.9710881    0.9710881
           1.1024872    1.1024872    1.1153835    1.1153835    1.1186349
           1.1186349    1.1255908    1.1255908    1.1426700    1.1426700
           1.1670330    1.1670330    1.1775137    1.1775137    1.1870113
           1.1870113    1.1961224    1.1961224    1.1988447    1.1988447

           1.2034014    1.2034014    1.2076607    1.2076607    1.2157640
           1.2157640    1.2378836    1.2378836    1.2465660    1.2465660
           1.2689877    1.2689878    1.3502606    1.3502606    1.3626079
           1.3626079    1.4354306    1.4354306    1.4766208    1.4766208
           1.5259153    1.5259153    1.7052595    1.7052595    1.7252215
           1.7252215    1.8017799    1.8017799    2.0976460    2.0976460
           2.1452141    2.1452141    2.1808826    2.1808826    2.3993041
           2.3993041    2.4260261    2.4260261    2.5345555    2.5345555

           2.7321842    2.7321842    2.7907492    2.7907492    2.9437930
           2.9437930    2.9892194    2.9892194    3.1405461    3.1405461
           3.1513024    3.1513024    3.1665441    3.1665441    3.3364827
           3.3364827    3.3507297    3.3507297    3.4908139    3.4908139
[...]
:INFO :  Singular value  7.064E-07 Weight  6.293E-07 Projection  5.729E-08
:INFO :  Singular value  2.998E-07 Weight  1.133E-07 Projection -2.138E-09
:INFO :  Singular value  1.438E-07 Weight  2.607E-08 Projection  1.547E-09
:INFO :  Singular value  8.793E-08 Weight  9.750E-09 Projection  1.251E-09
:RANK :  ACTIVE   4.00/12 =  33.36 % ; YY RANK   4.00/12 =  33.36 %
 
:BLIM :  VZERO Control Off
:TRUST:  Step 3.38E+00  Charge 3.85E-03 (e) CTO  1.17E-02 (e) PW  1.63E-02 (e)
:DIRM :  MEMORY 12/8  SCALE   1.000 RED  0.43 PRED  0.20 NEXT  0.02 
:TRAVE:  Charge 8.58E-04 (e) CTO  1.72E-03 (e) PW  2.57E-03 (e)
:DIRP :  |MSR1|= 6.494E-04 |PRATT|= 1.521E-03 ANGLE=  38.2 DEGREES
:DIRQ :  |MSR1|= 2.597E-03 |PRATT|= 8.397E-03 ANGLE=  38.1 DEGREES
:DIRT :  |MSR1|= 2.677E-03 |PRATT|= 8.533E-03 ANGLE=  38.3 DEGREES
:MIX  :   MSE1   REGULARIZATION:  8.91E-04 GREED: 0.02803  Newton 1.00  0.3137                
     
       CHARGES OF MIXED CHARGE DENSITY
:CTO   : INTERSTITIAL CHARGE =     6.352878
:CPC   : PW Pseudocharge     =    17.579906
:CTO001: CHARGE SPHERE  1    =    55.823561

:NEC03: NUCLEAR AND ELECTRONIC CHARGE    118.00000   118.00000

PW CHANGE     H    K    L      Current       Change    Residue
:PTO001:      0    0    0  8.20942851E-02  1.002E-05  3.070E-05
:PTO003:      0    2    0  1.88149894E-02  4.498E-07 -2.577E-06
:PTO004:     -1    1    0  8.81769150E-02  5.890E-06 -6.884E-07
:PTO005:      0    2   -1 -1.00661558E-01 -7.469E-06 -1.344E-07
:PTO006:      0    0   -2 -5.22727274E-02 -3.959E-06  4.160E-07
:PTO007:     -1    1   -1 -1.04107097E-01 -7.013E-06  2.361E-06
:PTO008:      0    2   -2 -1.42961673E-02 -2.555E-06 -1.514E-06
:PTO009:     -1    1   -2 -7.09753171E-02 -6.637E-06  1.418E-06
:PTO011:     -1    3    0 -1.03102680E-02 -1.519E-06 -1.418E-06
:PTO012:     -1    3   -1 -4.19063361E-02 -7.085E-06 -1.234E-06
:PTO013:      0    4    0 -6.92815439E-03 -1.569E-06 -9.517E-07
:PTO014:      0    2   -3  1.61266118E-02  4.624E-06  4.536E-06

:ENE  : ********** TOTAL ENERGY IN Ry =       -36944.18975400

       TOTAL FORCE IN mRy/a.u. = |F|     Fx             Fy             Fz     with/without FOR in case.in2
:FOR001:   1.ATOM          2.381          0.000          0.000         -2.381 partial forces
       TOTAL FORCE WITH RESPECT TO GLOBAL CARTESIAN COORDINATES:
:FCA001:   1.ATOM                         0.000         -2.381          0.000 partial forces
       TOTAL FORCE WITH RESPECT TO THE GLOBAL COORDINATE SYSTEM:
:FGL001:   1.ATOM                 0.000000000    -2.381160614     0.000000000 partial forces

------- case.scf0 --------
 Flat Integration
 New Mode for Coulomb Integral
 Consistent 3/8+Simpson combinations
 Extension of core to zero
 LDM version in phi
 Fifth-order quadrature in outwin


            ---------
:ITE090: 90. ITERATION
            ---------

:NATO :    1 INDEPENDENT AND    2 TOTAL ATOMS IN UNITCELL
       SUBSTANCE: aU                                                          

       LATTICE                      = CXY 
:POT  : POTENTIAL OPTION EX_LDA EC_LDA VX_LDA VC_LDA
:LAT  : LATTICE CONSTANTS=  5.47380 11.10771  9.58952    1.571    1.571    1.571
:VOL  : UNIT CELL VOLUME =     291.52801
       MODE OF CALCULATION IS       = RELA
       NON-SPINPOLARIZED CALCULATION
:IFFT  : FFT-parameters:   48   90   80 Factor: 2.00


   CONVERGENCE PARAMETER FOR PSEUDOCHARGE: NCON=  9
   MAXIMAL VALUE OF RMT(JATOM)*ABSK(NKK) : RK  =27.59298


:VKCOUL :  VK-COUL convergence: 0.183E-06
       ATOMNUMBER=  1 Pr1        VCOUL-ZERO =  0.58513E+00
:EFG001:                        EFG         =    -8.55580   *10**21  V / m**2
                               V20  TOT/SRF=    -7.40954    -0.07009
                               V22  TOT/SRF=    -3.76496    -0.00848
                               V22M TOT/SRF=     0.00000     0.00000
                               V21  TOT/SRF=     0.00000     0.00000
                               V21M TOT/SRF=     0.00000     0.00000

              0.51294    0.00000    0.00000        0.51294    0.00000    0.00000
              0.00000    8.04286    0.00000        0.00000    8.04286    0.00000
              0.00000    0.00000   -8.55580        0.00000    0.00000   -8.55580

         MAIN DIRECTIONS OF THE EFG   1.0000  0.0000  0.0000
                                      0.0000  1.0000  0.0000
                                      0.0000  0.0000  1.0000
:ANG001:  ANGLE WITH OLD X-AXIS =         0.0

:ETA001:                         ASYMM. ETA =     0.88009


     HELLMANN-FEYNMAN-FORCE IN mRy/a.u. = |F|  Fx       Fy             Fz
:FHF001:   1.ATOM   1289.446905237463      0.000000000000      0.000000000000  -1289.446905237463

:FIT001: LUSE= 13 SIGMA OF V-XC FIT FOR ATOM  1  0.5427202E-04
:FIT001: LUSE= 13 SIGMA OF V-XC FIT FOR ATOM  1  0.5427202E-04
:DEN  : DENSITY INTEGRAL  =        -14212.91787343   (Ry)
       ELS_POTENTIAL_AT Z=0 and Z=0.5:   0.98298   0.98298
       ELS_POTENTIAL_AT Y=0 and Y=0.5:  -0.00200  -0.00200
:VZERO:v0,v0c,v0x   0.25622   0.98298  -0.72676 v5,v5c,v5x   0.25622   0.98298  -0.72676
:VZERY:v0,v0c,v0x  -0.95284  -0.00200  -0.95084 v5,v5c,v5x  -0.95284  -0.00200  -0.95084
:VZERX:v0,v0c,v0x  -1.28578  -0.39620  -0.88958 v5,v5c,v5x  -1.28578  -0.39620  -0.88958

------- case.scf1 --------
:LMAX-WF:   10   Non-Spherical LMAX:   4

          ATOMIC SPHERE DEPENDENT PARAMETERS FOR ATOM  Pr1       
:e__0001: OVERALL ENERGY PARAMETER IS    0.9118
          OVERALL BASIS SET ON ATOM IS LAPW
:E0_0001: E( 0)=    0.9118
             APW+lo
:E0_0001: E( 0)=   -1.4954   E(BOTTOM)=   -2.139   E(TOP)=   -0.852  4  5   230
             LOCAL ORBITAL
:E1_0001: E( 1)=    1.3118
             APW+lo
:E1_0001: E( 1)=   -0.0294   E(BOTTOM)=   -0.997   E(TOP)=    0.939  3  4   240
             LOCAL ORBITAL
:E3_0001: E( 3)=    1.1630   E(BOTTOM)=    0.951   E(TOP)=    1.375  0  1   125
             APW+lo
:E2_0001: E( 2)=    0.9118   E(BOTTOM)=    0.736   E(TOP)= -200.000  2 -1   120
             APW+lo

       K=   0.06250   0.00000   0.06250            1
:RKM  : MATRIX SIZE   297LOs:  40  RKM= 8.46  WEIGHT= 4.00  PGR:    
       EIGENVALUES ARE:
:EIG00001:      -1.5346409   -1.4592246   -0.3535324   -0.1054554   -0.0478047
:EIG00006:      -0.0271002   -0.0040658   -0.0019842    0.9623664    0.9712628
:EIG00011:       1.1047646    1.1186320    1.1220923    1.1284280    1.1463626
:EIG00016:       1.1752955    1.1863010    1.1886428    1.1941103    1.1986119
:EIG00021:       1.2022756    1.2084116    1.2140111    1.2376498    1.2465419
:EIG00026:       1.2696196    1.3539180    1.3599221    1.4353863    1.4771204
:EIG00031:       1.5260175    1.7056176    1.7254788    1.8021692    2.0975304
:EIG00036:       2.1454721    2.1811451    2.3998290    2.4263278    2.5354370
:EIG00041:       2.7321746    2.7914148    2.9441027    2.9898439    3.1407866
:EIG00046:       3.1519647    3.1664514    3.3409380    3.3465042    3.4905935
 
:EIG00051:       3.5864654    3.7092292    3.7443451    3.9021161    3.9118579
:EIG00056:       3.9829442    4.0480568    4.2381313    4.2508457    4.3190937
:EIG00061:       4.3858847    4.4855425    4.5159074    4.6055556    4.6701518
:EIG00066:       4.7670666    4.7729958    4.8320436    4.9372806    4.9557163
:EIG00071:       5.0555772    5.0932838    5.1588027    5.2396085    5.2463889
:EIG00076:       5.2576827    5.3178153    5.3238225    5.3516129    5.4475447
:EIG00081:       5.4613582    5.4986192    5.5524014    5.5837975    5.6243152
:EIG00086:       5.6853054    5.8068232    5.8810971    5.9146782    5.9493429
:EIG00091:       6.0064210    6.0639472    6.0974952    6.1238855    6.1297991
:EIG00096:       6.2570261    6.2797786    6.2881572    6.3461176    6.4384498
 
:EIG00101:       6.4450628    6.5740883    6.6381457    6.6700950    6.6816356
:EIG00106:       6.8158375    6.8225961    6.8651257    6.9524245    7.1117108
:EIG00111:       7.1963429    7.2375431    7.2788164    7.3158171    7.4305651
:EIG00116:       7.5192107    7.5861730    7.6994253    7.6996044    7.7568472
:EIG00121:       7.8185560    7.8461992    7.8929657    8.0074807    8.0264313
:EIG00126:       8.0409764    8.1305397    8.2201199    8.2226435    8.2743053
:EIG00131:       8.2933210    8.3273240    8.3567198    8.5095424    8.5368688
:EIG00136:       8.5945991
       ********************************************************

:KPT   :      NUMBER OF K-POINTS:   288

------- case.scfso --------
   0.0   0.0 angle (M,z), angle (M,x) deg
 
        SPIN-ORBIT EIGENVALUES:
     K=   0.06250   0.00000   0.06250            1
      MATRIX SIZE=  272   WEIGHT= 4.00
     EIGENVALUES ARE:
          -1.5346432   -1.5346432   -1.4592262   -1.4592262   -0.3873218
          -0.3873218   -0.1843540   -0.1843540   -0.1194021   -0.1194021
           0.0323850    0.0323850    0.0370682    0.0370682    0.0612189
           0.0612189    0.9624478    0.9624479    0.9712365    0.9712365
           1.1036789    1.1036789    1.1169438    1.1169438    1.1203695
           1.1203695    1.1271643    1.1271643    1.1443169    1.1443169
           1.1690291    1.1690291    1.1794192    1.1794192    1.1889279
           1.1889279    1.1979856    1.1979856    1.2006427    1.2006427

           1.2050528    1.2050528    1.2094950    1.2094950    1.2178072
           1.2178072    1.2400524    1.2400524    1.2483571    1.2483571
           1.2703594    1.2703594    1.3508324    1.3508324    1.3632741
           1.3632741    1.4358968    1.4358968    1.4770936    1.4770936
           1.5264137    1.5264137    1.7058003    1.7058003    1.7256278
           1.7256278    1.8023739    1.8023739    2.0979913    2.0979913
           2.1455488    2.1455488    2.1811520    2.1811520    2.3996688
           2.3996688    2.4261991    2.4261991    2.5348355    2.5348355

           2.7324576    2.7324576    2.7909765    2.7909765    2.9439652
           2.9439652    2.9894834    2.9894834    3.1407279    3.1407279
           3.1513856    3.1513856    3.1667479    3.1667479    3.3365998
           3.3365998    3.3508752    3.3508752    3.4908681    3.4908681
           3.5860948    3.5860948    3.7069445    3.7069445    3.7451437
           3.7451437    3.9019155    3.9019155    3.9113153    3.9113153
           3.9833787    3.9833787    4.0457373    4.0457373    4.2396989
           4.2396989    4.2514058    4.2514058    4.3190570    4.3190570

           4.3875201    4.3875201    4.4850545    4.4850545
       ********************************************************

------- case.scf2 --------
:GMA  : POTENTIAL AND CHARGE CUT-OFF  12.00 Ry**.5




:POS001: at.nr.  -1 position = 0.00000 0.89750 0.25000  multiplicity =  2

       lmmax 16
       lm=   0 0  1 0  2 0  2 2  3 0  3 2  4 0  4 2  4 4  5 0  5 2  5 4  6 0  6 2  6 4  6 6
:FER gutzwiller fermi energy   1.12702
:EORB          0.154567753
:SUM sum of gutz band energies          2.827403639

:CHA001: total charge inside sphere   1 =     9.825085
:PCS001: partial charges sphere =  1 s,p,d,f,px,py,pz,d-z2,d-x2y2,d-xy,d-xz,d-yz 
:QTL001: 1.9355 4.9553 0.8660 2.0654 1.6518 1.6471 1.6564 0.1701 0.1552 0.1758 0.1793 0.1855

                      vxx         vyy         vzz       up to r

:VZZ001:             0.46605     8.00364    -8.46969       2.300

:CHA  : total charge inside unit cell =      13.000000

------- case.scfc --------

        1.ATOM      Pr1                  14 CORE STATES
       CORE-FORCE in mRy/a.u. = |F|      Fx             Fy             Fz
:FCO001:   1.ATOM   1287.059351112518      0.000000000000      0.000000000000   1287.059351112518

:1S 001: 1S               -3066.420205825 Ry
:2S 001: 2S                -492.169022906 Ry
:2PP001: 2P*               -465.268455847 Ry
:2P 001: 2P                -429.870825243 Ry
:3S 001: 3S                -105.261987940 Ry
:3PP001: 3P*                -93.799745132 Ry
:3P 001: 3P                 -86.791983020 Ry
:3DD001: 3D*                -66.718325826 Ry
:3D 001: 3D                 -65.206812056 Ry
:4S 001: 4S                 -19.938413471 Ry
:4PP001: 4P*                -15.645093636 Ry
:4P 001: 4P                 -14.117554724 Ry
:4DD001: 4D*                 -7.050207560 Ry
:4D 001: 4D                  -6.780770412 Ry

------- case.scfm --------
:CINT001 Core Integral Atom   1   45.998454

       DENSITY AT NUCLEUS
        JATOM        VALENCE       SEMI-CORE          CORE           TOTAL
:RTO001:   1      642.559714        0.000000   656825.119606   657467.679320
     
       CHARGES OF NEW CHARGE DENSITY
:NTO   : INTERSTITIAL CHARGE =     6.350556
:NPC   : PW Pseudocharge     =    17.573330
:NTO001: CHARGE SPHERE  1    =    55.823540

:NEC01: NUCLEAR AND ELECTRONIC CHARGE    118.00000   117.99764
     
       CHARGES OF OLD CHARGE DENSITY
:OTO   : INTERSTITIAL CHARGE =     6.352878
:OPC   : PW Pseudocharge     =    17.579906
:OTO001: CHARGE SPHERE  1    =    55.823561

:NEC02: NUCLEAR AND ELECTRONIC CHARGE    118.00000   118.00000
     
       CONVERGENCE TEST
:DTO001: DIFFERENCE IN SPHERE  1 =  0.0001137

:DIS  :  CHARGE DISTANCE       ( 0.0001137 for atom    1 spin 1)      0.0001137
 PW Mixed is          316
 
******************************************************
* MULTISECANT MIXING VER9 RELEASE 10.4.0              *
* Slow Mode, cautious                                *
* Fixed density scale                                *
* Regularization       1.000E-04                     *
* Step Trust Radius    0.75000                       *
* Trust Upper Limit    2.000E+00                     *
* Max Number of Memory Steps   12                    *
******************************************************
 
:PWTMP   1.8960E+02  1.9467E+02  2.9153E+02
:PLANE:  PW TOTAL      6.0288 DISTAN   8.91E-05  1.48E-03 %
:CHARG:  CLM/ATOM   1381.9331 DISTAN   1.93E-04  1.40E-05 %
 
Step History
        DMIX         DMIXT        Red     Pred      Trust     Lambda    MagRel    MagAbs     Beta
  3   2.0000E-02   2.0000E-02  4.72E-01  5.58E-01  6.97E-01  9.81E-01  4.81E-01  4.38E-02  1.00E+00
  4   2.3357E-02   2.3357E-02  9.05E-01  8.99E-01  8.71E-01  7.84E-01  2.06E-01  8.84E-03  8.31E-01
  5   5.8392E-02   5.8392E-02  8.48E-01  1.85E-01  9.62E-01  4.95E-01  7.94E-01  3.09E-02  1.00E+00
  6   3.2673E-02   3.2673E-02  2.78E-01  2.93E-01  1.13E+00  2.58E-01  3.03E-01  9.98E-03  9.72E-01
  7   2.0834E-02   2.0834E-02  9.23E-01  9.36E-01  1.42E+00  1.00E+00  5.11E-02  4.68E-04  9.68E-01
  8   2.4501E-02   2.4501E-02  2.76E+00  1.03E-01  1.54E+00  1.50E+00  9.30E-01  7.87E-03  1.00E+00
  9   1.5852E-02   1.5852E-02  2.70E-01  2.06E-01  1.23E+00  1.81E+00  2.54E-01  5.93E-03  8.00E-01
 10   1.1064E-02   1.1064E-02  2.84E-01  1.80E-01  1.54E+00  2.02E+00  3.22E-01  2.03E-03  1.00E+00
 11   1.0671E-02   1.0671E-02  1.32E+00  6.24E-01  1.92E+00  2.21E+00  2.98E-01  5.33E-04  9.09E-01
 12   2.6676E-02   2.2384E-02  5.00E+00  3.20E-01  3.39E+00  3.24E-01  3.39E+00  8.02E-03  1.00E+00
 13   6.1678E-02   6.1678E-02  1.12E+00  9.29E-03  2.84E+00  3.62E-01  1.24E-01  2.18E-03  1.00E+00
 14   6.6672E-02   6.6672E-02  4.32E-01  2.00E-01  2.53E+00  6.78E-01  1.98E-01  3.91E-03  8.00E-01
 15   2.8034E-02   2.8034E-02 -1.00E+00  1.79E-02  3.38E+00  1.00E+00  3.14E-01  2.68E-03  1.00E+00
:JACOBIANS    1.121E+00   2.513E+00
  
:NORMS:  1/Froebius, Min, Max, Used   0.7606E+00  0.2636E+00  0.9848E+00  0.7791E+00
:INFO :  Number of Memory Steps   12 Skipping    2
:INFO :  SLambda=    0.9840423065  Max    1.0167080793
:PREDicted Charge, CTotal, PW Trust    5.963E-04   1.193E-03   1.636E-03
:PREDicted DMix, Beta, BLim   1.9445E-02  8.1229E-01  6.0091E-01

Eigenvalues, unscaled except for SY+YY
   #     SY Real        SY Imag          SS             YY         SY+YY Real      SY+YY Imag
   1   2.006079E+00   1.187499E+00   4.758447E+00   7.838909E+00   1.045160E+01   0.000000E+00
   2   2.006079E+00  -1.187499E+00   1.411603E+00   2.293809E+00   3.537248E+00   0.000000E+00
   3   1.327658E+00   0.000000E+00   7.173874E-01   1.353168E+00   2.584715E+00   0.000000E+00
   4   2.379395E-01   0.000000E+00   5.545624E-02   5.136694E-01   9.147361E-01   0.000000E+00
   5   1.017929E-05   0.000000E+00   3.988637E-07   4.247670E-04   4.428832E-04   0.000000E+00
   6   6.140248E-07   0.000000E+00   1.623406E-07   1.291054E-05   1.242086E-05   0.000000E+00
   7   1.596265E-07   0.000000E+00   7.116662E-09   5.467305E-06   4.111963E-06   0.000000E+00
   8   2.268822E-08   5.189987E-09   3.327077E-09   1.344751E-06   1.086907E-06   9.984028E-11
   9   2.268822E-08  -5.189987E-09   4.408916E-10   6.124954E-07   1.086907E-06  -9.984028E-11
  10   7.501529E-09   0.000000E+00   2.232403E-10   2.660592E-07   3.058539E-07   0.000000E+00
  11   2.000963E-09   1.067336E-09   1.029234E-10   1.019574E-07   6.396696E-08   0.000000E+00
  12   2.000963E-09  -1.067336E-09   5.609817E-11   5.021718E-08   1.126809E-07   0.000000E+00
 
:INFO :  Singular value  1.159E+01 Weight  1.000E+00 Projection  5.201E-05
:INFO :  Singular value  3.479E+00 Weight  1.000E+00 Projection -2.666E-05
:INFO :  Singular value  2.647E+00 Weight  1.000E+00 Projection  3.375E-05
:INFO :  Singular value  8.214E-01 Weight  1.000E+00 Projection -2.018E-05
:INFO :  Singular value  4.421E-04 Weight  2.413E-01 Projection -1.390E-03
:INFO :  Singular value  1.298E-05 Weight  2.741E-04 Projection -1.264E-06
:INFO :  Singular value  4.191E-06 Weight  2.858E-05 Projection  2.299E-07
:INFO :  Singular value  1.336E-06 Weight  2.904E-06 Projection -1.458E-07
:INFO :  Singular value  8.694E-07 Weight  1.230E-06 Projection -9.297E-08
:INFO :  Singular value  2.983E-07 Weight  1.448E-07 Projection  1.470E-08
:INFO :  Singular value  1.115E-07 Weight  2.024E-08 Projection  2.487E-09
:INFO :  Singular value  6.320E-08 Weight  6.501E-09 Projection -9.676E-10
:RANK :  ACTIVE   4.24/12 =  35.35 % ; YY RANK   4.23/12 =  35.23 %
 
:DLIM :  Beta Active  8.592E-01
:BLIM :  VZERO Control Off
:TRUST:  Step 4.22E+00  Charge 3.08E-03 (e) CTO  9.34E-03 (e) PW  1.31E-02 (e)
:DIRM :  MEMORY 12/12 SCALE   1.000 RED  0.02 PRED  0.02 NEXT  0.59 BETA  0.86
:TRAVE:  Charge 4.57E-04 (e) CTO  9.13E-04 (e) PW  1.29E-03 (e)
:DIRP :  |MSR1|= 4.730E-05 |PRATT|= 8.911E-05 ANGLE=  62.6 DEGREES
:DIRQ :  |MSR1|= 1.949E-04 |PRATT|= 1.933E-04 ANGLE= 123.7 DEGREES
:DIRT :  |MSR1|= 2.006E-04 |PRATT|= 2.129E-04 ANGLE= 116.4 DEGREES
:MIX  :   MSE1   REGULARIZATION:  7.84E-04 GREED: 0.03017  Newton 1.00  0.9422                
     
       CHARGES OF MIXED CHARGE DENSITY
:CTO   : INTERSTITIAL CHARGE =     6.352768
:CPC   : PW Pseudocharge     =    17.579992
:CTO001: CHARGE SPHERE  1    =    55.823616

:NEC03: NUCLEAR AND ELECTRONIC CHARGE    118.00000   118.00000

PW CHANGE     H    K    L      Current       Change    Residue
:PTO001:      0    0    0  8.20942049E-02 -8.013E-08  3.407E-08
:PTO003:      0    2    0  1.88152181E-02  2.287E-07  1.764E-07
:PTO004:     -1    1    0  8.81777676E-02  8.526E-07  2.837E-07
:PTO005:      0    2   -1 -1.00662507E-01 -9.490E-07 -2.439E-07
:PTO006:      0    0   -2 -5.22732006E-02 -4.732E-07  1.723E-07
:PTO007:     -1    1   -1 -1.04108254E-01 -1.157E-06 -6.970E-07
:PTO008:      0    2   -2 -1.42962667E-02 -9.944E-08 -4.348E-07
:PTO009:     -1    1   -2 -7.09762822E-02 -9.651E-07 -1.661E-06
:PTO011:     -1    3    0 -1.03103917E-02 -1.237E-07 -3.077E-07
:PTO012:     -1    3   -1 -4.19068997E-02 -5.635E-07 -2.167E-06
:PTO013:      0    4    0 -6.92824082E-03 -8.643E-08 -4.212E-07
:PTO014:      0    2   -3  1.61267237E-02  1.120E-07  1.140E-06

:ENE  : ********** TOTAL ENERGY IN Ry =       -36944.18976167

       TOTAL FORCE IN mRy/a.u. = |F|     Fx             Fy             Fz     with/without FOR in case.in2
:FOR001:   1.ATOM          2.388          0.000          0.000         -2.388 partial forces
       TOTAL FORCE WITH RESPECT TO GLOBAL CARTESIAN COORDINATES:
:FCA001:   1.ATOM                         0.000         -2.388          0.000 partial forces
       TOTAL FORCE WITH RESPECT TO THE GLOBAL COORDINATE SYSTEM:
:FGL001:   1.ATOM                 0.000000000    -2.387554125     0.000000000 partial forces
