
------- UO2_11.scf0 --------


            ---------
:ITE086: 86. ITERATION
            ---------

:NATO :    2 INDEPENDENT AND    3 TOTAL ATOMS IN UNITCELL
       SUBSTANCE: blebleble                                                   

       LATTICE                      = F   
:POT  : POTENTIAL OPTION    5
:LAT  : LATTICE CONSTANTS= 11.14112 11.14112 11.14112    1.571    1.571    1.571
:VOL  : UNIT CELL VOLUME =     345.72164
       MODE OF CALCULATION IS       = RELA
       NON-SPINPOLARIZED CALCULATION
:IFFT  : FFT-parameters:   90   90   90 Factor: 2.00
       ATOMNUMBER=  1 U  4+      VCOUL-ZERO = -0.74075E+00
       ATOMNUMBER=  2 O  2-      VCOUL-ZERO =  0.70721E+00
:FIT001: LUSE= 13 SIGMA OF V-XC FIT FOR ATOM  1  0.2982194E-04
:FIT001: LUSE= 13 SIGMA OF V-XC FIT FOR ATOM  1  0.2982194E-04
:FIT002: LUSE= 13 SIGMA OF V-XC FIT FOR ATOM  2  0.6348811E-04
:FIT002: LUSE= 13 SIGMA OF V-XC FIT FOR ATOM  2  0.6348811E-04
:DEN  : DENSITY INTEGRAL  =        -20874.61753450   (Ry)
       ELS_POTENTIAL_AT Z=0 and Z=0.5:  -3.18338  -3.18338
       ELS_POTENTIAL_AT Y=0 and Y=0.5:   0.00000   0.00000
:VZERO:v0,v0c,v0x  -3.84003  -3.18338  -0.65666 v5,v5c,v5x  -3.84003  -3.18338  -0.65666
:VZERY:v0,v0c,v0x  -0.78667   0.00000  -0.78667 v5,v5c,v5x  -0.78667   0.00000  -0.78667
:VZERX:v0,v0c,v0x  -0.78667   0.00000  -0.78667 v5,v5c,v5x  -0.78667   0.00000  -0.78667

------- UO2_11.scf1 --------

          ATOMIC SPHERE DEPENDENT PARAMETERS FOR ATOM  U  4+     
:e__0001: OVERALL ENERGY PARAMETER IS    0.4828
          OVERALL BASIS SET ON ATOM IS LAPW
:E0_0001: E( 0)=    0.4828
             APW+lo
:E0_0001: E( 0)=   -2.4953   E(BOTTOM)=   -3.841   E(TOP)=   -1.149  5  6   237
             LOCAL ORBITAL
:E1_0001: E( 1)=   -1.2800   E(BOTTOM)=   -2.107   E(TOP)= -200.000  4 -1   208
             APW+lo
:E1_0001: E( 1)=    0.8828
             LOCAL ORBITAL
:E3_0001: E( 3)=    0.4828   E(BOTTOM)=   -0.056   E(TOP)= -200.000  1 -1   103
             APW+lo
:E2_0001: E( 2)=    0.5055   E(BOTTOM)=    0.505   E(TOP)= -200.000  3 -1    73
             APW+lo

          ATOMIC SPHERE DEPENDENT PARAMETERS FOR ATOM  O  2-     
:e__0002: OVERALL ENERGY PARAMETER IS    0.4828
          OVERALL BASIS SET ON ATOM IS LAPW
:E0_0002: E( 0)=   -0.4564   E(BOTTOM)=   -1.813   E(TOP)=    0.900  1  2   234
             APW+lo
:E0_0002: E( 0)=    0.8828
             LOCAL ORBITAL
:E1_0002: E( 1)=    0.4828
             APW+lo

       K=   0.00000   0.00000   0.00000            1
:RKM  : MATRIX SIZE  923LOs:  30  RKM= 8.46  WEIGHT= 1.00  PGR:    
       EIGENVALUES ARE:
:EIG00001:      -2.5693032   -0.7183551   -0.7183551   -0.7183551   -0.6430644
:EIG00006:      -0.5668268    0.2951037    0.2951037    0.2951037    0.4718315
:EIG00011:       0.4718315    0.4718315    0.7032304    0.7032304    0.7032304
:EIG00016:       0.7230450    0.7500216    0.7500216    0.7500216    0.8281331
:EIG00021:       0.8986052    0.8986052    1.2573468    1.2573468    1.2573468
:EIG00026:       1.5240260    1.5240260    1.5240260    1.8031541    2.1660156
:EIG00031:       2.1660156    2.1939213    2.1939213    2.1939213    2.4026477
:EIG00036:       2.4026477    2.4026477    2.6380188    2.6602958    2.6602958
:EIG00041:       2.6602958    3.0297679    3.0297679    3.1127138    3.1127138
:EIG00046:       3.1127138    3.1488619    3.2498615    3.2498615    3.2557710
 
:EIG00051:       3.2557710    3.2557710    3.4373791    3.4373791    3.4373791
:EIG00056:       3.5070304    3.5366620    3.5366620    3.5366620    3.5709515
:EIG00061:       3.5709515    3.5709515    3.6210631    3.6210631    3.6210631
:EIG00066:       3.8810532    4.3412630    4.3412630    4.3412630    4.5707472
:EIG00071:       4.5707472    4.5707472    4.6173259    4.6173259    4.7913343
:EIG00076:       5.0986450    5.0986450    5.1123912    5.1123912    5.1123912
:EIG00081:       5.2139086    5.2139086    5.2139086    5.4417346    5.4417346
:EIG00086:       5.4417346    5.5869760    5.5869760    5.5869760    5.6326431
:EIG00091:       5.7079647    5.7079647    5.7548056    5.7548056    5.7743169
:EIG00096:       5.7743169    5.7743169    5.8289445    6.0019264    6.0115042
 
:EIG00101:       6.0115042    6.0115042    6.0216524    6.0216524    6.0216524
:EIG00106:       6.1379430    6.1379430    6.1379430    6.3362768    6.3362768
:EIG00111:       6.3362768    6.3543250    6.3998849    6.3998849    6.3998849
:EIG00116:       6.4198897    6.4198897    6.4352419    6.4352419    6.4352419
:EIG00121:       6.5641144    6.5641144    6.5641144    7.0086291    7.0086291
:EIG00126:       7.0086291    7.0960296    7.0960296    7.0960296    7.1946143
:EIG00131:       7.1946143    7.1946143    7.2079004    7.3132258    7.3132258
:EIG00136:       7.3714692    7.3714692    7.4400566    7.4400566    7.4400566
:EIG00141:       7.5631460    7.5631460    7.5631460    7.7327730    7.7327730
:EIG00146:       7.7327730    7.7692305    7.8649100    7.8929254    7.8929254
 
:EIG00151:       8.0281202    8.0281202    8.0281202    8.0318244    8.0318244
:EIG00156:       8.1785507    8.1785507    8.1785507
       ********************************************************

:KPT   :      NUMBER OF K-POINTS:   145

------- UO2_11.scfso --------
   0.0   0.0 angle (M,z), angle (M,x) deg
 
        SPIN-ORBIT EIGENVALUES:
     K=   0.00000   0.00000   0.00000            1
      MATRIX SIZE=  316   WEIGHT= 1.00
     EIGENVALUES ARE:
          -2.5693032   -2.5693032   -1.1257519   -1.1257519   -0.6430644
          -0.6430644   -0.5668291   -0.5668291   -0.5509418   -0.5509418
          -0.5509418   -0.5509418    0.2934974    0.2934974    0.2934974
           0.2934974    0.2974923    0.2974923    0.4689105    0.4689105
           0.4723973    0.4723973    0.4723973    0.4723973    0.6712477
           0.6712477    0.6908381    0.6908381    0.6908381    0.6908381
           0.7449415    0.7449415    0.7574588    0.7574588    0.7574588
           0.7574588    0.7708338    0.7708338    0.8281331    0.8281331

           0.8961175    0.8961175    0.8961175    0.8961175    1.2472276
           1.2472276    1.2472276    1.2472276    1.2787192    1.2787192
           1.4650882    1.4650882    1.5502548    1.5502548    1.5502548
           1.5502548    1.8031541    1.8031541    2.1586448    2.1586448
           2.1586448    2.1586448    2.1966517    2.1966517    2.1966517
           2.1966517    2.2031355    2.2031355    2.2679559    2.2679559
           2.4788463    2.4788463    2.4788464    2.4788464    2.6358485
           2.6358485    2.6602887    2.6602887    2.6615943    2.6615943

           2.6615943    2.6615943    3.0259987    3.0259987    3.0259987
           3.0259987    3.1097130    3.1097130    3.1097130    3.1097130
           3.1278231    3.1278231    3.1488619    3.1488619    3.2498615
           3.2498615    3.2498615    3.2498615    3.2557598    3.2557598
           3.2557766    3.2557766    3.2557766    3.2557766    3.4375205
           3.4375205    3.4375205    3.4375205    3.4377170    3.4377170
           3.5070304    3.5070304    3.5296501    3.5296501    3.5409331
           3.5409331    3.5409331    3.5409331    3.5709404    3.5709404

           3.5709615    3.5709615    3.5709615    3.5709615    3.6200895
           3.6200895    3.6218040    3.6218040    3.6218040    3.6218040
           3.8812026    3.8812026    4.3304909    4.3304909    4.3462937
           4.3462937    4.3462937    4.3462937
       ********************************************************

------- UO2_11.scf2 --------
:GMA  : POTENTIAL AND CHARGE CUT-OFF  12.00 Ry**.5
         Bandranges (emin - emax) and occupancy:
:BAN00018:  18    0.297492    0.434481  1.00000000
:BAN00019:  19    0.372330    0.469721  1.00000000
:BAN00020:  20    0.372330    0.469721  1.00000000
:BAN00021:  21    0.429775    0.485262  1.00000000
:BAN00022:  22    0.429775    0.485262  1.00000000
:BAN00023:  23    0.458490    0.503699  1.00000000
:BAN00024:  24    0.458490    0.503699  1.00000000
:BAN00025:  25    0.645496    0.671403  0.93978063
:BAN00026:  26    0.645496    0.671403  0.93978063
:BAN00027:  27    0.668778    0.690838  0.06021937
:BAN00028:  28    0.668778    0.690838  0.06021937
:BAN00029:  29    0.675994    0.690838  0.00000000
:BAN00030:  30    0.675994    0.690838  0.00000000
:BAN00031:  31    0.708590    0.745255  0.00000000
:BAN00032:  32    0.708590    0.745255  0.00000000
:BAN00033:  33    0.727844    0.757459  0.00000000
        Energy to separate low and high energystates:    0.59550


:NLDA  : NUMBER OF ELECTRONS          =  26.000

:FLDA  : F E R M I - ENERGY           =   1.16973




:POS001: AT.NR.   1 POSITION = 0.00000 0.00000 0.00000  MULTIPLICITY =  1

       LMMAX  5
       LM=   0 0  4 0  4 4  6 0  6 4




:POS002: AT.NR.   2 POSITION = 0.00000 0.00000 0.00000  MULTIPLICITY =  2

       LMMAX  6
       LM=   0 0  4 0  4 4  6 0  6 4 -3 2
:FER DMFT Fermi Energy   0.63236
:EORB          0.081990291
:SUM SUM OF DMFT BAND ENERGIES         -5.832055133

:CHA001: TOTAL CHARGE INSIDE SPHERE   1 =     8.126776
:PCS001: PARTIAL CHARGES SPHERE =  1 S,P,D,F,      D-EG,D-T2G 
:QTL001: 1.7917 4.1462 0.1941 1.9932 0.0000 0.0000 0.0000 0.0406 0.1600 0.0000 0.0000 0.0000
        Q-s-low E-s-low   Q-p-low E-p-low   Q-d-low E-d-low   Q-f-low E-f-low
:EPL001:  1.7916 -2.5025    4.1452 -0.7175    0.1931  0.3351    0.2025  0.4356
        Q-s-hi  E-s-hi    Q-p-hi  E-p-hi    Q-d-hi  E-d-hi    Q-f-hi  E-f-hi 
:EPH001:  0.0001  0.7467    0.0010  0.7108    0.0010  0.7152    1.7906  0.6682

:CHA002: TOTAL CHARGE INSIDE SPHERE   2 =     5.083112
:PCS002: PARTIAL CHARGES SPHERE =  2 S,P,D,F,      D-EG,D-T2G 
:QTL002: 1.5762 3.5013 0.0048 0.0007 0.0000 0.0000 0.0000 0.0019 0.0050 0.0000 0.0000 0.0000
        Q-s-low E-s-low   Q-p-low E-p-low   Q-d-low E-d-low   Q-f-low E-f-low
:EPL002:  1.5749 -0.5851    3.4847  0.4013    0.0040 -0.0962    0.0005 -0.3080
        Q-s-hi  E-s-hi    Q-p-hi  E-p-hi    Q-d-hi  E-d-hi    Q-f-hi  E-f-hi 
:EPH002:  0.0013  0.6809    0.0166  0.6884    0.0008  0.6716    0.0001  0.6724

:CHA  : TOTAL CHARGE INSIDE UNIT CELL =      26.000000

:ESUM  : SUM OF EIGENVALUES =          -5.765014134


------- UO2_11.scfc --------

        1.ATOM      U  4+                21 CORE STATES
:1S 001: 1S               -8506.610826880 Ry
:2S 001: 2S               -1588.056554857 Ry
:2PP001: 2P*              -1531.302913336 Ry
:2P 001: 2P               -1250.106606049 Ry
:3S 001: 3S                -400.194455733 Ry
:3PP001: 3P*               -374.421368586 Ry
:3P 001: 3P                -309.637852648 Ry
:3DD001: 3D*               -268.825718935 Ry
:3D 001: 3D                -255.680376892 Ry
:4S 001: 4S                -101.263105256 Ry
:4PP001: 4P*                -89.669568211 Ry
:4P 001: 4P                 -72.759735350 Ry
:4DD001: 4D*                -54.294921947 Ry
:4D 001: 4D                 -51.186299397 Ry
:5S 001: 5S                 -21.854362174 Ry
:5PP001: 5P*                -17.347639117 Ry
:5P 001: 5P                 -13.317484622 Ry
:4FF001: 4F*                -26.899669326 Ry
:4F 001: 4F                 -26.089662092 Ry
:5DD001: 5D*                 -6.728458865 Ry
:5D 001: 5D                  -6.130284714 Ry

        2.ATOM      O  2-                 1 CORE STATES
:1S 002: 1S                 -36.222662228 Ry

------- UO2_11.scfm --------
:CINT001 Core Integral Atom   1   77.964622
:CINT002 Core Integral Atom   2    2.000000
     
       CHARGES OF NEW CHARGE DENSITY
:NTO   : INTERSTITIAL CHARGE =     7.706979
:NTO001: CHARGE SPHERE  1    =    86.091398
:NTO002: CHARGE SPHERE  2    =     7.083112

:NEC01: NUCLEAR AND ELECTRONIC CHARGE    108.00000   107.96460
     
       CHARGES OF OLD CHARGE DENSITY
:OTO   : INTERSTITIAL CHARGE =     7.763652
:OTO001: CHARGE SPHERE  1    =    86.134539
:OTO002: CHARGE SPHERE  2    =     7.050904
:DNEW  1   -0.0431
:DNEW  2    0.0322

:NEC02: NUCLEAR AND ELECTRONIC CHARGE    108.00000   108.00000
     
       CONVERGENCE TEST
:DTO001: DIFFERENCE IN SPHERE  1 =  0.0326223
:DTO002: DIFFERENCE IN SPHERE  2 =  0.0388915

:DIS  :  CHARGE DISTANCE       ( 0.0388915 for atom    2 spin 1)      0.0368017
:BIG check (qbig,qrms,qtot)    0.130D-01   0.261D-01   0.368D-01
 
******************************************************
* MULTISECANT MIXING VER6 RELEASE 6.0 OPTIONS        *
* Standard Mode with controls                        *
* Regularization       1.000E-06                     *
* Trust Region Control Active                        *
* Max Number of Memory Steps    8                    *
******************************************************
 
:PLANE:  INTERSTITIAL TOTAL      2.48453 DISTAN  3.451E-01 % 
:CHARG:  CLM CHARGE   /ATOM    345.90489 DISTAN  2.048E-02 % 
:DIRM :  MEMORY  0/8 RESCALES   1.00
:MIX  :   PRATT  REGULARIZATION: 1.00E-06  GREED: 0.025
     
       CHARGES OF MIXED CHARGE DENSITY
:CTO   : INTERSTITIAL CHARGE =     7.763121
:CTO001: CHARGE SPHERE  1    =    86.133461
:CTO002: CHARGE SPHERE  2    =     7.051709

:NEC03: NUCLEAR AND ELECTRONIC CHARGE    108.00000   108.00000

PW CHANGE     H    K    L       Current     Change     Residue
:PTO001:      0    0    0  7.28333142E-02 -2.560E-07 -1.024E-05
:PTO002:     -1   -1   -1  1.87358894E-01 -1.007E-05 -4.030E-04
:PTO003:      0    0   -2  2.63776315E-03 -1.986E-05 -7.946E-04
:PTO004:      0   -2   -2  2.74366026E-01  1.910E-05  7.639E-04
:PTO005:     -1   -1   -3  1.60659430E-01  5.109E-06  2.044E-04
:PTO006:     -2   -2   -2 -1.47373346E-02 -3.733E-06 -1.493E-04
:PTO007:      0    0   -4  4.70609494E-02  3.398E-06  1.359E-04
:PTO008:     -1   -3   -3  4.37939808E-02  3.629E-06  1.451E-04
:PTO009:      0   -2   -4 -4.73049898E-02 -5.791E-06 -2.317E-04
:PTO010:     -2   -2   -4  6.25990111E-02  9.547E-06  3.819E-04
:PTO011:     -3   -3   -3 -1.83326697E-03  4.784E-06  1.914E-04
:PTO012:     -1   -1   -5  1.62289458E-03 -1.869E-06 -7.476E-05

:ENE  : ********** TOTAL ENERGY IN Ry =       -56437.48002893


------- UO2_11.scf0 --------


            ---------
:ITE087: 87. ITERATION
            ---------

:NATO :    2 INDEPENDENT AND    3 TOTAL ATOMS IN UNITCELL
       SUBSTANCE: blebleble                                                   

       LATTICE                      = F   
:POT  : POTENTIAL OPTION    5
:LAT  : LATTICE CONSTANTS= 11.14112 11.14112 11.14112    1.571    1.571    1.571
:VOL  : UNIT CELL VOLUME =     345.72164
       MODE OF CALCULATION IS       = RELA
       NON-SPINPOLARIZED CALCULATION
:IFFT  : FFT-parameters:   90   90   90 Factor: 2.00
       ATOMNUMBER=  1 U  4+      VCOUL-ZERO = -0.74123E+00
       ATOMNUMBER=  2 O  2-      VCOUL-ZERO =  0.70762E+00
:FIT001: LUSE= 13 SIGMA OF V-XC FIT FOR ATOM  1  0.2979193E-04
:FIT001: LUSE= 13 SIGMA OF V-XC FIT FOR ATOM  1  0.2979193E-04
:FIT002: LUSE= 13 SIGMA OF V-XC FIT FOR ATOM  2  0.6340417E-04
:FIT002: LUSE= 13 SIGMA OF V-XC FIT FOR ATOM  2  0.6340417E-04
:DEN  : DENSITY INTEGRAL  =        -20874.52249682   (Ry)
       ELS_POTENTIAL_AT Z=0 and Z=0.5:  -3.18418  -3.18418
       ELS_POTENTIAL_AT Y=0 and Y=0.5:   0.00000   0.00000
:VZERO:v0,v0c,v0x  -3.84076  -3.18418  -0.65658 v5,v5c,v5x  -3.84076  -3.18418  -0.65658
:VZERY:v0,v0c,v0x  -0.78666   0.00000  -0.78666 v5,v5c,v5x  -0.78666   0.00000  -0.78666
:VZERX:v0,v0c,v0x  -0.78666   0.00000  -0.78666 v5,v5c,v5x  -0.78666   0.00000  -0.78666

------- UO2_11.scf1 --------

          ATOMIC SPHERE DEPENDENT PARAMETERS FOR ATOM  U  4+     
:e__0001: OVERALL ENERGY PARAMETER IS    0.4828
          OVERALL BASIS SET ON ATOM IS LAPW
:E0_0001: E( 0)=    0.4828
             APW+lo
:E0_0001: E( 0)=   -2.4961   E(BOTTOM)=   -3.842   E(TOP)=   -1.150  5  6   240
             LOCAL ORBITAL
:E1_0001: E( 1)=   -1.2800   E(BOTTOM)=   -2.107   E(TOP)= -200.000  4 -1   205
             APW+lo
:E1_0001: E( 1)=    0.8828
             LOCAL ORBITAL
:E3_0001: E( 3)=    0.4828   E(BOTTOM)=   -0.057   E(TOP)= -200.000  1 -1   101
             APW+lo
:E2_0001: E( 2)=    0.5048   E(BOTTOM)=    0.505   E(TOP)= -200.000  3 -1    74
             APW+lo

          ATOMIC SPHERE DEPENDENT PARAMETERS FOR ATOM  O  2-     
:e__0002: OVERALL ENERGY PARAMETER IS    0.4828
          OVERALL BASIS SET ON ATOM IS LAPW
:E0_0002: E( 0)=   -0.4556   E(BOTTOM)=   -1.812   E(TOP)=    0.901  1  2   234
             APW+lo
:E0_0002: E( 0)=    0.8828
             LOCAL ORBITAL
:E1_0002: E( 1)=    0.4828
             APW+lo

       K=   0.00000   0.00000   0.00000            1
:RKM  : MATRIX SIZE  923LOs:  30  RKM= 8.46  WEIGHT= 1.00  PGR:    
       EIGENVALUES ARE:
:EIG00001:      -2.5700581   -0.7189285   -0.7189285   -0.7189285   -0.6424165
:EIG00006:      -0.5661009    0.2955325    0.2955325    0.2955325    0.4722305
:EIG00011:       0.4722305    0.4722305    0.7024133    0.7024133    0.7024133
:EIG00016:       0.7222553    0.7495083    0.7495083    0.7495083    0.8282454
:EIG00021:       0.8983673    0.8983673    1.2574273    1.2574273    1.2574273
:EIG00026:       1.5239947    1.5239947    1.5239947    1.8031178    2.1659516
:EIG00031:       2.1659516    2.1940058    2.1940058    2.1940058    2.4026494
:EIG00036:       2.4026494    2.4026494    2.6381596    2.6601437    2.6601437
:EIG00041:       2.6601437    3.0296148    3.0296148    3.1127603    3.1127603
:EIG00046:       3.1127603    3.1488100    3.2501208    3.2501208    3.2556731
 
:EIG00051:       3.2556731    3.2556731    3.4373844    3.4373844    3.4373844
:EIG00056:       3.5069387    3.5366301    3.5366301    3.5366301    3.5709754
:EIG00061:       3.5709754    3.5709754    3.6210023    3.6210023    3.6210023
:EIG00066:       3.8809977    4.3414675    4.3414675    4.3414675    4.5709298
:EIG00071:       4.5709298    4.5709298    4.6172896    4.6172896    4.7912923
:EIG00076:       5.0984371    5.0984371    5.1121986    5.1121986    5.1121986
:EIG00081:       5.2138800    5.2138800    5.2138800    5.4415190    5.4415190
:EIG00086:       5.4415190    5.5870407    5.5870407    5.5870407    5.6327278
:EIG00091:       5.7080373    5.7080373    5.7548848    5.7548848    5.7742830
:EIG00096:       5.7742830    5.7742830    5.8290198    6.0018987    6.0115383
 
:EIG00101:       6.0115383    6.0115383    6.0214629    6.0214629    6.0214629
:EIG00106:       6.1380623    6.1380623    6.1380623    6.3362364    6.3362364
:EIG00111:       6.3362364    6.3542877    6.3997895    6.3997895    6.3997895
:EIG00116:       6.4199508    6.4199508    6.4353270    6.4353270    6.4353270
:EIG00121:       6.5640535    6.5640535    6.5640535    7.0086477    7.0086477
:EIG00126:       7.0086477    7.0960346    7.0960346    7.0960346    7.1946051
:EIG00131:       7.1946051    7.1946051    7.2077275    7.3131742    7.3131742
:EIG00136:       7.3714820    7.3714820    7.4403036    7.4403036    7.4403036
:EIG00141:       7.5631111    7.5631111    7.5631111    7.7326436    7.7326436
:EIG00146:       7.7326436    7.7692927    7.8649133    7.8926683    7.8926683
 
:EIG00151:       8.0281016    8.0281016    8.0281016    8.0321680    8.0321680
:EIG00156:       8.1786579    8.1786579    8.1786579
       ********************************************************

:KPT   :      NUMBER OF K-POINTS:   145

------- UO2_11.scfso --------
   0.0   0.0 angle (M,z), angle (M,x) deg
 
        SPIN-ORBIT EIGENVALUES:
     K=   0.00000   0.00000   0.00000            1
      MATRIX SIZE=  316   WEIGHT= 1.00
     EIGENVALUES ARE:
          -2.5700581   -2.5700581   -1.1263969   -1.1263969   -0.6424165
          -0.6424165   -0.5661031   -0.5661031   -0.5514790   -0.5514790
          -0.5514790   -0.5514790    0.2939203    0.2939203    0.2939203
           0.2939203    0.2979301    0.2979301    0.4693666    0.4693666
           0.4727477    0.4727477    0.4727477    0.4727477    0.6704293
           0.6704293    0.6901363    0.6901363    0.6901363    0.6901363
           0.7441507    0.7441507    0.7568702    0.7568702    0.7568702
           0.7568702    0.7702795    0.7702795    0.8282454    0.8282454

           0.8958804    0.8958804    0.8958804    0.8958804    1.2473037
           1.2473037    1.2473037    1.2473037    1.2788080    1.2788080
           1.4650298    1.4650298    1.5502364    1.5502364    1.5502364
           1.5502364    1.8031178    1.8031178    2.1586146    2.1586146
           2.1586146    2.1586146    2.1967062    2.1967062    2.1967062
           2.1967062    2.2032143    2.2032143    2.2679769    2.2679769
           2.4788393    2.4788393    2.4788393    2.4788393    2.6359620
           2.6359620    2.6601638    2.6601638    2.6614422    2.6614422

           2.6614422    2.6614422    3.0258576    3.0258576    3.0258576
           3.0258576    3.1097496    3.1097496    3.1097496    3.1097496
           3.1278654    3.1278654    3.1488100    3.1488100    3.2501208
           3.2501208    3.2501208    3.2501208    3.2556619    3.2556619
           3.2556787    3.2556787    3.2556787    3.2556787    3.4375307
           3.4375307    3.4375307    3.4375307    3.4377157    3.4377157
           3.5069387    3.5069387    3.5296321    3.5296321    3.5408929
           3.5408929    3.5408929    3.5408929    3.5709640    3.5709640

           3.5709855    3.5709855    3.5709855    3.5709855    3.6200291
           3.6200291    3.6217426    3.6217426    3.6217426    3.6217426
           3.8811471    3.8811471    4.3306937    4.3306937    4.3464984
           4.3464984    4.3464984    4.3464984
       ********************************************************

------- UO2_11.scf2 --------
:GMA  : POTENTIAL AND CHARGE CUT-OFF  12.00 Ry**.5
         Bandranges (emin - emax) and occupancy:
:BAN00018:  18    0.297930    0.434972  1.00000000
:BAN00019:  19    0.372741    0.470315  1.00000000
:BAN00020:  20    0.372741    0.470315  1.00000000
:BAN00021:  21    0.430212    0.485781  1.00000000
:BAN00022:  22    0.430212    0.485781  1.00000000
:BAN00023:  23    0.458868    0.504225  1.00000000
:BAN00024:  24    0.458868    0.504225  1.00000000
:BAN00025:  25    0.644720    0.670616  0.93995248
:BAN00026:  26    0.644720    0.670616  0.93995248
:BAN00027:  27    0.668035    0.690136  0.06004752
:BAN00028:  28    0.668035    0.690136  0.06004752
:BAN00029:  29    0.675280    0.690136  0.00000000
:BAN00030:  30    0.675280    0.690136  0.00000000
:BAN00031:  31    0.707832    0.744491  0.00000000
:BAN00032:  32    0.707832    0.744491  0.00000000
:BAN00033:  33    0.727097    0.756870  0.00000000
        Energy to separate low and high energystates:    0.59472


:NLDA  : NUMBER OF ELECTRONS          =  26.000

:FLDA  : F E R M I - ENERGY           =   1.16896




:POS001: AT.NR.   1 POSITION = 0.00000 0.00000 0.00000  MULTIPLICITY =  1

       LMMAX  5
       LM=   0 0  4 0  4 4  6 0  6 4




:POS002: AT.NR.   2 POSITION = 0.00000 0.00000 0.00000  MULTIPLICITY =  2

       LMMAX  6
       LM=   0 0  4 0  4 4  6 0  6 4 -3 2
:FER DMFT Fermi Energy   0.63414
:EORB          0.074638512
:SUM SUM OF DMFT BAND ENERGIES         -5.822882601

:CHA001: TOTAL CHARGE INSIDE SPHERE   1 =     8.122919
:PCS001: PARTIAL CHARGES SPHERE =  1 S,P,D,F,      D-EG,D-T2G 
:QTL001: 1.7918 4.1469 0.1947 1.9879 0.0000 0.0000 0.0000 0.0408 0.1605 0.0000 0.0000 0.0000
        Q-s-low E-s-low   Q-p-low E-p-low   Q-d-low E-d-low   Q-f-low E-f-low
:EPL001:  1.7917 -2.5032    4.1459 -0.7180    0.1937  0.3357    0.1983  0.4353
        Q-s-hi  E-s-hi    Q-p-hi  E-p-hi    Q-d-hi  E-d-hi    Q-f-hi  E-f-hi 
:EPH001:  0.0001  0.7467    0.0010  0.7108    0.0010  0.7149    1.7895  0.6675

:CHA002: TOTAL CHARGE INSIDE SPHERE   2 =     5.083584
:PCS002: PARTIAL CHARGES SPHERE =  2 S,P,D,F,      D-EG,D-T2G 
:QTL002: 1.5761 3.5019 0.0048 0.0007 0.0000 0.0000 0.0000 0.0019 0.0050 0.0000 0.0000 0.0000
        Q-s-low E-s-low   Q-p-low E-p-low   Q-d-low E-d-low   Q-f-low E-f-low
:EPL002:  1.5747 -0.5843    3.4858  0.4019    0.0040 -0.0955    0.0005 -0.3078
        Q-s-hi  E-s-hi    Q-p-hi  E-p-hi    Q-d-hi  E-d-hi    Q-f-hi  E-f-hi 
:EPH002:  0.0013  0.6802    0.0162  0.6879    0.0008  0.6710    0.0001  0.6717

:CHA  : TOTAL CHARGE INSIDE UNIT CELL =      26.000000

:ESUM  : SUM OF EIGENVALUES =          -5.762334941


------- UO2_11.scfc --------

        1.ATOM      U  4+                21 CORE STATES
:1S 001: 1S               -8506.612272240 Ry
:2S 001: 2S               -1588.058001396 Ry
:2PP001: 2P*              -1531.304359749 Ry
:2P 001: 2P               -1250.108052489 Ry
:3S 001: 3S                -400.195885217 Ry
:3PP001: 3P*               -374.422800680 Ry
:3P 001: 3P                -309.639277941 Ry
:3DD001: 3D*               -268.827152082 Ry
:3D 001: 3D                -255.681808400 Ry
:4S 001: 4S                -101.264450749 Ry
:4PP001: 4P*                -89.670914527 Ry
:4P 001: 4P                 -72.761065198 Ry
:4DD001: 4D*                -54.296253854 Ry
:4D 001: 4D                 -51.187626573 Ry
:5S 001: 5S                 -21.855568029 Ry
:5PP001: 5P*                -17.348832284 Ry
:5P 001: 5P                 -13.318639772 Ry
:4FF001: 4F*                -26.901004491 Ry
:4F 001: 4F                 -26.090994817 Ry
:5DD001: 5D*                 -6.729564189 Ry
:5D 001: 5D                  -6.131374765 Ry

        2.ATOM      O  2-                 1 CORE STATES
:1S 002: 1S                 -36.221150003 Ry

------- UO2_11.scfm --------
:CINT001 Core Integral Atom   1   77.964631
:CINT002 Core Integral Atom   2    2.000000
     
       CHARGES OF NEW CHARGE DENSITY
:NTO   : INTERSTITIAL CHARGE =     7.709921
:NTO001: CHARGE SPHERE  1    =    86.087550
:NTO002: CHARGE SPHERE  2    =     7.083583

:NEC01: NUCLEAR AND ELECTRONIC CHARGE    108.00000   107.96464
     
       CHARGES OF OLD CHARGE DENSITY
:OTO   : INTERSTITIAL CHARGE =     7.763121
:OTO001: CHARGE SPHERE  1    =    86.133461
:OTO002: CHARGE SPHERE  2    =     7.051709
:DNEW  1   -0.0459
:DNEW  2    0.0319

:NEC02: NUCLEAR AND ELECTRONIC CHARGE    108.00000   108.00000
     
       CONVERGENCE TEST
:DTO001: DIFFERENCE IN SPHERE  1 =  0.0350612
:DTO002: DIFFERENCE IN SPHERE  2 =  0.0379855

:DIS  :  CHARGE DISTANCE       ( 0.0379855 for atom    2 spin 1)      0.0370107
:BIG check (qbig,qrms,qtot)    0.127D-01   0.262D-01   0.370D-01
 
******************************************************
* MULTISECANT MIXING VER6 RELEASE 6.0 OPTIONS        *
* Standard Mode with controls                        *
* Regularization       1.000E-06                     *
* Trust Region Control Active                        *
* Max Number of Memory Steps    8                    *
******************************************************
 
:PLANE:  INTERSTITIAL TOTAL      2.48457 DISTAN  3.451E-01 % 
:CHARG:  CLM CHARGE   /ATOM    345.90481 DISTAN  2.068E-02 % 
 
 Step History DMIX, Red, Pred, Trust, FRMS, FABS
  2  2.5000E-02  1.0000E+00  1.0000E+00  1.0000E+00
  
:DIRM :  MEMORY  1/8 RESCALES  16.60
:MIX  :   PRATT  REGULARIZATION: 1.00E-06  GREED: 0.010  Reduce 0.40  0.01                
     
       CHARGES OF MIXED CHARGE DENSITY
:CTO   : INTERSTITIAL CHARGE =     7.763440
:CTO001: CHARGE SPHERE  1    =    86.134108
:CTO002: CHARGE SPHERE  2    =     7.051226

:NEC03: NUCLEAR AND ELECTRONIC CHARGE    108.00000   108.00000

PW CHANGE     H    K    L       Current     Change     Residue
:PTO001:      0    0    0  7.28334678E-02  1.536E-07  1.385E-06
:PTO002:     -1   -1   -1  1.87364939E-01  6.045E-06 -3.953E-04
:PTO003:      0    0   -2  2.64968183E-03  1.192E-05 -7.892E-04
:PTO004:      0   -2   -2  2.74354567E-01 -1.146E-05  7.677E-04
:PTO005:     -1   -1   -3  1.60656364E-01 -3.066E-06  2.484E-04
:PTO006:     -2   -2   -2 -1.47350948E-02  2.240E-06 -1.201E-04
:PTO007:      0    0   -4  4.70589109E-02 -2.039E-06  1.347E-04
:PTO008:     -1   -3   -3  4.37918037E-02 -2.177E-06  1.877E-04
:PTO009:      0   -2   -4 -4.73015149E-02  3.475E-06 -1.692E-04
:PTO010:     -2   -2   -4  6.25932829E-02 -5.728E-06  3.902E-04
:PTO011:     -3   -3   -3 -1.83613751E-03 -2.871E-06  2.022E-04
:PTO012:     -1   -1   -5  1.62401600E-03  1.121E-06 -6.184E-05

:ENE  : ********** TOTAL ENERGY IN Ry =       -56437.48037667


------- UO2_11.scf0 --------


            ---------
:ITE088: 88. ITERATION
            ---------

:NATO :    2 INDEPENDENT AND    3 TOTAL ATOMS IN UNITCELL
       SUBSTANCE: blebleble                                                   

       LATTICE                      = F   
:POT  : POTENTIAL OPTION    5
:LAT  : LATTICE CONSTANTS= 11.14112 11.14112 11.14112    1.571    1.571    1.571
:VOL  : UNIT CELL VOLUME =     345.72164
       MODE OF CALCULATION IS       = RELA
       NON-SPINPOLARIZED CALCULATION
:IFFT  : FFT-parameters:   90   90   90 Factor: 2.00
       ATOMNUMBER=  1 U  4+      VCOUL-ZERO = -0.74094E+00
       ATOMNUMBER=  2 O  2-      VCOUL-ZERO =  0.70737E+00
:FIT001: LUSE= 13 SIGMA OF V-XC FIT FOR ATOM  1  0.2980992E-04
:FIT001: LUSE= 13 SIGMA OF V-XC FIT FOR ATOM  1  0.2980992E-04
:FIT002: LUSE= 13 SIGMA OF V-XC FIT FOR ATOM  2  0.6345453E-04
:FIT002: LUSE= 13 SIGMA OF V-XC FIT FOR ATOM  2  0.6345453E-04
:DEN  : DENSITY INTEGRAL  =        -20874.57951910   (Ry)
       ELS_POTENTIAL_AT Z=0 and Z=0.5:  -3.18370  -3.18370
       ELS_POTENTIAL_AT Y=0 and Y=0.5:   0.00000   0.00000
:VZERO:v0,v0c,v0x  -3.84032  -3.18370  -0.65663 v5,v5c,v5x  -3.84032  -3.18370  -0.65663
:VZERY:v0,v0c,v0x  -0.78667   0.00000  -0.78667 v5,v5c,v5x  -0.78667   0.00000  -0.78667
:VZERX:v0,v0c,v0x  -0.78667   0.00000  -0.78667 v5,v5c,v5x  -0.78667   0.00000  -0.78667

------- UO2_11.scf1 --------

          ATOMIC SPHERE DEPENDENT PARAMETERS FOR ATOM  U  4+     
:e__0001: OVERALL ENERGY PARAMETER IS    0.4828
          OVERALL BASIS SET ON ATOM IS LAPW
:E0_0001: E( 0)=    0.4828
             APW+lo
:E0_0001: E( 0)=   -2.4956   E(BOTTOM)=   -3.842   E(TOP)=   -1.150  5  6   233
             LOCAL ORBITAL
:E1_0001: E( 1)=   -1.2800   E(BOTTOM)=   -2.107   E(TOP)= -200.000  4 -1   207
             APW+lo
:E1_0001: E( 1)=    0.8828
             LOCAL ORBITAL
:E3_0001: E( 3)=    0.4828   E(BOTTOM)=   -0.056   E(TOP)= -200.000  1 -1   103
             APW+lo
:E2_0001: E( 2)=    0.5052   E(BOTTOM)=    0.505   E(TOP)= -200.000  3 -1    77
             APW+lo

          ATOMIC SPHERE DEPENDENT PARAMETERS FOR ATOM  O  2-     
:e__0002: OVERALL ENERGY PARAMETER IS    0.4828
          OVERALL BASIS SET ON ATOM IS LAPW
:E0_0002: E( 0)=   -0.4561   E(BOTTOM)=   -1.813   E(TOP)=    0.900  1  2   238
             APW+lo
:E0_0002: E( 0)=    0.8828
             LOCAL ORBITAL
:E1_0002: E( 1)=    0.4828
             APW+lo

       K=   0.00000   0.00000   0.00000            1
:RKM  : MATRIX SIZE  923LOs:  30  RKM= 8.46  WEIGHT= 1.00  PGR:    
       EIGENVALUES ARE:
:EIG00001:      -2.5696052   -0.7185844   -0.7185844   -0.7185844   -0.6428052
:EIG00006:      -0.5665364    0.2952753    0.2952753    0.2952753    0.4719914
:EIG00011:       0.4719914    0.4719914    0.7029035    0.7029035    0.7029035
:EIG00016:       0.7227291    0.7498160    0.7498160    0.7498160    0.8281780
:EIG00021:       0.8985100    0.8985100    1.2573790    1.2573790    1.2573790
:EIG00026:       1.5240135    1.5240135    1.5240135    1.8031396    2.1659900
:EIG00031:       2.1659900    2.1939551    2.1939551    2.1939551    2.4026484
:EIG00036:       2.4026484    2.4026484    2.6380751    2.6602350    2.6602350
:EIG00041:       2.6602350    3.0297066    3.0297066    3.1127324    3.1127324
:EIG00046:       3.1127324    3.1488411    3.2499652    3.2499652    3.2557319
 
:EIG00051:       3.2557319    3.2557319    3.4373813    3.4373813    3.4373813
:EIG00056:       3.5069937    3.5366492    3.5366492    3.5366492    3.5709611
:EIG00061:       3.5709611    3.5709611    3.6210388    3.6210388    3.6210388
:EIG00066:       3.8810310    4.3413448    4.3413448    4.3413448    4.5708202
:EIG00071:       4.5708202    4.5708202    4.6173114    4.6173114    4.7913175
:EIG00076:       5.0985618    5.0985618    5.1123142    5.1123142    5.1123142
:EIG00081:       5.2138972    5.2138972    5.2138972    5.4416484    5.4416484
:EIG00086:       5.4416484    5.5870019    5.5870019    5.5870019    5.6326770
:EIG00091:       5.7079937    5.7079937    5.7548373    5.7548373    5.7743033
:EIG00096:       5.7743033    5.7743033    5.8289746    6.0019153    6.0115178
 
:EIG00101:       6.0115178    6.0115178    6.0215766    6.0215766    6.0215766
:EIG00106:       6.1379907    6.1379907    6.1379907    6.3362607    6.3362607
:EIG00111:       6.3362607    6.3543101    6.3998467    6.3998467    6.3998467
:EIG00116:       6.4199141    6.4199141    6.4352759    6.4352759    6.4352759
:EIG00121:       6.5640901    6.5640901    6.5640901    7.0086365    7.0086365
:EIG00126:       7.0086365    7.0960316    7.0960316    7.0960316    7.1946106
:EIG00131:       7.1946106    7.1946106    7.2078312    7.3132052    7.3132052
:EIG00136:       7.3714743    7.3714743    7.4401554    7.4401554    7.4401554
:EIG00141:       7.5631320    7.5631320    7.5631320    7.7327212    7.7327212
:EIG00146:       7.7327212    7.7692554    7.8649113    7.8928226    7.8928226
 
:EIG00151:       8.0281128    8.0281128    8.0281128    8.0319618    8.0319618
:EIG00156:       8.1785936    8.1785936    8.1785936
       ********************************************************

:KPT   :      NUMBER OF K-POINTS:   145

------- UO2_11.scfso --------
   0.0   0.0 angle (M,z), angle (M,x) deg
 
        SPIN-ORBIT EIGENVALUES:
     K=   0.00000   0.00000   0.00000            1
      MATRIX SIZE=  316   WEIGHT= 1.00
     EIGENVALUES ARE:
          -2.5696052   -2.5696052   -1.1260099   -1.1260099   -0.6428052
          -0.6428052   -0.5665387   -0.5665387   -0.5511567   -0.5511567
          -0.5511567   -0.5511567    0.2936666    0.2936666    0.2936666
           0.2936666    0.2976675    0.2976675    0.4690932    0.4690932
           0.4725379    0.4725379    0.4725379    0.4725379    0.6709204
           0.6709204    0.6905573    0.6905573    0.6905573    0.6905573
           0.7446252    0.7446252    0.7572231    0.7572231    0.7572231
           0.7572231    0.7706119    0.7706119    0.8281780    0.8281780

           0.8960227    0.8960227    0.8960227    0.8960227    1.2472580
           1.2472580    1.2472580    1.2472580    1.2787547    1.2787547
           1.4650648    1.4650648    1.5502474    1.5502474    1.5502474
           1.5502474    1.8031396    1.8031396    2.1586327    2.1586327
           2.1586327    2.1586327    2.1966734    2.1966734    2.1966734
           2.1966734    2.2031670    2.2031670    2.2679643    2.2679643
           2.4788435    2.4788435    2.4788435    2.4788435    2.6358940
           2.6358940    2.6602387    2.6602387    2.6615335    2.6615335

           2.6615335    2.6615335    3.0259423    3.0259423    3.0259423
           3.0259423    3.1097276    3.1097276    3.1097276    3.1097276
           3.1278400    3.1278400    3.1488411    3.1488411    3.2499652
           3.2499652    3.2499652    3.2499652    3.2557206    3.2557206
           3.2557375    3.2557375    3.2557375    3.2557375    3.4375247
           3.4375247    3.4375247    3.4375247    3.4377166    3.4377166
           3.5069937    3.5069937    3.5296428    3.5296428    3.5409169
           3.5409169    3.5409169    3.5409169    3.5709498    3.5709498

           3.5709711    3.5709711    3.5709711    3.5709711    3.6200653
           3.6200653    3.6217794    3.6217794    3.6217794    3.6217794
           3.8811804    3.8811804    4.3305720    4.3305720    4.3463756
           4.3463756    4.3463756    4.3463756
       ********************************************************

------- UO2_11.scf2 --------
:GMA  : POTENTIAL AND CHARGE CUT-OFF  12.00 Ry**.5
         Bandranges (emin - emax) and occupancy:
:BAN00018:  18    0.297668    0.434677  1.00000000
:BAN00019:  19    0.372494    0.469959  1.00000000
:BAN00020:  20    0.372494    0.469959  1.00000000
:BAN00021:  21    0.429950    0.485470  1.00000000
:BAN00022:  22    0.429950    0.485470  1.00000000
:BAN00023:  23    0.458642    0.503910  1.00000000
:BAN00024:  24    0.458642    0.503910  1.00000000
:BAN00025:  25    0.645186    0.671088  0.93984800
:BAN00026:  26    0.645186    0.671088  0.93984800
:BAN00027:  27    0.668481    0.690557  0.06015200
:BAN00028:  28    0.668481    0.690557  0.06015200
:BAN00029:  29    0.675709    0.690557  0.00000000
:BAN00030:  30    0.675709    0.690557  0.00000000
:BAN00031:  31    0.708287    0.744949  0.00000000
:BAN00032:  32    0.708287    0.744949  0.00000000
:BAN00033:  33    0.727545    0.757223  0.00000000
        Energy to separate low and high energystates:    0.59519


:NLDA  : NUMBER OF ELECTRONS          =  26.000

:FLDA  : F E R M I - ENERGY           =   1.16942




:POS001: AT.NR.   1 POSITION = 0.00000 0.00000 0.00000  MULTIPLICITY =  1

       LMMAX  5
       LM=   0 0  4 0  4 4  6 0  6 4




:POS002: AT.NR.   2 POSITION = 0.00000 0.00000 0.00000  MULTIPLICITY =  2

       LMMAX  6
       LM=   0 0  4 0  4 4  6 0  6 4 -3 2
:FER DMFT Fermi Energy   0.63551
:EORB          0.070583257
:SUM SUM OF DMFT BAND ENERGIES         -5.820574608

:CHA001: TOTAL CHARGE INSIDE SPHERE   1 =     8.113253
:PCS001: PARTIAL CHARGES SPHERE =  1 S,P,D,F,      D-EG,D-T2G 
:QTL001: 1.7918 4.1469 0.1945 1.9786 0.0000 0.0000 0.0000 0.0407 0.1603 0.0000 0.0000 0.0000
        Q-s-low E-s-low   Q-p-low E-p-low   Q-d-low E-d-low   Q-f-low E-f-low
:EPL001:  1.7916 -2.5027    4.1459 -0.7175    0.1935  0.3355    0.1912  0.4336
        Q-s-hi  E-s-hi    Q-p-hi  E-p-hi    Q-d-hi  E-d-hi    Q-f-hi  E-f-hi 
:EPH001:  0.0001  0.7469    0.0010  0.7121    0.0010  0.7157    1.7874  0.6681

:CHA002: TOTAL CHARGE INSIDE SPHERE   2 =     5.089491
:PCS002: PARTIAL CHARGES SPHERE =  2 S,P,D,F,      D-EG,D-T2G 
:QTL002: 1.5762 3.5077 0.0048 0.0007 0.0000 0.0000 0.0000 0.0019 0.0050 0.0000 0.0000 0.0000
        Q-s-low E-s-low   Q-p-low E-p-low   Q-d-low E-d-low   Q-f-low E-f-low
:EPL002:  1.5749 -0.5847    3.4922  0.4017    0.0040 -0.0962    0.0005 -0.3087
        Q-s-hi  E-s-hi    Q-p-hi  E-p-hi    Q-d-hi  E-d-hi    Q-f-hi  E-f-hi 
:EPH002:  0.0013  0.6807    0.0155  0.6885    0.0008  0.6715    0.0001  0.6722

:CHA  : TOTAL CHARGE INSIDE UNIT CELL =      26.000000

:ESUM  : SUM OF EIGENVALUES =          -5.762791084


------- UO2_11.scfc --------

        1.ATOM      U  4+                21 CORE STATES
:1S 001: 1S               -8506.611405024 Ry
:2S 001: 2S               -1588.057133473 Ry
:2PP001: 2P*              -1531.303491901 Ry
:2P 001: 2P               -1250.107184625 Ry
:3S 001: 3S                -400.195027527 Ry
:3PP001: 3P*               -374.421941424 Ry
:3P 001: 3P                -309.638422765 Ry
:3DD001: 3D*               -268.826292194 Ry
:3D 001: 3D                -255.680949495 Ry
:4S 001: 4S                -101.263643453 Ry
:4PP001: 4P*                -89.670106737 Ry
:4P 001: 4P                 -72.760267289 Ry
:4DD001: 4D*                -54.295454710 Ry
:4D 001: 4D                 -51.186830267 Ry
:5S 001: 5S                 -21.854844516 Ry
:5PP001: 5P*                -17.348116384 Ry
:5P 001: 5P                 -13.317946682 Ry
:4FF001: 4F*                -26.900203392 Ry
:4F 001: 4F                 -26.090195182 Ry
:5DD001: 5D*                 -6.728900994 Ry
:5D 001: 5D                  -6.130720734 Ry

        2.ATOM      O  2-                 1 CORE STATES
:1S 002: 1S                 -36.222057338 Ry

------- UO2_11.scfm --------
:CINT001 Core Integral Atom   1   77.964626
:CINT002 Core Integral Atom   2    2.000000
     
       CHARGES OF NEW CHARGE DENSITY
:NTO   : INTERSTITIAL CHARGE =     7.707764
:NTO001: CHARGE SPHERE  1    =    86.077879
:NTO002: CHARGE SPHERE  2    =     7.089491

:NEC01: NUCLEAR AND ELECTRONIC CHARGE    108.00000   107.96463
     
       CHARGES OF OLD CHARGE DENSITY
:OTO   : INTERSTITIAL CHARGE =     7.763440
:OTO001: CHARGE SPHERE  1    =    86.134108
:OTO002: CHARGE SPHERE  2    =     7.051226
:DNEW  1   -0.0562
:DNEW  2    0.0383

:NEC02: NUCLEAR AND ELECTRONIC CHARGE    108.00000   108.00000
     
       CONVERGENCE TEST
:DTO001: DIFFERENCE IN SPHERE  1 =  0.0435998
:DTO002: DIFFERENCE IN SPHERE  2 =  0.0458435

:DIS  :  CHARGE DISTANCE       ( 0.0458435 for atom    2 spin 1)      0.0450956
:BIG check (qbig,qrms,qtot)    0.153D-01   0.319D-01   0.451D-01
 
******************************************************
* MULTISECANT MIXING VER6 RELEASE 6.0 OPTIONS        *
* Standard Mode with controls                        *
* Regularization       1.000E-06                     *
* Trust Region Control Active                        *
* Max Number of Memory Steps    8                    *
******************************************************
 
:PLANE:  INTERSTITIAL TOTAL      2.48455 DISTAN  4.102E-01 % 
:CHARG:  CLM CHARGE   /ATOM    345.90486 DISTAN  2.488E-02 % 
 
 Step History DMIX, Red, Pred, Trust, FRMS, FABS
  2  2.5000E-02  1.0000E+00  1.0000E+00  1.0000E+00
  3  1.0000E-02  1.0000E+00  1.0000E+00  1.0000E+00
  
:NORMS:  Nuclear, Spectral, Froebius, Shanno-Pua   0.1780E+02  0.1585E+02  0.1597E+02  0.1324E-01
:INFO :  Number of Memory Steps    2 Skipping    0
:INFO :  SLambda=    3.0000000  Max    3.0000000

Eigenvalues, unscaled except for SY+YY
   #     SY Real        SY Imag          SS             YY         SY+YY Real      SY+YY Imag
   1  -5.360434E-13   0.000000E+00   2.081668E-17   1.970020E+00   3.440819E-02   0.000000E+00
   2   2.760654E-02   0.000000E+00   7.846034E-03   2.998037E-02   2.048411E+00   0.000000E+00
 
:INFO :  Singular value   2.079E+00 Weight  1.0000E+00 Projections   1.248E-02 -1.702E-01
:INFO :  Singular value   3.391E-02 Weight  1.0000E+00 Projections   2.276E-01  1.515E-01
 
:DIRM :  MEMORY 2/8 RESCALE  16.70 RED 1.196 PRED 1.000 NEXT 0.178
:INFO :  Blimit    8.333E-01  5.000E-01  1.000E-01  5.000E-01
:DIRP :  |MSR1|= 1.176E-02 |PRATT|= 1.702E-01 ANGLE=   3.0 DEGREES
:DIRQ :  |MSR1|= 1.154E-02 |PRATT|= 1.721E-01 ANGLE=   4.5 DEGREES
:DIR  :  |MSR1|= 1.647E-02 |PRATT|= 2.421E-01 ANGLE=   3.9 DEGREES
:MIX  :   MSE1   REGULARIZATION: 1.97E-06  GREED: 0.010  Newton 1.00  0.07                
     
       CHARGES OF MIXED CHARGE DENSITY
:CTO   : INTERSTITIAL CHARGE =     7.761641
:CTO001: CHARGE SPHERE  1    =    86.130653
:CTO002: CHARGE SPHERE  2    =     7.053853

:NEC03: NUCLEAR AND ELECTRONIC CHARGE    108.00000   108.00000

PW CHANGE     H    K    L       Current     Change     Residue
:PTO001:      0    0    0  7.28325782E-02 -8.896E-07  2.109E-06
:PTO002:     -1   -1   -1  1.87332464E-01 -3.247E-05 -4.827E-04
:PTO003:      0    0   -2  2.58495714E-03 -6.472E-05 -9.489E-04
:PTO004:      0   -2   -2  2.74418501E-01  6.393E-05  8.878E-04
:PTO005:     -1   -1   -3  1.60675452E-01  1.909E-05  2.464E-04
:PTO006:     -2   -2   -2 -1.47456372E-02 -1.054E-05 -1.790E-04
:PTO007:      0    0   -4  4.70697747E-02  1.086E-05  1.661E-04
:PTO008:     -1   -3   -3  4.38044902E-02  1.269E-05  2.056E-04
:PTO009:      0   -2   -4 -4.73195557E-02 -1.804E-05 -2.239E-04
:PTO010:     -2   -2   -4  6.26247278E-02  3.144E-05  4.616E-04
:PTO011:     -3   -3   -3 -1.81982747E-03  1.631E-05  2.277E-04
:PTO012:     -1   -1   -5  1.61731151E-03 -6.704E-06 -6.259E-05

:ENE  : ********** TOTAL ENERGY IN Ry =       -56437.48082250


------- UO2_11.scf0 --------


            ---------
:ITE089: 89. ITERATION
            ---------

:NATO :    2 INDEPENDENT AND    3 TOTAL ATOMS IN UNITCELL
       SUBSTANCE: blebleble                                                   

       LATTICE                      = F   
:POT  : POTENTIAL OPTION    5
:LAT  : LATTICE CONSTANTS= 11.14112 11.14112 11.14112    1.571    1.571    1.571
:VOL  : UNIT CELL VOLUME =     345.72164
       MODE OF CALCULATION IS       = RELA
       NON-SPINPOLARIZED CALCULATION
:IFFT  : FFT-parameters:   90   90   90 Factor: 2.00
       ATOMNUMBER=  1 U  4+      VCOUL-ZERO = -0.74249E+00
       ATOMNUMBER=  2 O  2-      VCOUL-ZERO =  0.70871E+00
:FIT001: LUSE= 13 SIGMA OF V-XC FIT FOR ATOM  1  0.2971169E-04
:FIT001: LUSE= 13 SIGMA OF V-XC FIT FOR ATOM  1  0.2971169E-04
:FIT002: LUSE= 13 SIGMA OF V-XC FIT FOR ATOM  2  0.6316966E-04
:FIT002: LUSE= 13 SIGMA OF V-XC FIT FOR ATOM  2  0.6316966E-04
:DEN  : DENSITY INTEGRAL  =        -20874.27921520   (Ry)
       ELS_POTENTIAL_AT Z=0 and Z=0.5:  -3.18631  -3.18631
       ELS_POTENTIAL_AT Y=0 and Y=0.5:   0.00000   0.00000
:VZERO:v0,v0c,v0x  -3.84267  -3.18631  -0.65636 v5,v5c,v5x  -3.84267  -3.18631  -0.65636
:VZERY:v0,v0c,v0x  -0.78663   0.00000  -0.78663 v5,v5c,v5x  -0.78663   0.00000  -0.78663
:VZERX:v0,v0c,v0x  -0.78663   0.00000  -0.78663 v5,v5c,v5x  -0.78663   0.00000  -0.78663

------- UO2_11.scf1 --------

          ATOMIC SPHERE DEPENDENT PARAMETERS FOR ATOM  U  4+     
:e__0001: OVERALL ENERGY PARAMETER IS    0.4828
          OVERALL BASIS SET ON ATOM IS LAPW
:E0_0001: E( 0)=    0.4828
             APW+lo
:E0_0001: E( 0)=   -2.4983   E(BOTTOM)=   -3.844   E(TOP)=   -1.153  5  6   235
             LOCAL ORBITAL
:E1_0001: E( 1)=   -1.2800   E(BOTTOM)=   -2.109   E(TOP)= -200.000  4 -1   207
             APW+lo
:E1_0001: E( 1)=    0.8828
             LOCAL ORBITAL
:E3_0001: E( 3)=    0.4828   E(BOTTOM)=   -0.059   E(TOP)= -200.000  1 -1   108
             APW+lo
:E2_0001: E( 2)=    0.5029   E(BOTTOM)=    0.503   E(TOP)= -200.000  3 -1    70
             APW+lo

          ATOMIC SPHERE DEPENDENT PARAMETERS FOR ATOM  O  2-     
:e__0002: OVERALL ENERGY PARAMETER IS    0.4828
          OVERALL BASIS SET ON ATOM IS LAPW
:E0_0002: E( 0)=   -0.4533   E(BOTTOM)=   -1.810   E(TOP)=    0.904  1  2   237
             APW+lo
:E0_0002: E( 0)=    0.8828
             LOCAL ORBITAL
:E1_0002: E( 1)=    0.4828
             APW+lo

       K=   0.00000   0.00000   0.00000            1
:RKM  : MATRIX SIZE  923LOs:  30  RKM= 8.46  WEIGHT= 1.00  PGR:    
       EIGENVALUES ARE:
:EIG00001:      -2.5720302   -0.7204303   -0.7204303   -0.7204303   -0.6406962
:EIG00006:      -0.5641731    0.2966698    0.2966698    0.2966698    0.4732835
:EIG00011:       0.4732835    0.4732835    0.7002849    0.7002849    0.7002849
:EIG00016:       0.7202026    0.7481898    0.7481898    0.7481898    0.8285443
:EIG00021:       0.8977415    0.8977415    1.2576503    1.2576503    1.2576503
:EIG00026:       1.5239155    1.5239155    1.5239155    1.8030208    2.1657861
:EIG00031:       2.1657861    2.1942330    2.1942330    2.1942330    2.4026616
:EIG00036:       2.4026616    2.4026616    2.6385399    2.6597482    2.6597482
:EIG00041:       2.6597482    3.0292136    3.0292136    3.1128889    3.1128889
:EIG00046:       3.1128889    3.1486777    3.2508088    3.2508088    3.2554145
 
:EIG00051:       3.2554145    3.2554145    3.4374005    3.4374005    3.4374005
:EIG00056:       3.5066944    3.5365512    3.5365512    3.5365512    3.5710381
:EIG00061:       3.5710381    3.5710381    3.6208437    3.6208437    3.6208437
:EIG00066:       3.8808575    4.3420105    4.3420105    4.3420105    4.5714149
:EIG00071:       4.5714149    4.5714149    4.6171960    4.6171960    4.7911802
:EIG00076:       5.0978917    5.0978917    5.1116971    5.1116971    5.1116971
:EIG00081:       5.2138086    5.2138086    5.2138086    5.4409540    5.4409540
:EIG00086:       5.4409540    5.5872168    5.5872168    5.5872168    5.6329557
:EIG00091:       5.7082348    5.7082348    5.7550953    5.7550953    5.7741957
:EIG00096:       5.7741957    5.7741957    5.8292263    6.0018322    6.0116299
 
:EIG00101:       6.0116299    6.0116299    6.0209643    6.0209643    6.0209643
:EIG00106:       6.1383796    6.1383796    6.1383796    6.3361341    6.3361341
:EIG00111:       6.3361341    6.3541877    6.3995431    6.3995431    6.3995431
:EIG00116:       6.4201126    6.4201126    6.4355534    6.4355534    6.4355534
:EIG00121:       6.5638999    6.5638999    6.5638999    7.0086989    7.0086989
:EIG00126:       7.0086989    7.0960507    7.0960507    7.0960507    7.1945832
:EIG00131:       7.1945832    7.1945832    7.2072741    7.3130379    7.3130379
:EIG00136:       7.3715171    7.3715171    7.4409579    7.4409579    7.4409579
:EIG00141:       7.5630210    7.5630210    7.5630210    7.7323062    7.7323062
:EIG00146:       7.7323062    7.7694634    7.8649265    7.8919945    7.8919945
 
:EIG00151:       8.0280550    8.0280550    8.0280550    8.0330792    8.0330792
:EIG00156:       8.1789436    8.1789436    8.1789436
       ********************************************************

:KPT   :      NUMBER OF K-POINTS:   145

------- UO2_11.scfso --------
   0.0   0.0 angle (M,z), angle (M,x) deg
 
        SPIN-ORBIT EIGENVALUES:
     K=   0.00000   0.00000   0.00000            1
      MATRIX SIZE=  316   WEIGHT= 1.00
     EIGENVALUES ARE:
          -2.5720302   -2.5720302   -1.1280847   -1.1280847   -0.6406962
          -0.6406962   -0.5641754   -0.5641754   -0.5528865   -0.5528865
          -0.5528865   -0.5528865    0.2950421    0.2950421    0.2950421
           0.2950421    0.2990916    0.2990916    0.4705725    0.4705725
           0.4736705    0.4736705    0.4736705    0.4736705    0.6682991
           0.6682991    0.6883141    0.6883141    0.6883141    0.6883141
           0.7420936    0.7420936    0.7553538    0.7553538    0.7553538
           0.7553538    0.7688500    0.7688500    0.8285443    0.8285443

           0.8952570    0.8952570    0.8952570    0.8952570    1.2475148
           1.2475148    1.2475148    1.2475148    1.2790525    1.2790525
           1.4648794    1.4648794    1.5501912    1.5501912    1.5501912
           1.5501912    1.8030208    1.8030208    2.1585373    2.1585373
           2.1585373    2.1585373    2.1968548    2.1968548    2.1968548
           2.1968548    2.2034263    2.2034263    2.2680396    2.2680396
           2.4788289    2.4788289    2.4788289    2.4788289    2.6362672
           2.6362672    2.6598433    2.6598433    2.6610467    2.6610467

           2.6610467    2.6610467    3.0254878    3.0254878    3.0254878
           3.0254878    3.1098523    3.1098523    3.1098523    3.1098523
           3.1279828    3.1279828    3.1486777    3.1486777    3.2508088
           3.2508088    3.2508088    3.2508088    3.2554032    3.2554032
           3.2554201    3.2554201    3.2554201    3.2554201    3.4375597
           3.4375597    3.4375597    3.4375597    3.4377145    3.4377145
           3.5066944    3.5066944    3.5295899    3.5295899    3.5407921
           3.5407921    3.5407921    3.5407921    3.5710259    3.5710259

           3.5710485    3.5710485    3.5710485    3.5710485    3.6198714
           3.6198714    3.6215828    3.6215828    3.6215828    3.6215828
           3.8810067    3.8810067    4.3312320    4.3312320    4.3470416
           4.3470416    4.3470416    4.3470416
       ********************************************************

------- UO2_11.scf2 --------
:GMA  : POTENTIAL AND CHARGE CUT-OFF  12.00 Ry**.5
         Bandranges (emin - emax) and occupancy:
:BAN00018:  18    0.299092    0.436273  1.00000000
:BAN00019:  19    0.373828    0.471893  1.00000000
:BAN00020:  20    0.373828    0.471893  1.00000000
:BAN00021:  21    0.431370    0.487156  1.00000000
:BAN00022:  22    0.431370    0.487156  1.00000000
:BAN00023:  23    0.459867    0.505614  1.00000000
:BAN00024:  24    0.459867    0.505614  1.00000000
:BAN00025:  25    0.642698    0.668566  0.94043722
:BAN00026:  26    0.642698    0.668566  0.94043722
:BAN00027:  27    0.666106    0.688314  0.05956278
:BAN00028:  28    0.666106    0.688314  0.05956278
:BAN00029:  29    0.673426    0.688314  0.00000000
:BAN00030:  30    0.673426    0.688314  0.00000000
:BAN00031:  31    0.705854    0.742502  0.00000000
:BAN00032:  32    0.705854    0.742502  0.00000000
:BAN00033:  33    0.725153    0.755354  0.00000000
        Energy to separate low and high energystates:    0.59270


:NLDA  : NUMBER OF ELECTRONS          =  26.000

:FLDA  : F E R M I - ENERGY           =   1.16698




:POS001: AT.NR.   1 POSITION = 0.00000 0.00000 0.00000  MULTIPLICITY =  1

       LMMAX  5
       LM=   0 0  4 0  4 4  6 0  6 4




:POS002: AT.NR.   2 POSITION = 0.00000 0.00000 0.00000  MULTIPLICITY =  2

       LMMAX  6
       LM=   0 0  4 0  4 4  6 0  6 4 -3 2
:FER DMFT Fermi Energy   0.63785
:EORB          0.058247236
:SUM SUM OF DMFT BAND ENERGIES         -5.801306982

:CHA001: TOTAL CHARGE INSIDE SPHERE   1 =     8.116689
:PCS001: PARTIAL CHARGES SPHERE =  1 S,P,D,F,      D-EG,D-T2G 
:QTL001: 1.7921 4.1486 0.1964 1.9780 0.0000 0.0000 0.0000 0.0412 0.1617 0.0000 0.0000 0.0000
        Q-s-low E-s-low   Q-p-low E-p-low   Q-d-low E-d-low   Q-f-low E-f-low
:EPL001:  1.7920 -2.5048    4.1476 -0.7193    0.1954  0.3372    0.1905  0.4349
        Q-s-hi  E-s-hi    Q-p-hi  E-p-hi    Q-d-hi  E-d-hi    Q-f-hi  E-f-hi 
:EPH001:  0.0001  0.7463    0.0010  0.7091    0.0010  0.7140    1.7875  0.6657

:CHA002: TOTAL CHARGE INSIDE SPHERE   2 =     5.082652
:PCS002: PARTIAL CHARGES SPHERE =  2 S,P,D,F,      D-EG,D-T2G 
:QTL002: 1.5756 3.5015 0.0048 0.0007 0.0000 0.0000 0.0000 0.0019 0.0050 0.0000 0.0000 0.0000
        Q-s-low E-s-low   Q-p-low E-p-low   Q-d-low E-d-low   Q-f-low E-f-low
:EPL002:  1.5742 -0.5824    3.4861  0.4032    0.0040 -0.0934    0.0005 -0.3072
        Q-s-hi  E-s-hi    Q-p-hi  E-p-hi    Q-d-hi  E-d-hi    Q-f-hi  E-f-hi 
:EPH002:  0.0013  0.6785    0.0154  0.6863    0.0008  0.6691    0.0001  0.6699

:CHA  : TOTAL CHARGE INSIDE UNIT CELL =      26.000000

:ESUM  : SUM OF EIGENVALUES =          -5.755338295


------- UO2_11.scfc --------

        1.ATOM      U  4+                21 CORE STATES
:1S 001: 1S               -8506.615964890 Ry
:2S 001: 2S               -1588.061700462 Ry
:2PP001: 2P*              -1531.308057640 Ry
:2P 001: 2P               -1250.111751258 Ry
:3S 001: 3S                -400.199547288 Ry
:3PP001: 3P*               -374.426468807 Ry
:3P 001: 3P                -309.642929911 Ry
:3DD001: 3D*               -268.830822679 Ry
:3D 001: 3D                -255.685475186 Ry
:4S 001: 4S                -101.267908383 Ry
:4PP001: 4P*                -89.674374133 Ry
:4P 001: 4P                 -72.764484594 Ry
:4DD001: 4D*                -54.299678274 Ry
:4D 001: 4D                 -51.191039449 Ry
:5S 001: 5S                 -21.858683593 Ry
:5PP001: 5P*                -17.351916294 Ry
:5P 001: 5P                 -13.321629140 Ry
:4FF001: 4F*                -26.904437219 Ry
:4F 001: 4F                 -26.094421581 Ry
:5DD001: 5D*                 -6.732428395 Ry
:5D 001: 5D                  -6.134200563 Ry

        2.ATOM      O  2-                 1 CORE STATES
:1S 002: 1S                 -36.217140995 Ry

------- UO2_11.scfm --------
:CINT001 Core Integral Atom   1   77.964655
:CINT002 Core Integral Atom   2    2.000000
     
       CHARGES OF NEW CHARGE DENSITY
:NTO   : INTERSTITIAL CHARGE =     7.717994
:NTO001: CHARGE SPHERE  1    =    86.081344
:NTO002: CHARGE SPHERE  2    =     7.082652

:NEC01: NUCLEAR AND ELECTRONIC CHARGE    108.00000   107.96464
     
       CHARGES OF OLD CHARGE DENSITY
:OTO   : INTERSTITIAL CHARGE =     7.761641
:OTO001: CHARGE SPHERE  1    =    86.130653
:OTO002: CHARGE SPHERE  2    =     7.053853
:DNEW  1   -0.0493
:DNEW  2    0.0288

:NEC02: NUCLEAR AND ELECTRONIC CHARGE    108.00000   108.00000
     
       CONVERGENCE TEST
:DTO001: DIFFERENCE IN SPHERE  1 =  0.0384731
:DTO002: DIFFERENCE IN SPHERE  2 =  0.0330667

:DIS  :  CHARGE DISTANCE       ( 0.0384731 for atom    1 spin 1)      0.0348688
:BIG check (qbig,qrms,qtot)    0.128D-01   0.247D-01   0.349D-01
 
******************************************************
* MULTISECANT MIXING VER6 RELEASE 6.0 OPTIONS        *
* Standard Mode with controls                        *
* Regularization       1.000E-06                     *
* Trust Region Control Active                        *
* Max Number of Memory Steps    8                    *
******************************************************
 
:PLANE:  INTERSTITIAL TOTAL      2.48468 DISTAN  3.287E-01 % 
:CHARG:  CLM CHARGE   /ATOM    345.90462 DISTAN  1.994E-02 % 
 
 Step History DMIX, Red, Pred, Trust, FRMS, FABS
  2  2.5000E-02  1.0000E+00  1.0000E+00  1.0000E+00
  3  1.0000E-02  1.1960E+00  1.0000E+00  1.0000E+00
  4  1.0000E-02  1.0000E+00  1.7810E-01  5.0000E-01
  
:NORMS:  Nuclear, Spectral, Froebius, Shanno-Pua   0.3010E+01  0.2206E+01  0.2346E+01  0.2311E+00
:INFO :  Number of Memory Steps    3 Skipping    0
:INFO :  SLambda=    3.0000000  Max    3.0000000

Eigenvalues, unscaled except for SY+YY
   #     SY Real        SY Imag          SS             YY         SY+YY Real      SY+YY Imag
   1   5.697973E-01   0.000000E+00   5.449160E-01   2.652445E+00   4.465737E+00   0.000000E+00
   2   2.612348E-05   0.000000E+00   8.744841E-06   1.723162E-04   1.736443E-04   0.000000E+00
   3   5.230396E-12   0.000000E+00   9.813323E-17   3.473825E-01   2.435591E-01   0.000000E+00
 
:INFO :  Increased using Multisecant Shanno-Phua
:INFO :  Singular value   4.675E+00 Weight  1.0000E+00 Projections   1.384E+00  1.140E-01
:INFO :  Singular value   2.327E-01 Weight  1.0000E+00 Projections  -1.429E+00 -2.692E-01
:INFO :  Singular value   1.736E-04 Weight  9.9977E-01 Projections   6.735E-05 -1.968E+00
 
:DIRM :  MEMORY 3/8 RESCALE  16.75 RED 0.801 PRED 0.178 NEXT 0.265
:INFO :  Blimit    7.408E-01  1.360E+00  1.022E-01  5.557E-01
:DIRP :  |MSR1|= 4.760E-03 |PRATT|= 1.368E-01 ANGLE=  79.9 DEGREES
:DIRQ :  |MSR1|= 4.478E-03 |PRATT|= 1.379E-01 ANGLE= 107.7 DEGREES
:DIR  :  |MSR1|= 6.535E-03 |PRATT|= 1.942E-01 ANGLE=  93.3 DEGREES
:MIX  :   MSE1   REGULARIZATION: 2.65E-06  GREED: 0.015  Newton 1.00  0.03                
     
       CHARGES OF MIXED CHARGE DENSITY
:CTO   : INTERSTITIAL CHARGE =     7.760860
:CTO001: CHARGE SPHERE  1    =    86.131918
:CTO002: CHARGE SPHERE  2    =     7.053611

:NEC03: NUCLEAR AND ELECTRONIC CHARGE    108.00000   108.00000

PW CHANGE     H    K    L       Current     Change     Residue
:PTO001:      0    0    0  7.28319993E-02 -5.789E-07  3.077E-05
:PTO002:     -1   -1   -1  1.87341710E-01  9.245E-06 -3.443E-04
:PTO003:      0    0   -2  2.59168712E-03  6.730E-06 -7.216E-04
:PTO004:      0   -2   -2  2.74437526E-01  1.902E-05  7.340E-04
:PTO005:     -1   -1   -3  1.60709393E-01  3.394E-05  3.518E-04
:PTO006:     -2   -2   -2 -1.47205691E-02  2.507E-05 -3.154E-05
:PTO007:      0    0   -4  4.70654106E-02 -4.364E-06  1.206E-04
:PTO008:     -1   -3   -3  4.38160852E-02  1.159E-05  2.859E-04
:PTO009:      0   -2   -4 -4.73065432E-02  1.301E-05 -2.808E-06
:PTO010:     -2   -2   -4  6.26269153E-02  2.187E-06  3.877E-04
:PTO011:     -3   -3   -3 -1.81032834E-03  9.499E-06  2.210E-04
:PTO012:     -1   -1   -5  1.60705381E-03 -1.026E-05 -3.636E-05

:ENE  : ********** TOTAL ENERGY IN Ry =       -56437.48126606


------- UO2_11.scf0 --------


            ---------
:ITE090: 90. ITERATION
            ---------

:NATO :    2 INDEPENDENT AND    3 TOTAL ATOMS IN UNITCELL
       SUBSTANCE: blebleble                                                   

       LATTICE                      = F   
:POT  : POTENTIAL OPTION    5
:LAT  : LATTICE CONSTANTS= 11.14112 11.14112 11.14112    1.571    1.571    1.571
:VOL  : UNIT CELL VOLUME =     345.72164
       MODE OF CALCULATION IS       = RELA
       NON-SPINPOLARIZED CALCULATION
:IFFT  : FFT-parameters:   90   90   90 Factor: 2.00
       ATOMNUMBER=  1 U  4+      VCOUL-ZERO = -0.74226E+00
       ATOMNUMBER=  2 O  2-      VCOUL-ZERO =  0.70858E+00
:FIT001: LUSE= 13 SIGMA OF V-XC FIT FOR ATOM  1  0.2970611E-04
:FIT001: LUSE= 13 SIGMA OF V-XC FIT FOR ATOM  1  0.2970611E-04
:FIT002: LUSE= 13 SIGMA OF V-XC FIT FOR ATOM  2  0.6302062E-04
:FIT002: LUSE= 13 SIGMA OF V-XC FIT FOR ATOM  2  0.6302062E-04
:DEN  : DENSITY INTEGRAL  =        -20874.44992876   (Ry)
       ELS_POTENTIAL_AT Z=0 and Z=0.5:  -3.18592  -3.18592
       ELS_POTENTIAL_AT Y=0 and Y=0.5:   0.00000   0.00000
:VZERO:v0,v0c,v0x  -3.84219  -3.18592  -0.65626 v5,v5c,v5x  -3.84219  -3.18592  -0.65626
:VZERY:v0,v0c,v0x  -0.78661   0.00000  -0.78661 v5,v5c,v5x  -0.78661   0.00000  -0.78661
:VZERX:v0,v0c,v0x  -0.78661   0.00000  -0.78661 v5,v5c,v5x  -0.78661   0.00000  -0.78661

------- UO2_11.scf1 --------

          ATOMIC SPHERE DEPENDENT PARAMETERS FOR ATOM  U  4+     
:e__0001: OVERALL ENERGY PARAMETER IS    0.4828
          OVERALL BASIS SET ON ATOM IS LAPW
:E0_0001: E( 0)=    0.4828
             APW+lo
:E0_0001: E( 0)=   -2.4974   E(BOTTOM)=   -3.843   E(TOP)=   -1.152  5  6   239
             LOCAL ORBITAL
:E1_0001: E( 1)=   -1.2800   E(BOTTOM)=   -2.109   E(TOP)= -200.000  4 -1   206
             APW+lo
:E1_0001: E( 1)=    0.8828
             LOCAL ORBITAL
:E3_0001: E( 3)=    0.4828   E(BOTTOM)=   -0.058   E(TOP)= -200.000  1 -1   108
             APW+lo
:E2_0001: E( 2)=    0.5036   E(BOTTOM)=    0.504   E(TOP)= -200.000  3 -1    76
             APW+lo

          ATOMIC SPHERE DEPENDENT PARAMETERS FOR ATOM  O  2-     
:e__0002: OVERALL ENERGY PARAMETER IS    0.4828
          OVERALL BASIS SET ON ATOM IS LAPW
:E0_0002: E( 0)=   -0.4536   E(BOTTOM)=   -1.810   E(TOP)=    0.903  1  2   237
             APW+lo
:E0_0002: E( 0)=    0.8828
             LOCAL ORBITAL
:E1_0002: E( 1)=    0.4828
             APW+lo

       K=   0.00000   0.00000   0.00000            1
:RKM  : MATRIX SIZE  923LOs:  30  RKM= 8.46  WEIGHT= 1.00  PGR:    
       EIGENVALUES ARE:
:EIG00001:      -2.5712428   -0.7198870   -0.7198870   -0.7198870   -0.6409415
:EIG00006:      -0.5644532    0.2965181    0.2965181    0.2965181    0.4732202
:EIG00011:       0.4732202    0.4732202    0.7012272    0.7012272    0.7012272
:EIG00016:       0.7211831    0.7488845    0.7488845    0.7488845    0.8285038
:EIG00021:       0.8979318    0.8979318    1.2577432    1.2577432    1.2577432
:EIG00026:       1.5239789    1.5239789    1.5239789    1.8030304    2.1658718
:EIG00031:       2.1658718    2.1942300    2.1942300    2.1942300    2.4027731
:EIG00036:       2.4027731    2.4027731    2.6385832    2.6599343    2.6599343
:EIG00041:       2.6599343    3.0293519    3.0293519    3.1129443    3.1129443
:EIG00046:       3.1129443    3.1487771    3.2506996    3.2506996    3.2554775
 
:EIG00051:       3.2554775    3.2554775    3.4374822    3.4374822    3.4374822
:EIG00056:       3.5067257    3.5366012    3.5366012    3.5366012    3.5710221
:EIG00061:       3.5710221    3.5710221    3.6209097    3.6209097    3.6209097
:EIG00066:       3.8809825    4.3419227    4.3419227    4.3419227    4.5713486
:EIG00071:       4.5713486    4.5713486    4.6172699    4.6172699    4.7911969
:EIG00076:       5.0980666    5.0980666    5.1119263    5.1119263    5.1119263
:EIG00081:       5.2138899    5.2138899    5.2138899    5.4411577    5.4411577
:EIG00086:       5.4411577    5.5872599    5.5872599    5.5872599    5.6329636
:EIG00091:       5.7082735    5.7082735    5.7550712    5.7550712    5.7742450
:EIG00096:       5.7742450    5.7742450    5.8292907    6.0019435    6.0116257
 
:EIG00101:       6.0116257    6.0116257    6.0211100    6.0211100    6.0211100
:EIG00106:       6.1383426    6.1383426    6.1383426    6.3362276    6.3362276
:EIG00111:       6.3362276    6.3541889    6.3997090    6.3997090    6.3997090
:EIG00116:       6.4200783    6.4200783    6.4354989    6.4354989    6.4354989
:EIG00121:       6.5640419    6.5640419    6.5640419    7.0087195    7.0087195
:EIG00126:       7.0087195    7.0960915    7.0960915    7.0960915    7.1946237
:EIG00131:       7.1946237    7.1946237    7.2074251    7.3130715    7.3130715
:EIG00136:       7.3715280    7.3715280    7.4408363    7.4408363    7.4408363
:EIG00141:       7.5630732    7.5630732    7.5630732    7.7324457    7.7324457
:EIG00146:       7.7324457    7.7695223    7.8649964    7.8922330    7.8922330
 
:EIG00151:       8.0281063    8.0281063    8.0281063    8.0329284    8.0329284
:EIG00156:       8.1789165    8.1789165    8.1789165
       ********************************************************

:KPT   :      NUMBER OF K-POINTS:   145

------- UO2_11.scfso --------
   0.0   0.0 angle (M,z), angle (M,x) deg
 
        SPIN-ORBIT EIGENVALUES:
     K=   0.00000   0.00000   0.00000            1
      MATRIX SIZE=  316   WEIGHT= 1.00
     EIGENVALUES ARE:
          -2.5712428   -2.5712428   -1.1274543   -1.1274543   -0.6409415
          -0.6409415   -0.5644555   -0.5644555   -0.5523850   -0.5523850
          -0.5523850   -0.5523850    0.2948936    0.2948936    0.2948936
           0.2948936    0.2989350    0.2989350    0.4704661    0.4704661
           0.4736449    0.4736449    0.4736449    0.4736449    0.6692683
           0.6692683    0.6891704    0.6891704    0.6891704    0.6891704
           0.7430511    0.7430511    0.7561054    0.7561054    0.7561054
           0.7561054    0.7695674    0.7695674    0.8285038    0.8285038

           0.8954479    0.8954479    0.8954479    0.8954479    1.2476110
           1.2476110    1.2476110    1.2476110    1.2791376    1.2791376
           1.4649632    1.4649632    1.5502452    1.5502452    1.5502452
           1.5502452    1.8030304    1.8030304    2.1586040    2.1586040
           2.1586040    2.1586040    2.1968690    2.1968690    2.1968690
           2.1968690    2.2034263    2.2034263    2.2681289    2.2681289
           2.4789499    2.4789499    2.4789499    2.4789499    2.6363242
           2.6363242    2.6600155    2.6600155    2.6612329    2.6612329

           2.6612329    2.6612329    3.0256206    3.0256206    3.0256206
           3.0256206    3.1099118    3.1099118    3.1099118    3.1099118
           3.1280409    3.1280409    3.1487771    3.1487771    3.2506996
           3.2506996    3.2506996    3.2506996    3.2554662    3.2554662
           3.2554831    3.2554831    3.2554831    3.2554831    3.4376361
           3.4376361    3.4376361    3.4376361    3.4378038    3.4378038
           3.5067257    3.5067257    3.5296317    3.5296317    3.5408471
           3.5408471    3.5408471    3.5408471    3.5710101    3.5710101

           3.5710325    3.5710325    3.5710325    3.5710325    3.6199370
           3.6199370    3.6216494    3.6216494    3.6216494    3.6216494
           3.8811318    3.8811318    4.3311464    4.3311464    4.3469533
           4.3469533    4.3469533    4.3469533
       ********************************************************

------- UO2_11.scf2 --------
:GMA  : POTENTIAL AND CHARGE CUT-OFF  12.00 Ry**.5
         Bandranges (emin - emax) and occupancy:
:BAN00018:  18    0.298935    0.436122  1.00000000
:BAN00019:  19    0.373701    0.471674  1.00000000
:BAN00020:  20    0.373701    0.471674  1.00000000
:BAN00021:  21    0.431256    0.487009  1.00000000
:BAN00022:  22    0.431256    0.487009  1.00000000
:BAN00023:  23    0.459817    0.505469  1.00000000
:BAN00024:  24    0.459817    0.505469  1.00000000
:BAN00025:  25    0.643579    0.669501  0.93988054
:BAN00026:  26    0.643579    0.669501  0.93988054
:BAN00027:  27    0.666975    0.689170  0.06011946
:BAN00028:  28    0.666975    0.689170  0.06011946
:BAN00029:  29    0.674276    0.689170  0.00000000
:BAN00030:  30    0.674276    0.689170  0.00000000
:BAN00031:  31    0.706710    0.743435  0.00000000
:BAN00032:  32    0.706710    0.743435  0.00000000
:BAN00033:  33    0.726015    0.756105  0.00000000
        Energy to separate low and high energystates:    0.59358


:NLDA  : NUMBER OF ELECTRONS          =  26.000

:FLDA  : F E R M I - ENERGY           =   1.16787




:POS001: AT.NR.   1 POSITION = 0.00000 0.00000 0.00000  MULTIPLICITY =  1

       LMMAX  5
       LM=   0 0  4 0  4 4  6 0  6 4




:POS002: AT.NR.   2 POSITION = 0.00000 0.00000 0.00000  MULTIPLICITY =  2

       LMMAX  6
       LM=   0 0  4 0  4 4  6 0  6 4 -3 2
:FER DMFT Fermi Energy   0.63944
:EORB          0.054951030
:SUM SUM OF DMFT BAND ENERGIES         -5.794655177

:CHA001: TOTAL CHARGE INSIDE SPHERE   1 =     8.106964
:PCS001: PARTIAL CHARGES SPHERE =  1 S,P,D,F,      D-EG,D-T2G 
:QTL001: 1.7920 4.1483 0.1962 1.9689 0.0000 0.0000 0.0000 0.0412 0.1615 0.0000 0.0000 0.0000
        Q-s-low E-s-low   Q-p-low E-p-low   Q-d-low E-d-low   Q-f-low E-f-low
:EPL001:  1.7919 -2.5041    4.1474 -0.7187    0.1952  0.3372    0.1837  0.4334
        Q-s-hi  E-s-hi    Q-p-hi  E-p-hi    Q-d-hi  E-d-hi    Q-f-hi  E-f-hi 
:EPH001:  0.0001  0.7464    0.0009  0.7113    0.0010  0.7151    1.7852  0.6667

:CHA002: TOTAL CHARGE INSIDE SPHERE   2 =     5.088093
:PCS002: PARTIAL CHARGES SPHERE =  2 S,P,D,F,      D-EG,D-T2G 
:QTL002: 1.5757 3.5068 0.0048 0.0007 0.0000 0.0000 0.0000 0.0019 0.0050 0.0000 0.0000 0.0000
        Q-s-low E-s-low   Q-p-low E-p-low   Q-d-low E-d-low   Q-f-low E-f-low
:EPL002:  1.5744 -0.5826    3.4921  0.4031    0.0040 -0.0939    0.0005 -0.3078
        Q-s-hi  E-s-hi    Q-p-hi  E-p-hi    Q-d-hi  E-d-hi    Q-f-hi  E-f-hi 
:EPH002:  0.0013  0.6793    0.0148  0.6874    0.0008  0.6702    0.0001  0.6708

:CHA  : TOTAL CHARGE INSIDE UNIT CELL =      26.000000

:ESUM  : SUM OF EIGENVALUES =          -5.750668704


------- UO2_11.scfc --------

        1.ATOM      U  4+                21 CORE STATES
:1S 001: 1S               -8506.613267759 Ry
:2S 001: 2S               -1588.059049766 Ry
:2PP001: 2P*              -1531.305395009 Ry
:2P 001: 2P               -1250.109100088 Ry
:3S 001: 3S                -400.197022198 Ry
:3PP001: 3P*               -374.423930076 Ry
:3P 001: 3P                -309.640421261 Ry
:3DD001: 3D*               -268.828278879 Ry
:3D 001: 3D                -255.682939757 Ry
:4S 001: 4S                -101.265685004 Ry
:4PP001: 4P*                -89.672147427 Ry
:4P 001: 4P                 -72.762315255 Ry
:4DD001: 4D*                -54.297501765 Ry
:4D 001: 4D                 -51.188879569 Ry
:5S 001: 5S                 -21.856932441 Ry
:5PP001: 5P*                -17.350201333 Ry
:5P 001: 5P                 -13.320021291 Ry
:4FF001: 4F*                -26.902254397 Ry
:4F 001: 4F                 -26.092247187 Ry
:5DD001: 5D*                 -6.730944592 Ry
:5D 001: 5D                  -6.132754145 Ry

        2.ATOM      O  2-                 1 CORE STATES
:1S 002: 1S                 -36.217839347 Ry

------- UO2_11.scfm --------
:CINT001 Core Integral Atom   1   77.964637
:CINT002 Core Integral Atom   2    2.000000
     
       CHARGES OF NEW CHARGE DENSITY
:NTO   : INTERSTITIAL CHARGE =     7.716862
:NTO001: CHARGE SPHERE  1    =    86.071601
:NTO002: CHARGE SPHERE  2    =     7.088092

:NEC01: NUCLEAR AND ELECTRONIC CHARGE    108.00000   107.96465
     
       CHARGES OF OLD CHARGE DENSITY
:OTO   : INTERSTITIAL CHARGE =     7.760860
:OTO001: CHARGE SPHERE  1    =    86.131918
:OTO002: CHARGE SPHERE  2    =     7.053611
:DNEW  1   -0.0603
:DNEW  2    0.0345

:NEC02: NUCLEAR AND ELECTRONIC CHARGE    108.00000   108.00000
     
       CONVERGENCE TEST
:DTO001: DIFFERENCE IN SPHERE  1 =  0.0484362
:DTO002: DIFFERENCE IN SPHERE  2 =  0.0401195

:DIS  :  CHARGE DISTANCE       ( 0.0484362 for atom    1 spin 1)      0.0428917
:BIG check (qbig,qrms,qtot)    0.161D-01   0.305D-01   0.429D-01
 
******************************************************
* MULTISECANT MIXING VER6 RELEASE 6.0 OPTIONS        *
* Standard Mode with controls                        *
* Regularization       1.000E-06                     *
* Trust Region Control Active                        *
* Max Number of Memory Steps    8                    *
******************************************************
 
:PLANE:  INTERSTITIAL TOTAL      2.48479 DISTAN  3.804E-01 % 
:CHARG:  CLM CHARGE   /ATOM    345.90499 DISTAN  2.383E-02 % 
 
 Step History DMIX, Red, Pred, Trust, FRMS, FABS
  2  2.5000E-02  1.0000E+00  1.0000E+00  1.0000E+00
  3  1.0000E-02  1.1960E+00  1.0000E+00  1.0000E+00
  4  1.0000E-02  8.0131E-01  1.7810E-01  5.0000E-01
  5  1.5326E-02  1.0000E+00  2.6511E-01  5.5572E-01
  
:NORMS:  Nuclear, Spectral, Froebius, Shanno-Pua   0.3001E+01  0.1883E+01  0.2319E+01 -0.6048E-01
:INFO :  Number of Memory Steps    4 Skipping    0
:INFO :  SLambda=    0.6761562  Max    3.0000000

Eigenvalues, unscaled except for SY+YY
   #     SY Real        SY Imag          SS             YY         SY+YY Real      SY+YY Imag
   1   6.689356E-03   1.165343E-01   7.176992E-01   2.544107E+00   1.964713E+00   0.000000E+00
   2   6.689356E-03  -1.165343E-01   2.637343E-02   1.397244E+00   1.964713E+00   0.000000E+00
   3   4.998879E-06   0.000000E+00  -3.366030E-16   1.148015E-04   1.149872E-04   0.000000E+00
   4  -4.219411E-12   0.000000E+00   2.510300E-08   5.853471E-02   7.950821E-02   0.000000E+00
 
:INFO :  Singular value   2.295E+00 Weight  1.0000E+00 Projections   5.118E-02 -1.148E-01
:INFO :  Singular value   1.684E+00 Weight  1.0000E+00 Projections   2.725E-01 -1.025E-01
:INFO :  Singular value   7.944E-02 Weight  1.0000E+00 Projections  -2.401E-01  2.828E-01
:INFO :  Singular value   1.150E-04 Weight  9.9951E-01 Projections  -1.330E-01 -2.204E-01
 
:DIRM :  MEMORY 4/8 RESCALE  16.88 RED 1.176 PRED 0.265 NEXT 0.067
:INFO :  Blimit    6.605E-01  5.000E-01  1.000E-01  5.000E-01
:DIRP :  |MSR1|= 1.593E-02 |PRATT|= 1.596E-01 ANGLE=  54.7 DEGREES
:DIRQ :  |MSR1|= 1.280E-02 |PRATT|= 1.649E-01 ANGLE=  74.2 DEGREES
:DIR  :  |MSR1|= 2.043E-02 |PRATT|= 2.295E-01 ANGLE=  64.2 DEGREES
:MIX  :   MSD1   REGULARIZATION: 2.54E-06  GREED: 0.015  Newton 1.00  0.09                
     
       CHARGES OF MIXED CHARGE DENSITY
:CTO   : INTERSTITIAL CHARGE =     7.757501
:CTO001: CHARGE SPHERE  1    =    86.132926
:CTO002: CHARGE SPHERE  2    =     7.054786

:NEC03: NUCLEAR AND ELECTRONIC CHARGE    108.00000   108.00000

PW CHANGE     H    K    L       Current     Change     Residue
:PTO001:      0    0    0  7.28297977E-02 -2.202E-06  3.182E-05
:PTO002:     -1   -1   -1  1.87343401E-01  1.692E-06 -4.474E-04
:PTO003:      0    0   -2  2.56410208E-03 -2.759E-05 -8.775E-04
:PTO004:      0   -2   -2  2.74533532E-01  9.601E-05  7.900E-04
:PTO005:     -1   -1   -3  1.60814628E-01  1.052E-04  2.781E-04
:PTO006:     -2   -2   -2 -1.46592628E-02  6.131E-05 -1.187E-04
:PTO007:      0    0   -4  4.70606152E-02 -4.795E-06  1.453E-04
:PTO008:     -1   -3   -3  4.38557608E-02  3.968E-05  2.643E-04
:PTO009:      0   -2   -4 -4.72838571E-02  2.269E-05 -7.610E-05
:PTO010:     -2   -2   -4  6.26540869E-02  2.717E-05  4.285E-04
:PTO011:     -3   -3   -3 -1.77284028E-03  3.749E-05  2.285E-04
:PTO012:     -1   -1   -5  1.57383068E-03 -3.322E-05 -2.977E-05

:ENE  : ********** TOTAL ENERGY IN Ry =       -56437.48152955


------- UO2_11.scf0 --------


            ---------
:ITE091: 91. ITERATION
            ---------

:NATO :    2 INDEPENDENT AND    3 TOTAL ATOMS IN UNITCELL
       SUBSTANCE: blebleble                                                   

       LATTICE                      = F   
:POT  : POTENTIAL OPTION    5
:LAT  : LATTICE CONSTANTS= 11.14112 11.14112 11.14112    1.571    1.571    1.571
:VOL  : UNIT CELL VOLUME =     345.72164
       MODE OF CALCULATION IS       = RELA
       NON-SPINPOLARIZED CALCULATION
:IFFT  : FFT-parameters:   90   90   90 Factor: 2.00
       ATOMNUMBER=  1 U  4+      VCOUL-ZERO = -0.74272E+00
       ATOMNUMBER=  2 O  2-      VCOUL-ZERO =  0.70918E+00
:FIT001: LUSE= 13 SIGMA OF V-XC FIT FOR ATOM  1  0.2963184E-04
:FIT001: LUSE= 13 SIGMA OF V-XC FIT FOR ATOM  1  0.2963184E-04
:FIT002: LUSE= 13 SIGMA OF V-XC FIT FOR ATOM  2  0.6241030E-04
:FIT002: LUSE= 13 SIGMA OF V-XC FIT FOR ATOM  2  0.6241030E-04
:DEN  : DENSITY INTEGRAL  =        -20874.70021488   (Ry)
       ELS_POTENTIAL_AT Z=0 and Z=0.5:  -3.18670  -3.18670
       ELS_POTENTIAL_AT Y=0 and Y=0.5:   0.00000   0.00000
:VZERO:v0,v0c,v0x  -3.84251  -3.18670  -0.65581 v5,v5c,v5x  -3.84251  -3.18670  -0.65581
:VZERY:v0,v0c,v0x  -0.78653   0.00000  -0.78653 v5,v5c,v5x  -0.78653   0.00000  -0.78653
:VZERX:v0,v0c,v0x  -0.78653   0.00000  -0.78653 v5,v5c,v5x  -0.78653   0.00000  -0.78653

------- UO2_11.scf1 --------

          ATOMIC SPHERE DEPENDENT PARAMETERS FOR ATOM  U  4+     
:e__0001: OVERALL ENERGY PARAMETER IS    0.4828
          OVERALL BASIS SET ON ATOM IS LAPW
:E0_0001: E( 0)=    0.4828
             APW+lo
:E0_0001: E( 0)=   -2.4969   E(BOTTOM)=   -3.843   E(TOP)=   -1.151  5  6   238
             LOCAL ORBITAL
:E1_0001: E( 1)=   -1.2800   E(BOTTOM)=   -2.108   E(TOP)= -200.000  4 -1   204
             APW+lo
:E1_0001: E( 1)=    0.8828
             LOCAL ORBITAL
:E3_0001: E( 3)=    0.4828   E(BOTTOM)=   -0.058   E(TOP)= -200.000  1 -1   110
             APW+lo
:E2_0001: E( 2)=    0.5039   E(BOTTOM)=    0.504   E(TOP)= -200.000  3 -1    74
             APW+lo

          ATOMIC SPHERE DEPENDENT PARAMETERS FOR ATOM  O  2-     
:e__0002: OVERALL ENERGY PARAMETER IS    0.4828
          OVERALL BASIS SET ON ATOM IS LAPW
:E0_0002: E( 0)=   -0.4526   E(BOTTOM)=   -1.810   E(TOP)=    0.904  1  2   232
             APW+lo
:E0_0002: E( 0)=    0.8828
             LOCAL ORBITAL
:E1_0002: E( 1)=    0.4828
             APW+lo

       K=   0.00000   0.00000   0.00000            1
:RKM  : MATRIX SIZE  923LOs:  30  RKM= 8.46  WEIGHT= 1.00  PGR:    
       EIGENVALUES ARE:
:EIG00001:      -2.5708112   -0.7197111   -0.7197111   -0.7197111   -0.6401361
:EIG00006:      -0.5635647    0.2970773    0.2970773    0.2970773    0.4739398
:EIG00011:       0.4739398    0.4739398    0.7019427    0.7019427    0.7019427
:EIG00016:       0.7220677    0.7496288    0.7496288    0.7496288    0.8286494
:EIG00021:       0.8979080    0.8979080    1.2581801    1.2581801    1.2581801
:EIG00026:       1.5240826    1.5240826    1.5240826    1.8029710    2.1659603
:EIG00031:       2.1659603    2.1944156    2.1944156    2.1944156    2.4030819
:EIG00036:       2.4030819    2.4030819    2.6390226    2.6600973    2.6600973
:EIG00041:       2.6600973    3.0293826    3.0293826    3.1132024    3.1132024
:EIG00046:       3.1132024    3.1489306    3.2509935    3.2509935    3.2554255
 
:EIG00051:       3.2554255    3.2554255    3.4377155    3.4377155    3.4377155
:EIG00056:       3.5065999    3.5366681    3.5366681    3.5366681    3.5710320
:EIG00061:       3.5710320    3.5710320    3.6209518    3.6209518    3.6209518
:EIG00066:       3.8811991    4.3421489    4.3421489    4.3421489    4.5715830
:EIG00071:       4.5715830    4.5715830    4.6173872    4.6173872    4.7911442
:EIG00076:       5.0980700    5.0980700    5.1121137    5.1121137    5.1121137
:EIG00081:       5.2140472    5.2140472    5.2140472    5.4412212    5.4412212
:EIG00086:       5.4412212    5.5875246    5.5875246    5.5875246    5.6331772
:EIG00091:       5.7085459    5.7085459    5.7551856    5.7551856    5.7743034
:EIG00096:       5.7743034    5.7743034    5.8296387    6.0021867    6.0116933
 
:EIG00101:       6.0116933    6.0116933    6.0210749    6.0210749    6.0210749
:EIG00106:       6.1385134    6.1385134    6.1385134    6.3363917    6.3363917
:EIG00111:       6.3363917    6.3541068    6.3999432    6.3999432    6.3999432
:EIG00116:       6.4201262    6.4201262    6.4355482    6.4355482    6.4355482
:EIG00121:       6.5642913    6.5642913    6.5642913    7.0088172    7.0088172
:EIG00126:       7.0088172    7.0962148    7.0962148    7.0962148    7.1947131
:EIG00131:       7.1947131    7.1947131    7.2074422    7.3130447    7.3130447
:EIG00136:       7.3715877    7.3715877    7.4410666    7.4410666    7.4410666
:EIG00141:       7.5631369    7.5631369    7.5631369    7.7325323    7.7325323
:EIG00146:       7.7325323    7.7698258    7.8651958    7.8922984    7.8922984
 
:EIG00151:       8.0282039    8.0282039    8.0282039    8.0333002    8.0333002
:EIG00156:       8.1790876    8.1790876    8.1790876
       ********************************************************

:KPT   :      NUMBER OF K-POINTS:   145

------- UO2_11.scfso --------
   0.0   0.0 angle (M,z), angle (M,x) deg
 
        SPIN-ORBIT EIGENVALUES:
     K=   0.00000   0.00000   0.00000            1
      MATRIX SIZE=  316   WEIGHT= 1.00
     EIGENVALUES ARE:
          -2.5708112   -2.5708112   -1.1272028   -1.1272028   -0.6401361
          -0.6401361   -0.5635670   -0.5635670   -0.5522408   -0.5522408
          -0.5522408   -0.5522408    0.2954481    0.2954481    0.2954481
           0.2954481    0.2995016    0.2995016    0.4712014    0.4712014
           0.4743535    0.4743535    0.4743535    0.4743535    0.6700552
           0.6700552    0.6899167    0.6899167    0.6899167    0.6899167
[...]
 45  2.0354E-01  7.6831E-01  1.7417E-01  5.1137E+00
 46  2.1505E-01  1.0000E+00  1.8197E-01  4.6705E+00
  
:NORMS:  Nuclear, Spectral, Froebius, Shanno-Pua   0.1152E+01  0.9630E+00  0.1039E+01  0.8357E+00
:INFO :  Number of Memory Steps    8 Skipping   37
:INFO :  SLambda=    1.1523849  Max    1.1523849

Eigenvalues, unscaled except for SY+YY
   #     SY Real        SY Imag          SS             YY         SY+YY Real      SY+YY Imag
   1   4.681787E+00   0.000000E+00   5.710449E+00   5.295460E+00   1.054143E+01   0.000000E+00
   2   1.600781E+00   0.000000E+00   1.536260E+00   1.818898E+00   3.697021E+00   0.000000E+00
   3   2.690449E-01   0.000000E+00   1.353663E-01   8.328065E-01   1.258365E+00   0.000000E+00
   4   3.506471E-02   0.000000E+00   2.963239E-02   4.322833E-02   8.364838E-02   0.000000E+00
   5   4.414137E-03   0.000000E+00   2.506046E-03   8.060891E-03   1.369447E-02   0.000000E+00
   6   1.022394E-03   0.000000E+00   9.271712E-04   1.029552E-03   2.249979E-03   0.000000E+00
   7   3.934236E-04   0.000000E+00   2.449955E-04   5.006775E-04   6.749912E-04   0.000000E+00
   8   1.256039E-05   0.000000E+00   8.600922E-06   1.679521E-05   3.160254E-05   0.000000E+00
 
:INFO :  Singular value   1.056E+01 Weight  1.0000E+00 Projections  -6.685E-03  8.892E-05
:INFO :  Singular value   3.711E+00 Weight  1.0000E+00 Projections   1.068E-02 -4.773E-05
:INFO :  Singular value   1.253E+00 Weight  1.0000E+00 Projections  -1.128E-02 -2.485E-04
:INFO :  Singular value   8.361E-02 Weight  1.0000E+00 Projections   8.443E-03 -7.649E-05
:INFO :  Singular value   1.371E-02 Weight  1.0000E+00 Projections  -4.252E-03  3.669E-04
:INFO :  Singular value   2.285E-03 Weight  1.0000E+00 Projections   2.443E-03 -2.027E-03
:INFO :  Singular value   6.639E-04 Weight  9.9994E-01 Projections  -1.591E-03 -7.673E-03
:INFO :  Singular value   3.159E-05 Weight  9.7267E-01 Projections  -3.946E-03 -1.834E-02
 
:DIRM :  MEMORY 8/8 RESCALE   8.44 RED 0.257 PRED 0.182 NEXT 0.245
:INFO :  Blimit    4.741E+00  1.197E+00  1.000E+00  4.787E+00
:DIRP :  |MSR1|= 5.146E-04 |PRATT|= 2.493E-04 ANGLE=  70.9 DEGREES
:DIRQ :  |MSR1|= 3.628E-04 |PRATT|= 3.735E-04 ANGLE=  40.5 DEGREES
:DIR  :  |MSR1|= 6.296E-04 |PRATT|= 4.491E-04 ANGLE=  59.2 DEGREES
:MIX  :   MSE1   REGULARIZATION: 5.30E-06  GREED: 0.208  Newton 1.00  1.40                
     
       CHARGES OF MIXED CHARGE DENSITY
:CTO   : INTERSTITIAL CHARGE =     7.817356
:CTO001: CHARGE SPHERE  1    =    86.028008
:CTO002: CHARGE SPHERE  2    =     7.077318

:NEC03: NUCLEAR AND ELECTRONIC CHARGE    108.00000   108.00000

PW CHANGE     H    K    L       Current     Change     Residue
:PTO001:      0    0    0  7.32960573E-02 -1.126E-06 -2.864E-07
:PTO002:     -1   -1   -1  1.88506663E-01 -2.572E-06  7.171E-07
:PTO003:      0    0   -2  2.84554299E-03 -2.289E-07  2.408E-06
:PTO004:      0   -2   -2  2.76925693E-01 -6.308E-06 -3.257E-06
:PTO005:     -1   -1   -3  1.64738372E-01 -7.329E-06 -1.271E-07
:PTO006:     -2   -2   -2 -1.29672843E-02 -2.850E-06 -5.408E-08
:PTO007:      0    0   -4  4.74422635E-02 -8.170E-07  8.678E-08
:PTO008:     -1   -3   -3  4.69314938E-02 -4.123E-06  4.309E-07
:PTO009:      0   -2   -4 -4.46475972E-02 -2.938E-06  2.030E-06
:PTO010:     -2   -2   -4  6.43464496E-02 -2.766E-06 -6.645E-07
:PTO011:     -3   -3   -3 -9.06783829E-04 -1.220E-06 -3.366E-07
:PTO012:     -1   -1   -5  1.99501614E-03 -1.022E-06  4.157E-07

:ENE  : ********** TOTAL ENERGY IN Ry =       -56437.48923345


------- UO2_11.scf0 --------


            ---------
:ITE132:132. ITERATION
            ---------

:NATO :    2 INDEPENDENT AND    3 TOTAL ATOMS IN UNITCELL
       SUBSTANCE: blebleble                                                   

       LATTICE                      = F   
:POT  : POTENTIAL OPTION    5
:LAT  : LATTICE CONSTANTS= 11.14112 11.14112 11.14112    1.571    1.571    1.571
:VOL  : UNIT CELL VOLUME =     345.72164
       MODE OF CALCULATION IS       = RELA
       NON-SPINPOLARIZED CALCULATION
:IFFT  : FFT-parameters:   90   90   90 Factor: 2.00
       ATOMNUMBER=  1 U  4+      VCOUL-ZERO = -0.78000E+00
       ATOMNUMBER=  2 O  2-      VCOUL-ZERO =  0.73271E+00
:FIT001: LUSE= 13 SIGMA OF V-XC FIT FOR ATOM  1  0.3540287E-04
:FIT001: LUSE= 13 SIGMA OF V-XC FIT FOR ATOM  1  0.3540287E-04
:FIT002: LUSE= 13 SIGMA OF V-XC FIT FOR ATOM  2  0.6024843E-04
:FIT002: LUSE= 13 SIGMA OF V-XC FIT FOR ATOM  2  0.6024843E-04
:DEN  : DENSITY INTEGRAL  =        -20866.70456899   (Ry)
       ELS_POTENTIAL_AT Z=0 and Z=0.5:  -3.25021  -3.25021
       ELS_POTENTIAL_AT Y=0 and Y=0.5:   0.00000   0.00000
:VZERO:v0,v0c,v0x  -3.90577  -3.25021  -0.65556 v5,v5c,v5x  -3.90577  -3.25021  -0.65556
:VZERY:v0,v0c,v0x  -0.78886   0.00000  -0.78886 v5,v5c,v5x  -0.78886   0.00000  -0.78886
:VZERX:v0,v0c,v0x  -0.78886   0.00000  -0.78886 v5,v5c,v5x  -0.78886   0.00000  -0.78886

------- UO2_11.scf1 --------

          ATOMIC SPHERE DEPENDENT PARAMETERS FOR ATOM  U  4+     
:e__0001: OVERALL ENERGY PARAMETER IS    0.4828
          OVERALL BASIS SET ON ATOM IS LAPW
:E0_0001: E( 0)=    0.4828
             APW+lo
:E0_0001: E( 0)=   -2.5681   E(BOTTOM)=   -3.906   E(TOP)=   -1.230  5  6   235
             LOCAL ORBITAL
:E1_0001: E( 1)=   -1.2800   E(BOTTOM)=   -2.167   E(TOP)= -200.000  4 -1   210
             APW+lo
:E1_0001: E( 1)=    0.8828
             LOCAL ORBITAL
:E3_0001: E( 3)=    0.4828   E(BOTTOM)=   -0.128   E(TOP)= -200.000  1 -1   115
             APW+lo
:E2_0001: E( 2)=    0.4828   E(BOTTOM)=    0.446   E(TOP)= -200.000  3 -1    80
             APW+lo

          ATOMIC SPHERE DEPENDENT PARAMETERS FOR ATOM  O  2-     
:e__0002: OVERALL ENERGY PARAMETER IS    0.4828
          OVERALL BASIS SET ON ATOM IS LAPW
:E0_0002: E( 0)=   -0.4219   E(BOTTOM)=   -1.781   E(TOP)=    0.937  1  2   239
             APW+lo
:E0_0002: E( 0)=    0.8828
             LOCAL ORBITAL
:E1_0002: E( 1)=    0.4828
             APW+lo

       K=   0.00000   0.00000   0.00000            1
:RKM  : MATRIX SIZE  923LOs:  30  RKM= 8.46  WEIGHT= 1.00  PGR:    
       EIGENVALUES ARE:
:EIG00001:      -2.6352824   -0.7677493   -0.7677493   -0.7677493   -0.6162291
:EIG00006:      -0.5368621    0.3114575    0.3114575    0.3114575    0.4755920
:EIG00011:       0.4755920    0.4755920    0.6316554    0.6316554    0.6316554
:EIG00016:       0.6537759    0.7024801    0.7024801    0.7024801    0.8332607
:EIG00021:       0.8791423    0.8791423    1.2494662    1.2494662    1.2494662
:EIG00026:       1.5217904    1.5217904    1.5217904    1.8014192    2.1593950
:EIG00031:       2.1593950    2.1967197    2.1967197    2.1967197    2.3958539
:EIG00036:       2.3958539    2.3958539    2.6392773    2.6481146    2.6481146
:EIG00041:       2.6481146    3.0193283    3.0193283    3.1115727    3.1115727
:EIG00046:       3.1115727    3.1422670    3.2483105    3.2483105    3.2483105
 
:EIG00051:       3.2647025    3.2647025    3.4334996    3.4334996    3.4334996
:EIG00056:       3.5010393    3.5351832    3.5351832    3.5351832    3.5730692
:EIG00061:       3.5730692    3.5730692    3.6176183    3.6176183    3.6176183
:EIG00066:       3.8758686    4.3510509    4.3510509    4.3510509    4.5785735
:EIG00071:       4.5785735    4.5785735    4.6102188    4.6102188    4.7886083
:EIG00076:       5.0819415    5.0819415    5.0941713    5.0941713    5.0941713
:EIG00081:       5.2093254    5.2093254    5.2093254    5.4215927    5.4215927
:EIG00086:       5.4215927    5.5863560    5.5863560    5.5863560    5.6317095
:EIG00091:       5.7084263    5.7084263    5.7580033    5.7580033    5.7709080
:EIG00096:       5.7709080    5.7709080    5.8284919    5.9963506    6.0072188
 
:EIG00101:       6.0072188    6.0072188    6.0137148    6.0137148    6.0137148
:EIG00106:       6.1434851    6.1434851    6.1434851    6.3313698    6.3313698
:EIG00111:       6.3313698    6.3533086    6.3896650    6.3896650    6.3896650
:EIG00116:       6.4260732    6.4260732    6.4434556    6.4434556    6.4434556
:EIG00121:       6.5541628    6.5541628    6.5541628    7.0086371    7.0086371
:EIG00126:       7.0086371    7.0949003    7.0949003    7.0949003    7.1919846
:EIG00131:       7.1919846    7.1919846    7.1932327    7.3094113    7.3094113
:EIG00136:       7.3723180    7.3723180    7.4533862    7.4533862    7.4533862
:EIG00141:       7.5600504    7.5600504    7.5600504    7.7226563    7.7226563
:EIG00146:       7.7226563    7.7697851    7.8620626    7.8723663    7.8723663
 
:EIG00151:       8.0238386    8.0238386    8.0238386    8.0500642    8.0500642
       ********************************************************

:KPT   :      NUMBER OF K-POINTS:   145

------- UO2_11.scfso --------
   0.0   0.0 angle (M,z), angle (M,x) deg
 
        SPIN-ORBIT EIGENVALUES:
     K=   0.00000   0.00000   0.00000            1
      MATRIX SIZE=  310   WEIGHT= 1.00
     EIGENVALUES ARE:
          -2.6352824   -2.6352824   -1.1816002   -1.1816002   -0.6162291
          -0.6162291   -0.5971445   -0.5971445   -0.5971445   -0.5971445
          -0.5368653   -0.5368653    0.3095102    0.3095102    0.3095102
           0.3095102    0.3143583    0.3143583    0.4715434    0.4715434
           0.4715434    0.4715434    0.4778032    0.4778032    0.5995513
           0.5995513    0.6274694    0.6274694    0.6274694    0.6274694
           0.6755862    0.6755862    0.7057302    0.7057302    0.7057302
           0.7057302    0.7194512    0.7194512    0.8332607    0.8332607

           0.8766057    0.8766057    0.8766057    0.8766057    1.2390654
           1.2390654    1.2390654    1.2390654    1.2715250    1.2715250
           1.4610962    1.4610962    1.5487913    1.5487913    1.5487913
           1.5487913    1.8014192    1.8014192    2.1536942    2.1536942
           2.1536942    2.1536942    2.1979375    2.1979375    2.1979375
           2.1979375    2.2057074    2.2057074    2.2628939    2.2628939
           2.4712788    2.4712788    2.4712788    2.4712788    2.6348333
           2.6348333    2.6494104    2.6494104    2.6494104    2.6494104

           2.6503825    2.6503825    3.0160822    3.0160822    3.0160822
           3.0160822    3.1081543    3.1081543    3.1081543    3.1081543
           3.1264834    3.1264834    3.1422670    3.1422670    3.2482986
           3.2482986    3.2483165    3.2483165    3.2483165    3.2483165
           3.2647025    3.2647025    3.2647025    3.2647025    3.4331125
           3.4331125    3.4341366    3.4341366    3.4341366    3.4341366
           3.5010393    3.5010393    3.5289952    3.5289952    3.5389520
           3.5389520    3.5389520    3.5389520    3.5730335    3.5730335

           3.5730898    3.5730898    3.5730898    3.5730898    3.6166768
           3.6166768    3.6183151    3.6183151    3.6183151    3.6183151
           3.8760138    3.8760138    4.3401307    4.3401307    4.3561051
           4.3561051    4.3561051    4.3561051
       ********************************************************

------- UO2_11.scf2 --------
:GMA  : POTENTIAL AND CHARGE CUT-OFF  12.00 Ry**.5
         Bandranges (emin - emax) and occupancy:
:BAN00018:  18    0.314358    0.450261  1.00000000
:BAN00019:  19    0.385420    0.474189  1.00000000
:BAN00020:  20    0.385420    0.474189  1.00000000
:BAN00021:  21    0.441365    0.497585  1.00000000
:BAN00022:  22    0.441365    0.497585  1.00000000
:BAN00023:  23    0.461517    0.519025  1.00000000
:BAN00024:  24    0.461517    0.519025  1.00000000
:BAN00025:  25    0.576067    0.604087  0.97892062
:BAN00026:  26    0.576067    0.604087  0.97892062
:BAN00027:  27    0.599917    0.627469  0.02107938
:BAN00028:  28    0.599917    0.627469  0.02107938
:BAN00029:  29    0.611794    0.627469  0.00000000
:BAN00030:  30    0.611794    0.627469  0.00000000
:BAN00031:  31    0.641324    0.677586  0.00000000
:BAN00032:  32    0.641324    0.677586  0.00000000
:BAN00033:  33    0.661190    0.705730  0.00000000
        Energy to separate low and high energystates:    0.52607


:NLDA  : NUMBER OF ELECTRONS          =  26.000

:FLDA  : F E R M I - ENERGY           =   1.10164




:POS001: AT.NR.   1 POSITION = 0.00000 0.00000 0.00000  MULTIPLICITY =  1

       LMMAX  5
       LM=   0 0  4 0  4 4  6 0  6 4




:POS002: AT.NR.   2 POSITION = 0.00000 0.00000 0.00000  MULTIPLICITY =  2

       LMMAX  6
       LM=   0 0  4 0  4 4  6 0  6 4 -3 2
:FER DMFT Fermi Energy   0.70925
:EORB         -0.297305982
:SUM SUM OF DMFT BAND ENERGIES         -5.683305874

:CHA001: TOTAL CHARGE INSIDE SPHERE   1 =     8.062456
:PCS001: PARTIAL CHARGES SPHERE =  1 S,P,D,F,      D-EG,D-T2G 
:QTL001: 1.7995 4.1933 0.2310 1.8369 0.0000 0.0000 0.0000 0.0499 0.1875 0.0000 0.0000 0.0000
        Q-s-low E-s-low   Q-p-low E-p-low   Q-d-low E-d-low   Q-f-low E-f-low
:EPL001:  1.7994 -2.5634    4.1931 -0.7653    0.2307  0.3551    0.1051  0.4341
        Q-s-hi  E-s-hi    Q-p-hi  E-p-hi    Q-d-hi  E-d-hi    Q-f-hi  E-f-hi 
:EPH001:  0.0001  0.6005    0.0002  0.6105    0.0004  0.6071    1.7318  0.6067

:CHA002: TOTAL CHARGE INSIDE SPHERE   2 =     5.077368
:PCS002: PARTIAL CHARGES SPHERE =  2 S,P,D,F,      D-EG,D-T2G 
:QTL002: 1.5698 3.5022 0.0046 0.0006 0.0000 0.0000 0.0000 0.0019 0.0049 0.0000 0.0000 0.0000
        Q-s-low E-s-low   Q-p-low E-p-low   Q-d-low E-d-low   Q-f-low E-f-low
:EPL002:  1.5686 -0.5550    3.4998  0.4165    0.0041 -0.0636    0.0005 -0.3048
        Q-s-hi  E-s-hi    Q-p-hi  E-p-hi    Q-d-hi  E-d-hi    Q-f-hi  E-f-hi 
:EPH002:  0.0012  0.6077    0.0024  0.6201    0.0005  0.6038    0.0001  0.6086

:CHA  : TOTAL CHARGE INSIDE UNIT CELL =      25.999996

:ESUM  : SUM OF EIGENVALUES =          -5.947252474


------- UO2_11.scfc --------

        1.ATOM      U  4+                21 CORE STATES
:1S 001: 1S               -8506.702881896 Ry
:2S 001: 2S               -1588.153845793 Ry
:2PP001: 2P*              -1531.398927940 Ry
:2P 001: 2P               -1250.203812116 Ry
:3S 001: 3S                -400.298160533 Ry
:3PP001: 3P*               -374.524670068 Ry
:3P 001: 3P                -309.741643921 Ry
:3DD001: 3D*               -268.928900434 Ry
:3D 001: 3D                -255.783793274 Ry
:4S 001: 4S                -101.365960610 Ry
:4PP001: 4P*                -89.772399282 Ry
:4P 001: 4P                 -72.862332796 Ry
:4DD001: 4D*                -54.397579212 Ry
:4D 001: 4D                 -51.288914191 Ry
:5S 001: 5S                 -21.955786071 Ry
:5PP001: 5P*                -17.448487781 Ry
:5P 001: 5P                 -13.416537998 Ry
:4FF001: 4F*                -27.002980950 Ry
:4F 001: 4F                 -26.192935283 Ry
:5DD001: 5D*                 -6.824172140 Ry
:5D 001: 5D                  -6.224949915 Ry

        2.ATOM      O  2-                 1 CORE STATES
:1S 002: 1S                 -36.178644735 Ry

------- UO2_11.scfm --------
:CINT001 Core Integral Atom   1   77.965418
:CINT002 Core Integral Atom   2    2.000000
     
       CHARGES OF NEW CHARGE DENSITY
:NTO   : INTERSTITIAL CHARGE =     7.782788
:NTO001: CHARGE SPHERE  1    =    86.027874
:NTO002: CHARGE SPHERE  2    =     7.077368

:NEC01: NUCLEAR AND ELECTRONIC CHARGE    108.00000   107.96540
     
       CHARGES OF OLD CHARGE DENSITY
:OTO   : INTERSTITIAL CHARGE =     7.817356
:OTO001: CHARGE SPHERE  1    =    86.028008
:OTO002: CHARGE SPHERE  2    =     7.077318
:DNEW  1   -0.0001
:DNEW  2    0.0000

:NEC02: NUCLEAR AND ELECTRONIC CHARGE    108.00000   108.00000
     
       CONVERGENCE TEST
:DTO001: DIFFERENCE IN SPHERE  1 =  0.0001073
:DTO002: DIFFERENCE IN SPHERE  2 =  0.0000631

:DIS  :  CHARGE DISTANCE       ( 0.0001073 for atom    1 spin 1)      0.0000778
:BIG check (qbig,qrms,qtot)    0.358D-04   0.570D-04   0.778D-04
 
******************************************************
* MULTISECANT MIXING VER6 RELEASE 6.0 OPTIONS        *
* Standard Mode with controls                        *
* Regularization       1.000E-06                     *
* Trust Region Control Active                        *
* Max Number of Memory Steps    8                    *
******************************************************
 
:PLANE:  INTERSTITIAL TOTAL      2.50560 DISTAN  1.212E-03 % 
:CHARG:  CLM CHARGE   /ATOM    345.90423 DISTAN  4.295E-05 % 
 
 Step History DMIX, Red, Pred, Trust, FRMS, FABS
 40  1.7214E-01  9.2747E-01  5.4513E-02  4.3636E+00
 41  1.8641E-01  8.1847E-01  3.2246E-02  4.3549E+00
 42  2.0000E-01  7.7525E-01  2.3167E-01  3.8095E+00
 43  2.0000E-01  1.1259E-01  1.3659E-01  4.9737E+00
 44  2.0447E-01  6.5002E-01  8.3962E-01  5.0125E+00
 45  2.0354E-01  7.6831E-01  1.7417E-01  5.1137E+00
 46  2.1505E-01  2.5684E-01  1.8197E-01  4.6705E+00
 47  2.0769E-01  1.0000E+00  2.4495E-01  4.7868E+00
  
:NORMS:  Nuclear, Spectral, Froebius, Shanno-Pua   0.1152E+01  0.9561E+00  0.1033E+01  0.7688E+00
:INFO :  Number of Memory Steps    8 Skipping   38
:INFO :  SLambda=    1.1524003  Max    1.1524003

Eigenvalues, unscaled except for SY+YY
   #     SY Real        SY Imag          SS             YY         SY+YY Real      SY+YY Imag
   1   4.145854E+00   0.000000E+00   5.549494E+00   5.072834E+00   9.629144E+00   0.000000E+00
   2   1.717303E+00   0.000000E+00   1.675981E+00   1.779892E+00   3.831729E+00   0.000000E+00
   3   2.897111E-01   0.000000E+00   1.799175E-01   9.813512E-01   1.498922E+00   0.000000E+00
   4   8.337150E-02   0.000000E+00   4.942757E-02   1.111205E-01   1.751666E-01   0.000000E+00
   5   4.279380E-02   0.000000E+00   3.300477E-02   4.819075E-02   9.395869E-02   0.000000E+00
   6   3.420665E-03   0.000000E+00   1.749785E-03   5.996061E-03   1.050174E-02   0.000000E+00
   7   2.268108E-05   0.000000E+00   1.714875E-05   3.106958E-05   6.199947E-05   0.000000E+00
   8   5.415811E-04   0.000000E+00   4.024483E-04   5.848388E-04   1.068796E-03   0.000000E+00
 
:INFO :  Singular value   9.667E+00 Weight  1.0000E+00 Projections   1.247E-03 -1.534E-04
:INFO :  Singular value   3.849E+00 Weight  1.0000E+00 Projections  -1.405E-03  4.711E-05
:INFO :  Singular value   1.503E+00 Weight  1.0000E+00 Projections   3.437E-04  1.114E-04
:INFO :  Singular value   1.744E-01 Weight  1.0000E+00 Projections  -4.474E-05  6.387E-05
:INFO :  Singular value   9.337E-02 Weight  1.0000E+00 Projections   3.882E-05  4.635E-05
:INFO :  Singular value   1.050E-02 Weight  1.0000E+00 Projections  -4.777E-05  1.746E-04
:INFO :  Singular value   1.070E-03 Weight  9.9998E-01 Projections  -2.077E-04 -3.322E-04
:INFO :  Singular value   6.192E-05 Weight  9.9333E-01 Projections   8.904E-05 -1.876E-03
 
:DIRM :  MEMORY 8/8 RESCALE   9.08 RED 0.881 PRED 0.245 NEXT 0.200
:INFO :  Blimit    4.768E+00  1.205E+00  1.000E+00  4.821E+00
:DIRP :  |MSR1|= 2.777E-04 |PRATT|= 2.757E-04 ANGLE=  41.2 DEGREES
:DIRQ :  |MSR1|= 1.183E-04 |PRATT|= 2.971E-04 ANGLE=  42.5 DEGREES
:DIR  :  |MSR1|= 3.018E-04 |PRATT|= 4.054E-04 ANGLE=  46.9 DEGREES
:MIX  :   MSE1   REGULARIZATION: 5.07E-06  GREED: 0.209  Newton 1.00  0.74                
     
       CHARGES OF MIXED CHARGE DENSITY
:CTO   : INTERSTITIAL CHARGE =     7.817414
:CTO001: CHARGE SPHERE  1    =    86.027947
:CTO002: CHARGE SPHERE  2    =     7.077319

:NEC03: NUCLEAR AND ELECTRONIC CHARGE    108.00000   108.00000

PW CHANGE     H    K    L       Current     Change     Residue
:PTO001:      0    0    0  7.32967302E-02  6.729E-07  5.850E-07
:PTO002:     -1   -1   -1  1.88508566E-01  1.903E-06  4.064E-07
:PTO003:      0    0   -2  2.84575214E-03  2.092E-07 -1.662E-06
:PTO004:      0   -2   -2  2.76928950E-01  3.257E-06  3.550E-06
:PTO005:     -1   -1   -3  1.64741678E-01  3.306E-06  2.161E-06
:PTO006:     -2   -2   -2 -1.29668370E-02  4.473E-07 -8.898E-07
:PTO007:      0    0   -4  4.74430406E-02  7.772E-07  1.089E-06
:PTO008:     -1   -3   -3  4.69332369E-02  1.743E-06  7.490E-07
:PTO009:      0   -2   -4 -4.46466192E-02  9.780E-07 -3.550E-07
:PTO010:     -2   -2   -4  6.43477980E-02  1.348E-06  1.530E-06
:PTO011:     -3   -3   -3 -9.06452516E-04  3.313E-07  4.131E-07
:PTO012:     -1   -1   -5  1.99547715E-03  4.610E-07  3.067E-07

:ENE  : ********** TOTAL ENERGY IN Ry =       -56437.48922645

