
:LABEL1: Calculations in /home/ykent/GWIEN/example/Pr/aU/V16/case
:LABEL2: on didymium-2.cmpgroup.ameslab.gov at Fri Jul 10 14:29:26 CDT 2020
:LABEL3: using WIEN2k_19.1 (Release 25/6/2019) in /home/ykent/opt/src/WIEN2k_19.1
:LABEL4: using the command: run_lapw -so -i 70 -cc 0.0001
 Flat Integration
 New Mode for Coulomb Integral
 Consistent 3/8+Simpson combinations
 Extension of core to zero
 LDM version in phi
 Fifth-order quadrature in outwin


            ---------
:ITE013: 13. ITERATION
            ---------

:NATO :    1 INDEPENDENT AND    2 TOTAL ATOMS IN UNITCELL
       SUBSTANCE: aU                                                          

       LATTICE                      = CXY 
:POT  : POTENTIAL OPTION EX_LDA EC_LDA VX_LDA VC_LDA
:LAT  : LATTICE CONSTANTS=  6.34235 12.87024 11.11114    1.571    1.571    1.571
:VOL  : UNIT CELL VOLUME =     453.48796
       MODE OF CALCULATION IS       = RELA
       NON-SPINPOLARIZED CALCULATION
:IFFT  : FFT-parameters:   54  100   90 Factor: 2.00


   CONVERGENCE PARAMETER FOR PSEUDOCHARGE: NCON=  9
   MAXIMAL VALUE OF RMT(JATOM)*ABSK(NKK) : RK  =27.59759


:VKCOUL :  VK-COUL convergence: 0.160E-06
       ATOMNUMBER=  1 Pr1        VCOUL-ZERO =  0.11632E+00
:EFG001:                        EFG         =    -8.36027   *10**21  V / m**2
                               V20  TOT/SRF=    -7.24021    -0.03009
                               V22  TOT/SRF=    -0.32157    -0.00083
                               V22M TOT/SRF=     0.00000     0.00000
                               V21  TOT/SRF=     0.00000     0.00000
                               V21M TOT/SRF=     0.00000     0.00000

              3.85857    0.00000    0.00000        3.85857    0.00000    0.00000
              0.00000    4.50170    0.00000        0.00000    4.50170    0.00000
              0.00000    0.00000   -8.36027        0.00000    0.00000   -8.36027

         MAIN DIRECTIONS OF THE EFG   1.0000  0.0000  0.0000
                                      0.0000  1.0000  0.0000
                                      0.0000  0.0000  1.0000
:ANG001:  ANGLE WITH OLD X-AXIS =         0.0

:ETA001:                         ASYMM. ETA =     0.07693


     HELLMANN-FEYNMAN-FORCE IN mRy/a.u. = |F|  Fx       Fy             Fz
:FHF001:   1.ATOM   1432.253242108832      0.000000000000      0.000000000000  -1432.253242108832

:FIT001: LUSE= 13 SIGMA OF V-XC FIT FOR ATOM  1  0.5759930E-04
:FIT001: LUSE= 13 SIGMA OF V-XC FIT FOR ATOM  1  0.5759930E-04
:DEN  : DENSITY INTEGRAL  =        -14153.08602705   (Ry)
       ELS_POTENTIAL_AT Z=0 and Z=0.5:   0.74441   0.74441
       ELS_POTENTIAL_AT Y=0 and Y=0.5:   0.06707   0.06707
:VZERO:v0,v0c,v0x   0.15429   0.74441  -0.59012 v5,v5c,v5x   0.15429   0.74441  -0.59012
:VZERY:v0,v0c,v0x  -0.72248   0.06707  -0.78955 v5,v5c,v5x  -0.72248   0.06707  -0.78955
:VZERX:v0,v0c,v0x  -1.13356  -0.37948  -0.75408 v5,v5c,v5x  -1.13356  -0.37948  -0.75408
:LMAX-WF:   10   Non-Spherical LMAX:   4

          ATOMIC SPHERE DEPENDENT PARAMETERS FOR ATOM  Pr1       
:e__0001: OVERALL ENERGY PARAMETER IS    0.4679
          OVERALL BASIS SET ON ATOM IS LAPW
:E0_0001: E( 0)=    0.4679
             APW+lo
:E0_0001: E( 0)=   -1.9953   E(BOTTOM)=   -2.630   E(TOP)=   -1.360  4  5   183
             LOCAL ORBITAL
:E1_0001: E( 1)=    0.8679
             APW+lo
:E1_0001: E( 1)=   -0.5250   E(BOTTOM)=   -1.482   E(TOP)=    0.432  3  4   194
             LOCAL ORBITAL
:E3_0001: E( 3)=    0.6545   E(BOTTOM)=    0.448   E(TOP)=    0.861  0  1   121
             APW+lo
:E2_0001: E( 2)=    0.4679   E(BOTTOM)=    0.259   E(TOP)= -200.000  2 -1    87
             APW+lo

       K=   0.06250   0.00000   0.06250            1
:RKM  : MATRIX SIZE   431LOs:  40  RKM= 8.49  WEIGHT= 4.00  PGR:    
       EIGENVALUES ARE:
:EIG00001:      -1.9697558   -1.9526510   -0.7018925   -0.6155295   -0.5958595
:EIG00006:      -0.5881849   -0.5800590   -0.5798721    0.4379990    0.5682557
:EIG00011:       0.6606610    0.6622107    0.6624548    0.6651304    0.6700426
:EIG00016:       0.6816751    0.6852709    0.6858696    0.6888732    0.6921307
:EIG00021:       0.6962094    0.6997234    0.7003711    0.7064761    0.7391050
:EIG00026:       0.7549128    0.8378317    0.8499275    0.8846105    0.9122708
:EIG00031:       0.9286144    1.0238934    1.0677610    1.1163416    1.4189039
:EIG00036:       1.4301221    1.5057977    1.5140323    1.6764379    1.7311013
:EIG00041:       1.8102476    1.9101093    1.9955886    2.0116467    2.1225361
:EIG00046:       2.1638324    2.1797125    2.2586752    2.3053552    2.4084092
 
:EIG00051:       2.4579272    2.5128657    2.5326711    2.6149318    2.6496131
:EIG00056:       2.7210021    2.7444555    2.7948479    2.8774385    2.9469169
:EIG00061:       3.0057316    3.0278076    3.1650040    3.2191448    3.2446005
:EIG00066:       3.3496005    3.4052850    3.4495515    3.4626500    3.5023849
:EIG00071:       3.5117527    3.5628037    3.5969656    3.6697032    3.6852718
:EIG00076:       3.7285277    3.7500059    3.7976176    3.8239785    3.8556112
:EIG00081:       3.8666897    3.9126567    3.9291923    4.0184873    4.0293292
:EIG00086:       4.0487863    4.1474246    4.1653019    4.1988096    4.2095209
:EIG00091:       4.2444751    4.2885488    4.3049525    4.3308006    4.3443020
:EIG00096:       4.3828460    4.4274441    4.4397283    4.4563144    4.5306066
 
:EIG00101:       4.6132822    4.7334757    4.7521755    4.8262153    4.8473650
:EIG00106:       4.8509031    4.9087737    4.9382971    4.9649811    4.9954327
:EIG00111:       5.0833155    5.1275207    5.1474031    5.2097740    5.2590552
:EIG00116:       5.3037628    5.3384247    5.3584754    5.4045192    5.4455939
:EIG00121:       5.4601405    5.5198474    5.5871471    5.5961054    5.6539236
:EIG00126:       5.7419725    5.7886147    5.8035374    5.8309266    5.8855818
:EIG00131:       5.9006286    5.9653816    5.9780792    5.9845584    6.0211695
:EIG00136:       6.1080997    6.1235875    6.1850422    6.1874730    6.2228279
:EIG00141:       6.2481621    6.2730832    6.3148566    6.3302993    6.3983451
:EIG00146:       6.4051329    6.4176285    6.4633600    6.4684564    6.5337747
 
:EIG00151:       6.5855791    6.6052243    6.6738763    6.7068821    6.7864748
:EIG00156:       6.8648053    6.9588096    6.9719979    7.0005857    7.0732846
:EIG00161:       7.1339085    7.1692930    7.1983986    7.2331572    7.2382634
:EIG00166:       7.2943786    7.3024309    7.3043953    7.3688165    7.4400774
:EIG00171:       7.4480745    7.4939236    7.5296723    7.5458464    7.6082503
:EIG00176:       7.6189987    7.6610604    7.6731747    7.7280803    7.7527947
:EIG00181:       7.7891021    7.8038989    7.8114828    7.8620873    7.8867675
:EIG00186:       7.8989729    7.9882371    8.0623549    8.0748251    8.0868864
:EIG00191:       8.1058987    8.1340542
       ********************************************************

:KPT   :      NUMBER OF K-POINTS:   288
   0.0   0.0 angle (M,z), angle (M,x) deg
 
        SPIN-ORBIT EIGENVALUES:
     K=   0.06250   0.00000   0.06250            1
      MATRIX SIZE=  384   WEIGHT= 4.00
     EIGENVALUES ARE:
          -1.9697559   -1.9697559   -1.9526512   -1.9526512   -0.7846866
          -0.7846866   -0.7368660   -0.7368660   -0.5973466   -0.5973466
          -0.5264077   -0.5264077   -0.5232343   -0.5232343   -0.5133446
          -0.5133446    0.4380432    0.4380432    0.5681257    0.5681257
           0.6549652    0.6549652    0.6570697    0.6570697    0.6578787
           0.6578787    0.6602361    0.6602361    0.6643758    0.6643758
           0.6693604    0.6693604    0.6840655    0.6840655    0.6912419
           0.6912419    0.6957011    0.6957011    0.6966765    0.6966765

           0.7011230    0.7011230    0.7049223    0.7049223    0.7055229
           0.7055229    0.7113875    0.7113875    0.7399787    0.7399787
           0.7549204    0.7549204    0.8360787    0.8360788    0.8512351
           0.8512351    0.8848788    0.8848788    0.9126992    0.9126993
           0.9287203    0.9287203    1.0237423    1.0237424    1.0680405
           1.0680405    1.1164653    1.1164653    1.4189263    1.4189263
           1.4303296    1.4303296    1.5057361    1.5057361    1.5141208
           1.5141208    1.6760742    1.6760742    1.7305703    1.7305703

           1.8102035    1.8102035    1.9088364    1.9088364    1.9938935
           1.9938935    2.0128171    2.0128171    2.1229246    2.1229246
           2.1636623    2.1636623    2.1781646    2.1781646    2.2585389
           2.2585389    2.3062659    2.3062659    2.4081586    2.4081586
           2.4573618    2.4573618    2.5103184    2.5103184    2.5343298
           2.5343298    2.6150558    2.6150558    2.6509585    2.6509585
           2.7210697    2.7210697    2.7439989    2.7439989    2.7955514
           2.7955514    2.8778377    2.8778377    2.9467123    2.9467123

           3.0055546    3.0055546    3.0321074    3.0321074    3.1648856
           3.1648856    3.2191784    3.2191784    3.2448060    3.2448060
           3.3496093    3.3496093    3.4053209    3.4053209    3.4497865
           3.4497865    3.4622145    3.4622145    3.5025341    3.5025341
           3.5119837    3.5119837    3.5627656    3.5627656    3.5970310
           3.5970310    3.6687968    3.6687968    3.6863110    3.6863110
           3.7287393    3.7287393    3.7517081    3.7517081    3.7977055
           3.7977055    3.8242329    3.8242329    3.8559464    3.8559464

           3.8667952    3.8667952    3.9126868    3.9126868    3.9295736
           3.9295736    4.0184033    4.0184033    4.0296251    4.0296251
           4.0489114    4.0489114    4.1474156    4.1474156    4.1654471
           4.1654471    4.1988290    4.1988290    4.2095935    4.2095935
           4.2445075    4.2445075    4.2885908    4.2885908    4.3049813
           4.3049813    4.3307206    4.3307206    4.3442458    4.3442458
           4.3829071    4.3829071    4.4273003    4.4273003    4.4398746
           4.4398746    4.4564931    4.4564931
       ********************************************************
:GAP (global)   :    0.0    Ry =     0.0   eV (metal)
:GAP (this spin):    0.0    Ry =     0.0   eV (metal)
         Bandranges (emin - emax) and occupancy:
:BAN00018:  18    0.432639    0.633544  1.00000000
:BAN00019:  19    0.541549    0.644144  1.00000000
:BAN00020:  20    0.541549    0.644144  1.00000000
:BAN00021:  21    0.597065    0.659703  1.00000000
:BAN00022:  22    0.597065    0.659703  1.00000000
:BAN00023:  23    0.639250    0.662245  1.00000000
:BAN00024:  24    0.639250    0.662245  1.00000000
:BAN00025:  25    0.648713    0.668952  0.77964475
:BAN00026:  26    0.648713    0.668952  0.77964458
:BAN00027:  27    0.659114    0.669977  0.22035546
:BAN00028:  28    0.659114    0.669977  0.22035520
:BAN00029:  29    0.663359    0.674014  0.00000000
:BAN00030:  30    0.663359    0.674014  0.00000000
:BAN00031:  31    0.667085    0.680130  0.00000000
:BAN00032:  32    0.667085    0.680130  0.00000000
:BAN00033:  33    0.672033    0.687120  0.00000000
        Energy to separate low and high energystates:    0.38264


:NOE  : NUMBER OF ELECTRONS          =   26.000

:FER  : F E R M I - ENERGY(TETRAH.M.)=   0.6625026999
:GMA  : POTENTIAL AND CHARGE CUT-OFF  12.00 Ry**.5

:POS001: ATOM   -1 X,Y,Z = 0.00000 0.89750 0.25000  MULT= 2  ZZ= 59.000  Pr1       

       LMMAX 16
       LM=   0 0  1 0  2 0  2 2  3 0  3 2  4 0  4 2  4 4  5 0  5 2  5 4  6 0  6 2  6 4  6 6

:CHA001: TOTAL VALENCE CHARGE INSIDE SPHERE   1 =   9.6255    (RMT=  2.3000 )
:PCS001: PARTIAL CHARGES SPHERE =  1 S,P,D,F,PX,PY,PZ,D-Z2,D-X2Y2,D-XY,D-XZ,D-YZ 
:QTL001: 1.9406 5.0073 0.5125 2.1648 1.6665 1.6660 1.6747 0.0946 0.0913 0.1137 0.1002 0.1127
        Q-s-low E-s-low   Q-p-low E-p-low   Q-d-low E-d-low   Q-f-low E-f-low
:EPL001:  1.8694 -1.9526    4.9431 -0.6365    0.0023 -0.6332    0.0006 -0.6450
        Q-s-hi  E-s-hi    Q-p-hi  E-p-hi    Q-d-hi  E-d-hi    Q-f-hi  E-f-hi 
:EPH001:  0.0712  0.5691    0.0641  0.6046    0.5103  0.6131    2.1642  0.6492

                      VXX         VYY         VZZ       UP TO R
:VZZ001:             3.52291     3.34919    -6.87210       2.300

:CHA  : TOTAL VALENCE CHARGE INSIDE UNIT CELL =      26.000000

:SUM  : SUM OF EIGENVALUES =          -9.199031612


        1.ATOM      Pr1                  14 CORE STATES
       CORE-FORCE in mRy/a.u. = |F|      Fx             Fy             Fz
:FCO001:   1.ATOM   1405.386028931772      0.000000000000      0.000000000000   1405.386028931772

:1S 001: 1S               -3066.938384823 Ry
:2S 001: 2S                -492.691232289 Ry
:2PP001: 2P*               -465.790337787 Ry
:2P 001: 2P                -430.392856617 Ry
:3S 001: 3S                -105.781366333 Ry
:3PP001: 3P*                -94.319232685 Ry
:3P 001: 3P                 -87.311332703 Ry
:3DD001: 3D*                -67.238413995 Ry
:3D 001: 3D                 -65.726839439 Ry
:4S 001: 4S                 -20.454777454 Ry
:4PP001: 4P*                -16.161322125 Ry
:4P 001: 4P                 -14.633546784 Ry
:4DD001: 4D*                 -7.565801150 Ry
:4D 001: 4D                  -7.296268314 Ry
:CINT001 Core Integral Atom   1   45.998498

       DENSITY AT NUCLEUS
        JATOM        VALENCE       SEMI-CORE          CORE           TOTAL
:RTO001:   1      648.398271        0.000000   656825.387618   657473.785888
     
       CHARGES OF NEW CHARGE DENSITY
:NTO   : INTERSTITIAL CHARGE =     6.748985
:NPC   : PW Pseudocharge     =    16.912863
:NTO001: CHARGE SPHERE  1    =    55.624005

:NEC01: NUCLEAR AND ELECTRONIC CHARGE    118.00000   117.99699
     
       CHARGES OF OLD CHARGE DENSITY
:OTO   : INTERSTITIAL CHARGE =     6.936823
:OPC   : PW Pseudocharge     =    16.983873
:OTO001: CHARGE SPHERE  1    =    55.531589

:NEC02: NUCLEAR AND ELECTRONIC CHARGE    118.00000   118.00000
     
       CONVERGENCE TEST
:DTO001: DIFFERENCE IN SPHERE  1 =  0.1612371

:DIS  :  CHARGE DISTANCE       ( 0.1612371 for atom    1 spin 1)      0.1612371
 PW Mixed is          471
 
******************************************************
* MULTISECANT MIXING VER9 RELEASE 10.4.0              *
* Standard Mode with controls                        *
* Fixed density scale                                *
* Regularization       1.000E-04                     *
* Trust Upper Limit    5.000E+00                     *
* Max Number of Memory Steps    8                    *
******************************************************
 
:PWTMP   3.5156E+02  1.9467E+02  4.5349E+02
:PLANE:  PW TOTAL      4.7887 DISTAN   2.82E-02  5.89E-01 %
:CHARG:  CLM/ATOM   1381.9505 DISTAN   2.49E-01  1.80E-02 %
 
Step History
        DMIX         DMIXT        Red     Pred      Trust     Lambda    MagRel    MagAbs     Beta
  1   3.5000E-02   3.5000E-02 -1.00E+00  1.00E+00 -1.00E+01  1.00E+00  3.50E-02  3.50E-02  1.00E+00
:INFO :  Note, Pratt in use
:TRUST:  Step 3.75E-02  Charge 7.50E-02 (e) CTO  2.50E-01 (e) PW  3.50E-01 (e)
:DIRM :  MEMORY  0/ 8 SCALE   1.000
Performing Pseudo Compensation
Final Pseudo Compensation Rescaling     1.00000E+00
:MIX  :   PRATT  REGULARIZATION:  1.00E-04 GREED: 0.02500                  
     
       CHARGES OF MIXED CHARGE DENSITY
:CTO   : INTERSTITIAL CHARGE =     6.932202
:CPC   : PW Pseudocharge     =    16.969117
:CTO001: CHARGE SPHERE  1    =    55.533899

:NEC03: NUCLEAR AND ELECTRONIC CHARGE    118.00000   118.00000

PW CHANGE     H    K    L      Current       Change    Residue
:PTO001:      0    0    0  5.27055207E-02 -4.273E-05 -5.476E-04
:PTO003:      0    2    0  1.44218245E-02 -9.492E-06  3.487E-05
:PTO004:     -1    1    0  7.07117068E-02 -5.494E-05 -1.286E-04
:PTO005:      0    2   -1 -8.21068497E-02  5.900E-05 -5.403E-05
:PTO006:      0    0   -2 -4.25195713E-02  3.217E-05  3.388E-05
:PTO007:     -1    1   -1 -8.87590259E-02  6.537E-05  1.288E-05
:PTO008:      0    2   -2 -1.43995586E-02  1.056E-05  3.282E-05
:PTO009:     -1    1   -2 -7.40609670E-02  4.558E-05 -1.055E-05
:PTO011:     -1    3    0 -1.20310863E-02  7.521E-06  7.300E-05
:PTO012:     -1    3   -1 -5.37764474E-02  1.958E-05 -2.399E-05
:PTO013:      0    4    0 -9.80025553E-03  1.922E-06 -1.513E-05
:PTO014:      0    2   -3  2.25364432E-02 -5.306E-06 -1.217E-05

:ENE  : ********** TOTAL ENERGY IN Ry =       -36944.24457567

       TOTAL FORCE IN mRy/a.u. = |F|     Fx             Fy             Fz     with/without FOR in case.in2
:FOR001:   1.ATOM         26.867          0.000          0.000        -26.867 partial forces
       TOTAL FORCE WITH RESPECT TO GLOBAL CARTESIAN COORDINATES:
:FCA001:   1.ATOM                         0.000        -26.867          0.000 partial forces
       TOTAL FORCE WITH RESPECT TO THE GLOBAL COORDINATE SYSTEM:
:FGL001:   1.ATOM                 0.000000000   -26.867213177     0.000000000 partial forces
 Flat Integration
 New Mode for Coulomb Integral
 Consistent 3/8+Simpson combinations
 Extension of core to zero
 LDM version in phi
 Fifth-order quadrature in outwin


            ---------
:ITE014: 14. ITERATION
            ---------

:NATO :    1 INDEPENDENT AND    2 TOTAL ATOMS IN UNITCELL
       SUBSTANCE: aU                                                          

       LATTICE                      = CXY 
:POT  : POTENTIAL OPTION EX_LDA EC_LDA VX_LDA VC_LDA
:LAT  : LATTICE CONSTANTS=  6.34235 12.87024 11.11114    1.571    1.571    1.571
:VOL  : UNIT CELL VOLUME =     453.48796
       MODE OF CALCULATION IS       = RELA
       NON-SPINPOLARIZED CALCULATION
:IFFT  : FFT-parameters:   54  100   90 Factor: 2.00


   CONVERGENCE PARAMETER FOR PSEUDOCHARGE: NCON=  9
   MAXIMAL VALUE OF RMT(JATOM)*ABSK(NKK) : RK  =27.59759


:VKCOUL :  VK-COUL convergence: 0.160E-06
       ATOMNUMBER=  1 Pr1        VCOUL-ZERO =  0.11619E+00
:EFG001:                        EFG         =    -8.32383   *10**21  V / m**2
                               V20  TOT/SRF=    -7.20864    -0.02991
                               V22  TOT/SRF=    -0.31129    -0.00073
                               V22M TOT/SRF=     0.00000     0.00000
                               V21  TOT/SRF=     0.00000     0.00000
                               V21M TOT/SRF=     0.00000     0.00000

              3.85062    0.00000    0.00000        3.85062    0.00000    0.00000
              0.00000    4.47320    0.00000        0.00000    4.47320    0.00000
              0.00000    0.00000   -8.32383        0.00000    0.00000   -8.32383

         MAIN DIRECTIONS OF THE EFG   1.0000  0.0000  0.0000
                                      0.0000  1.0000  0.0000
                                      0.0000  0.0000  1.0000
:ANG001:  ANGLE WITH OLD X-AXIS =         0.0

:ETA001:                         ASYMM. ETA =     0.07479


     HELLMANN-FEYNMAN-FORCE IN mRy/a.u. = |F|  Fx       Fy             Fz
:FHF001:   1.ATOM   1431.790188806944      0.000000000000      0.000000000000  -1431.790188806944

:FIT001: LUSE= 13 SIGMA OF V-XC FIT FOR ATOM  1  0.5729943E-04
:FIT001: LUSE= 13 SIGMA OF V-XC FIT FOR ATOM  1  0.5729943E-04
:DEN  : DENSITY INTEGRAL  =        -14153.55096211   (Ry)
       ELS_POTENTIAL_AT Z=0 and Z=0.5:   0.74379   0.74379
       ELS_POTENTIAL_AT Y=0 and Y=0.5:   0.06702   0.06702
:VZERO:v0,v0c,v0x   0.15382   0.74379  -0.58997 v5,v5c,v5x   0.15382   0.74379  -0.58997
:VZERY:v0,v0c,v0x  -0.72234   0.06702  -0.78936 v5,v5c,v5x  -0.72234   0.06702  -0.78936
:VZERX:v0,v0c,v0x  -1.13303  -0.37914  -0.75389 v5,v5c,v5x  -1.13303  -0.37914  -0.75389
:LMAX-WF:   10   Non-Spherical LMAX:   4

          ATOMIC SPHERE DEPENDENT PARAMETERS FOR ATOM  Pr1       
:e__0001: OVERALL ENERGY PARAMETER IS    0.4643
          OVERALL BASIS SET ON ATOM IS LAPW
:E0_0001: E( 0)=    0.4643
             APW+lo
:E0_0001: E( 0)=   -1.9938   E(BOTTOM)=   -2.629   E(TOP)=   -1.358  4  5   183
             LOCAL ORBITAL
:E1_0001: E( 1)=    0.8643
             APW+lo
:E1_0001: E( 1)=   -0.5237   E(BOTTOM)=   -1.481   E(TOP)=    0.434  3  4   197
             LOCAL ORBITAL
:E3_0001: E( 3)=    0.6574   E(BOTTOM)=    0.450   E(TOP)=    0.865  0  1   114
             APW+lo
:E2_0001: E( 2)=    0.4643   E(BOTTOM)=    0.259   E(TOP)= -200.000  2 -1    88
             APW+lo

       K=   0.06250   0.00000   0.06250            1
:RKM  : MATRIX SIZE   431LOs:  40  RKM= 8.49  WEIGHT= 4.00  PGR:    
       EIGENVALUES ARE:
:EIG00001:      -1.9683809   -1.9512433   -0.7010419   -0.6145630   -0.5948621
:EIG00006:      -0.5870915   -0.5789515   -0.5788169    0.4378192    0.5682119
:EIG00011:       0.6629436    0.6646749    0.6649028    0.6675492    0.6724176
:EIG00016:       0.6843908    0.6879979    0.6886200    0.6916264    0.6947760
:EIG00021:       0.6990097    0.7024232    0.7030026    0.7092387    0.7400536
:EIG00026:       0.7554559    0.8382660    0.8501582    0.8848339    0.9125121
:EIG00031:       0.9289116    1.0242102    1.0681813    1.1167954    1.4189582
:EIG00036:       1.4304014    1.5057752    1.5141486    1.6763716    1.7310251
:EIG00041:       1.8102688    1.9101219    1.9956362    2.0117282    2.1227157
:EIG00046:       2.1638813    2.1796136    2.2587217    2.3053280    2.4084885
 
:EIG00051:       2.4579756    2.5129237    2.5326863    2.6150482    2.6498082
:EIG00056:       2.7209885    2.7443658    2.7952308    2.8774826    2.9470455
:EIG00061:       3.0056660    3.0280285    3.1651559    3.2189366    3.2445270
:EIG00066:       3.3496511    3.4051553    3.4496483    3.4627711    3.5021473
:EIG00071:       3.5116001    3.5626985    3.5968880    3.6696396    3.6851599
:EIG00076:       3.7285869    3.7498392    3.7975493    3.8238407    3.8555901
:EIG00081:       3.8665208    3.9124393    3.9290232    4.0183238    4.0293541
:EIG00086:       4.0485172    4.1470917    4.1651107    4.1986339    4.2094840
:EIG00091:       4.2442474    4.2884410    4.3046869    4.3308160    4.3443572
:EIG00096:       4.3826071    4.4272040    4.4395268    4.4561911    4.5303665
 
:EIG00101:       4.6132025    4.7333021    4.7521164    4.8261179    4.8471457
:EIG00106:       4.8506655    4.9085615    4.9381330    4.9648636    4.9951841
:EIG00111:       5.0830418    5.1272252    5.1475359    5.2098022    5.2588927
:EIG00116:       5.3037659    5.3381717    5.3583821    5.4045618    5.4457383
:EIG00121:       5.4602674    5.5196540    5.5872098    5.5958897    5.6538902
:EIG00126:       5.7418366    5.7886547    5.8034523    5.8307982    5.8854367
:EIG00131:       5.9006580    5.9652136    5.9779985    5.9844235    6.0211635
:EIG00136:       6.1079903    6.1234077    6.1848105    6.1872593    6.2227518
:EIG00141:       6.2480836    6.2732381    6.3146848    6.3300597    6.3981128
:EIG00146:       6.4049318    6.4174728    6.4632908    6.4687965    6.5335282
 
:EIG00151:       6.5853053    6.6051867    6.6736185    6.7068933    6.7864287
:EIG00156:       6.8646870    6.9586712    6.9718200    7.0003824    7.0732264
:EIG00161:       7.1337241    7.1693256    7.1982502    7.2332136    7.2382402
:EIG00166:       7.2942735    7.3023469    7.3043100    7.3687100    7.4401097
:EIG00171:       7.4481444    7.4939253    7.5297053    7.5458626    7.6082767
:EIG00176:       7.6190170    7.6612638    7.6731333    7.7281317    7.7527450
:EIG00181:       7.7889902    7.8039091    7.8112936    7.8622611    7.8866208
:EIG00186:       7.8988022    7.9883811    8.0622546    8.0747942    8.0869140
:EIG00191:       8.1058364    8.1339129
       ********************************************************

:KPT   :      NUMBER OF K-POINTS:   288
   0.0   0.0 angle (M,z), angle (M,x) deg
 
        SPIN-ORBIT EIGENVALUES:
     K=   0.06250   0.00000   0.06250            1
      MATRIX SIZE=  384   WEIGHT= 4.00
     EIGENVALUES ARE:
          -1.9683810   -1.9683810   -1.9512434   -1.9512434   -0.7836771
          -0.7836771   -0.7357404   -0.7357404   -0.5964506   -0.5964506
          -0.5253910   -0.5253910   -0.5222331   -0.5222331   -0.5123175
          -0.5123175    0.4378635    0.4378635    0.5680850    0.5680850
           0.6573670    0.6573670    0.6595894    0.6595894    0.6603914
           0.6603914    0.6627451    0.6627451    0.6669028    0.6669028
           0.6721276    0.6721276    0.6864644    0.6864644    0.6939006
           0.6939006    0.6984134    0.6984134    0.6993285    0.6993285

           0.7037470    0.7037470    0.7075156    0.7075156    0.7082066
           0.7082066    0.7141359    0.7141359    0.7410240    0.7410240
           0.7555081    0.7555081    0.8365299    0.8365300    0.8514707
           0.8514707    0.8851037    0.8851037    0.9129406    0.9129407
           0.9290173    0.9290173    1.0240601    1.0240601    1.0684598
           1.0684598    1.1169184    1.1169185    1.4189859    1.4189859
           1.4306039    1.4306039    1.5057149    1.5057149    1.5142363
           1.5142363    1.6760087    1.6760087    1.7304943    1.7304943

           1.8102250    1.8102250    1.9088510    1.9088510    1.9939457
           1.9939457    2.0128925    2.0128925    2.1231025    2.1231025
           2.1637097    2.1637097    2.1780719    2.1780719    2.2585810
           2.2585810    2.3062437    2.3062437    2.4082389    2.4082389
           2.4574079    2.4574079    2.5103722    2.5103722    2.5343498
           2.5343498    2.6151682    2.6151682    2.6511492    2.6511492
           2.7210589    2.7210589    2.7439139    2.7439139    2.7959277
           2.7959277    2.8778841    2.8778841    2.9468444    2.9468444

           3.0054925    3.0054925    3.0323208    3.0323208    3.1650371
           3.1650371    3.2189703    3.2189703    3.2447325    3.2447325
           3.3496603    3.3496603    3.4051920    3.4051920    3.4498822
           3.4498822    3.4623327    3.4623327    3.5022978    3.5022978
           3.5118314    3.5118314    3.5626600    3.5626600    3.5969535
           3.5969535    3.6687300    3.6687300    3.6862038    3.6862038
           3.7287977    3.7287977    3.7515415    3.7515415    3.7976371
           3.7976371    3.8240969    3.8240969    3.8559235    3.8559235

           3.8666260    3.8666260    3.9124695    3.9124695    3.9294048
           3.9294048    4.0182417    4.0182417    4.0296475    4.0296475
           4.0486427    4.0486427    4.1470827    4.1470827    4.1652561
           4.1652561    4.1986535    4.1986535    4.2095564    4.2095564
           4.2442800    4.2442800    4.2884831    4.2884831    4.3047164
           4.3047164    4.3307347    4.3307347    4.3443003    4.3443003
           4.3826684    4.3826684    4.4270621    4.4270621    4.4396711
           4.4396711    4.4563713    4.4563713
       ********************************************************
:GAP (global)   :    0.0    Ry =     0.0   eV (metal)
:GAP (this spin):    0.0    Ry =     0.0   eV (metal)
         Bandranges (emin - emax) and occupancy:
:BAN00018:  18    0.432457    0.634903  1.00000000
:BAN00019:  19    0.541442    0.645690  1.00000000
:BAN00020:  20    0.541442    0.645690  1.00000000
:BAN00021:  21    0.597215    0.662089  1.00000000
:BAN00022:  22    0.597215    0.662089  1.00000000
:BAN00023:  23    0.640317    0.664643  1.00000000
:BAN00024:  24    0.640317    0.664643  1.00000000
:BAN00025:  25    0.650566    0.671659  0.77939972
:BAN00026:  26    0.650566    0.671659  0.77939953
:BAN00027:  27    0.661592    0.672717  0.22060052
:BAN00028:  28    0.661592    0.672717  0.22060023
:BAN00029:  29    0.665915    0.676204  0.00000000
:BAN00030:  30    0.665915    0.676204  0.00000000
:BAN00031:  31    0.669726    0.682205  0.00000000
:BAN00032:  32    0.669726    0.682205  0.00000000
:BAN00033:  33    0.674710    0.688904  0.00000000
        Energy to separate low and high energystates:    0.38246


:NOE  : NUMBER OF ELECTRONS          =   26.000

:FER  : F E R M I - ENERGY(TETRAH.M.)=   0.6649548524
:GMA  : POTENTIAL AND CHARGE CUT-OFF  12.00 Ry**.5

:POS001: ATOM   -1 X,Y,Z = 0.00000 0.89750 0.25000  MULT= 2  ZZ= 59.000  Pr1       

       LMMAX 16
       LM=   0 0  1 0  2 0  2 2  3 0  3 2  4 0  4 2  4 4  5 0  5 2  5 4  6 0  6 2  6 4  6 6

:CHA001: TOTAL VALENCE CHARGE INSIDE SPHERE   1 =   9.5895    (RMT=  2.3000 )
:PCS001: PARTIAL CHARGES SPHERE =  1 S,P,D,F,PX,PY,PZ,D-Z2,D-X2Y2,D-XY,D-XZ,D-YZ 
:QTL001: 1.9409 5.0076 0.5242 2.1164 1.6665 1.6660 1.6751 0.0972 0.0939 0.1153 0.1026 0.1152
        Q-s-low E-s-low   Q-p-low E-p-low   Q-d-low E-d-low   Q-f-low E-f-low
:EPL001:  1.8693 -1.9512    4.9418 -0.6355    0.0023 -0.6322    0.0006 -0.6441
        Q-s-hi  E-s-hi    Q-p-hi  E-p-hi    Q-d-hi  E-d-hi    Q-f-hi  E-f-hi 
:EPH001:  0.0716  0.5696    0.0659  0.6060    0.5220  0.6145    2.1158  0.6513

                      VXX         VYY         VZZ       UP TO R
:VZZ001:             3.78226     3.59270    -7.37496       2.300

:CHA  : TOTAL VALENCE CHARGE INSIDE UNIT CELL =      26.000000

:SUM  : SUM OF EIGENVALUES =          -9.169997649


        1.ATOM      Pr1                  14 CORE STATES
       CORE-FORCE in mRy/a.u. = |F|      Fx             Fy             Fz
:FCO001:   1.ATOM   1405.045321946105      0.000000000000      0.000000000000   1405.045321946105

:1S 001: 1S               -3066.933010057 Ry
:2S 001: 2S                -492.685844856 Ry
:2PP001: 2P*               -465.784953089 Ry
:2P 001: 2P                -430.387471042 Ry
:3S 001: 3S                -105.776099177 Ry
:3PP001: 3P*                -94.313954035 Ry
:3P 001: 3P                 -87.306075507 Ry
:3DD001: 3D*                -67.233117848 Ry
:3D 001: 3D                 -65.721548561 Ry
:4S 001: 4S                 -20.450648765 Ry
:4PP001: 4P*                -16.157265114 Ry
:4P 001: 4P                 -14.629600695 Ry
:4DD001: 4D*                 -7.562052072 Ry
:4D 001: 4D                  -7.292557151 Ry
:CINT001 Core Integral Atom   1   45.998495

       DENSITY AT NUCLEUS
        JATOM        VALENCE       SEMI-CORE          CORE           TOTAL
:RTO001:   1      648.393188        0.000000   656825.152849   657473.546037
     
       CHARGES OF NEW CHARGE DENSITY
:NTO   : INTERSTITIAL CHARGE =     6.820910
:NPC   : PW Pseudocharge     =    16.932980
:NTO001: CHARGE SPHERE  1    =    55.588040

:NEC01: NUCLEAR AND ELECTRONIC CHARGE    118.00000   117.99699
     
       CHARGES OF OLD CHARGE DENSITY
:OTO   : INTERSTITIAL CHARGE =     6.932202
:OPC   : PW Pseudocharge     =    16.969117
:OTO001: CHARGE SPHERE  1    =    55.533899

:NEC02: NUCLEAR AND ELECTRONIC CHARGE    118.00000   118.00000
     
       CONVERGENCE TEST
:DTO001: DIFFERENCE IN SPHERE  1 =  0.0976356

:DIS  :  CHARGE DISTANCE       ( 0.0976356 for atom    1 spin 1)      0.0976356
 PW Mixed is          471
 
******************************************************
* MULTISECANT MIXING VER9 RELEASE 10.4.0              *
* Slow Mode, cautious                                *
* Fixed density scale                                *
* Regularization       1.000E-04                     *
* Step Trust Radius    0.75000                       *
* Trust Upper Limit    2.000E+00                     *
* Max Number of Memory Steps   12                    *
******************************************************
 
:PWTMP   3.5156E+02  1.9467E+02  4.5349E+02
:PLANE:  PW TOTAL      4.7853 DISTAN   1.61E-02  3.36E-01 %
:CHARG:  CLM/ATOM   1381.9509 DISTAN   1.65E-01  1.20E-02 %
 
Step History
        DMIX         DMIXT        Red     Pred      Trust     Lambda    MagRel    MagAbs     Beta
  1   3.5000E-02   3.5000E-02 -1.00E+00  1.00E+00 -1.00E+01  1.00E+00  3.50E-02  3.50E-02  1.00E+00
  2   2.5000E-02   2.5000E-02 -1.00E+00  1.00E+00 -1.00E+01  1.00E+00  2.50E-02  6.26E-03  1.00E+00
:JACOBIANS    2.266E-03   3.156E-02
  
:TRUST:  Step 2.86E-02  Charge 7.50E-02 (e) CTO  2.50E-01 (e) PW  3.50E-01 (e)
:DIRM :  MEMORY  1/12 SCALE   1.000
:MIX  :   PRATT  REGULARIZATION:  1.00E-04 GREED: 0.02860  Expand 1.14  0.0286                
     
       CHARGES OF MIXED CHARGE DENSITY
:CTO   : INTERSTITIAL CHARGE =     6.924977
:CPC   : PW Pseudocharge     =    16.946044
:CTO001: CHARGE SPHERE  1    =    55.537512

:NEC03: NUCLEAR AND ELECTRONIC CHARGE    118.00000   118.00000

PW CHANGE     H    K    L      Current       Change    Residue
:PTO001:      0    0    0  5.26387072E-02 -6.681E-05 -3.020E-04
:PTO003:      0    2    0  1.44069814E-02 -1.484E-05  2.735E-05
:PTO004:     -1    1    0  7.06258050E-02 -8.590E-05 -5.259E-05
:PTO005:      0    2   -1 -8.20145905E-02  9.226E-05 -9.327E-05
:PTO006:      0    0   -2 -4.24692688E-02  5.030E-05 -3.094E-06
:PTO007:     -1    1   -1 -8.86568022E-02  1.022E-04 -2.568E-05
:PTO008:      0    2   -2 -1.43830428E-02  1.652E-05  1.863E-05
:PTO009:     -1    1   -2 -7.39897019E-02  7.127E-05 -3.930E-05
:PTO011:     -1    3    0 -1.20193258E-02  1.176E-05  5.097E-05
:PTO012:     -1    3   -1 -5.37458361E-02  3.061E-05 -2.730E-05
:PTO013:      0    4    0 -9.79724999E-03  3.006E-06 -8.168E-06
:PTO014:      0    2   -3  2.25281464E-02 -8.297E-06 -5.892E-06

:ENE  : ********** TOTAL ENERGY IN Ry =       -36944.24386599

       TOTAL FORCE IN mRy/a.u. = |F|     Fx             Fy             Fz     with/without FOR in case.in2
:FOR001:   1.ATOM         26.745          0.000          0.000        -26.745 partial forces
       TOTAL FORCE WITH RESPECT TO GLOBAL CARTESIAN COORDINATES:
:FCA001:   1.ATOM                         0.000        -26.745          0.000 partial forces
       TOTAL FORCE WITH RESPECT TO THE GLOBAL COORDINATE SYSTEM:
:FGL001:   1.ATOM                 0.000000000   -26.744866861     0.000000000 partial forces
 Flat Integration
 New Mode for Coulomb Integral
 Consistent 3/8+Simpson combinations
 Extension of core to zero
 LDM version in phi
 Fifth-order quadrature in outwin


            ---------
:ITE015: 15. ITERATION
            ---------

:NATO :    1 INDEPENDENT AND    2 TOTAL ATOMS IN UNITCELL
       SUBSTANCE: aU                                                          

       LATTICE                      = CXY 
:POT  : POTENTIAL OPTION EX_LDA EC_LDA VX_LDA VC_LDA
:LAT  : LATTICE CONSTANTS=  6.34235 12.87024 11.11114    1.571    1.571    1.571
:VOL  : UNIT CELL VOLUME =     453.48796
       MODE OF CALCULATION IS       = RELA
       NON-SPINPOLARIZED CALCULATION
:IFFT  : FFT-parameters:   54  100   90 Factor: 2.00


   CONVERGENCE PARAMETER FOR PSEUDOCHARGE: NCON=  9
   MAXIMAL VALUE OF RMT(JATOM)*ABSK(NKK) : RK  =27.59759


:VKCOUL :  VK-COUL convergence: 0.159E-06
       ATOMNUMBER=  1 Pr1        VCOUL-ZERO =  0.11599E+00
:EFG001:                        EFG         =    -8.26683   *10**21  V / m**2
                               V20  TOT/SRF=    -7.15929    -0.02963
                               V22  TOT/SRF=    -0.29522    -0.00059
                               V22M TOT/SRF=     0.00000     0.00000
                               V21  TOT/SRF=     0.00000     0.00000
                               V21M TOT/SRF=     0.00000     0.00000

              3.83820    0.00000    0.00000        3.83820    0.00000    0.00000
              0.00000    4.42863    0.00000        0.00000    4.42863    0.00000
              0.00000    0.00000   -8.26683        0.00000    0.00000   -8.26683

         MAIN DIRECTIONS OF THE EFG   1.0000  0.0000  0.0000
                                      0.0000  1.0000  0.0000
                                      0.0000  0.0000  1.0000
:ANG001:  ANGLE WITH OLD X-AXIS =         0.0

:ETA001:                         ASYMM. ETA =     0.07142


     HELLMANN-FEYNMAN-FORCE IN mRy/a.u. = |F|  Fx       Fy             Fz
:FHF001:   1.ATOM   1431.066119009605      0.000000000000      0.000000000000  -1431.066119009605

:FIT001: LUSE= 13 SIGMA OF V-XC FIT FOR ATOM  1  0.5683196E-04
:FIT001: LUSE= 13 SIGMA OF V-XC FIT FOR ATOM  1  0.5683196E-04
:DEN  : DENSITY INTEGRAL  =        -14154.27801771   (Ry)
       ELS_POTENTIAL_AT Z=0 and Z=0.5:   0.74282   0.74282
       ELS_POTENTIAL_AT Y=0 and Y=0.5:   0.06694   0.06694
:VZERO:v0,v0c,v0x   0.15307   0.74282  -0.58975 v5,v5c,v5x   0.15307   0.74282  -0.58975
:VZERY:v0,v0c,v0x  -0.72212   0.06694  -0.78906 v5,v5c,v5x  -0.72212   0.06694  -0.78906
:VZERX:v0,v0c,v0x  -1.13221  -0.37861  -0.75360 v5,v5c,v5x  -1.13221  -0.37861  -0.75360
:LMAX-WF:   10   Non-Spherical LMAX:   4

          ATOMIC SPHERE DEPENDENT PARAMETERS FOR ATOM  Pr1       
:e__0001: OVERALL ENERGY PARAMETER IS    0.4647
          OVERALL BASIS SET ON ATOM IS LAPW
:E0_0001: E( 0)=    0.4647
             APW+lo
:E0_0001: E( 0)=   -1.9914   E(BOTTOM)=   -2.627   E(TOP)=   -1.355  4  5   185
             LOCAL ORBITAL
:E1_0001: E( 1)=    0.8647
             APW+lo
:E1_0001: E( 1)=   -0.5217   E(BOTTOM)=   -1.480   E(TOP)=    0.437  3  4   198
             LOCAL ORBITAL
:E3_0001: E( 3)=    0.6618   E(BOTTOM)=    0.454   E(TOP)=    0.870  0  1   125
             APW+lo
:E2_0001: E( 2)=    0.4647   E(BOTTOM)=    0.261   E(TOP)= -200.000  2 -1    89
             APW+lo

       K=   0.06250   0.00000   0.06250            1
:RKM  : MATRIX SIZE   431LOs:  40  RKM= 8.49  WEIGHT= 4.00  PGR:    
       EIGENVALUES ARE:
:EIG00001:      -1.9662320   -1.9490428   -0.6997134   -0.6130529   -0.5933035
:EIG00006:      -0.5853829   -0.5772207   -0.5771679    0.4375385    0.5681369
:EIG00011:       0.6664468    0.6685198    0.6687089    0.6713025    0.6761139
:EIG00016:       0.6886298    0.6922552    0.6929142    0.6959232    0.6989031
:EIG00021:       0.7033821    0.7066130    0.7070670    0.7135596    0.7416311
:EIG00026:       0.7563686    0.8389702    0.8505234    0.8851852    0.9128923
:EIG00031:       0.9293792    1.0247055    1.0688378    1.1175019    1.4190480
:EIG00036:       1.4308329    1.5057431    1.5143308    1.6762691    1.7309055
:EIG00041:       1.8103008    1.9101381    1.9956971    2.0118451    2.1229554
:EIG00046:       2.1639387    2.1794449    2.2587795    2.3052567    2.4085789
 
:EIG00051:       2.4580189    2.5129925    2.5326754    2.6151807    2.6500606
:EIG00056:       2.7209458    2.7441998    2.7957283    2.8775177    2.9472260
:EIG00061:       3.0054967    3.0283154    3.1653027    3.2185729    3.2443547
:EIG00066:       3.3496548    3.4048904    3.4497672    3.4629036    3.5017594
:EIG00071:       3.5113184    3.5624866    3.5967215    3.6695183    3.6849529
:EIG00076:       3.7285879    3.7495530    3.7973592    3.8236066    3.8554993
:EIG00081:       3.8662231    3.9120559    3.9287327    4.0180188    4.0293514
:EIG00086:       4.0480560    4.1465480    4.1647813    4.1983319    4.2093027
:EIG00091:       4.2438469    4.2882013    4.3042406    4.3307217    4.3443265
:EIG00096:       4.3821982    4.4267979    4.4391563    4.4559221    4.5299414
 
:EIG00101:       4.6129962    4.7329385    4.7519474    4.8258738    4.8467327
:EIG00106:       4.8502213    4.9081557    4.9378239    4.9645782    4.9947424
:EIG00111:       5.0825579    5.1267289    5.1475558    5.2096953    5.2585603
:EIG00116:       5.3036299    5.3377153    5.3581144    5.4044341    5.4456890
:EIG00121:       5.4602325    5.5192454    5.5870438    5.5954753    5.6536889
:EIG00126:       5.7414913    5.7885197    5.8032166    5.8304844    5.8851297
:EIG00131:       5.9004833    5.9648795    5.9777109    5.9841026    6.0209550
:EIG00136:       6.1076581    6.1230215    6.1843611    6.1868466    6.2224510
:EIG00141:       6.2478145    6.2731267    6.3143337    6.3295797    6.3976393
:EIG00146:       6.4045021    6.4170835    6.4629677    6.4688333    6.5330565
 
:EIG00151:       6.5847991    6.6048896    6.6731190    6.7066965    6.7861698
:EIG00156:       6.8643737    6.9583251    6.9714076    6.9999328    7.0729386
:EIG00161:       7.1333004    7.1692060    7.1978909    7.2330640    7.2379805
:EIG00166:       7.2939095    7.3020443    7.3039909    7.3683620    7.4398250
:EIG00171:       7.4479330    7.4936421    7.5294565    7.5456099    7.6080256
:EIG00176:       7.6187438    7.6612627    7.6728463    7.7279062    7.7524663
:EIG00181:       7.7885972    7.8036704    7.8108373    7.8621344    7.8862333
:EIG00186:       7.8983880    7.9882703    8.0618931    8.0744925    8.0867277
:EIG00191:       8.1054760    8.1334809
       ********************************************************

:KPT   :      NUMBER OF K-POINTS:   288
   0.0   0.0 angle (M,z), angle (M,x) deg
 
        SPIN-ORBIT EIGENVALUES:
     K=   0.06250   0.00000   0.06250            1
      MATRIX SIZE=  384   WEIGHT= 4.00
     EIGENVALUES ARE:
          -1.9662322   -1.9662322   -1.9490429   -1.9490429   -0.7821014
          -0.7821014   -0.7339825   -0.7339825   -0.5950508   -0.5950508
          -0.5238023   -0.5238023   -0.5206688   -0.5206688   -0.5107124
          -0.5107124    0.4375830    0.4375830    0.5680143    0.5680143
           0.6610745    0.6610745    0.6635172    0.6635172    0.6643026
           0.6643026    0.6666438    0.6666438    0.6708272    0.6708272
           0.6764490    0.6764490    0.6901868    0.6901868    0.6980432
           0.6980432    0.7026438    0.7026438    0.7034662    0.7034662

           0.7078180    0.7078180    0.7115184    0.7115184    0.7123929
           0.7123929    0.7184326    0.7184326    0.7427658    0.7427658
           0.7565014    0.7565014    0.8372595    0.8372595    0.8518459
           0.8518459    0.8854572    0.8854572    0.9133210    0.9133211
           0.9294845    0.9294845    1.0245566    1.0245566    1.0691146
           1.0691146    1.1176239    1.1176239    1.4190833    1.4190833
           1.4310280    1.4310280    1.5056845    1.5056845    1.5144173
           1.5144173    1.6759074    1.6759074    1.7303749    1.7303749

           1.8102574    1.8102574    1.9088701    1.9088701    1.9940139
           1.9940139    2.0129993    2.0129993    2.1233403    2.1233403
           2.1637646    2.1637646    2.1779122    2.1779122    2.2586316
           2.2586316    2.3061795    2.3061795    2.4083305    2.4083305
           2.4574488    2.4574488    2.5104315    2.5104315    2.5343483
           2.5343483    2.6152946    2.6152946    2.6513956    2.6513956
           2.7210202    2.7210202    2.7437537    2.7437537    2.7964156
           2.7964156    2.8779228    2.8779228    2.9470284    2.9470284

           3.0053285    3.0053285    3.0325981    3.0325981    3.1651830
           3.1651830    3.2186068    3.2186068    3.2445605    3.2445605
           3.3496644    3.3496644    3.4049286    3.4049286    3.4499991
           3.4499991    3.4624609    3.4624609    3.5019118    3.5019118
           3.5115503    3.5115503    3.5624472    3.5624472    3.5967869
           3.5967869    3.6686026    3.6686026    3.6860045    3.6860045
           3.7287976    3.7287976    3.7512559    3.7512559    3.7974470
           3.7974470    3.8238655    3.8238655    3.8558306    3.8558306

           3.8663280    3.8663280    3.9120865    3.9120865    3.9291151
           3.9291151    4.0179398    4.0179398    4.0296409    4.0296409
           4.0481822    4.0481822    4.1465392    4.1465392    4.1649268
           4.1649268    4.1983515    4.1983515    4.2093752    4.2093752
           4.2438796    4.2438796    4.2882435    4.2882435    4.3042709
           4.3042709    4.3306391    4.3306391    4.3442685    4.3442685
           4.3822598    4.3822598    4.4266585    4.4266585    4.4392981
           4.4392981    4.4561042    4.4561042
       ********************************************************
:GAP (global)   :    0.0    Ry =     0.0   eV (metal)
:GAP (this spin):    0.0    Ry =     0.0   eV (metal)
         Bandranges (emin - emax) and occupancy:
:BAN00018:  18    0.432172    0.636917  1.00000000
:BAN00019:  19    0.541275    0.647931  1.00000000
:BAN00020:  20    0.541275    0.647931  1.00000000
:BAN00021:  21    0.597422    0.665675  1.00000000
:BAN00022:  22    0.597422    0.665675  1.00000000
:BAN00023:  23    0.641879    0.668288  1.00000000
:BAN00024:  24    0.641879    0.668288  1.00000000
:BAN00025:  25    0.653389    0.675883  0.77756022
:BAN00026:  26    0.653389    0.675883  0.77755991
:BAN00027:  27    0.665453    0.676992  0.22244010
:BAN00028:  28    0.665453    0.676992  0.22243976
:BAN00029:  29    0.669892    0.679665  0.00000000
:BAN00030:  30    0.669892    0.679665  0.00000000
:BAN00031:  31    0.673843    0.685525  0.00000000
:BAN00032:  32    0.673843    0.685525  0.00000000
:BAN00033:  33    0.678884    0.691616  0.00000000
        Energy to separate low and high energystates:    0.38217


:NOE  : NUMBER OF ELECTRONS          =   26.000

:FER  : F E R M I - ENERGY(TETRAH.M.)=   0.6687813885
:GMA  : POTENTIAL AND CHARGE CUT-OFF  12.00 Ry**.5

:POS001: ATOM   -1 X,Y,Z = 0.00000 0.89750 0.25000  MULT= 2  ZZ= 59.000  Pr1       

       LMMAX 16
       LM=   0 0  1 0  2 0  2 2  3 0  3 2  4 0  4 2  4 4  5 0  5 2  5 4  6 0  6 2  6 4  6 6

:CHA001: TOTAL VALENCE CHARGE INSIDE SPHERE   1 =   9.5347    (RMT=  2.3000 )
:PCS001: PARTIAL CHARGES SPHERE =  1 S,P,D,F,PX,PY,PZ,D-Z2,D-X2Y2,D-XY,D-XZ,D-YZ 
:QTL001: 1.9414 5.0082 0.5422 2.0426 1.6665 1.6662 1.6756 0.1012 0.0979 0.1177 0.1062 0.1191
        Q-s-low E-s-low   Q-p-low E-p-low   Q-d-low E-d-low   Q-f-low E-f-low
:EPL001:  1.8690 -1.9490    4.9397 -0.6340    0.0023 -0.6306    0.0006 -0.6426
        Q-s-hi  E-s-hi    Q-p-hi  E-p-hi    Q-d-hi  E-d-hi    Q-f-hi  E-f-hi 
:EPH001:  0.0723  0.5703    0.0686  0.6082    0.5399  0.6165    2.0419  0.6546

                      VXX         VYY         VZZ       UP TO R
:VZZ001:             4.18427     3.96767    -8.15195       2.300

:CHA  : TOTAL VALENCE CHARGE INSIDE UNIT CELL =      26.000000

:SUM  : SUM OF EIGENVALUES =          -9.125219096


        1.ATOM      Pr1                  14 CORE STATES
       CORE-FORCE in mRy/a.u. = |F|      Fx             Fy             Fz
:FCO001:   1.ATOM   1404.512526597075      0.000000000000      0.000000000000   1404.512526597075

:1S 001: 1S               -3066.924605611 Ry
:2S 001: 2S                -492.677420604 Ry
:2PP001: 2P*               -465.776533114 Ry
:2P 001: 2P                -430.379049697 Ry
:3S 001: 3S                -105.767862999 Ry
:3PP001: 3P*                -94.305699885 Ry
:3P 001: 3P                 -87.297854904 Ry
:3DD001: 3D*                -67.224836340 Ry
:3D 001: 3D                 -65.713275292 Ry
:4S 001: 4S                 -20.444192883 Ry
:4PP001: 4P*                -16.150921351 Ry
:4P 001: 4P                 -14.623430402 Ry
:4DD001: 4D*                 -7.556190012 Ry
:4D 001: 4D                  -7.286754394 Ry
:CINT001 Core Integral Atom   1   45.998490

       DENSITY AT NUCLEUS
        JATOM        VALENCE       SEMI-CORE          CORE           TOTAL
:RTO001:   1      648.367529        0.000000   656824.785712   657473.153240
     
       CHARGES OF NEW CHARGE DENSITY
:NTO   : INTERSTITIAL CHARGE =     6.930686
:NPC   : PW Pseudocharge     =    16.963717
:NTO001: CHARGE SPHERE  1    =    55.533147

:NEC01: NUCLEAR AND ELECTRONIC CHARGE    118.00000   117.99698
     
       CHARGES OF OLD CHARGE DENSITY
:OTO   : INTERSTITIAL CHARGE =     6.924977
:OPC   : PW Pseudocharge     =    16.946044
:OTO001: CHARGE SPHERE  1    =    55.537512

:NEC02: NUCLEAR AND ELECTRONIC CHARGE    118.00000   118.00000
     
       CONVERGENCE TEST
:DTO001: DIFFERENCE IN SPHERE  1 =  0.0096783

:DIS  :  CHARGE DISTANCE       ( 0.0096783 for atom    1 spin 1)      0.0096783
 PW Mixed is          471
 
******************************************************
* MULTISECANT MIXING VER9 RELEASE 10.4.0              *
* Slow Mode, cautious                                *
* Fixed density scale                                *
* Regularization       1.000E-04                     *
* Step Trust Radius    0.75000                       *
* Trust Upper Limit    2.000E+00                     *
* Max Number of Memory Steps   12                    *
******************************************************
 
:PWTMP   3.5156E+02  1.9467E+02  4.5349E+02
:PLANE:  PW TOTAL      4.7801 DISTAN   8.45E-03  1.77E-01 %
:CHARG:  CLM/ATOM   1381.9514 DISTAN   8.29E-02  6.00E-03 %
 
Step History
        DMIX         DMIXT        Red     Pred      Trust     Lambda    MagRel    MagAbs     Beta
  1   3.5000E-02   3.5000E-02 -1.00E+00  1.00E+00 -1.00E+01  1.00E+00  3.50E-02  3.50E-02  1.00E+00
  2   2.5000E-02   2.5000E-02  6.64E-01  1.00E+00 -1.00E+01  1.00E+00  2.50E-02  6.26E-03  1.00E+00
  3   2.8600E-02   2.8600E-02 -1.00E+00  1.00E+00 -1.00E+01  1.00E+00  2.86E-02  4.75E-03  1.00E+00
:JACOBIANS    3.462E-03   4.789E-02
  
:NORMS:  1/Froebius, Min, Max, Used   0.8251E-01  0.3488E-01  0.8251E-01  0.8251E-01
:INFO :  Number of Memory Steps    2 Skipping    0
:INFO :  SLambda=    1.6774776895  Max    1.6774776895
:PREDicted Charge, CTotal, PW Trust    3.843E-03   7.686E-03   1.384E-02
:PREDicted DMix, Beta, BLim   4.5906E-02  7.7174E-01  2.9632E-01

Eigenvalues, unscaled except for SY+YY
   #     SY Real        SY Imag          SS             YY         SY+YY Real      SY+YY Imag
   1   4.024558E-16   0.000000E+00   1.361582E-02   1.999991E+00   8.804574E-06   0.000000E+00
   2   1.375689E-01   0.000000E+00   1.734723E-18   8.791730E-06   2.230760E+00   0.000000E+00
 
:INFO :  Singular value  2.231E+00 Weight  1.000E+00 Projection -3.863E-03
:INFO :  Singular value  8.805E-06 Weight  1.934E-03 Projection -4.566E-03
:RANK :  ACTIVE   1.00/2  =  50.10 % ; YY RANK   1.00/2  =  50.10 %
 
:DLIM :  Beta Active  8.288E-01
:BLIM :  VZERO Control Off
:TRUST:  Step 3.33E-01  Charge 7.50E-02 (e) CTO  2.50E-01 (e) PW  3.50E-01 (e)
:DIRM :  MEMORY  2/12 SCALE   1.000 RED  0.50 PRED  1.00 NEXT  1.00 BETA  0.83
:TRAVE:  Charge 1.34E-04 (e) CTO  2.69E-04 (e) PW  2.38E-04 (e)
:DIRP :  |MSR1|= 1.908E-04 |PRATT|= 8.454E-03 ANGLE=  32.0 DEGREES
:DIRQ :  |MSR1|= 3.225E-03 |PRATT|= 8.288E-02 ANGLE=   1.5 DEGREES
:DIRT :  |MSR1|= 3.230E-03 |PRATT|= 8.331E-02 ANGLE=   3.8 DEGREES
:MIX  :   MSE1   REGULARIZATION:  2.00E-04 GREED: 0.03760  Newton 1.00  0.0388                
     
       CHARGES OF MIXED CHARGE DENSITY
:CTO   : INTERSTITIAL CHARGE =     6.925245
:CPC   : PW Pseudocharge     =    16.946329
:CTO001: CHARGE SPHERE  1    =    55.537377

:NEC03: NUCLEAR AND ELECTRONIC CHARGE    118.00000   118.00000

PW CHANGE     H    K    L      Current       Change    Residue
:PTO001:      0    0    0  5.26399303E-02  1.223E-06  7.452E-05
:PTO003:      0    2    0  1.44071780E-02  1.966E-07  1.819E-05
:PTO004:     -1    1    0  7.06256018E-02 -2.033E-07  6.285E-05
:PTO005:      0    2   -1 -8.20176421E-02 -3.052E-06 -1.569E-04
:PTO006:      0    0   -2 -4.24699946E-02 -7.258E-07 -5.971E-05
:PTO007:     -1    1   -1 -8.86570633E-02 -2.611E-07 -9.109E-05
:PTO008:      0    2   -2 -1.43826331E-02  4.097E-07 -2.269E-06
:PTO009:     -1    1   -2 -7.39905698E-02 -8.680E-07 -8.177E-05
:PTO011:     -1    3    0 -1.20183046E-02  1.021E-06  1.848E-05
:PTO012:     -1    3   -1 -5.37460734E-02 -2.372E-07 -3.204E-05
:PTO013:      0    4    0 -9.79708348E-03  1.665E-07  1.491E-06
:PTO014:      0    2   -3  2.25280082E-02 -1.382E-07  2.995E-06

:ENE  : ********** TOTAL ENERGY IN Ry =       -36944.24342967

       TOTAL FORCE IN mRy/a.u. = |F|     Fx             Fy             Fz     with/without FOR in case.in2
:FOR001:   1.ATOM         26.554          0.000          0.000        -26.554 partial forces
       TOTAL FORCE WITH RESPECT TO GLOBAL CARTESIAN COORDINATES:
:FCA001:   1.ATOM                         0.000        -26.554          0.000 partial forces
       TOTAL FORCE WITH RESPECT TO THE GLOBAL COORDINATE SYSTEM:
:FGL001:   1.ATOM                 0.000000000   -26.553592413     0.000000000 partial forces
 Flat Integration
 New Mode for Coulomb Integral
 Consistent 3/8+Simpson combinations
 Extension of core to zero
 LDM version in phi
 Fifth-order quadrature in outwin


            ---------
:ITE016: 16. ITERATION
            ---------

:NATO :    1 INDEPENDENT AND    2 TOTAL ATOMS IN UNITCELL
       SUBSTANCE: aU                                                          

       LATTICE                      = CXY 
:POT  : POTENTIAL OPTION EX_LDA EC_LDA VX_LDA VC_LDA
:LAT  : LATTICE CONSTANTS=  6.34235 12.87024 11.11114    1.571    1.571    1.571
:VOL  : UNIT CELL VOLUME =     453.48796
       MODE OF CALCULATION IS       = RELA
       NON-SPINPOLARIZED CALCULATION
:IFFT  : FFT-parameters:   54  100   90 Factor: 2.00


   CONVERGENCE PARAMETER FOR PSEUDOCHARGE: NCON=  9
   MAXIMAL VALUE OF RMT(JATOM)*ABSK(NKK) : RK  =27.59759


:VKCOUL :  VK-COUL convergence: 0.158E-06
       ATOMNUMBER=  1 Pr1        VCOUL-ZERO =  0.11598E+00
:EFG001:                        EFG         =    -8.26316   *10**21  V / m**2
                               V20  TOT/SRF=    -7.15611    -0.02959
                               V22  TOT/SRF=    -0.27946    -0.00049
                               V22M TOT/SRF=     0.00000     0.00000
                               V21  TOT/SRF=     0.00000     0.00000
                               V21M TOT/SRF=     0.00000     0.00000

              3.85212    0.00000    0.00000        3.85212    0.00000    0.00000
              0.00000    4.41104    0.00000        0.00000    4.41104    0.00000
              0.00000    0.00000   -8.26316        0.00000    0.00000   -8.26316

         MAIN DIRECTIONS OF THE EFG   1.0000  0.0000  0.0000
                                      0.0000  1.0000  0.0000
                                      0.0000  0.0000  1.0000
:ANG001:  ANGLE WITH OLD X-AXIS =         0.0

:ETA001:                         ASYMM. ETA =     0.06764


     HELLMANN-FEYNMAN-FORCE IN mRy/a.u. = |F|  Fx       Fy             Fz
:FHF001:   1.ATOM   1430.559596003284      0.000000000000      0.000000000000  -1430.559596003284

:FIT001: LUSE= 13 SIGMA OF V-XC FIT FOR ATOM  1  0.5646683E-04
:FIT001: LUSE= 13 SIGMA OF V-XC FIT FOR ATOM  1  0.5646683E-04
:DEN  : DENSITY INTEGRAL  =        -14154.27181061   (Ry)
       ELS_POTENTIAL_AT Z=0 and Z=0.5:   0.74284   0.74284
       ELS_POTENTIAL_AT Y=0 and Y=0.5:   0.06694   0.06694
:VZERO:v0,v0c,v0x   0.15308   0.74284  -0.58976 v5,v5c,v5x   0.15308   0.74284  -0.58976
:VZERY:v0,v0c,v0x  -0.72214   0.06694  -0.78907 v5,v5c,v5x  -0.72214   0.06694  -0.78907
:VZERX:v0,v0c,v0x  -1.13224  -0.37862  -0.75361 v5,v5c,v5x  -1.13224  -0.37862  -0.75361
:LMAX-WF:   10   Non-Spherical LMAX:   4

          ATOMIC SPHERE DEPENDENT PARAMETERS FOR ATOM  Pr1       
:e__0001: OVERALL ENERGY PARAMETER IS    0.4674
          OVERALL BASIS SET ON ATOM IS LAPW
:E0_0001: E( 0)=    0.4674
             APW+lo
:E0_0001: E( 0)=   -1.9914   E(BOTTOM)=   -2.627   E(TOP)=   -1.355  4  5   178
             LOCAL ORBITAL
:E1_0001: E( 1)=    0.8674
             APW+lo
:E1_0001: E( 1)=   -0.5217   E(BOTTOM)=   -1.480   E(TOP)=    0.437  3  4   195
             LOCAL ORBITAL
:E3_0001: E( 3)=    0.6617   E(BOTTOM)=    0.454   E(TOP)=    0.870  0  1   119
             APW+lo
:E2_0001: E( 2)=    0.4674   E(BOTTOM)=    0.261   E(TOP)= -200.000  2 -1    93
             APW+lo

       K=   0.06250   0.00000   0.06250            1
:RKM  : MATRIX SIZE   431LOs:  40  RKM= 8.49  WEIGHT= 4.00  PGR:    
       EIGENVALUES ARE:
:EIG00001:      -1.9662417   -1.9490521   -0.6997436   -0.6130638   -0.5933141
:EIG00006:      -0.5853648   -0.5772019   -0.5772005    0.4375498    0.5681378
:EIG00011:       0.6664676    0.6684786    0.6687247    0.6713128    0.6760847
:EIG00016:       0.6886386    0.6922530    0.6929137    0.6959195    0.6988791
:EIG00021:       0.7033798    0.7066416    0.7070934    0.7135178    0.7416418
:EIG00026:       0.7563892    0.8389631    0.8505177    0.8851805    0.9128986
:EIG00031:       0.9293867    1.0247064    1.0688354    1.1174862    1.4190659
:EIG00036:       1.4308306    1.5057453    1.5143451    1.6762884    1.7309160
:EIG00041:       1.8103019    1.9101440    1.9957039    2.0118478    2.1229364
:EIG00046:       2.1639389    2.1794495    2.2587819    2.3052537    2.4085720
 
:EIG00051:       2.4580108    2.5129764    2.5326671    2.6151615    2.6500456
:EIG00056:       2.7209440    2.7441924    2.7956880    2.8775138    2.9472201
:EIG00061:       3.0054722    3.0282884    3.1652724    3.2185589    3.2443342
:EIG00066:       3.3496260    3.4048636    3.4497657    3.4628929    3.5017574
:EIG00071:       3.5113113    3.5624744    3.5967122    3.6695158    3.6849520
:EIG00076:       3.7285585    3.7495569    3.7973289    3.8236084    3.8554847
:EIG00081:       3.8662168    3.9120472    3.9287302    4.0180058    4.0293407
:EIG00086:       4.0480478    4.1465506    4.1647805    4.1983279    4.2092584
:EIG00091:       4.2438356    4.2881751    4.3042363    4.3306775    4.3442868
:EIG00096:       4.3821916    4.4267883    4.4391385    4.4558968    4.5299298
 
:EIG00101:       4.6129629    4.7329062    4.7519159    4.8258408    4.8467111
:EIG00106:       4.8502012    4.9081335    4.9378106    4.9645404    4.9947288
:EIG00111:       5.0825417    5.1267253    5.1474774    5.2096387    5.2585355
:EIG00116:       5.3035714    5.3376965    5.3580676    5.4043546    5.4455760
:EIG00121:       5.4601356    5.5192078    5.5869371    5.5954492    5.6536289
:EIG00126:       5.7414421    5.7884426    5.8031714    5.8304377    5.8851015
:EIG00131:       5.9003954    5.9648556    5.9776437    5.9840614    6.0208772
:EIG00136:       6.1075953    6.1229868    6.1843314    6.1868210    6.2223810
:EIG00141:       6.2477562    6.2729790    6.3143050    6.3295427    6.3976009
:EIG00146:       6.4044635    6.4170248    6.4628831    6.4686147    6.5330260
 
:EIG00151:       6.5847757    6.6047930    6.6730860    6.7066114    6.7860961
:EIG00156:       6.8643248    6.9582782    6.9713550    6.9998764    7.0728647
:EIG00161:       7.1332476    7.1691387    7.1978429    7.2329678    7.2378906
:EIG00166:       7.2938299    7.3019758    7.3039167    7.3682884    7.4396883
:EIG00171:       7.4478007    7.4935266    7.5293265    7.5454958    7.6078977
:EIG00176:       7.6186147    7.6611328    7.6727527    7.7277777    7.7523869
:EIG00181:       7.7885101    7.8035633    7.8107760    7.8619651    7.8861708
:EIG00186:       7.8983305    7.9881287    8.0618130    8.0743874    8.0866371
:EIG00191:       8.1053694    8.1333993
       ********************************************************

:KPT   :      NUMBER OF K-POINTS:   288
   0.0   0.0 angle (M,z), angle (M,x) deg
 
        SPIN-ORBIT EIGENVALUES:
     K=   0.06250   0.00000   0.06250            1
      MATRIX SIZE=  384   WEIGHT= 4.00
     EIGENVALUES ARE:
          -1.9662418   -1.9662418   -1.9490522   -1.9490522   -0.7821191
          -0.7821191   -0.7339915   -0.7339915   -0.5950645   -0.5950645
          -0.5237958   -0.5237958   -0.5206682   -0.5206682   -0.5107276
          -0.5107276    0.4375943    0.4375943    0.5680151    0.5680151
           0.6610876    0.6610876    0.6634953    0.6634953    0.6643140
           0.6643140    0.6666411    0.6666411    0.6708089    0.6708089
           0.6764495    0.6764495    0.6901776    0.6901776    0.6980496
           0.6980496    0.7026435    0.7026435    0.7034538    0.7034539

           0.7078221    0.7078221    0.7115351    0.7115351    0.7124055
           0.7124055    0.7183979    0.7183979    0.7427766    0.7427766
           0.7565221    0.7565221    0.8372513    0.8372513    0.8518409
           0.8518409    0.8854524    0.8854524    0.9133275    0.9133275
           0.9294920    0.9294920    1.0245573    1.0245575    1.0691123
           1.0691123    1.1176082    1.1176082    1.4191007    1.4191007
           1.4310260    1.4310260    1.5056869    1.5056869    1.5144314
           1.5144314    1.6759267    1.6759267    1.7303853    1.7303853

           1.8102585    1.8102585    1.9088758    1.9088758    1.9940200
           1.9940200    2.0130024    2.0130024    2.1233216    2.1233216
           2.1637648    2.1637648    2.1779164    2.1779164    2.2586339
           2.2586339    2.3061760    2.3061760    2.4083233    2.4083233
           2.4574412    2.4574412    2.5104163    2.5104163    2.5343389
           2.5343389    2.6152754    2.6152754    2.6513810    2.6513810
           2.7210182    2.7210182    2.7437457    2.7437457    2.7963755
           2.7963755    2.8779191    2.8779191    2.9470216    2.9470216

           3.0053039    3.0053039    3.0325721    3.0325721    3.1651526
           3.1651526    3.2185928    3.2185928    3.2445402    3.2445402
           3.3496355    3.3496355    3.4049018    3.4049018    3.4499974
           3.4499974    3.4624502    3.4624502    3.5019098    3.5019098
           3.5115433    3.5115433    3.5624351    3.5624351    3.5967776
           3.5967776    3.6686000    3.6686000    3.6860034    3.6860034
           3.7287681    3.7287681    3.7512599    3.7512599    3.7974169
           3.7974169    3.8238671    3.8238671    3.8558162    3.8558162

           3.8663217    3.8663217    3.9120778    3.9120778    3.9291127
           3.9291127    4.0179268    4.0179268    4.0296303    4.0296303
           4.0481741    4.0481741    4.1465417    4.1465417    4.1649259
           4.1649259    4.1983474    4.1983474    4.2093311    4.2093311
           4.2438683    4.2438683    4.2882173    4.2882173    4.3042665
           4.3042665    4.3305953    4.3305953    4.3442287    4.3442287
           4.3822531    4.3822531    4.4266487    4.4266487    4.4392806
           4.4392806    4.4560788    4.4560788
       ********************************************************
:GAP (global)   :    0.0    Ry =     0.0   eV (metal)
:GAP (this spin):    0.0    Ry =     0.0   eV (metal)
         Bandranges (emin - emax) and occupancy:
:BAN00018:  18    0.432183    0.636923  1.00000000
:BAN00019:  19    0.541282    0.647925  1.00000000
:BAN00020:  20    0.541282    0.647925  1.00000000
:BAN00021:  21    0.597429    0.665656  1.00000000
:BAN00022:  22    0.597429    0.665656  1.00000000
:BAN00023:  23    0.641875    0.668287  1.00000000
:BAN00024:  24    0.641875    0.668287  1.00000000
:BAN00025:  25    0.653407    0.675868  0.77730183
:BAN00026:  26    0.653407    0.675868  0.77730149
:BAN00027:  27    0.665432    0.676989  0.22269846
:BAN00028:  28    0.665432    0.676989  0.22269821
:BAN00029:  29    0.669879    0.679661  0.00000000
:BAN00030:  30    0.669879    0.679661  0.00000000
:BAN00031:  31    0.673837    0.685547  0.00000000
:BAN00032:  32    0.673837    0.685547  0.00000000
:BAN00033:  33    0.678892    0.691609  0.00000000
        Energy to separate low and high energystates:    0.38218


:NOE  : NUMBER OF ELECTRONS          =   26.000

:FER  : F E R M I - ENERGY(TETRAH.M.)=   0.6687743916
:GMA  : POTENTIAL AND CHARGE CUT-OFF  12.00 Ry**.5

:POS001: ATOM   -1 X,Y,Z = 0.00000 0.89750 0.25000  MULT= 2  ZZ= 59.000  Pr1       

       LMMAX 16
       LM=   0 0  1 0  2 0  2 2  3 0  3 2  4 0  4 2  4 4  5 0  5 2  5 4  6 0  6 2  6 4  6 6

:CHA001: TOTAL VALENCE CHARGE INSIDE SPHERE   1 =   9.5348    (RMT=  2.3000 )
:PCS001: PARTIAL CHARGES SPHERE =  1 S,P,D,F,PX,PY,PZ,D-Z2,D-X2Y2,D-XY,D-XZ,D-YZ 
:QTL001: 1.9414 5.0083 0.5422 2.0427 1.6665 1.6662 1.6756 0.1012 0.0979 0.1177 0.1062 0.1191
        Q-s-low E-s-low   Q-p-low E-p-low   Q-d-low E-d-low   Q-f-low E-f-low
:EPL001:  1.8690 -1.9490    4.9397 -0.6340    0.0023 -0.6307    0.0006 -0.6426
        Q-s-hi  E-s-hi    Q-p-hi  E-p-hi    Q-d-hi  E-d-hi    Q-f-hi  E-f-hi 
:EPH001:  0.0723  0.5703    0.0686  0.6082    0.5399  0.6165    2.0421  0.6546

                      VXX         VYY         VZZ       UP TO R
:VZZ001:             4.07673     4.08663    -8.16337       2.300

:CHA  : TOTAL VALENCE CHARGE INSIDE UNIT CELL =      26.000000

:SUM  : SUM OF EIGENVALUES =          -9.125331026


        1.ATOM      Pr1                  14 CORE STATES
       CORE-FORCE in mRy/a.u. = |F|      Fx             Fy             Fz
:FCO001:   1.ATOM   1403.890210801369      0.000000000000      0.000000000000   1403.890210801369

:1S 001: 1S               -3066.924804779 Ry
:2S 001: 2S                -492.677573029 Ry
:2PP001: 2P*               -465.776695888 Ry
:2P 001: 2P                -430.379208597 Ry
:3S 001: 3S                -105.767928244 Ry
:3PP001: 3P*                -94.305769790 Ry
:3P 001: 3P                 -87.297920326 Ry
:3DD001: 3D*                -67.224914011 Ry
:3D 001: 3D                 -65.713351337 Ry
:4S 001: 4S                 -20.444198498 Ry
:4PP001: 4P*                -16.150927080 Ry
:4P 001: 4P                 -14.623434933 Ry
:4DD001: 4D*                 -7.556194920 Ry
:4D 001: 4D                  -7.286759052 Ry
:CINT001 Core Integral Atom   1   45.998490

       DENSITY AT NUCLEUS
        JATOM        VALENCE       SEMI-CORE          CORE           TOTAL
:RTO001:   1      648.366378        0.000000   656824.805568   657473.171947
     
       CHARGES OF NEW CHARGE DENSITY
:NTO   : INTERSTITIAL CHARGE =     6.930378
:NPC   : PW Pseudocharge     =    16.963706
:NTO001: CHARGE SPHERE  1    =    55.533301

:NEC01: NUCLEAR AND ELECTRONIC CHARGE    118.00000   117.99698
     
       CHARGES OF OLD CHARGE DENSITY
:OTO   : INTERSTITIAL CHARGE =     6.925245
:OPC   : PW Pseudocharge     =    16.946329
:OTO001: CHARGE SPHERE  1    =    55.537377

:NEC02: NUCLEAR AND ELECTRONIC CHARGE    118.00000   118.00000
     
       CONVERGENCE TEST
:DTO001: DIFFERENCE IN SPHERE  1 =  0.0091932

:DIS  :  CHARGE DISTANCE       ( 0.0091932 for atom    1 spin 1)      0.0091932
 PW Mixed is          471
 
******************************************************
* MULTISECANT MIXING VER9 RELEASE 10.4.0              *
* Standard Mode with controls                        *
* Fixed density scale                                *
* Regularization       1.000E-04                     *
* Trust Upper Limit    5.000E+00                     *
* Max Number of Memory Steps    8                    *
******************************************************
 
:PWTMP   3.5156E+02  1.9467E+02  4.5349E+02
:PLANE:  PW TOTAL      4.7802 DISTAN   8.28E-03  1.73E-01 %
:CHARG:  CLM/ATOM   1381.9511 DISTAN   7.86E-02  5.69E-03 %
 
Step History
        DMIX         DMIXT        Red     Pred      Trust     Lambda    MagRel    MagAbs     Beta
  1   3.5000E-02   3.5000E-02 -1.00E+00  1.00E+00 -1.00E+01  1.00E+00  3.50E-02  3.50E-02  1.00E+00
  2   2.5000E-02   2.5000E-02  6.64E-01  1.00E+00 -1.00E+01  1.00E+00  2.50E-02  6.26E-03  1.00E+00
  3   2.8600E-02   2.8600E-02  5.01E-01  1.00E+00 -1.00E+01  1.68E+00  2.86E-02  4.75E-03  1.00E+00
  4   3.7603E-02   3.7603E-02 -1.00E+00  9.99E-01  3.33E-01  1.00E+00  3.88E-02  3.23E-03  8.29E-01
:JACOBIANS    4.599E-03   2.294E-01
  
:NORMS:  1/Froebius, Min, Max, Used   0.3003E+00  0.1390E+00  0.3591E+00  0.3591E+00
:INFO :  Number of Memory Steps    3 Skipping    0
:INFO :  SLambda=    1.2854240710  Max    1.2854240710
:PREDicted Charge, CTotal, PW Trust    1.614E-03   3.228E-03   2.753E-03
:PREDicted DMix, Beta, BLim   3.4366E-01  6.3225E+00  4.0017E-01

Eigenvalues, unscaled except for SY+YY
   #     SY Real        SY Imag          SS             YY         SY+YY Real      SY+YY Imag
   1   8.049117E-16   0.000000E+00   2.585485E-01   2.005067E+00   8.802005E-06   0.000000E+00
   2   1.294165E-01   0.000000E+00   1.200861E-02   9.949241E-01   2.208021E+00   0.000000E+00
   3   3.598223E-01   0.000000E+00   6.038555E-19   8.766701E-06   1.420849E+00   0.000000E+00
 
:INFO :  Singular value  2.208E+00 Weight  1.000E+00 Projection -1.420E-02
:INFO :  Singular value  1.421E+00 Weight  1.000E+00 Projection -6.885E-02
:INFO :  Singular value  8.802E-06 Weight  1.923E-03 Projection -7.760E-03
:RANK :  ACTIVE   2.00/3  =  66.73 % ; YY RANK   2.00/3  =  66.73 %
 
:BLIM :  VZERO Control Off
:TRUST:  Step 4.17E-01  Charge 7.50E-02 (e) CTO  2.50E-01 (e) PW  3.50E-01 (e)
:DTRUS:  Lambda    6.492E-02 Increment    3.638E-12 Iterations   100 DMIX    9.153E-02
:INFOA:  Angle SubSpace to MSR1      1.14
:DIRM :  MEMORY  3/8  SCALE   1.000 RED  0.95 PRED  1.00 NEXT  0.77 
:INFO :  Limited by Atoms F by Step T

:TRAVE:  Charge 7.48E-04 (e) CTO  1.50E-03 (e) PW  1.64E-03 (e)
:DIRP :  |MSR1|= 2.186E-03 |PRATT|= 8.279E-03 ANGLE=  23.7 DEGREES
:DIRQ :  |MSR1|= 3.286E-02 |PRATT|= 7.861E-02 ANGLE=   5.7 DEGREES
:DIRT :  |MSR1|= 3.294E-02 |PRATT|= 7.905E-02 ANGLE=   6.4 DEGREES
:MIX  :   MSE1   REGULARIZATION:  2.01E-04 GREED: 0.09401  LMStep 0.85  0.4167 Step           
     
       CHARGES OF MIXED CHARGE DENSITY
:CTO   : INTERSTITIAL CHARGE =     6.927971
:CPC   : PW Pseudocharge     =    16.950692
:CTO001: CHARGE SPHERE  1    =    55.536015

:NEC03: NUCLEAR AND ELECTRONIC CHARGE    118.00000   118.00000

PW CHANGE     H    K    L      Current       Change    Residue
:PTO001:      0    0    0  5.26555607E-02  1.563E-05  7.260E-05
:PTO003:      0    2    0  1.44118365E-02  4.658E-06  1.948E-05
:PTO004:     -1    1    0  7.06333260E-02  7.724E-06  6.728E-05
:PTO005:      0    2   -1 -8.20537024E-02 -3.606E-05 -1.521E-04
:PTO006:      0    0   -2 -4.24786712E-02 -8.677E-06 -5.710E-05
:PTO007:     -1    1   -1 -8.86684849E-02 -1.142E-05 -9.292E-05
:PTO008:      0    2   -2 -1.43787616E-02  3.872E-06 -2.165E-06
:PTO009:     -1    1   -2 -7.40032418E-02 -1.267E-05 -8.005E-05
:PTO011:     -1    3    0 -1.20072812E-02  1.102E-05  1.832E-05
:PTO012:     -1    3   -1 -5.37518049E-02 -5.731E-06 -3.298E-05
:PTO013:      0    4    0 -9.79514175E-03  1.942E-06  1.687E-06
:PTO014:      0    2   -3  2.25248977E-02 -3.111E-06  1.160E-06

:ENE  : ********** TOTAL ENERGY IN Ry =       -36944.24343783

       TOTAL FORCE IN mRy/a.u. = |F|     Fx             Fy             Fz     with/without FOR in case.in2
:FOR001:   1.ATOM         26.669          0.000          0.000        -26.669 partial forces
       TOTAL FORCE WITH RESPECT TO GLOBAL CARTESIAN COORDINATES:
:FCA001:   1.ATOM                         0.000        -26.669          0.000 partial forces
       TOTAL FORCE WITH RESPECT TO THE GLOBAL COORDINATE SYSTEM:
:FGL001:   1.ATOM                 0.000000000   -26.669385202     0.000000000 partial forces
 Flat Integration
 New Mode for Coulomb Integral
 Consistent 3/8+Simpson combinations
 Extension of core to zero
 LDM version in phi
 Fifth-order quadrature in outwin


            ---------
:ITE017: 17. ITERATION
            ---------

:NATO :    1 INDEPENDENT AND    2 TOTAL ATOMS IN UNITCELL
       SUBSTANCE: aU                                                          

       LATTICE                      = CXY 
:POT  : POTENTIAL OPTION EX_LDA EC_LDA VX_LDA VC_LDA
:LAT  : LATTICE CONSTANTS=  6.34235 12.87024 11.11114    1.571    1.571    1.571
:VOL  : UNIT CELL VOLUME =     453.48796
       MODE OF CALCULATION IS       = RELA
       NON-SPINPOLARIZED CALCULATION
:IFFT  : FFT-parameters:   54  100   90 Factor: 2.00


   CONVERGENCE PARAMETER FOR PSEUDOCHARGE: NCON=  9
   MAXIMAL VALUE OF RMT(JATOM)*ABSK(NKK) : RK  =27.59759


:VKCOUL :  VK-COUL convergence: 0.152E-06
       ATOMNUMBER=  1 Pr1        VCOUL-ZERO =  0.11601E+00
:EFG001:                        EFG         =    -8.23899   *10**21  V / m**2
                               V20  TOT/SRF=    -7.13518    -0.02920
                               V22  TOT/SRF=    -0.23875    -0.00011
                               V22M TOT/SRF=     0.00000     0.00000
                               V21  TOT/SRF=     0.00000     0.00000
                               V21M TOT/SRF=     0.00000     0.00000

              3.88075    0.00000    0.00000        3.88075    0.00000    0.00000
              0.00000    4.35824    0.00000        0.00000    4.35824    0.00000
              0.00000    0.00000   -8.23899        0.00000    0.00000   -8.23899

         MAIN DIRECTIONS OF THE EFG   1.0000  0.0000  0.0000
                                      0.0000  1.0000  0.0000
                                      0.0000  0.0000  1.0000
:ANG001:  ANGLE WITH OLD X-AXIS =         0.0

:ETA001:                         ASYMM. ETA =     0.05796


     HELLMANN-FEYNMAN-FORCE IN mRy/a.u. = |F|  Fx       Fy             Fz
:FHF001:   1.ATOM   1424.364055774154      0.000000000000      0.000000000000  -1424.364055774154

:FIT001: LUSE= 13 SIGMA OF V-XC FIT FOR ATOM  1  0.5280178E-04
:FIT001: LUSE= 13 SIGMA OF V-XC FIT FOR ATOM  1  0.5280178E-04
:DEN  : DENSITY INTEGRAL  =        -14154.21729074   (Ry)
       ELS_POTENTIAL_AT Z=0 and Z=0.5:   0.74313   0.74313
       ELS_POTENTIAL_AT Y=0 and Y=0.5:   0.06702   0.06702
:VZERO:v0,v0c,v0x   0.15325   0.74313  -0.58988 v5,v5c,v5x   0.15325   0.74313  -0.58988
:VZERY:v0,v0c,v0x  -0.72220   0.06702  -0.78922 v5,v5c,v5x  -0.72220   0.06702  -0.78922
:VZERX:v0,v0c,v0x  -1.13247  -0.37875  -0.75372 v5,v5c,v5x  -1.13247  -0.37875  -0.75372
:LMAX-WF:   10   Non-Spherical LMAX:   4

          ATOMIC SPHERE DEPENDENT PARAMETERS FOR ATOM  Pr1       
:e__0001: OVERALL ENERGY PARAMETER IS    0.4683
          OVERALL BASIS SET ON ATOM IS LAPW
:E0_0001: E( 0)=    0.4683
             APW+lo
:E0_0001: E( 0)=   -1.9915   E(BOTTOM)=   -2.627   E(TOP)=   -1.356  4  5   180
             LOCAL ORBITAL
:E1_0001: E( 1)=    0.8683
             APW+lo
:E1_0001: E( 1)=   -0.5218   E(BOTTOM)=   -1.480   E(TOP)=    0.436  3  4   190
             LOCAL ORBITAL
:E3_0001: E( 3)=    0.6618   E(BOTTOM)=    0.454   E(TOP)=    0.870  0  1   116
             APW+lo
:E2_0001: E( 2)=    0.4683   E(BOTTOM)=    0.260   E(TOP)= -200.000  2 -1    87
             APW+lo

       K=   0.06250   0.00000   0.06250            1
:RKM  : MATRIX SIZE   431LOs:  40  RKM= 8.49  WEIGHT= 4.00  PGR:    
       EIGENVALUES ARE:
:EIG00001:      -1.9662929   -1.9491039   -0.6998375   -0.6130969   -0.5933474
:EIG00006:      -0.5853481   -0.5773135   -0.5771844    0.4376914    0.5682025
:EIG00011:       0.6665389    0.6683982    0.6687976    0.6713783    0.6760709
:EIG00016:       0.6887083    0.6922921    0.6929540    0.6959478    0.6988671
:EIG00021:       0.7034290    0.7067681    0.7071938    0.7134545    0.7417036
:EIG00026:       0.7565055    0.8390026    0.8505427    0.8852248    0.9129574
:EIG00031:       0.9294389    1.0247768    1.0688782    1.1174664    1.4192378
:EIG00036:       1.4308830    1.5058580    1.5144860    1.6764923    1.7310847
:EIG00041:       1.8103909    1.9102683    1.9958384    2.0119628    2.1230089
:EIG00046:       2.1640542    2.1795980    2.2588974    2.3053905    2.4086807
 
:EIG00051:       2.4580795    2.5130202    2.5327401    2.6152385    2.6501088
:EIG00056:       2.7210298    2.7442642    2.7957240    2.8776163    2.9472841
:EIG00061:       3.0055649    3.0283349    3.1653630    3.2186585    3.2444208
:EIG00066:       3.3497100    3.4049428    3.4498790    3.4630062    3.5018740
:EIG00071:       3.5114274    3.5625735    3.5968257    3.6696164    3.6850908
:EIG00076:       3.7286635    3.7497185    3.7974249    3.8237313    3.8555855
:EIG00081:       3.8663324    3.9121704    3.9288405    4.0181144    4.0294274
:EIG00086:       4.0481754    4.1467170    4.1649178    4.1984505    4.2093538
:EIG00091:       4.2439544    4.2882607    4.3043558    4.3307573    4.3444049
:EIG00096:       4.3823241    4.4268803    4.4392356    4.4560016    4.5300423
 
:EIG00101:       4.6130383    4.7330148    4.7519894    4.8259355    4.8468355
:EIG00106:       4.8503338    4.9082547    4.9379170    4.9646341    4.9948421
:EIG00111:       5.0826686    5.1268663    5.1475482    5.2097304    5.2586481
:EIG00116:       5.3036430    5.3378056    5.3581578    5.4044265    5.4456383
:EIG00121:       5.4601976    5.5193228    5.5870290    5.5955652    5.6537091
:EIG00126:       5.7415527    5.7885430    5.8032311    5.8305086    5.8852034
:EIG00131:       5.9004878    5.9649589    5.9777191    5.9841606    6.0209670
:EIG00136:       6.1076949    6.1231130    6.1844396    6.1869247    6.2224784
:EIG00141:       6.2478311    6.2730205    6.3144011    6.3296554    6.3977148
:EIG00146:       6.4045892    6.4171060    6.4629587    6.4686121    6.5331275
 
:EIG00151:       6.5848997    6.6048757    6.6732029    6.7067121    6.7861901
:EIG00156:       6.8644184    6.9583806    6.9714514    6.9999512    7.0729640
:EIG00161:       7.1333355    7.1692096    7.1979432    7.2330295    7.2379789
:EIG00166:       7.2939157    7.3020563    7.3040035    7.3683737    7.4397653
:EIG00171:       7.4478753    7.4935985    7.5293669    7.5455464    7.6079322
:EIG00176:       7.6186554    7.6611952    7.6728141    7.7278375    7.7524772
:EIG00181:       7.7886060    7.8036313    7.8108933    7.8620151    7.8862690
:EIG00186:       7.8984229    7.9881847    8.0619145    8.0744580    8.0867221
:EIG00191:       8.1054616    8.1335118
       ********************************************************

:KPT   :      NUMBER OF K-POINTS:   288
   0.0   0.0 angle (M,z), angle (M,x) deg
 
        SPIN-ORBIT EIGENVALUES:
     K=   0.06250   0.00000   0.06250            1
      MATRIX SIZE=  384   WEIGHT= 4.00
     EIGENVALUES ARE:
          -1.9662931   -1.9662931   -1.9491040   -1.9491040   -0.7821832
          -0.7821832   -0.7340370   -0.7340370   -0.5951105   -0.5951105
          -0.5237997   -0.5237997   -0.5206822   -0.5206822   -0.5107929
          -0.5107929    0.4377358    0.4377358    0.5680797    0.5680797
           0.6611382    0.6611382    0.6634717    0.6634717    0.6643814
           0.6643814    0.6666745    0.6666745    0.6708161    0.6708161
           0.6764923    0.6764923    0.6901932    0.6901933    0.6981160
           0.6981160    0.7026848    0.7026848    0.7034724    0.7034724

           0.7078676    0.7078677    0.7116321    0.7116321    0.7124797
           0.7124797    0.7183568    0.7183568    0.7428383    0.7428383
           0.7566377    0.7566377    0.8372835    0.8372835    0.8518725
           0.8518725    0.8854961    0.8854961    0.9133862    0.9133862
           0.9295443    0.9295443    1.0246274    1.0246275    1.0691554
           1.0691554    1.1175887    1.1175887    1.4192703    1.4192703
           1.4310806    1.4310806    1.5058003    1.5058003    1.5145717
           1.5145717    1.6761305    1.6761305    1.7305539    1.7305539

           1.8103477    1.8103477    1.9089998    1.9089998    1.9941515
           1.9941515    2.0131198    2.0131198    2.1233945    2.1233945
           2.1638803    2.1638803    2.1780634    2.1780634    2.2587508
           2.2587508    2.3063114    2.3063114    2.4084309    2.4084309
           2.4575113    2.4575113    2.5104658    2.5104658    2.5344076
           2.5344076    2.6153525    2.6153525    2.6514442    2.6514442
           2.7211036    2.7211036    2.7438175    2.7438175    2.7964117
           2.7964117    2.8780216    2.8780216    2.9470850    2.9470850

           3.0053961    3.0053961    3.0326196    3.0326196    3.1652432
           3.1652432    3.2186923    3.2186923    3.2446268    3.2446268
           3.3497195    3.3497195    3.4049811    3.4049811    3.4501107
           3.4501107    3.4625634    3.4625634    3.5020262    3.5020262
           3.5116593    3.5116593    3.5625343    3.5625343    3.5968912
           3.5968912    3.6687028    3.6687028    3.6861395    3.6861395
           3.7288732    3.7288732    3.7514213    3.7514213    3.7975130
           3.7975130    3.8239899    3.8239899    3.8559172    3.8559172

           3.8664374    3.8664374    3.9122010    3.9122010    3.9292229
           3.9292229    4.0180350    4.0180350    4.0297176    4.0297176
           4.0483017    4.0483017    4.1467081    4.1467081    4.1650632
           4.1650632    4.1984701    4.1984701    4.2094265    4.2094265
           4.2439871    4.2439871    4.2883028    4.2883028    4.3043860
           4.3043860    4.3306756    4.3306756    4.3443464    4.3443464
           4.3823856    4.3823856    4.4267407    4.4267407    4.4393778
           4.4393778    4.4561832    4.4561832
       ********************************************************
:GAP (global)   :    0.0    Ry =     0.0   eV (metal)
:GAP (this spin):    0.0    Ry =     0.0   eV (metal)
         Bandranges (emin - emax) and occupancy:
:BAN00018:  18    0.432327    0.637023  1.00000000
:BAN00019:  19    0.541391    0.647968  1.00000000
:BAN00020:  20    0.541391    0.647968  1.00000000
:BAN00021:  21    0.597517    0.665646  1.00000000
:BAN00022:  22    0.597517    0.665646  1.00000000
:BAN00023:  23    0.641917    0.668327  1.00000000
[...]
:FOR001:   1.ATOM         27.756          0.000          0.000        -27.756 partial forces
       TOTAL FORCE WITH RESPECT TO GLOBAL CARTESIAN COORDINATES:
:FCA001:   1.ATOM                         0.000        -27.756          0.000 partial forces
       TOTAL FORCE WITH RESPECT TO THE GLOBAL COORDINATE SYSTEM:
:FGL001:   1.ATOM                 0.000000000   -27.755746720     0.000000000 partial forces
 Flat Integration
 New Mode for Coulomb Integral
 Consistent 3/8+Simpson combinations
 Extension of core to zero
 LDM version in phi
 Fifth-order quadrature in outwin


            ---------
:ITE023: 23. ITERATION
            ---------

:NATO :    1 INDEPENDENT AND    2 TOTAL ATOMS IN UNITCELL
       SUBSTANCE: aU                                                          

       LATTICE                      = CXY 
:POT  : POTENTIAL OPTION EX_LDA EC_LDA VX_LDA VC_LDA
:LAT  : LATTICE CONSTANTS=  6.34235 12.87024 11.11114    1.571    1.571    1.571
:VOL  : UNIT CELL VOLUME =     453.48796
       MODE OF CALCULATION IS       = RELA
       NON-SPINPOLARIZED CALCULATION
:IFFT  : FFT-parameters:   54  100   90 Factor: 2.00


   CONVERGENCE PARAMETER FOR PSEUDOCHARGE: NCON=  9
   MAXIMAL VALUE OF RMT(JATOM)*ABSK(NKK) : RK  =27.59759


:VKCOUL :  VK-COUL convergence: 0.143E-06
       ATOMNUMBER=  1 Pr1        VCOUL-ZERO =  0.11636E+00
:EFG001:                        EFG         =    -8.13961   *10**21  V / m**2
                               V20  TOT/SRF=    -7.04911    -0.02879
                               V22  TOT/SRF=    -0.22674    -0.00005
                               V22M TOT/SRF=     0.00000     0.00000
                               V21  TOT/SRF=     0.00000     0.00000
                               V21M TOT/SRF=     0.00000     0.00000

              3.84307    0.00000    0.00000        3.84307    0.00000    0.00000
              0.00000    4.29654    0.00000        0.00000    4.29654    0.00000
              0.00000    0.00000   -8.13961        0.00000    0.00000   -8.13961

         MAIN DIRECTIONS OF THE EFG   1.0000  0.0000  0.0000
                                      0.0000  1.0000  0.0000
                                      0.0000  0.0000  1.0000
:ANG001:  ANGLE WITH OLD X-AXIS =         0.0

:ETA001:                         ASYMM. ETA =     0.05571


     HELLMANN-FEYNMAN-FORCE IN mRy/a.u. = |F|  Fx       Fy             Fz
:FHF001:   1.ATOM   1417.870237845974      0.000000000000      0.000000000000  -1417.870237845974

:FIT001: LUSE= 13 SIGMA OF V-XC FIT FOR ATOM  1  0.4815076E-04
:FIT001: LUSE= 13 SIGMA OF V-XC FIT FOR ATOM  1  0.4815076E-04
:DEN  : DENSITY INTEGRAL  =        -14154.22000229   (Ry)
       ELS_POTENTIAL_AT Z=0 and Z=0.5:   0.74374   0.74374
       ELS_POTENTIAL_AT Y=0 and Y=0.5:   0.06733   0.06733
:VZERO:v0,v0c,v0x   0.15374   0.74374  -0.59000 v5,v5c,v5x   0.15374   0.74374  -0.59000
:VZERY:v0,v0c,v0x  -0.72219   0.06733  -0.78952 v5,v5c,v5x  -0.72219   0.06733  -0.78952
:VZERX:v0,v0c,v0x  -1.13306  -0.37915  -0.75392 v5,v5c,v5x  -1.13306  -0.37915  -0.75392
:LMAX-WF:   10   Non-Spherical LMAX:   4

          ATOMIC SPHERE DEPENDENT PARAMETERS FOR ATOM  Pr1       
:e__0001: OVERALL ENERGY PARAMETER IS    0.4692
          OVERALL BASIS SET ON ATOM IS LAPW
:E0_0001: E( 0)=    0.4692
             APW+lo
:E0_0001: E( 0)=   -1.9912   E(BOTTOM)=   -2.627   E(TOP)=   -1.355  4  5   181
             LOCAL ORBITAL
:E1_0001: E( 1)=    0.8692
             APW+lo
:E1_0001: E( 1)=   -0.5215   E(BOTTOM)=   -1.480   E(TOP)=    0.437  3  4   193
             LOCAL ORBITAL
:E3_0001: E( 3)=    0.6622   E(BOTTOM)=    0.454   E(TOP)=    0.870  0  1   115
             APW+lo
:E2_0001: E( 2)=    0.4692   E(BOTTOM)=    0.261   E(TOP)= -200.000  2 -1    87
             APW+lo

       K=   0.06250   0.00000   0.06250            1
:RKM  : MATRIX SIZE   431LOs:  40  RKM= 8.49  WEIGHT= 4.00  PGR:    
       EIGENVALUES ARE:
:EIG00001:      -1.9660013   -1.9488145   -0.6995045   -0.6128115   -0.5930632
:EIG00006:      -0.5850755   -0.5769947   -0.5769142    0.4381370    0.5685938
:EIG00011:       0.6669023    0.6687903    0.6691909    0.6717777    0.6764960
:EIG00016:       0.6891281    0.6926993    0.6933714    0.6963674    0.6992519
:EIG00021:       0.7038421    0.7071492    0.7075881    0.7138885    0.7420722
:EIG00026:       0.7568828    0.8393958    0.8508914    0.8856115    0.9133133
:EIG00031:       0.9297793    1.0251761    1.0692507    1.1178080    1.4196943
:EIG00036:       1.4312683    1.5062919    1.5149239    1.6769907    1.7315811
:EIG00041:       1.8108034    1.9107098    1.9962673    2.0123982    2.1234185
:EIG00046:       2.1644745    2.1800623    2.2593134    2.3058437    2.4090976
 
:EIG00051:       2.4584478    2.5134072    2.5331140    2.6156483    2.6504603
:EIG00056:       2.7214105    2.7446453    2.7960732    2.8780129    2.9476629
:EIG00061:       3.0059758    3.0287163    3.1657529    3.2190908    3.2448217
:EIG00066:       3.3501105    3.4053622    3.4502800    3.4634088    3.5023106
:EIG00071:       3.5118374    3.5629668    3.5972341    3.6700281    3.6855228
:EIG00076:       3.7290679    3.7501814    3.7978314    3.8241583    3.8559772
:EIG00081:       3.8667605    3.9125792    3.9292535    4.0185317    4.0298236
:EIG00086:       4.0486028    4.1471900    4.1653465    4.1988908    4.2097514
:EIG00091:       4.2443881    4.2886701    4.3047816    4.3311457    4.3448300
:EIG00096:       4.3827713    4.4272930    4.4396499    4.4564136    4.5304589
 
:EIG00101:       4.6134472    4.7334329    4.7523960    4.8263440    4.8472682
:EIG00106:       4.8507703    4.9086789    4.9383251    4.9650430    4.9952611
:EIG00111:       5.0831121    5.1273084    5.1479490    5.2101278    5.2590634
:EIG00116:       5.3040364    5.3382265    5.3585662    5.4048135    5.4460179
:EIG00121:       5.4605908    5.5197612    5.5874446    5.5959973    5.6541061
:EIG00126:       5.7419775    5.7889617    5.8036269    5.8309081    5.8856183
:EIG00131:       5.9008976    5.9653783    5.9781223    5.9845809    6.0213577
:EIG00136:       6.1081084    6.1235473    6.1848631    6.1873286    6.2228886
:EIG00141:       6.2482228    6.2733790    6.3148108    6.3300665    6.3981342
:EIG00146:       6.4050203    6.4175073    6.4633645    6.4689404    6.5335386
 
:EIG00151:       6.5853244    6.6052761    6.6736296    6.7071355    6.7866046
:EIG00156:       6.8648218    6.9587889    6.9718690    7.0003576    7.0733625
:EIG00161:       7.1337330    7.1695854    7.1983592    7.2333991    7.2383925
:EIG00166:       7.2943191    7.3024500    7.3044067    7.3687825    7.4401514
:EIG00171:       7.4482727    7.4939777    7.5297434    7.5459033    7.6083034
:EIG00176:       7.6190158    7.6615703    7.6731992    7.7282258    7.7528832
:EIG00181:       7.7890247    7.8040227    7.8113297    7.8623979    7.8866889
:EIG00186:       7.8988331    7.9885730    8.0623285    8.0748526    8.0871243
:EIG00191:       8.1058690    8.1339418
       ********************************************************

:KPT   :      NUMBER OF K-POINTS:   288
   0.0   0.0 angle (M,z), angle (M,x) deg
 
        SPIN-ORBIT EIGENVALUES:
     K=   0.06250   0.00000   0.06250            1
      MATRIX SIZE=  384   WEIGHT= 4.00
     EIGENVALUES ARE:
          -1.9660015   -1.9660015   -1.9488147   -1.9488147   -0.7818760
          -0.7818760   -0.7337477   -0.7337477   -0.5948061   -0.5948061
          -0.5235211   -0.5235211   -0.5204009   -0.5204009   -0.5104892
          -0.5104892    0.4381815    0.4381815    0.5684710    0.5684710
           0.6615197    0.6615197    0.6638627    0.6638627    0.6647618
           0.6647618    0.6670820    0.6670820    0.6712346    0.6712346
           0.6769126    0.6769126    0.6905949    0.6905949    0.6985198
           0.6985198    0.7030975    0.7030975    0.7038744    0.7038744

           0.7082760    0.7082761    0.7120202    0.7120202    0.7128783
           0.7128783    0.7187850    0.7187850    0.7432083    0.7432083
           0.7570150    0.7570150    0.8376677    0.8376677    0.8522306
           0.8522306    0.8858820    0.8858820    0.9137418    0.9137418
           0.9298851    0.9298851    1.0250263    1.0250264    1.0695280
           1.0695280    1.1179305    1.1179305    1.4197254    1.4197254
           1.4314674    1.4314674    1.5062345    1.5062345    1.5150093
           1.5150093    1.6766288    1.6766288    1.7310500    1.7310500

           1.8107606    1.8107606    1.9094410    1.9094410    1.9945807
           1.9945807    2.0135546    2.0135546    2.1238044    2.1238044
           2.1643010    2.1643010    2.1785257    2.1785257    2.2591691
           2.2591691    2.3067633    2.3067633    2.4088470    2.4088470
           2.4578810    2.4578810    2.5108519    2.5108519    2.5347831
           2.5347831    2.6157622    2.6157622    2.6517961    2.6517961
           2.7214844    2.7214844    2.7441986    2.7441986    2.7967612
           2.7967612    2.8784182    2.8784182    2.9474637    2.9474637

           3.0058066    3.0058066    3.0330009    3.0330009    3.1656331
           3.1656331    3.2191247    3.2191247    3.2450278    3.2450278
           3.3501201    3.3501201    3.4054005    3.4054005    3.4505119
           3.4505119    3.4629664    3.4629664    3.5024625    3.5024625
           3.5120693    3.5120693    3.5629276    3.5629276    3.5972996
           3.5972996    3.6691159    3.6691159    3.6865699    3.6865699
           3.7292777    3.7292777    3.7518837    3.7518837    3.7979196
           3.7979196    3.8244167    3.8244167    3.8563092    3.8563092

           3.8668655    3.8668655    3.9126098    3.9126098    3.9296358
           3.9296358    4.0184519    4.0184519    4.0301142    4.0301142
           4.0487290    4.0487290    4.1471811    4.1471811    4.1654919
           4.1654919    4.1989103    4.1989103    4.2098242    4.2098242
           4.2444208    4.2444208    4.2887122    4.2887122    4.3048118
           4.3048118    4.3310644    4.3310644    4.3447710    4.3447710
           4.3828328    4.3828328    4.4271533    4.4271533    4.4397924
           4.4397924    4.4565951    4.4565951
       ********************************************************
:GAP (global)   :    0.0    Ry =     0.0   eV (metal)
:GAP (this spin):    0.0    Ry =     0.0   eV (metal)
         Bandranges (emin - emax) and occupancy:
:BAN00018:  18    0.432775    0.637450  1.00000000
:BAN00019:  19    0.541811    0.648375  1.00000000
:BAN00020:  20    0.541811    0.648375  1.00000000
:BAN00021:  21    0.597908    0.666063  1.00000000
:BAN00022:  22    0.597908    0.666063  1.00000000
:BAN00023:  23    0.642314    0.668735  1.00000000
:BAN00024:  24    0.642314    0.668735  1.00000000
:BAN00025:  25    0.653881    0.676239  0.77707367
:BAN00026:  26    0.653881    0.676239  0.77707333
:BAN00027:  27    0.665813    0.677393  0.22292662
:BAN00028:  28    0.665813    0.677393  0.22292638
:BAN00029:  29    0.670289    0.680103  0.00000000
:BAN00030:  30    0.670289    0.680103  0.00000000
:BAN00031:  31    0.674279    0.686043  0.00000000
:BAN00032:  32    0.674279    0.686043  0.00000000
:BAN00033:  33    0.679348    0.692047  0.00000000
        Energy to separate low and high energystates:    0.38277


:NOE  : NUMBER OF ELECTRONS          =   26.000

:FER  : F E R M I - ENERGY(TETRAH.M.)=   0.6691980766
:GMA  : POTENTIAL AND CHARGE CUT-OFF  12.00 Ry**.5

:POS001: ATOM   -1 X,Y,Z = 0.00000 0.89750 0.25000  MULT= 2  ZZ= 59.000  Pr1       

       LMMAX 16
       LM=   0 0  1 0  2 0  2 2  3 0  3 2  4 0  4 2  4 4  5 0  5 2  5 4  6 0  6 2  6 4  6 6

:CHA001: TOTAL VALENCE CHARGE INSIDE SPHERE   1 =   9.5360    (RMT=  2.3000 )
:PCS001: PARTIAL CHARGES SPHERE =  1 S,P,D,F,PX,PY,PZ,D-Z2,D-X2Y2,D-XY,D-XZ,D-YZ 
:QTL001: 1.9414 5.0084 0.5422 2.0437 1.6666 1.6662 1.6756 0.1012 0.0980 0.1176 0.1063 0.1191
        Q-s-low E-s-low   Q-p-low E-p-low   Q-d-low E-d-low   Q-f-low E-f-low
:EPL001:  1.8690 -1.9488    4.9399 -0.6338    0.0023 -0.6304    0.0006 -0.6425
        Q-s-hi  E-s-hi    Q-p-hi  E-p-hi    Q-d-hi  E-d-hi    Q-f-hi  E-f-hi 
:EPH001:  0.0723  0.5709    0.0684  0.6087    0.5400  0.6170    2.0431  0.6550

                      VXX         VYY         VZZ       UP TO R
:VZZ001:             3.82475     4.28108    -8.10583       2.300

:CHA  : TOTAL VALENCE CHARGE INSIDE UNIT CELL =      26.000000

:SUM  : SUM OF EIGENVALUES =          -9.116455613


        1.ATOM      Pr1                  14 CORE STATES
       CORE-FORCE in mRy/a.u. = |F|      Fx             Fy             Fz
:FCO001:   1.ATOM   1390.132134836198      0.000000000000      0.000000000000   1390.132134836198

:1S 001: 1S               -3066.927782870 Ry
:2S 001: 2S                -492.679764915 Ry
:2PP001: 2P*               -465.779063512 Ry
:2P 001: 2P                -430.381510416 Ry
:3S 001: 3S                -105.768588211 Ry
:3PP001: 3P*                -94.306512430 Ry
:3P 001: 3P                 -87.298582563 Ry
:3DD001: 3D*                -67.225796637 Ry
:3D 001: 3D                 -65.714205026 Ry
:4S 001: 4S                 -20.443756098 Ry
:4PP001: 4P*                -16.150488565 Ry
:4P 001: 4P                 -14.622976144 Ry
:4DD001: 4D*                 -7.555751787 Ry
:4D 001: 4D                  -7.286312451 Ry
:CINT001 Core Integral Atom   1   45.998490

       DENSITY AT NUCLEUS
        JATOM        VALENCE       SEMI-CORE          CORE           TOTAL
:RTO001:   1      648.352098        0.000000   656825.152727   657473.504825
     
       CHARGES OF NEW CHARGE DENSITY
:NTO   : INTERSTITIAL CHARGE =     6.927996
:NPC   : PW Pseudocharge     =    16.964545
:NTO001: CHARGE SPHERE  1    =    55.534492

:NEC01: NUCLEAR AND ELECTRONIC CHARGE    118.00000   117.99698
     
       CHARGES OF OLD CHARGE DENSITY
:OTO   : INTERSTITIAL CHARGE =     6.931015
:OPC   : PW Pseudocharge     =    16.971898
:OTO001: CHARGE SPHERE  1    =    55.534492

:NEC02: NUCLEAR AND ELECTRONIC CHARGE    118.00000   118.00000
     
       CONVERGENCE TEST
:DTO001: DIFFERENCE IN SPHERE  1 =  0.0000180

:DIS  :  CHARGE DISTANCE       ( 0.0000180 for atom    1 spin 1)      0.0000180
 PW Mixed is          471
 
******************************************************
* MULTISECANT MIXING VER9 RELEASE 10.4.0              *
* Standard Mode with controls                        *
* Fixed density scale                                *
* Regularization       1.000E-04                     *
* Trust Upper Limit    5.000E+00                     *
* Max Number of Memory Steps    8                    *
******************************************************
 
:PWTMP   3.5156E+02  1.9467E+02  4.5349E+02
:PLANE:  PW TOTAL      4.7863 DISTAN   1.28E-05  2.67E-04 %
:CHARG:  CLM/ATOM   1381.9471 DISTAN   3.20E-05  2.32E-06 %
 
Step History
        DMIX         DMIXT        Red     Pred      Trust     Lambda    MagRel    MagAbs     Beta
  3   2.8600E-02   2.8600E-02  5.01E-01  1.00E+00 -1.00E+01  1.68E+00  2.86E-02  4.75E-03  1.00E+00
  4   3.7603E-02   3.7603E-02  9.49E-01  9.99E-01  3.33E-01  1.29E+00  3.88E-02  3.23E-03  8.29E-01
  5   9.4007E-02   9.1533E-02  5.58E-01  7.71E-01  4.17E-01  1.02E+00  4.17E-01  3.29E-02  1.00E+00
  6   2.3502E-01   2.1353E-01  3.43E-01  3.88E-01  6.56E-01  9.69E-01  6.56E-01  2.89E-02  1.00E+00
  7   1.4714E-01   1.4714E-01  3.23E-01  4.42E-01  1.04E+00  1.45E+00  8.32E-01  1.26E-02  1.00E+00
  8   1.1161E-01   1.1161E-01  7.67E-01  9.36E-01  1.39E+00  1.55E+00  1.82E-01  8.87E-04  1.00E+00
  9   2.7902E-01   2.7902E-01  2.55E-01  2.91E-01  2.20E+00  1.67E+00  6.96E-01  2.61E-03  1.00E+00
 10   2.7156E-01   2.7156E-01  2.14E-01  2.43E-01  4.99E+00  1.53E+00  5.33E-01  5.08E-04  1.00E+00
 11   3.0795E-01   3.0795E-01 -1.00E+00  3.23E-01  6.66E+00  1.00E+00  4.68E-01  9.56E-05  1.00E+00
:JACOBIANS    7.072E-01   2.091E+00
  
:NORMS:  1/Froebius, Min, Max, Used   0.8227E+00  0.4669E+00  0.9990E+00  0.9685E+00
:INFO :  Number of Memory Steps    8 Skipping    2
:INFO :  SLambda=    1.0533294958  Max    1.0533294958
:PREDicted Charge, CTotal, PW Trust    1.718E-06   3.436E-06   1.455E-04
:PREDicted DMix, Beta, BLim   4.1392E-01  1.0763E+00  9.2095E+00

Eigenvalues, unscaled except for SY+YY
   #     SY Real        SY Imag          SS             YY         SY+YY Real      SY+YY Imag
   1   3.719462E+00   0.000000E+00   3.631190E+00   3.871255E+00   7.785005E+00   0.000000E+00
   2   1.751197E+00   0.000000E+00   1.502015E+00   2.559523E+00   4.362325E+00   0.000000E+00
   3   5.203877E-01   0.000000E+00   2.740296E-01   1.342450E+00   1.930198E+00   0.000000E+00
   4   1.811437E-02   0.000000E+00   5.089086E-03   1.406853E-01   1.592405E-01   0.000000E+00
   5   1.191824E-02   0.000000E+00   2.316710E-03   5.313519E-02   7.038599E-02   0.000000E+00
   6   4.871572E-03   0.000000E+00   6.617866E-04   3.142876E-02   3.827705E-02   0.000000E+00
   7   2.531197E-08   0.000000E+00   3.198597E-05   1.522171E-03   9.231063E-08   0.000000E+00
   8   3.407372E-04   0.000000E+00   1.205708E-08   6.285401E-08   2.238745E-03   0.000000E+00
 
:INFO :  Singular value  7.785E+00 Weight  1.000E+00 Projection -5.690E-07
:INFO :  Singular value  4.363E+00 Weight  1.000E+00 Projection -1.286E-06
:INFO :  Singular value  1.930E+00 Weight  1.000E+00 Projection -7.073E-06
:INFO :  Singular value  1.592E-01 Weight  1.000E+00 Projection  2.634E-05
:INFO :  Singular value  7.039E-02 Weight  1.000E+00 Projection  3.605E-05
:INFO :  Singular value  3.828E-02 Weight  9.999E-01 Projection -4.079E-05
:INFO :  Singular value  2.239E-03 Weight  9.710E-01 Projection -5.719E-04
:INFO :  Singular value  9.231E-08 Weight  5.686E-08 Projection -4.720E-09
:RANK :  ACTIVE   6.97/8  =  87.14 % ; YY RANK   6.94/8  =  86.74 %
 
:BLIM :  VZERO Control Off
:TRUST:  Step 8.88E+00  Charge 2.46E-02 (e) CTO  8.19E-02 (e) PW  1.15E-01 (e)
:DIRM :  MEMORY  8/8  SCALE   1.000 RED  0.17 PRED  0.32 NEXT  0.70 
:TRAVE:  Charge 2.71E-05 (e) CTO  5.42E-05 (e) PW  4.00E-04 (e)
:DIRP :  |MSR1|= 9.056E-06 |PRATT|= 1.280E-05 ANGLE=   6.5 DEGREES
:DIRQ :  |MSR1|= 1.597E-05 |PRATT|= 3.205E-05 ANGLE=  14.8 DEGREES
:DIRT :  |MSR1|= 1.836E-05 |PRATT|= 3.451E-05 ANGLE=  15.6 DEGREES
:MIX  :   MSE1   REGULARIZATION:  3.87E-04 GREED: 0.34345  Newton 1.00  0.5321                
     
       CHARGES OF MIXED CHARGE DENSITY
:CTO   : INTERSTITIAL CHARGE =     6.931017
:CPC   : PW Pseudocharge     =    16.971929
:CTO001: CHARGE SPHERE  1    =    55.534492

:NEC03: NUCLEAR AND ELECTRONIC CHARGE    118.00000   118.00000

PW CHANGE     H    K    L      Current       Change    Residue
:PTO001:      0    0    0  5.27091074E-02  7.191E-08  9.494E-08
:PTO003:      0    2    0  1.44314916E-02  3.723E-08  6.841E-08
:PTO004:     -1    1    0  7.07140775E-02  1.114E-07  1.501E-07
:PTO005:      0    2   -1 -8.21674779E-02 -1.677E-07 -2.375E-07
:PTO006:      0    0   -2 -4.25286865E-02 -7.880E-08 -1.105E-07
:PTO007:     -1    1   -1 -8.87647074E-02 -1.747E-07 -2.443E-07
:PTO008:      0    2   -2 -1.43863182E-02 -4.219E-08 -6.992E-08
:PTO009:     -1    1   -2 -7.40668098E-02 -1.124E-07 -1.635E-07
:PTO011:     -1    3    0 -1.19985603E-02  1.199E-08  3.552E-08
:PTO012:     -1    3   -1 -5.37843942E-02 -4.572E-08 -6.272E-08
:PTO013:      0    4    0 -9.79444607E-03 -1.008E-08 -1.183E-08
:PTO014:      0    2   -3  2.25285946E-02  3.251E-08  5.317E-08

:ENE  : ********** TOTAL ENERGY IN Ry =       -36944.24343441

       TOTAL FORCE IN mRy/a.u. = |F|     Fx             Fy             Fz     with/without FOR in case.in2
:FOR001:   1.ATOM         27.738          0.000          0.000        -27.738 partial forces
       TOTAL FORCE WITH RESPECT TO GLOBAL CARTESIAN COORDINATES:
:FCA001:   1.ATOM                         0.000        -27.738          0.000 partial forces
       TOTAL FORCE WITH RESPECT TO THE GLOBAL COORDINATE SYSTEM:
:FGL001:   1.ATOM                 0.000000000   -27.738103010     0.000000000 partial forces
