
:LABEL1: Calculations in /home/ykent/GWIEN/example/Pr/aU/V19/case
:LABEL2: on didymium-2.cmpgroup.ameslab.gov at Fri Jul 10 13:27:54 CDT 2020
:LABEL3: using WIEN2k_19.1 (Release 25/6/2019) in /home/ykent/opt/src/WIEN2k_19.1
:LABEL4: using the command: run_lapw -cc 0.0001
 Flat Integration
 New Mode for Coulomb Integral
 Consistent 3/8+Simpson combinations
 Extension of core to zero
 LDM version in phi
 Fifth-order quadrature in outwin


            ---------
:ITE001:  1. ITERATION
            ---------

:NATO :    1 INDEPENDENT AND    2 TOTAL ATOMS IN UNITCELL
       SUBSTANCE: aU                                                          

       LATTICE                      = CXY 
:POT  : POTENTIAL OPTION EX_LDA EC_LDA VX_LDA VC_LDA
:LAT  : LATTICE CONSTANTS=  6.56123 13.31438 11.49459    1.571    1.571    1.571
:VOL  : UNIT CELL VOLUME =     502.07598
       MODE OF CALCULATION IS       = RELA
       NON-SPINPOLARIZED CALCULATION
:IFFT  : FFT-parameters:   54  108   90 Factor: 2.00


   CONVERGENCE PARAMETER FOR PSEUDOCHARGE: NCON=  9
   MAXIMAL VALUE OF RMT(JATOM)*ABSK(NKK) : RK  =27.59428


:VKCOUL :  VK-COUL convergence: 0.116E-06
       ATOMNUMBER=  1 Pr1        VCOUL-ZERO =  0.21971E-01
:EFG001:                        EFG         =    -0.02505   *10**21  V / m**2
                               V20  TOT/SRF=    -0.02169    -0.02816
                               V22  TOT/SRF=     0.00395     0.00485
                               V22M TOT/SRF=     0.00000     0.00000
                               V21  TOT/SRF=     0.00000     0.00000
                               V21M TOT/SRF=     0.00000     0.00000

              0.01647    0.00000    0.00000        0.01647    0.00000    0.00000
              0.00000    0.00858    0.00000        0.00000    0.00858    0.00000
              0.00000    0.00000   -0.02505        0.00000    0.00000   -0.02505

         MAIN DIRECTIONS OF THE EFG   1.0000  0.0000  0.0000
                                      0.0000  1.0000  0.0000
                                      0.0000  0.0000  1.0000
:ANG001:  ANGLE WITH OLD X-AXIS =         0.0

:ETA001:                         ASYMM. ETA =     0.31528


     HELLMANN-FEYNMAN-FORCE IN mRy/a.u. = |F|  Fx       Fy             Fz
:FHF001:   1.ATOM    286.008904780190      0.000000000000      0.000000000000   -286.008904780190

:FIT001: LUSE= 13 SIGMA OF V-XC FIT FOR ATOM  1  0.2088616E-05
:FIT001: LUSE= 13 SIGMA OF V-XC FIT FOR ATOM  1  0.2088616E-05
:DEN  : DENSITY INTEGRAL  =        -14146.61620887   (Ry)
       ELS_POTENTIAL_AT Z=0 and Z=0.5:   0.68488   0.68488
       ELS_POTENTIAL_AT Y=0 and Y=0.5:   0.06577   0.06577
:VZERO:v0,v0c,v0x   0.12366   0.68488  -0.56121 v5,v5c,v5x   0.12366   0.68488  -0.56121
:VZERY:v0,v0c,v0x  -0.68543   0.06577  -0.75120 v5,v5c,v5x  -0.68543   0.06577  -0.75120
:VZERX:v0,v0c,v0x  -1.08197  -0.36494  -0.71703 v5,v5c,v5x  -1.08197  -0.36494  -0.71703
:LMAX-WF:   10   Non-Spherical LMAX:   4

          ATOMIC SPHERE DEPENDENT PARAMETERS FOR ATOM  Pr1       
:e__0001: OVERALL ENERGY PARAMETER IS    0.3000
          OVERALL BASIS SET ON ATOM IS LAPW
:E0_0001: E( 0)=    0.3000
             APW+lo
:E0_0001: E( 0)=   -2.0734   E(BOTTOM)=   -2.711   E(TOP)=   -1.436  4  5   177
             LOCAL ORBITAL
:E1_0001: E( 1)=    0.7000
             APW+lo
:E1_0001: E( 1)=   -0.6047   E(BOTTOM)=   -1.565   E(TOP)=    0.355  3  4   193
             LOCAL ORBITAL
:E3_0001: E( 3)=    0.5871   E(BOTTOM)=    0.377   E(TOP)=    0.797  0  1   128
             APW+lo
:E2_0001: E( 2)=    0.3000   E(BOTTOM)=    0.175   E(TOP)= -200.000  2 -1    93
             APW+lo

       K=   0.06250   0.00000   0.06250            1
:RKM  : MATRIX SIZE   463LOs:  40  RKM= 8.50  WEIGHT= 4.00  PGR:    
       EIGENVALUES ARE:
:EIG00001:      -2.0430614   -2.0309789   -0.7680653   -0.6981883   -0.6829049
:EIG00006:      -0.6781052   -0.6726894   -0.6717284    0.3517511    0.4937238
:EIG00011:       0.5937134    0.5963258    0.5974611    0.6011744    0.6034267
:EIG00016:       0.6141731    0.6186242    0.6188986    0.6220334    0.6240197
:EIG00021:       0.6282427    0.6302780    0.6320767    0.6357156    0.6603499
:EIG00026:       0.6707456    0.7417290    0.7597737    0.7763376    0.8147914
:EIG00031:       0.8313435    0.9093451    0.9549697    0.9963913    1.2728161
:EIG00036:       1.2921170    1.3806615    1.3809993    1.5348123    1.5858895
:EIG00041:       1.6407886    1.7432090    1.8160321    1.8316903    1.9252373
:EIG00046:       1.9829328    1.9940478
 
       ********************************************************

:KPT   :      NUMBER OF K-POINTS:   288
:GAP (global)   :    0.0    Ry =     0.0   eV (metal)
         Bandranges (emin - emax) and occupancy:
:BAN00004:   4   -0.753199   -0.698188  2.00000000
:BAN00005:   5   -0.744167   -0.682905  2.00000000
:BAN00006:   6   -0.730379   -0.674792  2.00000000
:BAN00007:   7   -0.712697   -0.672343  2.00000000
:BAN00008:   8   -0.688047   -0.668684  2.00000000
:BAN00009:   9    0.346992    0.562071  2.00000000
:BAN00010:  10    0.455234    0.574812  2.00000000
:BAN00011:  11    0.531283    0.594149  2.00000000
:BAN00012:  12    0.570795    0.599615  2.00000000
:BAN00013:  13    0.586432    0.610558  1.57035143
:BAN00014:  14    0.595851    0.615126  0.42964857
:BAN00015:  15    0.601796    0.618678  0.00000000
:BAN00016:  16    0.607423    0.618821  0.00000000
:BAN00017:  17    0.610854    0.619388  0.00000000
:BAN00018:  18    0.613225    0.620548  0.00000000
:BAN00019:  19    0.616413    0.623650  0.00000000
        Energy to separate low and high energystates:    0.29699


:NOE  : NUMBER OF ELECTRONS          =   26.000

:FER  : F E R M I - ENERGY(TETRAH.M.)=   0.6015779810
:GMA  : POTENTIAL AND CHARGE CUT-OFF  12.00 Ry**.5

:POS001: ATOM   -1 X,Y,Z = 0.00000 0.89750 0.25000  MULT= 2  ZZ= 59.000  Pr1       

       LMMAX 16
       LM=   0 0  1 0  2 0  2 2  3 0  3 2  4 0  4 2  4 4  5 0  5 2  5 4  6 0  6 2  6 4  6 6

:CHA001: TOTAL VALENCE CHARGE INSIDE SPHERE   1 =   9.2909    (RMT=  2.3000 )
:PCS001: PARTIAL CHARGES SPHERE =  1 S,P,D,F,PX,PY,PZ,D-Z2,D-X2Y2,D-XY,D-XZ,D-YZ 
:QTL001: 1.9415 5.0200 0.5592 1.7700 1.6693 1.6706 1.6800 0.1046 0.1106 0.1157 0.1084 0.1198
        Q-s-low E-s-low   Q-p-low E-p-low   Q-d-low E-d-low   Q-f-low E-f-low
:EPL001:  1.8684 -2.0312    4.9474 -0.7108    0.0013 -0.7376    0.0004 -0.7477
        Q-s-hi  E-s-hi    Q-p-hi  E-p-hi    Q-d-hi  E-d-hi    Q-f-hi  E-f-hi 
:EPH001:  0.0731  0.4900    0.0726  0.5339    0.5578  0.5489    1.7697  0.5869

                      VXX         VYY         VZZ       UP TO R
:VZZ001:             1.05947     4.75262    -5.81209       2.300

:CHA  : TOTAL VALENCE CHARGE INSIDE UNIT CELL =      26.000000

:SUM  : SUM OF EIGENVALUES =         -11.128055390


        1.ATOM      Pr1                  14 CORE STATES
       CORE-FORCE in mRy/a.u. = |F|      Fx             Fy             Fz
:FCO001:   1.ATOM    233.157562513837      0.000000000000      0.000000000000    233.157562513837

:1S 001: 1S               -3066.963670392 Ry
:2S 001: 2S                -492.729334531 Ry
:2PP001: 2P*               -465.826974402 Ry
:2P 001: 2P                -430.430169257 Ry
:3S 001: 3S                -105.826776548 Ry
:3PP001: 3P*                -94.364200555 Ry
:3P 001: 3P                 -87.356800419 Ry
:3DD001: 3D*                -67.283183849 Ry
:3D 001: 3D                 -65.771755007 Ry
:4S 001: 4S                 -20.511812120 Ry
:4PP001: 4P*                -16.218803831 Ry
:4P 001: 4P                 -14.691785864 Ry
:4DD001: 4D*                 -7.625528447 Ry
:4D 001: 4D                  -7.356268907 Ry
:CINT001 Core Integral Atom   1   45.998476

       DENSITY AT NUCLEUS
        JATOM        VALENCE       SEMI-CORE          CORE           TOTAL
:RTO001:   1      647.395600        0.000000   656820.951020   657468.346619
     
       CHARGES OF NEW CHARGE DENSITY
:NTO   : INTERSTITIAL CHARGE =     7.418215
:NPC   : PW Pseudocharge     =    16.992722
:NTO001: CHARGE SPHERE  1    =    55.289368

:NEC01: NUCLEAR AND ELECTRONIC CHARGE    118.00000   117.99695
     
       CHARGES OF OLD CHARGE DENSITY
:OTO   : INTERSTITIAL CHARGE =     6.970675
:OPC   : PW Pseudocharge     =    15.720215
:OTO001: CHARGE SPHERE  1    =    55.515293

:NEC02: NUCLEAR AND ELECTRONIC CHARGE    118.00000   118.00126
     
       CONVERGENCE TEST
:DTO001: DIFFERENCE IN SPHERE  1 =  0.3652319

:DIS  :  CHARGE DISTANCE       ( 0.3652319 for atom    1 spin 1)      0.3652319
 PW Mixed is          517
 
******************************************************
* MULTISECANT MIXING VER9 RELEASE 10.4.0              *
* Standard Mode with controls                        *
* Fixed density scale                                *
* Regularization       1.000E-04                     *
* Trust Upper Limit    5.000E+00                     *
* Max Number of Memory Steps    8                    *
******************************************************
 
:PWTMP   4.0015E+02  1.9467E+02  5.0208E+02
:PLANE:  PW TOTAL      4.1140 DISTAN   4.98E-01  1.21E+01 %
:CHARG:  CLM/ATOM   1382.0509 DISTAN   7.76E-01  5.61E-02 %
 
Step History
        DMIX         DMIXT        Red     Pred      Trust     Lambda    MagRel    MagAbs     Beta
  1   3.5000E-02   3.5000E-02 -1.00E+00  1.00E+00 -1.00E+01  1.00E+00  3.50E-02  3.50E-02  1.00E+00
:INFO :  Note, Pratt in use
:TRUST:  Step 3.75E-02  Charge 7.50E-02 (e) CTO  2.50E-01 (e) PW  3.50E-01 (e)
:DIRM :  MEMORY  0/ 8 SCALE   1.000
Performing Pseudo Compensation
Final Pseudo Compensation Rescaling     1.00000E+00
:MIX  :   PRATT  REGULARIZATION:  1.00E-04 GREED: 0.02500                  
     
       CHARGES OF MIXED CHARGE DENSITY
:CTO   : INTERSTITIAL CHARGE =     6.980710
:CPC   : PW Pseudocharge     =    16.590404
:CTO001: CHARGE SPHERE  1    =    55.509645

:NEC03: NUCLEAR AND ELECTRONIC CHARGE    118.00000   118.00000

PW CHANGE     H    K    L      Current       Change    Residue
:PTO001:      0    0    0  4.69473052E-02  1.761E-03  3.454E-03
:PTO003:      0    2    0  1.31555579E-02  8.375E-04  1.775E-03
:PTO004:     -1    1    0  6.52829224E-02  4.499E-03  6.427E-03
:PTO005:      0    2   -1 -7.62361324E-02 -5.325E-03 -6.601E-03
:PTO006:      0    0   -2 -3.95678763E-02 -2.765E-03 -3.255E-03
:PTO007:     -1    1   -1 -8.33600281E-02 -6.327E-03 -6.948E-03
:PTO008:      0    2   -2 -1.38996827E-02 -1.301E-03 -1.611E-03
:PTO009:     -1    1   -2 -7.03115990E-02 -7.113E-03 -9.354E-03
:PTO011:     -1    3    0 -1.15497655E-02 -1.391E-03 -1.607E-03
:PTO012:     -1    3   -1 -5.24863065E-02 -6.960E-03 -9.444E-03
:PTO013:      0    4    0 -9.89590499E-03 -1.453E-03 -1.625E-03
:PTO014:      0    2   -3  2.23249840E-02  3.307E-03  4.201E-03

:ENE  : ********** TOTAL ENERGY IN Ry =       -36944.14658343

       TOTAL FORCE IN mRy/a.u. = |F|     Fx             Fy             Fz     with/without FOR in case.in2
:FOR001:   1.ATOM         52.851          0.000          0.000        -52.851 partial forces
       TOTAL FORCE WITH RESPECT TO GLOBAL CARTESIAN COORDINATES:
:FCA001:   1.ATOM                         0.000        -52.851          0.000 partial forces
       TOTAL FORCE WITH RESPECT TO THE GLOBAL COORDINATE SYSTEM:
:FGL001:   1.ATOM                 0.000000000   -52.851342266     0.000000000 partial forces
 Flat Integration
 New Mode for Coulomb Integral
 Consistent 3/8+Simpson combinations
 Extension of core to zero
 LDM version in phi
 Fifth-order quadrature in outwin


            ---------
:ITE002:  2. ITERATION
            ---------

:NATO :    1 INDEPENDENT AND    2 TOTAL ATOMS IN UNITCELL
       SUBSTANCE: aU                                                          

       LATTICE                      = CXY 
:POT  : POTENTIAL OPTION EX_LDA EC_LDA VX_LDA VC_LDA
:LAT  : LATTICE CONSTANTS=  6.56123 13.31438 11.49459    1.571    1.571    1.571
:VOL  : UNIT CELL VOLUME =     502.07598
       MODE OF CALCULATION IS       = RELA
       NON-SPINPOLARIZED CALCULATION
:IFFT  : FFT-parameters:   54  108   90 Factor: 2.00


   CONVERGENCE PARAMETER FOR PSEUDOCHARGE: NCON=  9
   MAXIMAL VALUE OF RMT(JATOM)*ABSK(NKK) : RK  =27.59428


:VKCOUL :  VK-COUL convergence: 0.684E-07
       ATOMNUMBER=  1 Pr1        VCOUL-ZERO =  0.24525E-01
:EFG001:                        EFG         =    -0.17026   *10**21  V / m**2
                               V20  TOT/SRF=    -0.14745    -0.02770
                               V22  TOT/SRF=    -0.04259     0.00416
                               V22M TOT/SRF=     0.00000     0.00000
                               V21  TOT/SRF=     0.00000     0.00000
                               V21M TOT/SRF=     0.00000     0.00000

              0.04254    0.00000    0.00000        0.04254    0.00000    0.00000
              0.00000    0.12773    0.00000        0.00000    0.12773    0.00000
              0.00000    0.00000   -0.17026        0.00000    0.00000   -0.17026

         MAIN DIRECTIONS OF THE EFG   1.0000  0.0000  0.0000
                                      0.0000  1.0000  0.0000
                                      0.0000  0.0000  1.0000
:ANG001:  ANGLE WITH OLD X-AXIS =         0.0

:ETA001:                         ASYMM. ETA =     0.50034


     HELLMANN-FEYNMAN-FORCE IN mRy/a.u. = |F|  Fx       Fy             Fz
:FHF001:   1.ATOM    291.709198384355      0.000000000000      0.000000000000   -291.709198384355

:FIT001: LUSE= 13 SIGMA OF V-XC FIT FOR ATOM  1  0.2061450E-05
:FIT001: LUSE= 13 SIGMA OF V-XC FIT FOR ATOM  1  0.2061450E-05
:DEN  : DENSITY INTEGRAL  =        -14145.78693161   (Ry)
       ELS_POTENTIAL_AT Z=0 and Z=0.5:   0.68877   0.68877
       ELS_POTENTIAL_AT Y=0 and Y=0.5:   0.06910   0.06910
:VZERO:v0,v0c,v0x   0.12715   0.68877  -0.56162 v5,v5c,v5x   0.12715   0.68877  -0.56162
:VZERY:v0,v0c,v0x  -0.68349   0.06910  -0.75259 v5,v5c,v5x  -0.68349   0.06910  -0.75259
:VZERX:v0,v0c,v0x  -1.09201  -0.37003  -0.72198 v5,v5c,v5x  -1.09201  -0.37003  -0.72198
:LMAX-WF:   10   Non-Spherical LMAX:   4

          ATOMIC SPHERE DEPENDENT PARAMETERS FOR ATOM  Pr1       
:e__0001: OVERALL ENERGY PARAMETER IS    0.3677
          OVERALL BASIS SET ON ATOM IS LAPW
:E0_0001: E( 0)=    0.3677
             APW+lo
:E0_0001: E( 0)=   -2.0747   E(BOTTOM)=   -2.712   E(TOP)=   -1.438  4  5   171
             LOCAL ORBITAL
:E1_0001: E( 1)=    0.7677
             APW+lo
:E1_0001: E( 1)=   -0.6056   E(BOTTOM)=   -1.565   E(TOP)=    0.354  3  4   192
             LOCAL ORBITAL
:E3_0001: E( 3)=    0.5829   E(BOTTOM)=    0.374   E(TOP)=    0.792  0  1   121
             APW+lo
:E2_0001: E( 2)=    0.3677   E(BOTTOM)=    0.175   E(TOP)= -200.000  2 -1    93
             APW+lo

       K=   0.06250   0.00000   0.06250            1
:RKM  : MATRIX SIZE   463LOs:  40  RKM= 8.50  WEIGHT= 4.00  PGR:    
       EIGENVALUES ARE:
:EIG00001:      -2.0441168   -2.0321034   -0.7676822   -0.6985030   -0.6832793
:EIG00006:      -0.6784282   -0.6727638   -0.6720928    0.3544819    0.4961107
:EIG00011:       0.5913836    0.5932753    0.5940330    0.5974619    0.5998824
:EIG00016:       0.6102370    0.6147270    0.6148560    0.6179043    0.6200359
:EIG00021:       0.6242484    0.6263299    0.6277838    0.6315550    0.6601311
:EIG00026:       0.6716723    0.7430715    0.7613551    0.7782239    0.8163597
:EIG00031:       0.8328003    0.9109428    0.9562991    0.9976142    1.2742967
:EIG00036:       1.2942272    1.3829357    1.3830801    1.5372084    1.5885329
:EIG00041:       1.6431031    1.7455244    1.8179517    1.8338621    1.9267120
:EIG00046:       1.9849618    1.9964732    2.0514111
 
       ********************************************************

:KPT   :      NUMBER OF K-POINTS:   288
:GAP (global)   :    0.0    Ry =     0.0   eV (metal)
         Bandranges (emin - emax) and occupancy:
:BAN00004:   4   -0.753188   -0.698503  2.00000000
:BAN00005:   5   -0.744223   -0.683279  2.00000000
:BAN00006:   6   -0.730394   -0.675134  2.00000000
:BAN00007:   7   -0.712887   -0.672700  2.00000000
:BAN00008:   8   -0.688312   -0.669063  2.00000000
:BAN00009:   9    0.349729    0.563259  2.00000000
:BAN00010:  10    0.457800    0.574708  2.00000000
:BAN00011:  11    0.533192    0.591384  2.00000000
:BAN00012:  12    0.571193    0.597431  2.00000000
:BAN00013:  13    0.584663    0.606758  1.56239457
:BAN00014:  14    0.593079    0.611530  0.43760543
:BAN00015:  15    0.598697    0.614424  0.00000000
:BAN00016:  16    0.604029    0.614893  0.00000000
:BAN00017:  17    0.607402    0.615748  0.00000000
:BAN00018:  18    0.609402    0.616713  0.00000000
:BAN00019:  19    0.612545    0.619846  0.00000000
        Energy to separate low and high energystates:    0.29973


:NOE  : NUMBER OF ELECTRONS          =   26.000

:FER  : F E R M I - ENERGY(TETRAH.M.)=   0.5984477373
:GMA  : POTENTIAL AND CHARGE CUT-OFF  12.00 Ry**.5

:POS001: ATOM   -1 X,Y,Z = 0.00000 0.89750 0.25000  MULT= 2  ZZ= 59.000  Pr1       

       LMMAX 16
       LM=   0 0  1 0  2 0  2 2  3 0  3 2  4 0  4 2  4 4  5 0  5 2  5 4  6 0  6 2  6 4  6 6

:CHA001: TOTAL VALENCE CHARGE INSIDE SPHERE   1 =   9.3729    (RMT=  2.3000 )
:PCS001: PARTIAL CHARGES SPHERE =  1 S,P,D,F,PX,PY,PZ,D-Z2,D-X2Y2,D-XY,D-XZ,D-YZ 
:QTL001: 1.9410 5.0192 0.5325 1.8800 1.6694 1.6704 1.6793 0.0987 0.1029 0.1125 0.1034 0.1149
        Q-s-low E-s-low   Q-p-low E-p-low   Q-d-low E-d-low   Q-f-low E-f-low
:EPL001:  1.8688 -2.0323    4.9506 -0.7109    0.0013 -0.7374    0.0004 -0.7475
        Q-s-hi  E-s-hi    Q-p-hi  E-p-hi    Q-d-hi  E-d-hi    Q-f-hi  E-f-hi 
:EPH001:  0.0722  0.4912    0.0686  0.5329    0.5312  0.5482    1.8796  0.5846

                      VXX         VYY         VZZ       UP TO R
:VZZ001:             0.87373     4.27343    -5.14715       2.300

:CHA  : TOTAL VALENCE CHARGE INSIDE UNIT CELL =      26.000000

:SUM  : SUM OF EIGENVALUES =         -11.133519119


        1.ATOM      Pr1                  14 CORE STATES
       CORE-FORCE in mRy/a.u. = |F|      Fx             Fy             Fz
:FCO001:   1.ATOM    245.039669526769      0.000000000000      0.000000000000    245.039669526769

:1S 001: 1S               -3066.974820457 Ry
:2S 001: 2S                -492.740050165 Ry
:2PP001: 2P*               -465.837751960 Ry
:2P 001: 2P                -430.440920113 Ry
:3S 001: 3S                -105.836809297 Ry
:3PP001: 3P*                -94.374281063 Ry
:3P 001: 3P                 -87.366812272 Ry
:3DD001: 3D*                -67.293327266 Ry
:3D 001: 3D                 -65.781879408 Ry
:4S 001: 4S                 -20.519086509 Ry
:4PP001: 4P*                -16.225921332 Ry
:4P 001: 4P                 -14.698655614 Ry
:4DD001: 4D*                 -7.631958549 Ry
:4D 001: 4D                  -7.362614088 Ry
:CINT001 Core Integral Atom   1   45.998483

       DENSITY AT NUCLEUS
        JATOM        VALENCE       SEMI-CORE          CORE           TOTAL
:RTO001:   1      647.531290        0.000000   656821.596140   657469.127429
     
       CHARGES OF NEW CHARGE DENSITY
:NTO   : INTERSTITIAL CHARGE =     7.254149
:NPC   : PW Pseudocharge     =    16.948338
:NTO001: CHARGE SPHERE  1    =    55.371408

:NEC01: NUCLEAR AND ELECTRONIC CHARGE    118.00000   117.99696
     
       CHARGES OF OLD CHARGE DENSITY
:OTO   : INTERSTITIAL CHARGE =     6.980709
:OPC   : PW Pseudocharge     =    16.590405
:OTO001: CHARGE SPHERE  1    =    55.509645

:NEC02: NUCLEAR AND ELECTRONIC CHARGE    118.00000   118.00000
     
       CONVERGENCE TEST
:DTO001: DIFFERENCE IN SPHERE  1 =  0.2301520

:DIS  :  CHARGE DISTANCE       ( 0.2301520 for atom    1 spin 1)      0.2301520
 PW Mixed is          517
 
******************************************************
* MULTISECANT MIXING VER9 RELEASE 10.4.0              *
* Slow Mode, cautious                                *
* Fixed density scale                                *
* Regularization       1.000E-04                     *
* Step Trust Radius    0.75000                       *
* Trust Upper Limit    2.000E+00                     *
* Max Number of Memory Steps   12                    *
******************************************************
 
:PWTMP   4.0015E+02  1.9467E+02  5.0208E+02
:PLANE:  PW TOTAL      4.4399 DISTAN   1.28E-01  2.89E+00 %
:CHARG:  CLM/ATOM   1382.0470 DISTAN   6.70E-01  4.85E-02 %
 
Step History
        DMIX         DMIXT        Red     Pred      Trust     Lambda    MagRel    MagAbs     Beta
  1   3.5000E-02   3.5000E-02 -1.00E+00  1.00E+00 -1.00E+01  1.00E+00  3.50E-02  3.50E-02  1.00E+00
  2   2.5000E-02   2.5000E-02 -1.00E+00  1.00E+00 -1.00E+01  1.00E+00  2.50E-02  2.31E-02  1.00E+00
:JACOBIANS    3.927E-01   7.073E-03
  
:TRUST:  Step 3.01E-02  Charge 7.50E-02 (e) CTO  2.50E-01 (e) PW  3.50E-01 (e)
:DIRM :  MEMORY  1/12 SCALE   1.000
:MIX  :   PRATT  REGULARIZATION:  1.00E-04 GREED: 0.03008  Expand 1.20  0.0301                
     
       CHARGES OF MIXED CHARGE DENSITY
:CTO   : INTERSTITIAL CHARGE =     6.985816
:CPC   : PW Pseudocharge     =    16.985049
:CTO001: CHARGE SPHERE  1    =    55.507092

:NEC03: NUCLEAR AND ELECTRONIC CHARGE    118.00000   118.00000

PW CHANGE     H    K    L      Current       Change    Residue
:PTO001:      0    0    0  4.77435026E-02  7.962E-04  1.278E-03
:PTO003:      0    2    0  1.35341419E-02  3.786E-04  8.725E-04
:PTO004:     -1    1    0  6.73164884E-02  2.034E-03  1.835E-03
:PTO005:      0    2   -1 -7.86433311E-02 -2.407E-03 -1.280E-03
:PTO006:      0    0   -2 -4.08179002E-02 -1.250E-03 -4.957E-04
:PTO007:     -1    1   -1 -8.62200583E-02 -2.860E-03 -6.947E-04
:PTO008:      0    2   -2 -1.44877205E-02 -5.880E-04 -3.032E-04
:PTO009:     -1    1   -2 -7.35269105E-02 -3.215E-03 -2.327E-03
:PTO011:     -1    3    0 -1.21785707E-02 -6.288E-04 -2.362E-04
:PTO012:     -1    3   -1 -5.56325555E-02 -3.146E-03 -2.489E-03
:PTO013:      0    4    0 -1.05527453E-02 -6.568E-04 -1.873E-04
:PTO014:      0    2   -3  2.38196842E-02  1.495E-03  9.046E-04

:ENE  : ********** TOTAL ENERGY IN Ry =       -36944.14264632

       TOTAL FORCE IN mRy/a.u. = |F|     Fx             Fy             Fz     with/without FOR in case.in2
:FOR001:   1.ATOM         46.670          0.000          0.000        -46.670 partial forces
       TOTAL FORCE WITH RESPECT TO GLOBAL CARTESIAN COORDINATES:
:FCA001:   1.ATOM                         0.000        -46.670          0.000 partial forces
       TOTAL FORCE WITH RESPECT TO THE GLOBAL COORDINATE SYSTEM:
:FGL001:   1.ATOM                 0.000000000   -46.669528858     0.000000000 partial forces
 Flat Integration
 New Mode for Coulomb Integral
 Consistent 3/8+Simpson combinations
 Extension of core to zero
 LDM version in phi
 Fifth-order quadrature in outwin


            ---------
:ITE003:  3. ITERATION
            ---------

:NATO :    1 INDEPENDENT AND    2 TOTAL ATOMS IN UNITCELL
       SUBSTANCE: aU                                                          

       LATTICE                      = CXY 
:POT  : POTENTIAL OPTION EX_LDA EC_LDA VX_LDA VC_LDA
:LAT  : LATTICE CONSTANTS=  6.56123 13.31438 11.49459    1.571    1.571    1.571
:VOL  : UNIT CELL VOLUME =     502.07598
       MODE OF CALCULATION IS       = RELA
       NON-SPINPOLARIZED CALCULATION
:IFFT  : FFT-parameters:   54  108   90 Factor: 2.00


   CONVERGENCE PARAMETER FOR PSEUDOCHARGE: NCON=  9
   MAXIMAL VALUE OF RMT(JATOM)*ABSK(NKK) : RK  =27.59428


:VKCOUL :  VK-COUL convergence: 0.694E-07
       ATOMNUMBER=  1 Pr1        VCOUL-ZERO =  0.25675E-01
:EFG001:                        EFG         =    -0.23591   *10**21  V / m**2
                               V20  TOT/SRF=    -0.20430    -0.02749
                               V22  TOT/SRF=    -0.06363     0.00385
                               V22M TOT/SRF=     0.00000     0.00000
                               V21  TOT/SRF=     0.00000     0.00000
                               V21M TOT/SRF=     0.00000     0.00000

              0.05432    0.00000    0.00000        0.05432    0.00000    0.00000
              0.00000    0.18158    0.00000        0.00000    0.18158    0.00000
              0.00000    0.00000   -0.23591        0.00000    0.00000   -0.23591

         MAIN DIRECTIONS OF THE EFG   1.0000  0.0000  0.0000
                                      0.0000  1.0000  0.0000
                                      0.0000  0.0000  1.0000
:ANG001:  ANGLE WITH OLD X-AXIS =         0.0

:ETA001:                         ASYMM. ETA =     0.53946


     HELLMANN-FEYNMAN-FORCE IN mRy/a.u. = |F|  Fx       Fy             Fz
:FHF001:   1.ATOM    294.330108305064      0.000000000000      0.000000000000   -294.330108305064

:FIT001: LUSE= 13 SIGMA OF V-XC FIT FOR ATOM  1  0.2078515E-05
:FIT001: LUSE= 13 SIGMA OF V-XC FIT FOR ATOM  1  0.2078515E-05
:DEN  : DENSITY INTEGRAL  =        -14145.41190233   (Ry)
       ELS_POTENTIAL_AT Z=0 and Z=0.5:   0.69058   0.69058
       ELS_POTENTIAL_AT Y=0 and Y=0.5:   0.07061   0.07061
:VZERO:v0,v0c,v0x   0.12879   0.69058  -0.56180 v5,v5c,v5x   0.12879   0.69058  -0.56180
:VZERY:v0,v0c,v0x  -0.68261   0.07061  -0.75322 v5,v5c,v5x  -0.68261   0.07061  -0.75322
:VZERX:v0,v0c,v0x  -1.09650  -0.37236  -0.72413 v5,v5c,v5x  -1.09650  -0.37236  -0.72413
:LMAX-WF:   10   Non-Spherical LMAX:   4

          ATOMIC SPHERE DEPENDENT PARAMETERS FOR ATOM  Pr1       
:e__0001: OVERALL ENERGY PARAMETER IS    0.3882
          OVERALL BASIS SET ON ATOM IS LAPW
:E0_0001: E( 0)=    0.3882
             APW+lo
:E0_0001: E( 0)=   -2.0753   E(BOTTOM)=   -2.712   E(TOP)=   -1.439  4  5   176
             LOCAL ORBITAL
:E1_0001: E( 1)=    0.7882
             APW+lo
:E1_0001: E( 1)=   -0.6060   E(BOTTOM)=   -1.565   E(TOP)=    0.353  3  4   191
             LOCAL ORBITAL
:E3_0001: E( 3)=    0.5809   E(BOTTOM)=    0.372   E(TOP)=    0.790  0  1   119
             APW+lo
:E2_0001: E( 2)=    0.3882   E(BOTTOM)=    0.175   E(TOP)= -200.000  2 -1    91
             APW+lo

       K=   0.06250   0.00000   0.06250            1
:RKM  : MATRIX SIZE   463LOs:  40  RKM= 8.50  WEIGHT= 4.00  PGR:    
       EIGENVALUES ARE:
:EIG00001:      -2.0445943   -2.0326124   -0.7675032   -0.6986404   -0.6834439
:EIG00006:      -0.6785704   -0.6727938   -0.6722538    0.3557515    0.4972149
:EIG00011:       0.5902304    0.5918650    0.5924735    0.5957757    0.5982899
:EIG00016:       0.6084519    0.6129529    0.6130191    0.6160340    0.6182203
:EIG00021:       0.6224127    0.6245122    0.6258159    0.6296731    0.6601448
:EIG00026:       0.6721785    0.7437301    0.7621015    0.7791011    0.8170975
:EIG00031:       0.8334868    0.9116929    0.9569267    0.9981940    1.2750013
:EIG00036:       1.2952216    1.3840074    1.3840640    1.5383321    1.5897700
:EIG00041:       1.6441866    1.7466125    1.8188742    1.8348948    1.9274709
:EIG00046:       1.9859442    1.9976270    2.0523457
 
       ********************************************************

:KPT   :      NUMBER OF K-POINTS:   288
:GAP (global)   :    0.0    Ry =     0.0   eV (metal)
         Bandranges (emin - emax) and occupancy:
:BAN00004:   4   -0.753177   -0.698640  2.00000000
:BAN00005:   5   -0.744242   -0.683444  2.00000000
:BAN00006:   6   -0.730396   -0.675285  2.00000000
:BAN00007:   7   -0.712967   -0.672794  2.00000000
:BAN00008:   8   -0.688419   -0.669231  2.00000000
:BAN00009:   9    0.351001    0.563740  2.00000000
:BAN00010:  10    0.458993    0.574568  2.00000000
:BAN00011:  11    0.534060    0.590230  2.00000000
:BAN00012:  12    0.571300    0.596397  2.00000000
:BAN00013:  13    0.583807    0.605032  1.55705154
:BAN00014:  14    0.591795    0.609865  0.44294846
:BAN00015:  15    0.597242    0.612491  0.00000000
:BAN00016:  16    0.602473    0.613069  0.00000000
:BAN00017:  17    0.605828    0.614116  0.00000000
:BAN00018:  18    0.607667    0.615040  0.00000000
:BAN00019:  19    0.610801    0.618117  0.00000000
        Energy to separate low and high energystates:    0.30100


:NOE  : NUMBER OF ELECTRONS          =   26.000

:FER  : F E R M I - ENERGY(TETRAH.M.)=   0.5969913006
:GMA  : POTENTIAL AND CHARGE CUT-OFF  12.00 Ry**.5

:POS001: ATOM   -1 X,Y,Z = 0.00000 0.89750 0.25000  MULT= 2  ZZ= 59.000  Pr1       

       LMMAX 16
       LM=   0 0  1 0  2 0  2 2  3 0  3 2  4 0  4 2  4 4  5 0  5 2  5 4  6 0  6 2  6 4  6 6

:CHA001: TOTAL VALENCE CHARGE INSIDE SPHERE   1 =   9.4113    (RMT=  2.3000 )
:PCS001: PARTIAL CHARGES SPHERE =  1 S,P,D,F,PX,PY,PZ,D-Z2,D-X2Y2,D-XY,D-XZ,D-YZ 
:QTL001: 1.9408 5.0189 0.5202 1.9312 1.6695 1.6704 1.6790 0.0961 0.0996 0.1110 0.1010 0.1125
        Q-s-low E-s-low   Q-p-low E-p-low   Q-d-low E-d-low   Q-f-low E-f-low
:EPL001:  1.8690 -2.0328    4.9521 -0.7109    0.0013 -0.7373    0.0004 -0.7474
        Q-s-hi  E-s-hi    Q-p-hi  E-p-hi    Q-d-hi  E-d-hi    Q-f-hi  E-f-hi 
:EPH001:  0.0718  0.4919    0.0668  0.5324    0.5189  0.5478    1.9308  0.5835

                      VXX         VYY         VZZ       UP TO R
:VZZ001:             0.84660     3.96090    -4.80750       2.300

:CHA  : TOTAL VALENCE CHARGE INSIDE UNIT CELL =      26.000000

:SUM  : SUM OF EIGENVALUES =         -11.136268811


        1.ATOM      Pr1                  14 CORE STATES
       CORE-FORCE in mRy/a.u. = |F|      Fx             Fy             Fz
:FCO001:   1.ATOM    250.446411996741      0.000000000000      0.000000000000    250.446411996741

:1S 001: 1S               -3066.979865502 Ry
:2S 001: 2S                -492.744898833 Ry
:2PP001: 2P*               -465.842628619 Ry
:2P 001: 2P                -430.445784703 Ry
:3S 001: 3S                -105.841349276 Ry
:3PP001: 3P*                -94.378842632 Ry
:3P 001: 3P                 -87.371342807 Ry
:3DD001: 3D*                -67.297917273 Ry
:3D 001: 3D                 -65.786460820 Ry
:4S 001: 4S                 -20.522379686 Ry
:4PP001: 4P*                -16.229143619 Ry
:4P 001: 4P                 -14.701765928 Ry
:4DD001: 4D*                 -7.634870267 Ry
:4D 001: 4D                  -7.365487430 Ry
:CINT001 Core Integral Atom   1   45.998486

       DENSITY AT NUCLEUS
        JATOM        VALENCE       SEMI-CORE          CORE           TOTAL
:RTO001:   1      647.586656        0.000000   656821.887731   657469.474386
     
       CHARGES OF NEW CHARGE DENSITY
:NTO   : INTERSTITIAL CHARGE =     7.177498
:NPC   : PW Pseudocharge     =    16.928033
:NTO001: CHARGE SPHERE  1    =    55.409737

:NEC01: NUCLEAR AND ELECTRONIC CHARGE    118.00000   117.99697
     
       CHARGES OF OLD CHARGE DENSITY
:OTO   : INTERSTITIAL CHARGE =     6.985816
:OPC   : PW Pseudocharge     =    16.985049
:OTO001: CHARGE SPHERE  1    =    55.507092

:NEC02: NUCLEAR AND ELECTRONIC CHARGE    118.00000   118.00000
     
       CONVERGENCE TEST
:DTO001: DIFFERENCE IN SPHERE  1 =  0.1715887

:DIS  :  CHARGE DISTANCE       ( 0.1715887 for atom    1 spin 1)      0.1715887
 PW Mixed is          517
 
******************************************************
* MULTISECANT MIXING VER9 RELEASE 10.4.0              *
* Slow Mode, cautious                                *
* Fixed density scale                                *
* Regularization       1.000E-04                     *
* Step Trust Radius    0.75000                       *
* Trust Upper Limit    2.000E+00                     *
* Max Number of Memory Steps   12                    *
******************************************************
 
:PWTMP   4.0015E+02  1.9467E+02  5.0208E+02
:PLANE:  PW TOTAL      4.5909 DISTAN   1.31E-01  2.86E+00 %
:CHARG:  CLM/ATOM   1382.0452 DISTAN   6.35E-01  4.60E-02 %
 
Step History
        DMIX         DMIXT        Red     Pred      Trust     Lambda    MagRel    MagAbs     Beta
  1   3.5000E-02   3.5000E-02 -1.00E+00  1.00E+00 -1.00E+01  1.00E+00  3.50E-02  3.50E-02  1.00E+00
  2   2.5000E-02   2.5000E-02  7.39E-01  1.00E+00 -1.00E+01  1.00E+00  2.50E-02  2.31E-02  1.00E+00
  3   3.0085E-02   3.0085E-02 -1.00E+00  1.00E+00 -1.00E+01  1.00E+00  3.01E-02  2.05E-02  1.00E+00
:JACOBIANS    5.959E-01   1.030E-02
  
:NORMS:  1/Froebius, Min, Max, Used   0.8792E+00  0.4216E+00  0.8793E+00  0.8793E+00
:INFO :  Number of Memory Steps    2 Skipping    0
:INFO :  SLambda=    0.0625204821  Max    0.0625204821
:PREDicted Charge, CTotal, PW Trust    2.328E-03   4.656E-03   1.413E-01
:PREDicted DMix, Beta, BLim   3.5128E-02  8.8348E-01  3.8800E-01

Eigenvalues, unscaled except for SY+YY
   #     SY Real        SY Imag          SS             YY         SY+YY Real      SY+YY Imag
   1   1.581582E+00   0.000000E+00   1.546063E+00   1.999851E+00   2.098732E+00   0.000000E+00
   2   1.565414E-14   0.000000E+00   0.000000E+00   1.491037E-04   1.495688E-04   0.000000E+00
 
:INFO :  Singular value  2.099E+00 Weight  1.000E+00 Projection  4.929E-04
:INFO :  Singular value  1.496E-04 Weight  3.587E-01 Projection -7.442E+00
:RANK :  ACTIVE   1.36/2  =  67.94 % ; YY RANK   1.36/2  =  67.86 %
 
:DLIM :  Beta Active  9.126E-01
:BLIM :  VZERO Control Off
:TRUST:  Step 2.01E-01  Charge 7.50E-02 (e) CTO  2.50E-01 (e) PW  3.50E-01 (e)
:DIRM :  MEMORY  2/12 SCALE   1.000 RED  0.95 PRED  1.00 NEXT  0.96 BETA  0.91
:TRAVE:  Charge 2.34E-03 (e) CTO  4.67E-03 (e) PW  1.45E-02 (e)
:DIRP :  |MSR1|= 2.158E-02 |PRATT|= 1.312E-01 ANGLE=  36.0 DEGREES
:DIRQ :  |MSR1|= 1.899E-02 |PRATT|= 6.354E-01 ANGLE=   8.5 DEGREES
:DIRT :  |MSR1|= 2.875E-02 |PRATT|= 6.488E-01 ANGLE=  40.3 DEGREES
:MIX  :   MSD1   REGULARIZATION:  2.00E-04 GREED: 0.03259  Newton 1.00  0.0443                
     
       CHARGES OF MIXED CHARGE DENSITY
:CTO   : INTERSTITIAL CHARGE =     6.990488
:CPC   : PW Pseudocharge     =    16.943017
:CTO001: CHARGE SPHERE  1    =    55.504756

:NEC03: NUCLEAR AND ELECTRONIC CHARGE    118.00000   118.00000

PW CHANGE     H    K    L      Current       Change    Residue
:PTO001:      0    0    0  4.76690892E-02 -7.441E-05  2.885E-04
:PTO003:      0    2    0  1.35130275E-02 -2.111E-05  4.682E-04
:PTO004:     -1    1    0  6.70996368E-02 -2.169E-04 -2.420E-04
:PTO005:      0    2   -1 -7.83649959E-02  2.783E-04  1.118E-03
:PTO006:      0    0   -2 -4.06671033E-02  1.508E-04  7.493E-04
:PTO007:     -1    1   -1 -8.58577509E-02  3.623E-04  2.132E-03
:PTO008:      0    2   -2 -1.44185700E-02  6.915E-05  2.875E-04
:PTO009:     -1    1   -2 -7.31689323E-02  3.580E-04  8.514E-04
:PTO011:     -1    3    0 -1.20999102E-02  7.866E-05  3.864E-04
:PTO012:     -1    3   -1 -5.52878031E-02  3.448E-04  6.577E-04
:PTO013:      0    4    0 -1.04715619E-02  8.118E-05  4.607E-04
:PTO014:      0    2   -3  2.36495141E-02 -1.702E-04 -5.824E-04

:ENE  : ********** TOTAL ENERGY IN Ry =       -36944.14143063

       TOTAL FORCE IN mRy/a.u. = |F|     Fx             Fy             Fz     with/without FOR in case.in2
:FOR001:   1.ATOM         43.884          0.000          0.000        -43.884 partial forces
       TOTAL FORCE WITH RESPECT TO GLOBAL CARTESIAN COORDINATES:
:FCA001:   1.ATOM                         0.000        -43.884          0.000 partial forces
       TOTAL FORCE WITH RESPECT TO THE GLOBAL COORDINATE SYSTEM:
:FGL001:   1.ATOM                 0.000000000   -43.883696308     0.000000000 partial forces
 Flat Integration
 New Mode for Coulomb Integral
 Consistent 3/8+Simpson combinations
 Extension of core to zero
 LDM version in phi
 Fifth-order quadrature in outwin


            ---------
:ITE004:  4. ITERATION
            ---------

:NATO :    1 INDEPENDENT AND    2 TOTAL ATOMS IN UNITCELL
       SUBSTANCE: aU                                                          

       LATTICE                      = CXY 
:POT  : POTENTIAL OPTION EX_LDA EC_LDA VX_LDA VC_LDA
:LAT  : LATTICE CONSTANTS=  6.56123 13.31438 11.49459    1.571    1.571    1.571
:VOL  : UNIT CELL VOLUME =     502.07598
       MODE OF CALCULATION IS       = RELA
       NON-SPINPOLARIZED CALCULATION
:IFFT  : FFT-parameters:   54  108   90 Factor: 2.00


   CONVERGENCE PARAMETER FOR PSEUDOCHARGE: NCON=  9
   MAXIMAL VALUE OF RMT(JATOM)*ABSK(NKK) : RK  =27.59428


:VKCOUL :  VK-COUL convergence: 0.688E-07
       ATOMNUMBER=  1 Pr1        VCOUL-ZERO =  0.25387E-01
:EFG001:                        EFG         =    -0.35738   *10**21  V / m**2
                               V20  TOT/SRF=    -0.30950    -0.02674
                               V22  TOT/SRF=    -0.06661     0.00342
                               V22M TOT/SRF=     0.00000     0.00000
                               V21  TOT/SRF=     0.00000     0.00000
                               V21M TOT/SRF=     0.00000     0.00000

              0.11209    0.00000    0.00000        0.11209    0.00000    0.00000
              0.00000    0.24530    0.00000        0.00000    0.24530    0.00000
              0.00000    0.00000   -0.35738        0.00000    0.00000   -0.35738

         MAIN DIRECTIONS OF THE EFG   1.0000  0.0000  0.0000
                                      0.0000  1.0000  0.0000
                                      0.0000  0.0000  1.0000
:ANG001:  ANGLE WITH OLD X-AXIS =         0.0

:ETA001:                         ASYMM. ETA =     0.37275


     HELLMANN-FEYNMAN-FORCE IN mRy/a.u. = |F|  Fx       Fy             Fz
:FHF001:   1.ATOM    304.391264556362      0.000000000000      0.000000000000   -304.391264556362

:FIT001: LUSE= 13 SIGMA OF V-XC FIT FOR ATOM  1  0.2202657E-05
:FIT001: LUSE= 13 SIGMA OF V-XC FIT FOR ATOM  1  0.2202657E-05
:DEN  : DENSITY INTEGRAL  =        -14144.89353100   (Ry)
       ELS_POTENTIAL_AT Z=0 and Z=0.5:   0.69105   0.69105
       ELS_POTENTIAL_AT Y=0 and Y=0.5:   0.07121   0.07121
:VZERO:v0,v0c,v0x   0.12904   0.69105  -0.56201 v5,v5c,v5x   0.12904   0.69105  -0.56201
:VZERY:v0,v0c,v0x  -0.68223   0.07121  -0.75343 v5,v5c,v5x  -0.68223   0.07121  -0.75343
:VZERX:v0,v0c,v0x  -1.09634  -0.37224  -0.72410 v5,v5c,v5x  -1.09634  -0.37224  -0.72410
:LMAX-WF:   10   Non-Spherical LMAX:   4

          ATOMIC SPHERE DEPENDENT PARAMETERS FOR ATOM  Pr1       
:e__0001: OVERALL ENERGY PARAMETER IS    0.3941
          OVERALL BASIS SET ON ATOM IS LAPW
:E0_0001: E( 0)=    0.3941
             APW+lo
:E0_0001: E( 0)=   -2.0773   E(BOTTOM)=   -2.713   E(TOP)=   -1.441  4  5   171
             LOCAL ORBITAL
:E1_0001: E( 1)=    0.7941
             APW+lo
:E1_0001: E( 1)=   -0.6078   E(BOTTOM)=   -1.566   E(TOP)=    0.351  3  4   190
             LOCAL ORBITAL
:E3_0001: E( 3)=    0.5777   E(BOTTOM)=    0.369   E(TOP)=    0.786  0  1   115
             APW+lo
:E2_0001: E( 2)=    0.3941   E(BOTTOM)=    0.174   E(TOP)= -200.000  2 -1    90
             APW+lo

       K=   0.06250   0.00000   0.06250            1
:RKM  : MATRIX SIZE   463LOs:  40  RKM= 8.50  WEIGHT= 4.00  PGR:    
       EIGENVALUES ARE:
:EIG00001:      -2.0464563   -2.0345114   -0.7686322   -0.7003339   -0.6851615
:EIG00006:      -0.6800469   -0.6741583   -0.6737554    0.3555818    0.4968404
:EIG00011:       0.5878519    0.5893107    0.5896359    0.5927669    0.5953749
:EIG00016:       0.6055196    0.6099075    0.6100225    0.6129002    0.6150280
:EIG00021:       0.6193628    0.6214099    0.6224670    0.6265078    0.6588481
:EIG00026:       0.6713479    0.7429978    0.7613667    0.7786112    0.8163590
:EIG00031:       0.8327068    0.9110930    0.9561640    0.9973718    1.2743119
:EIG00036:       1.2947572    1.3835918    1.3836011    1.5380033    1.5896839
:EIG00041:       1.6438899    1.7463421    1.8183195    1.8345987    1.9268466
:EIG00046:       1.9855477    1.9973957    2.0518247
 
       ********************************************************

:KPT   :      NUMBER OF K-POINTS:   288
:GAP (global)   :    0.0    Ry =     0.0   eV (metal)
         Bandranges (emin - emax) and occupancy:
:BAN00004:   4   -0.754526   -0.700334  2.00000000
:BAN00005:   5   -0.745610   -0.685161  2.00000000
:BAN00006:   6   -0.731848   -0.676769  2.00000000
:BAN00007:   7   -0.714560   -0.674158  2.00000000
:BAN00008:   8   -0.689877   -0.670739  2.00000000
:BAN00009:   9    0.350833    0.562842  2.00000000
:BAN00010:  10    0.458737    0.573035  2.00000000
:BAN00011:  11    0.533437    0.587852  2.00000000
:BAN00012:  12    0.570028    0.593952  2.00000000
:BAN00013:  13    0.581574    0.602054  1.54993916
:BAN00014:  14    0.589203    0.606917  0.45006083
:BAN00015:  15    0.594550    0.609189  0.00000000
:BAN00016:  16    0.599631    0.609915  0.00000000
:BAN00017:  17    0.602968    0.611315  0.00000000
:BAN00018:  18    0.604733    0.612098  0.00000000
:BAN00019:  19    0.607696    0.615071  0.00000000
        Energy to separate low and high energystates:    0.30083


:NOE  : NUMBER OF ELECTRONS          =   26.000

:FER  : F E R M I - ENERGY(TETRAH.M.)=   0.5942377439
:GMA  : POTENTIAL AND CHARGE CUT-OFF  12.00 Ry**.5

:POS001: ATOM   -1 X,Y,Z = 0.00000 0.89750 0.25000  MULT= 2  ZZ= 59.000  Pr1       

       LMMAX 16
       LM=   0 0  1 0  2 0  2 2  3 0  3 2  4 0  4 2  4 4  5 0  5 2  5 4  6 0  6 2  6 4  6 6

:CHA001: TOTAL VALENCE CHARGE INSIDE SPHERE   1 =   9.4468    (RMT=  2.3000 )
:PCS001: PARTIAL CHARGES SPHERE =  1 S,P,D,F,PX,PY,PZ,D-Z2,D-X2Y2,D-XY,D-XZ,D-YZ 
:QTL001: 1.9406 5.0187 0.5085 1.9789 1.6696 1.6703 1.6788 0.0937 0.0961 0.1096 0.0988 0.1104
        Q-s-low E-s-low   Q-p-low E-p-low   Q-d-low E-d-low   Q-f-low E-f-low
:EPL001:  1.8692 -2.0347    4.9535 -0.7124    0.0013 -0.7383    0.0004 -0.7484
        Q-s-hi  E-s-hi    Q-p-hi  E-p-hi    Q-d-hi  E-d-hi    Q-f-hi  E-f-hi 
:EPH001:  0.0714  0.4910    0.0652  0.5307    0.5072  0.5462    1.9785  0.5812

                      VXX         VYY         VZZ       UP TO R
:VZZ001:             1.16428     3.87604    -5.04032       2.300

:CHA  : TOTAL VALENCE CHARGE INSIDE UNIT CELL =      26.000000

:SUM  : SUM OF EIGENVALUES =         -11.175136093


        1.ATOM      Pr1                  14 CORE STATES
       CORE-FORCE in mRy/a.u. = |F|      Fx             Fy             Fz
:FCO001:   1.ATOM    267.350819187477      0.000000000000      0.000000000000    267.350819187477

:1S 001: 1S               -3066.986481340 Ry
:2S 001: 2S                -492.751021823 Ry
:2PP001: 2P*               -465.848819383 Ry
:2P 001: 2P                -430.451946117 Ry
:3S 001: 3S                -105.846963154 Ry
:3PP001: 3P*                -94.384488182 Ry
:3P 001: 3P                 -87.376949218 Ry
:3DD001: 3D*                -67.303598593 Ry
:3D 001: 3D                 -65.792130519 Ry
:4S 001: 4S                 -20.526785546 Ry
:4PP001: 4P*                -16.233489670 Ry
:4P 001: 4P                 -14.706014723 Ry
:4DD001: 4D*                 -7.638945246 Ry
:4D 001: 4D                  -7.369528805 Ry
:CINT001 Core Integral Atom   1   45.998488

       DENSITY AT NUCLEUS
        JATOM        VALENCE       SEMI-CORE          CORE           TOTAL
:RTO001:   1      647.632671        0.000000   656822.219913   657469.852585
     
       CHARGES OF NEW CHARGE DENSITY
:NTO   : INTERSTITIAL CHARGE =     7.106324
:NPC   : PW Pseudocharge     =    16.908881
:NTO001: CHARGE SPHERE  1    =    55.445326

:NEC01: NUCLEAR AND ELECTRONIC CHARGE    118.00000   117.99698
     
       CHARGES OF OLD CHARGE DENSITY
:OTO   : INTERSTITIAL CHARGE =     6.990488
:OPC   : PW Pseudocharge     =    16.943017
:OTO001: CHARGE SPHERE  1    =    55.504756

:NEC02: NUCLEAR AND ELECTRONIC CHARGE    118.00000   118.00000
     
       CONVERGENCE TEST
:DTO001: DIFFERENCE IN SPHERE  1 =  0.1228629

:DIS  :  CHARGE DISTANCE       ( 0.1228629 for atom    1 spin 1)      0.1228629
 PW Mixed is          517
 
******************************************************
* MULTISECANT MIXING VER9 RELEASE 10.4.0              *
* Slow Mode, cautious                                *
* Fixed density scale                                *
* Regularization       1.000E-04                     *
* Step Trust Radius    0.75000                       *
* Trust Upper Limit    2.000E+00                     *
* Max Number of Memory Steps   12                    *
******************************************************
 
:PWTMP   4.0015E+02  1.9467E+02  5.0208E+02
:PLANE:  PW TOTAL      4.5737 DISTAN   1.12E-01  2.45E+00 %
:CHARG:  CLM/ATOM   1382.0413 DISTAN   5.99E-01  4.33E-02 %
 
Step History
        DMIX         DMIXT        Red     Pred      Trust     Lambda    MagRel    MagAbs     Beta
  1   3.5000E-02   3.5000E-02 -1.00E+00  1.00E+00 -1.00E+01  1.00E+00  3.50E-02  3.50E-02  1.00E+00
  2   2.5000E-02   2.5000E-02  7.39E-01  1.00E+00 -1.00E+01  1.00E+00  2.50E-02  2.31E-02  1.00E+00
  3   3.0085E-02   3.0085E-02  9.52E-01  1.00E+00 -1.00E+01  6.25E-02  3.01E-02  2.05E-02  1.00E+00
  4   3.2585E-02   3.2585E-02 -1.00E+00  9.57E-01  2.01E-01  1.00E+00  4.43E-02  2.87E-02  9.13E-01
:JACOBIANS    7.895E-01   4.668E-02
  
:NORMS:  1/Froebius, Min, Max, Used   0.6276E+00  0.3535E+00  0.9862E+00  0.6977E+00
:INFO :  Number of Memory Steps    3 Skipping    0
:INFO :  SLambda=    1.6152070619  Max    1.6152070619
:PREDicted Charge, CTotal, PW Trust    1.120E-02   2.239E-02   1.033E-01
:PREDicted DMix, Beta, BLim   1.1077E-01  3.3766E+00  2.4698E-01

Eigenvalues, unscaled except for SY+YY
   #     SY Real        SY Imag          SS             YY         SY+YY Real      SY+YY Imag
   1   1.167396E+00   0.000000E+00   1.129341E+00   2.320129E+00   3.861083E+00   0.000000E+00
   2   4.139029E-15   0.000000E+00   5.227860E-02   6.797877E-01   8.308005E-05   0.000000E+00
   3   1.053796E-01   0.000000E+00   9.227442E-17   8.366586E-05   1.194630E+00   0.000000E+00
 
:INFO :  Singular value  3.862E+00 Weight  1.000E+00 Projection -2.806E-02
:INFO :  Singular value  1.194E+00 Weight  1.000E+00 Projection -3.690E-01
:INFO :  Singular value  8.308E-05 Weight  1.137E-01 Projection -9.901E-02
:RANK :  ACTIVE   2.11/3  =  70.46 % ; YY RANK   2.12/3  =  70.50 %
 
:BLIM :  VZERO Control Off
:TRUST:  Step 2.40E-01  Charge 7.50E-02 (e) CTO  2.50E-01 (e) PW  3.50E-01 (e)
:DTRUS:  Lambda    4.648E-02 Increment    3.638E-12 Iterations    99 DMIX    6.514E-02
:INFOA:  Angle SubSpace to MSR1      2.29
:DIRM :  MEMORY  3/12 SCALE   1.000 RED  0.94 PRED  0.96 NEXT  0.95 
:INFO :  Limited by Atoms F by Step T

:TRAVE:  Charge 2.82E-03 (e) CTO  5.64E-03 (e) PW  4.51E-02 (e)
:DIRP :  |MSR1|= 1.031E-01 |PRATT|= 1.121E-01 ANGLE=  39.8 DEGREES
:DIRQ :  |MSR1|= 1.032E-01 |PRATT|= 5.986E-01 ANGLE=  10.6 DEGREES
:DIRT :  |MSR1|= 1.459E-01 |PRATT|= 6.091E-01 ANGLE=  38.4 DEGREES
:MIX  :   MSE1   REGULARIZATION:  2.32E-04 GREED: 0.07104  LMStep 0.92  0.2395 Step           
     
       CHARGES OF MIXED CHARGE DENSITY
:CTO   : INTERSTITIAL CHARGE =     6.997090
:CPC   : PW Pseudocharge     =    16.741394
:CTO001: CHARGE SPHERE  1    =    55.501455

:NEC03: NUCLEAR AND ELECTRONIC CHARGE    118.00000   118.00000

PW CHANGE     H    K    L      Current       Change    Residue
:PTO001:      0    0    0  4.72806624E-02 -3.884E-04  1.831E-04
:PTO003:      0    2    0  1.34071653E-02 -1.059E-04  4.305E-04
:PTO004:     -1    1    0  6.60715971E-02 -1.028E-03 -8.693E-05
:PTO005:      0    2   -1 -7.70435380E-02  1.321E-03  8.334E-04
:PTO006:      0    0   -2 -3.99512226E-02  7.159E-04  5.856E-04
:PTO007:     -1    1   -1 -8.41431271E-02  1.715E-03  1.706E-03
:PTO008:      0    2   -2 -1.40848916E-02  3.337E-04  2.355E-04
:PTO009:     -1    1   -2 -7.15072931E-02  1.662E-03  4.395E-04
:PTO011:     -1    3    0 -1.17347469E-02  3.652E-04  2.840E-04
:PTO012:     -1    3   -1 -5.36695284E-02  1.618E-03  3.340E-04
:PTO013:      0    4    0 -1.00846812E-02  3.869E-04  3.713E-04
:PTO014:      0    2   -3  2.28472988E-02 -8.022E-04 -4.024E-04

:ENE  : ********** TOTAL ENERGY IN Ry =       -36944.14040655

       TOTAL FORCE IN mRy/a.u. = |F|     Fx             Fy             Fz     with/without FOR in case.in2
:FOR001:   1.ATOM         37.040          0.000          0.000        -37.040 partial forces
       TOTAL FORCE WITH RESPECT TO GLOBAL CARTESIAN COORDINATES:
:FCA001:   1.ATOM                         0.000        -37.040          0.000 partial forces
       TOTAL FORCE WITH RESPECT TO THE GLOBAL COORDINATE SYSTEM:
:FGL001:   1.ATOM                 0.000000000   -37.040445369     0.000000000 partial forces
 Flat Integration
 New Mode for Coulomb Integral
 Consistent 3/8+Simpson combinations
 Extension of core to zero
 LDM version in phi
 Fifth-order quadrature in outwin


            ---------
:ITE005:  5. ITERATION
            ---------

:NATO :    1 INDEPENDENT AND    2 TOTAL ATOMS IN UNITCELL
       SUBSTANCE: aU                                                          

       LATTICE                      = CXY 
:POT  : POTENTIAL OPTION EX_LDA EC_LDA VX_LDA VC_LDA
:LAT  : LATTICE CONSTANTS=  6.56123 13.31438 11.49459    1.571    1.571    1.571
:VOL  : UNIT CELL VOLUME =     502.07598
       MODE OF CALCULATION IS       = RELA
       NON-SPINPOLARIZED CALCULATION
:IFFT  : FFT-parameters:   54  108   90 Factor: 2.00


   CONVERGENCE PARAMETER FOR PSEUDOCHARGE: NCON=  9
   MAXIMAL VALUE OF RMT(JATOM)*ABSK(NKK) : RK  =27.59428


:VKCOUL :  VK-COUL convergence: 0.653E-07
       ATOMNUMBER=  1 Pr1        VCOUL-ZERO =  0.24470E-01
:EFG001:                        EFG         =    -1.14705   *10**21  V / m**2
                               V20  TOT/SRF=    -0.99337    -0.02349
                               V22  TOT/SRF=    -0.10766     0.00135
                               V22M TOT/SRF=     0.00000     0.00000
                               V21  TOT/SRF=     0.00000     0.00000
                               V21M TOT/SRF=     0.00000     0.00000

              0.46586    0.00000    0.00000        0.46586    0.00000    0.00000
              0.00000    0.68119    0.00000        0.00000    0.68119    0.00000
              0.00000    0.00000   -1.14705        0.00000    0.00000   -1.14705

         MAIN DIRECTIONS OF THE EFG   1.0000  0.0000  0.0000
                                      0.0000  1.0000  0.0000
                                      0.0000  0.0000  1.0000
:ANG001:  ANGLE WITH OLD X-AXIS =         0.0

:ETA001:                         ASYMM. ETA =     0.18772


     HELLMANN-FEYNMAN-FORCE IN mRy/a.u. = |F|  Fx       Fy             Fz
:FHF001:   1.ATOM    391.874602133554      0.000000000000      0.000000000000   -391.874602133554

:FIT001: LUSE= 13 SIGMA OF V-XC FIT FOR ATOM  1  0.5800779E-05
:FIT001: LUSE= 13 SIGMA OF V-XC FIT FOR ATOM  1  0.5800779E-05
:DEN  : DENSITY INTEGRAL  =        -14144.04424860   (Ry)
       ELS_POTENTIAL_AT Z=0 and Z=0.5:   0.69210   0.69210
       ELS_POTENTIAL_AT Y=0 and Y=0.5:   0.07415   0.07415
:VZERO:v0,v0c,v0x   0.12954   0.69210  -0.56255 v5,v5c,v5x   0.12954   0.69210  -0.56255
:VZERY:v0,v0c,v0x  -0.67993   0.07415  -0.75408 v5,v5c,v5x  -0.67993   0.07415  -0.75408
:VZERX:v0,v0c,v0x  -1.09483  -0.37127  -0.72356 v5,v5c,v5x  -1.09483  -0.37127  -0.72356
:LMAX-WF:   10   Non-Spherical LMAX:   4

          ATOMIC SPHERE DEPENDENT PARAMETERS FOR ATOM  Pr1       
:e__0001: OVERALL ENERGY PARAMETER IS    0.3942
          OVERALL BASIS SET ON ATOM IS LAPW
:E0_0001: E( 0)=    0.3942
             APW+lo
:E0_0001: E( 0)=   -2.0811   E(BOTTOM)=   -2.717   E(TOP)=   -1.445  4  5   173
             LOCAL ORBITAL
:E1_0001: E( 1)=    0.7942
             APW+lo
:E1_0001: E( 1)=   -0.6113   E(BOTTOM)=   -1.569   E(TOP)=    0.347  3  4   195
             LOCAL ORBITAL
:E3_0001: E( 3)=    0.5725   E(BOTTOM)=    0.365   E(TOP)=    0.780  0  1   119
             APW+lo
:E2_0001: E( 2)=    0.3942   E(BOTTOM)=    0.172   E(TOP)= -200.000  2 -1    95
             APW+lo

       K=   0.06250   0.00000   0.06250            1
:RKM  : MATRIX SIZE   463LOs:  40  RKM= 8.50  WEIGHT= 4.00  PGR:    
       EIGENVALUES ARE:
:EIG00001:      -2.0500047   -2.0381565   -0.7703528   -0.7042060   -0.6890624
:EIG00006:      -0.6829385   -0.6767273   -0.6764480    0.3549688    0.4956936
:EIG00011:       0.5839615    0.5852549    0.5853663    0.5876527    0.5908249
:EIG00016:       0.6010682    0.6047115    0.6053970    0.6078746    0.6094917
:EIG00021:       0.6139614    0.6163093    0.6166025    0.6216040    0.6564988
:EIG00026:       0.6697328    0.7415755    0.7595884    0.7778008    0.8144686
:EIG00031:       0.8307680    0.9099975    0.9545992    0.9957517    1.2728764
:EIG00036:       1.2934676    1.3823153    1.3823822    1.5369648    1.5897132
:EIG00041:       1.6433643    1.7458834    1.8166878    1.8341659    1.9254415
:EIG00046:       1.9846522    1.9967788    2.0503898
 
       ********************************************************

:KPT   :      NUMBER OF K-POINTS:   288
:GAP (global)   :    0.0    Ry =     0.0   eV (metal)
         Bandranges (emin - emax) and occupancy:
:BAN00004:   4   -0.757241   -0.704206  2.00000000
:BAN00005:   5   -0.748326   -0.689062  2.00000000
:BAN00006:   6   -0.734852   -0.679677  2.00000000
:BAN00007:   7   -0.718111   -0.676721  2.00000000
:BAN00008:   8   -0.692669   -0.673721  2.00000000
:BAN00009:   9    0.350222    0.561400  2.00000000
:BAN00010:  10    0.457917    0.570440  2.00000000
:BAN00011:  11    0.531758    0.583962  2.00000000
:BAN00012:  12    0.567894    0.589847  1.99995562
:BAN00013:  13    0.577469    0.597417  1.51720941
:BAN00014:  14    0.584944    0.601730  0.48283497
:BAN00015:  15    0.589985    0.603396  0.00000000
:BAN00016:  16    0.594706    0.604684  0.00000000
:BAN00017:  17    0.598196    0.606476  0.00000000
:BAN00018:  18    0.599953    0.607194  0.00000000
:BAN00019:  19    0.602613    0.610007  0.00000000
        Energy to separate low and high energystates:    0.30022


:NOE  : NUMBER OF ELECTRONS          =   26.000

:FER  : F E R M I - ENERGY(TETRAH.M.)=   0.5896171853
:GMA  : POTENTIAL AND CHARGE CUT-OFF  12.00 Ry**.5

:POS001: ATOM   -1 X,Y,Z = 0.00000 0.89750 0.25000  MULT= 2  ZZ= 59.000  Pr1       

       LMMAX 16
       LM=   0 0  1 0  2 0  2 2  3 0  3 2  4 0  4 2  4 4  5 0  5 2  5 4  6 0  6 2  6 4  6 6

:CHA001: TOTAL VALENCE CHARGE INSIDE SPHERE   1 =   9.4989    (RMT=  2.3000 )
:PCS001: PARTIAL CHARGES SPHERE =  1 S,P,D,F,PX,PY,PZ,D-Z2,D-X2Y2,D-XY,D-XZ,D-YZ 
:QTL001: 1.9402 5.0192 0.4903 2.0490 1.6699 1.6704 1.6789 0.0905 0.0894 0.1076 0.0950 0.1077
        Q-s-low E-s-low   Q-p-low E-p-low   Q-d-low E-d-low   Q-f-low E-f-low
:EPL001:  1.8695 -2.0384    4.9561 -0.7153    0.0013 -0.7391    0.0004 -0.7493
        Q-s-hi  E-s-hi    Q-p-hi  E-p-hi    Q-d-hi  E-d-hi    Q-f-hi  E-f-hi 
:EPH001:  0.0707  0.4894    0.0631  0.5279    0.4890  0.5432    2.0486  0.5773

                      VXX         VYY         VZZ       UP TO R
:VZZ001:             4.09013     3.70730    -7.79743       2.300

:CHA  : TOTAL VALENCE CHARGE INSIDE UNIT CELL =      26.000000

:SUM  : SUM OF EIGENVALUES =         -11.248747402


        1.ATOM      Pr1                  14 CORE STATES
       CORE-FORCE in mRy/a.u. = |F|      Fx             Fy             Fz
:FCO001:   1.ATOM    385.526286990414      0.000000000000      0.000000000000    385.526286990414

:1S 001: 1S               -3066.999758731 Ry
:2S 001: 2S                -492.761704733 Ry
:2PP001: 2P*               -465.859850237 Ry
:2P 001: 2P                -430.462825488 Ry
:3S 001: 3S                -105.855603940 Ry
:3PP001: 3P*                -94.393242858 Ry
:3P 001: 3P                 -87.385587331 Ry
:3DD001: 3D*                -67.312456829 Ry
:3D 001: 3D                 -65.800950809 Ry
:4S 001: 4S                 -20.533446705 Ry
:4PP001: 4P*                -16.240104434 Ry
:4P 001: 4P                 -14.712535658 Ry
:4DD001: 4D*                 -7.645288616 Ry
:4D 001: 4D                  -7.375837877 Ry
:CINT001 Core Integral Atom   1   45.998492

       DENSITY AT NUCLEUS
        JATOM        VALENCE       SEMI-CORE          CORE           TOTAL
:RTO001:   1      647.667179        0.000000   656823.056395   657470.723574
     
       CHARGES OF NEW CHARGE DENSITY
:NTO   : INTERSTITIAL CHARGE =     7.002278
:NPC   : PW Pseudocharge     =    16.878948
:NTO001: CHARGE SPHERE  1    =    55.497352

:NEC01: NUCLEAR AND ELECTRONIC CHARGE    118.00000   117.99698
     
       CHARGES OF OLD CHARGE DENSITY
:OTO   : INTERSTITIAL CHARGE =     6.997090
:OPC   : PW Pseudocharge     =    16.741394
:OTO001: CHARGE SPHERE  1    =    55.501455

:NEC02: NUCLEAR AND ELECTRONIC CHARGE    118.00000   118.00000
     
       CONVERGENCE TEST
:DTO001: DIFFERENCE IN SPHERE  1 =  0.0748482

:DIS  :  CHARGE DISTANCE       ( 0.0748482 for atom    1 spin 1)      0.0748482
 PW Mixed is          517
 
******************************************************
* MULTISECANT MIXING VER9 RELEASE 10.4.0              *
* Standard Mode with controls                        *
* Fixed density scale                                *
* Regularization       1.000E-04                     *
* Trust Upper Limit    5.000E+00                     *
* Max Number of Memory Steps    8                    *
******************************************************
 
:PWTMP   4.0015E+02  1.9467E+02  5.0208E+02
:PLANE:  PW TOTAL      4.4920 DISTAN   6.66E-02  1.48E+00 %
:CHARG:  CLM/ATOM   1382.0222 DISTAN   4.79E-01  3.46E-02 %
 
Step History
        DMIX         DMIXT        Red     Pred      Trust     Lambda    MagRel    MagAbs     Beta
  1   3.5000E-02   3.5000E-02 -1.00E+00  1.00E+00 -1.00E+01  1.00E+00  3.50E-02  3.50E-02  1.00E+00
  2   2.5000E-02   2.5000E-02  7.39E-01  1.00E+00 -1.00E+01  1.00E+00  2.50E-02  2.31E-02  1.00E+00
  3   3.0085E-02   3.0085E-02  9.52E-01  1.00E+00 -1.00E+01  6.25E-02  3.01E-02  2.05E-02  1.00E+00
  4   3.2585E-02   3.2585E-02  9.39E-01  9.57E-01  2.01E-01  1.62E+00  4.43E-02  2.87E-02  9.13E-01
  5   7.1040E-02   6.5137E-02 -1.00E+00  9.53E-01  2.40E-01  1.00E+00  2.40E-01  1.46E-01  1.00E+00
:JACOBIANS    8.970E-01   2.268E-01
  
:NORMS:  1/Froebius, Min, Max, Used   0.5480E+00  0.3516E+00  0.9979E+00  0.5486E+00
:INFO :  Number of Memory Steps    4 Skipping    0
:INFO :  SLambda=    0.7492046341  Max    0.7492046341
:PREDicted Charge, CTotal, PW Trust    2.132E-03   4.264E-03   3.750E-02
:PREDicted DMix, Beta, BLim   2.6189E-01  1.6191E+00  4.9641E-01

Eigenvalues, unscaled except for SY+YY
   #     SY Real        SY Imag          SS             YY         SY+YY Real      SY+YY Imag
   1   8.201748E-01   0.000000E+00   7.895756E-01   3.141992E+00   3.591489E+00   0.000000E+00
   2   5.213224E-01   0.000000E+00   4.116137E-01   8.456994E-01   1.399841E+00   0.000000E+00
   3   4.376909E-15   0.000000E+00   1.159075E-04   1.227172E-02   3.677660E-05   0.000000E+00
   4   1.721689E-03   0.000000E+00  -3.641396E-17   3.680119E-05   1.497896E-02   0.000000E+00
 
:INFO :  Singular value  3.592E+00 Weight  1.000E+00 Projection -1.297E-01
:INFO :  Singular value  1.400E+00 Weight  1.000E+00 Projection -3.405E-02
:INFO :  Singular value  1.498E-02 Weight  9.996E-01 Projection -2.394E+00
:INFO :  Singular value  3.678E-05 Weight  1.352E-02 Projection -1.461E-01
:RANK :  ACTIVE   3.01/4  =  75.33 % ; YY RANK   3.01/4  =  75.32 %
 
:BLIM :  VZERO Control Off
:TRUST:  Step 3.60E-01  Charge 7.50E-02 (e) CTO  2.50E-01 (e) PW  3.50E-01 (e)
:DTRUS:  Lambda    9.275E-01 Increment    7.276E-12 Iterations   106 DMIX    1.468E-01
:INFOA:  Angle SubSpace to MSR1      4.05
:DIRM :  MEMORY  4/8  SCALE   1.000 RED  0.79 PRED  0.95 NEXT  0.86 
:INFO :  Limited by Atoms F by Step T

:TRAVE:  Charge 2.00E-03 (e) CTO  4.01E-03 (e) PW  3.46E-02 (e)
:DIRP :  |MSR1|= 2.529E-02 |PRATT|= 6.661E-02 ANGLE=   7.6 DEGREES
:DIRQ :  |MSR1|= 1.723E-01 |PRATT|= 4.789E-01 ANGLE=   5.3 DEGREES
:DIRT :  |MSR1|= 1.742E-01 |PRATT|= 4.835E-01 ANGLE=   5.4 DEGREES
:MIX  :   MSD1   REGULARIZATION:  3.14E-04 GREED: 0.15653  LMStep 0.80  0.3602 Step           
     
       CHARGES OF MIXED CHARGE DENSITY
:CTO   : INTERSTITIAL CHARGE =     6.999468
:CPC   : PW Pseudocharge     =    16.801109
:CTO001: CHARGE SPHERE  1    =    55.500266

:NEC03: NUCLEAR AND ELECTRONIC CHARGE    118.00000   118.00000

PW CHANGE     H    K    L      Current       Change    Residue
:PTO001:      0    0    0  4.74043348E-02  1.237E-04  3.048E-04
:PTO003:      0    2    0  1.34936357E-02  8.647E-05  2.596E-04
:PTO004:     -1    1    0  6.63481545E-02  2.766E-04  7.139E-04
:PTO005:      0    2   -1 -7.72806501E-02 -2.371E-04 -5.024E-04
:PTO006:      0    0   -2 -4.00576477E-02 -1.064E-04 -2.043E-04
:PTO007:     -1    1   -1 -8.43012417E-02 -1.581E-04 -2.579E-04
:PTO008:      0    2   -2 -1.40882443E-02 -3.353E-06 -4.093E-07
:PTO009:     -1    1   -2 -7.20671925E-02 -5.599E-04 -1.381E-03
:PTO011:     -1    3    0 -1.18292819E-02 -9.453E-05 -2.139E-04
:PTO012:     -1    3   -1 -5.41203177E-02 -4.508E-04 -1.140E-03
:PTO013:      0    4    0 -1.01110261E-02 -2.634E-05 -3.232E-05
:PTO014:      0    2   -3  2.30389202E-02  1.916E-04  4.365E-04

:ENE  : ********** TOTAL ENERGY IN Ry =       -36944.13885816

       TOTAL FORCE IN mRy/a.u. = |F|     Fx             Fy             Fz     with/without FOR in case.in2
:FOR001:   1.ATOM          6.348          0.000          0.000         -6.348 partial forces
       TOTAL FORCE WITH RESPECT TO GLOBAL CARTESIAN COORDINATES:
:FCA001:   1.ATOM                         0.000         -6.348          0.000 partial forces
       TOTAL FORCE WITH RESPECT TO THE GLOBAL COORDINATE SYSTEM:
:FGL001:   1.ATOM                 0.000000000    -6.348315143     0.000000000 partial forces
 Flat Integration
 New Mode for Coulomb Integral
 Consistent 3/8+Simpson combinations
 Extension of core to zero
 LDM version in phi
 Fifth-order quadrature in outwin


            ---------
:ITE006:  6. ITERATION
            ---------

:NATO :    1 INDEPENDENT AND    2 TOTAL ATOMS IN UNITCELL
       SUBSTANCE: aU                                                          

       LATTICE                      = CXY 
:POT  : POTENTIAL OPTION EX_LDA EC_LDA VX_LDA VC_LDA
:LAT  : LATTICE CONSTANTS=  6.56123 13.31438 11.49459    1.571    1.571    1.571
:VOL  : UNIT CELL VOLUME =     502.07598
       MODE OF CALCULATION IS       = RELA
       NON-SPINPOLARIZED CALCULATION
:IFFT  : FFT-parameters:   54  108   90 Factor: 2.00


   CONVERGENCE PARAMETER FOR PSEUDOCHARGE: NCON=  9
   MAXIMAL VALUE OF RMT(JATOM)*ABSK(NKK) : RK  =27.59428


:VKCOUL :  VK-COUL convergence: 0.938E-07
       ATOMNUMBER=  1 Pr1        VCOUL-ZERO =  0.24114E-01
:EFG001:                        EFG         =    -3.78181   *10**21  V / m**2
                               V20  TOT/SRF=    -3.27514    -0.02424
                               V22  TOT/SRF=     0.29140     0.00148
                               V22M TOT/SRF=     0.00000     0.00000
                               V21  TOT/SRF=     0.00000     0.00000
                               V21M TOT/SRF=     0.00000     0.00000

              2.18231    0.00000    0.00000        2.18231    0.00000    0.00000
              0.00000    1.59950    0.00000        0.00000    1.59950    0.00000
              0.00000    0.00000   -3.78181        0.00000    0.00000   -3.78181

         MAIN DIRECTIONS OF THE EFG   1.0000  0.0000  0.0000
                                      0.0000  1.0000  0.0000
                                      0.0000  0.0000  1.0000
:ANG001:  ANGLE WITH OLD X-AXIS =         0.0

:ETA001:                         ASYMM. ETA =     0.15411


     HELLMANN-FEYNMAN-FORCE IN mRy/a.u. = |F|  Fx       Fy             Fz
:FHF001:   1.ATOM    686.383471518416      0.000000000000      0.000000000000   -686.383471518416

:FIT001: LUSE= 13 SIGMA OF V-XC FIT FOR ATOM  1  0.1925183E-04
:FIT001: LUSE= 13 SIGMA OF V-XC FIT FOR ATOM  1  0.1925183E-04
:DEN  : DENSITY INTEGRAL  =        -14143.70196100   (Ry)
       ELS_POTENTIAL_AT Z=0 and Z=0.5:   0.69357   0.69357
       ELS_POTENTIAL_AT Y=0 and Y=0.5:   0.07706   0.07706
:VZERO:v0,v0c,v0x   0.13058   0.69357  -0.56298 v5,v5c,v5x   0.13058   0.69357  -0.56298
:VZERY:v0,v0c,v0x  -0.67771   0.07706  -0.75476 v5,v5c,v5x  -0.67771   0.07706  -0.75476
:VZERX:v0,v0c,v0x  -1.09616  -0.37179  -0.72437 v5,v5c,v5x  -1.09616  -0.37179  -0.72437
:LMAX-WF:   10   Non-Spherical LMAX:   4

          ATOMIC SPHERE DEPENDENT PARAMETERS FOR ATOM  Pr1       
:e__0001: OVERALL ENERGY PARAMETER IS    0.3911
          OVERALL BASIS SET ON ATOM IS LAPW
:E0_0001: E( 0)=    0.3911
             APW+lo
:E0_0001: E( 0)=   -2.0830   E(BOTTOM)=   -2.719   E(TOP)=   -1.448  4  5   172
             LOCAL ORBITAL
:E1_0001: E( 1)=    0.7911
             APW+lo
:E1_0001: E( 1)=   -0.6132   E(BOTTOM)=   -1.571   E(TOP)=    0.344  3  4   197
             LOCAL ORBITAL
:E3_0001: E( 3)=    0.5706   E(BOTTOM)=    0.363   E(TOP)=    0.778  0  1   122
             APW+lo
:E2_0001: E( 2)=    0.3911   E(BOTTOM)=    0.170   E(TOP)= -200.000  2 -1    93
             APW+lo

       K=   0.06250   0.00000   0.06250            1
:RKM  : MATRIX SIZE   463LOs:  40  RKM= 8.50  WEIGHT= 4.00  PGR:    
       EIGENVALUES ARE:
:EIG00001:      -2.0518213   -2.0400330   -0.7720956   -0.7051370   -0.6899670
:EIG00006:      -0.6844210   -0.6787112   -0.6782479    0.3554237    0.4956965
:EIG00011:       0.5836445    0.5837616    0.5838206    0.5864158    0.5897760
:EIG00016:       0.5987339    0.6025415    0.6027672    0.6052031    0.6077857
:EIG00021:       0.6114663    0.6155640    0.6155901    0.6198220    0.6557116
:EIG00026:       0.6699116    0.7412138    0.7594899    0.7777679    0.8143103
:EIG00031:       0.8305984    0.9093357    0.9537307    0.9950838    1.2723475
:EIG00036:       1.2937373    1.3824825    1.3825454    1.5369386    1.5903080
:EIG00041:       1.6440594    1.7463553    1.8164282    1.8346031    1.9253737
:EIG00046:       1.9849116    1.9969266    2.0504626
 
       ********************************************************

:KPT   :      NUMBER OF K-POINTS:   288
:GAP (global)   :    0.0    Ry =     0.0   eV (metal)
         Bandranges (emin - emax) and occupancy:
:BAN00004:   4   -0.758529   -0.705137  2.00000000
:BAN00005:   5   -0.749671   -0.689967  2.00000000
:BAN00006:   6   -0.736128   -0.681164  2.00000000
:BAN00007:   7   -0.719060   -0.678711  2.00000000
:BAN00008:   8   -0.694238   -0.675254  2.00000000
:BAN00009:   9    0.350677    0.561538  2.00000000
:BAN00010:  10    0.458179    0.569755  2.00000000
:BAN00011:  11    0.531533    0.583644  2.00000000
:BAN00012:  12    0.567472    0.588170  1.99999878
:BAN00013:  13    0.576779    0.595718  1.51495906
:BAN00014:  14    0.583110    0.600364  0.48504216
:BAN00015:  15    0.588544    0.601580  0.00000000
:BAN00016:  16    0.593096    0.602874  0.00000000
:BAN00017:  17    0.596174    0.605296  0.00000000
:BAN00018:  18    0.598357    0.605319  0.00000000
:BAN00019:  19    0.601264    0.607826  0.00000000
        Energy to separate low and high energystates:    0.30068


:NOE  : NUMBER OF ELECTRONS          =   26.000

:FER  : F E R M I - ENERGY(TETRAH.M.)=   0.5881356152
:GMA  : POTENTIAL AND CHARGE CUT-OFF  12.00 Ry**.5

:POS001: ATOM   -1 X,Y,Z = 0.00000 0.89750 0.25000  MULT= 2  ZZ= 59.000  Pr1       

       LMMAX 16
       LM=   0 0  1 0  2 0  2 2  3 0  3 2  4 0  4 2  4 4  5 0  5 2  5 4  6 0  6 2  6 4  6 6

:CHA001: TOTAL VALENCE CHARGE INSIDE SPHERE   1 =   9.5253    (RMT=  2.3000 )
:PCS001: PARTIAL CHARGES SPHERE =  1 S,P,D,F,PX,PY,PZ,D-Z2,D-X2Y2,D-XY,D-XZ,D-YZ 
:QTL001: 1.9399 5.0199 0.4825 2.0828 1.6705 1.6706 1.6788 0.0887 0.0873 0.1072 0.0933 0.1061
        Q-s-low E-s-low   Q-p-low E-p-low   Q-d-low E-d-low   Q-f-low E-f-low
:EPL001:  1.8696 -2.0402    4.9580 -0.7167    0.0012 -0.7403    0.0004 -0.7492
        Q-s-hi  E-s-hi    Q-p-hi  E-p-hi    Q-d-hi  E-d-hi    Q-f-hi  E-f-hi 
:EPH001:  0.0703  0.4892    0.0619  0.5271    0.4812  0.5425    2.0824  0.5761

                      VXX         VYY         VZZ       UP TO R
:VZZ001:             0.83179     3.80751    -4.63929       2.300

:CHA  : TOTAL VALENCE CHARGE INSIDE UNIT CELL =      26.000000

:SUM  : SUM OF EIGENVALUES =         -11.279015211


        1.ATOM      Pr1                  14 CORE STATES
       CORE-FORCE in mRy/a.u. = |F|      Fx             Fy             Fz
:FCO001:   1.ATOM    690.891814328535      0.000000000000      0.000000000000    690.891814328535

:1S 001: 1S               -3067.009689954 Ry
:2S 001: 2S                -492.767477086 Ry
:2PP001: 2P*               -465.866170321 Ry
:2P 001: 2P                -430.468905553 Ry
:3S 001: 3S                -105.858432054 Ry
:3PP001: 3P*                -94.396227375 Ry
:3P 001: 3P                 -87.388427705 Ry
:3DD001: 3D*                -67.315565419 Ry
:3D 001: 3D                 -65.804009915 Ry
:4S 001: 4S                 -20.535183491 Ry
:4PP001: 4P*                -16.241897269 Ry
:4P 001: 4P                 -14.714380600 Ry
:4DD001: 4D*                 -7.647209163 Ry
:4D 001: 4D                  -7.377772838 Ry
:CINT001 Core Integral Atom   1   45.998492

       DENSITY AT NUCLEUS
        JATOM        VALENCE       SEMI-CORE          CORE           TOTAL
:RTO001:   1      647.654988        0.000000   656823.959102   657471.614091
     
       CHARGES OF NEW CHARGE DENSITY
:NTO   : INTERSTITIAL CHARGE =     6.949432
:NPC   : PW Pseudocharge     =    16.869376
:NTO001: CHARGE SPHERE  1    =    55.523776

:NEC01: NUCLEAR AND ELECTRONIC CHARGE    118.00000   117.99698
     
       CHARGES OF OLD CHARGE DENSITY
:OTO   : INTERSTITIAL CHARGE =     6.999468
:OPC   : PW Pseudocharge     =    16.801109
:OTO001: CHARGE SPHERE  1    =    55.500266

:NEC02: NUCLEAR AND ELECTRONIC CHARGE    118.00000   118.00000
     
       CONVERGENCE TEST
:DTO001: DIFFERENCE IN SPHERE  1 =  0.0628841

:DIS  :  CHARGE DISTANCE       ( 0.0628841 for atom    1 spin 1)      0.0628841
 PW Mixed is          517
 
******************************************************
* MULTISECANT MIXING VER9 RELEASE 10.4.0              *
* Standard Mode with controls                        *
* Fixed density scale                                *
* Regularization       1.000E-04                     *
* Trust Upper Limit    5.000E+00                     *
* Max Number of Memory Steps    8                    *
******************************************************
 
:PWTMP   4.0015E+02  1.9467E+02  5.0208E+02
:PLANE:  PW TOTAL      4.5085 DISTAN   4.08E-02  9.04E-01 %
:CHARG:  CLM/ATOM   1381.9918 DISTAN   3.15E-01  2.28E-02 %
 
Step History
        DMIX         DMIXT        Red     Pred      Trust     Lambda    MagRel    MagAbs     Beta
  1   3.5000E-02   3.5000E-02 -1.00E+00  1.00E+00 -1.00E+01  1.00E+00  3.50E-02  3.50E-02  1.00E+00
  2   2.5000E-02   2.5000E-02  7.39E-01  1.00E+00 -1.00E+01  1.00E+00  2.50E-02  2.31E-02  1.00E+00
  3   3.0085E-02   3.0085E-02  9.52E-01  1.00E+00 -1.00E+01  6.25E-02  3.01E-02  2.05E-02  1.00E+00
  4   3.2585E-02   3.2585E-02  9.39E-01  9.57E-01  2.01E-01  1.62E+00  4.43E-02  2.87E-02  9.13E-01
  5   7.1040E-02   6.5137E-02  7.94E-01  9.53E-01  2.40E-01  7.49E-01  2.40E-01  1.46E-01  1.00E+00
  6   1.5653E-01   1.4678E-01 -1.00E+00  8.62E-01  3.60E-01  1.00E+00  3.60E-01  1.74E-01  1.00E+00
:JACOBIANS    9.544E-01   5.905E-01
  
:NORMS:  1/Froebius, Min, Max, Used   0.7045E+00  0.3927E+00  0.9979E+00  0.7113E+00
:INFO :  Number of Memory Steps    5 Skipping    0
:INFO :  SLambda=    0.7857993696  Max    0.7857993696
:PREDicted Charge, CTotal, PW Trust    4.956E-04   9.913E-04   5.167E-02
:PREDicted DMix, Beta, BLim   4.0975E-01  1.8105E+00  8.6461E-01

Eigenvalues, unscaled except for SY+YY
   #     SY Real        SY Imag          SS             YY         SY+YY Real      SY+YY Imag
   1   2.135192E+00   0.000000E+00   1.991548E+00   3.936171E+00   5.583009E+00   0.000000E+00
   2   4.957724E-01   0.000000E+00   4.817038E-01   6.660736E-01   1.034397E+00   0.000000E+00
   3   5.925429E-02   0.000000E+00   8.149384E-03   3.916161E-01   4.896581E-01   0.000000E+00
   4   2.562420E-15   0.000000E+00   3.876373E-05   6.116144E-03   2.323676E-05   0.000000E+00
   5   6.293724E-04   0.000000E+00   1.747404E-16   2.318577E-05   7.379812E-03   0.000000E+00
 
:INFO :  Singular value  5.585E+00 Weight  1.000E+00 Projection -1.089E-01
:INFO :  Singular value  1.034E+00 Weight  1.000E+00 Projection -7.869E-02
:INFO :  Singular value  4.895E-01 Weight  1.000E+00 Projection -2.861E-02
:INFO :  Singular value  7.380E-03 Weight  9.972E-01 Projection -2.774E+00
:INFO :  Singular value  2.324E-05 Weight  3.473E-03 Projection -6.343E-02
:RANK :  ACTIVE   4.00/5  =  80.01 % ; YY RANK   4.00/5  =  79.99 %
 
:BLIM :  VZERO Control Off
:TRUST:  Step 5.77E-01  Charge 7.50E-02 (e) CTO  2.50E-01 (e) PW  3.50E-01 (e)
:DTRUS:  Lambda    5.361E-01 Increment    7.276E-12 Iterations   107 DMIX    2.456E-01
:INFOA:  Angle SubSpace to MSR1      2.06
:DIRM :  MEMORY  5/8  SCALE   1.000 RED  0.66 PRED  0.86 NEXT  0.53 
:INFO :  Limited by Atoms F by Step T

:TRAVE:  Charge 2.16E-03 (e) CTO  4.32E-03 (e) PW  2.73E-02 (e)
:DIRP :  |MSR1|= 2.630E-02 |PRATT|= 4.076E-02 ANGLE=   9.0 DEGREES
:DIRQ :  |MSR1|= 1.814E-01 |PRATT|= 3.148E-01 ANGLE=  20.1 DEGREES
:DIRT :  |MSR1|= 1.833E-01 |PRATT|= 3.174E-01 ANGLE=  20.0 DEGREES
:MIX  :   MSD1   REGULARIZATION:  3.94E-04 GREED: 0.25680  LMStep 0.80  0.5775 Step           
     
       CHARGES OF MIXED CHARGE DENSITY
:CTO   : INTERSTITIAL CHARGE =     6.994827
:CPC   : PW Pseudocharge     =    16.857568
:CTO001: CHARGE SPHERE  1    =    55.502587

:NEC03: NUCLEAR AND ELECTRONIC CHARGE    118.00000   118.00000

PW CHANGE     H    K    L      Current       Change    Residue
:PTO001:      0    0    0  4.75075392E-02  1.032E-04  5.690E-05
:PTO003:      0    2    0  1.34920448E-02 -1.591E-06  3.793E-06
:PTO004:     -1    1    0  6.65674376E-02  2.193E-04  3.529E-04
:PTO005:      0    2   -1 -7.75376981E-02 -2.570E-04 -4.080E-04
:PTO006:      0    0   -2 -4.01356533E-02 -7.801E-05 -6.084E-05
:PTO007:     -1    1   -1 -8.44997281E-02 -1.985E-04 -2.914E-04
:PTO008:      0    2   -2 -1.40450659E-02  4.318E-05  6.643E-05
:PTO009:     -1    1   -2 -7.26089653E-02 -5.418E-04 -7.927E-04
:PTO011:     -1    3    0 -1.19904470E-02 -1.612E-04 -2.639E-04
:PTO012:     -1    3   -1 -5.45557540E-02 -4.354E-04 -7.324E-04
:PTO013:      0    4    0 -1.01505181E-02 -3.949E-05 -7.583E-05
:PTO014:      0    2   -3  2.32024201E-02  1.635E-04  2.105E-04

:ENE  : ********** TOTAL ENERGY IN Ry =       -36944.13858697

       TOTAL FORCE IN mRy/a.u. = |F|     Fx             Fy             Fz     with/without FOR in case.in2
:FOR001:   1.ATOM          4.508          0.000          0.000          4.508 partial forces
       TOTAL FORCE WITH RESPECT TO GLOBAL CARTESIAN COORDINATES:
:FCA001:   1.ATOM                         0.000          4.508          0.000 partial forces
       TOTAL FORCE WITH RESPECT TO THE GLOBAL COORDINATE SYSTEM:
:FGL001:   1.ATOM                 0.000000000     4.508342810     0.000000000 partial forces
 Flat Integration
 New Mode for Coulomb Integral
 Consistent 3/8+Simpson combinations
 Extension of core to zero
 LDM version in phi
 Fifth-order quadrature in outwin


            ---------
:ITE007:  7. ITERATION
            ---------

:NATO :    1 INDEPENDENT AND    2 TOTAL ATOMS IN UNITCELL
       SUBSTANCE: aU                                                          

       LATTICE                      = CXY 
:POT  : POTENTIAL OPTION EX_LDA EC_LDA VX_LDA VC_LDA
:LAT  : LATTICE CONSTANTS=  6.56123 13.31438 11.49459    1.571    1.571    1.571
:VOL  : UNIT CELL VOLUME =     502.07598
       MODE OF CALCULATION IS       = RELA
       NON-SPINPOLARIZED CALCULATION
:IFFT  : FFT-parameters:   54  108   90 Factor: 2.00


   CONVERGENCE PARAMETER FOR PSEUDOCHARGE: NCON=  9
   MAXIMAL VALUE OF RMT(JATOM)*ABSK(NKK) : RK  =27.59428


:VKCOUL :  VK-COUL convergence: 0.135E-06
       ATOMNUMBER=  1 Pr1        VCOUL-ZERO =  0.23738E-01
:EFG001:                        EFG         =    -5.79819   *10**21  V / m**2
                               V20  TOT/SRF=    -5.02138    -0.02242
                               V22  TOT/SRF=     0.13724     0.00026
                               V22M TOT/SRF=     0.00000     0.00000
                               V21  TOT/SRF=     0.00000     0.00000
                               V21M TOT/SRF=     0.00000     0.00000

              3.03633    0.00000    0.00000        3.03633    0.00000    0.00000
              0.00000    2.76186    0.00000        0.00000    2.76186    0.00000
              0.00000    0.00000   -5.79819        0.00000    0.00000   -5.79819

         MAIN DIRECTIONS OF THE EFG   1.0000  0.0000  0.0000
                                      0.0000  1.0000  0.0000
                                      0.0000  0.0000  1.0000
:ANG001:  ANGLE WITH OLD X-AXIS =         0.0

:ETA001:                         ASYMM. ETA =     0.04734


     HELLMANN-FEYNMAN-FORCE IN mRy/a.u. = |F|  Fx       Fy             Fz
:FHF001:   1.ATOM   1131.354346422408      0.000000000000      0.000000000000  -1131.354346422408

:FIT001: LUSE= 13 SIGMA OF V-XC FIT FOR ATOM  1  0.4173495E-04
:FIT001: LUSE= 13 SIGMA OF V-XC FIT FOR ATOM  1  0.4173495E-04
:DEN  : DENSITY INTEGRAL  =        -14143.92963509   (Ry)
       ELS_POTENTIAL_AT Z=0 and Z=0.5:   0.69508   0.69508
       ELS_POTENTIAL_AT Y=0 and Y=0.5:   0.07694   0.07694
:VZERO:v0,v0c,v0x   0.13183   0.69508  -0.56325 v5,v5c,v5x   0.13183   0.69508  -0.56325
:VZERY:v0,v0c,v0x  -0.67781   0.07694  -0.75475 v5,v5c,v5x  -0.67781   0.07694  -0.75475
:VZERX:v0,v0c,v0x  -1.09722  -0.37227  -0.72495 v5,v5c,v5x  -1.09722  -0.37227  -0.72495
:LMAX-WF:   10   Non-Spherical LMAX:   4

          ATOMIC SPHERE DEPENDENT PARAMETERS FOR ATOM  Pr1       
:e__0001: OVERALL ENERGY PARAMETER IS    0.3891
          OVERALL BASIS SET ON ATOM IS LAPW
:E0_0001: E( 0)=    0.3891
             APW+lo
:E0_0001: E( 0)=   -2.0830   E(BOTTOM)=   -2.719   E(TOP)=   -1.447  4  5   166
             LOCAL ORBITAL
:E1_0001: E( 1)=    0.7891
             APW+lo
:E1_0001: E( 1)=   -0.6132   E(BOTTOM)=   -1.571   E(TOP)=    0.345  3  4   199
             LOCAL ORBITAL
:E3_0001: E( 3)=    0.5724   E(BOTTOM)=    0.364   E(TOP)=    0.781  0  1   117
             APW+lo
:E2_0001: E( 2)=    0.3891   E(BOTTOM)=    0.170   E(TOP)= -200.000  2 -1    90
             APW+lo

       K=   0.06250   0.00000   0.06250            1
:RKM  : MATRIX SIZE   463LOs:  40  RKM= 8.50  WEIGHT= 4.00  PGR:    
       EIGENVALUES ARE:
:EIG00001:      -2.0517360   -2.0399615   -0.7714575   -0.7057710   -0.6906799
:EIG00006:      -0.6844670   -0.6783023   -0.6781657    0.3560006    0.4960845
:EIG00011:       0.5849474    0.5857939    0.5857963    0.5879339    0.5915231
:EIG00016:       0.6009785    0.6040502    0.6047715    0.6072299    0.6093850
:EIG00021:       0.6129429    0.6165621    0.6174924    0.6218845    0.6565319
:EIG00026:       0.6702781    0.7420739    0.7595959    0.7783334    0.8143172
:EIG00031:       0.8305530    0.9097653    0.9541148    0.9953236    1.2728190
:EIG00036:       1.2941379    1.3827939    1.3831439    1.5377767    1.5909080
:EIG00041:       1.6449429    1.7471484    1.8170954    1.8352910    1.9254907
:EIG00046:       1.9856880    1.9971300    2.0510064
 
       ********************************************************

:KPT   :      NUMBER OF K-POINTS:   288
:GAP (global)   :    0.0    Ry =     0.0   eV (metal)
         Bandranges (emin - emax) and occupancy:
:BAN00004:   4   -0.758552   -0.705771  2.00000000
:BAN00005:   5   -0.749652   -0.690680  2.00000000
:BAN00006:   6   -0.736243   -0.681215  2.00000000
:BAN00007:   7   -0.719613   -0.678302  2.00000000
:BAN00008:   8   -0.694217   -0.675308  2.00000000
:BAN00009:   9    0.351250    0.562305  2.00000000
:BAN00010:  10    0.458645    0.570892  2.00000000
:BAN00011:  11    0.531862    0.584947  2.00000000
:BAN00012:  12    0.568503    0.589977  1.99994395
:BAN00013:  13    0.577698    0.597834  1.47825251
:BAN00014:  14    0.584753    0.601549  0.52180353
:BAN00015:  15    0.590665    0.603533  0.00000000
:BAN00016:  16    0.594659    0.604979  0.00000000
:BAN00017:  17    0.597936    0.606486  0.00000000
:BAN00018:  18    0.599920    0.607418  0.00000000
:BAN00019:  19    0.602852    0.609749  0.00000000
        Energy to separate low and high energystates:    0.30125


:NOE  : NUMBER OF ELECTRONS          =   26.000

:FER  : F E R M I - ENERGY(TETRAH.M.)=   0.5897214828
:GMA  : POTENTIAL AND CHARGE CUT-OFF  12.00 Ry**.5

:POS001: ATOM   -1 X,Y,Z = 0.00000 0.89750 0.25000  MULT= 2  ZZ= 59.000  Pr1       

       LMMAX 16
       LM=   0 0  1 0  2 0  2 2  3 0  3 2  4 0  4 2  4 4  5 0  5 2  5 4  6 0  6 2  6 4  6 6

[...]
     
       CONVERGENCE TEST
:DTO001: DIFFERENCE IN SPHERE  1 =  0.0002941

:DIS  :  CHARGE DISTANCE       ( 0.0002941 for atom    1 spin 1)      0.0002941
 PW Mixed is          517
 
******************************************************
* MULTISECANT MIXING VER9 RELEASE 10.4.0              *
* Standard Mode with controls                        *
* Fixed density scale                                *
* Regularization       1.000E-04                     *
* Trust Upper Limit    5.000E+00                     *
* Max Number of Memory Steps    8                    *
******************************************************
 
:PWTMP   4.0015E+02  1.9467E+02  5.0208E+02
:PLANE:  PW TOTAL      4.5311 DISTAN   5.80E-05  1.28E-03 %
:CHARG:  CLM/ATOM   1381.9448 DISTAN   4.75E-04  3.44E-05 %
 
Step History
        DMIX         DMIXT        Red     Pred      Trust     Lambda    MagRel    MagAbs     Beta
  5   7.1040E-02   6.5137E-02  7.94E-01  9.53E-01  2.40E-01  7.49E-01  2.40E-01  1.46E-01  1.00E+00
  6   1.5653E-01   1.4678E-01  6.57E-01  8.62E-01  3.60E-01  7.86E-01  3.60E-01  1.74E-01  1.00E+00
  7   2.5680E-01   2.4561E-01  3.59E-01  5.25E-01  5.77E-01  8.58E-01  5.77E-01  1.83E-01  1.00E+00
  8   2.3951E-01   2.3728E-01  3.20E-01  4.14E-01  7.70E-01  4.00E-01  7.70E-01  8.78E-02  1.00E+00
  9   2.3113E-01   2.3113E-01  6.38E-01  8.83E-01  1.03E+00  1.00E+00  3.21E-01  1.17E-02  1.00E+00
 10   2.6059E-01   2.6059E-01  5.20E-01  3.40E-01  1.37E+00  1.50E+00  3.99E-01  9.28E-03  1.00E+00
 11   2.7094E-01   2.7094E-01  2.80E-01  2.52E-01  1.83E+00  1.85E+00  1.63E-01  1.97E-03  1.00E+00
 12   1.8603E-01   1.8603E-01  5.14E-01  4.96E-01  2.43E+00  1.87E+00  3.18E-01  1.08E-03  9.62E-01
 13   3.3670E-01   3.3670E-01 -1.00E+00  2.19E-01  3.24E+00  1.00E+00  6.21E-01  1.08E-03  1.00E+00
:JACOBIANS    1.021E+00   2.700E+00
  
:NORMS:  1/Froebius, Min, Max, Used   0.6817E+00  0.4945E+00  0.9820E+00  0.9675E+00
:INFO :  Number of Memory Steps    8 Skipping    4
:INFO :  SLambda=    1.8901769520  Max    1.8901769520
:PREDicted Charge, CTotal, PW Trust    1.580E-04   3.160E-04   2.093E-04
:PREDicted DMix, Beta, BLim   4.0310E-02  9.7589E-01  1.6386E+00

Eigenvalues, unscaled except for SY+YY
   #     SY Real        SY Imag          SS             YY         SY+YY Real      SY+YY Imag
   1   2.884544E+00   0.000000E+00   2.816372E+00   3.008491E+00   8.439683E+00   0.000000E+00
   2   1.050929E+00   0.000000E+00   6.662974E-01   2.855538E+00   4.778995E+00   0.000000E+00
   3   3.680671E-01   0.000000E+00   2.006904E-01   1.120210E+00   1.537641E+00   0.000000E+00
   4   1.341484E-01   0.000000E+00   1.673551E-02   7.552373E-01   1.325668E+00   0.000000E+00
   5   3.346747E-02   0.000000E+00   1.283691E-02   1.675411E-01   2.578755E-01   0.000000E+00
   6   1.130832E-02   0.000000E+00   2.263447E-03   6.941371E-02   1.050236E-01   0.000000E+00
   7   4.309230E-03   0.000000E+00   1.737435E-03   1.649599E-02   1.859769E-02   0.000000E+00
   8   5.366748E-03   0.000000E+00   6.431025E-04   7.073308E-03   2.745663E-02   0.000000E+00
 
:INFO :  Singular value  8.444E+00 Weight  1.000E+00 Projection -2.740E-05
:INFO :  Singular value  4.785E+00 Weight  1.000E+00 Projection -1.347E-04
:INFO :  Singular value  1.543E+00 Weight  1.000E+00 Projection -3.491E-05
:INFO :  Singular value  1.320E+00 Weight  1.000E+00 Projection  1.887E-04
:INFO :  Singular value  2.578E-01 Weight  1.000E+00 Projection  1.238E-04
:INFO :  Singular value  1.050E-01 Weight  1.000E+00 Projection -8.887E-04
:INFO :  Singular value  2.746E-02 Weight  9.999E-01 Projection  3.893E-04
:INFO :  Singular value  1.859E-02 Weight  9.997E-01 Projection -2.322E-04
:RANK :  ACTIVE   8.00/8  = 100.00 % ; YY RANK   8.00/8  =  99.97 %
 
:DLIM :  Beta Active  9.819E-01
:BLIM :  VZERO Control Off
:TRUST:  Step 4.33E+00  Charge 2.46E-02 (e) CTO  8.19E-02 (e) PW  1.15E-01 (e)
:DIRM :  MEMORY  8/8  SCALE   1.000 RED  0.28 PRED  0.22 NEXT  0.44 BETA  0.98
:TRAVE:  Charge 1.20E-04 (e) CTO  2.39E-04 (e) PW  4.30E-04 (e)
:DIRP :  |MSR1|= 2.023E-05 |PRATT|= 5.798E-05 ANGLE=  82.2 DEGREES
:DIRQ :  |MSR1|= 8.465E-05 |PRATT|= 4.754E-04 ANGLE=  52.5 DEGREES
:DIRT :  |MSR1|= 8.703E-05 |PRATT|= 4.790E-04 ANGLE=  53.8 DEGREES
:MIX  :   MSE1   REGULARIZATION:  3.01E-04 GREED: 0.15955  Newton 1.00  0.1817                
     
       CHARGES OF MIXED CHARGE DENSITY
:CTO   : INTERSTITIAL CHARGE =     6.989058
:CPC   : PW Pseudocharge     =    16.891038
:CTO001: CHARGE SPHERE  1    =    55.505471

:NEC03: NUCLEAR AND ELECTRONIC CHARGE    118.00000   118.00000

PW CHANGE     H    K    L      Current       Change    Residue
:PTO001:      0    0    0  4.75627129E-02 -1.178E-07 -6.365E-07
:PTO003:      0    2    0  1.34821450E-02 -4.772E-08 -1.038E-08
:PTO004:     -1    1    0  6.66497936E-02 -1.442E-07  5.702E-07
:PTO005:      0    2   -1 -7.76624956E-02  2.775E-07 -2.004E-07
:PTO006:      0    0   -2 -4.01902613E-02  1.789E-07  1.290E-07
:PTO007:     -1    1   -1 -8.46652926E-02  3.608E-07  3.805E-09
:PTO008:      0    2   -2 -1.40448766E-02  1.630E-07  5.943E-07
:PTO009:     -1    1   -2 -7.29545775E-02  3.855E-07 -6.516E-07
:PTO011:     -1    3    0 -1.21214787E-02  2.704E-08 -4.149E-07
:PTO012:     -1    3   -1 -5.47970660E-02  2.639E-07 -9.596E-07
:PTO013:      0    4    0 -1.01609676E-02  7.640E-08 -5.595E-09
:PTO014:      0    2   -3  2.32666202E-02 -1.640E-07  2.028E-07

:ENE  : ********** TOTAL ENERGY IN Ry =       -36944.13840022

       TOTAL FORCE IN mRy/a.u. = |F|     Fx             Fy             Fz     with/without FOR in case.in2
:FOR001:   1.ATOM         28.818          0.000          0.000        -28.818 partial forces
       TOTAL FORCE WITH RESPECT TO GLOBAL CARTESIAN COORDINATES:
:FCA001:   1.ATOM                         0.000        -28.818          0.000 partial forces
       TOTAL FORCE WITH RESPECT TO THE GLOBAL COORDINATE SYSTEM:
:FGL001:   1.ATOM                 0.000000000   -28.817797383     0.000000000 partial forces
 Flat Integration
 New Mode for Coulomb Integral
 Consistent 3/8+Simpson combinations
 Extension of core to zero
 LDM version in phi
 Fifth-order quadrature in outwin


            ---------
:ITE014: 14. ITERATION
            ---------

:NATO :    1 INDEPENDENT AND    2 TOTAL ATOMS IN UNITCELL
       SUBSTANCE: aU                                                          

       LATTICE                      = CXY 
:POT  : POTENTIAL OPTION EX_LDA EC_LDA VX_LDA VC_LDA
:LAT  : LATTICE CONSTANTS=  6.56123 13.31438 11.49459    1.571    1.571    1.571
:VOL  : UNIT CELL VOLUME =     502.07598
       MODE OF CALCULATION IS       = RELA
       NON-SPINPOLARIZED CALCULATION
:IFFT  : FFT-parameters:   54  108   90 Factor: 2.00


   CONVERGENCE PARAMETER FOR PSEUDOCHARGE: NCON=  9
   MAXIMAL VALUE OF RMT(JATOM)*ABSK(NKK) : RK  =27.59428


:VKCOUL :  VK-COUL convergence: 0.159E-06
       ATOMNUMBER=  1 Pr1        VCOUL-ZERO =  0.23521E-01
:EFG001:                        EFG         =    -7.41762   *10**21  V / m**2
                               V20  TOT/SRF=    -6.42385    -0.02311
                               V22  TOT/SRF=     0.04071     0.00073
                               V22M TOT/SRF=     0.00000     0.00000
                               V21  TOT/SRF=     0.00000     0.00000
                               V21M TOT/SRF=     0.00000     0.00000

              3.74952    0.00000    0.00000        3.74952    0.00000    0.00000
              0.00000    3.66810    0.00000        0.00000    3.66810    0.00000
              0.00000    0.00000   -7.41762        0.00000    0.00000   -7.41762

         MAIN DIRECTIONS OF THE EFG   1.0000  0.0000  0.0000
                                      0.0000  1.0000  0.0000
                                      0.0000  0.0000  1.0000
:ANG001:  ANGLE WITH OLD X-AXIS =         0.0

:ETA001:                         ASYMM. ETA =     0.01098


     HELLMANN-FEYNMAN-FORCE IN mRy/a.u. = |F|  Fx       Fy             Fz
:FHF001:   1.ATOM   1284.021723955358      0.000000000000      0.000000000000  -1284.021723955358

:FIT001: LUSE= 13 SIGMA OF V-XC FIT FOR ATOM  1  0.5760002E-04
:FIT001: LUSE= 13 SIGMA OF V-XC FIT FOR ATOM  1  0.5760002E-04
:DEN  : DENSITY INTEGRAL  =        -14143.85622400   (Ry)
       ELS_POTENTIAL_AT Z=0 and Z=0.5:   0.69548   0.69548
       ELS_POTENTIAL_AT Y=0 and Y=0.5:   0.07692   0.07692
:VZERO:v0,v0c,v0x   0.13235   0.69548  -0.56312 v5,v5c,v5x   0.13235   0.69548  -0.56312
:VZERY:v0,v0c,v0x  -0.67784   0.07692  -0.75475 v5,v5c,v5x  -0.67784   0.07692  -0.75475
:VZERX:v0,v0c,v0x  -1.09783  -0.37272  -0.72510 v5,v5c,v5x  -1.09783  -0.37272  -0.72510
:LMAX-WF:   10   Non-Spherical LMAX:   4

          ATOMIC SPHERE DEPENDENT PARAMETERS FOR ATOM  Pr1       
:e__0001: OVERALL ENERGY PARAMETER IS    0.3898
          OVERALL BASIS SET ON ATOM IS LAPW
:E0_0001: E( 0)=    0.3898
             APW+lo
:E0_0001: E( 0)=   -2.0831   E(BOTTOM)=   -2.719   E(TOP)=   -1.447  4  5   172
             LOCAL ORBITAL
:E1_0001: E( 1)=    0.7898
             APW+lo
:E1_0001: E( 1)=   -0.6134   E(BOTTOM)=   -1.571   E(TOP)=    0.344  3  4   198
             LOCAL ORBITAL
:E3_0001: E( 3)=    0.5724   E(BOTTOM)=    0.364   E(TOP)=    0.781  0  1   125
             APW+lo
:E2_0001: E( 2)=    0.3898   E(BOTTOM)=    0.170   E(TOP)= -200.000  2 -1    98
             APW+lo

       K=   0.06250   0.00000   0.06250            1
:RKM  : MATRIX SIZE   463LOs:  40  RKM= 8.50  WEIGHT= 4.00  PGR:    
       EIGENVALUES ARE:
:EIG00001:      -2.0518616   -2.0400890   -0.7716459   -0.7057274   -0.6906510
:EIG00006:      -0.6846904   -0.6785255   -0.6784014    0.3563143    0.4963165
:EIG00011:       0.5850046    0.5858073    0.5859741    0.5879766    0.5916644
:EIG00016:       0.6009587    0.6042387    0.6048576    0.6072965    0.6095981
:EIG00021:       0.6131092    0.6165884    0.6173530    0.6220061    0.6565473
:EIG00026:       0.6704271    0.7422860    0.7598020    0.7784624    0.8145196
:EIG00031:       0.8307408    0.9097804    0.9541316    0.9953044    1.2728414
:EIG00036:       1.2943461    1.3828732    1.3834421    1.5380304    1.5909997
:EIG00041:       1.6452865    1.7474487    1.8174093    1.8355311    1.9255550
:EIG00046:       1.9860214    1.9972396    2.0513135
 
       ********************************************************

:KPT   :      NUMBER OF K-POINTS:   288
:GAP (global)   :    0.0    Ry =     0.0   eV (metal)
         Bandranges (emin - emax) and occupancy:
:BAN00004:   4   -0.758707   -0.705727  2.00000000
:BAN00005:   5   -0.749829   -0.690651  2.00000000
:BAN00006:   6   -0.736297   -0.681441  2.00000000
:BAN00007:   7   -0.719616   -0.678525  2.00000000
:BAN00008:   8   -0.694386   -0.675534  2.00000000
:BAN00009:   9    0.351564    0.562470  2.00000000
:BAN00010:  10    0.458929    0.571071  2.00000000
:BAN00011:  11    0.532071    0.585005  2.00000000
:BAN00012:  12    0.568650    0.590095  1.99994069
:BAN00013:  13    0.577813    0.597911  1.48663445
:BAN00014:  14    0.584894    0.601739  0.51342486
:BAN00015:  15    0.590733    0.603569  0.00000000
:BAN00016:  16    0.594811    0.604911  0.00000000
:BAN00017:  17    0.598078    0.606615  0.00000000
:BAN00018:  18    0.599995    0.607418  0.00000000
:BAN00019:  19    0.602945    0.609808  0.00000000
        Energy to separate low and high energystates:    0.30156


:NOE  : NUMBER OF ELECTRONS          =   26.000

:FER  : F E R M I - ENERGY(TETRAH.M.)=   0.5898303249
:GMA  : POTENTIAL AND CHARGE CUT-OFF  12.00 Ry**.5

:POS001: ATOM   -1 X,Y,Z = 0.00000 0.89750 0.25000  MULT= 2  ZZ= 59.000  Pr1       

       LMMAX 16
       LM=   0 0  1 0  2 0  2 2  3 0  3 2  4 0  4 2  4 4  5 0  5 2  5 4  6 0  6 2  6 4  6 6

:CHA001: TOTAL VALENCE CHARGE INSIDE SPHERE   1 =   9.5070    (RMT=  2.3000 )
:PCS001: PARTIAL CHARGES SPHERE =  1 S,P,D,F,PX,PY,PZ,D-Z2,D-X2Y2,D-XY,D-XZ,D-YZ 
:QTL001: 1.9400 5.0213 0.4893 2.0562 1.6708 1.6710 1.6795 0.0904 0.0881 0.1083 0.0945 0.1081
        Q-s-low E-s-low   Q-p-low E-p-low   Q-d-low E-d-low   Q-f-low E-f-low
:EPL001:  1.8696 -2.0403    4.9586 -0.7169    0.0012 -0.7397    0.0003 -0.7483
        Q-s-hi  E-s-hi    Q-p-hi  E-p-hi    Q-d-hi  E-d-hi    Q-f-hi  E-f-hi 
:EPH001:  0.0704  0.4901    0.0627  0.5286    0.4881  0.5437    2.0559  0.5778

                      VXX         VYY         VZZ       UP TO R
:VZZ001:             3.73760     3.65942    -7.39702       2.300

:CHA  : TOTAL VALENCE CHARGE INSIDE UNIT CELL =      26.000000

:SUM  : SUM OF EIGENVALUES =         -11.269084922


        1.ATOM      Pr1                  14 CORE STATES
       CORE-FORCE in mRy/a.u. = |F|      Fx             Fy             Fz
:FCO001:   1.ATOM   1255.209600696480      0.000000000000      0.000000000000   1255.209600696480

:1S 001: 1S               -3067.017217069 Ry
:2S 001: 2S                -492.768841245 Ry
:2PP001: 2P*               -465.868295682 Ry
:2P 001: 2P                -430.470687442 Ry
:3S 001: 3S                -105.855758385 Ry
:3PP001: 3P*                -94.393768941 Ry
:3P 001: 3P                 -87.385770328 Ry
:3DD001: 3D*                -67.313263272 Ry
:3D 001: 3D                 -65.801640542 Ry
:4S 001: 4S                 -20.531537804 Ry
:4PP001: 4P*                -16.238403391 Ry
:4P 001: 4P                 -14.711062946 Ry
:4DD001: 4D*                 -7.644218276 Ry
:4D 001: 4D                  -7.374841382 Ry
:CINT001 Core Integral Atom   1   45.998489

       DENSITY AT NUCLEUS
        JATOM        VALENCE       SEMI-CORE          CORE           TOTAL
:RTO001:   1      647.560416        0.000000   656825.114158   657472.674574
     
       CHARGES OF NEW CHARGE DENSITY
:NTO   : INTERSTITIAL CHARGE =     6.985979
:NPC   : PW Pseudocharge     =    16.883829
:NTO001: CHARGE SPHERE  1    =    55.505499

:NEC01: NUCLEAR AND ELECTRONIC CHARGE    118.00000   117.99698
     
       CHARGES OF OLD CHARGE DENSITY
:OTO   : INTERSTITIAL CHARGE =     6.989058
:OPC   : PW Pseudocharge     =    16.891038
:OTO001: CHARGE SPHERE  1    =    55.505471

:NEC02: NUCLEAR AND ELECTRONIC CHARGE    118.00000   118.00000
     
       CONVERGENCE TEST
:DTO001: DIFFERENCE IN SPHERE  1 =  0.0000890

:DIS  :  CHARGE DISTANCE       ( 0.0000890 for atom    1 spin 1)      0.0000890
 PW Mixed is          517
 
******************************************************
* MULTISECANT MIXING VER9 RELEASE 10.4.0              *
* Standard Mode with controls                        *
* Fixed density scale                                *
* Regularization       1.000E-04                     *
* Trust Upper Limit    5.000E+00                     *
* Max Number of Memory Steps    8                    *
******************************************************
 
:PWTMP   4.0015E+02  1.9467E+02  5.0208E+02
:PLANE:  PW TOTAL      4.5311 DISTAN   5.24E-05  1.16E-03 %
:CHARG:  CLM/ATOM   1381.9448 DISTAN   1.97E-04  1.42E-05 %
 
Step History
        DMIX         DMIXT        Red     Pred      Trust     Lambda    MagRel    MagAbs     Beta
  6   1.5653E-01   1.4678E-01  6.57E-01  8.62E-01  3.60E-01  7.86E-01  3.60E-01  1.74E-01  1.00E+00
  7   2.5680E-01   2.4561E-01  3.59E-01  5.25E-01  5.77E-01  8.58E-01  5.77E-01  1.83E-01  1.00E+00
  8   2.3951E-01   2.3728E-01  3.20E-01  4.14E-01  7.70E-01  4.00E-01  7.70E-01  8.78E-02  1.00E+00
  9   2.3113E-01   2.3113E-01  6.38E-01  8.83E-01  1.03E+00  1.00E+00  3.21E-01  1.17E-02  1.00E+00
 10   2.6059E-01   2.6059E-01  5.20E-01  3.40E-01  1.37E+00  1.50E+00  3.99E-01  9.28E-03  1.00E+00
 11   2.7094E-01   2.7094E-01  2.80E-01  2.52E-01  1.83E+00  1.85E+00  1.63E-01  1.97E-03  1.00E+00
 12   1.8603E-01   1.8603E-01  5.14E-01  4.96E-01  2.43E+00  1.87E+00  3.18E-01  1.08E-03  9.62E-01
 13   3.3670E-01   3.3670E-01  2.75E-01  2.19E-01  3.24E+00  1.89E+00  6.21E-01  1.08E-03  1.00E+00
 14   1.5955E-01   1.5955E-01 -1.00E+00  4.37E-01  4.33E+00  1.00E+00  1.82E-01  8.70E-05  9.82E-01
:JACOBIANS    9.431E-01   2.961E+00
  
:NORMS:  1/Froebius, Min, Max, Used   0.6137E+00  0.4987E+00  0.9823E+00  0.7822E+00
:INFO :  Number of Memory Steps    8 Skipping    5
:INFO :  SLambda=    2.0050716571  Max    2.0050716571
:PREDicted Charge, CTotal, PW Trust    9.789E-06   1.958E-05   2.359E-05
:PREDicted DMix, Beta, BLim   3.1310E-01  1.4232E+00  1.2233E+00

Eigenvalues, unscaled except for SY+YY
   #     SY Real        SY Imag          SS             YY         SY+YY Real      SY+YY Imag
   1   2.111129E+00   0.000000E+00   2.035851E+00   3.327302E+00   6.527319E+00   0.000000E+00
   2   1.117824E+00   0.000000E+00   7.442706E-01   2.227187E+00   5.261141E+00   0.000000E+00
   3   3.115847E-01   0.000000E+00   1.696403E-01   1.245825E+00   1.694144E+00   0.000000E+00
   4   1.735057E-01   0.000000E+00   3.685081E-02   7.933034E-01   1.433143E+00   0.000000E+00
   5   7.688339E-02   0.000000E+00   1.560551E-02   2.736817E-01   5.352432E-01   0.000000E+00
   6   2.200833E-02   0.000000E+00   8.737209E-03   1.147507E-01   1.714744E-01   0.000000E+00
   7   5.672724E-03   0.000000E+00   1.348892E-03   1.084907E-02   2.543292E-02   0.000000E+00
   8   3.221580E-03   0.000000E+00   9.148169E-04   7.100511E-03   1.514414E-02   0.000000E+00
 
:INFO :  Singular value  6.533E+00 Weight  1.000E+00 Projection -8.234E-06
:INFO :  Singular value  5.273E+00 Weight  1.000E+00 Projection -3.933E-05
:INFO :  Singular value  1.700E+00 Weight  1.000E+00 Projection  6.871E-05
:INFO :  Singular value  1.427E+00 Weight  1.000E+00 Projection -3.212E-05
:INFO :  Singular value  5.346E-01 Weight  1.000E+00 Projection  1.375E-04
:INFO :  Singular value  1.714E-01 Weight  1.000E+00 Projection  1.132E-04
:INFO :  Singular value  2.543E-02 Weight  9.998E-01 Projection -1.908E-04
:INFO :  Singular value  1.514E-02 Weight  9.995E-01 Projection -1.349E-03
:RANK :  ACTIVE   8.00/8  =  99.99 % ; YY RANK   8.00/8  =  99.96 %
 
:BLIM :  VZERO Control Off
:TRUST:  Step 5.77E+00  Charge 1.97E-02 (e) CTO  6.55E-02 (e) PW  9.18E-02 (e)
:DIRM :  MEMORY  8/8  SCALE   1.000 RED  0.42 PRED  0.44 NEXT  0.64 
:TRAVE:  Charge 6.07E-05 (e) CTO  1.21E-04 (e) PW  2.23E-04 (e)
:DIRP :  |MSR1|= 2.789E-05 |PRATT|= 5.237E-05 ANGLE=  35.7 DEGREES
:DIRQ :  |MSR1|= 9.867E-05 |PRATT|= 1.967E-04 ANGLE=  28.0 DEGREES
:DIRT :  |MSR1|= 1.025E-04 |PRATT|= 2.036E-04 ANGLE=  28.6 DEGREES
:MIX  :   MSE1   REGULARIZATION:  3.33E-04 GREED: 0.26614  Newton 1.00  0.5037                
     
       CHARGES OF MIXED CHARGE DENSITY
:CTO   : INTERSTITIAL CHARGE =     6.989061
:CPC   : PW Pseudocharge     =    16.891075
:CTO001: CHARGE SPHERE  1    =    55.505469

:NEC03: NUCLEAR AND ELECTRONIC CHARGE    118.00000   118.00000

PW CHANGE     H    K    L      Current       Change    Residue
:PTO001:      0    0    0  4.75627934E-02  8.051E-08  7.998E-08
:PTO003:      0    2    0  1.34821424E-02 -2.543E-09  3.505E-08
:PTO004:     -1    1    0  6.66500422E-02  2.487E-07  7.382E-07
:PTO005:      0    2   -1 -7.76625766E-02 -8.100E-08 -5.145E-07
:PTO006:      0    0   -2 -4.01902013E-02  5.999E-08 -7.377E-08
:PTO007:     -1    1   -1 -8.46652287E-02  6.386E-08 -2.893E-07
:PTO008:      0    2   -2 -1.40446325E-02  2.441E-07  3.800E-07
:PTO009:     -1    1   -2 -7.29548456E-02 -2.681E-07 -9.153E-07
:PTO011:     -1    3    0 -1.21217707E-02 -2.920E-07 -5.039E-07
:PTO012:     -1    3   -1 -5.47975302E-02 -4.643E-07 -1.236E-06
:PTO013:      0    4    0 -1.01609421E-02  2.554E-08 -8.000E-08
:PTO014:      0    2   -3  2.32666790E-02  5.883E-08  3.665E-07

:ENE  : ********** TOTAL ENERGY IN Ry =       -36944.13840019

       TOTAL FORCE IN mRy/a.u. = |F|     Fx             Fy             Fz     with/without FOR in case.in2
:FOR001:   1.ATOM         28.812          0.000          0.000        -28.812 partial forces
       TOTAL FORCE WITH RESPECT TO GLOBAL CARTESIAN COORDINATES:
:FCA001:   1.ATOM                         0.000        -28.812          0.000 partial forces
       TOTAL FORCE WITH RESPECT TO THE GLOBAL COORDINATE SYSTEM:
:FGL001:   1.ATOM                 0.000000000   -28.812123259     0.000000000 partial forces
