
------- UO2_10.scf0 --------


            ---------
:ITE083: 83. ITERATION
            ---------

:NATO :    2 INDEPENDENT AND    3 TOTAL ATOMS IN UNITCELL
       SUBSTANCE: blebleble                                                   

       LATTICE                      = F   
:POT  : POTENTIAL OPTION    5
:LAT  : LATTICE CONSTANTS= 10.99055 10.99055 10.99055    1.571    1.571    1.571
:VOL  : UNIT CELL VOLUME =     331.89279
       MODE OF CALCULATION IS       = RELA
       NON-SPINPOLARIZED CALCULATION
:IFFT  : FFT-parameters:   90   90   90 Factor: 2.00
       ATOMNUMBER=  1 U  4+      VCOUL-ZERO = -0.68980E+00
       ATOMNUMBER=  2 O  2-      VCOUL-ZERO =  0.73045E+00
:FIT001: LUSE= 13 SIGMA OF V-XC FIT FOR ATOM  1  0.3373716E-04
:FIT001: LUSE= 13 SIGMA OF V-XC FIT FOR ATOM  1  0.3373716E-04
:FIT002: LUSE= 13 SIGMA OF V-XC FIT FOR ATOM  2  0.7197081E-04
:FIT002: LUSE= 13 SIGMA OF V-XC FIT FOR ATOM  2  0.7197081E-04
:DEN  : DENSITY INTEGRAL  =        -20879.77865811   (Ry)
       ELS_POTENTIAL_AT Z=0 and Z=0.5:  -3.22222  -3.22222
       ELS_POTENTIAL_AT Y=0 and Y=0.5:   0.00000   0.00000
:VZERO:v0,v0c,v0x  -3.89091  -3.22222  -0.66869 v5,v5c,v5x  -3.89091  -3.22222  -0.66869
:VZERY:v0,v0c,v0x  -0.80129   0.00000  -0.80129 v5,v5c,v5x  -0.80129   0.00000  -0.80129
:VZERX:v0,v0c,v0x  -0.80129   0.00000  -0.80129 v5,v5c,v5x  -0.80129   0.00000  -0.80129

------- UO2_10.scf1 --------

          ATOMIC SPHERE DEPENDENT PARAMETERS FOR ATOM  U  4+     
:e__0001: OVERALL ENERGY PARAMETER IS    0.5321
          OVERALL BASIS SET ON ATOM IS LAPW
:E0_0001: E( 0)=    0.5321
             APW+lo
:E0_0001: E( 0)=   -2.4441   E(BOTTOM)=   -3.790   E(TOP)=   -1.098  5  6   238
             LOCAL ORBITAL
:E1_0001: E( 1)=   -1.2800   E(BOTTOM)=   -2.056   E(TOP)= -200.000  4 -1   206
             APW+lo
:E1_0001: E( 1)=    0.9321
             LOCAL ORBITAL
:E3_0001: E( 3)=    0.5321   E(BOTTOM)=   -0.005   E(TOP)= -200.000  1 -1   103
             APW+lo
:E2_0001: E( 2)=    0.5562   E(BOTTOM)=    0.556   E(TOP)= -200.000  3 -1    70
             APW+lo

          ATOMIC SPHERE DEPENDENT PARAMETERS FOR ATOM  O  2-     
:e__0002: OVERALL ENERGY PARAMETER IS    0.5321
          OVERALL BASIS SET ON ATOM IS LAPW
:E0_0002: E( 0)=   -0.4261   E(BOTTOM)=   -1.785   E(TOP)=    0.932  1  2   238
             APW+lo
:E0_0002: E( 0)=    0.9321
             LOCAL ORBITAL
:E1_0002: E( 1)=    0.5321
             APW+lo

       K=   0.00000   0.00000   0.00000            1
:RKM  : MATRIX SIZE  899LOs:  30  RKM= 8.38  WEIGHT= 1.00  PGR:    
       EIGENVALUES ARE:
:EIG00001:      -2.5194974   -0.6693430   -0.6693430   -0.6693430   -0.6172555
:EIG00006:      -0.5360757    0.3182019    0.3182019    0.3182019    0.5043909
:EIG00011:       0.5043909    0.5043909    0.7544807    0.7544807    0.7544807
:EIG00016:       0.7769978    0.8039162    0.8039162    0.8039162    0.8805385
:EIG00021:       0.9448064    0.9448064    1.3271072    1.3271072    1.3271072
:EIG00026:       1.5850259    1.5850259    1.5850259    1.8824402    2.2437798
:EIG00031:       2.2437798    2.2707655    2.2707655    2.2707655    2.5107467
:EIG00036:       2.5107467    2.5107467    2.7488427    2.7496201    2.7496201
:EIG00041:       2.7496201    3.1328850    3.1328850    3.2184493    3.2184493
:EIG00046:       3.2184493    3.2826525    3.3395967    3.3395967    3.3462154
 
:EIG00051:       3.3462154    3.3462154    3.5432031    3.5432031    3.5432031
:EIG00056:       3.6080959    3.6545174    3.6545174    3.6545174    3.6719172
:EIG00061:       3.6719172    3.6719172    3.7320273    3.7320273    3.7320273
:EIG00066:       4.0061889    4.4775310    4.4775310    4.4775310    4.7150941
:EIG00071:       4.7150941    4.7150941    4.7439962    4.7439962    4.9273733
:EIG00076:       5.2582419    5.2582419    5.2716494    5.2716494    5.2716494
:EIG00081:       5.3883180    5.3883180    5.3883180    5.5905950    5.5905950
:EIG00086:       5.5905950    5.7649735    5.7649735    5.7649735    5.8133066
:EIG00091:       5.8869746    5.8869746    5.9155718    5.9155718    5.9478487
:EIG00096:       5.9478487    5.9478487    6.0353014    6.1791935    6.1791935
 
:EIG00101:       6.1791935    6.2020967    6.2020967    6.2020967    6.2137818
:EIG00106:       6.3209067    6.3209067    6.3209067    6.5324854    6.5326817
:EIG00111:       6.5326817    6.5326817    6.6014728    6.6014728    6.6094954
:EIG00116:       6.6094954    6.6094954    6.6169461    6.6169461    6.6169461
:EIG00121:       6.7843691    6.7843691    6.7843691    7.2405246    7.2405246
:EIG00126:       7.2405246    7.2959405    7.2959405    7.2959405    7.4088287
:EIG00131:       7.4088287    7.4088287    7.4207007    7.5168321    7.5168321
:EIG00136:       7.5943857    7.5943857    7.6680849    7.6680849    7.6680849
:EIG00141:       7.7830414    7.7830414    7.7830414    7.9776060    7.9776060
:EIG00146:       7.9776060    8.0159598    8.1240530    8.1336897    8.1336897
 
       ********************************************************

:KPT   :      NUMBER OF K-POINTS:   145

------- UO2_10.scfso --------
   0.0   0.0 angle (M,z), angle (M,x) deg
 
        SPIN-ORBIT EIGENVALUES:
     K=   0.00000   0.00000   0.00000            1
      MATRIX SIZE=  300   WEIGHT= 1.00
     EIGENVALUES ARE:
          -2.5194974   -2.5194974   -1.0764996   -1.0764996   -0.6172555
          -0.6172555   -0.5360782   -0.5360782   -0.5023214   -0.5023214
          -0.5023214   -0.5023214    0.3165473    0.3165473    0.3165473
           0.3165473    0.3206884    0.3206884    0.5009581    0.5009581
           0.5053806    0.5053806    0.5053806    0.5053806    0.7232212
           0.7232212    0.7426143    0.7426143    0.7426143    0.7426143
           0.7981656    0.7981656    0.8108211    0.8108211    0.8108211
           0.8108211    0.8244978    0.8244978    0.8805385    0.8805385

           0.9424248    0.9424248    0.9424248    0.9424248    1.3167623
           1.3167623    1.3167623    1.3167623    1.3486934    1.3486934
           1.5256545    1.5256545    1.6115688    1.6115688    1.6115688
           1.6115688    1.8824402    1.8824402    2.2361806    2.2361806
           2.2361806    2.2361806    2.2737269    2.2737269    2.2737269
           2.2737269    2.2799793    2.2799793    2.3692388    2.3692388
           2.5904591    2.5904591    2.5904591    2.5904591    2.7408616
           2.7408616    2.7509574    2.7509574    2.7509574    2.7509574

           2.7553731    2.7553731    3.1288991    3.1288991    3.1288991
           3.1288991    3.2154048    3.2154048    3.2154048    3.2154048
           3.2341348    3.2341348    3.2826525    3.2826525    3.3395967
           3.3395967    3.3395967    3.3395967    3.3462032    3.3462032
           3.3462215    3.3462215    3.3462215    3.3462215    3.5432270
           3.5432270    3.5432270    3.5432270    3.5437130    3.5437130
           3.6080959    3.6080959    3.6473855    3.6473855    3.6589360
           3.6589360    3.6589360    3.6589360    3.6719099    3.6719099

           3.6719261    3.6719261    3.6719261    3.6719261    3.7310219
           3.7310219    3.7328307    3.7328307    3.7328307    3.7328307
           4.0063378    4.0063378    4.4671256    4.4671256    4.4824585
           4.4824585    4.4824585    4.4824585
       ********************************************************

------- UO2_10.scf2 --------
:GMA  : POTENTIAL AND CHARGE CUT-OFF  12.00 Ry**.5
         Bandranges (emin - emax) and occupancy:
:BAN00018:  18    0.320688    0.468956  1.00000000
:BAN00019:  19    0.401094    0.501551  1.00000000
:BAN00020:  20    0.401094    0.501551  1.00000000
:BAN00021:  21    0.461630    0.519252  1.00000000
:BAN00022:  22    0.461630    0.519252  1.00000000
:BAN00023:  23    0.493105    0.539763  1.00000000
:BAN00024:  24    0.493105    0.539763  1.00000000
:BAN00025:  25    0.693973    0.723221  0.94151270
:BAN00026:  26    0.693973    0.723221  0.94151270
:BAN00027:  27    0.719613    0.742614  0.05848730
:BAN00028:  28    0.719613    0.742614  0.05848730
:BAN00029:  29    0.726992    0.742614  0.00000000
:BAN00030:  30    0.726992    0.742614  0.00000000
:BAN00031:  31    0.757268    0.798299  0.00000000
:BAN00032:  32    0.757268    0.798299  0.00000000
:BAN00033:  33    0.778490    0.810821  0.00000000
        Energy to separate low and high energystates:    0.64397


:NLDA  : NUMBER OF ELECTRONS          =  26.000

:FLDA  : F E R M I - ENERGY           =   1.22082




:POS001: AT.NR.   1 POSITION = 0.00000 0.00000 0.00000  MULTIPLICITY =  1

       LMMAX  5
       LM=   0 0  4 0  4 4  6 0  6 4




:POS002: AT.NR.   2 POSITION = 0.00000 0.00000 0.00000  MULTIPLICITY =  2

       LMMAX  6
       LM=   0 0  4 0  4 4  6 0  6 4 -3 2
:FER DMFT Fermi Energy   0.68043
:EORB          0.091859869
:SUM SUM OF DMFT BAND ENERGIES         -4.871471138

:CHA001: TOTAL CHARGE INSIDE SPHERE   1 =     8.141906
:PCS001: PARTIAL CHARGES SPHERE =  1 S,P,D,F,      D-EG,D-T2G 
:QTL001: 1.7927 4.1517 0.2011 1.9945 0.0000 0.0000 0.0000 0.0427 0.1662 0.0000 0.0000 0.0000
        Q-s-low E-s-low   Q-p-low E-p-low   Q-d-low E-d-low   Q-f-low E-f-low
:EPL001:  1.7926 -2.4498    4.1506 -0.6646    0.1999  0.3599    0.2107  0.4662
        Q-s-hi  E-s-hi    Q-p-hi  E-p-hi    Q-d-hi  E-d-hi    Q-f-hi  E-f-hi 
:EPH001:  0.0001  0.7955    0.0012  0.7575    0.0011  0.7640    1.7838  0.7183

:CHA002: TOTAL CHARGE INSIDE SPHERE   2 =     5.100524
:PCS002: PARTIAL CHARGES SPHERE =  2 S,P,D,F,      D-EG,D-T2G 
:QTL002: 1.5762 3.5177 0.0056 0.0008 0.0000 0.0000 0.0000 0.0021 0.0060 0.0000 0.0000 0.0000
        Q-s-low E-s-low   Q-p-low E-p-low   Q-d-low E-d-low   Q-f-low E-f-low
:EPL002:  1.5748 -0.5555    3.5008  0.4305    0.0046 -0.0783    0.0006 -0.2679
        Q-s-hi  E-s-hi    Q-p-hi  E-p-hi    Q-d-hi  E-d-hi    Q-f-hi  E-f-hi 
:EPH002:  0.0014  0.7325    0.0170  0.7394    0.0010  0.7204    0.0001  0.7227

:CHA  : TOTAL CHARGE INSIDE UNIT CELL =      26.000000

:ESUM  : SUM OF EIGENVALUES =          -4.797998121


------- UO2_10.scfc --------

        1.ATOM      U  4+                21 CORE STATES
:1S 001: 1S               -8506.558472551 Ry
:2S 001: 2S               -1588.004630561 Ry
:2PP001: 2P*              -1531.250885001 Ry
:2P 001: 2P               -1250.054674818 Ry
:3S 001: 3S                -400.143060757 Ry
:3PP001: 3P*               -374.369938647 Ry
:3P 001: 3P                -309.586468875 Ry
:3DD001: 3D*               -268.774279522 Ry
:3D 001: 3D                -255.628957860 Ry
:4S 001: 4S                -101.211742392 Ry
:4PP001: 4P*                -89.618202612 Ry
:4P 001: 4P                 -72.708374871 Ry
:4DD001: 4D*                -54.243564562 Ry
:4D 001: 4D                 -51.134945785 Ry
:5S 001: 5S                 -21.803172887 Ry
:5PP001: 5P*                -17.296446272 Ry
:5P 001: 5P                 -13.266282138 Ry
:4FF001: 4F*                -26.848362442 Ry
:4F 001: 4F                 -26.038355822 Ry
:5DD001: 5D*                 -6.677238266 Ry
:5D 001: 5D                  -6.079063008 Ry

        2.ATOM      O  2-                 1 CORE STATES
:1S 002: 1S                 -36.184411989 Ry

------- UO2_10.scfm --------
:CINT001 Core Integral Atom   1   77.964572
:CINT002 Core Integral Atom   2    2.000000
     
       CHARGES OF NEW CHARGE DENSITY
:NTO   : INTERSTITIAL CHARGE =     7.657056
:NTO001: CHARGE SPHERE  1    =    86.106479
:NTO002: CHARGE SPHERE  2    =     7.100523

:NEC01: NUCLEAR AND ELECTRONIC CHARGE    108.00000   107.96458
     
       CHARGES OF OLD CHARGE DENSITY
:OTO   : INTERSTITIAL CHARGE =     7.716299
:OTO001: CHARGE SPHERE  1    =    86.143289
:OTO002: CHARGE SPHERE  2    =     7.070206
:DNEW  1   -0.0368
:DNEW  2    0.0303

:NEC02: NUCLEAR AND ELECTRONIC CHARGE    108.00000   108.00000
     
       CONVERGENCE TEST
:DTO001: DIFFERENCE IN SPHERE  1 =  0.0269862
:DTO002: DIFFERENCE IN SPHERE  2 =  0.0368804

:DIS  :  CHARGE DISTANCE       ( 0.0368804 for atom    2 spin 1)      0.0335823
:BIG check (qbig,qrms,qtot)    0.123D-01   0.240D-01   0.336D-01
 
******************************************************
* MULTISECANT MIXING VER6 RELEASE 6.0 OPTIONS        *
* Standard Mode with controls                        *
* Regularization       1.000E-06                     *
* Trust Region Control Active                        *
* Max Number of Memory Steps    8                    *
******************************************************
 
:PLANE:  INTERSTITIAL TOTAL      2.49115 DISTAN  3.271E-01 % 
:CHARG:  CLM CHARGE   /ATOM    345.90606 DISTAN  1.944E-02 % 
:DIRM :  MEMORY  0/8 RESCALES   1.00
:MIX  :   PRATT  REGULARIZATION: 1.00E-06  GREED: 0.025
     
       CHARGES OF MIXED CHARGE DENSITY
:CTO   : INTERSTITIAL CHARGE =     7.715703
:CTO001: CHARGE SPHERE  1    =    86.142368
:CTO002: CHARGE SPHERE  2    =     7.070964

:NEC03: NUCLEAR AND ELECTRONIC CHARGE    108.00000   108.00000

PW CHANGE     H    K    L       Current     Change     Residue
:PTO001:      0    0    0  7.58801233E-02 -4.733E-07 -1.893E-05
:PTO002:     -1   -1   -1  1.92778704E-01 -8.801E-06 -3.520E-04
:PTO003:      0    0   -2  2.13574534E-03 -1.860E-05 -7.441E-04
:PTO004:      0   -2   -2  2.78266074E-01  1.952E-05  7.806E-04
:PTO005:     -1   -1   -3  1.59692794E-01  6.438E-06  2.575E-04
:PTO006:     -2   -2   -2 -1.58804773E-02 -2.612E-06 -1.045E-04
:PTO007:      0    0   -4  4.63288975E-02  2.955E-06  1.182E-04
:PTO008:     -1   -3   -3  4.09709560E-02  4.207E-06  1.683E-04
:PTO009:      0   -2   -4 -4.85573922E-02 -5.364E-06 -2.146E-04
:PTO010:     -2   -2   -4  5.85853202E-02  9.494E-06  3.798E-04
:PTO011:     -3   -3   -3 -2.56324166E-03  5.291E-06  2.116E-04
:PTO012:     -1   -1   -5  6.81553626E-05 -3.219E-06 -1.287E-04

:ENE  : ********** TOTAL ENERGY IN Ry =       -56437.50737405


------- UO2_10.scf0 --------


            ---------
:ITE084: 84. ITERATION
            ---------

:NATO :    2 INDEPENDENT AND    3 TOTAL ATOMS IN UNITCELL
       SUBSTANCE: blebleble                                                   

       LATTICE                      = F   
:POT  : POTENTIAL OPTION    5
:LAT  : LATTICE CONSTANTS= 10.99055 10.99055 10.99055    1.571    1.571    1.571
:VOL  : UNIT CELL VOLUME =     331.89279
       MODE OF CALCULATION IS       = RELA
       NON-SPINPOLARIZED CALCULATION
:IFFT  : FFT-parameters:   90   90   90 Factor: 2.00
       ATOMNUMBER=  1 U  4+      VCOUL-ZERO = -0.69021E+00
       ATOMNUMBER=  2 O  2-      VCOUL-ZERO =  0.73081E+00
:FIT001: LUSE= 13 SIGMA OF V-XC FIT FOR ATOM  1  0.3371342E-04
:FIT001: LUSE= 13 SIGMA OF V-XC FIT FOR ATOM  1  0.3371342E-04
:FIT002: LUSE= 13 SIGMA OF V-XC FIT FOR ATOM  2  0.7187499E-04
:FIT002: LUSE= 13 SIGMA OF V-XC FIT FOR ATOM  2  0.7187499E-04
:DEN  : DENSITY INTEGRAL  =        -20879.70084097   (Ry)
       ELS_POTENTIAL_AT Z=0 and Z=0.5:  -3.22296  -3.22296
       ELS_POTENTIAL_AT Y=0 and Y=0.5:   0.00000   0.00000
:VZERO:v0,v0c,v0x  -3.89156  -3.22296  -0.66860 v5,v5c,v5x  -3.89156  -3.22296  -0.66860
:VZERY:v0,v0c,v0x  -0.80128   0.00000  -0.80128 v5,v5c,v5x  -0.80128   0.00000  -0.80128
:VZERX:v0,v0c,v0x  -0.80128   0.00000  -0.80128 v5,v5c,v5x  -0.80128   0.00000  -0.80128

------- UO2_10.scf1 --------

          ATOMIC SPHERE DEPENDENT PARAMETERS FOR ATOM  U  4+     
:e__0001: OVERALL ENERGY PARAMETER IS    0.5321
          OVERALL BASIS SET ON ATOM IS LAPW
:E0_0001: E( 0)=    0.5321
             APW+lo
:E0_0001: E( 0)=   -2.4448   E(BOTTOM)=   -3.791   E(TOP)=   -1.099  5  6   238
             LOCAL ORBITAL
:E1_0001: E( 1)=   -1.2800   E(BOTTOM)=   -2.056   E(TOP)= -200.000  4 -1   206
             APW+lo
:E1_0001: E( 1)=    0.9321
             LOCAL ORBITAL
:E3_0001: E( 3)=    0.5321   E(BOTTOM)=   -0.006   E(TOP)= -200.000  1 -1   104
             APW+lo
:E2_0001: E( 2)=    0.5556   E(BOTTOM)=    0.556   E(TOP)= -200.000  3 -1    72
             APW+lo

          ATOMIC SPHERE DEPENDENT PARAMETERS FOR ATOM  O  2-     
:e__0002: OVERALL ENERGY PARAMETER IS    0.5321
          OVERALL BASIS SET ON ATOM IS LAPW
:E0_0002: E( 0)=   -0.4253   E(BOTTOM)=   -1.784   E(TOP)=    0.933  1  2   236
             APW+lo
:E0_0002: E( 0)=    0.9321
             LOCAL ORBITAL
:E1_0002: E( 1)=    0.5321
             APW+lo

       K=   0.00000   0.00000   0.00000            1
:RKM  : MATRIX SIZE  899LOs:  30  RKM= 8.38  WEIGHT= 1.00  PGR:    
       EIGENVALUES ARE:
:EIG00001:      -2.5201371   -0.6698287   -0.6698287   -0.6698287   -0.6166628
:EIG00006:      -0.5354073    0.3185995    0.3185995    0.3185995    0.5047732
:EIG00011:       0.5047732    0.5047732    0.7537903    0.7537903    0.7537903
:EIG00016:       0.7763379    0.8034900    0.8034900    0.8034900    0.8806479
:EIG00021:       0.9446041    0.9446041    1.3272074    1.3272074    1.3272074
:EIG00026:       1.5850005    1.5850005    1.5850005    1.8824140    2.2437273
:EIG00031:       2.2437273    2.2708475    2.2708475    2.2708475    2.5107581
:EIG00036:       2.5107581    2.5107581    2.7489850    2.7494901    2.7494901
:EIG00041:       2.7494901    3.1327452    3.1327452    3.2184981    3.2184981
:EIG00046:       3.2184981    3.2826089    3.3398368    3.3398368    3.3461266
 
:EIG00051:       3.3461266    3.3461266    3.5432409    3.5432409    3.5432409
:EIG00056:       3.6080116    3.6544637    3.6544637    3.6544637    3.6719387
:EIG00061:       3.6719387    3.6719387    3.7319721    3.7319721    3.7319721
:EIG00066:       4.0061467    4.4777228    4.4777228    4.4777228    4.7152613
:EIG00071:       4.7152613    4.7152613    4.7439672    4.7439672    4.9273341
:EIG00076:       5.2580659    5.2580659    5.2714941    5.2714941    5.2714941
:EIG00081:       5.3883027    5.3883027    5.3883027    5.5904082    5.5904082
:EIG00086:       5.5904082    5.7650538    5.7650538    5.7650538    5.8133913
:EIG00091:       5.8870493    5.8870493    5.9156461    5.9156461    5.9478088
:EIG00096:       5.9478088    5.9478088    6.0353825    6.1792254    6.1792254
 
:EIG00101:       6.1792254    6.2019376    6.2019376    6.2019376    6.2137713
:EIG00106:       6.3210199    6.3210199    6.3210199    6.5324489    6.5326526
:EIG00111:       6.5326526    6.5326526    6.6015251    6.6015251    6.6094807
:EIG00116:       6.6094807    6.6094807    6.6169566    6.6169566    6.6169566
:EIG00121:       6.7843209    6.7843209    6.7843209    7.2405433    7.2405433
:EIG00126:       7.2405433    7.2959501    7.2959501    7.2959501    7.4088279
:EIG00131:       7.4088279    7.4088279    7.4205495    7.5167867    7.5167867
:EIG00136:       7.5943972    7.5943972    7.6683151    7.6683151    7.6683151
:EIG00141:       7.7830111    7.7830111    7.7830111    7.9774869    7.9774869
:EIG00146:       7.9774869    8.0160289    8.1240685    8.1334662    8.1334662
 
       ********************************************************

:KPT   :      NUMBER OF K-POINTS:   145

------- UO2_10.scfso --------
   0.0   0.0 angle (M,z), angle (M,x) deg
 
        SPIN-ORBIT EIGENVALUES:
     K=   0.00000   0.00000   0.00000            1
      MATRIX SIZE=  300   WEIGHT= 1.00
     EIGENVALUES ARE:
          -2.5201371   -2.5201371   -1.0770471   -1.0770471   -0.6166628
          -0.6166628   -0.5354098   -0.5354098   -0.5027757   -0.5027757
          -0.5027757   -0.5027757    0.3169398    0.3169398    0.3169398
           0.3169398    0.3210940    0.3210940    0.5013887    0.5013887
           0.5057233    0.5057233    0.5057233    0.5057233    0.7225316
           0.7225316    0.7420163    0.7420163    0.7420163    0.7420163
           0.7975028    0.7975028    0.8103341    0.8103341    0.8103341
           0.8103341    0.8240385    0.8240385    0.8806479    0.8806479

           0.9422233    0.9422233    0.9422233    0.9422233    1.3168585
           1.3168585    1.3168585    1.3168585    1.3488009    1.3488009
           1.5256047    1.5256047    1.6115550    1.6115550    1.6115550
           1.6115550    1.8824140    1.8824140    2.2361600    2.2361600
           2.2361600    2.2361600    2.2737804    2.2737804    2.2737804
           2.2737804    2.2800561    2.2800561    2.3692667    2.3692667
           2.5904630    2.5904630    2.5904630    2.5904630    2.7408513
           2.7408513    2.7508274    2.7508274    2.7508274    2.7508274

           2.7553956    2.7553956    3.1287707    3.1287707    3.1287707
           3.1287707    3.2154441    3.2154441    3.2154441    3.2154441
           3.2341797    3.2341797    3.2826089    3.2826089    3.3398368
           3.3398368    3.3398368    3.3398368    3.3461143    3.3461143
           3.3461327    3.3461327    3.3461327    3.3461327    3.5432679
           3.5432679    3.5432679    3.5432679    3.5437474    3.5437474
           3.6080116    3.6080116    3.6473422    3.6473422    3.6588761
           3.6588761    3.6588761    3.6588761    3.6719311    3.6719311

           3.6719477    3.6719477    3.6719477    3.6719477    3.7309670
           3.7309670    3.7327750    3.7327750    3.7327750    3.7327750
           4.0062956    4.0062956    4.4673163    4.4673163    4.4826502
           4.4826502    4.4826502    4.4826502
       ********************************************************

------- UO2_10.scf2 --------
:GMA  : POTENTIAL AND CHARGE CUT-OFF  12.00 Ry**.5
         Bandranges (emin - emax) and occupancy:
:BAN00018:  18    0.321094    0.469340  1.00000000
:BAN00019:  19    0.401475    0.502103  1.00000000
:BAN00020:  20    0.401475    0.502103  1.00000000
:BAN00021:  21    0.462037    0.519740  1.00000000
:BAN00022:  22    0.462037    0.519740  1.00000000
:BAN00023:  23    0.493466    0.540257  1.00000000
:BAN00024:  24    0.493466    0.540257  1.00000000
:BAN00025:  25    0.693323    0.722532  0.94158585
:BAN00026:  26    0.693323    0.722532  0.94158585
:BAN00027:  27    0.718986    0.742016  0.05841415
:BAN00028:  28    0.718986    0.742016  0.05841415
:BAN00029:  29    0.726361    0.742016  0.00000000
:BAN00030:  30    0.726361    0.742016  0.00000000
:BAN00031:  31    0.756628    0.797645  0.00000000
:BAN00032:  32    0.756628    0.797645  0.00000000
:BAN00033:  33    0.777862    0.810334  0.00000000
        Energy to separate low and high energystates:    0.64332


:NLDA  : NUMBER OF ELECTRONS          =  26.000

:FLDA  : F E R M I - ENERGY           =   1.22018




:POS001: AT.NR.   1 POSITION = 0.00000 0.00000 0.00000  MULTIPLICITY =  1

       LMMAX  5
       LM=   0 0  4 0  4 4  6 0  6 4




:POS002: AT.NR.   2 POSITION = 0.00000 0.00000 0.00000  MULTIPLICITY =  2

       LMMAX  6
       LM=   0 0  4 0  4 4  6 0  6 4 -3 2
:FER DMFT Fermi Energy   0.68221
:EORB          0.084845144
:SUM SUM OF DMFT BAND ENERGIES         -4.862268595

:CHA001: TOTAL CHARGE INSIDE SPHERE   1 =     8.138246
:PCS001: PARTIAL CHARGES SPHERE =  1 S,P,D,F,      D-EG,D-T2G 
:QTL001: 1.7928 4.1524 0.2016 1.9896 0.0000 0.0000 0.0000 0.0429 0.1666 0.0000 0.0000 0.0000
        Q-s-low E-s-low   Q-p-low E-p-low   Q-d-low E-d-low   Q-f-low E-f-low
:EPL001:  1.7927 -2.4503    4.1512 -0.6650    0.2005  0.3605    0.2068  0.4658
        Q-s-hi  E-s-hi    Q-p-hi  E-p-hi    Q-d-hi  E-d-hi    Q-f-hi  E-f-hi 
:EPH001:  0.0001  0.7952    0.0011  0.7572    0.0011  0.7636    1.7828  0.7178

:CHA002: TOTAL CHARGE INSIDE SPHERE   2 =     5.101055
:PCS002: PARTIAL CHARGES SPHERE =  2 S,P,D,F,      D-EG,D-T2G 
:QTL002: 1.5760 3.5184 0.0056 0.0008 0.0000 0.0000 0.0000 0.0021 0.0060 0.0000 0.0000 0.0000
        Q-s-low E-s-low   Q-p-low E-p-low   Q-d-low E-d-low   Q-f-low E-f-low
:EPL002:  1.5746 -0.5548    3.5018  0.4310    0.0046 -0.0776    0.0006 -0.2678
        Q-s-hi  E-s-hi    Q-p-hi  E-p-hi    Q-d-hi  E-d-hi    Q-f-hi  E-f-hi 
:EPH002:  0.0014  0.7319    0.0166  0.7388    0.0010  0.7199    0.0001  0.7221

:CHA  : TOTAL CHARGE INSIDE UNIT CELL =      26.000000

:ESUM  : SUM OF EIGENVALUES =          -4.794985690


------- UO2_10.scfc --------

        1.ATOM      U  4+                21 CORE STATES
:1S 001: 1S               -8506.559670933 Ry
:2S 001: 2S               -1588.005830248 Ry
:2PP001: 2P*              -1531.252084512 Ry
:2P 001: 2P               -1250.055874422 Ry
:3S 001: 3S                -400.144247225 Ry
:3PP001: 3P*               -374.371127158 Ry
:3P 001: 3P                -309.587652038 Ry
:3DD001: 3D*               -268.775468873 Ry
:3D 001: 3D                -255.630145927 Ry
:4S 001: 4S                -101.212862468 Ry
:4PP001: 4P*                -89.619323336 Ry
:4P 001: 4P                 -72.709482557 Ry
:4DD001: 4D*                -54.244673881 Ry
:4D 001: 4D                 -51.136051358 Ry
:5S 001: 5S                 -21.804182230 Ry
:5PP001: 5P*                -17.297445475 Ry
:5P 001: 5P                 -13.267250925 Ry
:4FF001: 4F*                -26.849474356 Ry
:4F 001: 4F                 -26.039465804 Ry
:5DD001: 5D*                 -6.678166862 Ry
:5D 001: 5D                  -6.079979265 Ry

        2.ATOM      O  2-                 1 CORE STATES
:1S 002: 1S                 -36.182998567 Ry

------- UO2_10.scfm --------
:CINT001 Core Integral Atom   1   77.964580
:CINT002 Core Integral Atom   2    2.000000
     
       CHARGES OF NEW CHARGE DENSITY
:NTO   : INTERSTITIAL CHARGE =     7.659667
:NTO001: CHARGE SPHERE  1    =    86.102826
:NTO002: CHARGE SPHERE  2    =     7.101054

:NEC01: NUCLEAR AND ELECTRONIC CHARGE    108.00000   107.96460
     
       CHARGES OF OLD CHARGE DENSITY
:OTO   : INTERSTITIAL CHARGE =     7.715703
:OTO001: CHARGE SPHERE  1    =    86.142368
:OTO002: CHARGE SPHERE  2    =     7.070964
:DNEW  1   -0.0395
:DNEW  2    0.0301

:NEC02: NUCLEAR AND ELECTRONIC CHARGE    108.00000   108.00000
     
       CONVERGENCE TEST
:DTO001: DIFFERENCE IN SPHERE  1 =  0.0293966
:DTO002: DIFFERENCE IN SPHERE  2 =  0.0361298

:DIS  :  CHARGE DISTANCE       ( 0.0361298 for atom    2 spin 1)      0.0338854
:BIG check (qbig,qrms,qtot)    0.120D-01   0.241D-01   0.339D-01
 
******************************************************
* MULTISECANT MIXING VER6 RELEASE 6.0 OPTIONS        *
* Standard Mode with controls                        *
* Regularization       1.000E-06                     *
* Trust Region Control Active                        *
* Max Number of Memory Steps    8                    *
******************************************************
 
:PLANE:  INTERSTITIAL TOTAL      2.49119 DISTAN  3.280E-01 % 
:CHARG:  CLM CHARGE   /ATOM    345.90600 DISTAN  1.959E-02 % 
 
 Step History DMIX, Red, Pred, Trust, FRMS, FABS
  2  2.5000E-02  1.0000E+00  1.0000E+00  1.0000E+00
  
:DIRM :  MEMORY  1/8 RESCALES  16.55
:MIX  :   PRATT  REGULARIZATION: 1.00E-06  GREED: 0.010  Reduce 0.40  0.01                
     
       CHARGES OF MIXED CHARGE DENSITY
:CTO   : INTERSTITIAL CHARGE =     7.716061
:CTO001: CHARGE SPHERE  1    =    86.142920
:CTO002: CHARGE SPHERE  2    =     7.070509

:NEC03: NUCLEAR AND ELECTRONIC CHARGE    108.00000   108.00000

PW CHANGE     H    K    L       Current     Change     Residue
:PTO001:      0    0    0  7.58804073E-02  2.840E-07 -7.686E-06
:PTO002:     -1   -1   -1  1.92783984E-01  5.280E-06 -3.474E-04
:PTO003:      0    0   -2  2.14690669E-03  1.116E-05 -7.411E-04
:PTO004:      0   -2   -2  2.78254364E-01 -1.171E-05  7.839E-04
:PTO005:     -1   -1   -3  1.59688931E-01 -3.863E-06  2.983E-04
:PTO006:     -2   -2   -2 -1.58789101E-02  1.567E-06 -7.898E-05
:PTO007:      0    0   -4  4.63271243E-02 -1.773E-06  1.178E-04
:PTO008:     -1   -3   -3  4.09684317E-02 -2.524E-06  2.052E-04
:PTO009:      0   -2   -4 -4.85541739E-02  3.218E-06 -1.567E-04
:PTO010:     -2   -2   -4  5.85796237E-02 -5.697E-06  3.853E-04
:PTO011:     -3   -3   -3 -2.56641625E-03 -3.175E-06  2.206E-04
:PTO012:     -1   -1   -5  7.00865597E-05  1.931E-06 -1.153E-04

:ENE  : ********** TOTAL ENERGY IN Ry =       -56437.50771596


------- UO2_10.scf0 --------


            ---------
:ITE085: 85. ITERATION
            ---------

:NATO :    2 INDEPENDENT AND    3 TOTAL ATOMS IN UNITCELL
       SUBSTANCE: blebleble                                                   

       LATTICE                      = F   
:POT  : POTENTIAL OPTION    5
:LAT  : LATTICE CONSTANTS= 10.99055 10.99055 10.99055    1.571    1.571    1.571
:VOL  : UNIT CELL VOLUME =     331.89279
       MODE OF CALCULATION IS       = RELA
       NON-SPINPOLARIZED CALCULATION
:IFFT  : FFT-parameters:   90   90   90 Factor: 2.00
       ATOMNUMBER=  1 U  4+      VCOUL-ZERO = -0.68996E+00
       ATOMNUMBER=  2 O  2-      VCOUL-ZERO =  0.73059E+00
:FIT001: LUSE= 13 SIGMA OF V-XC FIT FOR ATOM  1  0.3372764E-04
:FIT001: LUSE= 13 SIGMA OF V-XC FIT FOR ATOM  1  0.3372764E-04
:FIT002: LUSE= 13 SIGMA OF V-XC FIT FOR ATOM  2  0.7193247E-04
:FIT002: LUSE= 13 SIGMA OF V-XC FIT FOR ATOM  2  0.7193247E-04
:DEN  : DENSITY INTEGRAL  =        -20879.74753098   (Ry)
       ELS_POTENTIAL_AT Z=0 and Z=0.5:  -3.22252  -3.22252
       ELS_POTENTIAL_AT Y=0 and Y=0.5:   0.00000   0.00000
:VZERO:v0,v0c,v0x  -3.89117  -3.22252  -0.66865 v5,v5c,v5x  -3.89117  -3.22252  -0.66865
:VZERY:v0,v0c,v0x  -0.80129   0.00000  -0.80129 v5,v5c,v5x  -0.80129   0.00000  -0.80129
:VZERX:v0,v0c,v0x  -0.80129   0.00000  -0.80129 v5,v5c,v5x  -0.80129   0.00000  -0.80129

------- UO2_10.scf1 --------

          ATOMIC SPHERE DEPENDENT PARAMETERS FOR ATOM  U  4+     
:e__0001: OVERALL ENERGY PARAMETER IS    0.5321
          OVERALL BASIS SET ON ATOM IS LAPW
:E0_0001: E( 0)=    0.5321
             APW+lo
:E0_0001: E( 0)=   -2.4444   E(BOTTOM)=   -3.790   E(TOP)=   -1.098  5  6   236
             LOCAL ORBITAL
:E1_0001: E( 1)=   -1.2800   E(BOTTOM)=   -2.056   E(TOP)= -200.000  4 -1   206
             APW+lo
:E1_0001: E( 1)=    0.9321
             LOCAL ORBITAL
:E3_0001: E( 3)=    0.5321   E(BOTTOM)=   -0.005   E(TOP)= -200.000  1 -1   103
             APW+lo
:E2_0001: E( 2)=    0.5560   E(BOTTOM)=    0.556   E(TOP)= -200.000  3 -1    74
             APW+lo

          ATOMIC SPHERE DEPENDENT PARAMETERS FOR ATOM  O  2-     
:e__0002: OVERALL ENERGY PARAMETER IS    0.5321
          OVERALL BASIS SET ON ATOM IS LAPW
:E0_0002: E( 0)=   -0.4258   E(BOTTOM)=   -1.784   E(TOP)=    0.933  1  2   234
             APW+lo
:E0_0002: E( 0)=    0.9321
             LOCAL ORBITAL
:E1_0002: E( 1)=    0.5321
             APW+lo

       K=   0.00000   0.00000   0.00000            1
:RKM  : MATRIX SIZE  899LOs:  30  RKM= 8.38  WEIGHT= 1.00  PGR:    
       EIGENVALUES ARE:
:EIG00001:      -2.5197533   -0.6695373   -0.6695373   -0.6695373   -0.6170184
:EIG00006:      -0.5358083    0.3183610    0.3183610    0.3183610    0.5045440
:EIG00011:       0.5045440    0.5045440    0.7542045    0.7542045    0.7542045
:EIG00016:       0.7767338    0.8037455    0.8037455    0.8037455    0.8805823
:EIG00021:       0.9447255    0.9447255    1.3271473    1.3271473    1.3271473
:EIG00026:       1.5850157    1.5850157    1.5850157    1.8824297    2.2437588
:EIG00031:       2.2437588    2.2707983    2.2707983    2.2707983    2.5107513
:EIG00036:       2.5107513    2.5107513    2.7488996    2.7495681    2.7495681
:EIG00041:       2.7495681    3.1328291    3.1328291    3.2184688    3.2184688
:EIG00046:       3.2184688    3.2826351    3.3396928    3.3396928    3.3461799
 
:EIG00051:       3.3461799    3.3461799    3.5432183    3.5432183    3.5432183
:EIG00056:       3.6080622    3.6544959    3.6544959    3.6544959    3.6719258
:EIG00061:       3.6719258    3.6719258    3.7320052    3.7320052    3.7320052
:EIG00066:       4.0061720    4.4776077    4.4776077    4.4776077    4.7151610
:EIG00071:       4.7151610    4.7151610    4.7439846    4.7439846    4.9273576
:EIG00076:       5.2581715    5.2581715    5.2715873    5.2715873    5.2715873
:EIG00081:       5.3883119    5.3883119    5.3883119    5.5905203    5.5905203
:EIG00086:       5.5905203    5.7650056    5.7650056    5.7650056    5.8133405
:EIG00091:       5.8870045    5.8870045    5.9156015    5.9156015    5.9478327
:EIG00096:       5.9478327    5.9478327    6.0353338    6.1792062    6.1792062
 
:EIG00101:       6.1792062    6.2020331    6.2020331    6.2020331    6.2137776
:EIG00106:       6.3209520    6.3209520    6.3209520    6.5324708    6.5326701
:EIG00111:       6.5326701    6.5326701    6.6014937    6.6014937    6.6094899
:EIG00116:       6.6094899    6.6094899    6.6169499    6.6169499    6.6169499
:EIG00121:       6.7843498    6.7843498    6.7843498    7.2405321    7.2405321
:EIG00126:       7.2405321    7.2959443    7.2959443    7.2959443    7.4088284
:EIG00131:       7.4088284    7.4088284    7.4206402    7.5168140    7.5168140
:EIG00136:       7.5943902    7.5943902    7.6681770    7.6681770    7.6681770
:EIG00141:       7.7830293    7.7830293    7.7830293    7.9775584    7.9775584
:EIG00146:       7.9775584    8.0159874    8.1240592    8.1336003    8.1336003
 
       ********************************************************

:KPT   :      NUMBER OF K-POINTS:   145

------- UO2_10.scfso --------
   0.0   0.0 angle (M,z), angle (M,x) deg
 
        SPIN-ORBIT EIGENVALUES:
     K=   0.00000   0.00000   0.00000            1
      MATRIX SIZE=  300   WEIGHT= 1.00
     EIGENVALUES ARE:
          -2.5197533   -2.5197533   -1.0767186   -1.0767186   -0.6170184
          -0.6170184   -0.5358108   -0.5358108   -0.5025031   -0.5025031
          -0.5025031   -0.5025031    0.3167044    0.3167044    0.3167044
           0.3167044    0.3208507    0.3208507    0.5011305    0.5011305
           0.5055179    0.5055179    0.5055179    0.5055179    0.7229454
           0.7229454    0.7423750    0.7423750    0.7423750    0.7423750
           0.7979005    0.7979005    0.8106261    0.8106261    0.8106261
           0.8106261    0.8243140    0.8243140    0.8805823    0.8805823

           0.9423442    0.9423442    0.9423442    0.9423442    1.3168008
           1.3168008    1.3168008    1.3168008    1.3487364    1.3487364
           1.5256345    1.5256345    1.6115632    1.6115632    1.6115632
           1.6115632    1.8824297    1.8824297    2.2361724    2.2361724
           2.2361724    2.2361724    2.2737482    2.2737482    2.2737482
           2.2737482    2.2800100    2.2800100    2.3692499    2.3692499
           2.5904606    2.5904606    2.5904606    2.5904606    2.7408578
           2.7408578    2.7509054    2.7509054    2.7509054    2.7509054

           2.7553818    2.7553818    3.1288478    3.1288478    3.1288478
           3.1288478    3.2154205    3.2154205    3.2154205    3.2154205
           3.2341528    3.2341528    3.2826351    3.2826351    3.3396927
           3.3396927    3.3396927    3.3396927    3.3461677    3.3461677
           3.3461860    3.3461860    3.3461860    3.3461860    3.5432434
           3.5432434    3.5432434    3.5432434    3.5437268    3.5437268
           3.6080622    3.6080622    3.6473681    3.6473681    3.6589120
           3.6589120    3.6589120    3.6589120    3.6719184    3.6719184

           3.6719348    3.6719348    3.6719348    3.6719348    3.7310000
           3.7310000    3.7328084    3.7328084    3.7328084    3.7328084
           4.0063209    4.0063209    4.4672019    4.4672019    4.4825352
           4.4825352    4.4825352    4.4825352
       ********************************************************

------- UO2_10.scf2 --------
:GMA  : POTENTIAL AND CHARGE CUT-OFF  12.00 Ry**.5
         Bandranges (emin - emax) and occupancy:
:BAN00018:  18    0.320851    0.469109  1.00000000
:BAN00019:  19    0.401246    0.501772  1.00000000
:BAN00020:  20    0.401246    0.501772  1.00000000
:BAN00021:  21    0.461793    0.519447  1.00000000
:BAN00022:  22    0.461793    0.519447  1.00000000
:BAN00023:  23    0.493250    0.539961  1.00000000
:BAN00024:  24    0.493250    0.539961  1.00000000
:BAN00025:  25    0.693713    0.722945  0.94154121
:BAN00026:  26    0.693713    0.722945  0.94154121
:BAN00027:  27    0.719362    0.742375  0.05845879
:BAN00028:  28    0.719362    0.742375  0.05845879
:BAN00029:  29    0.726739    0.742375  0.00000000
:BAN00030:  30    0.726739    0.742375  0.00000000
:BAN00031:  31    0.757012    0.798037  0.00000000
:BAN00032:  32    0.757012    0.798037  0.00000000
:BAN00033:  33    0.778239    0.810626  0.00000000
        Energy to separate low and high energystates:    0.64371


:NLDA  : NUMBER OF ELECTRONS          =  26.000

:FLDA  : F E R M I - ENERGY           =   1.22056




:POS001: AT.NR.   1 POSITION = 0.00000 0.00000 0.00000  MULTIPLICITY =  1

       LMMAX  5
       LM=   0 0  4 0  4 4  6 0  6 4




:POS002: AT.NR.   2 POSITION = 0.00000 0.00000 0.00000  MULTIPLICITY =  2

       LMMAX  6
       LM=   0 0  4 0  4 4  6 0  6 4 -3 2
:FER DMFT Fermi Energy   0.68359
:EORB          0.080747601
:SUM SUM OF DMFT BAND ENERGIES         -4.860106907

:CHA001: TOTAL CHARGE INSIDE SPHERE   1 =     8.129827
:PCS001: PARTIAL CHARGES SPHERE =  1 S,P,D,F,      D-EG,D-T2G 
:QTL001: 1.7928 4.1523 0.2014 1.9814 0.0000 0.0000 0.0000 0.0429 0.1664 0.0000 0.0000 0.0000
        Q-s-low E-s-low   Q-p-low E-p-low   Q-d-low E-d-low   Q-f-low E-f-low
:EPL001:  1.7926 -2.4500    4.1512 -0.6647    0.2003  0.3603    0.2004  0.4644
        Q-s-hi  E-s-hi    Q-p-hi  E-p-hi    Q-d-hi  E-d-hi    Q-f-hi  E-f-hi 
:EPH001:  0.0001  0.7952    0.0011  0.7579    0.0011  0.7640    1.7810  0.7183

:CHA002: TOTAL CHARGE INSIDE SPHERE   2 =     5.106282
:PCS002: PARTIAL CHARGES SPHERE =  2 S,P,D,F,      D-EG,D-T2G 
:QTL002: 1.5762 3.5235 0.0056 0.0008 0.0000 0.0000 0.0000 0.0021 0.0060 0.0000 0.0000 0.0000
        Q-s-low E-s-low   Q-p-low E-p-low   Q-d-low E-d-low   Q-f-low E-f-low
:EPL002:  1.5748 -0.5552    3.5075  0.4308    0.0046 -0.0782    0.0006 -0.2686
        Q-s-hi  E-s-hi    Q-p-hi  E-p-hi    Q-d-hi  E-d-hi    Q-f-hi  E-f-hi 
:EPH002:  0.0014  0.7323    0.0160  0.7392    0.0010  0.7203    0.0001  0.7226

:CHA  : TOTAL CHARGE INSIDE UNIT CELL =      26.000000

:ESUM  : SUM OF EIGENVALUES =          -4.795724343


------- UO2_10.scfc --------

        1.ATOM      U  4+                21 CORE STATES
:1S 001: 1S               -8506.558951904 Ry
:2S 001: 2S               -1588.005110436 Ry
:2PP001: 2P*              -1531.251364806 Ry
:2P 001: 2P               -1250.055154659 Ry
:3S 001: 3S                -400.143535344 Ry
:3PP001: 3P*               -374.370414051 Ry
:3P 001: 3P                -309.586942140 Ry
:3DD001: 3D*               -268.774755262 Ry
:3D 001: 3D                -255.629433087 Ry
:4S 001: 4S                -101.212190422 Ry
:4PP001: 4P*                -89.618650901 Ry
:4P 001: 4P                 -72.708817946 Ry
:4DD001: 4D*                -54.244008290 Ry
:4D 001: 4D                 -51.135388015 Ry
:5S 001: 5S                 -21.803576624 Ry
:5PP001: 5P*                -17.296845953 Ry
:5P 001: 5P                 -13.266669652 Ry
:4FF001: 4F*                -26.848807208 Ry
:4F 001: 4F                 -26.038799815 Ry
:5DD001: 5D*                 -6.677609704 Ry
:5D 001: 5D                  -6.079429510 Ry

        2.ATOM      O  2-                 1 CORE STATES
:1S 002: 1S                 -36.183846621 Ry

------- UO2_10.scfm --------
:CINT001 Core Integral Atom   1   77.964575
:CINT002 Core Integral Atom   2    2.000000
     
       CHARGES OF NEW CHARGE DENSITY
:NTO   : INTERSTITIAL CHARGE =     7.657624
:NTO001: CHARGE SPHERE  1    =    86.094402
:NTO002: CHARGE SPHERE  2    =     7.106281

:NEC01: NUCLEAR AND ELECTRONIC CHARGE    108.00000   107.96459
     
       CHARGES OF OLD CHARGE DENSITY
:OTO   : INTERSTITIAL CHARGE =     7.716061
:OTO001: CHARGE SPHERE  1    =    86.142920
:OTO002: CHARGE SPHERE  2    =     7.070509
:DNEW  1   -0.0485
:DNEW  2    0.0358

:NEC02: NUCLEAR AND ELECTRONIC CHARGE    108.00000   108.00000
     
       CONVERGENCE TEST
:DTO001: DIFFERENCE IN SPHERE  1 =  0.0367528
:DTO002: DIFFERENCE IN SPHERE  2 =  0.0431521

:DIS  :  CHARGE DISTANCE       ( 0.0431521 for atom    2 spin 1)      0.0410190
:BIG check (qbig,qrms,qtot)    0.144D-01   0.291D-01   0.410D-01
 
******************************************************
* MULTISECANT MIXING VER6 RELEASE 6.0 OPTIONS        *
* Standard Mode with controls                        *
* Regularization       1.000E-06                     *
* Trust Region Control Active                        *
* Max Number of Memory Steps    8                    *
******************************************************
 
:PLANE:  INTERSTITIAL TOTAL      2.49117 DISTAN  3.846E-01 % 
:CHARG:  CLM CHARGE   /ATOM    345.90604 DISTAN  2.323E-02 % 
 
 Step History DMIX, Red, Pred, Trust, FRMS, FABS
  2  2.5000E-02  1.0000E+00  1.0000E+00  1.0000E+00
  3  1.0000E-02  1.0000E+00  1.0000E+00  1.0000E+00
  
:NORMS:  Nuclear, Spectral, Froebius, Shanno-Pua   0.1661E+02  0.1476E+02  0.1488E+02  0.1428E-01
:INFO :  Number of Memory Steps    2 Skipping    0
:INFO :  SLambda=    3.0000000  Max    3.0000000

Eigenvalues, unscaled except for SY+YY
   #     SY Real        SY Imag          SS             YY         SY+YY Real      SY+YY Imag
   1   3.529818E-11   0.000000E+00   2.341877E-17   1.969047E+00   3.698075E-02   0.000000E+00
   2   3.018024E-02   0.000000E+00   9.033855E-03   3.095302E-02   2.053560E+00   0.000000E+00
 
:INFO :  Singular value   2.087E+00 Weight  1.0000E+00 Projections  -4.718E-02 -1.572E-01
:INFO :  Singular value   3.640E-02 Weight  1.0000E+00 Projections   2.683E-01  2.225E-01
 
:DIRM :  MEMORY 2/8 RESCALE  16.62 RED 1.179 PRED 1.000 NEXT 0.254
:INFO :  Blimit    8.333E-01  5.000E-01  1.000E-01  5.000E-01
:DIRP :  |MSR1|= 1.713E-02 |PRATT|= 1.593E-01 ANGLE=   3.1 DEGREES
:DIRQ :  |MSR1|= 1.694E-02 |PRATT|= 1.607E-01 ANGLE=   5.3 DEGREES
:DIR  :  |MSR1|= 2.410E-02 |PRATT|= 2.263E-01 ANGLE=   4.3 DEGREES
:MIX  :   MSE1   REGULARIZATION: 1.97E-06  GREED: 0.010  Newton 1.00  0.11                
     
       CHARGES OF MIXED CHARGE DENSITY
:CTO   : INTERSTITIAL CHARGE =     7.713029
:CTO001: CHARGE SPHERE  1    =    86.138343
:CTO002: CHARGE SPHERE  2    =     7.074314

:NEC03: NUCLEAR AND ELECTRONIC CHARGE    108.00000   108.00000

PW CHANGE     H    K    L       Current     Change     Residue
:PTO001:      0    0    0  7.58780815E-02 -2.326E-06 -7.448E-06
:PTO002:     -1   -1   -1  1.92740449E-01 -4.354E-05 -4.246E-04
:PTO003:      0    0   -2  2.05365935E-03 -9.325E-05 -8.840E-04
:PTO004:      0   -2   -2  2.78354299E-01  9.993E-05  8.967E-04
:PTO005:     -1   -1   -3  1.59724456E-01  3.552E-05  3.041E-04
:PTO006:     -2   -2   -2 -1.58898217E-02 -1.091E-05 -1.297E-04
:PTO007:      0    0   -4  4.63416063E-02  1.448E-05  1.469E-04
:PTO008:     -1   -3   -3  4.09911141E-02  2.268E-05  2.234E-04
:PTO009:      0   -2   -4 -4.85795776E-02 -2.540E-05 -2.017E-04
:PTO010:     -2   -2   -4  5.86278624E-02  4.824E-05  4.491E-04
:PTO011:     -3   -3   -3 -2.53878762E-03  2.763E-05  2.445E-04
:PTO012:     -1   -1   -5  5.29785774E-05 -1.711E-05 -1.161E-04

:ENE  : ********** TOTAL ENERGY IN Ry =       -56437.50813370


------- UO2_10.scf0 --------


            ---------
:ITE086: 86. ITERATION
            ---------

:NATO :    2 INDEPENDENT AND    3 TOTAL ATOMS IN UNITCELL
       SUBSTANCE: blebleble                                                   

       LATTICE                      = F   
:POT  : POTENTIAL OPTION    5
:LAT  : LATTICE CONSTANTS= 10.99055 10.99055 10.99055    1.571    1.571    1.571
:VOL  : UNIT CELL VOLUME =     331.89279
       MODE OF CALCULATION IS       = RELA
       NON-SPINPOLARIZED CALCULATION
:IFFT  : FFT-parameters:   90   90   90 Factor: 2.00
       ATOMNUMBER=  1 U  4+      VCOUL-ZERO = -0.69203E+00
       ATOMNUMBER=  2 O  2-      VCOUL-ZERO =  0.73244E+00
:FIT001: LUSE= 13 SIGMA OF V-XC FIT FOR ATOM  1  0.3361252E-04
:FIT001: LUSE= 13 SIGMA OF V-XC FIT FOR ATOM  1  0.3361252E-04
:FIT002: LUSE= 13 SIGMA OF V-XC FIT FOR ATOM  2  0.7143761E-04
:FIT002: LUSE= 13 SIGMA OF V-XC FIT FOR ATOM  2  0.7143761E-04
:DEN  : DENSITY INTEGRAL  =        -20879.36486135   (Ry)
       ELS_POTENTIAL_AT Z=0 and Z=0.5:  -3.22621  -3.22621
       ELS_POTENTIAL_AT Y=0 and Y=0.5:   0.00000   0.00000
:VZERO:v0,v0c,v0x  -3.89443  -3.22621  -0.66823 v5,v5c,v5x  -3.89443  -3.22621  -0.66823
:VZERY:v0,v0c,v0x  -0.80121   0.00000  -0.80121 v5,v5c,v5x  -0.80121   0.00000  -0.80121
:VZERX:v0,v0c,v0x  -0.80121   0.00000  -0.80121 v5,v5c,v5x  -0.80121   0.00000  -0.80121

------- UO2_10.scf1 --------

          ATOMIC SPHERE DEPENDENT PARAMETERS FOR ATOM  U  4+     
:e__0001: OVERALL ENERGY PARAMETER IS    0.5321
          OVERALL BASIS SET ON ATOM IS LAPW
:E0_0001: E( 0)=    0.5321
             APW+lo
:E0_0001: E( 0)=   -2.4479   E(BOTTOM)=   -3.794   E(TOP)=   -1.102  5  6   234
             LOCAL ORBITAL
:E1_0001: E( 1)=   -1.2800   E(BOTTOM)=   -2.059   E(TOP)= -200.000  4 -1   202
             APW+lo
:E1_0001: E( 1)=    0.9321
             LOCAL ORBITAL
:E3_0001: E( 3)=    0.5321   E(BOTTOM)=   -0.009   E(TOP)= -200.000  1 -1   109
             APW+lo
:E2_0001: E( 2)=    0.5530   E(BOTTOM)=    0.553   E(TOP)= -200.000  3 -1    74
             APW+lo

          ATOMIC SPHERE DEPENDENT PARAMETERS FOR ATOM  O  2-     
:e__0002: OVERALL ENERGY PARAMETER IS    0.5321
          OVERALL BASIS SET ON ATOM IS LAPW
:E0_0002: E( 0)=   -0.4218   E(BOTTOM)=   -1.781   E(TOP)=    0.937  1  2   234
             APW+lo
:E0_0002: E( 0)=    0.9321
             LOCAL ORBITAL
:E1_0002: E( 1)=    0.5321
             APW+lo

       K=   0.00000   0.00000   0.00000            1
:RKM  : MATRIX SIZE  899LOs:  30  RKM= 8.38  WEIGHT= 1.00  PGR:    
       EIGENVALUES ARE:
:EIG00001:      -2.5229392   -0.6719602   -0.6719602   -0.6719602   -0.6140473
:EIG00006:      -0.5324576    0.3203505    0.3203505    0.3203505    0.5064419
:EIG00011:       0.5064419    0.5064419    0.7507717    0.7507717    0.7507717
:EIG00016:       0.7734588    0.8016518    0.8016518    0.8016518    0.8811315
:EIG00021:       0.9437132    0.9437132    1.3276561    1.3276561    1.3276561
:EIG00026:       1.5848922    1.5848922    1.5848922    1.8822974    2.2434986
:EIG00031:       2.2434986    2.2712124    2.2712124    2.2712124    2.5108143
:EIG00036:       2.5108143    2.5108143    2.7489227    2.7489227    2.7489227
:EIG00041:       2.7496183    3.1321319    3.1321319    3.2187181    3.2187181
:EIG00046:       3.2187181    3.2824205    3.3408969    3.3408969    3.3457345
 
:EIG00051:       3.3457345    3.3457345    3.5434061    3.5434061    3.5434061
:EIG00056:       3.6076384    3.6542344    3.6542344    3.6542344    3.6720331
:EIG00061:       3.6720331    3.6720331    3.7317312    3.7317312    3.7317312
:EIG00066:       4.0059668    4.4785699    4.4785699    4.4785699    4.7159995
:EIG00071:       4.7159995    4.7159995    4.7438391    4.7438391    4.9271601
:EIG00076:       5.2572933    5.2572933    5.2708159    5.2708159    5.2708159
:EIG00081:       5.3882379    5.3882379    5.3882379    5.5895871    5.5895871
:EIG00086:       5.5895871    5.7654111    5.7654111    5.7654111    5.8137660
:EIG00091:       5.8873833    5.8873833    5.9159741    5.9159741    5.9476353
:EIG00096:       5.9476353    5.9476353    6.0357460    6.1793676    6.1793676
 
:EIG00101:       6.1793676    6.2012367    6.2012367    6.2012367    6.2137304
:EIG00106:       6.3215196    6.3215196    6.3215196    6.5322868    6.5325282
:EIG00111:       6.5325282    6.5325282    6.6017561    6.6017561    6.6093878
:EIG00116:       6.6093878    6.6093878    6.6170376    6.6170376    6.6170376
:EIG00121:       6.7841138    6.7841138    6.7841138    7.2406280    7.2406280
:EIG00126:       7.2406280    7.2959947    7.2959947    7.2959947    7.4088264
:EIG00131:       7.4088264    7.4088264    7.4198856    7.5165864    7.5165864
:EIG00136:       7.5944490    7.5944490    7.6693304    7.6693304    7.6693304
:EIG00141:       7.7828793    7.7828793    7.7828793    7.9769664    7.9769664
:EIG00146:       7.9769664    8.0163390    8.1241406    8.1324854    8.1324854
 
       ********************************************************

:KPT   :      NUMBER OF K-POINTS:   145

------- UO2_10.scfso --------
   0.0   0.0 angle (M,z), angle (M,x) deg
 
        SPIN-ORBIT EIGENVALUES:
     K=   0.00000   0.00000   0.00000            1
      MATRIX SIZE=  300   WEIGHT= 1.00
     EIGENVALUES ARE:
          -2.5229392   -2.5229392   -1.0794487   -1.0794487   -0.6140473
          -0.6140473   -0.5324602   -0.5324602   -0.5047700   -0.5047700
          -0.5047700   -0.5047700    0.3186682    0.3186682    0.3186682
           0.3186682    0.3228805    0.3228805    0.5032739    0.5032739
           0.5072135    0.5072135    0.5072135    0.5072135    0.7195190
           0.7195190    0.7394074    0.7394074    0.7394074    0.7394074
           0.7946091    0.7946091    0.8082288    0.8082288    0.8082288
           0.8082288    0.8220492    0.8220492    0.8811315    0.8811315

           0.9413359    0.9413359    0.9413359    0.9413359    1.3172894
           1.3172894    1.3172894    1.3172894    1.3492815    1.3492815
           1.5253891    1.5253891    1.6114978    1.6114978    1.6114978
           1.6114978    1.8822974    1.8822974    2.2360697    2.2360697
           2.2360697    2.2360697    2.2740216    2.2740216    2.2740216
           2.2740216    2.2803984    2.2803984    2.3693953    2.3693953
           2.5904867    2.5904867    2.5904867    2.5904867    2.7407824
           2.7407824    2.7502602    2.7502602    2.7502602    2.7502602

           2.7555302    2.7555302    3.1282074    3.1282074    3.1282074
           3.1282074    3.2156228    3.2156228    3.2156228    3.2156228
           3.2343825    3.2343825    3.2824205    3.2824205    3.3408969
           3.3408969    3.3408969    3.3408969    3.3457223    3.3457223
           3.3457406    3.3457406    3.3457406    3.3457406    3.5434463
           3.5434463    3.5434463    3.5434463    3.5438975    3.5438975
           3.6076384    3.6076384    3.6471587    3.6471587    3.6586193
           3.6586193    3.6586193    3.6586193    3.6720243    3.6720243

           3.6720426    3.6720426    3.6720426    3.6720426    3.7307276
           3.7307276    3.7325320    3.7325320    3.7325320    3.7325320
           4.0061155    4.0061155    4.4681585    4.4681585    4.4834969
           4.4834969    4.4834969    4.4834969
       ********************************************************

------- UO2_10.scf2 --------
:GMA  : POTENTIAL AND CHARGE CUT-OFF  12.00 Ry**.5
         Bandranges (emin - emax) and occupancy:
:BAN00018:  18    0.322880    0.471026  1.00000000
:BAN00019:  19    0.403151    0.504537  1.00000000
:BAN00020:  20    0.403151    0.504537  1.00000000
:BAN00021:  21    0.463823    0.521882  1.00000000
:BAN00022:  22    0.463823    0.521882  1.00000000
:BAN00023:  23    0.495041    0.542424  1.00000000
:BAN00024:  24    0.495041    0.542424  1.00000000
:BAN00025:  25    0.690479    0.719519  0.94194602
:BAN00026:  26    0.690479    0.719519  0.94194602
:BAN00027:  27    0.716252    0.739407  0.05805398
:BAN00028:  28    0.716252    0.739407  0.05805398
:BAN00029:  29    0.723632    0.739407  0.00000000
:BAN00030:  30    0.723632    0.739407  0.00000000
:BAN00031:  31    0.753829    0.794812  0.00000000
:BAN00032:  32    0.753829    0.794812  0.00000000
:BAN00033:  33    0.775120    0.808229  0.00000000
        Energy to separate low and high energystates:    0.64048


:NLDA  : NUMBER OF ELECTRONS          =  26.000

:FLDA  : F E R M I - ENERGY           =   1.21737




:POS001: AT.NR.   1 POSITION = 0.00000 0.00000 0.00000  MULTIPLICITY =  1

       LMMAX  5
       LM=   0 0  4 0  4 4  6 0  6 4




:POS002: AT.NR.   2 POSITION = 0.00000 0.00000 0.00000  MULTIPLICITY =  2

       LMMAX  6
       LM=   0 0  4 0  4 4  6 0  6 4 -3 2
:FER DMFT Fermi Energy   0.68627
:EORB          0.066289133
:SUM SUM OF DMFT BAND ENERGIES         -4.833152987

:CHA001: TOTAL CHARGE INSIDE SPHERE   1 =     8.137623
:PCS001: PARTIAL CHARGES SPHERE =  1 S,P,D,F,      D-EG,D-T2G 
:QTL001: 1.7932 4.1546 0.2040 1.9839 0.0000 0.0000 0.0000 0.0435 0.1683 0.0000 0.0000 0.0000
        Q-s-low E-s-low   Q-p-low E-p-low   Q-d-low E-d-low   Q-f-low E-f-low
:EPL001:  1.7931 -2.4528    4.1534 -0.6670    0.2029  0.3626    0.2021  0.4667
        Q-s-hi  E-s-hi    Q-p-hi  E-p-hi    Q-d-hi  E-d-hi    Q-f-hi  E-f-hi 
:EPH001:  0.0001  0.7943    0.0011  0.7543    0.0011  0.7618    1.7819  0.7151

:CHA002: TOTAL CHARGE INSIDE SPHERE   2 =     5.095222
:PCS002: PARTIAL CHARGES SPHERE =  2 S,P,D,F,      D-EG,D-T2G 
:QTL002: 1.5752 3.5134 0.0056 0.0008 0.0000 0.0000 0.0000 0.0022 0.0060 0.0000 0.0000 0.0000
        Q-s-low E-s-low   Q-p-low E-p-low   Q-d-low E-d-low   Q-f-low E-f-low
:EPL002:  1.5738 -0.5519    3.4972  0.4330    0.0047 -0.0745    0.0006 -0.2664
        Q-s-hi  E-s-hi    Q-p-hi  E-p-hi    Q-d-hi  E-d-hi    Q-f-hi  E-f-hi 
:EPH002:  0.0014  0.7293    0.0162  0.7363    0.0010  0.7172    0.0001  0.7194

:CHA  : TOTAL CHARGE INSIDE UNIT CELL =      26.000000

:ESUM  : SUM OF EIGENVALUES =          -4.783084363


------- UO2_10.scfc --------

        1.ATOM      U  4+                21 CORE STATES
:1S 001: 1S               -8506.564832680 Ry
:2S 001: 2S               -1588.011001922 Ry
:2PP001: 2P*              -1531.257254356 Ry
:2P 001: 2P               -1250.061045677 Ry
:3S 001: 3S                -400.149369894 Ry
:3PP001: 3P*               -374.376257901 Ry
:3P 001: 3P                -309.592761158 Ry
:3DD001: 3D*               -268.780602981 Ry
:3D 001: 3D                -255.635274941 Ry
:4S 001: 4S                -101.217710463 Ry
:4PP001: 4P*                -89.624173977 Ry
:4P 001: 4P                 -72.714279098 Ry
:4DD001: 4D*                -54.249477193 Ry
:4D 001: 4D                 -51.140839140 Ry
:5S 001: 5S                 -21.808569435 Ry
:5PP001: 5P*                -17.301789905 Ry
:5P 001: 5P                 -13.271466955 Ry
:4FF001: 4F*                -26.854288879 Ry
:4F 001: 4F                 -26.044272304 Ry
:5DD001: 5D*                 -6.682211900 Ry
:5D 001: 5D                  -6.083971758 Ry

        2.ATOM      O  2-                 1 CORE STATES
:1S 002: 1S                 -36.176773790 Ry

------- UO2_10.scfm --------
:CINT001 Core Integral Atom   1   77.964614
:CINT002 Core Integral Atom   2    2.000000
     
       CHARGES OF NEW CHARGE DENSITY
:NTO   : INTERSTITIAL CHARGE =     7.671913
:NTO001: CHARGE SPHERE  1    =    86.102236
:NTO002: CHARGE SPHERE  2    =     7.095221

:NEC01: NUCLEAR AND ELECTRONIC CHARGE    108.00000   107.96459
     
       CHARGES OF OLD CHARGE DENSITY
:OTO   : INTERSTITIAL CHARGE =     7.713029
:OTO001: CHARGE SPHERE  1    =    86.138343
:OTO002: CHARGE SPHERE  2    =     7.074314
:DNEW  1   -0.0361
:DNEW  2    0.0209

:NEC02: NUCLEAR AND ELECTRONIC CHARGE    108.00000   108.00000
     
       CONVERGENCE TEST
:DTO001: DIFFERENCE IN SPHERE  1 =  0.0276296
:DTO002: DIFFERENCE IN SPHERE  2 =  0.0233213

:DIS  :  CHARGE DISTANCE       ( 0.0276296 for atom    1 spin 1)      0.0247574
:BIG check (qbig,qrms,qtot)    0.921D-02   0.176D-01   0.248D-01
 
******************************************************
* MULTISECANT MIXING VER6 RELEASE 6.0 OPTIONS        *
* Standard Mode with controls                        *
* Regularization       1.000E-06                     *
* Trust Region Control Active                        *
* Max Number of Memory Steps    8                    *
******************************************************
 
:PLANE:  INTERSTITIAL TOTAL      2.49138 DISTAN  2.623E-01 % 
:CHARG:  CLM CHARGE   /ATOM    345.90577 DISTAN  1.524E-02 % 
 
 Step History DMIX, Red, Pred, Trust, FRMS, FABS
  2  2.5000E-02  1.0000E+00  1.0000E+00  1.0000E+00
  3  1.0000E-02  1.1790E+00  1.0000E+00  1.0000E+00
  4  1.0000E-02  1.0000E+00  2.5366E-01  5.0000E-01
  
:NORMS:  Nuclear, Spectral, Froebius, Shanno-Pua   0.3235E+01  0.2822E+01  0.2852E+01  0.2807E+00
:INFO :  Number of Memory Steps    3 Skipping    0
:INFO :  SLambda=    3.0000000  Max    3.0000000

Eigenvalues, unscaled except for SY+YY
   #     SY Real        SY Imag          SS             YY         SY+YY Real      SY+YY Imag
   1   8.122331E-01   0.000000E+00   3.687408E-01   2.937268E+00   5.394699E+00   0.000000E+00
   2   3.538057E-05   0.000000E+00   1.730445E-06   6.271151E-02   4.209114E-02   0.000000E+00
   3  -1.365522E-13   0.000000E+00  -1.773893E-17   2.024242E-05   1.572627E-05   0.000000E+00
 
:INFO :  Increased using Multisecant Shanno-Phua
:INFO :  Singular value   5.433E+00 Weight  1.0000E+00 Projections   5.402E+00  7.700E-02
:INFO :  Singular value   4.179E-02 Weight  1.0000E+00 Projections  -8.148E+00  3.585E-01
:INFO :  Singular value   1.573E-05 Weight  9.6629E-01 Projections   2.753E+00  1.015E+01
 
:DIRM :  MEMORY 3/8 RESCALE  16.50 RED 0.669 PRED 0.254 NEXT 0.557
:INFO :  Blimit    7.222E-01  1.063E+00  1.074E-01  5.000E-01
:DIRP :  |MSR1|= 1.223E-02 |PRATT|= 1.078E-01 ANGLE=  44.5 DEGREES
:DIRQ :  |MSR1|= 1.045E-02 |PRATT|= 1.055E-01 ANGLE=  62.2 DEGREES
:DIR  :  |MSR1|= 1.609E-02 |PRATT|= 1.508E-01 ANGLE=  53.1 DEGREES
:MIX  :   MSE1   REGULARIZATION: 2.94E-06  GREED: 0.016  Newton 1.00  0.11                
     
       CHARGES OF MIXED CHARGE DENSITY
:CTO   : INTERSTITIAL CHARGE =     7.711582
:CTO001: CHARGE SPHERE  1    =    86.138627
:CTO002: CHARGE SPHERE  2    =     7.074896

:NEC03: NUCLEAR AND ELECTRONIC CHARGE    108.00000   108.00000

PW CHANGE     H    K    L       Current     Change     Residue
:PTO001:      0    0    0  7.58794279E-02  1.346E-06  3.266E-05
:PTO002:     -1   -1   -1  1.92750904E-01  1.046E-05 -2.147E-04
:PTO003:      0    0   -2  2.04201827E-03 -1.164E-05 -5.210E-04
:PTO004:      0   -2   -2  2.78419394E-01  6.510E-05  6.291E-04
:PTO005:     -1   -1   -3  1.59808549E-01  8.409E-05  4.279E-04
:PTO006:     -2   -2   -2 -1.58376032E-02  5.222E-05  8.162E-05
:PTO007:      0    0   -4  4.63351075E-02 -6.499E-06  7.411E-05
:PTO008:     -1   -3   -3  4.10342309E-02  4.312E-05  3.087E-04
:PTO009:      0   -2   -4 -4.85477885E-02  3.179E-05  1.066E-04
:PTO010:     -2   -2   -4  5.86510090E-02  2.315E-05  3.136E-04
:PTO011:     -3   -3   -3 -2.50707739E-03  3.171E-05  2.181E-04
:PTO012:     -1   -1   -5  2.35781781E-05 -2.940E-05 -7.387E-05

:ENE  : ********** TOTAL ENERGY IN Ry =       -56437.50854802


------- UO2_10.scf0 --------


            ---------
:ITE087: 87. ITERATION
            ---------

:NATO :    2 INDEPENDENT AND    3 TOTAL ATOMS IN UNITCELL
       SUBSTANCE: blebleble                                                   

       LATTICE                      = F   
:POT  : POTENTIAL OPTION    5
:LAT  : LATTICE CONSTANTS= 10.99055 10.99055 10.99055    1.571    1.571    1.571
:VOL  : UNIT CELL VOLUME =     331.89279
       MODE OF CALCULATION IS       = RELA
       NON-SPINPOLARIZED CALCULATION
:IFFT  : FFT-parameters:   90   90   90 Factor: 2.00
       ATOMNUMBER=  1 U  4+      VCOUL-ZERO = -0.69238E+00
       ATOMNUMBER=  2 O  2-      VCOUL-ZERO =  0.73281E+00
:FIT001: LUSE= 13 SIGMA OF V-XC FIT FOR ATOM  1  0.3364840E-04
:FIT001: LUSE= 13 SIGMA OF V-XC FIT FOR ATOM  1  0.3364840E-04
:FIT002: LUSE= 13 SIGMA OF V-XC FIT FOR ATOM  2  0.7098791E-04
:FIT002: LUSE= 13 SIGMA OF V-XC FIT FOR ATOM  2  0.7098791E-04
:DEN  : DENSITY INTEGRAL  =        -20879.49408045   (Ry)
       ELS_POTENTIAL_AT Z=0 and Z=0.5:  -3.22686  -3.22686
       ELS_POTENTIAL_AT Y=0 and Y=0.5:   0.00000   0.00000
:VZERO:v0,v0c,v0x  -3.89479  -3.22686  -0.66793 v5,v5c,v5x  -3.89479  -3.22686  -0.66793
:VZERY:v0,v0c,v0x  -0.80118   0.00000  -0.80118 v5,v5c,v5x  -0.80118   0.00000  -0.80118
:VZERX:v0,v0c,v0x  -0.80118   0.00000  -0.80118 v5,v5c,v5x  -0.80118   0.00000  -0.80118

------- UO2_10.scf1 --------

          ATOMIC SPHERE DEPENDENT PARAMETERS FOR ATOM  U  4+     
:e__0001: OVERALL ENERGY PARAMETER IS    0.5321
          OVERALL BASIS SET ON ATOM IS LAPW
:E0_0001: E( 0)=    0.5321
             APW+lo
:E0_0001: E( 0)=   -2.4477   E(BOTTOM)=   -3.794   E(TOP)=   -1.102  5  6   231
             LOCAL ORBITAL
:E1_0001: E( 1)=   -1.2800   E(BOTTOM)=   -2.059   E(TOP)= -200.000  4 -1   201
             APW+lo
:E1_0001: E( 1)=    0.9321
             LOCAL ORBITAL
:E3_0001: E( 3)=    0.5321   E(BOTTOM)=   -0.009   E(TOP)= -200.000  1 -1   110
             APW+lo
:E2_0001: E( 2)=    0.5530   E(BOTTOM)=    0.553   E(TOP)= -200.000  3 -1    73
             APW+lo

          ATOMIC SPHERE DEPENDENT PARAMETERS FOR ATOM  O  2-     
:e__0002: OVERALL ENERGY PARAMETER IS    0.5321
          OVERALL BASIS SET ON ATOM IS LAPW
:E0_0002: E( 0)=   -0.4213   E(BOTTOM)=   -1.781   E(TOP)=    0.938  1  2   239
             APW+lo
:E0_0002: E( 0)=    0.9321
             LOCAL ORBITAL
:E1_0002: E( 1)=    0.5321
             APW+lo

       K=   0.00000   0.00000   0.00000            1
:RKM  : MATRIX SIZE  899LOs:  30  RKM= 8.38  WEIGHT= 1.00  PGR:    
       EIGENVALUES ARE:
:EIG00001:      -2.5228320   -0.6719598   -0.6719598   -0.6719598   -0.6136457
:EIG00006:      -0.5320151    0.3206293    0.3206293    0.3206293    0.5067741
:EIG00011:       0.5067741    0.5067741    0.7510396    0.7510396    0.7510396
:EIG00016:       0.7738611    0.8019208    0.8019208    0.8019208    0.8812068
:EIG00021:       0.9436582    0.9436582    1.3278405    1.3278405    1.3278405
:EIG00026:       1.5849449    1.5849449    1.5849449    1.8822788    2.2435269
:EIG00031:       2.2435269    2.2713107    2.2713107    2.2713107    2.5109555
:EIG00036:       2.5109555    2.5109555    2.7490004    2.7490004    2.7490004
:EIG00041:       2.7498420    3.1321328    3.1321328    3.2188514    3.2188514
:EIG00046:       3.2188514    3.2824853    3.3410773    3.3410773    3.3456900
 
:EIG00051:       3.3456900    3.3456900    3.5435255    3.5435255    3.5435255
:EIG00056:       3.6075618    3.6542638    3.6542638    3.6542638    3.6720502
:EIG00061:       3.6720502    3.6720502    3.7317592    3.7317592    3.7317592
:EIG00066:       4.0060902    4.4786932    4.4786932    4.4786932    4.7161218
:EIG00071:       4.7161218    4.7161218    4.7438838    4.7438838    4.9271328
:EIG00076:       5.2572570    5.2572570    5.2708966    5.2708966    5.2708966
:EIG00081:       5.3883113    5.3883113    5.3883113    5.5895764    5.5895764
:EIG00086:       5.5895764    5.7655476    5.7655476    5.7655476    5.8138524
:EIG00091:       5.8875190    5.8875190    5.9160357    5.9160357    5.9476555
:EIG00096:       5.9476555    5.9476555    6.0359260    6.1794116    6.1794116
 
:EIG00101:       6.1794116    6.2011883    6.2011883    6.2011883    6.2138514
:EIG00106:       6.3216056    6.3216056    6.3216056    6.5322434    6.5326124
:EIG00111:       6.5326124    6.5326124    6.6017972    6.6017972    6.6095276
:EIG00116:       6.6095276    6.6095276    6.6170650    6.6170650    6.6170650
:EIG00121:       6.7842209    6.7842209    6.7842209    7.2406850    7.2406850
:EIG00126:       7.2406850    7.2960618    7.2960618    7.2960618    7.4088686
:EIG00131:       7.4088686    7.4088686    7.4198649    7.5165696    7.5165696
:EIG00136:       7.5944730    7.5944730    7.6694667    7.6694667    7.6694667
:EIG00141:       7.7829082    7.7829082    7.7829082    7.9770040    7.9770040
:EIG00146:       7.9770040    8.0165054    8.1242391    8.1324945    8.1324945
 
       ********************************************************

:KPT   :      NUMBER OF K-POINTS:   145

------- UO2_10.scfso --------
   0.0   0.0 angle (M,z), angle (M,x) deg
 
        SPIN-ORBIT EIGENVALUES:
     K=   0.00000   0.00000   0.00000            1
      MATRIX SIZE=  300   WEIGHT= 1.00
     EIGENVALUES ARE:
          -2.5228320   -2.5228320   -1.0794205   -1.0794205   -0.6136457
          -0.6136457   -0.5320177   -0.5320177   -0.5047801   -0.5047801
          -0.5047801   -0.5047801    0.3189445    0.3189445    0.3189445
           0.3189445    0.3231631    0.3231631    0.5036189    0.5036189
           0.5075364    0.5075364    0.5075364    0.5075364    0.7198353
           0.7198353    0.7396891    0.7396891    0.7396891    0.7396891
           0.7949657    0.7949657    0.8084944    0.8084944    0.8084944
           0.8084944    0.8222980    0.8222980    0.8812068    0.8812068

           0.9412822    0.9412822    0.9412822    0.9412822    1.3174731
           1.3174731    1.3174731    1.3174731    1.3494656    1.3494656
           1.5254371    1.5254371    1.6115528    1.6115528    1.6115528
           1.6115528    1.8822788    1.8822788    2.2361141    2.2361141
           2.2361141    2.2361141    2.2741051    2.2741051    2.2741051
           2.2741051    2.2804944    2.2804944    2.3695302    2.3695302
           2.5906299    2.5906299    2.5906299    2.5906299    2.7409163
           2.7409163    2.7503381    2.7503381    2.7503381    2.7503381

           2.7556973    2.7556973    3.1282155    3.1282155    3.1282155
           3.1282155    3.2157496    3.2157496    3.2157496    3.2157496
           3.2345141    3.2345141    3.2824853    3.2824853    3.3410773
           3.3410773    3.3410773    3.3410773    3.3456777    3.3456777
           3.3456961    3.3456961    3.3456961    3.3456961    3.5435647
           3.5435647    3.5435647    3.5435647    3.5440187    3.5440187
           3.6075618    3.6075618    3.6471929    3.6471929    3.6586459
           3.6586459    3.6586459    3.6586459    3.6720413    3.6720413

           3.6720598    3.6720598    3.6720598    3.6720598    3.7307554
           3.7307554    3.7325602    3.7325602    3.7325602    3.7325602
           4.0062389    4.0062389    4.4682825    4.4682825    4.4836196
           4.4836196    4.4836196    4.4836196
       ********************************************************

------- UO2_10.scf2 --------
:GMA  : POTENTIAL AND CHARGE CUT-OFF  12.00 Ry**.5
         Bandranges (emin - emax) and occupancy:
:BAN00018:  18    0.323163    0.471353  1.00000000
:BAN00019:  19    0.403432    0.504908  1.00000000
:BAN00020:  20    0.403432    0.504908  1.00000000
:BAN00021:  21    0.464144    0.522251  1.00000000
:BAN00022:  22    0.464144    0.522251  1.00000000
:BAN00023:  23    0.495368    0.542798  1.00000000
:BAN00024:  24    0.495368    0.542798  1.00000000
:BAN00025:  25    0.690694    0.719835  0.94118261
:BAN00026:  26    0.690694    0.719835  0.94118261
:BAN00027:  27    0.716495    0.739689  0.05881739
:BAN00028:  28    0.716495    0.739689  0.05881739
:BAN00029:  29    0.723877    0.739689  0.00000000
:BAN00030:  30    0.723877    0.739689  0.00000000
:BAN00031:  31    0.754038    0.795164  0.00000000
:BAN00032:  32    0.754038    0.795164  0.00000000
:BAN00033:  33    0.775350    0.808494  0.00000000
        Energy to separate low and high energystates:    0.64069


:NLDA  : NUMBER OF ELECTRONS          =  26.000

:FLDA  : F E R M I - ENERGY           =   1.21761




:POS001: AT.NR.   1 POSITION = 0.00000 0.00000 0.00000  MULTIPLICITY =  1

       LMMAX  5
       LM=   0 0  4 0  4 4  6 0  6 4




:POS002: AT.NR.   2 POSITION = 0.00000 0.00000 0.00000  MULTIPLICITY =  2

       LMMAX  6
       LM=   0 0  4 0  4 4  6 0  6 4 -3 2
:FER DMFT Fermi Energy   0.68801
:EORB          0.061520461
:SUM SUM OF DMFT BAND ENERGIES         -4.822268055

:CHA001: TOTAL CHARGE INSIDE SPHERE   1 =     8.132050
:PCS001: PARTIAL CHARGES SPHERE =  1 S,P,D,F,      D-EG,D-T2G 
:QTL001: 1.7932 4.1546 0.2044 1.9779 0.0000 0.0000 0.0000 0.0436 0.1685 0.0000 0.0000 0.0000
        Q-s-low E-s-low   Q-p-low E-p-low   Q-d-low E-d-low   Q-f-low E-f-low
:EPL001:  1.7931 -2.4526    4.1535 -0.6669    0.2032  0.3631    0.1976  0.4661
        Q-s-hi  E-s-hi    Q-p-hi  E-p-hi    Q-d-hi  E-d-hi    Q-f-hi  E-f-hi 
:EPH001:  0.0001  0.7945    0.0011  0.7548    0.0011  0.7620    1.7804  0.7154

:CHA002: TOTAL CHARGE INSIDE SPHERE   2 =     5.096977
:PCS002: PARTIAL CHARGES SPHERE =  2 S,P,D,F,      D-EG,D-T2G 
:QTL002: 1.5752 3.5152 0.0056 0.0008 0.0000 0.0000 0.0000 0.0022 0.0060 0.0000 0.0000 0.0000
        Q-s-low E-s-low   Q-p-low E-p-low   Q-d-low E-d-low   Q-f-low E-f-low
:EPL002:  1.5738 -0.5514    3.4994  0.4334    0.0047 -0.0741    0.0006 -0.2663
        Q-s-hi  E-s-hi    Q-p-hi  E-p-hi    Q-d-hi  E-d-hi    Q-f-hi  E-f-hi 
:EPH002:  0.0014  0.7296    0.0158  0.7366    0.0010  0.7174    0.0001  0.7197

:CHA  : TOTAL CHARGE INSIDE UNIT CELL =      26.000000

:ESUM  : SUM OF EIGENVALUES =          -4.776054865


------- UO2_10.scfc --------

        1.ATOM      U  4+                21 CORE STATES
:1S 001: 1S               -8506.562532700 Ry
:2S 001: 2S               -1588.008804264 Ry
:2PP001: 2P*              -1531.255030978 Ry
:2P 001: 2P               -1250.058846747 Ry
:3S 001: 3S                -400.147389548 Ry
:3PP001: 3P*               -374.374256157 Ry
:3P 001: 3P                -309.590803588 Ry
:3DD001: 3D*               -268.778593539 Ry
:3D 001: 3D                -255.633278530 Ry
:4S 001: 4S                -101.216127881 Ry
:4PP001: 4P*                -89.622586705 Ry
:4P 001: 4P                 -72.712766094 Ry
:4DD001: 4D*                -54.247954916 Ry
:4D 001: 4D                 -51.139338514 Ry
:5S 001: 5S                 -21.807588598 Ry
:5PP001: 5P*                -17.300850325 Ry
:5P 001: 5P                 -13.270648537 Ry
:4FF001: 4F*                -26.852762643 Ry
:4F 001: 4F                 -26.042756921 Ry
:5DD001: 5D*                 -6.681521211 Ry
:5D 001: 5D                  -6.083319077 Ry

        2.ATOM      O  2-                 1 CORE STATES
:1S 002: 1S                 -36.176219847 Ry

------- UO2_10.scfm --------
:CINT001 Core Integral Atom   1   77.964599
:CINT002 Core Integral Atom   2    2.000000
     
       CHARGES OF NEW CHARGE DENSITY
:NTO   : INTERSTITIAL CHARGE =     7.674004
:NTO001: CHARGE SPHERE  1    =    86.096648
:NTO002: CHARGE SPHERE  2    =     7.096976

:NEC01: NUCLEAR AND ELECTRONIC CHARGE    108.00000   107.96461
     
       CHARGES OF OLD CHARGE DENSITY
:OTO   : INTERSTITIAL CHARGE =     7.711582
:OTO001: CHARGE SPHERE  1    =    86.138627
:OTO002: CHARGE SPHERE  2    =     7.074896
:DNEW  1   -0.0420
:DNEW  2    0.0221

:NEC02: NUCLEAR AND ELECTRONIC CHARGE    108.00000   108.00000
     
       CONVERGENCE TEST
:DTO001: DIFFERENCE IN SPHERE  1 =  0.0338268
:DTO002: DIFFERENCE IN SPHERE  2 =  0.0248491

:DIS  :  CHARGE DISTANCE       ( 0.0338268 for atom    1 spin 1)      0.0278417
:BIG check (qbig,qrms,qtot)    0.113D-01   0.199D-01   0.278D-01
 
******************************************************
* MULTISECANT MIXING VER6 RELEASE 6.0 OPTIONS        *
* Standard Mode with controls                        *
* Regularization       1.000E-06                     *
* Trust Region Control Active                        *
* Max Number of Memory Steps    8                    *
******************************************************
 
:PLANE:  INTERSTITIAL TOTAL      2.49169 DISTAN  2.591E-01 % 
:CHARG:  CLM CHARGE   /ATOM    345.90627 DISTAN  1.609E-02 % 
 
 Step History DMIX, Red, Pred, Trust, FRMS, FABS
  2  2.5000E-02  1.0000E+00  1.0000E+00  1.0000E+00
  3  1.0000E-02  1.1790E+00  1.0000E+00  1.0000E+00
  4  1.0000E-02  6.6903E-01  2.5366E-01  5.0000E-01
  5  1.6111E-02  1.0000E+00  5.5686E-01  5.0000E-01
  
:NORMS:  Nuclear, Spectral, Froebius, Shanno-Pua   0.1990E+01  0.1501E+01  0.1676E+01  0.3878E+00
:INFO :  Number of Memory Steps    4 Skipping    0
:INFO :  SLambda=    1.9903372  Max    1.9903372

Eigenvalues, unscaled except for SY+YY
   #     SY Real        SY Imag          SS             YY         SY+YY Real      SY+YY Imag
   1   1.208559E+00   0.000000E+00   1.293456E+00   2.915942E+00   5.168575E+00   0.000000E+00
   2   4.138006E-01   0.000000E+00   1.304621E-01   1.014950E+00   2.001545E+00   0.000000E+00
   3   3.995653E-11   0.000000E+00   5.827921E-09   6.908547E-02   5.890098E-02   0.000000E+00
   4   4.722477E-08   0.000000E+00   7.291491E-16   2.271558E-05   2.285253E-05   0.000000E+00
 
:INFO :  Increased using Multisecant Shanno-Phua
:INFO :  Singular value   5.209E+00 Weight  1.0000E+00 Projections   4.570E-02  8.307E-02
:INFO :  Singular value   1.999E+00 Weight  1.0000E+00 Projections   3.177E-01  2.955E-03
:INFO :  Singular value   5.852E-02 Weight  1.0000E+00 Projections  -4.801E-01  4.335E-01
:INFO :  Singular value   2.285E-05 Weight  9.8398E-01 Projections  -5.864E-02 -3.770E-01
 
:DIRM :  MEMORY 4/8 RESCALE  16.65 RED 1.021 PRED 0.557 NEXT 0.079
:INFO :  Blimit    7.777E-01  1.326E+00  1.676E-01  8.888E-01
:DIRP :  |MSR1|= 1.841E-02 |PRATT|= 1.075E-01 ANGLE=  63.7 DEGREES
:DIRQ :  |MSR1|= 1.582E-02 |PRATT|= 1.113E-01 ANGLE=  84.1 DEGREES
:DIR  :  |MSR1|= 2.427E-02 |PRATT|= 1.547E-01 ANGLE=  73.6 DEGREES
:MIX  :   MSE1   REGULARIZATION: 2.92E-06  GREED: 0.025  Newton 1.00  0.16                
     
       CHARGES OF MIXED CHARGE DENSITY
:CTO   : INTERSTITIAL CHARGE =     7.710019
:CTO001: CHARGE SPHERE  1    =    86.140238
:CTO002: CHARGE SPHERE  2    =     7.074871

:NEC03: NUCLEAR AND ELECTRONIC CHARGE    108.00000   108.00000

PW CHANGE     H    K    L       Current     Change     Residue
:PTO001:      0    0    0  7.58822357E-02  2.808E-06  3.770E-05
:PTO002:     -1   -1   -1  1.92778265E-01  2.736E-05 -2.696E-04
:PTO003:      0    0   -2  2.04610446E-03  4.086E-06 -5.687E-04
:PTO004:      0   -2   -2  2.78499807E-01  8.041E-05  5.707E-04
:PTO005:     -1   -1   -3  1.59936982E-01  1.284E-04  3.263E-04
:PTO006:     -2   -2   -2 -1.57483356E-02  8.927E-05  1.359E-05
:PTO007:      0    0   -4  4.63199908E-02 -1.512E-05  8.325E-05
:PTO008:     -1   -3   -3  4.10980969E-02  6.387E-05  2.602E-04
:PTO009:      0   -2   -4 -4.84890050E-02  5.878E-05  7.688E-05
:PTO010:     -2   -2   -4  5.86754398E-02  2.443E-05  2.919E-04
:PTO011:     -3   -3   -3 -2.46179887E-03  4.528E-05  1.930E-04
:PTO012:     -1   -1   -5 -2.10928033E-05 -4.467E-05 -3.976E-05

:ENE  : ********** TOTAL ENERGY IN Ry =       -56437.50882822


------- UO2_10.scf0 --------


            ---------
:ITE088: 88. ITERATION
            ---------

:NATO :    2 INDEPENDENT AND    3 TOTAL ATOMS IN UNITCELL
       SUBSTANCE: blebleble                                                   

       LATTICE                      = F   
:POT  : POTENTIAL OPTION    5
:LAT  : LATTICE CONSTANTS= 10.99055 10.99055 10.99055    1.571    1.571    1.571
:VOL  : UNIT CELL VOLUME =     331.89279
       MODE OF CALCULATION IS       = RELA
       NON-SPINPOLARIZED CALCULATION
:IFFT  : FFT-parameters:   90   90   90 Factor: 2.00
       ATOMNUMBER=  1 U  4+      VCOUL-ZERO = -0.69244E+00
       ATOMNUMBER=  2 O  2-      VCOUL-ZERO =  0.73296E+00
:FIT001: LUSE= 13 SIGMA OF V-XC FIT FOR ATOM  1  0.3374820E-04
:FIT001: LUSE= 13 SIGMA OF V-XC FIT FOR ATOM  1  0.3374820E-04
:FIT002: LUSE= 13 SIGMA OF V-XC FIT FOR ATOM  2  0.7036633E-04
:FIT002: LUSE= 13 SIGMA OF V-XC FIT FOR ATOM  2  0.7036633E-04
:DEN  : DENSITY INTEGRAL  =        -20879.79602713   (Ry)
       ELS_POTENTIAL_AT Z=0 and Z=0.5:  -3.22700  -3.22700
       ELS_POTENTIAL_AT Y=0 and Y=0.5:   0.00000   0.00000
:VZERO:v0,v0c,v0x  -3.89454  -3.22700  -0.66755 v5,v5c,v5x  -3.89454  -3.22700  -0.66755
:VZERY:v0,v0c,v0x  -0.80115   0.00000  -0.80115 v5,v5c,v5x  -0.80115   0.00000  -0.80115
:VZERX:v0,v0c,v0x  -0.80115   0.00000  -0.80115 v5,v5c,v5x  -0.80115   0.00000  -0.80115

------- UO2_10.scf1 --------

          ATOMIC SPHERE DEPENDENT PARAMETERS FOR ATOM  U  4+     
:e__0001: OVERALL ENERGY PARAMETER IS    0.5321
          OVERALL BASIS SET ON ATOM IS LAPW
:E0_0001: E( 0)=    0.5321
             APW+lo
:E0_0001: E( 0)=   -2.4466   E(BOTTOM)=   -3.793   E(TOP)=   -1.100  5  6   237
             LOCAL ORBITAL
:E1_0001: E( 1)=   -1.2800   E(BOTTOM)=   -2.058   E(TOP)= -200.000  4 -1   201
             APW+lo
:E1_0001: E( 1)=    0.9321
             LOCAL ORBITAL
:E3_0001: E( 3)=    0.5321   E(BOTTOM)=   -0.008   E(TOP)= -200.000  1 -1   101
             APW+lo
:E2_0001: E( 2)=    0.5538   E(BOTTOM)=    0.554   E(TOP)= -200.000  3 -1    74
             APW+lo

          ATOMIC SPHERE DEPENDENT PARAMETERS FOR ATOM  O  2-     
:e__0002: OVERALL ENERGY PARAMETER IS    0.5321
          OVERALL BASIS SET ON ATOM IS LAPW
:E0_0002: E( 0)=   -0.4215   E(BOTTOM)=   -1.781   E(TOP)=    0.938  1  2   238
             APW+lo
:E0_0002: E( 0)=    0.9321
             LOCAL ORBITAL
:E1_0002: E( 1)=    0.5321
             APW+lo

       K=   0.00000   0.00000   0.00000            1
:RKM  : MATRIX SIZE  899LOs:  30  RKM= 8.38  WEIGHT= 1.00  PGR:    
       EIGENVALUES ARE:
:EIG00001:      -2.5218659   -0.6713569   -0.6713569   -0.6713569   -0.6137487
:EIG00006:      -0.5321488    0.3205764    0.3205764    0.3205764    0.5068327
:EIG00011:       0.5068327    0.5068327    0.7523285    0.7523285    0.7523285
:EIG00016:       0.7753310    0.8028672    0.8028672    0.8028672    0.8811889
:EIG00021:       0.9438208    0.9438208    1.3280027    1.3280027    1.3280027
:EIG00026:       1.5850610    1.5850610    1.5850610    1.8822789    2.2436359
:EIG00031:       2.2436359    2.2713636    2.2713636    2.2713636    2.5111640
:EIG00036:       2.5111640    2.5111640    2.7492874    2.7492874    2.7492874
:EIG00041:       2.7500196    3.1323103    3.1323103    3.2190024    3.2190024
:EIG00046:       3.2190024    3.2826416    3.3410671    3.3410671    3.3457289
 
:EIG00051:       3.3457289    3.3457289    3.5436738    3.5436738    3.5436738
:EIG00056:       3.6075423    3.6543729    3.6543729    3.6543729    3.6720506
:EIG00061:       3.6720506    3.6720506    3.7318729    3.7318729    3.7318729
:EIG00066:       4.0063408    4.4786482    4.4786482    4.4786482    4.7161066
:EIG00071:       4.7161066    4.7161066    4.7439911    4.7439911    4.9271363
:EIG00076:       5.2574151    5.2574151    5.2712187    5.2712187    5.2712187
:EIG00081:       5.3884477    5.3884477    5.3884477    5.5897904    5.5897904
:EIG00086:       5.5897904    5.7656641    5.7656641    5.7656641    5.8138809
:EIG00091:       5.8876415    5.8876415    5.9160410    5.9160410    5.9477370
:EIG00096:       5.9477370    5.9477370    6.0361108    6.1794429    6.1794429
 
:EIG00101:       6.1794429    6.2013078    6.2013078    6.2013078    6.2140586
:EIG00106:       6.3216013    6.3216013    6.3216013    6.5322194    6.5327835
:EIG00111:       6.5327835    6.5327835    6.6018004    6.6018004    6.6097859
:EIG00116:       6.6097859    6.6097859    6.6170812    6.6170812    6.6170812
:EIG00121:       6.7844501    6.7844501    6.7844501    7.2407507    7.2407507
:EIG00126:       7.2407507    7.2961572    7.2961572    7.2961572    7.4089356
:EIG00131:       7.4089356    7.4089356    7.4200174    7.5165987    7.5165987
:EIG00136:       7.5944971    7.5944971    7.6693954    7.6693954    7.6693954
:EIG00141:       7.7829927    7.7829927    7.7829927    7.9772119    7.9772119
:EIG00146:       7.9772119    8.0166846    8.1243773    8.1327874    8.1327874
 
       ********************************************************

:KPT   :      NUMBER OF K-POINTS:   145

------- UO2_10.scfso --------
   0.0   0.0 angle (M,z), angle (M,x) deg
 
        SPIN-ORBIT EIGENVALUES:
     K=   0.00000   0.00000   0.00000            1
      MATRIX SIZE=  300   WEIGHT= 1.00
     EIGENVALUES ARE:
          -2.5218659   -2.5218659   -1.0786960   -1.0786960   -0.6137487
          -0.6137487   -0.5321514   -0.5321514   -0.5042333   -0.5042333
          -0.5042333   -0.5042333    0.3188941    0.3188941    0.3188941
           0.3188941    0.3231063    0.3231063    0.5036356    0.5036356
           0.5076317    0.5076317    0.5076317    0.5076317    0.7212017
           0.7212017    0.7408817    0.7408817    0.7408817    0.7408817
           0.7963650    0.7963650    0.8095121    0.8095121    0.8095121
           0.8095121    0.8232559    0.8232559    0.8811889    0.8811889

           0.9414459    0.9414459    0.9414459    0.9414459    1.3176391
           1.3176391    1.3176391    1.3176391    1.3496183    1.3496183
           1.5255764    1.5255764    1.6116580    1.6116580    1.6116580
           1.6116580    1.8822789    1.8822789    2.2362103    2.2362103
           2.2362103    2.2362103    2.2741688    2.2741688    2.2741688
           2.2741688    2.2805503    2.2805503    2.3697079    2.3697079
           2.5908511    2.5908511    2.5908511    2.5908511    2.7411585
           2.7411585    2.7506253    2.7506253    2.7506253    2.7506253

[...]
 43  2.5981E-01  3.0619E+00  3.6886E-01  9.1185E+00
 44  2.2912E-01  1.0000E+00  2.5325E-02  4.5824E+00
  
:NORMS:  Nuclear, Spectral, Froebius, Shanno-Pua   0.7907E+00  0.5181E+00  0.5828E+00 -0.3937E-01
:INFO :  Number of Memory Steps    8 Skipping   35
:INFO :  SLambda=    0.0745072  Max    1.0000000

Eigenvalues, unscaled except for SY+YY
   #     SY Real        SY Imag          SS             YY         SY+YY Real      SY+YY Imag
   1   8.144785E-01   3.345204E-01   2.273722E+01   6.102902E+00   6.051562E+00   0.000000E+00
   2   8.144785E-01  -3.345204E-01   6.515850E-01   1.209928E+00   1.346684E+00   0.000000E+00
   3   1.483464E-01   0.000000E+00   8.630975E-02   5.438633E-01   5.882750E-01   0.000000E+00
   4   5.490492E-02   3.488398E-02   5.782316E-02   9.398028E-02   1.007200E-01   0.000000E+00
   5   5.490492E-02  -3.488398E-02   1.897815E-02   2.674165E-02   2.448780E-02   0.000000E+00
   6   1.132025E-02   0.000000E+00   4.233009E-03   1.730371E-02   2.448780E-02   0.000000E+00
   7   1.843273E-04   0.000000E+00   3.580759E-05   1.665006E-03   1.535838E-03   0.000000E+00
   8   8.862660E-04   0.000000E+00   3.132881E-04   3.616345E-03   3.773686E-03   0.000000E+00
 
:INFO :  Decreased using Multisecant Shanno-Phua
:INFO :  Singular value   6.060E+00 Weight  1.0000E+00 Projections   4.747E-04  8.756E-04
:INFO :  Singular value   1.346E+00 Weight  1.0000E+00 Projections  -2.727E-05  1.907E-04
:INFO :  Singular value   5.882E-01 Weight  1.0000E+00 Projections   1.760E-04 -3.216E-04
:INFO :  Singular value   1.009E-01 Weight  1.0000E+00 Projections  -2.017E-04 -1.238E-04
:INFO :  Singular value   2.694E-02 Weight  1.0000E+00 Projections   3.301E-04 -7.838E-04
:INFO :  Singular value   2.235E-02 Weight  1.0000E+00 Projections   4.545E-04 -2.826E-05
:INFO :  Singular value   3.775E-03 Weight  1.0000E+00 Projections  -1.291E-04 -1.106E-03
:INFO :  Singular value   1.526E-03 Weight  9.9998E-01 Projections   2.210E-03  1.660E-03
 
:DIRM :  MEMORY 8/8 RESCALE  16.48 RED 0.711 PRED 0.025 NEXT 0.033
:INFO :  Blimit    4.607E+00  5.000E-01  1.000E+00  2.000E+00
:DIRP :  |MSR1|= 2.046E-04 |PRATT|= 1.453E-03 ANGLE=  80.7 DEGREES
:DIRQ :  |MSR1|= 8.961E-05 |PRATT|= 1.643E-03 ANGLE=  39.4 DEGREES
:DIR  :  |MSR1|= 2.234E-04 |PRATT|= 2.193E-03 ANGLE=  70.7 DEGREES
:MIX  :   MSD1   REGULARIZATION: 6.10E-06  GREED: 0.156  Newton 1.00  0.10                
     
       CHARGES OF MIXED CHARGE DENSITY
:CTO   : INTERSTITIAL CHARGE =     7.759953
:CTO001: CHARGE SPHERE  1    =    86.044073
:CTO002: CHARGE SPHERE  2    =     7.097987

:NEC03: NUCLEAR AND ELECTRONIC CHARGE    108.00000   108.00000

PW CHANGE     H    K    L       Current     Change     Residue
:PTO001:      0    0    0  7.63199800E-02  1.871E-07  1.969E-07
:PTO002:     -1   -1   -1  1.93885415E-01  4.885E-07 -5.221E-06
:PTO003:      0    0   -2  2.28352308E-03  1.710E-07 -8.214E-06
:PTO004:      0   -2   -2  2.80840718E-01  9.455E-07  6.574E-06
:PTO005:     -1   -1   -3  1.63734715E-01  1.603E-06  2.767E-06
:PTO006:     -2   -2   -2 -1.40848804E-02  5.738E-07 -2.419E-06
:PTO007:      0    0   -4  4.66392211E-02  2.390E-07  2.387E-06
:PTO008:     -1   -3   -3  4.39715103E-02  1.151E-06  1.573E-06
:PTO009:      0   -2   -4 -4.60506991E-02  1.125E-06 -4.667E-07
:PTO010:     -2   -2   -4  6.02106683E-02  5.827E-07  3.877E-06
:PTO011:     -3   -3   -3 -1.61124737E-03  2.405E-07  1.710E-06
:PTO012:     -1   -1   -5  2.06145024E-04  3.498E-07  1.089E-06

:ENE  : ********** TOTAL ENERGY IN Ry =       -56437.51468212


------- UO2_10.scf0 --------


            ---------
:ITE127:127. ITERATION
            ---------

:NATO :    2 INDEPENDENT AND    3 TOTAL ATOMS IN UNITCELL
       SUBSTANCE: blebleble                                                   

       LATTICE                      = F   
:POT  : POTENTIAL OPTION    5
:LAT  : LATTICE CONSTANTS= 10.99055 10.99055 10.99055    1.571    1.571    1.571
:VOL  : UNIT CELL VOLUME =     331.89279
       MODE OF CALCULATION IS       = RELA
       NON-SPINPOLARIZED CALCULATION
:IFFT  : FFT-parameters:   90   90   90 Factor: 2.00
       ATOMNUMBER=  1 U  4+      VCOUL-ZERO = -0.72623E+00
       ATOMNUMBER=  2 O  2-      VCOUL-ZERO =  0.75528E+00
:FIT001: LUSE= 13 SIGMA OF V-XC FIT FOR ATOM  1  0.3940904E-04
:FIT001: LUSE= 13 SIGMA OF V-XC FIT FOR ATOM  1  0.3940904E-04
:FIT002: LUSE= 13 SIGMA OF V-XC FIT FOR ATOM  2  0.6686727E-04
:FIT002: LUSE= 13 SIGMA OF V-XC FIT FOR ATOM  2  0.6686727E-04
:DEN  : DENSITY INTEGRAL  =        -20872.58392285   (Ry)
       ELS_POTENTIAL_AT Z=0 and Z=0.5:  -3.28737  -3.28737
       ELS_POTENTIAL_AT Y=0 and Y=0.5:   0.00000   0.00000
:VZERO:v0,v0c,v0x  -3.95395  -3.28737  -0.66658 v5,v5c,v5x  -3.95395  -3.28737  -0.66658
:VZERY:v0,v0c,v0x  -0.80314   0.00000  -0.80314 v5,v5c,v5x  -0.80314   0.00000  -0.80314
:VZERX:v0,v0c,v0x  -0.80314   0.00000  -0.80314 v5,v5c,v5x  -0.80314   0.00000  -0.80314

------- UO2_10.scf1 --------

          ATOMIC SPHERE DEPENDENT PARAMETERS FOR ATOM  U  4+     
:e__0001: OVERALL ENERGY PARAMETER IS    0.5321
          OVERALL BASIS SET ON ATOM IS LAPW
:E0_0001: E( 0)=    0.5321
             APW+lo
:E0_0001: E( 0)=   -2.5112   E(BOTTOM)=   -3.850   E(TOP)=   -1.172  5  6   234
             LOCAL ORBITAL
:E1_0001: E( 1)=   -1.2800   E(BOTTOM)=   -2.111   E(TOP)= -200.000  4 -1   208
             APW+lo
:E1_0001: E( 1)=    0.9321
             LOCAL ORBITAL
:E3_0001: E( 3)=    0.5321   E(BOTTOM)=   -0.071   E(TOP)= -200.000  1 -1   115
             APW+lo
:E2_0001: E( 2)=    0.5321   E(BOTTOM)=    0.501   E(TOP)= -200.000  3 -1    77
             APW+lo

          ATOMIC SPHERE DEPENDENT PARAMETERS FOR ATOM  O  2-     
:e__0002: OVERALL ENERGY PARAMETER IS    0.5321
          OVERALL BASIS SET ON ATOM IS LAPW
:E0_0002: E( 0)=   -0.3914   E(BOTTOM)=   -1.753   E(TOP)=    0.970  1  2   238
             APW+lo
:E0_0002: E( 0)=    0.9321
             LOCAL ORBITAL
:E1_0002: E( 1)=    0.5321
             APW+lo

       K=   0.00000   0.00000   0.00000            1
:RKM  : MATRIX SIZE  899LOs:  30  RKM= 8.38  WEIGHT= 1.00  PGR:    
       EIGENVALUES ARE:
:EIG00001:      -2.5802048   -0.7146710   -0.7146710   -0.7146710   -0.5906586
:EIG00006:      -0.5061666    0.3348187    0.3348187    0.3348187    0.5107099
:EIG00011:       0.5107099    0.5107099    0.6886630    0.6886630    0.6886630
:EIG00016:       0.7137713    0.7594627    0.7594627    0.7594627    0.8862337
:EIG00021:       0.9270756    0.9270756    1.3212763    1.3212763    1.3212763
:EIG00026:       1.5830467    1.5830467    1.5830467    1.8811257    2.2377590
:EIG00031:       2.2377590    2.2739498    2.2739498    2.2739498    2.5047486
:EIG00036:       2.5047486    2.5047486    2.7383735    2.7383735    2.7383735
:EIG00041:       2.7509232    3.1227278    3.1227278    3.2177776    3.2177776
:EIG00046:       3.2177776    3.2764860    3.3390086    3.3390086    3.3390086
 
:EIG00051:       3.3543217    3.3543217    3.5424190    3.5424190    3.5424190
:EIG00056:       3.6022860    3.6507585    3.6507585    3.6507585    3.6740098
:EIG00061:       3.6740098    3.6740098    3.7286689    3.7286689    3.7286689
:EIG00066:       4.0017192    4.4874866    4.4874866    4.4874866    4.7226837
:EIG00071:       4.7226837    4.7226837    4.7373386    4.7373386    4.9246894
:EIG00076:       5.2428698    5.2428698    5.2552026    5.2552026    5.2552026
:EIG00081:       5.3846046    5.3846046    5.3846046    5.5716169    5.5716169
:EIG00086:       5.5716169    5.7660390    5.7660390    5.7660390    5.8130213
:EIG00091:       5.8880889    5.8880889    5.9188649    5.9188649    5.9438646
:EIG00096:       5.9438646    5.9438646    6.0357225    6.1814644    6.1814644
 
:EIG00101:       6.1814644    6.1893078    6.1893078    6.1893078    6.2092846
:EIG00106:       6.3271194    6.3271194    6.3271194    6.5284332    6.5284332
:EIG00111:       6.5284332    6.5314208    6.6009281    6.6009281    6.6009281
:EIG00116:       6.6074039    6.6074039    6.6237866    6.6237866    6.6237866
:EIG00121:       6.7749597    6.7749597    6.7749597    7.2406152    7.2406152
:EIG00126:       7.2406152    7.2952374    7.2952374    7.2952374    7.4068931
:EIG00131:       7.4068931    7.4068931    7.4069154    7.5132511    7.5132511
:EIG00136:       7.5953225    7.5953225    7.6813461    7.6813461    7.6813461
:EIG00141:       7.7801342    7.7801342    7.7801342    7.9675962    7.9675962
:EIG00146:       7.9675962    8.0174404    8.1144427    8.1144427    8.1224097
 
       ********************************************************

:KPT   :      NUMBER OF K-POINTS:   145

------- UO2_10.scfso --------
   0.0   0.0 angle (M,z), angle (M,x) deg
 
        SPIN-ORBIT EIGENVALUES:
     K=   0.00000   0.00000   0.00000            1
      MATRIX SIZE=  300   WEIGHT= 1.00
     EIGENVALUES ARE:
          -2.5802048   -2.5802048   -1.1278786   -1.1278786   -0.5906586
          -0.5906586   -0.5446571   -0.5446571   -0.5446571   -0.5446571
          -0.5061701   -0.5061701    0.3328478    0.3328478    0.3328478
           0.3328478    0.3377846    0.3377846    0.5078938    0.5078938
           0.5078938    0.5078938    0.5116935    0.5116935    0.6574035
           0.6574035    0.6835769    0.6835769    0.6835769    0.6835769
           0.7347488    0.7347488    0.7627819    0.7627819    0.7627819
           0.7627819    0.7769169    0.7769169    0.8862337    0.8862337

           0.9246544    0.9246544    0.9246544    0.9246544    1.3106558
           1.3106558    1.3106558    1.3106558    1.3435106    1.3435106
           1.5220080    1.5220080    1.6103212    1.6103212    1.6103212
           1.6103212    1.8811257    1.8811257    2.2318697    2.2318697
           2.2318697    2.2318697    2.2753559    2.2753559    2.2753559
           2.2753559    2.2829398    2.2829398    2.3648448    2.3648448
           2.5837412    2.5837412    2.5837412    2.5837412    2.7331526
           2.7331526    2.7397097    2.7397097    2.7397097    2.7397097

           2.7539159    2.7539159    3.1192825    3.1192825    3.1192825
           3.1192825    3.2142985    3.2142985    3.2142985    3.2142985
           3.2332632    3.2332632    3.2764860    3.2764860    3.3389957
           3.3389957    3.3390150    3.3390150    3.3390150    3.3390150
           3.3543217    3.3543217    3.3543217    3.3543217    3.5424476
           3.5424476    3.5428040    3.5428040    3.5428040    3.5428040
           3.6022860    3.6022860    3.6442219    3.6442219    3.6548054
           3.6548054    3.6548054    3.6548054    3.6739772    3.6739772

           3.6740295    3.6740295    3.6740295    3.6740295    3.7276943
           3.7276943    3.7294238    3.7294238    3.7294238    3.7294238
           4.0018642    4.0018642    4.4769788    4.4769788    4.4924216
           4.4924216    4.4924216    4.4924216
       ********************************************************

------- UO2_10.scf2 --------
:GMA  : POTENTIAL AND CHARGE CUT-OFF  12.00 Ry**.5
         Bandranges (emin - emax) and occupancy:
:BAN00018:  18    0.337785    0.483674  1.00000000
:BAN00019:  19    0.414834    0.509822  1.00000000
:BAN00020:  20    0.414834    0.509822  1.00000000
:BAN00021:  21    0.474267    0.533421  1.00000000
:BAN00022:  22    0.474267    0.533421  1.00000000
:BAN00023:  23    0.498454    0.556505  1.00000000
:BAN00024:  24    0.498454    0.556505  1.00000000
:BAN00025:  25    0.630892    0.659919  0.97243080
:BAN00026:  26    0.630892    0.659919  0.97243080
:BAN00027:  27    0.656461    0.683577  0.02756920
:BAN00028:  28    0.656461    0.683577  0.02756920
:BAN00029:  29    0.666061    0.683577  0.00000000
:BAN00030:  30    0.666061    0.683577  0.00000000
:BAN00031:  31    0.695649    0.736419  0.00000000
:BAN00032:  32    0.695649    0.736419  0.00000000
:BAN00033:  33    0.717788    0.762782  0.00000000
        Energy to separate low and high energystates:    0.58089


:NLDA  : NUMBER OF ELECTRONS          =  26.000

:FLDA  : F E R M I - ENERGY           =   1.15821




:POS001: AT.NR.   1 POSITION = 0.00000 0.00000 0.00000  MULTIPLICITY =  1

       LMMAX  5
       LM=   0 0  4 0  4 4  6 0  6 4




:POS002: AT.NR.   2 POSITION = 0.00000 0.00000 0.00000  MULTIPLICITY =  2

       LMMAX  6
       LM=   0 0  4 0  4 4  6 0  6 4 -3 2
:FER DMFT Fermi Energy   0.77075
:EORB         -0.304532263
:SUM SUM OF DMFT BAND ENERGIES         -4.655114251

:CHA001: TOTAL CHARGE INSIDE SPHERE   1 =     8.078036
:PCS001: PARTIAL CHARGES SPHERE =  1 S,P,D,F,      D-EG,D-T2G 
:QTL001: 1.8000 4.1964 0.2360 1.8437 0.0000 0.0000 0.0000 0.0517 0.1917 0.0000 0.0000 0.0000
        Q-s-low E-s-low   Q-p-low E-p-low   Q-d-low E-d-low   Q-f-low E-f-low
:EPL001:  1.7999 -2.5057    4.1961 -0.7083    0.2355  0.3812    0.1128  0.4661
        Q-s-hi  E-s-hi    Q-p-hi  E-p-hi    Q-d-hi  E-d-hi    Q-f-hi  E-f-hi 
:EPH001:  0.0001  0.6608    0.0002  0.6667    0.0004  0.6631    1.7309  0.6623

:CHA002: TOTAL CHARGE INSIDE SPHERE   2 =     5.098391
:PCS002: PARTIAL CHARGES SPHERE =  2 S,P,D,F,      D-EG,D-T2G 
:QTL002: 1.5697 3.5224 0.0053 0.0008 0.0000 0.0000 0.0000 0.0021 0.0058 0.0000 0.0000 0.0000
        Q-s-low E-s-low   Q-p-low E-p-low   Q-d-low E-d-low   Q-f-low E-f-low
:EPL002:  1.5684 -0.5255    3.5198  0.4469    0.0047 -0.0490    0.0006 -0.2665
        Q-s-hi  E-s-hi    Q-p-hi  E-p-hi    Q-d-hi  E-d-hi    Q-f-hi  E-f-hi 
:EPH002:  0.0013  0.6620    0.0026  0.6758    0.0006  0.6606    0.0001  0.6640

:CHA  : TOTAL CHARGE INSIDE UNIT CELL =      25.999996

:ESUM  : SUM OF EIGENVALUES =          -4.928677264


------- UO2_10.scfc --------

        1.ATOM      U  4+                21 CORE STATES
:1S 001: 1S               -8506.642465501 Ry
:2S 001: 2S               -1588.093486074 Ry
:2PP001: 2P*              -1531.338557226 Ry
:2P 001: 2P               -1250.143451627 Ry
:3S 001: 3S                -400.237861544 Ry
:3PP001: 3P*               -374.464363369 Ry
:3P 001: 3P                -309.681354604 Ry
:3DD001: 3D*               -268.868594350 Ry
:3D 001: 3D                -255.723491546 Ry
:4S 001: 4S                -101.305864777 Ry
:4PP001: 4P*                -89.712301698 Ry
:4P 001: 4P                 -72.802280974 Ry
:4DD001: 4D*                -54.337524567 Ry
:4D 001: 4D                 -51.228873434 Ry
:5S 001: 5S                 -21.896224159 Ry
:5PP001: 5P*                -17.388990641 Ry
:5P 001: 5P                 -13.357240141 Ry
:4FF001: 4F*                -26.942924797 Ry
:4F 001: 4F                 -26.132886250 Ry
:5DD001: 5D*                 -6.765190964 Ry
:5D 001: 5D                  -6.166071069 Ry

        2.ATOM      O  2-                 1 CORE STATES
:1S 002: 1S                 -36.139271000 Ry

------- UO2_10.scfm --------
:CINT001 Core Integral Atom   1   77.965303
:CINT002 Core Integral Atom   2    2.000000
     
       CHARGES OF NEW CHARGE DENSITY
:NTO   : INTERSTITIAL CHARGE =     7.725183
:NTO001: CHARGE SPHERE  1    =    86.043339
:NTO002: CHARGE SPHERE  2    =     7.098391

:NEC01: NUCLEAR AND ELECTRONIC CHARGE    108.00000   107.96530
     
       CHARGES OF OLD CHARGE DENSITY
:OTO   : INTERSTITIAL CHARGE =     7.759953
:OTO001: CHARGE SPHERE  1    =    86.044073
:OTO002: CHARGE SPHERE  2    =     7.097987
:DNEW  1   -0.0007
:DNEW  2    0.0004

:NEC02: NUCLEAR AND ELECTRONIC CHARGE    108.00000   108.00000
     
       CONVERGENCE TEST
:DTO001: DIFFERENCE IN SPHERE  1 =  0.0006006
:DTO002: DIFFERENCE IN SPHERE  2 =  0.0004836

:DIS  :  CHARGE DISTANCE       ( 0.0006006 for atom    1 spin 1)      0.0005226
:BIG check (qbig,qrms,qtot)    0.200D-03   0.372D-03   0.523D-03
 
******************************************************
* MULTISECANT MIXING VER6 RELEASE 6.0 OPTIONS        *
* Standard Mode with controls                        *
* Regularization       1.000E-06                     *
* Trust Region Control Active                        *
* Max Number of Memory Steps    8                    *
******************************************************
 
:PLANE:  INTERSTITIAL TOTAL      2.51110 DISTAN  4.168E-03 % 
:CHARG:  CLM CHARGE   /ATOM    345.90574 DISTAN  2.791E-04 % 
 
 Step History DMIX, Red, Pred, Trust, FRMS, FABS
 38  2.1513E-01  3.2585E-01  2.1049E-01  4.6624E+00
 39  2.1950E-01  5.6635E-01  3.1890E-01  4.7037E+00
 40  2.3664E-01  3.2526E-01  3.2116E-01  4.7329E+00
 41  2.3885E-01  2.7372E+00  5.1185E-01  4.7775E+00
 42  2.4061E-01  7.9299E-01  1.0588E-01  6.9956E+00
 43  2.5981E-01  3.0619E+00  3.6886E-01  9.1185E+00
 44  2.2912E-01  7.1131E-01  2.5325E-02  4.5824E+00
 45  1.5554E-01  1.0000E+00  3.3466E-02  2.0000E+00
  
:NORMS:  Nuclear, Spectral, Froebius, Shanno-Pua   0.8015E+00  0.5530E+00  0.6051E+00 -0.1992E+00
:INFO :  Number of Memory Steps    8 Skipping   36
:INFO :  SLambda=    0.3554565  Max    1.0000000

Eigenvalues, unscaled except for SY+YY
   #     SY Real        SY Imag          SS             YY         SY+YY Real      SY+YY Imag
   1  -6.768817E-01   0.000000E+00   2.115267E+01   6.468956E+00   5.855557E+00   0.000000E+00
   2   4.950936E-01   1.892680E-01   5.958730E-01   9.750447E-01   1.523827E+00   0.000000E+00
   3   4.950936E-01  -1.892680E-01   5.652778E-02   4.696748E-01   6.522308E-01   0.000000E+00
   4   5.551865E-02   0.000000E+00   3.911473E-02   5.397679E-02   7.621973E-02   0.000000E+00
   5   6.150495E-03   1.868139E-03   5.480626E-03   1.751611E-02   1.751175E-02   0.000000E+00
   6   6.150495E-03  -1.868139E-03   1.803555E-03   1.186451E-02   8.740208E-03   0.000000E+00
   7   1.461318E-04   0.000000E+00   1.421812E-04   2.566753E-03  -8.999995E-11   0.000000E+00
   8   4.752347E-04   0.000000E+00   2.204479E-05   4.000556E-04   1.607626E-03   0.000000E+00
 
:INFO :  Decreased using Multisecant Shanno-Phua
:INFO :  Singular value   6.069E+00 Weight  1.0000E+00 Projections   7.206E-06 -9.976E-04
:INFO :  Singular value   1.497E+00 Weight  1.0000E+00 Projections   9.717E-05  2.745E-04
:INFO :  Singular value   6.472E-01 Weight  1.0000E+00 Projections  -1.522E-04  4.431E-04
:INFO :  Singular value   7.908E-02 Weight  1.0000E+00 Projections   4.101E-04  1.252E-04
:INFO :  Singular value   2.156E-02 Weight  1.0000E+00 Projections  -6.791E-05  5.088E-04
:INFO :  Singular value   1.408E-02 Weight  1.0000E+00 Projections   8.941E-04 -5.311E-04
:INFO :  Singular value   1.740E-03 Weight  9.9999E-01 Projections   9.944E-04 -6.160E-04
:INFO :  Singular value   3.998E-11 Weight  0.0000E+00 Projections   4.574E-04  0.000E+00
 
:DIRM :  MEMORY 8/8 RESCALE  16.34 RED 1.180 PRED 0.033 NEXT 0.032
:INFO :  Blimit    3.636E+00  6.428E-01  6.596E-01  1.696E+00
:DIRP :  |MSR1|= 1.795E-04 |PRATT|= 1.710E-03 ANGLE= 100.5 DEGREES
:DIRQ :  |MSR1|= 7.183E-05 |PRATT|= 1.931E-03 ANGLE= 138.0 DEGREES
:DIR  :  |MSR1|= 1.933E-04 |PRATT|= 2.579E-03 ANGLE= 108.6 DEGREES
:MIX  :   MSD1   REGULARIZATION: 6.47E-06  GREED: 0.099  Newton 1.00  0.07                
     
       CHARGES OF MIXED CHARGE DENSITY
:CTO   : INTERSTITIAL CHARGE =     7.759930
:CTO001: CHARGE SPHERE  1    =    86.044106
:CTO002: CHARGE SPHERE  2    =     7.097982

:NEC03: NUCLEAR AND ELECTRONIC CHARGE    108.00000   108.00000

PW CHANGE     H    K    L       Current     Change     Residue
:PTO001:      0    0    0  7.63197910E-02 -1.890E-07  3.336E-07
:PTO002:     -1   -1   -1  1.93885027E-01 -3.882E-07 -5.918E-06
:PTO003:      0    0   -2  2.28327865E-03 -2.444E-07 -9.681E-06
:PTO004:      0   -2   -2  2.80839800E-01 -9.183E-07  8.163E-06
:PTO005:     -1   -1   -3  1.63733184E-01 -1.532E-06  3.562E-06
:PTO006:     -2   -2   -2 -1.40852723E-02 -3.920E-07 -2.892E-06
:PTO007:      0    0   -4  4.66388867E-02 -3.344E-07  2.911E-06
:PTO008:     -1   -3   -3  4.39706896E-02 -8.207E-07  1.918E-06
:PTO009:      0   -2   -4 -4.60514916E-02 -7.925E-07 -5.640E-07
:PTO010:     -2   -2   -4  6.02100686E-02 -5.997E-07  4.679E-06
:PTO011:     -3   -3   -3 -1.61144705E-03 -1.997E-07  2.001E-06
:PTO012:     -1   -1   -5  2.05705127E-04 -4.399E-07  1.381E-06

:ENE  : ********** TOTAL ENERGY IN Ry =       -56437.51468733

