
------- alpha_Pu_3.scf0 --------


            ---------
:ITE079: 79. ITERATION
            ---------

:NATO :    8 INDEPENDENT AND   16 TOTAL ATOMS IN UNITCELL
       SUBSTANCE: alpha_Pu                                                    

       LATTICE                      = P   
:POT  : POTENTIAL OPTION    5
:LAT  : LATTICE CONSTANTS= 11.48392  8.95921 20.36882    1.571    1.777    1.571
:VOL  : UNIT CELL VOLUME =    2051.49334
       MODE OF CALCULATION IS       = RELA
       NON-SPINPOLARIZED CALCULATION
:IFFT  : FFT-parameters:   90   72  160 Factor: 2.00
       ATOMNUMBER=  1 Pu  0+     VCOUL-ZERO =  0.64927E+00
:EFG001:                        EFG         =   -18.50459   *10**21  V / m**2
                               V20  TOT/SRF=     5.22054    -0.09088
                               V22  TOT/SRF=     4.51262     0.09496
                               V22M TOT/SRF=   -14.81864    -0.07139
                               V21  TOT/SRF=     0.00000     0.00000
                               V21M TOT/SRF=     0.00000     0.00000

              1.49854  -14.81864    0.00000       12.47643    0.00000    0.00000
            -14.81864   -7.52670    0.00000        0.00000  -18.50459    0.00000
              0.00000    0.00000    6.02816        0.00000    0.00000    6.02816

         MAIN DIRECTIONS OF THE EFG   1.0000  0.7408  0.0000
                                     -0.7408  1.0000  0.0000
                                      0.0000  0.0000  1.0000
:ANG001:  ANGLE WITH OLD X-AXIS =        36.5

:ETA001:                         ASYMM. ETA =     0.34847


       ATOMNUMBER=  2 Pu  0+     VCOUL-ZERO =  0.65691E+00
:EFG002:                        EFG         =   -28.25893   *10**21  V / m**2
                               V20  TOT/SRF=     9.07736     0.01461
                               V22  TOT/SRF=   -18.96022    -0.08356
                               V22M TOT/SRF=    13.05158     0.06833
                               V21  TOT/SRF=     0.00000     0.00000
                               V21M TOT/SRF=     0.00000     0.00000

            -24.20103   13.05158    0.00000      -28.25893    0.00000    0.00000
             13.05158   13.71940    0.00000        0.00000   17.77730    0.00000
              0.00000    0.00000   10.48163        0.00000    0.00000   10.48163

         MAIN DIRECTIONS OF THE EFG   1.0000  0.3109  0.0000
                                     -0.3109  1.0000  0.0000
                                      0.0000  0.0000  1.0000
:ANG002:  ANGLE WITH OLD X-AXIS =        17.3

:ETA002:                         ASYMM. ETA =     0.25817


       ATOMNUMBER=  3 Pu  0+     VCOUL-ZERO =  0.65757E+00
:EFG003:                        EFG         =   -16.29094   *10**21  V / m**2
                               V20  TOT/SRF=     1.88093    -0.00128
                               V22  TOT/SRF=    -4.38305    -0.00042
                               V22M TOT/SRF=   -14.55955    -0.00702
                               V21  TOT/SRF=     0.00000     0.00000
                               V21M TOT/SRF=     0.00000     0.00000

             -5.46900  -14.55955    0.00000      -16.29094    0.00000    0.00000
            -14.55955    3.29709    0.00000        0.00000   14.11903    0.00000
              0.00000    0.00000    2.17191        0.00000    0.00000    2.17191

         MAIN DIRECTIONS OF THE EFG   1.0000 -0.7433  0.0000
                                      0.7433  1.0000  0.0000
                                      0.0000  0.0000  1.0000
:ANG003:  ANGLE WITH OLD X-AXIS =        36.6

:ETA003:                         ASYMM. ETA =     0.73336


       ATOMNUMBER=  4 Pu  0+     VCOUL-ZERO =  0.65835E+00
:EFG004:                        EFG         =   -15.47348   *10**21  V / m**2
                               V20  TOT/SRF=     1.11740    -0.01367
                               V22  TOT/SRF=    -1.84604     0.01418
                               V22M TOT/SRF=    14.71298     0.02569
                               V21  TOT/SRF=     0.00000     0.00000
                               V21M TOT/SRF=     0.00000     0.00000

             -2.49118   14.71298    0.00000      -15.47348    0.00000    0.00000
             14.71298    1.20091    0.00000        0.00000   14.18321    0.00000
              0.00000    0.00000    1.29027        0.00000    0.00000    1.29027

         MAIN DIRECTIONS OF THE EFG   1.0000  0.8824  0.0000
                                     -0.8824  1.0000  0.0000
                                      0.0000  0.0000  1.0000
:ANG004:  ANGLE WITH OLD X-AXIS =        41.4

:ETA004:                         ASYMM. ETA =     0.83323


       ATOMNUMBER=  5 Pu  0+     VCOUL-ZERO =  0.66178E+00
:EFG005:                        EFG         =   -41.88681   *10**21  V / m**2
                               V20  TOT/SRF=    12.10338     0.01594
                               V22  TOT/SRF=   -34.58046    -0.10896
                               V22M TOT/SRF=     4.70390     0.04140
                               V21  TOT/SRF=     0.00000     0.00000
                               V21M TOT/SRF=     0.00000     0.00000

            -41.56835    4.70390    0.00000      -41.88681    0.00000    0.00000
              4.70390   27.59257    0.00000        0.00000   27.91103    0.00000
              0.00000    0.00000   13.97578        0.00000    0.00000   13.97578

         MAIN DIRECTIONS OF THE EFG   1.0000  0.0677  0.0000
                                     -0.0677  1.0000  0.0000
                                      0.0000  0.0000  1.0000
:ANG005:  ANGLE WITH OLD X-AXIS =         3.9

:ETA005:                         ASYMM. ETA =     0.33269


       ATOMNUMBER=  6 Pu  0+     VCOUL-ZERO =  0.66143E+00
:EFG006:                        EFG         =   -17.25630   *10**21  V / m**2
                               V20  TOT/SRF=    10.00397    -0.00007
                               V22  TOT/SRF=    -6.41965    -0.00724
                               V22M TOT/SRF=    -9.51788    -0.05448
                               V21  TOT/SRF=     0.00000     0.00000
                               V21M TOT/SRF=     0.00000     0.00000

            -12.19544   -9.51788    0.00000      -17.25630    0.00000    0.00000
             -9.51788    0.64386    0.00000        0.00000    5.70471    0.00000
              0.00000    0.00000   11.55158        0.00000    0.00000   11.55158

         MAIN DIRECTIONS OF THE EFG   1.0000 -0.5317  0.0000
                                      0.5317  1.0000  0.0000
                                      0.0000  0.0000  1.0000
:ANG006:  ANGLE WITH OLD X-AXIS =        28.0

:ETA006:                         ASYMM. ETA =     0.33883


       ATOMNUMBER=  7 Pu  0+     VCOUL-ZERO =  0.65629E+00
:EFG007:                        EFG         =   -20.36456   *10**21  V / m**2
                               V20  TOT/SRF=    10.73175    -0.00004
                               V22  TOT/SRF=     8.95292     0.08297
                               V22M TOT/SRF=    10.98152     0.01592
                               V21  TOT/SRF=     0.00000     0.00000
                               V21M TOT/SRF=     0.00000     0.00000

              2.75695   10.98152    0.00000        7.97260    0.00000    0.00000
             10.98152  -15.14890    0.00000        0.00000  -20.36456    0.00000
              0.00000    0.00000   12.39196        0.00000    0.00000   12.39196

         MAIN DIRECTIONS OF THE EFG   1.0000 -0.4749  0.0000
                                      0.4749  1.0000  0.0000
                                      0.0000  0.0000  1.0000
:ANG007:  ANGLE WITH OLD X-AXIS =        25.4

:ETA007:                         ASYMM. ETA =     0.21701


       ATOMNUMBER=  8 Pu  0+     VCOUL-ZERO =  0.66493E+00
:EFG008:                        EFG         =   -44.54284   *10**21  V / m**2
                               V20  TOT/SRF=    12.60759     0.03720
                               V22  TOT/SRF=   -36.79021    -0.04305
                               V22M TOT/SRF=     5.92243    -0.00314
                               V21  TOT/SRF=     0.00000     0.00000
                               V21M TOT/SRF=     0.00000     0.00000

            -44.06920    5.92243    0.00000      -44.54284    0.00000    0.00000
              5.92243   29.51121    0.00000        0.00000   29.98485    0.00000
              0.00000    0.00000   14.55799        0.00000    0.00000   14.55799

         MAIN DIRECTIONS OF THE EFG   1.0000  0.0800  0.0000
                                     -0.0800  1.0000  0.0000
                                      0.0000  0.0000  1.0000
:ANG008:  ANGLE WITH OLD X-AXIS =         4.6

:ETA008:                         ASYMM. ETA =     0.34634


     HELLMANN-FEYNMAN-FORCE IN mRy/a.u. = |F|  Fx       Fy             Fz
:FHF001:   1.ATOM       3190.801       3066.009        883.630          0.000

     HELLMANN-FEYNMAN-FORCE IN mRy/a.u. = |F|  Fx       Fy             Fz
:FHF002:   2.ATOM       1575.238       -301.619       1546.092          0.000

     HELLMANN-FEYNMAN-FORCE IN mRy/a.u. = |F|  Fx       Fy             Fz
:FHF003:   3.ATOM       5874.439       4444.417       3841.378          0.000

     HELLMANN-FEYNMAN-FORCE IN mRy/a.u. = |F|  Fx       Fy             Fz
:FHF004:   4.ATOM       3260.982      -3212.050       -562.790          0.000

     HELLMANN-FEYNMAN-FORCE IN mRy/a.u. = |F|  Fx       Fy             Fz
:FHF005:   5.ATOM       1990.961       1075.955       1675.185          0.000

     HELLMANN-FEYNMAN-FORCE IN mRy/a.u. = |F|  Fx       Fy             Fz
:FHF006:   6.ATOM       5544.358       4490.055       3252.584          0.000

     HELLMANN-FEYNMAN-FORCE IN mRy/a.u. = |F|  Fx       Fy             Fz
:FHF007:   7.ATOM       5513.055      -3791.753       4002.048          0.000

     HELLMANN-FEYNMAN-FORCE IN mRy/a.u. = |F|  Fx       Fy             Fz
:FHF008:   8.ATOM       1233.645       1141.839        466.994          0.000

:FIT001: LUSE= 13 SIGMA OF V-XC FIT FOR ATOM  1  0.4295578E-03
:FIT001: LUSE= 13 SIGMA OF V-XC FIT FOR ATOM  1  0.4295578E-03
:FIT002: LUSE= 13 SIGMA OF V-XC FIT FOR ATOM  2  0.2167401E-03
:FIT002: LUSE= 13 SIGMA OF V-XC FIT FOR ATOM  2  0.2167401E-03
:FIT003: LUSE= 13 SIGMA OF V-XC FIT FOR ATOM  3  0.2340681E-03
:FIT003: LUSE= 13 SIGMA OF V-XC FIT FOR ATOM  3  0.2340681E-03
:FIT004: LUSE= 13 SIGMA OF V-XC FIT FOR ATOM  4  0.2443638E-03
:FIT004: LUSE= 13 SIGMA OF V-XC FIT FOR ATOM  4  0.2443638E-03
:FIT005: LUSE= 13 SIGMA OF V-XC FIT FOR ATOM  5  0.1912055E-03
:FIT005: LUSE= 13 SIGMA OF V-XC FIT FOR ATOM  5  0.1912055E-03
:FIT006: LUSE= 13 SIGMA OF V-XC FIT FOR ATOM  6  0.1501029E-03
:FIT006: LUSE= 13 SIGMA OF V-XC FIT FOR ATOM  6  0.1501029E-03
:FIT007: LUSE= 13 SIGMA OF V-XC FIT FOR ATOM  7  0.4286989E-03
:FIT007: LUSE= 13 SIGMA OF V-XC FIT FOR ATOM  7  0.4286989E-03
:FIT008: LUSE= 13 SIGMA OF V-XC FIT FOR ATOM  8  0.1061337E-03
:FIT008: LUSE= 13 SIGMA OF V-XC FIT FOR ATOM  8  0.1061337E-03
:DEN  : DENSITY INTEGRAL  =       -350670.41410307   (Ry)
       ELS_POTENTIAL_AT Z=0 and Z=0.5:   0.99881   0.47972
       ELS_POTENTIAL_AT Y=0 and Y=0.5:   1.25554   1.25554
:VZERO:v0,v0c,v0x   0.13122   0.99881  -0.86758 v5,v5c,v5x  -0.44369   0.47972  -0.92341
:VZERY:v0,v0c,v0x   0.43142   1.25554  -0.82413 v5,v5c,v5x   0.43142   1.25554  -0.82413
:VZERX:v0,v0c,v0x  -0.80902   0.15452  -0.96354 v5,v5c,v5x  -0.71105   0.24294  -0.95399

------- alpha_Pu_3.scf1 --------

          ATOMIC SPHERE DEPENDENT PARAMETERS FOR ATOM  Pu  0+    
:e__0001: OVERALL ENERGY PARAMETER IS    1.2784
          OVERALL BASIS SET ON ATOM IS LAPW
:E0_0001: E( 0)=    1.2784
             APW+lo
:E0_0001: E( 0)=   -1.9335   E(BOTTOM)=   -2.708   E(TOP)=   -1.159
             LOCAL ORBITAL
:E1_0001: E( 1)=   -1.0120   E(BOTTOM)=   -1.012   E(TOP)= -200.000
             APW+lo
:E1_0001: E( 1)=    1.2784
             LOCAL ORBITAL
:E3_0001: E( 3)=    1.2784   E(BOTTOM)=    1.028   E(TOP)= -200.000
             APW+lo
:E2_0001: E( 2)=    1.2784   E(BOTTOM)=    1.188   E(TOP)= -200.000
             APW+lo

          ATOMIC SPHERE DEPENDENT PARAMETERS FOR ATOM  Pu  0+    
:e__0002: OVERALL ENERGY PARAMETER IS    1.2784
          OVERALL BASIS SET ON ATOM IS LAPW
:E0_0002: E( 0)=    1.2784
             APW+lo
:E0_0002: E( 0)=   -1.9325   E(BOTTOM)=   -2.705   E(TOP)=   -1.160
             LOCAL ORBITAL
:E1_0002: E( 1)=   -1.0060   E(BOTTOM)=   -1.006   E(TOP)= -200.000
             APW+lo
:E1_0002: E( 1)=    1.2784
             LOCAL ORBITAL
:E3_0002: E( 3)=    1.2784   E(BOTTOM)=    1.033   E(TOP)= -200.000
             APW+lo
:E2_0002: E( 2)=    1.2784   E(BOTTOM)=    1.198   E(TOP)= -200.000
             APW+lo

          ATOMIC SPHERE DEPENDENT PARAMETERS FOR ATOM  Pu  0+    
:e__0003: OVERALL ENERGY PARAMETER IS    1.2784
          OVERALL BASIS SET ON ATOM IS LAPW
:E0_0003: E( 0)=    1.2784
             APW+lo
:E0_0003: E( 0)=   -1.9300   E(BOTTOM)=   -2.703   E(TOP)=   -1.157
             LOCAL ORBITAL
:E1_0003: E( 1)=   -1.0060   E(BOTTOM)=   -1.006   E(TOP)= -200.000
             APW+lo
:E1_0003: E( 1)=    1.2784
             LOCAL ORBITAL
:E3_0003: E( 3)=    1.2784   E(BOTTOM)=    1.033   E(TOP)= -200.000
             APW+lo
:E2_0003: E( 2)=    1.2784   E(BOTTOM)=    1.198   E(TOP)= -200.000
             APW+lo

          ATOMIC SPHERE DEPENDENT PARAMETERS FOR ATOM  Pu  0+    
:e__0004: OVERALL ENERGY PARAMETER IS    1.2784
          OVERALL BASIS SET ON ATOM IS LAPW
:E0_0004: E( 0)=    1.2784
             APW+lo
:E0_0004: E( 0)=   -1.9305   E(BOTTOM)=   -2.703   E(TOP)=   -1.158
             LOCAL ORBITAL
:E1_0004: E( 1)=   -1.0040   E(BOTTOM)=   -1.004   E(TOP)= -200.000
             APW+lo
:E1_0004: E( 1)=    1.2784
             LOCAL ORBITAL
:E3_0004: E( 3)=    1.2784   E(BOTTOM)=    1.033   E(TOP)= -200.000
             APW+lo
:E2_0004: E( 2)=    1.2784   E(BOTTOM)=    1.198   E(TOP)= -200.000
             APW+lo

          ATOMIC SPHERE DEPENDENT PARAMETERS FOR ATOM  Pu  0+    
:e__0005: OVERALL ENERGY PARAMETER IS    1.2784
          OVERALL BASIS SET ON ATOM IS LAPW
:E0_0005: E( 0)=    1.2784
             APW+lo
:E0_0005: E( 0)=   -1.9300   E(BOTTOM)=   -2.702   E(TOP)=   -1.158
             LOCAL ORBITAL
:E1_0005: E( 1)=   -1.0020   E(BOTTOM)=   -1.002   E(TOP)= -200.000
             APW+lo
:E1_0005: E( 1)=    1.2784
             LOCAL ORBITAL
:E3_0005: E( 3)=    1.2784   E(BOTTOM)=    1.033   E(TOP)= -200.000
             APW+lo
:E2_0005: E( 2)=    1.2784   E(BOTTOM)=    1.198   E(TOP)= -200.000
             APW+lo

          ATOMIC SPHERE DEPENDENT PARAMETERS FOR ATOM  Pu  0+    
:e__0006: OVERALL ENERGY PARAMETER IS    1.2784
          OVERALL BASIS SET ON ATOM IS LAPW
:E0_0006: E( 0)=    1.2784
             APW+lo
:E0_0006: E( 0)=   -1.9300   E(BOTTOM)=   -2.702   E(TOP)=   -1.158
             LOCAL ORBITAL
:E1_0006: E( 1)=   -1.0020   E(BOTTOM)=   -1.002   E(TOP)= -200.000
             APW+lo
:E1_0006: E( 1)=    1.2784
             LOCAL ORBITAL
:E3_0006: E( 3)=    1.2784   E(BOTTOM)=    1.033   E(TOP)= -200.000
             APW+lo
:E2_0006: E( 2)=    1.2784   E(BOTTOM)=    1.198   E(TOP)= -200.000
             APW+lo

          ATOMIC SPHERE DEPENDENT PARAMETERS FOR ATOM  Pu  0+    
:e__0007: OVERALL ENERGY PARAMETER IS    1.2784
          OVERALL BASIS SET ON ATOM IS LAPW
:E0_0007: E( 0)=    1.2784
             APW+lo
:E0_0007: E( 0)=   -1.9300   E(BOTTOM)=   -2.703   E(TOP)=   -1.157
             LOCAL ORBITAL
:E1_0007: E( 1)=   -1.0060   E(BOTTOM)=   -1.006   E(TOP)= -200.000
             APW+lo
:E1_0007: E( 1)=    1.2784
             LOCAL ORBITAL
:E3_0007: E( 3)=    1.2784   E(BOTTOM)=    1.033   E(TOP)= -200.000
             APW+lo
:E2_0007: E( 2)=    1.2784   E(BOTTOM)=    1.198   E(TOP)= -200.000
             APW+lo

          ATOMIC SPHERE DEPENDENT PARAMETERS FOR ATOM  Pu  0+    
:e__0008: OVERALL ENERGY PARAMETER IS    1.2784
          OVERALL BASIS SET ON ATOM IS LAPW
:E0_0008: E( 0)=    1.2784
             APW+lo
:E0_0008: E( 0)=   -1.9255   E(BOTTOM)=   -2.697   E(TOP)=   -1.154
             LOCAL ORBITAL
:E1_0008: E( 1)=   -0.9980   E(BOTTOM)=   -0.998   E(TOP)= -200.000
             APW+lo
:E1_0008: E( 1)=    1.2784
             LOCAL ORBITAL
:E3_0008: E( 3)=    1.2784   E(BOTTOM)=    1.038   E(TOP)= -200.000
             APW+lo
:E2_0008: E( 2)=    1.2784   E(BOTTOM)=    1.208   E(TOP)= -200.000
             APW+lo

       K=   0.00000   0.00000   0.00000            1
:RKM  : MATRIX SIZE 2467LOs: 320  RKM= 8.50  WEIGHT= 1.00  PGR:    
       EIGENVALUES ARE:
:EIG00001:      -1.9710954   -1.9495961   -1.9451708   -1.9261799   -1.9112729
:EIG00006:      -1.9078693   -1.8968255   -1.8900289   -1.8882612   -1.8740988
:EIG00011:      -1.8680463   -1.8631851   -1.8496363   -1.8471071   -1.8411623
:EIG00016:      -1.8310221   -0.1778449   -0.1737223   -0.1724566   -0.1428076
:EIG00021:      -0.1413555   -0.1319130   -0.1259905   -0.1255221   -0.0843901
:EIG00026:      -0.0778525   -0.0765403   -0.0579879   -0.0565977   -0.0411911
:EIG00031:      -0.0388676   -0.0368545   -0.0368433   -0.0333291   -0.0079734
:EIG00036:       0.0009990    0.0377444    0.0393686    0.0869683    0.1027300
:EIG00041:       0.1099673    0.1297110    0.1510675    0.1562751    0.1847605
:EIG00046:       0.1863416    0.2031485    0.2159967    0.2173388    0.2190907
 
:EIG00051:       0.2234532    0.2366377    0.2484762    0.2497822    0.2590442
:EIG00056:       0.2621757    0.2738488    0.2838261    0.2856059    0.2877873
:EIG00061:       0.2965947    0.3020762    0.3249377    0.3314265    1.1613338
:EIG00066:       1.2520223    1.2699814    1.2703861    1.2745262    1.2812047
:EIG00071:       1.2934519    1.3005880    1.3050091    1.3194610    1.3222571
:EIG00076:       1.3235391    1.3305935    1.3370087    1.3382900    1.3407700
:EIG00081:       1.3561533    1.3684624    1.3698261    1.3773004    1.3889395
:EIG00086:       1.3939837    1.3955035    1.3972944    1.4013942    1.4024483
:EIG00091:       1.4038855    1.4083007    1.4104614    1.4119221    1.4127327
:EIG00096:       1.4198847    1.4219248    1.4248172    1.4255608    1.4281315
 
:EIG00101:       1.4286043    1.4290810    1.4299621    1.4309745    1.4330148
:EIG00106:       1.4351024    1.4354137    1.4367442    1.4425012    1.4430112
:EIG00111:       1.4463801    1.4497400    1.4518196    1.4538353    1.4548856
:EIG00116:       1.4558336    1.4602152    1.4608394    1.4643257    1.4701526
:EIG00121:       1.4770495    1.4818057    1.4866471    1.4902607    1.4925171
:EIG00126:       1.4945837    1.4960531    1.4984934    1.5040782    1.5111678
:EIG00131:       1.5138480    1.5245007    1.5271733    1.5289081    1.5299805
:EIG00136:       1.5320646    1.5350397    1.5400671    1.5410882    1.5426642
:EIG00141:       1.5431513    1.5447773    1.5448785    1.5467671    1.5506710
:EIG00146:       1.5549655    1.5564888    1.5604553    1.5654020    1.5669393
 
:EIG00151:       1.5696192    1.5702601    1.5748470    1.5771037    1.5782216
:EIG00156:       1.5826171    1.5828299    1.5842558    1.5867956    1.5869479
:EIG00161:       1.5878543    1.5887139    1.5899455    1.5926855    1.5944933
:EIG00166:       1.5952962    1.5957890    1.5985241    1.5989841    1.6049547
:EIG00171:       1.6051548    1.6053207    1.6103414    1.6108947    1.6119486
:EIG00176:       1.6150773    1.6161632    1.6169480    1.6170462    1.6184151
:EIG00181:       1.6189518    1.6236776    1.6286659    1.6355891    1.6360105
:EIG00186:       1.6382177    1.6383290    1.6392889    1.6410477    1.6480286
:EIG00191:       1.6483017    1.6511355    1.6560196    1.6565631    1.6685398
:EIG00196:       1.6692065    1.6841956    1.7061133    1.7213313    1.7270795
 
:EIG00201:       1.7405705    1.7454290    1.7544390    1.7644111    1.7646210
:EIG00206:       1.7741054    1.7824093    1.7847074    1.7928355    1.8081765
:EIG00211:       1.8140962    1.8160515    1.8200188    1.8395147    1.8469383
:EIG00216:       1.8787731    1.8858621    1.8972523    1.9284056    1.9406023
:EIG00221:       1.9450380    1.9488130    1.9567287    1.9840436    1.9877411
:EIG00226:       1.9896610    2.0087146    2.0146010    2.0300890    2.0402488
:EIG00231:       2.0415191    2.0677811    2.0921776    2.1026688    2.1049912
:EIG00236:       2.1318082    2.1333968    2.1337355    2.1619673    2.1785408
:EIG00241:       2.1832566    2.1899750    2.2025068    2.2247579    2.2468576
:EIG00246:       2.2500714    2.2522837    2.2798518    2.2953418    2.3000584
 
:EIG00251:       2.3209604    2.3238931    2.3308053    2.3364490    2.3386046
:EIG00256:       2.3522883    2.3863311    2.3876997    2.4028035    2.4127181
:EIG00261:       2.4402485    2.4774718    2.5067344    2.5075420    2.5631576
:EIG00266:       2.6041718    2.6375845    2.6566088    2.6780877    2.6849809
:EIG00271:       2.7077417    2.7153027    2.7162251    2.7276163    2.7365220
:EIG00276:       2.7389801    2.7436948    2.7442124    2.7535794    2.7805348
:EIG00281:       2.8070522    2.8136792    2.8206210    2.8507544    2.8531357
:EIG00286:       2.8779827    2.8781560    2.8903926    2.8914085    2.9024288
:EIG00291:       2.9435822    2.9526073    2.9764466    2.9808816    2.9970886
:EIG00296:       2.9972369    3.0142989    3.0493141    3.0631691    3.0833945
 
:EIG00301:       3.0907788    3.0947575    3.1038163    3.1233257    3.1342378
:EIG00306:       3.1637434    3.1657026    3.1735895    3.1801684    3.1879703
:EIG00311:       3.1895881    3.2000833    3.2044012    3.2330008    3.2368572
:EIG00316:       3.2410064    3.2544310    3.2764158    3.2780683    3.2979654
:EIG00321:       3.3012523    3.3249897    3.3254006    3.3376995    3.3432514
:EIG00326:       3.3574158    3.3704853    3.3727258    3.3870362    3.3927242
:EIG00331:       3.4178618    3.4249786    3.4251114    3.4273741    3.4334316
:EIG00336:       3.4523291    3.4673026    3.5015574    3.5038215    3.5072326
:EIG00341:       3.5155445    3.5317775    3.5497160    3.5511294    3.5569955
:EIG00346:       3.5750140    3.5844738    3.5862969    3.6107243    3.6109589
 
:EIG00351:       3.6207327    3.6276946    3.6406609    3.6432882    3.6656034
:EIG00356:       3.7192994    3.7239321    3.7242271    3.7315426    3.7416611
:EIG00361:       3.7435292    3.7483348    3.7707002    3.7793253    3.7898066
:EIG00366:       3.7961992    3.8070711    3.8082476    3.8294906    3.8402263
:EIG00371:       3.8513530    3.8535403    3.8702351    3.8800793    3.8970319
:EIG00376:       3.9059295    3.9238124    3.9310900    3.9429784    3.9530806
:EIG00381:       3.9598852    3.9682510    3.9746700    3.9787345    3.9977161
:EIG00386:       4.0146087    4.0147055    4.0306382    4.0492199    4.0557855
:EIG00391:       4.0678197    4.0902551    4.1079762    4.1202912    4.1211194
:EIG00396:       4.1384873    4.1575369    4.1605725    4.1697056    4.1708433
 
:EIG00401:       4.2056469    4.2072736    4.2200973    4.2297201    4.2538117
:EIG00406:       4.2622410    4.2725495    4.2726468    4.2819976    4.2828944
:EIG00411:       4.2911490    4.3032586    4.3192148    4.3300530    4.3441562
:EIG00416:       4.3443908    4.3450718    4.3624724    4.3884547    4.3895727
:EIG00421:       4.3903610    4.4083933    4.4207368    4.4239736    4.4502218
:EIG00426:       4.4513587    4.4615883    4.4742771    4.4812496    4.5047982
:EIG00431:       4.5224378    4.5234317    4.5252972    4.5281006    4.5348440
:EIG00436:       4.5438986    4.5462411    4.5484485    4.5624132    4.5676233
:EIG00441:       4.5874988    4.5884256    4.5896452    4.5953466    4.6027339
:EIG00446:       4.6170755    4.6194811    4.6281270    4.6313040    4.6411046
 
:EIG00451:       4.6464726    4.6593358    4.6601168    4.6668998    4.6932613
:EIG00456:       4.7017974    4.7070943    4.7258731    4.7415867    4.7572329
:EIG00461:       4.7580160    4.7616215    4.7824733    4.7928903    4.8056597
:EIG00466:       4.8097141    4.8161879    4.8171376    4.8488641    4.8642696
:EIG00471:       4.8657217    4.8859023    4.8892861    4.8971836    4.9121960
:EIG00476:       4.9128252    4.9155243    4.9215571    4.9283820    4.9341133
:EIG00481:       4.9445318    4.9594231    4.9610249    4.9616983    4.9701211
:EIG00486:       4.9825196    4.9853442    4.9874609    5.0047450    5.0107380
:EIG00491:       5.0146074    5.0196267    5.0245152    5.0272931    5.0326842
:EIG00496:       5.0363202    5.0425367    5.0557311    5.0622667    5.0706020
 
:EIG00501:       5.0775720    5.0803735    5.0890816    5.1016458    5.1045804
:EIG00506:       5.1149674    5.1153981    5.1303949    5.1342772    5.1448674
:EIG00511:       5.1589946    5.1630231    5.1643934    5.1761058    5.1796239
:EIG00516:       5.1870720    5.1921977    5.1990087    5.2111107    5.2148641
:EIG00521:       5.2163421    5.2337461    5.2439782    5.2465976    5.2526512
:EIG00526:       5.2606761    5.2721919    5.2727443    5.2808308    5.2879863
:EIG00531:       5.3024676    5.3242818    5.3321012    5.3322195    5.3543670
:EIG00536:       5.3668281    5.3671749    5.3706561    5.3960396    5.3986211
:EIG00541:       5.4164917    5.4179398    5.4341666    5.4476222    5.4538413
:EIG00546:       5.4567522    5.4624168    5.4651141    5.4715339    5.4715749
 
:EIG00551:       5.4930861    5.4948478    5.4979630    5.5053070    5.5059348
:EIG00556:       5.5124789    5.5299903    5.5433080    5.5515497    5.5618020
:EIG00561:       5.5703998    5.5745594    5.5795877    5.5860038    5.5937397
:EIG00566:       5.6073208    5.6075753    5.6103898    5.6224084    5.6354717
:EIG00571:       5.6358998    5.6387078    5.6440711    5.6468621    5.6538562
:EIG00576:       5.6634998    5.6673730    5.6879000    5.6938069    5.6963079
:EIG00581:       5.7098494    5.7168957    5.7219710    5.7301694    5.7338948
:EIG00586:       5.7418379    5.7454500    5.7463817    5.7569973    5.7690176
:EIG00591:       5.7746160    5.7883801    5.7921711    5.8037672    5.8124412
:EIG00596:       5.8125783    5.8172588    5.8297111    5.8381927    5.8585513
 
:EIG00601:       5.8611720    5.8717638    5.8723256    5.8801019    5.8827491
:EIG00606:       5.8898998    5.8968657    5.9004123    5.9186064    5.9220311
:EIG00611:       5.9229566    5.9324761    5.9369553    5.9402704    5.9566253
:EIG00616:       5.9629306    5.9675050    5.9758512    5.9891206    5.9939338
:EIG00621:       6.0051003    6.0083192    6.0088423    6.0348974    6.0599619
:EIG00626:       6.0620055    6.0643519    6.0671970    6.0870322    6.0984998
:EIG00631:       6.1051359    6.1061452    6.1117481    6.1150810    6.1280895
:EIG00636:       6.1321542    6.1358511    6.1493726    6.1582055    6.1656453
:EIG00641:       6.1725187    6.1929562    6.1949889    6.1966749    6.2056121
:EIG00646:       6.2172331    6.2261945    6.2339710    6.2459965    6.2477054
 
:EIG00651:       6.2628416    6.2721593    6.2787051    6.2828587    6.2982738
:EIG00656:       6.3044574    6.3095910    6.3307866    6.3320180    6.3333333
:EIG00661:       6.3366470    6.3613449    6.3635216    6.3699579    6.3811705
:EIG00666:       6.3830941    6.3933212    6.3961604    6.3996845    6.4191302
:EIG00671:       6.4274993    6.4414890    6.4573319    6.4573462    6.4733786
:EIG00676:       6.5018333    6.5029223    6.5089471    6.5095834    6.5165782
:EIG00681:       6.5168044    6.5239429    6.5295146    6.5581034    6.5638105
:EIG00686:       6.5698702    6.5743737    6.5815646    6.6045065    6.6244470
:EIG00691:       6.6257282    6.6257376    6.6479809    6.6519926    6.6602226
:EIG00696:       6.6632013    6.6790196    6.6794649    6.6851673    6.6884535
 
:EIG00701:       6.7021271    6.7096900    6.7137287    6.7212859    6.7445486
:EIG00706:       6.7548582    6.7622987    6.7623323    6.7660126    6.7738863
:EIG00711:       6.7788911    6.7878696    6.8104746    6.8117421    6.8196214
:EIG00716:       6.8348556    6.8432915    6.8610882    6.8693776    6.8696030
:EIG00721:       6.8795554    6.8834239    6.8873308    6.8889092    6.9016687
:EIG00726:       6.9107595    6.9234662    6.9282461    6.9430203    6.9468346
:EIG00731:       6.9556289    6.9648611    6.9706629    6.9709184    6.9806545
:EIG00736:       6.9861646    6.9932373    7.0096510    7.0133532    7.0159837
:EIG00741:       7.0273139    7.0347628    7.0381772    7.0395711    7.0401897
:EIG00746:       7.0556782    7.0605517    7.0846639    7.0874226    7.0894216
 
:EIG00751:       7.0927695    7.1058546    7.1108242    7.1132807    7.1229492
:EIG00756:       7.1481132    7.1582482    7.1727034    7.1755729    7.1801158
:EIG00761:       7.1832978    7.1833338    7.1927963    7.1955585    7.2122620
:EIG00766:       7.2137399    7.2342963    7.2464215    7.2510333    7.2634169
:EIG00771:       7.2644643    7.2786883    7.2824575    7.2916352    7.3008886
:EIG00776:       7.3119736    7.3126726    7.3174868    7.3230669    7.3255114
:EIG00781:       7.3482612    7.3484463    7.3492029    7.3500790    7.3547737
:EIG00786:       7.3817982    7.3870963    7.3884745    7.4024660    7.4151643
:EIG00791:       7.4180571    7.4237607    7.4294827    7.4510572    7.4512644
:EIG00796:       7.4593039    7.4611049    7.4689097    7.4754779    7.4880336
 
:EIG00801:       7.4894841    7.4947155
       ********************************************************

:KPT   :      NUMBER OF K-POINTS:    272

------- alpha_Pu_3.scfso --------
   0.0   0.0 angle (M,z), angle (M,x) deg
 
        SPIN-ORBIT EIGENVALUES:
     K=   0.00000   0.00000   0.00000            1
      MATRIX SIZE= 1604   WEIGHT= 1.00
     EIGENVALUES ARE:
          -1.9711118   -1.9711118   -1.9496352   -1.9496352   -1.9452099
          -1.9452099   -1.9262290   -1.9262290   -1.9113060   -1.9113060
          -1.9079176   -1.9079176   -1.8968642   -1.8968642   -1.8900651
          -1.8900651   -1.8882746   -1.8882746   -1.8741390   -1.8741390
          -1.8681001   -1.8681001   -1.8632226   -1.8632226   -1.8496773
          -1.8496773   -1.8471401   -1.8471401   -1.8411910   -1.8411910
          -1.8310574   -1.8310574   -0.4337086   -0.4337086   -0.4321358
          -0.4321358   -0.4142557   -0.4142557   -0.4106200   -0.4106200

          -0.4079977   -0.4079977   -0.3987455   -0.3987455   -0.3966285
          -0.3966285   -0.3864445   -0.3864445   -0.3655027   -0.3655027
          -0.3633463   -0.3633463   -0.3591795   -0.3591795   -0.3580734
          -0.3580734   -0.3454288   -0.3454288   -0.2865327   -0.2865327
          -0.2694198   -0.2694198   -0.2141584   -0.2141584    0.0505723
           0.0505723    0.0770897    0.0770897    0.0818406    0.0818406
           0.0861751    0.0861751    0.1023248    0.1023248    0.1124312
           0.1124312    0.1185558    0.1185558    0.1346621    0.1346621

           0.1679452    0.1679452    0.1706253    0.1706253    0.1793368
           0.1793368    0.1831634    0.1831634    0.2077724    0.2077724
           0.2263463    0.2263463    0.2303776    0.2303776    0.2450119
           0.2450119    0.2821823    0.2821823    0.2990228    0.2990228
           0.3168125    0.3168125    0.3518345    0.3518345    0.3525791
           0.3525791    0.3606427    0.3606427    0.3812875    0.3812875
           0.3987291    0.3987291    0.4127707    0.4127707    0.4203847
           0.4203847    0.4339457    0.4339457    0.4482674    0.4482674

           0.4663755    0.4663755    0.4905031    0.4905031    0.4905119
           0.4905119    0.5043231    0.5043231    1.1613210    1.1613210
           1.2496241    1.2496241    1.2668749    1.2668749    1.2693556
           1.2693556    1.2737970    1.2737970    1.2759599    1.2759599
           1.2929864    1.2929864    1.2985673    1.2985673    1.3043356
           1.3043356    1.3155057    1.3155057    1.3175501    1.3175501
           1.3232829    1.3232829    1.3237829    1.3237829    1.3360635
           1.3360635    1.3379192    1.3379192    1.3448032    1.3448032

           1.3558065    1.3558065    1.3612382    1.3612382    1.3683936
           1.3683936    1.3715200    1.3715200    1.3799112    1.3799112
           1.3848075    1.3848075    1.3901858    1.3901858    1.3902660
           1.3902660    1.3945174    1.3945174    1.3950442    1.3950442
           1.3979982    1.3979982    1.4019728    1.4019728    1.4039347
           1.4039347    1.4063011    1.4063011    1.4108470    1.4108470
           1.4117831    1.4117831    1.4135715    1.4135715    1.4179757
           1.4179757    1.4184166    1.4184166    1.4195142    1.4195142

           1.4216833    1.4216833    1.4231860    1.4231860    1.4251816
           1.4251816    1.4254266    1.4254266    1.4281061    1.4281061
           1.4298037    1.4298037    1.4320114    1.4320114    1.4345137
           1.4345137    1.4350529    1.4350529    1.4388797    1.4388797
           1.4413894    1.4413894    1.4414839    1.4414839    1.4444425
           1.4444425    1.4460332    1.4460332    1.4470889    1.4470889
           1.4500244    1.4500244    1.4522760    1.4522760    1.4552913
           1.4552913    1.4582613    1.4582613    1.4586134    1.4586134

           1.4668367    1.4668367    1.4689822    1.4689822    1.4768585
           1.4768585    1.4769298    1.4769298    1.4785743    1.4785743
           1.4831800    1.4831800    1.4871563    1.4871563    1.4881867
           1.4881867    1.4925507    1.4925507    1.4980953    1.4980953
           1.4995658    1.4995658    1.5054768    1.5054768    1.5070395
           1.5070395    1.5116875    1.5116875    1.5138103    1.5138103
           1.5219329    1.5219329    1.5284993    1.5284993    1.5335196
           1.5335196    1.5396797    1.5396797    1.5405531    1.5405531

           1.5460474    1.5460474    1.5512293    1.5512293    1.5538654
           1.5538654    1.5560033    1.5560033    1.5563134    1.5563134
           1.5584170    1.5584170    1.5631835    1.5631835    1.5635630
           1.5635630    1.5688165    1.5688165    1.5714864    1.5714864
           1.5746296    1.5746296    1.5749080    1.5749080    1.5804606
           1.5804606    1.5810178    1.5810178    1.5847763    1.5847763
           1.5850686    1.5850686    1.5864929    1.5864929    1.5871799
           1.5871799    1.5910676    1.5910676    1.5918211    1.5918211

           1.5941675    1.5941675    1.5958141    1.5958141    1.5975809
           1.5975809    1.5983538    1.5983538    1.6007543    1.6007543
           1.6022317    1.6022317    1.6038136    1.6038136    1.6052120
           1.6052120    1.6067681    1.6067681    1.6077954    1.6077954
           1.6132953    1.6132953    1.6134531    1.6134531    1.6156988
           1.6156988    1.6170472    1.6170472    1.6193666    1.6193666
           1.6228717    1.6228717    1.6238444    1.6238444    1.6277975
           1.6277975    1.6285385    1.6285385    1.6291354    1.6291354

           1.6321512    1.6321512    1.6341788    1.6341788    1.6343937
           1.6343937    1.6380156    1.6380156    1.6411729    1.6411729
           1.6436497    1.6436497    1.6459344    1.6459344    1.6498335
           1.6498335    1.6513037    1.6513037    1.6542019    1.6542019
           1.6556346    1.6556346    1.6611625    1.6611625    1.6611873
           1.6611873    1.6652371    1.6652371    1.6691956    1.6691956
           1.6797052    1.6797052    1.6918628    1.6918628    1.7133839
           1.7133839    1.7236347    1.7236347    1.7249920    1.7249920

           1.7429499    1.7429499    1.7430728    1.7430728    1.7588774
           1.7588774    1.7654633    1.7654633    1.7734192    1.7734192
           1.7773468    1.7773468    1.7858267    1.7858267    1.7873077
           1.7873077    1.7940552    1.7940552    1.8154941    1.8154941
           1.8173176    1.8173176    1.8224663    1.8224663    1.8278626
           1.8278626    1.8464072    1.8464072    1.8486703    1.8486703
           1.8831192    1.8831192    1.8914246    1.8914246    1.9026065
           1.9026065    1.9292104    1.9292104    1.9355910    1.9355910

           1.9407734    1.9407734    1.9538473    1.9538473    1.9684804
           1.9684804    1.9789516    1.9789516    1.9895106    1.9895106
           1.9933681    1.9933681    2.0103251    2.0103251    2.0189176
           2.0189176    2.0314200    2.0314200    2.0338635    2.0338635
           2.0535448    2.0535448    2.0653246    2.0653246    2.0964445
           2.0964445    2.1056314    2.1056314    2.1057926    2.1057926
           2.1284765    2.1284765    2.1321873    2.1321873    2.1385033
           2.1385033    2.1611799    2.1611799    2.1692971    2.1692971

           2.1822272    2.1822272    2.2012302    2.2012302    2.2063444
           2.2063444    2.2278199    2.2278199    2.2410676    2.2410676
           2.2503674    2.2503674    2.2567934    2.2567934    2.2765407
           2.2765407    2.2899088    2.2899088    2.2957710    2.2957710
           2.3095178    2.3095178    2.3251529    2.3251529    2.3326585
           2.3326585    2.3361078    2.3361078    2.3426888    2.3426888
           2.3691645    2.3691645    2.3785530    2.3785530    2.3974765
           2.3974765    2.4071851    2.4071851    2.4150501    2.4150501

           2.4449566    2.4449566    2.4754850    2.4754850    2.5058388
           2.5058388    2.5121906    2.5121906    2.5633067    2.5633067
           2.5964161    2.5964161    2.6210769    2.6210769    2.6339307
           2.6339307    2.6691475    2.6691475    2.6813499    2.6813499
           2.6961340    2.6961340    2.7034523    2.7034523    2.7165878
           2.7165878    2.7229156    2.7229156    2.7349208    2.7349208
           2.7497545    2.7497545    2.7529212    2.7529212    2.7708942
           2.7708942    2.7816916    2.7816916    2.7860566    2.7860566

           2.8109969    2.8109969    2.8233679    2.8233679    2.8265157
           2.8265157    2.8503879    2.8503879    2.8552559    2.8552559
           2.8748888    2.8748888    2.8863434    2.8863434    2.8937734
           2.8937734    2.9074474    2.9074474    2.9117152    2.9117152
           2.9504967    2.9504967    2.9514811    2.9514811    2.9776549
           2.9776549    2.9816727    2.9816727    2.9988753    2.9988753
           3.0064885    3.0064885    3.0122650    3.0122650    3.0501220
           3.0501220    3.0625748    3.0625748    3.0785653    3.0785653

           3.0941909    3.0941909    3.1017708    3.1017708    3.1064925
           3.1064925    3.1260181    3.1260181    3.1331925    3.1331925
           3.1640331    3.1640331    3.1684904    3.1684904    3.1725246
           3.1725246    3.1811214    3.1811214    3.1905394    3.1905394
           3.1912272    3.1912272    3.2052329    3.2052329    3.2116460
           3.2116460    3.2294072    3.2294072    3.2390696    3.2390696
           3.2499166    3.2499166    3.2513399    3.2513399    3.2810759
           3.2810759    3.2875589    3.2875589    3.2999549    3.2999549

           3.3049905    3.3049905    3.3242695    3.3242695    3.3266477
           3.3266477    3.3396018    3.3396018    3.3477763    3.3477763
           3.3615512    3.3615512    3.3683512    3.3683512    3.3797426
           3.3797426    3.3879740    3.3879740    3.4003627    3.4003627
           3.4192811    3.4192811    3.4259411    3.4259411    3.4289161
           3.4289161    3.4313505    3.4313505    3.4342915    3.4342915
           3.4548795    3.4548795    3.4701230    3.4701230    3.5031077
           3.5031077    3.5043850    3.5043850    3.5061589    3.5061589

           3.5160239    3.5160239    3.5362990    3.5362990    3.5481667
           3.5481667    3.5576429    3.5576429    3.5580651    3.5580651
           3.5746186    3.5746186    3.5861260    3.5861260    3.5884422
           3.5884422    3.6074319    3.6074319    3.6140361    3.6140361
           3.6254477    3.6254477    3.6287192    3.6287192    3.6412994
           3.6412994    3.6462656    3.6462656    3.6686043    3.6686043
           3.7168444    3.7168444    3.7235786    3.7235786    3.7242645
           3.7242645    3.7308602    3.7308602    3.7401490    3.7401490

           3.7459887    3.7459887    3.7514780    3.7514780    3.7719748
           3.7719748    3.7755382    3.7755382    3.7907664    3.7907664
           3.7941749    3.7941749    3.8065415    3.8065415    3.8101726
           3.8101726    3.8318389    3.8318389    3.8395141    3.8395141
           3.8528687    3.8528687    3.8534391    3.8534391    3.8705526
           3.8705526    3.8810066    3.8810066    3.8983995    3.8983995
           3.9065939    3.9065939    3.9218245    3.9218245    3.9288515
           3.9288515    3.9441582    3.9441582    3.9532146    3.9532146

           3.9594829    3.9594829    3.9667387    3.9667387    3.9728879
           3.9728879    3.9819607    3.9819607    3.9887062    3.9887062
           4.0152313    4.0152313    4.0155233    4.0155233    4.0344446
           4.0344446    4.0351652    4.0351652    4.0626310    4.0626310
           4.0643105    4.0643105    4.0907840    4.0907840    4.0999779
           4.0999779    4.1083033    4.1083033    4.1328272    4.1328272
           4.1375542    4.1375542    4.1491696    4.1491696    4.1596381
           4.1596381    4.1710951    4.1710951    4.1723036    4.1723036

           4.2007827    4.2007827    4.2019640    4.2019640    4.2221660
           4.2221660    4.2325416    4.2325416    4.2423931    4.2423931
           4.2561947    4.2561947    4.2699452    4.2699452    4.2776277
           4.2776277    4.2827553    4.2827553    4.2884233    4.2884233
           4.2961285    4.2961285    4.3073630    4.3073630    4.3191317
           4.3191317    4.3316884    4.3316884    4.3406014    4.3406014
           4.3469267    4.3469267    4.3620578    4.3620578    4.3697672
           4.3697672    4.3795846    4.3795846    4.3855785    4.3855785

           4.3958229    4.3958229    4.4104714    4.4104714    4.4207541
           4.4207541    4.4294514    4.4294514    4.4388112    4.4388112
           4.4539399    4.4539399    4.4578528    4.4578528    4.4692968
           4.4692968    4.4870870    4.4870870    4.4934557    4.4934557

       ********************************************************

------- alpha_Pu_3.scf2 --------
:GMA  : POTENTIAL AND CHARGE CUT-OFF  12.00 Ry**.5
         Bandranges (emin - emax) and occupancy:
:BAN00248: 248    1.473761    1.487767  1.00000000
:BAN00249: 249    1.475792    1.490414  1.00000000
:BAN00250: 250    1.475792    1.490414  1.00000000
:BAN00251: 251    1.479463    1.492014  1.00000000
:BAN00252: 252    1.479463    1.492014  1.00000000
:BAN00253: 253    1.484561    1.495754  0.91268098
:BAN00254: 254    1.484561    1.495754  0.91268098
:BAN00255: 255    1.488035    1.496287  0.72717253
:BAN00256: 256    1.488035    1.496287  0.72717253
:BAN00257: 257    1.490984    1.501041  0.36014649
:BAN00258: 258    1.490984    1.501041  0.36014649
:BAN00259: 259    1.494226    1.501679  0.00000000
:BAN00260: 260    1.494226    1.501679  0.00000000
:BAN00261: 261    1.497379    1.504150  0.00000000
:BAN00262: 262    1.497379    1.504150  0.00000000
:BAN00263: 263    1.501186    1.507159  0.00000000
        Energy to separate low and high energystates:    1.11132


:NLDA  : NUMBER OF ELECTRONS          = 256.000

:FLDA  : F E R M I - ENERGY           =   1.99360




:POS001: AT.NR.  -1 POSITION = 0.33900 0.25000 0.15650  MULTIPLICITY =  2

       LMMAX 28
       LM=   0 0  1 1 -1 1  2 0  2 2 -2 2  3 1 -3 1  3 3 -3 3  4 0  4 2 -4 2  4 4 -4 4  5 1 -5 1
         5 3 -5 3  5 5 -5 5  6 0  6 2 -6 2  6 4 -6 4  6 6 -6 6




:POS002: AT.NR.  -2 POSITION = 0.33900 0.25000 0.15650  MULTIPLICITY =  2

       LMMAX 28
       LM=   0 0  1 1 -1 1  2 0  2 2 -2 2  3 1 -3 1  3 3 -3 3  4 0  4 2 -4 2  4 4 -4 4  5 1 -5 1
         5 3 -5 3  5 5 -5 5  6 0  6 2 -6 2  6 4 -6 4  6 6 -6 6




:POS003: AT.NR.  -3 POSITION = 0.33900 0.25000 0.15650  MULTIPLICITY =  2

       LMMAX 28
       LM=   0 0  1 1 -1 1  2 0  2 2 -2 2  3 1 -3 1  3 3 -3 3  4 0  4 2 -4 2  4 4 -4 4  5 1 -5 1
         5 3 -5 3  5 5 -5 5  6 0  6 2 -6 2  6 4 -6 4  6 6 -6 6




:POS004: AT.NR.  -4 POSITION = 0.33900 0.25000 0.15650  MULTIPLICITY =  2

       LMMAX 28
       LM=   0 0  1 1 -1 1  2 0  2 2 -2 2  3 1 -3 1  3 3 -3 3  4 0  4 2 -4 2  4 4 -4 4  5 1 -5 1
         5 3 -5 3  5 5 -5 5  6 0  6 2 -6 2  6 4 -6 4  6 6 -6 6




:POS005: AT.NR.  -5 POSITION = 0.33900 0.25000 0.15650  MULTIPLICITY =  2

       LMMAX 28
       LM=   0 0  1 1 -1 1  2 0  2 2 -2 2  3 1 -3 1  3 3 -3 3  4 0  4 2 -4 2  4 4 -4 4  5 1 -5 1
         5 3 -5 3  5 5 -5 5  6 0  6 2 -6 2  6 4 -6 4  6 6 -6 6




:POS006: AT.NR.  -6 POSITION = 0.33900 0.25000 0.15650  MULTIPLICITY =  2

       LMMAX 28
       LM=   0 0  1 1 -1 1  2 0  2 2 -2 2  3 1 -3 1  3 3 -3 3  4 0  4 2 -4 2  4 4 -4 4  5 1 -5 1
         5 3 -5 3  5 5 -5 5  6 0  6 2 -6 2  6 4 -6 4  6 6 -6 6




:POS007: AT.NR.  -7 POSITION = 0.33900 0.25000 0.15650  MULTIPLICITY =  2

       LMMAX 28
       LM=   0 0  1 1 -1 1  2 0  2 2 -2 2  3 1 -3 1  3 3 -3 3  4 0  4 2 -4 2  4 4 -4 4  5 1 -5 1
         5 3 -5 3  5 5 -5 5  6 0  6 2 -6 2  6 4 -6 4  6 6 -6 6




:POS008: AT.NR.  -8 POSITION = 0.33900 0.25000 0.15650  MULTIPLICITY =  2

       LMMAX 28
       LM=   0 0  1 1 -1 1  2 0  2 2 -2 2  3 1 -3 1  3 3 -3 3  4 0  4 2 -4 2  4 4 -4 4  5 1 -5 1
         5 3 -5 3  5 5 -5 5  6 0  6 2 -6 2  6 4 -6 4  6 6 -6 6
:FER DMFT Fermi Energy   1.48571
:EORB    1.53459052
:SUM SUM OF DMFT BAND ENERGIES  124.89982012

:CHA001: TOTAL CHARGE INSIDE SPHERE   1 =    11.886337
:PCS001: PARTIAL CHARGES SPHERE =  1 S,P,D,F,PX,PY,PZ,D-Z2,D-X2Y2,D-XY,D-XZ,D-YZ 
:QTL001: 1.9413 4.5704 0.7837 4.5809 2.7185 2.6233 2.6010 0.1484 0.1672 0.1809 0.1770 0.1493
        Q-s-low E-s-low   Q-p-low E-p-low   Q-d-low E-d-low   Q-f-low E-f-low
:EPL001:  1.8848 -1.8688    4.4689  0.0376    0.0518  0.1379    0.0263  0.1614
        Q-s-hi  E-s-hi    Q-p-hi  E-p-hi    Q-d-hi  E-d-hi    Q-f-hi  E-f-hi 
:EPH001:  0.0565  1.3326    0.1015  1.3625    0.7318  1.3461    4.5547  1.4391

                      QXX         QXY         QYY         QZZ       UP TO R

:VZZ001:             1.42527   -14.65749    -7.40164     5.97637       2.150

:CHA002: TOTAL CHARGE INSIDE SPHERE   2 =    11.773961
:PCS002: PARTIAL CHARGES SPHERE =  2 S,P,D,F,PX,PY,PZ,D-Z2,D-X2Y2,D-XY,D-XZ,D-YZ 
:QTL002: 1.9476 4.5876 0.6931 4.5383 2.6019 2.6890 2.6651 0.1434 0.1426 0.1380 0.1395 0.1595
        Q-s-low E-s-low   Q-p-low E-p-low   Q-d-low E-d-low   Q-f-low E-f-low
:EPL002:  1.8818 -1.8722    4.4701  0.0420    0.0369  0.1558    0.0183  0.1738
        Q-s-hi  E-s-hi    Q-p-hi  E-p-hi    Q-d-hi  E-d-hi    Q-f-hi  E-f-hi 
:EPH002:  0.0658  1.3245    0.1176  1.3602    0.6561  1.3494    4.5200  1.4408

                      QXX         QXY         QYY         QZZ       UP TO R

:VZZ002:           -24.08393    12.77576    13.73036    10.35358       2.150

:CHA003: TOTAL CHARGE INSIDE SPHERE   3 =    11.792263
:PCS003: PARTIAL CHARGES SPHERE =  3 S,P,D,F,PX,PY,PZ,D-Z2,D-X2Y2,D-XY,D-XZ,D-YZ 
:QTL003: 1.9473 4.5784 0.7090 4.5502 2.6483 2.6404 2.6508 0.1447 0.1538 0.1400 0.1554 0.1462
        Q-s-low E-s-low   Q-p-low E-p-low   Q-d-low E-d-low   Q-f-low E-f-low
:EPL003:  1.8821 -1.8692    4.4666  0.0430    0.0390  0.1613    0.0195  0.1901
        Q-s-hi  E-s-hi    Q-p-hi  E-p-hi    Q-d-hi  E-d-hi    Q-f-hi  E-f-hi 
:EPH003:  0.0652  1.3224    0.1119  1.3643    0.6701  1.3499    4.5307  1.4359

                      QXX         QXY         QYY         QZZ       UP TO R

:VZZ003:            -5.46915   -14.50418     3.54791     1.92124       2.150

:CHA004: TOTAL CHARGE INSIDE SPHERE   4 =    11.769696
:PCS004: PARTIAL CHARGES SPHERE =  4 S,P,D,F,PX,PY,PZ,D-Z2,D-X2Y2,D-XY,D-XZ,D-YZ 
:QTL004: 1.9502 4.5892 0.6884 4.5350 2.6480 2.6430 2.6471 0.1407 0.1406 0.1445 0.1405 0.1506
        Q-s-low E-s-low   Q-p-low E-p-low   Q-d-low E-d-low   Q-f-low E-f-low
:EPL004:  1.8811 -1.8714    4.4620  0.0418    0.0347  0.1521    0.0173  0.1808
        Q-s-hi  E-s-hi    Q-p-hi  E-p-hi    Q-d-hi  E-d-hi    Q-f-hi  E-f-hi 
:EPH004:  0.0691  1.3237    0.1273  1.3626    0.6536  1.3495    4.5177  1.4390

                      QXX         QXY         QYY         QZZ       UP TO R

:VZZ004:            -2.29912    14.34050     1.17424     1.12487       2.150

:CHA005: TOTAL CHARGE INSIDE SPHERE   5 =    11.760632
:PCS005: PARTIAL CHARGES SPHERE =  5 S,P,D,F,PX,PY,PZ,D-Z2,D-X2Y2,D-XY,D-XZ,D-YZ 
:QTL005: 1.9490 4.5911 0.6917 4.5219 2.5817 2.7098 2.6633 0.1432 0.1394 0.1406 0.1358 0.1618
        Q-s-low E-s-low   Q-p-low E-p-low   Q-d-low E-d-low   Q-f-low E-f-low
:EPL005:  1.8812 -1.8704    4.4673  0.0447    0.0348  0.1537    0.0172  0.1754
        Q-s-hi  E-s-hi    Q-p-hi  E-p-hi    Q-d-hi  E-d-hi    Q-f-hi  E-f-hi 
:EPH005:  0.0678  1.3225    0.1237  1.3632    0.6569  1.3504    4.5046  1.4422

                      QXX         QXY         QYY         QZZ       UP TO R

:VZZ005:           -40.94017     4.61301    27.13753    13.80264       2.150

:CHA006: TOTAL CHARGE INSIDE SPHERE   6 =    11.741812
:PCS006: PARTIAL CHARGES SPHERE =  6 S,P,D,F,PX,PY,PZ,D-Z2,D-X2Y2,D-XY,D-XZ,D-YZ 
:QTL006: 1.9509 4.5808 0.6720 4.5319 2.6493 2.6437 2.6647 0.1342 0.1322 0.1461 0.1406 0.1463
        Q-s-low E-s-low   Q-p-low E-p-low   Q-d-low E-d-low   Q-f-low E-f-low
:EPL006:  1.8804 -1.8716    4.4702  0.0452    0.0322  0.1618    0.0157  0.1900
        Q-s-hi  E-s-hi    Q-p-hi  E-p-hi    Q-d-hi  E-d-hi    Q-f-hi  E-f-hi 
:EPH006:  0.0705  1.3132    0.1106  1.3623    0.6398  1.3508    4.5162  1.4404

                      QXX         QXY         QYY         QZZ       UP TO R

:VZZ006:           -12.44010    -9.61368     0.81608    11.62402       2.150

:CHA007: TOTAL CHARGE INSIDE SPHERE   7 =    11.797569
:PCS007: PARTIAL CHARGES SPHERE =  7 S,P,D,F,PX,PY,PZ,D-Z2,D-X2Y2,D-XY,D-XZ,D-YZ 
:QTL007: 1.9463 4.5870 0.7074 4.5486 2.7112 2.6093 2.6491 0.1477 0.1315 0.1544 0.1667 0.1397
        Q-s-low E-s-low   Q-p-low E-p-low   Q-d-low E-d-low   Q-f-low E-f-low
:EPL007:  1.8827 -1.8685    4.4695  0.0437    0.0410  0.1434    0.0208  0.1650
        Q-s-hi  E-s-hi    Q-p-hi  E-p-hi    Q-d-hi  E-d-hi    Q-f-hi  E-f-hi 
:EPH007:  0.0636  1.3179    0.1175  1.3579    0.6664  1.3488    4.5278  1.4348

                      QXX         QXY         QYY         QZZ       UP TO R

:VZZ007:             2.90179    11.25051   -15.02905    12.12726       2.150

:CHA008: TOTAL CHARGE INSIDE SPHERE   8 =    11.648313
:PCS008: PARTIAL CHARGES SPHERE =  8 S,P,D,F,PX,PY,PZ,D-Z2,D-X2Y2,D-XY,D-XZ,D-YZ 
:QTL008: 1.9519 4.6131 0.5724 4.5069 2.6304 2.7097 2.7201 0.1278 0.1048 0.1126 0.1144 0.1317
        Q-s-low E-s-low   Q-p-low E-p-low   Q-d-low E-d-low   Q-f-low E-f-low
:EPL008:  1.8776 -1.8712    4.4728  0.0515    0.0190  0.1715    0.0090  0.1890
        Q-s-hi  E-s-hi    Q-p-hi  E-p-hi    Q-d-hi  E-d-hi    Q-f-hi  E-f-hi 
:EPH008:  0.0742  1.3127    0.1403  1.3561    0.5534  1.3515    4.4979  1.4330

                      QXX         QXY         QYY         QZZ       UP TO R

:VZZ008:           -44.04442     6.11224    29.25719    14.78723       2.150

:CHA  : TOTAL CHARGE INSIDE UNIT CELL =     256.000000

:ESUM  : SUM OF EIGENVALUES =         125.899537667


------- alpha_Pu_3.scfc --------

        1.ATOM      Pu  0+               21 CORE STATES
       CORE-FORCE in mRy/a.u. = |F|      Fx             Fy             Fz
:FCO001:   1.ATOM       3092.862      -2959.061       -899.863          0.000

:1S 001: 1S               -8966.264688125 Ry
:2S 001: 2S               -1686.938473639 Ry
:2PP001: 2P*              -1627.631581557 Ry
:2P 001: 2P               -1314.480638066 Ry
:3S 001: 3S                -427.483593704 Ry
:3PP001: 3P*               -400.559005706 Ry
:3P 001: 3P                -327.997906055 Ry
:3DD001: 3D*               -285.757440347 Ry
:3D 001: 3D                -271.215344932 Ry
:4S 001: 4S                -108.963809124 Ry
:4PP001: 4P*                -96.775966701 Ry
:4P 001: 4P                 -77.630380621 Ry
:4DD001: 4D*                -58.342985081 Ry
:4D 001: 4D                 -54.848354713 Ry
:5S 001: 5S                 -23.117272435 Ry
:5PP001: 5P*                -18.299055657 Ry
:5P 001: 5P                 -13.609018613 Ry
:4FF001: 4F*                -29.448774137 Ry
:4F 001: 4F                 -28.520669063 Ry
:5DD001: 5D*                 -6.572249326 Ry
:5D 001: 5D                  -5.872778336 Ry

        2.ATOM      Pu  0+               21 CORE STATES
       CORE-FORCE in mRy/a.u. = |F|      Fx             Fy             Fz
:FCO002:   2.ATOM       1541.242        223.222      -1524.992          0.000

:1S 002: 1S               -8966.262881515 Ry
:2S 002: 2S               -1686.937336870 Ry
:2PP002: 2P*              -1627.630429872 Ry
:2P 002: 2P               -1314.479510192 Ry
:3S 002: 3S                -427.481511264 Ry
:3PP002: 3P*               -400.556970724 Ry
:3P 002: 3P                -327.995812810 Ry
:3DD002: 3D*               -285.755528269 Ry
:3D 002: 3D                -271.213391488 Ry
:4S 002: 4S                -108.962019445 Ry
:4PP002: 4P*                -96.774178276 Ry
:4P 002: 4P                 -77.628675654 Ry
:4DD002: 4D*                -58.341292892 Ry
:4D 002: 4D                 -54.846683465 Ry
:5S 002: 5S                 -23.116211543 Ry
:5PP002: 5P*                -18.298081851 Ry
:5P 002: 5P                 -13.608332338 Ry
:4FF002: 4F*                -29.446966855 Ry
:4F 002: 4F                 -28.518874783 Ry
:5DD002: 5D*                 -6.571865521 Ry
:5D 002: 5D                  -5.872480086 Ry

        3.ATOM      Pu  0+               21 CORE STATES
       CORE-FORCE in mRy/a.u. = |F|      Fx             Fy             Fz
:FCO003:   3.ATOM       5818.711      -4400.524      -3806.939          0.000

:1S 003: 1S               -8966.259980717 Ry
:2S 003: 2S               -1686.934053970 Ry
:2PP003: 2P*              -1627.627214839 Ry
:2P 003: 2P               -1314.476229167 Ry
:3S 003: 3S                -427.478127822 Ry
:3PP003: 3P*               -400.553596052 Ry
:3P 003: 3P                -327.992429429 Ry
:3DD003: 3D*               -285.752131238 Ry
:3D 003: 3D                -271.209992266 Ry
:4S 003: 4S                -108.958654061 Ry
:4PP003: 4P*                -96.770813480 Ry
:4P 003: 4P                 -77.625313727 Ry
:4DD003: 4D*                -58.337924518 Ry
:4D 003: 4D                 -54.843315427 Ry
:5S 003: 5S                 -23.112852845 Ry
:5PP003: 5P*                -18.294735038 Ry
:5P 003: 5P                 -13.605026541 Ry
:4FF003: 4F*                -29.443589564 Ry
:4F 003: 4F                 -28.515498051 Ry
:5DD003: 5D*                 -6.568627760 Ry
:5D 003: 5D                  -5.869267685 Ry

        4.ATOM      Pu  0+               21 CORE STATES
       CORE-FORCE in mRy/a.u. = |F|      Fx             Fy             Fz
:FCO004:   4.ATOM       3208.800       3165.920        522.827          0.000

:1S 004: 1S               -8966.260446022 Ry
:2S 004: 2S               -1686.935131196 Ry
:2PP004: 2P*              -1627.628189161 Ry
:2P 004: 2P               -1314.477307113 Ry
:3S 004: 3S                -427.479387895 Ry
:3PP004: 3P*               -400.554840414 Ry
:3P 004: 3P                -327.993693679 Ry
:3DD004: 3D*               -285.753408650 Ry
:3D 004: 3D                -271.211274858 Ry
:4S 004: 4S                -108.959948517 Ry
:4PP004: 4P*                -96.772106499 Ry
:4P 004: 4P                 -77.626617336 Ry
:4DD004: 4D*                -58.339236460 Ry
:4D 004: 4D                 -54.844631364 Ry
:5S 004: 5S                 -23.114299589 Ry
:5PP004: 5P*                -18.296181934 Ry
:5P 004: 5P                 -13.606473407 Ry
:4FF004: 4F*                -29.444914743 Ry
:4F 004: 4F                 -28.516824607 Ry
:5DD004: 5D*                 -6.570053865 Ry
:5D 004: 5D                  -5.870683629 Ry

        5.ATOM      Pu  0+               21 CORE STATES
       CORE-FORCE in mRy/a.u. = |F|      Fx             Fy             Fz
:FCO005:   5.ATOM       1986.209      -1038.934      -1692.821          0.000

:1S 005: 1S               -8966.261047713 Ry
:2S 005: 2S               -1686.935874544 Ry
:2PP005: 2P*              -1627.628887084 Ry
:2P 005: 2P               -1314.478047380 Ry
:3S 005: 3S                -427.480388906 Ry
:3PP005: 3P*               -400.555825553 Ry
:3P 005: 3P                -327.994697347 Ry
:3DD005: 3D*               -285.754385679 Ry
:3D 005: 3D                -271.212261722 Ry
:4S 005: 4S                -108.960886813 Ry
:4PP005: 4P*                -96.773044090 Ry
:4P 005: 4P                 -77.627537505 Ry
:4DD005: 4D*                -58.340158746 Ry
:4D 005: 4D                 -54.845549616 Ry
:5S 005: 5S                 -23.115089842 Ry
:5PP005: 5P*                -18.296939835 Ry
:5P 005: 5P                 -13.607118459 Ry
:4FF005: 4F*                -29.445865691 Ry
:4F 005: 4F                 -28.517772781 Ry
:5DD005: 5D*                 -6.570520153 Ry
:5D 005: 5D                  -5.871088488 Ry

        6.ATOM      Pu  0+               21 CORE STATES
       CORE-FORCE in mRy/a.u. = |F|      Fx             Fy             Fz
:FCO006:   6.ATOM       5505.684      -4456.283      -3233.280          0.000

:1S 006: 1S               -8966.260151188 Ry
:2S 006: 2S               -1686.934378863 Ry
:2PP006: 2P*              -1627.627562499 Ry
:2P 006: 2P               -1314.476560824 Ry
:3S 006: 3S                -427.477988421 Ry
:3PP006: 3P*               -400.553482289 Ry
:3P 006: 3P                -327.992284434 Ry
:3DD006: 3D*               -285.752063149 Ry
:3D 006: 3D                -271.209904430 Ry
:4S 006: 4S                -108.958625654 Ry
:4PP006: 4P*                -96.770786292 Ry
:4P 006: 4P                 -77.625318574 Ry
:4DD006: 4D*                -58.337933229 Ry
:4D 006: 4D                 -54.843331762 Ry
:5S 006: 5S                 -23.113082820 Ry
:5PP006: 5P*                -18.294998248 Ry
:5P 006: 5P                 -13.605397280 Ry
:4FF006: 4F*                -29.443544715 Ry
:4F 006: 4F                 -28.515458275 Ry
:5DD006: 5D*                 -6.569099026 Ry
:5D 006: 5D                  -5.869765184 Ry

        7.ATOM      Pu  0+               21 CORE STATES
       CORE-FORCE in mRy/a.u. = |F|      Fx             Fy             Fz
:FCO007:   7.ATOM       5439.040       3636.367      -4044.749          0.000

:1S 007: 1S               -8966.259108428 Ry
:2S 007: 2S               -1686.933473853 Ry
:2PP007: 2P*              -1627.626567006 Ry
:2P 007: 2P               -1314.475644354 Ry
:3S 007: 3S                -427.477770300 Ry
:3PP007: 3P*               -400.553222119 Ry
:3P 007: 3P                -327.992075861 Ry
:3DD007: 3D*               -285.751764693 Ry
:3D 007: 3D                -271.209633986 Ry
:4S 007: 4S                -108.958306544 Ry
:4PP007: 4P*                -96.770464424 Ry
:4P 007: 4P                 -77.624966608 Ry
:4DD007: 4D*                -58.337580599 Ry
:4D 007: 4D                 -54.842973014 Ry
:5S 007: 5S                 -23.112568237 Ry
:5PP007: 5P*                -18.294448301 Ry
:5P 007: 5P                 -13.604735247 Ry
:4FF007: 4F*                -29.443265666 Ry
:4F 007: 4F                 -28.515174260 Ry
:5DD007: 5D*                 -6.568339017 Ry
:5D 007: 5D                  -5.868981019 Ry

        8.ATOM      Pu  0+               21 CORE STATES
       CORE-FORCE in mRy/a.u. = |F|      Fx             Fy             Fz
:FCO008:   8.ATOM       1181.154      -1105.997       -414.604          0.000

:1S 008: 1S               -8966.249029502 Ry
:2S 008: 2S               -1686.923769983 Ry
:2PP008: 2P*              -1627.616977945 Ry
:2P 008: 2P               -1314.465950993 Ry
:3S 008: 3S                -427.466014928 Ry
:3PP008: 3P*               -400.541573423 Ry
:3P 008: 3P                -327.980304451 Ry
:3DD008: 3D*               -285.740303992 Ry
:3D 008: 3D                -271.198090424 Ry
:4S 008: 4S                -108.947305283 Ry
:4PP008: 4P*                -96.759464745 Ry
:4P 008: 4P                 -77.614167978 Ry
:4DD008: 4D*                -58.326788299 Ry
:4D 008: 4D                 -54.832231670 Ry
:5S 008: 5S                 -23.103333099 Ry
:5PP008: 5P*                -18.285449082 Ry
:5P 008: 5P                 -13.596527588 Ry
:4FF008: 4F*                -29.432222709 Ry
:4F 008: 4F                 -28.504162756 Ry
:5DD008: 5D*                 -6.561083784 Ry
:5D 008: 5D                  -5.862024869 Ry

------- alpha_Pu_3.scfm --------

       DENSITY AT NUCLEUS
        JATOM    VALENCE       SEMI-CORE            CORE           TOTAL
:RTO001:   1    23343.903454        0.000000 45141829.874745 45165173.778199
:RTO002:   2    23476.880323        0.000000 45141823.252977 45165300.133299
:RTO003:   3    23466.554254        0.000000 45141824.486873 45165291.041127
:RTO004:   4    23525.049151        0.000000 45141820.912062 45165345.961213
:RTO005:   5    23509.090403        0.000000 45141821.528692 45165330.619095
:RTO006:   6    23541.568485        0.000000 45141822.554891 45165364.123376
:RTO007:   7    23447.600521        0.000000 45141822.770196 45165270.370717
:RTO008:   8    23559.757741        0.000000 45141810.579118 45165370.336859
     
       CHARGES OF NEW CHARGE DENSITY
:NTO  : TOTAL   INTERSTITIAL CHARGE=   67.6586807
:NTO001: TOTAL   CHARGE IN SPHERE  1 =       89.8770267
:NTO002: TOTAL   CHARGE IN SPHERE  2 =       89.7646904
:NTO003: TOTAL   CHARGE IN SPHERE  3 =       89.7829802
:NTO004: TOTAL   CHARGE IN SPHERE  4 =       89.7604238
:NTO005: TOTAL   CHARGE IN SPHERE  5 =       89.7513736
:NTO006: TOTAL   CHARGE IN SPHERE  6 =       89.7325497
:NTO007: TOTAL   CHARGE IN SPHERE  7 =       89.7882818
:NTO008: TOTAL   CHARGE IN SPHERE  8 =       89.6390504

:NEC01: NUCLEAR AND ELECTRONIC CHARGE   1504.00000  1503.85143     1.00010
     
       CHARGES OF OLD CHARGE DENSITY
:OTO  : TOTAL   INTERSTITIAL CHARGE=   68.1505729
:OTO001: TOTAL   CHARGE IN SPHERE  1 =       89.8455164
:OTO002: TOTAL   CHARGE IN SPHERE  2 =       89.7431541
:OTO003: TOTAL   CHARGE IN SPHERE  3 =       89.7591771
:OTO004: TOTAL   CHARGE IN SPHERE  4 =       89.7391654
:OTO005: TOTAL   CHARGE IN SPHERE  5 =       89.7326858
:OTO006: TOTAL   CHARGE IN SPHERE  6 =       89.7128197
:OTO007: TOTAL   CHARGE IN SPHERE  7 =       89.7659368
:OTO008: TOTAL   CHARGE IN SPHERE  8 =       89.6262583

:NEC02: NUCLEAR AND ELECTRONIC CHARGE   1504.00000  1504.00000     1.00000
     
       CONVERGENCE TEST
:DTO001: TOTAL   DIFFERENCE CHARGE**2 IN SPHERE  1 =  0.0316985
:DTO002: TOTAL   DIFFERENCE CHARGE**2 IN SPHERE  2 =  0.0241261
:DTO003: TOTAL   DIFFERENCE CHARGE**2 IN SPHERE  3 =  0.0256650
:DTO004: TOTAL   DIFFERENCE CHARGE**2 IN SPHERE  4 =  0.0239716
:DTO005: TOTAL   DIFFERENCE CHARGE**2 IN SPHERE  5 =  0.0224080
:DTO006: TOTAL   DIFFERENCE CHARGE**2 IN SPHERE  6 =  0.0234642
:DTO007: TOTAL   DIFFERENCE CHARGE**2 IN SPHERE  7 =  0.0246996
:DTO008: TOTAL   DIFFERENCE CHARGE**2 IN SPHERE  8 =  0.0171206

:DIS  :  CHARGE DISTANCE       ( 0.0316985 for atom    1 spin 1)      0.0241442
:BIG check (qbig,qrms,qtot)    0.106D-01   0.173D-01   0.241D-01
 
******************************************************
* MULTISECANT MIXING VER4 OPTIONS                    *
* Unpredicted Step Limit   0.100000                  *
* Plane Wave Dynamic Rescaling                       *
* Dynamic Regularization active                      *
* Upper Cutoff Lambda  1.0E-01 Lower 3.5E-04         *
* SQRT Multiplicity/Degeneracy                       *
* Max Number of Memory Steps    8                    *
******************************************************
 
:PLANE:  INTERSTITIAL TOTAL      7.67262 DISTAN  1.458E-01 % 
:CHARG:  CLM CHARGE   /ATOM    356.61352 DISTAN  7.976E-03 % 
:MIX  :  PRATT  REGULARIZATION: 3.50E-04  GREED: 0.035
     
       CHARGES OF MIXED CHARGE DENSITY
:CTO  : TOTAL   INTERSTITIAL CHARGE=   68.1385565
:CTO001: TOTAL   CHARGE IN SPHERE  1 =       89.8466193
:CTO002: TOTAL   CHARGE IN SPHERE  2 =       89.7439079
:CTO003: TOTAL   CHARGE IN SPHERE  3 =       89.7600102
:CTO004: TOTAL   CHARGE IN SPHERE  4 =       89.7399094
:CTO005: TOTAL   CHARGE IN SPHERE  5 =       89.7333399
:CTO006: TOTAL   CHARGE IN SPHERE  6 =       89.7135102
:CTO007: TOTAL   CHARGE IN SPHERE  7 =       89.7667189
:CTO008: TOTAL   CHARGE IN SPHERE  8 =       89.6267060

:NEC03: NUCLEAR AND ELECTRONIC CHARGE   1504.00000  1504.00000     1.00000


:ENE  : ********** TOTAL ENERGY IN Ry =      -949675.79456285

       TOTAL FORCE IN mRy/a.u. = |F|     Fx             Fy             Fz     with/without FOR in case.in2
:FOR001:   1.ATOM        108.173        106.948        -16.233          0.000 partial forces
:FOR002:   2.ATOM         81.187        -78.397         21.100          0.000 partial forces
:FOR003:   3.ATOM         55.791         43.893         34.439          0.000 partial forces
:FOR004:   4.ATOM         61.033        -46.130        -39.963          0.000 partial forces
:FOR005:   5.ATOM         41.007         37.021        -17.636          0.000 partial forces
:FOR006:   6.ATOM         38.900         33.772         19.304          0.000 partial forces
:FOR007:   7.ATOM        161.146       -155.386        -42.701          0.000 partial forces
:FOR008:   8.ATOM         63.477         35.842         52.390          0.000 partial forces

       TOTAL FORCE WITH RESPECT TO GLOBAL CARTESIAN COORDINATES:
:FCA001:   1.ATOM                       -16.233          0.000        106.948 partial forces
:FCA002:   2.ATOM                        21.100          0.000        -78.397 partial forces
:FCA003:   3.ATOM                        34.439          0.000         43.893 partial forces
:FCA004:   4.ATOM                       -39.963          0.000        -46.130 partial forces
:FCA005:   5.ATOM                       -17.636          0.000         37.021 partial forces
:FCA006:   6.ATOM                        19.304          0.000         33.772 partial forces
:FCA007:   7.ATOM                       -42.701          0.000       -155.386 partial forces
:FCA008:   8.ATOM                        52.390          0.000         35.842 partial forces

       TOTAL FORCE WITH RESPECT TO THE GLOBAL COORDINATE SYSTEM:
:FGL001:   1.ATOM               -16.582666039     0.000000000   103.560593330 partial forces
:FGL002:   2.ATOM                21.554503383     0.000000000   -73.993976484 partial forces
:FGL003:   3.ATOM                35.180831375     0.000000000    51.079527340 partial forces
:FGL004:   4.ATOM               -40.823820791     0.000000000   -54.469243071 partial forces
:FGL005:   5.ATOM               -18.015887283     0.000000000    33.340823567 partial forces
:FGL006:   6.ATOM                19.719816744     0.000000000    37.800244832 partial forces
:FGL007:   7.ATOM               -43.620798529     0.000000000  -164.296592757 partial forces
:FGL008:   8.ATOM                53.518503897     0.000000000    46.774436115 partial forces

------- alpha_Pu_3.scf0 --------


            ---------
:ITE080: 80. ITERATION
            ---------

:NATO :    8 INDEPENDENT AND   16 TOTAL ATOMS IN UNITCELL
       SUBSTANCE: alpha_Pu                                                    

       LATTICE                      = P   
:POT  : POTENTIAL OPTION    5
:LAT  : LATTICE CONSTANTS= 11.48392  8.95921 20.36882    1.571    1.777    1.571
:VOL  : UNIT CELL VOLUME =    2051.49334
       MODE OF CALCULATION IS       = RELA
       NON-SPINPOLARIZED CALCULATION
:IFFT  : FFT-parameters:   90   72  160 Factor: 2.00
       ATOMNUMBER=  1 Pu  0+     VCOUL-ZERO =  0.64943E+00
:EFG001:                        EFG         =   -18.49645   *10**21  V / m**2
                               V20  TOT/SRF=     5.21394    -0.09080
                               V22  TOT/SRF=     4.51278     0.09489
                               V22M TOT/SRF=   -14.81407    -0.07135
                               V21  TOT/SRF=     0.00000     0.00000
                               V21M TOT/SRF=     0.00000     0.00000

              1.50251  -14.81407    0.00000       12.47591    0.00000    0.00000
            -14.81407   -7.52305    0.00000        0.00000  -18.49645    0.00000
              0.00000    0.00000    6.02054        0.00000    0.00000    6.02054

         MAIN DIRECTIONS OF THE EFG   1.0000  0.7407  0.0000
                                     -0.7407  1.0000  0.0000
                                      0.0000  0.0000  1.0000
:ANG001:  ANGLE WITH OLD X-AXIS =        36.5

:ETA001:                         ASYMM. ETA =     0.34901


       ATOMNUMBER=  2 Pu  0+     VCOUL-ZERO =  0.65689E+00
:EFG002:                        EFG         =   -28.25061   *10**21  V / m**2
                               V20  TOT/SRF=     9.07275     0.01470
                               V22  TOT/SRF=   -18.95915    -0.08351
                               V22M TOT/SRF=    13.04315     0.06831
                               V21  TOT/SRF=     0.00000     0.00000
                               V21M TOT/SRF=     0.00000     0.00000

            -24.19731   13.04315    0.00000      -28.25061    0.00000    0.00000
             13.04315   13.72100    0.00000        0.00000   17.77430    0.00000
              0.00000    0.00000   10.47631        0.00000    0.00000   10.47631

         MAIN DIRECTIONS OF THE EFG   1.0000  0.3108  0.0000
                                     -0.3108  1.0000  0.0000
                                      0.0000  0.0000  1.0000
:ANG002:  ANGLE WITH OLD X-AXIS =        17.3

:ETA002:                         ASYMM. ETA =     0.25833


       ATOMNUMBER=  3 Pu  0+     VCOUL-ZERO =  0.65758E+00
:EFG003:                        EFG         =   -16.28379   *10**21  V / m**2
                               V20  TOT/SRF=     1.87309    -0.00123
                               V22  TOT/SRF=    -4.38674    -0.00043
                               V22M TOT/SRF=   -14.55570    -0.00701
                               V21  TOT/SRF=     0.00000     0.00000
                               V21M TOT/SRF=     0.00000     0.00000

             -5.46817  -14.55570    0.00000      -16.28379    0.00000    0.00000
            -14.55570    3.30531    0.00000        0.00000   14.12093    0.00000
              0.00000    0.00000    2.16286        0.00000    0.00000    2.16286

         MAIN DIRECTIONS OF THE EFG   1.0000 -0.7431  0.0000
                                      0.7431  1.0000  0.0000
                                      0.0000  0.0000  1.0000
:ANG003:  ANGLE WITH OLD X-AXIS =        36.6

:ETA003:                         ASYMM. ETA =     0.73435


       ATOMNUMBER=  4 Pu  0+     VCOUL-ZERO =  0.65829E+00
:EFG004:                        EFG         =   -15.45558   *10**21  V / m**2
                               V20  TOT/SRF=     1.11153    -0.01367
                               V22  TOT/SRF=    -1.84118     0.01422
                               V22M TOT/SRF=    14.69898     0.02571
                               V21  TOT/SRF=     0.00000     0.00000
                               V21M TOT/SRF=     0.00000     0.00000

             -2.48292   14.69898    0.00000      -15.45558    0.00000    0.00000
             14.69898    1.19944    0.00000        0.00000   14.17210    0.00000
              0.00000    0.00000    1.28348        0.00000    0.00000    1.28348

         MAIN DIRECTIONS OF THE EFG   1.0000  0.8826  0.0000
                                     -0.8826  1.0000  0.0000
                                      0.0000  0.0000  1.0000
:ANG004:  ANGLE WITH OLD X-AXIS =        41.4

:ETA004:                         ASYMM. ETA =     0.83391


       ATOMNUMBER=  5 Pu  0+     VCOUL-ZERO =  0.66166E+00
:EFG005:                        EFG         =   -41.86364   *10**21  V / m**2
                               V20  TOT/SRF=    12.09688     0.01589
                               V22  TOT/SRF=   -34.56114    -0.10901
                               V22M TOT/SRF=     4.70185     0.04143
                               V21  TOT/SRF=     0.00000     0.00000
                               V21M TOT/SRF=     0.00000     0.00000

            -41.54527    4.70185    0.00000      -41.86364    0.00000    0.00000
              4.70185   27.57700    0.00000        0.00000   27.89536    0.00000
              0.00000    0.00000   13.96828        0.00000    0.00000   13.96828

         MAIN DIRECTIONS OF THE EFG   1.0000  0.0677  0.0000
                                     -0.0677  1.0000  0.0000
                                      0.0000  0.0000  1.0000
:ANG005:  ANGLE WITH OLD X-AXIS =         3.9

:ETA005:                         ASYMM. ETA =     0.33268


       ATOMNUMBER=  6 Pu  0+     VCOUL-ZERO =  0.66135E+00
:EFG006:                        EFG         =   -17.26390   *10**21  V / m**2
                               V20  TOT/SRF=    10.00447    -0.00009
                               V22  TOT/SRF=    -6.42623    -0.00731
                               V22M TOT/SRF=    -9.52227    -0.05456
                               V21  TOT/SRF=     0.00000     0.00000
                               V21M TOT/SRF=     0.00000     0.00000

            -12.20231   -9.52227    0.00000      -17.26390    0.00000    0.00000
             -9.52227    0.65014    0.00000        0.00000    5.71173    0.00000
              0.00000    0.00000   11.55217        0.00000    0.00000   11.55217

         MAIN DIRECTIONS OF THE EFG   1.0000 -0.5316  0.0000
                                      0.5316  1.0000  0.0000
                                      0.0000  0.0000  1.0000
:ANG006:  ANGLE WITH OLD X-AXIS =        28.0

:ETA006:                         ASYMM. ETA =     0.33830


       ATOMNUMBER=  7 Pu  0+     VCOUL-ZERO =  0.65631E+00
:EFG007:                        EFG         =   -20.36727   *10**21  V / m**2
                               V20  TOT/SRF=    10.72206    -0.00005
                               V22  TOT/SRF=     8.95585     0.08292
                               V22M TOT/SRF=    10.98985     0.01592
                               V21  TOT/SRF=     0.00000     0.00000
                               V21M TOT/SRF=     0.00000     0.00000

              2.76546   10.98985    0.00000        7.98649    0.00000    0.00000
             10.98985  -15.14623    0.00000        0.00000  -20.36727    0.00000
              0.00000    0.00000   12.38077        0.00000    0.00000   12.38077

         MAIN DIRECTIONS OF THE EFG   1.0000 -0.4751  0.0000
                                      0.4751  1.0000  0.0000
                                      0.0000  0.0000  1.0000
:ANG007:  ANGLE WITH OLD X-AXIS =        25.4

:ETA007:                         ASYMM. ETA =     0.21575


       ATOMNUMBER=  8 Pu  0+     VCOUL-ZERO =  0.66476E+00
:EFG008:                        EFG         =   -44.53896   *10**21  V / m**2
                               V20  TOT/SRF=    12.61416     0.03716
                               V22  TOT/SRF=   -36.78154    -0.04306
                               V22M TOT/SRF=     5.92796    -0.00313
                               V21  TOT/SRF=     0.00000     0.00000
                               V21M TOT/SRF=     0.00000     0.00000

            -44.06433    5.92796    0.00000      -44.53896    0.00000    0.00000
              5.92796   29.49876    0.00000        0.00000   29.97339    0.00000
              0.00000    0.00000   14.56557        0.00000    0.00000   14.56557

         MAIN DIRECTIONS OF THE EFG   1.0000  0.0801  0.0000
                                     -0.0801  1.0000  0.0000
                                      0.0000  0.0000  1.0000
:ANG008:  ANGLE WITH OLD X-AXIS =         4.6

:ETA008:                         ASYMM. ETA =     0.34594


     HELLMANN-FEYNMAN-FORCE IN mRy/a.u. = |F|  Fx       Fy             Fz
:FHF001:   1.ATOM       3189.748       3064.451        885.229          0.000

     HELLMANN-FEYNMAN-FORCE IN mRy/a.u. = |F|  Fx       Fy             Fz
:FHF002:   2.ATOM       1571.032       -301.869       1541.757          0.000

     HELLMANN-FEYNMAN-FORCE IN mRy/a.u. = |F|  Fx       Fy             Fz
:FHF003:   3.ATOM       5872.576       4441.591       3841.799          0.000

     HELLMANN-FEYNMAN-FORCE IN mRy/a.u. = |F|  Fx       Fy             Fz
:FHF004:   4.ATOM       3261.196      -3212.088       -563.820          0.000

     HELLMANN-FEYNMAN-FORCE IN mRy/a.u. = |F|  Fx       Fy             Fz
:FHF005:   5.ATOM       1988.747       1074.056       1673.774          0.000

     HELLMANN-FEYNMAN-FORCE IN mRy/a.u. = |F|  Fx       Fy             Fz
:FHF006:   6.ATOM       5542.488       4488.173       3251.996          0.000

     HELLMANN-FEYNMAN-FORCE IN mRy/a.u. = |F|  Fx       Fy             Fz
:FHF007:   7.ATOM       5512.557      -3788.281       4004.649          0.000

     HELLMANN-FEYNMAN-FORCE IN mRy/a.u. = |F|  Fx       Fy             Fz
:FHF008:   8.ATOM       1232.865       1142.270        463.870          0.000

:FIT001: LUSE= 13 SIGMA OF V-XC FIT FOR ATOM  1  0.4294524E-03
:FIT001: LUSE= 13 SIGMA OF V-XC FIT FOR ATOM  1  0.4294524E-03
:FIT002: LUSE= 13 SIGMA OF V-XC FIT FOR ATOM  2  0.2165982E-03
:FIT002: LUSE= 13 SIGMA OF V-XC FIT FOR ATOM  2  0.2165982E-03
:FIT003: LUSE= 13 SIGMA OF V-XC FIT FOR ATOM  3  0.2339349E-03
:FIT003: LUSE= 13 SIGMA OF V-XC FIT FOR ATOM  3  0.2339349E-03
:FIT004: LUSE= 13 SIGMA OF V-XC FIT FOR ATOM  4  0.2442038E-03
:FIT004: LUSE= 13 SIGMA OF V-XC FIT FOR ATOM  4  0.2442038E-03
:FIT005: LUSE= 13 SIGMA OF V-XC FIT FOR ATOM  5  0.1910537E-03
:FIT005: LUSE= 13 SIGMA OF V-XC FIT FOR ATOM  5  0.1910537E-03
:FIT006: LUSE= 13 SIGMA OF V-XC FIT FOR ATOM  6  0.1500152E-03
:FIT006: LUSE= 13 SIGMA OF V-XC FIT FOR ATOM  6  0.1500152E-03
:FIT007: LUSE= 13 SIGMA OF V-XC FIT FOR ATOM  7  0.4286543E-03
:FIT007: LUSE= 13 SIGMA OF V-XC FIT FOR ATOM  7  0.4286543E-03
:FIT008: LUSE= 13 SIGMA OF V-XC FIT FOR ATOM  8  0.1060271E-03
:FIT008: LUSE= 13 SIGMA OF V-XC FIT FOR ATOM  8  0.1060271E-03
:DEN  : DENSITY INTEGRAL  =       -350671.82287899   (Ry)
       ELS_POTENTIAL_AT Z=0 and Z=0.5:   0.99871   0.47963
       ELS_POTENTIAL_AT Y=0 and Y=0.5:   1.25539   1.25539
:VZERO:v0,v0c,v0x   0.13116   0.99871  -0.86755 v5,v5c,v5x  -0.44374   0.47963  -0.92337
:VZERY:v0,v0c,v0x   0.43131   1.25539  -0.82408 v5,v5c,v5x   0.43131   1.25539  -0.82408
:VZERX:v0,v0c,v0x  -0.80909   0.15441  -0.96350 v5,v5c,v5x  -0.71097   0.24298  -0.95395

------- alpha_Pu_3.scf1 --------

          ATOMIC SPHERE DEPENDENT PARAMETERS FOR ATOM  Pu  0+    
:e__0001: OVERALL ENERGY PARAMETER IS    1.2784
          OVERALL BASIS SET ON ATOM IS LAPW
:E0_0001: E( 0)=    1.2784
             APW+lo
:E0_0001: E( 0)=   -1.9325   E(BOTTOM)=   -2.707   E(TOP)=   -1.158
             LOCAL ORBITAL
:E1_0001: E( 1)=   -1.0120   E(BOTTOM)=   -1.012   E(TOP)= -200.000
             APW+lo
:E1_0001: E( 1)=    1.2784
             LOCAL ORBITAL
:E3_0001: E( 3)=    1.2784   E(BOTTOM)=    1.028   E(TOP)= -200.000
             APW+lo
:E2_0001: E( 2)=    1.2784   E(BOTTOM)=    1.188   E(TOP)= -200.000
             APW+lo

          ATOMIC SPHERE DEPENDENT PARAMETERS FOR ATOM  Pu  0+    
:e__0002: OVERALL ENERGY PARAMETER IS    1.2784
          OVERALL BASIS SET ON ATOM IS LAPW
:E0_0002: E( 0)=    1.2784
             APW+lo
:E0_0002: E( 0)=   -1.9315   E(BOTTOM)=   -2.704   E(TOP)=   -1.159
             LOCAL ORBITAL
:E1_0002: E( 1)=   -1.0060   E(BOTTOM)=   -1.006   E(TOP)= -200.000
             APW+lo
:E1_0002: E( 1)=    1.2784
             LOCAL ORBITAL
:E3_0002: E( 3)=    1.2784   E(BOTTOM)=    1.033   E(TOP)= -200.000
             APW+lo
:E2_0002: E( 2)=    1.2784   E(BOTTOM)=    1.198   E(TOP)= -200.000
             APW+lo

          ATOMIC SPHERE DEPENDENT PARAMETERS FOR ATOM  Pu  0+    
:e__0003: OVERALL ENERGY PARAMETER IS    1.2784
          OVERALL BASIS SET ON ATOM IS LAPW
:E0_0003: E( 0)=    1.2784
             APW+lo
:E0_0003: E( 0)=   -1.9295   E(BOTTOM)=   -2.702   E(TOP)=   -1.157
             LOCAL ORBITAL
:E1_0003: E( 1)=   -1.0040   E(BOTTOM)=   -1.004   E(TOP)= -200.000
             APW+lo
[...]

                      QXX         QXY         QYY         QZZ       UP TO R

:VZZ004:            -2.46962    14.24128     1.33071     1.13891       2.150

:CHA005: TOTAL CHARGE INSIDE SPHERE   5 =    11.753756
:PCS005: PARTIAL CHARGES SPHERE =  5 S,P,D,F,PX,PY,PZ,D-Z2,D-X2Y2,D-XY,D-XZ,D-YZ 
:QTL005: 1.9484 4.5867 0.6888 4.5229 2.5783 2.7060 2.6593 0.1425 0.1388 0.1401 0.1352 0.1613
        Q-s-low E-s-low   Q-p-low E-p-low   Q-d-low E-d-low   Q-f-low E-f-low
:EPL005:  1.8809 -1.8657    4.4629  0.0470    0.0350  0.1566    0.0173  0.1779
        Q-s-hi  E-s-hi    Q-p-hi  E-p-hi    Q-d-hi  E-d-hi    Q-f-hi  E-f-hi 
:EPH005:  0.0675  1.3242    0.1238  1.3658    0.6538  1.3526    4.5056  1.4465

                      QXX         QXY         QYY         QZZ       UP TO R

:VZZ005:           -40.24825     4.40251    26.55637    13.69187       2.150

:CHA006: TOTAL CHARGE INSIDE SPHERE   6 =    11.734417
:PCS006: PARTIAL CHARGES SPHERE =  6 S,P,D,F,PX,PY,PZ,D-Z2,D-X2Y2,D-XY,D-XZ,D-YZ 
:QTL006: 1.9503 4.5761 0.6687 4.5330 2.6454 2.6396 2.6608 0.1334 0.1316 0.1455 0.1400 0.1457
        Q-s-low E-s-low   Q-p-low E-p-low   Q-d-low E-d-low   Q-f-low E-f-low
:EPL006:  1.8800 -1.8667    4.4655  0.0476    0.0324  0.1644    0.0157  0.1922
        Q-s-hi  E-s-hi    Q-p-hi  E-p-hi    Q-d-hi  E-d-hi    Q-f-hi  E-f-hi 
:EPH006:  0.0703  1.3147    0.1105  1.3648    0.6363  1.3530    4.5173  1.4446

                      QXX         QXY         QYY         QZZ       UP TO R

:VZZ006:           -12.42765    -9.27549     0.72680    11.70085       2.150

:CHA007: TOTAL CHARGE INSIDE SPHERE   7 =    11.788042
:PCS007: PARTIAL CHARGES SPHERE =  7 S,P,D,F,PX,PY,PZ,D-Z2,D-X2Y2,D-XY,D-XZ,D-YZ 
:QTL007: 1.9456 4.5822 0.7033 4.5487 2.7060 2.6054 2.6444 0.1466 0.1305 0.1537 0.1660 0.1390
        Q-s-low E-s-low   Q-p-low E-p-low   Q-d-low E-d-low   Q-f-low E-f-low
:EPL007:  1.8823 -1.8628    4.4644  0.0469    0.0412  0.1472    0.0208  0.1682
        Q-s-hi  E-s-hi    Q-p-hi  E-p-hi    Q-d-hi  E-d-hi    Q-f-hi  E-f-hi 
:EPH007:  0.0633  1.3194    0.1177  1.3603    0.6622  1.3511    4.5279  1.4392

                      QXX         QXY         QYY         QZZ       UP TO R

:VZZ007:             2.16778    11.13280   -14.17938    12.01161       2.150

:CHA008: TOTAL CHARGE INSIDE SPHERE   8 =    11.644427
:PCS008: PARTIAL CHARGES SPHERE =  8 S,P,D,F,PX,PY,PZ,D-Z2,D-X2Y2,D-XY,D-XZ,D-YZ 
:QTL008: 1.9515 4.6101 0.5714 4.5073 2.6281 2.7072 2.7169 0.1276 0.1046 0.1124 0.1142 0.1315
        Q-s-low E-s-low   Q-p-low E-p-low   Q-d-low E-d-low   Q-f-low E-f-low
:EPL008:  1.8774 -1.8686    4.4696  0.0524    0.0192  0.1758    0.0091  0.1930
        Q-s-hi  E-s-hi    Q-p-hi  E-p-hi    Q-d-hi  E-d-hi    Q-f-hi  E-f-hi 
:EPH008:  0.0741  1.3141    0.1404  1.3586    0.5523  1.3536    4.4982  1.4369

                      QXX         QXY         QYY         QZZ       UP TO R

:VZZ008:           -43.56035     6.13208    29.07588    14.48448       2.150

:CHA  : TOTAL CHARGE INSIDE UNIT CELL =     256.000000

:ESUM  : SUM OF EIGENVALUES =         126.809516643


------- alpha_Pu_3.scfc --------

        1.ATOM      Pu  0+               21 CORE STATES
       CORE-FORCE in mRy/a.u. = |F|      Fx             Fy             Fz
:FCO001:   1.ATOM       3031.649      -2906.409       -862.370          0.000

:1S 001: 1S               -8966.250623229 Ry
:2S 001: 2S               -1686.923358263 Ry
:2PP001: 2P*              -1627.616728748 Ry
:2P 001: 2P               -1314.465527157 Ry
:3S 001: 3S                -427.467121408 Ry
:3PP001: 3P*               -400.542619020 Ry
:3P 001: 3P                -327.981412451 Ry
:3DD001: 3D*               -285.741076748 Ry
:3D 001: 3D                -271.198929692 Ry
:4S 001: 4S                -108.947539931 Ry
:4PP001: 4P*                -96.759702121 Ry
:4P 001: 4P                 -77.614176369 Ry
:4DD001: 4D*                -58.326768902 Ry
:4D 001: 4D                 -54.832150772 Ry
:5S 001: 5S                 -23.101466905 Ry
:5PP001: 5P*                -18.283377769 Ry
:5P 001: 5P                 -13.593782630 Ry
:4FF001: 4F*                -29.432416761 Ry
:4F 001: 4F                 -28.504321724 Ry
:5DD001: 5D*                 -6.557703603 Ry
:5D 001: 5D                  -5.858469239 Ry

        2.ATOM      Pu  0+               21 CORE STATES
       CORE-FORCE in mRy/a.u. = |F|      Fx             Fy             Fz
:FCO002:   2.ATOM       1513.042        214.684      -1497.733          0.000

:1S 002: 1S               -8966.253220685 Ry
:2S 002: 2S               -1686.926874562 Ry
:2PP002: 2P*              -1627.620167611 Ry
:2P 002: 2P               -1314.469051311 Ry
:3S 002: 3S                -427.470019642 Ry
:3PP002: 3P*               -400.545543882 Ry
:3P 002: 3P                -327.984305553 Ry
:3DD002: 3D*               -285.744118654 Ry
:3D 002: 3D                -271.201942843 Ry
:4S 002: 4S                -108.950693187 Ry
:4PP002: 4P*                -96.762855438 Ry
:4P 002: 4P                 -77.617401523 Ry
:4DD002: 4D*                -58.330009432 Ry
:4D 002: 4D                 -54.835410186 Ry
:5S 002: 5S                 -23.105271447 Ry
:5PP002: 5P*                -18.287241962 Ry
:5P 002: 5P                 -13.597839145 Ry
:4FF002: 4F*                -29.435575909 Ry
:4F 002: 4F                 -28.507491910 Ry
:5DD002: 5D*                 -6.561906903 Ry
:5D 002: 5D                  -5.862704634 Ry

        3.ATOM      Pu  0+               21 CORE STATES
       CORE-FORCE in mRy/a.u. = |F|      Fx             Fy             Fz
:FCO003:   3.ATOM       5720.482      -4332.512      -3735.406          0.000

:1S 003: 1S               -8966.249368563 Ry
:2S 003: 2S               -1686.922596980 Ry
:2PP003: 2P*              -1627.615969955 Ry
:2P 003: 2P               -1314.464776215 Ry
:3S 003: 3S                -427.465578866 Ry
:3PP003: 3P*               -400.541115907 Ry
:3P 003: 3P                -327.979863857 Ry
:3DD003: 3D*               -285.739669605 Ry
:3D 003: 3D                -271.197489177 Ry
:4S 003: 4S                -108.946278500 Ry
:4PP003: 4P*                -96.758441585 Ry
:4P 003: 4P                 -77.612993110 Ry
:4DD003: 4D*                -58.325594110 Ry
:4D 003: 4D                 -54.830995704 Ry
:5S 003: 5S                 -23.100883298 Ry
:5PP003: 5P*                -18.282871572 Ry
:5P 003: 5P                 -13.593529795 Ry
:4FF003: 4F*                -29.431145220 Ry
:4F 003: 4F                 -28.503062209 Ry
:5DD003: 5D*                 -6.557698368 Ry
:5D 003: 5D                  -5.858532624 Ry

        4.ATOM      Pu  0+               21 CORE STATES
       CORE-FORCE in mRy/a.u. = |F|      Fx             Fy             Fz
:FCO004:   4.ATOM       3181.556       3137.075        530.149          0.000

:1S 004: 1S               -8966.250954862 Ry
:2S 004: 2S               -1686.924839447 Ry
:2PP004: 2P*              -1627.618097305 Ry
:2P 004: 2P               -1314.467019103 Ry
:3S 004: 3S                -427.468076352 Ry
:3PP004: 3P*               -400.543592987 Ry
:3P 004: 3P                -327.982367196 Ry
:3DD004: 3D*               -285.742177715 Ry
:3D 004: 3D                -271.200005399 Ry
:4S 004: 4S                -108.948810415 Ry
:4PP004: 4P*                -96.760971727 Ry
:4P 004: 4P                 -77.615533129 Ry
:4DD004: 4D*                -58.328142678 Ry
:4D 004: 4D                 -54.833548358 Ry
:5S 004: 5S                 -23.103569209 Ry
:5PP004: 5P*                -18.285553428 Ry
:5P 004: 5P                 -13.596196983 Ry
:4FF004: 4F*                -29.433714084 Ry
:4F 004: 4F                 -28.505632303 Ry
:5DD004: 5D*                 -6.560316067 Ry
:5D 004: 5D                  -5.861130315 Ry

        5.ATOM      Pu  0+               21 CORE STATES
       CORE-FORCE in mRy/a.u. = |F|      Fx             Fy             Fz
:FCO005:   5.ATOM       1942.731       -994.069      -1669.140          0.000

:1S 005: 1S               -8966.252300509 Ry
:2S 005: 2S               -1686.926361212 Ry
:2PP005: 2P*              -1627.619565319 Ry
:2P 005: 2P               -1314.468537672 Ry
:3S 005: 3S                -427.469897257 Ry
:3PP005: 3P*               -400.545395368 Ry
:3P 005: 3P                -327.984191458 Ry
:3DD005: 3D*               -285.743971461 Ry
:3D 005: 3D                -271.201810558 Ry
:4S 005: 4S                -108.950563296 Ry
:4PP005: 4P*                -96.762723750 Ry
:4P 005: 4P                 -77.617266030 Ry
:4DD005: 4D*                -58.329878071 Ry
:4D 005: 4D                 -54.835279378 Ry
:5S 005: 5S                 -23.105160042 Ry
:5PP005: 5P*                -18.287107816 Ry
:5P 005: 5P                 -13.597624293 Ry
:4FF005: 4F*                -29.435482349 Ry
:4F 005: 4F                 -28.507397507 Ry
:5DD005: 5D*                 -6.561541985 Ry
:5D 005: 5D                  -5.862286993 Ry

        6.ATOM      Pu  0+               21 CORE STATES
       CORE-FORCE in mRy/a.u. = |F|      Fx             Fy             Fz
:FCO006:   6.ATOM       5387.965      -4372.217      -3148.633          0.000

:1S 006: 1S               -8966.251006702 Ry
:2S 006: 2S               -1686.924455829 Ry
:2PP006: 2P*              -1627.617836284 Ry
:2P 006: 2P               -1314.466641918 Ry
:3S 006: 3S                -427.467051924 Ry
:3PP006: 3P*               -400.542609493 Ry
:3P 006: 3P                -327.981333078 Ry
:3DD006: 3D*               -285.741207886 Ry
:3D 006: 3D                -271.199010784 Ry
:4S 006: 4S                -108.947860897 Ry
:4PP006: 4P*                -96.760024864 Ry
:4P 006: 4P                 -77.614607447 Ry
:4DD006: 4D*                -58.327212863 Ry
:4D 006: 4D                 -54.832622123 Ry
:5S 006: 5S                 -23.102724678 Ry
:5PP006: 5P*                -18.284741531 Ry
:5P 006: 5P                 -13.595490826 Ry
:4FF006: 4F*                -29.432718089 Ry
:4F 006: 4F                 -28.504639954 Ry
:5DD006: 5D*                 -6.559730112 Ry
:5D 006: 5D                  -5.860580204 Ry

        7.ATOM      Pu  0+               21 CORE STATES
       CORE-FORCE in mRy/a.u. = |F|      Fx             Fy             Fz
:FCO007:   7.ATOM       5358.249       3595.692      -3972.635          0.000

:1S 007: 1S               -8966.249051106 Ry
:2S 007: 2S               -1686.922617707 Ry
:2PP007: 2P*              -1627.615911458 Ry
:2P 007: 2P               -1314.464792105 Ry
:3S 007: 3S                -427.465884723 Ry
:3PP007: 3P*               -400.541401236 Ry
:3P 007: 3P                -327.980175169 Ry
:3DD007: 3D*               -285.739961123 Ry
:3D 007: 3D                -271.197791473 Ry
:4S 007: 4S                -108.946595593 Ry
:4PP007: 4P*                -96.758756834 Ry
:4P 007: 4P                 -77.613310023 Ry
:4DD007: 4D*                -58.325914498 Ry
:4D 007: 4D                 -54.831317776 Ry
:5S 007: 5S                 -23.101268407 Ry
:5PP007: 5P*                -18.283251368 Ry
:5P 007: 5P                 -13.593893701 Ry
:4FF007: 4F*                -29.431491623 Ry
:4F 007: 4F                 -28.503408639 Ry
:5DD007: 5D*                 -6.558043217 Ry
:5D 007: 5D                  -5.858872092 Ry

        8.ATOM      Pu  0+               21 CORE STATES
       CORE-FORCE in mRy/a.u. = |F|      Fx             Fy             Fz
:FCO008:   8.ATOM       1188.113      -1114.811       -410.862          0.000

:1S 008: 1S               -8966.243274298 Ry
:2S 008: 2S               -1686.917417941 Ry
:2PP008: 2P*              -1627.610774788 Ry
:2P 008: 2P               -1314.459601972 Ry
:3S 008: 3S                -427.458910626 Ry
:3PP008: 3P*               -400.534516475 Ry
:3P 008: 3P                -327.973189321 Ry
:3DD008: 3D*               -285.733258642 Ry
:3D 008: 3D                -271.191016714 Ry
:4S 008: 4S                -108.940331893 Ry
:4PP008: 4P*                -96.752493828 Ry
:4P 008: 4P                 -77.607235364 Ry
:4DD008: 4D*                -58.319848486 Ry
:4D 008: 4D                 -54.825300133 Ry
:5S 008: 5S                 -23.096675106 Ry
:5PP008: 5P*                -18.278867692 Ry
:5P 008: 5P                 -13.590210620 Ry
:4FF008: 4F*                -29.425204149 Ry
:4F 008: 4F                 -28.497150523 Ry
:5DD008: 5D*                 -6.555167982 Ry
:5D 008: 5D                  -5.856246282 Ry

------- alpha_Pu_3.scfm --------

       DENSITY AT NUCLEUS
        JATOM    VALENCE       SEMI-CORE            CORE           TOTAL
:RTO001:   1    23300.132863        0.000000 45141831.226130 45165131.358993
:RTO002:   2    23445.612392        0.000000 45141824.035796 45165269.648188
:RTO003:   3    23433.802600        0.000000 45141825.302383 45165259.104983
:RTO004:   4    23495.495629        0.000000 45141821.499662 45165316.995291
:RTO005:   5    23481.320464        0.000000 45141822.067654 45165303.388118
:RTO006:   6    23514.787858        0.000000 45141823.043051 45165337.830910
:RTO007:   7    23417.820377        0.000000 45141823.321509 45165241.141885
:RTO008:   8    23540.615024        0.000000 45141810.920315 45165351.535339
     
       CHARGES OF NEW CHARGE DENSITY
:NTO  : TOTAL   INTERSTITIAL CHARGE=   67.7975118
:NTO001: TOTAL   CHARGE IN SPHERE  1 =       89.8628686
:NTO002: TOTAL   CHARGE IN SPHERE  2 =       89.7558433
:NTO003: TOTAL   CHARGE IN SPHERE  3 =       89.7727084
:NTO004: TOTAL   CHARGE IN SPHERE  4 =       89.7518012
:NTO005: TOTAL   CHARGE IN SPHERE  5 =       89.7444616
:NTO006: TOTAL   CHARGE IN SPHERE  6 =       89.7251169
:NTO007: TOTAL   CHARGE IN SPHERE  7 =       89.7787156
:NTO008: TOTAL   CHARGE IN SPHERE  8 =       89.6351370

:NEC01: NUCLEAR AND ELECTRONIC CHARGE   1504.00000  1503.85082     1.00010
     
       CHARGES OF OLD CHARGE DENSITY
:OTO  : TOTAL   INTERSTITIAL CHARGE=   67.9514241
:OTO001: TOTAL   CHARGE IN SPHERE  1 =       89.8620420
:OTO002: TOTAL   CHARGE IN SPHERE  2 =       89.7555693
:OTO003: TOTAL   CHARGE IN SPHERE  3 =       89.7723111
:OTO004: TOTAL   CHARGE IN SPHERE  4 =       89.7515413
:OTO005: TOTAL   CHARGE IN SPHERE  5 =       89.7443124
:OTO006: TOTAL   CHARGE IN SPHERE  6 =       89.7248260
:OTO007: TOTAL   CHARGE IN SPHERE  7 =       89.7784631
:OTO008: TOTAL   CHARGE IN SPHERE  8 =       89.6352228

:NEC02: NUCLEAR AND ELECTRONIC CHARGE   1504.00000  1504.00000     1.00000
     
       CONVERGENCE TEST
:DTO001: TOTAL   DIFFERENCE CHARGE**2 IN SPHERE  1 =  0.0007459
:DTO002: TOTAL   DIFFERENCE CHARGE**2 IN SPHERE  2 =  0.0003043
:DTO003: TOTAL   DIFFERENCE CHARGE**2 IN SPHERE  3 =  0.0004005
:DTO004: TOTAL   DIFFERENCE CHARGE**2 IN SPHERE  4 =  0.0002965
:DTO005: TOTAL   DIFFERENCE CHARGE**2 IN SPHERE  5 =  0.0002176
:DTO006: TOTAL   DIFFERENCE CHARGE**2 IN SPHERE  6 =  0.0003320
:DTO007: TOTAL   DIFFERENCE CHARGE**2 IN SPHERE  7 =  0.0002870
:DTO008: TOTAL   DIFFERENCE CHARGE**2 IN SPHERE  8 =  0.0001270

:DIS  :  CHARGE DISTANCE       ( 0.0007459 for atom    1 spin 1)      0.0003388
:BIG check (qbig,qrms,qtot)    0.249D-03   0.268D-03   0.339D-03
 
******************************************************
* MULTISECANT MIXING VER4 OPTIONS                    *
* Unpredicted Step Limit   0.100000                  *
* Plane Wave Dynamic Rescaling                       *
* Dynamic Regularization active                      *
* Upper Cutoff Lambda  1.0E-01 Lower 3.5E-04         *
* SQRT Multiplicity/Degeneracy                       *
* Max Number of Memory Steps    8                    *
******************************************************
 
:PLANE:  INTERSTITIAL TOTAL      7.66093 DISTAN  1.972E-03 % 
:CHARG:  CLM CHARGE   /ATOM    356.61390 DISTAN  1.190E-04 % 
:INFO :  Dynamic rescale   1.963E+01  1.000E-01
:INFO :  Number of Memory Steps    8 Skipping   14
:INFO :  Singular value   1.011E+01 Weight   1.000E+00 Projections  -5.809E-03 -1.802E-03
:INFO :  Singular value   2.468E+00 Weight   1.000E+00 Projections  -4.998E-05  6.239E-05
:INFO :  Singular value   7.592E-02 Weight   1.000E+00 Projections   6.663E-03  1.300E-03
:INFO :  Singular value   4.576E-02 Weight   9.999E-01 Projections  -3.939E-03  5.378E-04
:INFO :  Singular value   5.506E-03 Weight   9.960E-01 Projections  -1.241E-03 -4.315E-03
:INFO :  Singular value   1.300E-03 Weight   9.324E-01 Projections  -2.258E-03 -7.325E-03
:INFO :  Singular value   1.012E-03 Weight   8.931E-01 Projections   3.377E-03  9.212E-03
:INFO :  Singular value   4.072E-04 Weight   5.751E-01 Projections   7.704E-03  2.949E-03
:INFO :  Bounds         0.521D-01  0.200D+00  0.927D+00  0.521D-01
:DIRM :  MEMORY 8/8 RESCALE  19.63 RED 2.093 PRED 0.285 NEXT 0.108 COND 8.24E-01
:DIRP :  |BROYD|= 2.015E-04 |PRATT|= 1.545E-04 ANGLE= 111.2 DEGREES
:DIRB :  |BROYD|= 2.162E-04 |PRATT|= 2.347E-04 ANGLE= 108.0 DEGREES
:MIX  :  MSR1   REGULARIZATION: 3.50E-04  GREED: 0.052
     
       CHARGES OF MIXED CHARGE DENSITY
:CTO  : TOTAL   INTERSTITIAL CHARGE=   67.9514680
:CTO001: TOTAL   CHARGE IN SPHERE  1 =       89.8620311
:CTO002: TOTAL   CHARGE IN SPHERE  2 =       89.7555661
:CTO003: TOTAL   CHARGE IN SPHERE  3 =       89.7723097
:CTO004: TOTAL   CHARGE IN SPHERE  4 =       89.7515383
:CTO005: TOTAL   CHARGE IN SPHERE  5 =       89.7443116
:CTO006: TOTAL   CHARGE IN SPHERE  6 =       89.7248268
:CTO007: TOTAL   CHARGE IN SPHERE  7 =       89.7784584
:CTO008: TOTAL   CHARGE IN SPHERE  8 =       89.6352241

:NEC03: NUCLEAR AND ELECTRONIC CHARGE   1504.00000  1504.00000     1.00000


:ENE  : ********** TOTAL ENERGY IN Ry =      -949675.78512762

       TOTAL FORCE IN mRy/a.u. = |F|     Fx             Fy             Fz     with/without FOR in case.in2
:FOR001:   1.ATOM        107.226        105.971        -16.355          0.000 partial forces
:FOR002:   2.ATOM         81.666        -80.074         16.044          0.000 partial forces
:FOR003:   3.ATOM         51.782         40.485         32.286          0.000 partial forces
:FOR004:   4.ATOM         61.050        -45.573        -40.623          0.000 partial forces
:FOR005:   5.ATOM         40.262         35.745        -18.530          0.000 partial forces
:FOR006:   6.ATOM         36.159         32.858         15.094          0.000 partial forces
:FOR007:   7.ATOM        163.639       -156.861        -46.608          0.000 partial forces
:FOR008:   8.ATOM         61.146         35.936         49.471          0.000 partial forces

       TOTAL FORCE WITH RESPECT TO GLOBAL CARTESIAN COORDINATES:
:FCA001:   1.ATOM                       -16.355          0.000        105.971 partial forces
:FCA002:   2.ATOM                        16.044          0.000        -80.074 partial forces
:FCA003:   3.ATOM                        32.286          0.000         40.485 partial forces
:FCA004:   4.ATOM                       -40.623          0.000        -45.573 partial forces
:FCA005:   5.ATOM                       -18.530          0.000         35.745 partial forces
:FCA006:   6.ATOM                        15.094          0.000         32.858 partial forces
:FCA007:   7.ATOM                       -46.608          0.000       -156.861 partial forces
:FCA008:   8.ATOM                        49.471          0.000         35.936 partial forces

       TOTAL FORCE WITH RESPECT TO THE GLOBAL COORDINATE SYSTEM:
:FGL001:   1.ATOM               -16.707293973     0.000000000   102.558135089 partial forces
:FGL002:   2.ATOM                16.389594895     0.000000000   -76.726032735 partial forces
:FGL003:   3.ATOM                32.981454797     0.000000000    47.222252002 partial forces
:FGL004:   4.ATOM               -41.498037485     0.000000000   -54.049967977 partial forces
:FGL005:   5.ATOM               -18.929144440     0.000000000    31.878268921 partial forces
:FGL006:   6.ATOM                15.419131472     0.000000000    36.007726870 partial forces
:FGL007:   7.ATOM               -47.611957046     0.000000000  -166.586882467 partial forces
:FGL008:   8.ATOM                50.536627339     0.000000000    46.259316416 partial forces
