
------- case.scf0 --------
 Flat Integration
 New Mode for Coulomb Integral
 Consistent 3/8+Simpson combinations
 Extension of core to zero
 LDM version in phi
 Fifth-order quadrature in outwin


            ---------
:ITE041: 41. ITERATION
            ---------

:NATO :    1 INDEPENDENT AND    2 TOTAL ATOMS IN UNITCELL
       SUBSTANCE: aU                                                          

       LATTICE                      = CXY 
:POT  : POTENTIAL OPTION EX_LDA EC_LDA VX_LDA VC_LDA
:LAT  : LATTICE CONSTANTS=  6.76640 13.73073 11.85402    1.571    1.571    1.571
:VOL  : UNIT CELL VOLUME =     550.66398
       MODE OF CALCULATION IS       = RELA
       NON-SPINPOLARIZED CALCULATION
:IFFT  : FFT-parameters:   54  108   96 Factor: 2.00


   CONVERGENCE PARAMETER FOR PSEUDOCHARGE: NCON=  9
   MAXIMAL VALUE OF RMT(JATOM)*ABSK(NKK) : RK  =27.59515


:VKCOUL :  VK-COUL convergence: 0.632E-07
       ATOMNUMBER=  1 Pr1        VCOUL-ZERO = -0.56527E-01
:EFG001:                        EFG         =    -6.69141   *10**21  V / m**2
                               V20  TOT/SRF=    -5.79493    -0.01828
                               V22  TOT/SRF=     0.85241     0.00298
                               V22M TOT/SRF=     0.00000     0.00000
                               V21  TOT/SRF=     0.00000     0.00000
                               V21M TOT/SRF=     0.00000     0.00000

              4.19812    0.00000    0.00000        4.19812    0.00000    0.00000
              0.00000    2.49330    0.00000        0.00000    2.49330    0.00000
              0.00000    0.00000   -6.69141        0.00000    0.00000   -6.69141

         MAIN DIRECTIONS OF THE EFG   1.0000  0.0000  0.0000
                                      0.0000  1.0000  0.0000
                                      0.0000  0.0000  1.0000
:ANG001:  ANGLE WITH OLD X-AXIS =         0.0

:ETA001:                         ASYMM. ETA =     0.25478


     HELLMANN-FEYNMAN-FORCE IN mRy/a.u. = |F|  Fx       Fy             Fz
:FHF001:   1.ATOM    464.454253760843      0.000000000000      0.000000000000   -464.454253760843

:FIT001: LUSE= 13 SIGMA OF V-XC FIT FOR ATOM  1  0.8117147E-05
:FIT001: LUSE= 13 SIGMA OF V-XC FIT FOR ATOM  1  0.8117147E-05
:DEN  : DENSITY INTEGRAL  =        -14135.49314737   (Ry)
       ELS_POTENTIAL_AT Z=0 and Z=0.5:   0.65474   0.65474
       ELS_POTENTIAL_AT Y=0 and Y=0.5:   0.07933   0.07933
:VZERO:v0,v0c,v0x   0.11388   0.65474  -0.54086 v5,v5c,v5x   0.11388   0.65474  -0.54086
:VZERY:v0,v0c,v0x  -0.64450   0.07933  -0.72383 v5,v5c,v5x  -0.64450   0.07933  -0.72383
:VZERX:v0,v0c,v0x  -1.06774  -0.36787  -0.69988 v5,v5c,v5x  -1.06774  -0.36787  -0.69988

------- case.scf1 --------
:LMAX-WF:   10   Non-Spherical LMAX:   4

          ATOMIC SPHERE DEPENDENT PARAMETERS FOR ATOM  Pr1       
:e__0001: OVERALL ENERGY PARAMETER IS    0.3273
          OVERALL BASIS SET ON ATOM IS LAPW
:E0_0001: E( 0)=    0.3273
             APW+lo
:E0_0001: E( 0)=   -2.1622   E(BOTTOM)=   -2.798   E(TOP)=   -1.526  4  5   164
             LOCAL ORBITAL
:E1_0001: E( 1)=    0.7273
             APW+lo
:E1_0001: E( 1)=   -0.6925   E(BOTTOM)=   -1.650   E(TOP)=    0.265  3  4   199
             LOCAL ORBITAL
:E3_0001: E( 3)=    0.4966   E(BOTTOM)=    0.288   E(TOP)=    0.706  0  1   116
             APW+lo
:E2_0001: E( 2)=    0.3273   E(BOTTOM)=    0.091   E(TOP)= -200.000  2 -1    98
             APW+lo

       K=   0.06250   0.00000   0.06250            1
:RKM  : MATRIX SIZE   509LOs:  40  RKM= 8.50  WEIGHT= 4.00  PGR:    
       EIGENVALUES ARE:
:EIG00001:      -2.1268997   -2.1186165   -0.8366291   -0.7848340   -0.7731578
:EIG00006:      -0.7688829   -0.7644291   -0.7641180    0.2915736    0.4363554
:EIG00011:       0.5131967    0.5137787    0.5140285    0.5170543    0.5181949
:EIG00016:       0.5265286    0.5299359    0.5304089    0.5327052    0.5341540
:EIG00021:       0.5377598    0.5402118    0.5409128    0.5434995    0.5852256
:EIG00026:       0.5986086    0.6584404    0.6832017    0.6913512    0.7330822
:EIG00031:       0.7477312    0.8149876    0.8578169    0.8925757    1.1369727
:EIG00036:       1.1893723    1.2773948    1.2811213    1.4218811    1.4732340
:EIG00041:       1.5070528    1.6088022    1.6666594    1.6884396    1.7585455
:EIG00046:       1.8363170    1.8429142    1.8762198    1.9445957    2.0173328
 
:EIG00051:       2.0680989    2.1218492    2.1400262    2.1878910    2.2107534
:EIG00056:       2.2956465    2.3356369    2.3497617    2.4405999    2.4727175
:EIG00061:       2.5338102    2.5675511    2.6822239    2.7692303    2.7831622
:EIG00066:       2.8707894    2.9067485    2.9208158    2.9300665    3.0192191
:EIG00071:       3.0285820    3.0740433    3.0980667    3.1296079    3.1441155
:EIG00076:       3.1846283    3.2247131    3.2557114    3.2844020    3.3047057
:EIG00081:       3.3449302    3.3917918    3.3987637    3.4369095    3.4909684
:EIG00086:       3.5187745    3.5888743    3.5965780    3.6267805    3.6361447
:EIG00091:       3.6705140    3.6864727    3.7350786    3.7389117    3.7425890
:EIG00096:       3.8053780    3.8257990    3.8319278    3.8473705    3.9269989
 
:EIG00101:       3.9754626    4.1033559    4.1066061    4.1616735    4.2001362
:EIG00106:       4.2161918    4.2472221    4.2495569    4.3001824    4.3278714
:EIG00111:       4.3924184    4.4090100    4.4324960    4.4480439    4.4770805
:EIG00116:       4.5394412    4.6096443    4.6470660    4.6475049    4.6753064
:EIG00121:       4.7068038    4.7957859    4.7972890    4.8338035    4.8869165
:EIG00126:       4.9499933    4.9583008    4.9990680    5.0484357    5.0688618
:EIG00131:       5.0929625    5.1382743    5.1734689    5.1895367    5.2038715
:EIG00136:       5.2587772    5.3024199    5.3496144    5.3630336    5.3933494
:EIG00141:       5.4044753    5.4091637    5.4575301    5.5104008    5.5176609
:EIG00146:       5.5395750    5.5612697    5.5656424    5.5681541    5.6663603
 
:EIG00151:       5.6731741    5.7048177    5.7790583    5.8042796    5.8206946
:EIG00156:       5.9309014    6.0059870    6.0225921    6.0651288    6.0805249
:EIG00161:       6.1061805    6.1841692    6.2234573    6.2285890    6.2347685
:EIG00166:       6.3055608    6.3396649    6.3451353    6.3729856    6.3917617
:EIG00171:       6.4110716    6.4750221    6.4925025    6.5117437    6.5662035
:EIG00176:       6.5663364    6.6058753    6.6297306    6.6643065    6.6777090
:EIG00181:       6.7520001    6.7665027    6.7727010    6.7997094    6.8371316
:EIG00186:       6.8405064    6.8537742    6.9323716    6.9415321    6.9486911
:EIG00191:       7.0010068    7.0120726    7.0570418    7.0707731    7.1019865
:EIG00196:       7.1172065    7.1174664    7.1523531    7.1580500    7.2029744
 
:EIG00201:       7.2238791    7.2824549    7.2843809    7.2925398    7.3450328
:EIG00206:       7.3542055    7.3697903    7.4251659    7.4538538    7.4825509
:EIG00211:       7.4866328    7.5323347    7.5359913    7.5530467    7.5660676
:EIG00216:       7.6012868    7.6107629    7.6123495    7.6400908    7.6827680
:EIG00221:       7.7070477    7.7518630    7.7545503    7.7619900    7.7690344
:EIG00226:       7.7800991    7.8171455    7.8224663    7.8609644    7.9202628
:EIG00231:       7.9222181    7.9656410    8.0060412    8.0148571    8.0256667
       ********************************************************

:KPT   :      NUMBER OF K-POINTS:   288

------- case.scfso --------
   0.0   0.0 angle (M,z), angle (M,x) deg
 
        SPIN-ORBIT EIGENVALUES:
     K=   0.06250   0.00000   0.06250            1
      MATRIX SIZE=  470   WEIGHT= 4.00
     EIGENVALUES ARE:
          -2.1268998   -2.1268998   -2.1186165   -2.1186165   -0.9400187
          -0.9400187   -0.9153460   -0.9153460   -0.7506939   -0.7506939
          -0.7056469   -0.7056469   -0.7033219   -0.7033219   -0.6977443
          -0.6977443    0.2915977    0.2915977    0.4362232    0.4362232
           0.5048955    0.5048955    0.5070848    0.5070848    0.5084221
           0.5084221    0.5093611    0.5093611    0.5109711    0.5109711
           0.5132712    0.5132712    0.5316366    0.5316366    0.5372341
           0.5372341    0.5393426    0.5393426    0.5402246    0.5402247

           0.5435782    0.5435783    0.5467513    0.5467513    0.5474814
           0.5474814    0.5503254    0.5503254    0.5856120    0.5856120
           0.5983901    0.5983901    0.6583416    0.6583416    0.6806715
           0.6806715    0.6935331    0.6935331    0.7336184    0.7336184
           0.7477070    0.7477070    0.8147844    0.8147844    0.8581286
           0.8581286    0.8927174    0.8927174    1.1369752    1.1369752
           1.1895655    1.1895655    1.2773537    1.2773537    1.2811606
           1.2811606    1.4213671    1.4213671    1.4725291    1.4725291

           1.5070501    1.5070501    1.6063743    1.6063743    1.6660530
           1.6660530    1.6893517    1.6893517    1.7591538    1.7591538
           1.8346309    1.8346309    1.8410963    1.8410963    1.8785486
           1.8785486    1.9449904    1.9449904    2.0168283    2.0168283
           2.0677606    2.0677606    2.1195754    2.1195754    2.1415970
           2.1415970    2.1894999    2.1894999    2.2115109    2.2115109
           2.2954853    2.2954853    2.3356181    2.3356181    2.3502959
           2.3502959    2.4405114    2.4405114    2.4724642    2.4724642

           2.5370655    2.5370655    2.5677430    2.5677430    2.6821525
           2.6821525    2.7693347    2.7693347    2.7832676    2.7832676
           2.8704500    2.8704500    2.9067331    2.9067331    2.9208825
           2.9208825    2.9302925    2.9302925    3.0193817    3.0193817
           3.0286710    3.0286710    3.0740932    3.0740932    3.0981137
           3.0981137    3.1290305    3.1290305    3.1449797    3.1449797
           3.1847571    3.1847571    3.2258986    3.2258986    3.2557865
           3.2557865    3.2844126    3.2844126    3.3050945    3.3050945

           3.3451436    3.3451436    3.3918067    3.3918067    3.3988373
           3.3988373    3.4370685    3.4370685    3.4909927    3.4909927
           3.5188958    3.5188958    3.5889735    3.5889735    3.5965658
           3.5965658    3.6267623    3.6267623    3.6361927    3.6361927
           3.6705241    3.6705241    3.6865171    3.6865171    3.7345122
           3.7345122    3.7390206    3.7390206    3.7427690    3.7427690
           3.8053592    3.8053592    3.8253083    3.8253083    3.8325858
           3.8325858    3.8474533    3.8474533    3.9270304    3.9270304

           3.9752835    3.9752835    4.1007270    4.1007270    4.1086268
           4.1086268    4.1625271    4.1625271    4.2000129    4.2000129
           4.2163111    4.2163111    4.2470428    4.2470428    4.2507031
           4.2507031    4.3003656    4.3003656    4.3279779    4.3279779
           4.3924527    4.3924527    4.4091907    4.4091907    4.4327830
           4.4327830    4.4481700    4.4481700    4.4771011    4.4771011

       ********************************************************

------- case.scf2 --------
:GMA  : POTENTIAL AND CHARGE CUT-OFF  12.00 Ry**.5




:POS001: at.nr.  -1 position = 0.00000 0.89750 0.25000  multiplicity =  2

       lmmax 16
       lm=   0 0  1 0  2 0  2 2  3 0  3 2  4 0  4 2  4 4  5 0  5 2  5 4  6 0  6 2  6 4  6 6
:FER gutzwiller fermi energy   0.54093
:EORB         -0.237930951
:SUM sum of gutz band energies        -13.039361509

:CHA001: total charge inside sphere   1 =     9.476197
:PCS001: partial charges sphere =  1 s,p,d,f,px,py,pz,d-z2,d-x2y2,d-xy,d-xz,d-yz 
:QTL001: 1.9408 5.0329 0.5008 2.0015 1.6745 1.6757 1.6828 0.0925 0.0939 0.1107 0.0941 0.1096

                      vxx         vyy         vzz       up to r

:VZZ001:             4.23623     2.50050    -6.73674       2.300

:CHA  : total charge inside unit cell =      13.000000

------- case.scfc --------

        1.ATOM      Pr1                  14 CORE STATES
       CORE-FORCE in mRy/a.u. = |F|      Fx             Fy             Fz
:FCO001:   1.ATOM    445.496090216575      0.000000000000      0.000000000000    445.496090216575

:1S 001: 1S               -3067.084261062 Ry
:2S 001: 2S                -492.836252463 Ry
:2PP001: 2P*               -465.935664700 Ry
:2P 001: 2P                -430.538073900 Ry
:3S 001: 3S                -105.923649588 Ry
:3PP001: 3P*                -94.461608186 Ry
:3P 001: 3P                 -87.453701320 Ry
:3DD001: 3D*                -67.381059297 Ry
:3D 001: 3D                 -65.869457973 Ry
:4S 001: 4S                 -20.603944448 Ry
:4PP001: 4P*                -16.311053773 Ry
:4P 001: 4P                 -14.784103242 Ry
:4DD001: 4D*                 -7.717892878 Ry
:4D 001: 4D                  -7.448641826 Ry

------- case.scfm --------
:CINT001 Core Integral Atom   1   45.998485

       DENSITY AT NUCLEUS
        JATOM        VALENCE       SEMI-CORE          CORE           TOTAL
:RTO001:   1      647.858927        0.000000   656824.199333   657472.058260
     
       CHARGES OF NEW CHARGE DENSITY
:NTO   : INTERSTITIAL CHARGE =     7.048109
:NPC   : PW Pseudocharge     =    16.884521
:NTO001: CHARGE SPHERE  1    =    55.474682

:NEC01: NUCLEAR AND ELECTRONIC CHARGE    118.00000   117.99747
     
       CHARGES OF OLD CHARGE DENSITY
:OTO   : INTERSTITIAL CHARGE =     7.042378
:OPC   : PW Pseudocharge     =    16.888076
:OTO001: CHARGE SPHERE  1    =    55.478811

:NEC02: NUCLEAR AND ELECTRONIC CHARGE    118.00000   118.00000
     
       CONVERGENCE TEST
:DTO001: DIFFERENCE IN SPHERE  1 =  0.0065194

:DIS  :  CHARGE DISTANCE       ( 0.0065194 for atom    1 spin 1)      0.0065194
 PW Mixed is          560
 
******************************************************
* MULTISECANT MIXING VER9 RELEASE 10.4.0              *
* Standard Mode with controls                        *
* Fixed density scale                                *
* Restart from converged density                     *
* Regularization       1.000E-04                     *
* Trust Upper Limit    5.000E+00                     *
* Max Number of Memory Steps    8                    *
******************************************************
 
:INFO : Forcing a restart
:PWTMP   4.4873E+02  1.9467E+02  5.5066E+02
:PLANE:  PW TOTAL      4.3355 DISTAN   1.03E-03  2.38E-02 %
:CHARG:  CLM/ATOM   1381.9469 DISTAN   9.41E-03  6.81E-04 %
 
Step History
        DMIX         DMIXT        Red     Pred      Trust     Lambda    MagRel    MagAbs     Beta
  1   3.5000E-02   3.5000E-02 -1.00E+00  1.00E+00 -1.00E+01  1.00E+00  3.50E-02  3.50E-02  1.00E+00
:INFO :  Note, Pratt in use
:TRUST:  Step 2.25E-01  Charge 7.50E-02 (e) CTO  2.50E-01 (e) PW  3.50E-01 (e)
:DIRM :  MEMORY  0/ 8 SCALE   1.000
Performing Pseudo Compensation
Final Pseudo Compensation Rescaling     1.00000E+00
:MIX  :   PRATT  REGULARIZATION:  1.00E-04 GREED: 0.15000                  
     
       CHARGES OF MIXED CHARGE DENSITY
:CTO   : INTERSTITIAL CHARGE =     7.043616
:CPC   : PW Pseudocharge     =    16.889090
:CTO001: CHARGE SPHERE  1    =    55.478192

:NEC03: NUCLEAR AND ELECTRONIC CHARGE    118.00000   118.00000

PW CHANGE     H    K    L      Current       Change    Residue
:PTO001:      0    0    0  4.34615437E-02  4.091E-06  1.953E-05
:PTO003:      0    2    0  1.26387027E-02 -8.669E-08 -3.819E-06
:PTO004:     -1    1    0  6.32134586E-02  3.061E-06  3.329E-06
:PTO005:      0    2   -1 -7.39858084E-02 -3.123E-06 -6.669E-07
:PTO006:      0    0   -2 -3.82995169E-02 -2.258E-06 -4.577E-06
:PTO007:     -1    1   -1 -8.14096933E-02 -4.514E-06 -6.982E-06
:PTO008:      0    2   -2 -1.38830364E-02 -5.055E-07  8.715E-07
:PTO009:     -1    1   -2 -7.18990390E-02 -3.204E-06  7.446E-07
:PTO011:     -1    3    0 -1.21878939E-02 -1.207E-06 -4.190E-06
:PTO012:     -1    3   -1 -5.57284458E-02 -2.502E-06  1.275E-06
:PTO013:      0    4    0 -1.04970574E-02 -4.818E-07  2.576E-07
:PTO014:      0    2   -3  2.38148127E-02  1.374E-06  1.331E-06

:ENE  : ********** TOTAL ENERGY IN Ry =       -36944.21201939

       TOTAL FORCE IN mRy/a.u. = |F|     Fx             Fy             Fz     with/without FOR in case.in2
:FOR001:   1.ATOM         18.958          0.000          0.000        -18.958 partial forces
       TOTAL FORCE WITH RESPECT TO GLOBAL CARTESIAN COORDINATES:
:FCA001:   1.ATOM                         0.000        -18.958          0.000 partial forces
       TOTAL FORCE WITH RESPECT TO THE GLOBAL COORDINATE SYSTEM:
:FGL001:   1.ATOM                 0.000000000   -18.958163544     0.000000000 partial forces

------- case.scf0 --------
 Flat Integration
 New Mode for Coulomb Integral
 Consistent 3/8+Simpson combinations
 Extension of core to zero
 LDM version in phi
 Fifth-order quadrature in outwin


            ---------
:ITE042: 42. ITERATION
            ---------

:NATO :    1 INDEPENDENT AND    2 TOTAL ATOMS IN UNITCELL
       SUBSTANCE: aU                                                          

       LATTICE                      = CXY 
:POT  : POTENTIAL OPTION EX_LDA EC_LDA VX_LDA VC_LDA
:LAT  : LATTICE CONSTANTS=  6.76640 13.73073 11.85402    1.571    1.571    1.571
:VOL  : UNIT CELL VOLUME =     550.66398
       MODE OF CALCULATION IS       = RELA
       NON-SPINPOLARIZED CALCULATION
:IFFT  : FFT-parameters:   54  108   96 Factor: 2.00


   CONVERGENCE PARAMETER FOR PSEUDOCHARGE: NCON=  9
   MAXIMAL VALUE OF RMT(JATOM)*ABSK(NKK) : RK  =27.59515


:VKCOUL :  VK-COUL convergence: 0.631E-07
       ATOMNUMBER=  1 Pr1        VCOUL-ZERO = -0.56578E-01
:EFG001:                        EFG         =    -6.70151   *10**21  V / m**2
                               V20  TOT/SRF=    -5.80368    -0.01833
                               V22  TOT/SRF=     0.85524     0.00299
                               V22M TOT/SRF=     0.00000     0.00000
                               V21  TOT/SRF=     0.00000     0.00000
                               V21M TOT/SRF=     0.00000     0.00000

              4.20599    0.00000    0.00000        4.20599    0.00000    0.00000
              0.00000    2.49552    0.00000        0.00000    2.49552    0.00000
              0.00000    0.00000   -6.70151        0.00000    0.00000   -6.70151

         MAIN DIRECTIONS OF THE EFG   1.0000  0.0000  0.0000
                                      0.0000  1.0000  0.0000
                                      0.0000  0.0000  1.0000
:ANG001:  ANGLE WITH OLD X-AXIS =         0.0

:ETA001:                         ASYMM. ETA =     0.25524


     HELLMANN-FEYNMAN-FORCE IN mRy/a.u. = |F|  Fx       Fy             Fz
:FHF001:   1.ATOM    465.714869897556      0.000000000000      0.000000000000   -465.714869897556

:FIT001: LUSE= 13 SIGMA OF V-XC FIT FOR ATOM  1  0.8113850E-05
:FIT001: LUSE= 13 SIGMA OF V-XC FIT FOR ATOM  1  0.8113850E-05
:DEN  : DENSITY INTEGRAL  =        -14135.36962288   (Ry)
       ELS_POTENTIAL_AT Z=0 and Z=0.5:   0.65483   0.65483
       ELS_POTENTIAL_AT Y=0 and Y=0.5:   0.07930   0.07930
:VZERO:v0,v0c,v0x   0.11393   0.65483  -0.54089 v5,v5c,v5x   0.11393   0.65483  -0.54089
:VZERY:v0,v0c,v0x  -0.64455   0.07930  -0.72386 v5,v5c,v5x  -0.64455   0.07930  -0.72386
:VZERX:v0,v0c,v0x  -1.06781  -0.36790  -0.69991 v5,v5c,v5x  -1.06781  -0.36790  -0.69991

------- case.scf1 --------
:LMAX-WF:   10   Non-Spherical LMAX:   4

          ATOMIC SPHERE DEPENDENT PARAMETERS FOR ATOM  Pr1       
:e__0001: OVERALL ENERGY PARAMETER IS    0.3273
          OVERALL BASIS SET ON ATOM IS LAPW
:E0_0001: E( 0)=    0.3273
             APW+lo
:E0_0001: E( 0)=   -2.1626   E(BOTTOM)=   -2.798   E(TOP)=   -1.527  4  5   163
             LOCAL ORBITAL
:E1_0001: E( 1)=    0.7273
             APW+lo
:E1_0001: E( 1)=   -0.6929   E(BOTTOM)=   -1.651   E(TOP)=    0.265  3  4   198
             LOCAL ORBITAL
:E3_0001: E( 3)=    0.4958   E(BOTTOM)=    0.287   E(TOP)=    0.705  0  1   123
             APW+lo
:E2_0001: E( 2)=    0.3273   E(BOTTOM)=    0.091   E(TOP)= -200.000  2 -1    95
             APW+lo

       K=   0.06250   0.00000   0.06250            1
:RKM  : MATRIX SIZE   509LOs:  40  RKM= 8.50  WEIGHT= 4.00  PGR:    
       EIGENVALUES ARE:
:EIG00001:      -2.1273297   -2.1190508   -0.8369397   -0.7851548   -0.7734841
:EIG00006:      -0.7692266   -0.7647748   -0.7644639    0.2915697    0.4363130
:EIG00011:       0.5125228    0.5130640    0.5133280    0.5163459    0.5174847
:EIG00016:       0.5257705    0.5291728    0.5296496    0.5319420    0.5334063
:EIG00021:       0.5369858    0.5394573    0.5401497    0.5427265    0.5850059
:EIG00026:       0.5984697    0.6583245    0.6830853    0.6912274    0.7329664
:EIG00031:       0.7476036    0.8148436    0.8576536    0.8924015    1.1368267
:EIG00036:       1.1893205    1.2773481    1.2810865    1.4218523    1.4732062
:EIG00041:       1.5069984    1.6087447    1.6665950    1.6883763    1.7584427
:EIG00046:       1.8362555    1.8428822    1.8761534    1.9445447    2.0172305
 
:EIG00051:       2.0680349    2.1217881    2.1399848    2.1877955    2.2106843
:EIG00056:       2.2956082    2.3355129    2.3497392    2.4405470    2.4726375
:EIG00061:       2.5337157    2.5675196    2.6821560    2.7691707    2.7831562
:EIG00066:       2.8707577    2.9066708    2.9207310    2.9300345    3.0191840
:EIG00071:       3.0285822    3.0740213    3.0980403    3.1295675    3.1440867
:EIG00076:       3.1845779    3.2246947    3.2556763    3.2843864    3.3046699
:EIG00081:       3.3448962    3.3918080    3.3987502    3.4368720    3.4909642
:EIG00086:       3.5187850    3.5888735    3.5965954    3.6267913    3.6361230
:EIG00091:       3.6705255    3.6864563    3.7350345    3.7389162    3.7425468
:EIG00096:       3.8053827    3.8257801    3.8319329    3.8473845    3.9270192
 
:EIG00101:       3.9754217    4.1033513    4.1065648    4.1616759    4.2001324
:EIG00106:       4.2161880    4.2472190    4.2495587    4.3001777    4.3278764
:EIG00111:       4.3923897    4.4090272    4.4324630    4.4480837    4.4770547
:EIG00116:       4.5394116    4.6095845    4.6470726    4.6474408    4.6752543
:EIG00121:       4.7068052    4.7957676    4.7972411    4.8337857    4.8869283
:EIG00126:       4.9499475    4.9582798    4.9990425    5.0484270    5.0688314
:EIG00131:       5.0929680    5.1382657    5.1734521    5.1895356    5.2038539
:EIG00136:       5.2587841    5.3024124    5.3496224    5.3629953    5.3933432
:EIG00141:       5.4044511    5.4091454    5.4575086    5.5104302    5.5176094
:EIG00146:       5.5395779    5.5612681    5.5656424    5.5681752    5.6663703
 
:EIG00151:       5.6731208    5.7048380    5.7790649    5.8042737    5.8206866
:EIG00156:       5.9309103    6.0059795    6.0225610    6.0651182    6.0805086
:EIG00161:       6.1061596    6.1841835    6.2234506    6.2285528    6.2347470
:EIG00166:       6.3055424    6.3396575    6.3451235    6.3729839    6.3917479
:EIG00171:       6.4110485    6.4750041    6.4924801    6.5117030    6.5661773
:EIG00176:       6.5662710    6.6058483    6.6296765    6.6642860    6.6776705
:EIG00181:       6.7519661    6.7664693    6.7726917    6.7997236    6.8370923
:EIG00186:       6.8405051    6.8537817    6.9323403    6.9415218    6.9486699
:EIG00191:       7.0010059    7.0120686    7.0570329    7.0707680    7.1019596
:EIG00196:       7.1171852    7.1174699    7.1523552    7.1580399    7.2029615
 
:EIG00201:       7.2239010    7.2824653    7.2843916    7.2925271    7.3449943
:EIG00206:       7.3541882    7.3697815    7.4251725    7.4538515    7.4825315
:EIG00211:       7.4866410    7.5323266    7.5359862    7.5530426    7.5660645
:EIG00216:       7.6012759    7.6107561    7.6123496    7.6400993    7.6827899
:EIG00221:       7.7070671    7.7518744    7.7545666    7.7620007    7.7690524
:EIG00226:       7.7801047    7.8171572    7.8224780    7.8609743    7.9202729
:EIG00231:       7.9222247    7.9656489    8.0060734    8.0148481    8.0256746
       ********************************************************

:KPT   :      NUMBER OF K-POINTS:   288

------- case.scfso --------
   0.0   0.0 angle (M,z), angle (M,x) deg
 
        SPIN-ORBIT EIGENVALUES:
     K=   0.06250   0.00000   0.06250            1
      MATRIX SIZE=  470   WEIGHT= 4.00
     EIGENVALUES ARE:
          -2.1273298   -2.1273298   -2.1190508   -2.1190508   -0.9403629
          -0.9403629   -0.9157046   -0.9157046   -0.7510008   -0.7510008
          -0.7059729   -0.7059729   -0.7036458   -0.7036458   -0.6980787
          -0.6980787    0.2915937    0.2915937    0.4361797    0.4361797
           0.5041879    0.5041880    0.5063541    0.5063541    0.5076948
           0.5076948    0.5086332    0.5086333    0.5102325    0.5102325
           0.5125042    0.5125042    0.5309498    0.5309498    0.5364926
           0.5364926    0.5385874    0.5385874    0.5394811    0.5394811

           0.5428383    0.5428383    0.5460017    0.5460017    0.5467283
           0.5467283    0.5495605    0.5495605    0.5853747    0.5853747
           0.5982451    0.5982451    0.6582186    0.6582187    0.6805538
           0.6805538    0.6934118    0.6934118    0.7335030    0.7335030
           0.7475792    0.7475792    0.8146402    0.8146403    0.8579656
           0.8579656    0.8925434    0.8925434    1.1368295    1.1368295
           1.1895135    1.1895135    1.2773072    1.2773072    1.2811256
           1.2811256    1.4213380    1.4213380    1.4725010    1.4725010

           1.5069958    1.5069958    1.6063157    1.6063157    1.6659894
           1.6659894    1.6892888    1.6892888    1.7590514    1.7590514
           1.8345757    1.8345757    1.8410546    1.8410546    1.8784852
           1.8784852    1.9449381    1.9449381    2.0167272    2.0167272
           2.0676962    2.0676962    2.1195163    2.1195163    2.1415535
           2.1415535    2.1894086    2.1894086    2.2114395    2.2114395
           2.2954451    2.2954451    2.3355003    2.3355003    2.3502688
           2.3502688    2.4404580    2.4404580    2.4723840    2.4723840

           2.5369720    2.5369720    2.5677110    2.5677110    2.6820847
           2.6820847    2.7692754    2.7692754    2.7832615    2.7832615
           2.8704176    2.8704176    2.9066557    2.9066557    2.9207987
           2.9207987    2.9302602    2.9302602    3.0193469    3.0193469
           3.0286710    3.0286710    3.0740713    3.0740713    3.0980872
           3.0980872    3.1289910    3.1289910    3.1449501    3.1449501
           3.1847067    3.1847067    3.2258800    3.2258800    3.2557514
           3.2557514    3.2843969    3.2843969    3.3050591    3.3050591

           3.3451097    3.3451097    3.3918228    3.3918228    3.3988235
           3.3988235    3.4370311    3.4370311    3.4909885    3.4909885
           3.5189063    3.5189063    3.5889728    3.5889728    3.5965832
           3.5965832    3.6267731    3.6267731    3.6361710    3.6361710
           3.6705356    3.6705356    3.6865007    3.6865007    3.7344702
           3.7344702    3.7390218    3.7390218    3.7427283    3.7427283
           3.8053637    3.8053637    3.8252911    3.8252911    3.8325887
           3.8325887    3.8474673    3.8474673    3.9270507    3.9270507

           3.9752429    3.9752429    4.1007110    4.1007110    4.1085981
           4.1085981    4.1625285    4.1625285    4.2000087    4.2000087
           4.2163072    4.2163072    4.2470427    4.2470427    4.2507023
           4.2507023    4.3003608    4.3003608    4.3279829    4.3279829
           4.3924244    4.3924244    4.4092073    4.4092073    4.4327507
           4.4327507    4.4482092    4.4482092    4.4770753    4.4770753

       ********************************************************

------- case.scf2 --------
:GMA  : POTENTIAL AND CHARGE CUT-OFF  12.00 Ry**.5




:POS001: at.nr.  -1 position = 0.00000 0.89750 0.25000  multiplicity =  2

       lmmax 16
       lm=   0 0  1 0  2 0  2 2  3 0  3 2  4 0  4 2  4 4  5 0  5 2  5 4  6 0  6 2  6 4  6 6
:FER gutzwiller fermi energy   0.54106
:EORB         -0.242106925
:SUM sum of gutz band energies        -13.044396466

:CHA001: total charge inside sphere   1 =     9.474120
:PCS001: partial charges sphere =  1 s,p,d,f,px,py,pz,d-z2,d-x2y2,d-xy,d-xz,d-yz 
:QTL001: 1.9409 5.0334 0.5022 1.9976 1.6746 1.6759 1.6829 0.0928 0.0942 0.1109 0.0944 0.1098

                      vxx         vyy         vzz       up to r

:VZZ001:             4.24916     2.50607    -6.75522       2.300

:CHA  : total charge inside unit cell =      13.000000

------- case.scfc --------

        1.ATOM      Pr1                  14 CORE STATES
       CORE-FORCE in mRy/a.u. = |F|      Fx             Fy             Fz
:FCO001:   1.ATOM    446.417838814838      0.000000000000      0.000000000000    446.417838814838

:1S 001: 1S               -3067.085655084 Ry
:2S 001: 2S                -492.837647792 Ry
:2PP001: 2P*               -465.937059756 Ry
:2P 001: 2P                -430.539469027 Ry
:3S 001: 3S                -105.925015562 Ry
:3PP001: 3P*                -94.462976856 Ry
:3P 001: 3P                 -87.455064999 Ry
:3DD001: 3D*                -67.382432019 Ry
:3D 001: 3D                 -65.870829457 Ry
:4S 001: 4S                 -20.605044249 Ry
:4PP001: 4P*                -16.312136332 Ry
:4P 001: 4P                 -14.785159321 Ry
:4DD001: 4D*                 -7.718901140 Ry
:4D 001: 4D                  -7.449640966 Ry

------- case.scfm --------
:CINT001 Core Integral Atom   1   45.998486

       DENSITY AT NUCLEUS
        JATOM        VALENCE       SEMI-CORE          CORE           TOTAL
:RTO001:   1      647.929883        0.000000   656824.255299   657472.185182
     
       CHARGES OF NEW CHARGE DENSITY
:NTO   : INTERSTITIAL CHARGE =     7.052200
:NPC   : PW Pseudocharge     =    16.886375
:NTO001: CHARGE SPHERE  1    =    55.472606

:NEC01: NUCLEAR AND ELECTRONIC CHARGE    118.00000   117.99741
     
       CHARGES OF OLD CHARGE DENSITY
:OTO   : INTERSTITIAL CHARGE =     7.043616
:OPC   : PW Pseudocharge     =    16.889090
:OTO001: CHARGE SPHERE  1    =    55.478192

:NEC02: NUCLEAR AND ELECTRONIC CHARGE    118.00000   118.00000
     
       CONVERGENCE TEST
:DTO001: DIFFERENCE IN SPHERE  1 =  0.0088845

:DIS  :  CHARGE DISTANCE       ( 0.0088845 for atom    1 spin 1)      0.0088845
 PW Mixed is          560
 
******************************************************
* MULTISECANT MIXING VER9 RELEASE 10.4.0              *
* Standard Mode with controls                        *
* Fixed density scale                                *
* Restart from converged density                     *
* Regularization       1.000E-04                     *
* Trust Upper Limit    5.000E+00                     *
* Max Number of Memory Steps    8                    *
******************************************************
 
:INFO : Forcing a restart
:PWTMP   4.4873E+02  1.9467E+02  5.5066E+02
:PLANE:  PW TOTAL      4.3357 DISTAN   1.40E-03  3.22E-02 %
:CHARG:  CLM/ATOM   1381.9468 DISTAN   1.29E-02  9.31E-04 %
 
Step History
        DMIX         DMIXT        Red     Pred      Trust     Lambda    MagRel    MagAbs     Beta
  1   3.5000E-02   3.5000E-02 -1.00E+00  1.00E+00 -1.00E+01  1.00E+00  3.50E-02  3.50E-02  1.00E+00
  2   1.5000E-01   1.5000E-01 -1.00E+00  1.00E+00 -1.00E+01  1.00E+00  1.50E-01  1.42E-03  1.00E+00
:JACOBIANS    3.558E-03   1.711E-01
  
:NORMS:  1/Froebius, Min, Max, Used   0.1485E+00 -0.3457E+00  0.1485E+00  0.1485E+00
:INFO :  Number of Memory Steps    1 Skipping    0
:PREDicted Charge, CTotal, PW Trust    1.416E-03   2.832E-03   1.821E-03
:PREDicted DMix, Beta, BLim   5.0000E-02  5.0000E-01  1.8559E+00

Eigenvalues, unscaled except for SY+YY
   #     SY Real        SY Imag          SS             YY         SY+YY Real      SY+YY Imag
   1  -3.456921E-01   0.000000E+00   1.484599E-01   1.000000E+00   6.543079E-01   0.000000E+00
 
:DLIM :  Beta Active  8.000E-01
:BLIM :  VZERO Control Off
:TRUST:  Step 3.00E+00  Charge 6.82E-02 (e) CTO  2.27E-01 (e) PW  3.18E-01 (e)
:DIRM :  MEMORY  1/8  SCALE   1.000 RED  1.37 PRED  1.00 NEXT  0.37 BETA  0.80
:TRAVE:  Charge 1.57E-03 (e) CTO  3.14E-03 (e) PW  2.05E-03 (e)
:DIRP :  |MSR1|= 7.444E-04 |PRATT|= 1.398E-03 ANGLE= 147.1 DEGREES
:DIRQ :  |MSR1|= 3.598E-03 |PRATT|= 1.287E-02 ANGLE= 177.0 DEGREES
:DIRT :  |MSR1|= 3.674E-03 |PRATT|= 1.295E-02 ANGLE= 172.1 DEGREES
:MIX  :   MSR1   REGULARIZATION:  1.00E-04 GREED: 0.07125  Newton 1.00  0.2838                
     
       CHARGES OF MIXED CHARGE DENSITY
:CTO   : INTERSTITIAL CHARGE =     7.040474
:CPC   : PW Pseudocharge     =    16.886441
:CTO001: CHARGE SPHERE  1    =    55.479763

:NEC03: NUCLEAR AND ELECTRONIC CHARGE    118.00000   118.00000

PW CHANGE     H    K    L      Current       Change    Residue
:PTO001:      0    0    0  4.34510249E-02 -1.052E-05  2.661E-05
:PTO003:      0    2    0  1.26385363E-02 -1.664E-07 -3.068E-06
:PTO004:     -1    1    0  6.32051831E-02 -8.275E-06  6.192E-06
:PTO005:      0    2   -1 -7.39773145E-02  8.494E-06 -2.692E-06
:PTO006:      0    0   -2 -3.82936729E-02  5.844E-06 -6.017E-06
:PTO007:     -1    1   -1 -8.13980872E-02  1.161E-05 -8.431E-06
:PTO008:      0    2   -2 -1.38815774E-02  1.459E-06  4.541E-07
:PTO009:     -1    1   -2 -7.18906820E-02  8.357E-06  1.479E-06
:PTO011:     -1    3    0 -1.21848548E-02  3.039E-06 -5.200E-06
:PTO012:     -1    3   -1 -5.57213673E-02  7.079E-06 -1.245E-06
:PTO013:      0    4    0 -1.04956428E-02  1.415E-06 -5.386E-07
:PTO014:      0    2   -3  2.38111672E-02 -3.645E-06  2.114E-06

:ENE  : ********** TOTAL ENERGY IN Ry =       -36944.21212592

       TOTAL FORCE IN mRy/a.u. = |F|     Fx             Fy             Fz     with/without FOR in case.in2
:FOR001:   1.ATOM         19.297          0.000          0.000        -19.297 partial forces
       TOTAL FORCE WITH RESPECT TO GLOBAL CARTESIAN COORDINATES:
:FCA001:   1.ATOM                         0.000        -19.297          0.000 partial forces
       TOTAL FORCE WITH RESPECT TO THE GLOBAL COORDINATE SYSTEM:
:FGL001:   1.ATOM                 0.000000000   -19.297031083     0.000000000 partial forces

------- case.scf0 --------
 Flat Integration
 New Mode for Coulomb Integral
 Consistent 3/8+Simpson combinations
 Extension of core to zero
 LDM version in phi
 Fifth-order quadrature in outwin


            ---------
:ITE043: 43. ITERATION
            ---------

:NATO :    1 INDEPENDENT AND    2 TOTAL ATOMS IN UNITCELL
       SUBSTANCE: aU                                                          

       LATTICE                      = CXY 
:POT  : POTENTIAL OPTION EX_LDA EC_LDA VX_LDA VC_LDA
:LAT  : LATTICE CONSTANTS=  6.76640 13.73073 11.85402    1.571    1.571    1.571
:VOL  : UNIT CELL VOLUME =     550.66398
       MODE OF CALCULATION IS       = RELA
       NON-SPINPOLARIZED CALCULATION
:IFFT  : FFT-parameters:   54  108   96 Factor: 2.00


   CONVERGENCE PARAMETER FOR PSEUDOCHARGE: NCON=  9
   MAXIMAL VALUE OF RMT(JATOM)*ABSK(NKK) : RK  =27.59515


:VKCOUL :  VK-COUL convergence: 0.632E-07
       ATOMNUMBER=  1 Pr1        VCOUL-ZERO = -0.56451E-01
:EFG001:                        EFG         =    -6.67839   *10**21  V / m**2
                               V20  TOT/SRF=    -5.78365    -0.01822
                               V22  TOT/SRF=     0.84901     0.00299
                               V22M TOT/SRF=     0.00000     0.00000
                               V21  TOT/SRF=     0.00000     0.00000
                               V21M TOT/SRF=     0.00000     0.00000

              4.18820    0.00000    0.00000        4.18820    0.00000    0.00000
              0.00000    2.49019    0.00000        0.00000    2.49019    0.00000
              0.00000    0.00000   -6.67839        0.00000    0.00000   -6.67839

         MAIN DIRECTIONS OF THE EFG   1.0000  0.0000  0.0000
                                      0.0000  1.0000  0.0000
                                      0.0000  0.0000  1.0000
:ANG001:  ANGLE WITH OLD X-AXIS =         0.0

:ETA001:                         ASYMM. ETA =     0.25426


     HELLMANN-FEYNMAN-FORCE IN mRy/a.u. = |F|  Fx       Fy             Fz
:FHF001:   1.ATOM    464.177811580033      0.000000000000      0.000000000000   -464.177811580033

:FIT001: LUSE= 13 SIGMA OF V-XC FIT FOR ATOM  1  0.8123109E-05
:FIT001: LUSE= 13 SIGMA OF V-XC FIT FOR ATOM  1  0.8123109E-05
:DEN  : DENSITY INTEGRAL  =        -14135.67795282   (Ry)
       ELS_POTENTIAL_AT Z=0 and Z=0.5:   0.65459   0.65459
       ELS_POTENTIAL_AT Y=0 and Y=0.5:   0.07937   0.07937
:VZERO:v0,v0c,v0x   0.11379   0.65459  -0.54080 v5,v5c,v5x   0.11379   0.65459  -0.54080
:VZERY:v0,v0c,v0x  -0.64442   0.07937  -0.72379 v5,v5c,v5x  -0.64442   0.07937  -0.72379
:VZERX:v0,v0c,v0x  -1.06763  -0.36781  -0.69982 v5,v5c,v5x  -1.06763  -0.36781  -0.69982

------- case.scf1 --------
:LMAX-WF:   10   Non-Spherical LMAX:   4

          ATOMIC SPHERE DEPENDENT PARAMETERS FOR ATOM  Pr1       
:e__0001: OVERALL ENERGY PARAMETER IS    0.3273
          OVERALL BASIS SET ON ATOM IS LAPW
:E0_0001: E( 0)=    0.3273
             APW+lo
:E0_0001: E( 0)=   -2.1615   E(BOTTOM)=   -2.797   E(TOP)=   -1.526  4  5   165
             LOCAL ORBITAL
:E1_0001: E( 1)=    0.7273
             APW+lo
:E1_0001: E( 1)=   -0.6919   E(BOTTOM)=   -1.650   E(TOP)=    0.266  3  4   193
             LOCAL ORBITAL
:E3_0001: E( 3)=    0.4977   E(BOTTOM)=    0.289   E(TOP)=    0.707  0  1   116
             APW+lo
:E2_0001: E( 2)=    0.3273   E(BOTTOM)=    0.091   E(TOP)= -200.000  2 -1    98
             APW+lo

       K=   0.06250   0.00000   0.06250            1
:RKM  : MATRIX SIZE   509LOs:  40  RKM= 8.50  WEIGHT= 4.00  PGR:    
       EIGENVALUES ARE:
:EIG00001:      -2.1262408   -2.1179509   -0.8361569   -0.7843398   -0.7726551
:EIG00006:      -0.7683565   -0.7639026   -0.7635882    0.2915792    0.4364203
:EIG00011:       0.5142239    0.5148701    0.5150969    0.5181385    0.5192794
:EIG00016:       0.5276865    0.5311004    0.5315679    0.5338705    0.5352965
:EIG00021:       0.5389409    0.5413659    0.5420807    0.5446804    0.5855643
:EIG00026:       0.5988230    0.6586183    0.6833806    0.6915390    0.7332607
:EIG00031:       0.7479278    0.8152050    0.8580652    0.8928409    1.1371949
:EIG00036:       1.1894515    1.2774664    1.2811751    1.4219245    1.4732739
:EIG00041:       1.5071348    1.6088882    1.6667587    1.6885345    1.7587026
:EIG00046:       1.8364103    1.8429618    1.8763220    1.9446728    2.0174878
 
:EIG00051:       2.0681987    2.1219422    2.1400890    2.1880372    2.2108593
:EIG00056:       2.2957059    2.3358263    2.3497959    2.4406825    2.4728388
:EIG00061:       2.5339538    2.5675995    2.6823275    2.7693202    2.7831697
:EIG00066:       2.8708369    2.9068670    2.9209441    2.9301138    3.0192720
:EIG00071:       3.0285804    3.0740771    3.0981069    3.1296684    3.1441594
:EIG00076:       3.1847050    3.2247393    3.2557642    3.2844251    3.3047602
:EIG00081:       3.3449802    3.3917687    3.3987825    3.4369651    3.4909735
:EIG00086:       3.5187585    3.5888758    3.5965504    3.6267626    3.6361783
:EIG00091:       3.6704958    3.6864966    3.7351453    3.7389044    3.7426522
:EIG00096:       3.8053687    3.8258271    3.8319189    3.8473491    3.9269686
 
:EIG00101:       3.9755226    4.1033628    4.1066672    4.1616703    4.2001410
:EIG00106:       4.2161968    4.2472265    4.2495535    4.3001890    4.3278645
:EIG00111:       4.3924618    4.4089831    4.4325471    4.4479823    4.4771183
:EIG00116:       4.5394864    4.6097348    4.6470552    4.6476027    4.6753855
:EIG00121:       4.7068005    4.7958125    4.7973604    4.8338297    4.8868984
:EIG00126:       4.9500624    4.9583325    4.9991062    5.0484477    5.0689075
:EIG00131:       5.0929530    5.1382855    5.1734940    5.1895371    5.2038981
:EIG00136:       5.2587669    5.3024305    5.3496020    5.3630925    5.3933584
:EIG00141:       5.4045104    5.4091924    5.4575623    5.5103576    5.5177405
:EIG00146:       5.5395699    5.5612700    5.5656420    5.5681225    5.6663443
 
:EIG00151:       5.6732552    5.7047876    5.7790481    5.8042884    5.8207072
:EIG00156:       5.9308871    6.0059985    6.0226396    6.0651443    6.0805497
:EIG00161:       6.1062126    6.1841466    6.2234671    6.2286436    6.2348018
:EIG00166:       6.3055893    6.3396750    6.3451527    6.3729878    6.3917828
:EIG00171:       6.4111057    6.4750503    6.4925374    6.5118052    6.5662426
:EIG00176:       6.5664366    6.6059167    6.6298131    6.6643374    6.6777669
:EIG00181:       6.7520517    6.7665532    6.7727149    6.7996867    6.8371908
:EIG00186:       6.8405075    6.8537620    6.9324190    6.9415471    6.9487223
:EIG00191:       7.0010079    7.0120775    7.0570558    7.0707797    7.1020264
:EIG00196:       7.1172384    7.1174603    7.1523490    7.1580645    7.2029945
 
:EIG00201:       7.2238449    7.2824381    7.2843635    7.2925589    7.3450901
:EIG00206:       7.3542321    7.3698034    7.4251549    7.4538570    7.4825804
:EIG00211:       7.4866199    7.5323468    7.5359979    7.5530525    7.5660715
:EIG00216:       7.6013026    7.6107724    7.6123492    7.6400771    7.6827349
:EIG00221:       7.7070177    7.7518437    7.7545251    7.7619732    7.7690050
:EIG00226:       7.7800893    7.8171270    7.8224486    7.8609485    7.9202470
:EIG00231:       7.9222073    7.9656273    8.0059920    8.0148700    8.0256550
       ********************************************************

:KPT   :      NUMBER OF K-POINTS:   288

------- case.scfso --------
   0.0   0.0 angle (M,z), angle (M,x) deg
 
        SPIN-ORBIT EIGENVALUES:
     K=   0.06250   0.00000   0.06250            1
      MATRIX SIZE=  470   WEIGHT= 4.00
     EIGENVALUES ARE:
          -2.1262409   -2.1262409   -2.1179509   -2.1179509   -0.9394922
          -0.9394922   -0.9147967   -0.9147967   -0.7502248   -0.7502248
          -0.7051466   -0.7051466   -0.7028244   -0.7028244   -0.6972339
          -0.6972339    0.2916033    0.2916033    0.4362897    0.4362897
           0.5059747    0.5059747    0.5082003    0.5082003    0.5095345
           0.5095345    0.5104734    0.5104734    0.5120986    0.5120986
           0.5144422    0.5144422    0.5326830    0.5326830    0.5383671
           0.5383671    0.5404954    0.5404954    0.5413610    0.5413611

           0.5447078    0.5447078    0.5478972    0.5478972    0.5486325
           0.5486325    0.5514940    0.5514940    0.5859784    0.5859784
           0.5986143    0.5986143    0.6585302    0.6585303    0.6808518
           0.6808518    0.6937176    0.6937176    0.7337965    0.7337965
           0.7479038    0.7479038    0.8150022    0.8150022    0.8583763
           0.8583763    0.8929822    0.8929822    1.1371971    1.1371971
           1.1896451    1.1896451    1.2774253    1.2774253    1.2812148
           1.2812148    1.4214110    1.4214110    1.4725695    1.4725695

           1.5071318    1.5071318    1.6064620    1.6064620    1.6661508
           1.6661508    1.6894462    1.6894462    1.7593103    1.7593103
           1.8347144    1.8347144    1.8411591    1.8411591    1.8786459
           1.8786459    1.9450694    1.9450694    2.0169816    2.0169816
           2.0678607    2.0678607    2.1196656    2.1196656    2.1416632
           2.1416632    2.1896395    2.1896395    2.2116205    2.2116205
           2.2955474    2.2955474    2.3357979    2.3357979    2.3503373
           2.3503373    2.4405947    2.4405947    2.4725859    2.4725859

           2.5372078    2.5372078    2.5677921    2.5677921    2.6822559
           2.6822559    2.7694244    2.7694244    2.7832754    2.7832754
           2.8704986    2.8704986    2.9068510    2.9068510    2.9210093
           2.9210093    2.9303404    2.9303404    3.0194343    3.0194343
           3.0286698    3.0286698    3.0741270    3.0741270    3.0981540
           3.0981540    3.1290898    3.1290898    3.1450249    3.1450249
           3.1848338    3.1848338    3.2259250    3.2259250    3.2558393
           3.2558393    3.2844361    3.2844361    3.3051485    3.3051485

           3.3451936    3.3451936    3.3917836    3.3917836    3.3988563
           3.3988563    3.4371241    3.4371241    3.4909978    3.4909978
           3.5188797    3.5188797    3.5889751    3.5889751    3.5965382
           3.5965382    3.6267445    3.6267445    3.6362262    3.6362262
           3.6705060    3.6705060    3.6865410    3.6865410    3.7345756
           3.7345756    3.7390183    3.7390183    3.7428300    3.7428300
           3.8053500    3.8053500    3.8253334    3.8253334    3.8325803
           3.8325803    3.8474319    3.8474319    3.9270002    3.9270002

           3.9753433    3.9753433    4.1007504    4.1007504    4.1086694
           4.1086694    4.1625252    4.1625252    4.2000183    4.2000183
           4.2163160    4.2163160    4.2470426    4.2470426    4.2507037
           4.2507037    4.3003724    4.3003724    4.3279711    4.3279711
           4.3924956    4.3924956    4.4091646    4.4091646    4.4328330
           4.4328330    4.4481093    4.4481093    4.4771389    4.4771389

       ********************************************************

------- case.scf2 --------
:GMA  : POTENTIAL AND CHARGE CUT-OFF  12.00 Ry**.5




:POS001: at.nr.  -1 position = 0.00000 0.89750 0.25000  multiplicity =  2

       lmmax 16
       lm=   0 0  1 0  2 0  2 2  3 0  3 2  4 0  4 2  4 4  5 0  5 2  5 4  6 0  6 2  6 4  6 6
:FER gutzwiller fermi energy   0.54173
:EORB         -0.237556233
:SUM sum of gutz band energies        -13.025881823

:CHA001: total charge inside sphere   1 =     9.464799
:PCS001: partial charges sphere =  1 s,p,d,f,px,py,pz,d-z2,d-x2y2,d-xy,d-xz,d-yz 
:QTL001: 1.9408 5.0330 0.5048 1.9861 1.6744 1.6757 1.6828 0.0935 0.0947 0.1112 0.0949 0.1104

                      vxx         vyy         vzz       up to r

:VZZ001:             4.30492     2.55377    -6.85869       2.300

:CHA  : total charge inside unit cell =      13.000000

------- case.scfc --------

        1.ATOM      Pr1                  14 CORE STATES
       CORE-FORCE in mRy/a.u. = |F|      Fx             Fy             Fz
:FCO001:   1.ATOM    445.546764964138      0.000000000000      0.000000000000    445.546764964138

:1S 001: 1S               -3067.082249140 Ry
:2S 001: 2S                -492.834213474 Ry
:2PP001: 2P*               -465.933631725 Ry
:2P 001: 2P                -430.536038726 Ry
:3S 001: 3S                -105.921607900 Ry
:3PP001: 3P*                -94.459564930 Ry
:3P 001: 3P                 -87.451663178 Ry
:3DD001: 3D*                -67.379014080 Ry
:3D 001: 3D                 -65.867413747 Ry
:4S 001: 4S                 -20.602271094 Ry
:4PP001: 4P*                -16.309406317 Ry
:4P 001: 4P                 -14.782494868 Ry
:4DD001: 4D*                 -7.716356435 Ry
:4D 001: 4D                  -7.447118944 Ry

------- case.scfm --------
:CINT001 Core Integral Atom   1   45.998484

       DENSITY AT NUCLEUS
        JATOM        VALENCE       SEMI-CORE          CORE           TOTAL
:RTO001:   1      647.798013        0.000000   656824.125987   657471.924000
     
       CHARGES OF NEW CHARGE DENSITY
:NTO   : INTERSTITIAL CHARGE =     7.070937
:NPC   : PW Pseudocharge     =    16.890271
:NTO001: CHARGE SPHERE  1    =    55.463283

:NEC01: NUCLEAR AND ELECTRONIC CHARGE    118.00000   117.99750
     
       CHARGES OF OLD CHARGE DENSITY
:OTO   : INTERSTITIAL CHARGE =     7.040474
:OPC   : PW Pseudocharge     =    16.886441
:OTO001: CHARGE SPHERE  1    =    55.479763

:NEC02: NUCLEAR AND ELECTRONIC CHARGE    118.00000   118.00000
     
       CONVERGENCE TEST
:DTO001: DIFFERENCE IN SPHERE  1 =  0.0263060

:DIS  :  CHARGE DISTANCE       ( 0.0263060 for atom    1 spin 1)      0.0263060
 PW Mixed is          560
 
******************************************************
* MULTISECANT MIXING VER9 RELEASE 10.4.0              *
* Standard Mode with controls                        *
* Fixed density scale                                *
* Regularization       1.000E-04                     *
* Trust Upper Limit    5.000E+00                     *
* Max Number of Memory Steps    8                    *
******************************************************
 
:PWTMP   4.4873E+02  1.9467E+02  5.5066E+02
:PLANE:  PW TOTAL      4.3351 DISTAN   3.99E-03  9.21E-02 %
:CHARG:  CLM/ATOM   1381.9469 DISTAN   3.79E-02  2.74E-03 %
 
Step History
        DMIX         DMIXT        Red     Pred      Trust     Lambda    MagRel    MagAbs     Beta
  1   3.5000E-02   3.5000E-02 -1.00E+00  1.00E+00 -1.00E+01  1.00E+00  3.50E-02  3.50E-02  1.00E+00
  2   1.5000E-01   1.5000E-01  1.37E+00  1.00E+00 -1.00E+01  1.00E+00  1.50E-01  1.42E-03  1.00E+00
  3   7.1250E-02   7.1250E-02 -1.00E+00  3.68E-01  3.00E+00  1.00E+00  2.84E-01  3.67E-03  8.00E-01
:JACOBIANS    6.145E-03   3.079E-01
  
:NORMS:  1/Froebius, Min, Max, Used   0.1157E+00 -0.7584E-02  0.1158E+00  0.1158E+00
:INFO :  Number of Memory Steps    2 Skipping    0
:INFO :  SLambda=    3.0000000000  Max    3.0000000000
:PREDicted Charge, CTotal, PW Trust    2.706E-04   5.413E-04   3.391E-04
:PREDicted DMix, Beta, BLim   1.5438E-01  1.6947E-01  8.5490E-01

Eigenvalues, unscaled except for SY+YY
   #     SY Real        SY Imag          SS             YY         SY+YY Real      SY+YY Imag
   1   1.601597E-04   0.000000E+00   2.676324E-02   1.997524E+00   1.905106E-03   0.000000E+00
   2   2.134853E-01   0.000000E+00   9.956868E-06   2.475520E-03   2.639031E+00   0.000000E+00
 
:INFO :  Singular value  2.646E+00 Weight  1.000E+00 Projection  2.703E-02
:INFO :  Singular value  1.900E-03 Weight  9.891E-01 Projection -3.101E-02
:RANK :  ACTIVE   1.99/2  =  99.45 % ; YY RANK   1.99/2  =  99.68 %
 
:DLIM :  Beta Active  6.400E-01
:BLIM :  VZERO Control Off
:TRUST:  Step 1.60E+00  Charge 6.20E-02 (e) CTO  2.07E-01 (e) PW  2.89E-01 (e)
:DIRM :  MEMORY  2/8  SCALE   1.000 RED  2.95 PRED  0.37 NEXT  0.36 BETA  0.64
:TRAVE:  Charge 1.17E-03 (e) CTO  2.34E-03 (e) PW  1.53E-03 (e)
:DIRP :  |MSR1|= 3.760E-04 |PRATT|= 3.992E-03 ANGLE=  39.7 DEGREES
:DIRQ :  |MSR1|= 1.770E-03 |PRATT|= 3.793E-02 ANGLE=  14.7 DEGREES
:DIRT :  |MSR1|= 1.809E-03 |PRATT|= 3.814E-02 ANGLE=  16.7 DEGREES
:MIX  :   MSE1   REGULARIZATION:  2.00E-04 GREED: 0.11813  Newton 1.00  0.0474                
     
       CHARGES OF MIXED CHARGE DENSITY
:CTO   : INTERSTITIAL CHARGE =     7.042005
:CPC   : PW Pseudocharge     =    16.887754
:CTO001: CHARGE SPHERE  1    =    55.478997

:NEC03: NUCLEAR AND ELECTRONIC CHARGE    118.00000   118.00000

PW CHANGE     H    K    L      Current       Change    Residue
:PTO001:      0    0    0  4.34561908E-02  5.166E-06  7.764E-05
:PTO003:      0    2    0  1.26385686E-02  3.229E-08 -1.121E-05
:PTO004:     -1    1    0  6.32093760E-02  4.193E-06  1.214E-05
:PTO005:      0    2   -1 -7.39816333E-02 -4.319E-06 -1.315E-06
:PTO006:      0    0   -2 -3.82966848E-02 -3.012E-06 -1.435E-05
:PTO007:     -1    1   -1 -8.14039520E-02 -5.865E-06 -2.259E-05
:PTO008:      0    2   -2 -1.38822796E-02 -7.022E-07  2.092E-06
:PTO009:     -1    1   -2 -7.18947448E-02 -4.063E-06  1.786E-06
:PTO011:     -1    3    0 -1.21864881E-02 -1.633E-06 -1.233E-05
:PTO012:     -1    3   -1 -5.57250338E-02 -3.667E-06  6.188E-06
:PTO013:      0    4    0 -1.04963749E-02 -7.321E-07  8.880E-07
:PTO014:      0    2   -3  2.38132275E-02  2.060E-06 -1.433E-06

:ENE  : ********** TOTAL ENERGY IN Ry =       -36944.21209978

       TOTAL FORCE IN mRy/a.u. = |F|     Fx             Fy             Fz     with/without FOR in case.in2
:FOR001:   1.ATOM         18.631          0.000          0.000        -18.631 partial forces
       TOTAL FORCE WITH RESPECT TO GLOBAL CARTESIAN COORDINATES:
:FCA001:   1.ATOM                         0.000        -18.631          0.000 partial forces
       TOTAL FORCE WITH RESPECT TO THE GLOBAL COORDINATE SYSTEM:
:FGL001:   1.ATOM                 0.000000000   -18.631046616     0.000000000 partial forces

------- case.scf0 --------
 Flat Integration
 New Mode for Coulomb Integral
 Consistent 3/8+Simpson combinations
 Extension of core to zero
 LDM version in phi
 Fifth-order quadrature in outwin


            ---------
:ITE044: 44. ITERATION
            ---------

:NATO :    1 INDEPENDENT AND    2 TOTAL ATOMS IN UNITCELL
       SUBSTANCE: aU                                                          

       LATTICE                      = CXY 
:POT  : POTENTIAL OPTION EX_LDA EC_LDA VX_LDA VC_LDA
:LAT  : LATTICE CONSTANTS=  6.76640 13.73073 11.85402    1.571    1.571    1.571
:VOL  : UNIT CELL VOLUME =     550.66398
       MODE OF CALCULATION IS       = RELA
       NON-SPINPOLARIZED CALCULATION
:IFFT  : FFT-parameters:   54  108   96 Factor: 2.00


   CONVERGENCE PARAMETER FOR PSEUDOCHARGE: NCON=  9
   MAXIMAL VALUE OF RMT(JATOM)*ABSK(NKK) : RK  =27.59515


:VKCOUL :  VK-COUL convergence: 0.632E-07
       ATOMNUMBER=  1 Pr1        VCOUL-ZERO = -0.56514E-01
:EFG001:                        EFG         =    -6.69143   *10**21  V / m**2
                               V20  TOT/SRF=    -5.79494    -0.01828
                               V22  TOT/SRF=     0.85347     0.00299
                               V22M TOT/SRF=     0.00000     0.00000
                               V21  TOT/SRF=     0.00000     0.00000
                               V21M TOT/SRF=     0.00000     0.00000

              4.19918    0.00000    0.00000        4.19918    0.00000    0.00000
              0.00000    2.49225    0.00000        0.00000    2.49225    0.00000
              0.00000    0.00000   -6.69143        0.00000    0.00000   -6.69143

         MAIN DIRECTIONS OF THE EFG   1.0000  0.0000  0.0000
                                      0.0000  1.0000  0.0000
                                      0.0000  0.0000  1.0000
:ANG001:  ANGLE WITH OLD X-AXIS =         0.0

:ETA001:                         ASYMM. ETA =     0.25509


     HELLMANN-FEYNMAN-FORCE IN mRy/a.u. = |F|  Fx       Fy             Fz
:FHF001:   1.ATOM    465.666000081362      0.000000000000      0.000000000000   -465.666000081362

:FIT001: LUSE= 13 SIGMA OF V-XC FIT FOR ATOM  1  0.8118660E-05
:FIT001: LUSE= 13 SIGMA OF V-XC FIT FOR ATOM  1  0.8118660E-05
:DEN  : DENSITY INTEGRAL  =        -14135.53153288   (Ry)
       ELS_POTENTIAL_AT Z=0 and Z=0.5:   0.65471   0.65471
       ELS_POTENTIAL_AT Y=0 and Y=0.5:   0.07934   0.07934
:VZERO:v0,v0c,v0x   0.11386   0.65471  -0.54085 v5,v5c,v5x   0.11386   0.65471  -0.54085
:VZERY:v0,v0c,v0x  -0.64449   0.07934  -0.72382 v5,v5c,v5x  -0.64449   0.07934  -0.72382
:VZERX:v0,v0c,v0x  -1.06772  -0.36785  -0.69987 v5,v5c,v5x  -1.06772  -0.36785  -0.69987

------- case.scf1 --------
:LMAX-WF:   10   Non-Spherical LMAX:   4

          ATOMIC SPHERE DEPENDENT PARAMETERS FOR ATOM  Pr1       
:e__0001: OVERALL ENERGY PARAMETER IS    0.3273
          OVERALL BASIS SET ON ATOM IS LAPW
:E0_0001: E( 0)=    0.3273
             APW+lo
:E0_0001: E( 0)=   -2.1620   E(BOTTOM)=   -2.798   E(TOP)=   -1.526  4  5   166
             LOCAL ORBITAL
:E1_0001: E( 1)=    0.7273
             APW+lo
:E1_0001: E( 1)=   -0.6924   E(BOTTOM)=   -1.650   E(TOP)=    0.265  3  4   198
             LOCAL ORBITAL
:E3_0001: E( 3)=    0.4968   E(BOTTOM)=    0.288   E(TOP)=    0.706  0  1   116
             APW+lo
:E2_0001: E( 2)=    0.3273   E(BOTTOM)=    0.091   E(TOP)= -200.000  2 -1    94
             APW+lo

       K=   0.06250   0.00000   0.06250            1
:RKM  : MATRIX SIZE   509LOs:  40  RKM= 8.50  WEIGHT= 4.00  PGR:    
       EIGENVALUES ARE:
:EIG00001:      -2.1267677   -2.1184832   -0.8365369   -0.7847329   -0.7730550
:EIG00006:      -0.7687771   -0.7643258   -0.7640115    0.2915746    0.4363690
:EIG00011:       0.5134048    0.5139978    0.5142431    0.5172746    0.5184134
:EIG00016:       0.5267613    0.5301692    0.5306414    0.5329392    0.5343843
:EIG00021:       0.5379963    0.5404465    0.5411502    0.5437369    0.5852933
:EIG00026:       0.5986521    0.6584755    0.6832382    0.6913879    0.7331192
:EIG00031:       0.7477719    0.8150294    0.8578658    0.8926283    1.1370168
:EIG00036:       1.1893886    1.2774099    1.2811328    1.4218899    1.4732407
:EIG00041:       1.5070688    1.6088184    1.6666800    1.6884576    1.7585771
:EIG00046:       1.8363355    1.8429231    1.8762410    1.9446109    2.0173632
 
:EIG00051:       2.0681204    2.1218679    2.1400388    2.1879209    2.2107749
:EIG00056:       2.2956593    2.3356750    2.3497685    2.4406178    2.4727416
:EIG00061:       2.5338389    2.5675614    2.6822448    2.7692478    2.7831629
:EIG00066:       2.8707985    2.9067728    2.9208412    2.9300753    3.0192297
:EIG00071:       3.0285812    3.0740505    3.0980750    3.1296197    3.1441248
:EIG00076:       3.1846436    3.2247174    3.2557217    3.2844068    3.3047169
:EIG00081:       3.3449396    3.3917884    3.3987666    3.4369202    3.4909689
:EIG00086:       3.5187716    3.5888752    3.5965721    3.6267764    3.6361519
:EIG00091:       3.6705104    3.6864774    3.7350921    3.7389105    3.7426011
:EIG00096:       3.8053749    3.8258043    3.8319256    3.8473665    3.9269936
 
:EIG00101:       3.9754734    4.1033574    4.1066175    4.1616733    4.2001371
:EIG00106:       4.2161925    4.2472230    4.2495561    4.3001837    4.3278708
:EIG00111:       4.3924272    4.4090044    4.4325072    4.4480314    4.4770879
:EIG00116:       4.5394505    4.6096622    4.6470637    4.6475247    4.6753221
:EIG00121:       4.7068025    4.7957907    4.7973025    4.8338084    4.8869130
:EIG00126:       4.9500069    4.9583072    4.9990756    5.0484376    5.0688708
:EIG00131:       5.0929601    5.1382756    5.1734739    5.1895362    5.2038770
:EIG00136:       5.2587754    5.3024218    5.3496122    5.3630459    5.3933511
:EIG00141:       5.4044815    5.4091698    5.4575365    5.5103934    5.5176774
:EIG00146:       5.5395739    5.5612690    5.5656422    5.5681483    5.6663569
 
:EIG00151:       5.6731904    5.7048125    5.7790564    5.8042816    5.8206976
:EIG00156:       5.9308985    6.0059897    6.0226020    6.0651315    6.0805301
:EIG00161:       6.1061873    6.1841644    6.2234591    6.2285997    6.2347757
:EIG00166:       6.3055667    6.3396662    6.3451386    6.3729861    6.3917662
:EIG00171:       6.4110777    6.4750283    6.4925101    6.5117557    6.5662107
:EIG00176:       6.5663567    6.6058836    6.6297471    6.6643127    6.6777203
:EIG00181:       6.7520103    6.7665127    6.7727037    6.7997045    6.8371431
:EIG00186:       6.8405063    6.8537714    6.9323810    6.9415348    6.9486969
:EIG00191:       7.0010071    7.0120732    7.0570452    7.0707740    7.1019940
:EIG00196:       7.1172128    7.1174649    7.1523518    7.1580527    7.2029787
 
:EIG00201:       7.2238718    7.2824512    7.2843771    7.2925435    7.3450436
:EIG00206:       7.3542112    7.3697929    7.4251634    7.4538545    7.4825570
:EIG00211:       7.4866302    7.5323371    7.5359920    7.5530477    7.5660680
:EIG00216:       7.6012897    7.6107643    7.6123495    7.6400877    7.6827618
:EIG00221:       7.7070416    7.7518582    7.7545454    7.7619866    7.7690276
:EIG00226:       7.7800965    7.8171417    7.8224632    7.8609609    7.9202596
:EIG00231:       7.9222155    7.9656374    8.0060316    8.0148593    8.0256647
       ********************************************************

:KPT   :      NUMBER OF K-POINTS:   288

------- case.scfso --------
   0.0   0.0 angle (M,z), angle (M,x) deg
 
        SPIN-ORBIT EIGENVALUES:
     K=   0.06250   0.00000   0.06250            1
      MATRIX SIZE=  470   WEIGHT= 4.00
     EIGENVALUES ARE:
          -2.1267679   -2.1267679   -2.1184832   -2.1184832   -0.9399137
          -0.9399137   -0.9152359   -0.9152359   -0.7506004   -0.7506004
          -0.7055457   -0.7055457   -0.7032210   -0.7032210   -0.6976432
          -0.6976432    0.2915986    0.2915986    0.4362372    0.4362372
           0.5051129    0.5051129    0.5073090    0.5073090    0.5086477
           0.5086477    0.5095858    0.5095858    0.5111981    0.5111981
           0.5135063    0.5135063    0.5318468    0.5318468    0.5374625
           0.5374625    0.5395738    0.5395738    0.5404538    0.5404538

           0.5438058    0.5438058    0.5469835    0.5469835    0.5477136
           0.5477136    0.5505606    0.5505606    0.5856852    0.5856852
           0.5984356    0.5984356    0.6583789    0.6583789    0.6807079
           0.6807080    0.6935695    0.6935695    0.7336553    0.7336553
           0.7477477    0.7477477    0.8148264    0.8148264    0.8581774
           0.8581774    0.8927699    0.8927699    1.1370193    1.1370193
           1.1895819    1.1895819    1.2773689    1.2773689    1.2811722
           1.2811722    1.4213760    1.4213760    1.4725359    1.4725359

           1.5070660    1.5070660    1.6063908    1.6063908    1.6660731
           1.6660731    1.6893698    1.6893698    1.7591853    1.7591853
           1.8346475    1.8346475    1.8411085    1.8411085    1.8785687
           1.8785687    1.9450059    1.9450059    2.0168585    2.0168585
           2.0677820    2.0677820    2.1195936    2.1195936    2.1416103
           2.1416103    2.1895284    2.1895284    2.2115332    2.2115332
           2.2954985    2.2954985    2.3356543    2.3356543    2.3503042
           2.3503042    2.4405294    2.4405294    2.4724884    2.4724884

           2.5370940    2.5370940    2.5677534    2.5677534    2.6821733
           2.6821733    2.7693522    2.7693522    2.7832684    2.7832684
           2.8704593    2.8704593    2.9067572    2.9067572    2.9209075
           2.9209075    2.9303014    2.9303014    3.0193922    3.0193922
           3.0286704    3.0286704    3.0741005    3.0741005    3.0981220
           3.0981220    3.1290421    3.1290421    3.1449892    3.1449892
           3.1847725    3.1847725    3.2259030    3.2259030    3.2557968
           3.2557968    3.2844175    3.2844175    3.3051056    3.3051056

           3.3451530    3.3451530    3.3918033    3.3918033    3.3988402
           3.3988402    3.4370792    3.4370792    3.4909932    3.4909932
           3.5188929    3.5188929    3.5889745    3.5889745    3.5965600
           3.5965600    3.6267582    3.6267582    3.6361999    3.6361999
           3.6705206    3.6705206    3.6865218    3.6865218    3.7345250
           3.7345250    3.7390204    3.7390204    3.7427807    3.7427807
           3.8053561    3.8053561    3.8253130    3.8253130    3.8325843
           3.8325843    3.8474493    3.8474493    3.9270252    3.9270252

           3.9752944    3.9752944    4.1007315    4.1007315    4.1086348
           4.1086348    4.1625271    4.1625271    4.2000139    4.2000139
           4.2163117    4.2163117    4.2470428    4.2470428    4.2507032
           4.2507032    4.3003669    4.3003669    4.3279774    4.3279774
           4.3924614    4.3924614    4.4091852    4.4091852    4.4327939
           4.4327939    4.4481577    4.4481577    4.4771085    4.4771085

       ********************************************************

------- case.scf2 --------
:GMA  : POTENTIAL AND CHARGE CUT-OFF  12.00 Ry**.5




:POS001: at.nr.  -1 position = 0.00000 0.89750 0.25000  multiplicity =  2

       lmmax 16
       lm=   0 0  1 0  2 0  2 2  3 0  3 2  4 0  4 2  4 4  5 0  5 2  5 4  6 0  6 2  6 4  6 6
:FER gutzwiller fermi energy   0.54188
:EORB         -0.242717448
:SUM sum of gutz band energies        -13.032051125

:CHA001: total charge inside sphere   1 =     9.462457
:PCS001: partial charges sphere =  1 s,p,d,f,px,py,pz,d-z2,d-x2y2,d-xy,d-xz,d-yz 
:QTL001: 1.9409 5.0335 0.5064 1.9816 1.6746 1.6759 1.6830 0.0939 0.0951 0.1114 0.0952 0.1108

                      vxx         vyy         vzz       up to r

:VZZ001:             4.31899     2.56036    -6.87935       2.300

:CHA  : total charge inside unit cell =      13.000000

------- case.scfc --------

        1.ATOM      Pr1                  14 CORE STATES
       CORE-FORCE in mRy/a.u. = |F|      Fx             Fy             Fz
:FCO001:   1.ATOM    446.622873588014      0.000000000000      0.000000000000    446.622873588014

:1S 001: 1S               -3067.083828868 Ry
:2S 001: 2S                -492.835817942 Ry
:2PP001: 2P*               -465.935230746 Ry
:2P 001: 2P                -430.537639751 Ry
:3S 001: 3S                -105.923221960 Ry
:3PP001: 3P*                -94.461179765 Ry
:3P 001: 3P                 -87.453274485 Ry
:3DD001: 3D*                -67.380629687 Ry
:3D 001: 3D                 -65.869028735 Ry
:4S 001: 4S                 -20.603604669 Ry
:4PP001: 4P*                -16.310719451 Ry
:4P 001: 4P                 -14.783777393 Ry
:4DD001: 4D*                 -7.717581977 Ry
:4D 001: 4D                  -7.448333812 Ry

------- case.scfm --------
:CINT001 Core Integral Atom   1   45.998485

       DENSITY AT NUCLEUS
        JATOM        VALENCE       SEMI-CORE          CORE           TOTAL
:RTO001:   1      647.883324        0.000000   656824.181749   657472.065073
     
       CHARGES OF NEW CHARGE DENSITY
:NTO   : INTERSTITIAL CHARGE =     7.075602
:NPC   : PW Pseudocharge     =    16.892472
:NTO001: CHARGE SPHERE  1    =    55.460942

:NEC01: NUCLEAR AND ELECTRONIC CHARGE    118.00000   117.99749
     
       CHARGES OF OLD CHARGE DENSITY
:OTO   : INTERSTITIAL CHARGE =     7.042005
:OPC   : PW Pseudocharge     =    16.887754
:OTO001: CHARGE SPHERE  1    =    55.478997

:NEC02: NUCLEAR AND ELECTRONIC CHARGE    118.00000   118.00000
     
       CONVERGENCE TEST
:DTO001: DIFFERENCE IN SPHERE  1 =  0.0288004

:DIS  :  CHARGE DISTANCE       ( 0.0288004 for atom    1 spin 1)      0.0288004
 PW Mixed is          560
 
******************************************************
* MULTISECANT MIXING VER9 RELEASE 10.4.0              *
* Standard Mode with controls                        *
* Fixed density scale                                *
* Regularization       1.000E-04                     *
* Trust Upper Limit    5.000E+00                     *
* Max Number of Memory Steps    8                    *
******************************************************
 
:PWTMP   4.4873E+02  1.9467E+02  5.5066E+02
:PLANE:  PW TOTAL      4.3354 DISTAN   4.36E-03  1.01E-01 %
:CHARG:  CLM/ATOM   1381.9469 DISTAN   4.16E-02  3.01E-03 %
 
Step History
        DMIX         DMIXT        Red     Pred      Trust     Lambda    MagRel    MagAbs     Beta
  1   3.5000E-02   3.5000E-02 -1.00E+00  1.00E+00 -1.00E+01  1.00E+00  3.50E-02  3.50E-02  1.00E+00
  2   1.5000E-01   1.5000E-01  1.37E+00  1.00E+00 -1.00E+01  1.00E+00  1.50E-01  1.42E-03  1.00E+00
  3   7.1250E-02   7.1250E-02  2.95E+00  3.68E-01  3.00E+00  3.00E+00  2.84E-01  3.67E-03  8.00E-01
  4   1.1813E-01   1.1813E-01 -1.00E+00  3.61E-01  1.60E+00  1.00E+00  4.74E-02  1.81E-03  6.40E-01
:JACOBIANS    8.331E-03   4.493E-01
  
:NORMS:  1/Froebius, Min, Max, Used   0.2594E+00  0.9471E-01  0.2647E+00  0.2647E+00
:INFO :  Number of Memory Steps    3 Skipping    0
:INFO :  SLambda=    3.0000000000  Max    3.0000000000
:PREDicted Charge, CTotal, PW Trust    2.027E-03   4.053E-03   2.683E-03
:PREDicted DMix, Beta, BLim   4.3723E-02  2.5833E+00  1.3713E+00

Eigenvalues, unscaled except for SY+YY
   #     SY Real        SY Imag          SS             YY         SY+YY Real      SY+YY Imag
   1  -3.484195E-01   0.000000E+00   2.016028E-01   2.876363E+00   1.889112E+00   0.000000E+00
   2  -7.717972E-06   0.000000E+00   2.067612E-04   1.236135E-01   1.444619E-04   0.000000E+00
   3   6.785767E-03   0.000000E+00   5.843038E-06   2.387220E-05   8.581887E-02   0.000000E+00
 
:INFO :  Singular value  2.720E+00 Weight  1.000E+00 Projection  2.497E-02
:INFO :  Singular value  6.006E-02 Weight  1.000E+00 Projection -1.805E-02
:INFO :  Singular value  1.433E-04 Weight  1.989E-01 Projection -7.912E-02
:RANK :  ACTIVE   2.20/3  =  73.30 % ; YY RANK   2.01/3  =  66.89 %
 
:DLIM :  Beta Active  8.000E-01
:BLIM :  VZERO Control Off
:TRUST:  Step 9.12E-01  Charge 5.63E-02 (e) CTO  1.88E-01 (e) PW  2.63E-01 (e)
:DIRM :  MEMORY  3/8  SCALE   1.000 RED  1.10 PRED  0.36 NEXT  0.21 BETA  0.80
:TRAVE:  Charge 1.05E-03 (e) CTO  2.11E-03 (e) PW  1.39E-03 (e)
:DIRP :  |MSR1|= 4.706E-04 |PRATT|= 4.365E-03 ANGLE=  40.1 DEGREES
:DIRQ :  |MSR1|= 2.220E-03 |PRATT|= 4.162E-02 ANGLE=  16.4 DEGREES
:DIRT :  |MSR1|= 2.269E-03 |PRATT|= 4.185E-02 ANGLE=  18.2 DEGREES
:MIX  :   MSE1   REGULARIZATION:  2.88E-04 GREED: 0.07186  Newton 1.00  0.0542                
     
       CHARGES OF MIXED CHARGE DENSITY
:CTO   : INTERSTITIAL CHARGE =     7.043882
:CPC   : PW Pseudocharge     =    16.889394
:CTO001: CHARGE SPHERE  1    =    55.478059

:NEC03: NUCLEAR AND ELECTRONIC CHARGE    118.00000   118.00000

PW CHANGE     H    K    L      Current       Change    Residue
:PTO001:      0    0    0  4.34625779E-02  6.387E-06  8.504E-05
:PTO003:      0    2    0  1.26388948E-02  3.262E-07 -1.065E-05
:PTO004:     -1    1    0  6.32147910E-02  5.415E-06  1.438E-05
:PTO005:      0    2   -1 -7.39872486E-02 -5.615E-06 -2.711E-06
:PTO006:      0    0   -2 -3.83004059E-02 -3.721E-06 -1.561E-05
:PTO007:     -1    1   -1 -8.14111683E-02 -7.216E-06 -2.401E-05
:PTO008:      0    2   -2 -1.38832438E-02 -9.642E-07  1.901E-06
:PTO009:     -1    1   -2 -7.18997209E-02 -4.976E-06  3.498E-06
:PTO011:     -1    3    0 -1.21884557E-02 -1.968E-06 -1.337E-05
:PTO012:     -1    3   -1 -5.57299943E-02 -4.961E-06  4.307E-06
:PTO013:      0    4    0 -1.04974165E-02 -1.042E-06  1.005E-07
:PTO014:      0    2   -3  2.38158132E-02  2.586E-06 -1.088E-06

:ENE  : ********** TOTAL ENERGY IN Ry =       -36944.21229196

       TOTAL FORCE IN mRy/a.u. = |F|     Fx             Fy             Fz     with/without FOR in case.in2
:FOR001:   1.ATOM         19.043          0.000          0.000        -19.043 partial forces
       TOTAL FORCE WITH RESPECT TO GLOBAL CARTESIAN COORDINATES:
:FCA001:   1.ATOM                         0.000        -19.043          0.000 partial forces
       TOTAL FORCE WITH RESPECT TO THE GLOBAL COORDINATE SYSTEM:
:FGL001:   1.ATOM                 0.000000000   -19.043126493     0.000000000 partial forces

------- case.scf0 --------
 Flat Integration
 New Mode for Coulomb Integral
 Consistent 3/8+Simpson combinations
 Extension of core to zero
 LDM version in phi
 Fifth-order quadrature in outwin


            ---------
:ITE045: 45. ITERATION
            ---------

:NATO :    1 INDEPENDENT AND    2 TOTAL ATOMS IN UNITCELL
       SUBSTANCE: aU                                                          

       LATTICE                      = CXY 
:POT  : POTENTIAL OPTION EX_LDA EC_LDA VX_LDA VC_LDA
:LAT  : LATTICE CONSTANTS=  6.76640 13.73073 11.85402    1.571    1.571    1.571
:VOL  : UNIT CELL VOLUME =     550.66398
       MODE OF CALCULATION IS       = RELA
       NON-SPINPOLARIZED CALCULATION
:IFFT  : FFT-parameters:   54  108   96 Factor: 2.00


   CONVERGENCE PARAMETER FOR PSEUDOCHARGE: NCON=  9
   MAXIMAL VALUE OF RMT(JATOM)*ABSK(NKK) : RK  =27.59515


:VKCOUL :  VK-COUL convergence: 0.631E-07
       ATOMNUMBER=  1 Pr1        VCOUL-ZERO = -0.56589E-01
:EFG001:                        EFG         =    -6.70518   *10**21  V / m**2
                               V20  TOT/SRF=    -5.80686    -0.01834
                               V22  TOT/SRF=     0.85800     0.00299
                               V22M TOT/SRF=     0.00000     0.00000
                               V21  TOT/SRF=     0.00000     0.00000
                               V21M TOT/SRF=     0.00000     0.00000

              4.21059    0.00000    0.00000        4.21059    0.00000    0.00000
              0.00000    2.49459    0.00000        0.00000    2.49459    0.00000
              0.00000    0.00000   -6.70518        0.00000    0.00000   -6.70518

         MAIN DIRECTIONS OF THE EFG   1.0000  0.0000  0.0000
                                      0.0000  1.0000  0.0000
                                      0.0000  0.0000  1.0000
:ANG001:  ANGLE WITH OLD X-AXIS =         0.0

:ETA001:                         ASYMM. ETA =     0.25592


     HELLMANN-FEYNMAN-FORCE IN mRy/a.u. = |F|  Fx       Fy             Fz
:FHF001:   1.ATOM    465.966550466788      0.000000000000      0.000000000000   -465.966550466788

:FIT001: LUSE= 13 SIGMA OF V-XC FIT FOR ATOM  1  0.8110798E-05
:FIT001: LUSE= 13 SIGMA OF V-XC FIT FOR ATOM  1  0.8110798E-05
:DEN  : DENSITY INTEGRAL  =        -14135.35574636   (Ry)
       ELS_POTENTIAL_AT Z=0 and Z=0.5:   0.65485   0.65485
       ELS_POTENTIAL_AT Y=0 and Y=0.5:   0.07930   0.07930
:VZERO:v0,v0c,v0x   0.11394   0.65485  -0.54090 v5,v5c,v5x   0.11394   0.65485  -0.54090
:VZERY:v0,v0c,v0x  -0.64456   0.07930  -0.72386 v5,v5c,v5x  -0.64456   0.07930  -0.72386
:VZERX:v0,v0c,v0x  -1.06783  -0.36791  -0.69992 v5,v5c,v5x  -1.06783  -0.36791  -0.69992

------- case.scf1 --------
:LMAX-WF:   10   Non-Spherical LMAX:   4

          ATOMIC SPHERE DEPENDENT PARAMETERS FOR ATOM  Pr1       
:e__0001: OVERALL ENERGY PARAMETER IS    0.3273
          OVERALL BASIS SET ON ATOM IS LAPW
:E0_0001: E( 0)=    0.3273
             APW+lo
:E0_0001: E( 0)=   -2.1627   E(BOTTOM)=   -2.798   E(TOP)=   -1.527  4  5   162
             LOCAL ORBITAL
:E1_0001: E( 1)=    0.7273
             APW+lo
:E1_0001: E( 1)=   -0.6930   E(BOTTOM)=   -1.651   E(TOP)=    0.265  3  4   202
             LOCAL ORBITAL
:E3_0001: E( 3)=    0.4956   E(BOTTOM)=    0.287   E(TOP)=    0.704  0  1   127
             APW+lo
:E2_0001: E( 2)=    0.3273   E(BOTTOM)=    0.091   E(TOP)= -200.000  2 -1    96
             APW+lo

       K=   0.06250   0.00000   0.06250            1
:RKM  : MATRIX SIZE   509LOs:  40  RKM= 8.50  WEIGHT= 4.00  PGR:    
       EIGENVALUES ARE:
:EIG00001:      -2.1274133   -2.1191353   -0.8369997   -0.7852166   -0.7735470
:EIG00006:      -0.7692922   -0.7648416   -0.7645299    0.2915688    0.4363050
:EIG00011:       0.5123988    0.5129322    0.5131984    0.5162155    0.5173538
:EIG00016:       0.5256302    0.5290316    0.5295093    0.5318010    0.5332684
:EIG00021:       0.5368427    0.5393186    0.5400097    0.5425840    0.5849659
:EIG00026:       0.5984445    0.6583029    0.6830636    0.6912043    0.7329450
:EIG00031:       0.7475801    0.8148169    0.8576232    0.8923690    1.1367997
:EIG00036:       1.1893117    1.2773407    1.2810806    1.4218479    1.4732020
:EIG00041:       1.5069886    1.6087343    1.6665830    1.6883648    1.7584234
:EIG00046:       1.8362444    1.8428765    1.8761411    1.9445355    2.0172116
 
:EIG00051:       2.0680229    2.1217768    2.1399775    2.1877780    2.2106713
:EIG00056:       2.2956013    2.3354899    2.3497347    2.4405373    2.4726233
:EIG00061:       2.5336986    2.5675142    2.6821437    2.7691598    2.7831554
:EIG00066:       2.8707522    2.9066576    2.9207162    2.9300289    3.0191780
:EIG00071:       3.0285828    3.0740177    3.0980358    3.1295608    3.1440823
:EIG00076:       3.1845687    3.2246919    3.2556703    3.2843847    3.3046638
:EIG00081:       3.3448910    3.3918111    3.3987483    3.4368664    3.4909640
:EIG00086:       3.5187872    3.5888741    3.5965992    3.6267939    3.6361192
:EIG00091:       3.6705284    3.6864544    3.7350272    3.7389176    3.7425399
:EIG00096:       3.8053839    3.8257770    3.8319342    3.8473875    3.9270232
 
:EIG00101:       3.9754147    4.1033507    4.1065577    4.1616765    4.2001325
:EIG00106:       4.2161876    4.2472187    4.2495596    4.3001774    4.3278776
:EIG00111:       4.3923849    4.4090305    4.4324578    4.4480916    4.4770518
:EIG00116:       4.5394063    4.6095739    4.6470739    4.6474292    4.6752449
:EIG00121:       4.7068057    4.7957646    4.7972329    4.8337827    4.8869310
:EIG00126:       4.9499395    4.9582761    4.9990384    5.0484258    5.0688263
:EIG00131:       5.0929693    5.1382647    5.1734494    5.1895357    5.2038508
:EIG00136:       5.2587855    5.3024114    5.3496245    5.3629879    5.3933424
:EIG00141:       5.4044469    5.4091418    5.4575048    5.5104356    5.5175997
:EIG00146:       5.5395789    5.5612684    5.5656428    5.5681791    5.6663724
 
:EIG00151:       5.6731110    5.7048419    5.7790666    5.8042726    5.8206856
:EIG00156:       5.9309125    6.0059786    6.0225556    6.0651161    6.0805058
:EIG00161:       6.1061560    6.1841863    6.2234495    6.2285463    6.2347432
:EIG00166:       6.3055386    6.3396560    6.3451215    6.3729839    6.3917457
:EIG00171:       6.4110443    6.4750006    6.4924759    6.5116952    6.5661721
:EIG00176:       6.5662587    6.6058427    6.6296662    6.6642823    6.6776636
:EIG00181:       6.7519598    6.7664632    6.7726899    6.7997264    6.8370850
:EIG00186:       6.8405053    6.8537833    6.9323347    6.9415201    6.9486662
:EIG00191:       7.0010060    7.0120683    7.0570316    7.0707676    7.1019548
:EIG00196:       7.1171816    7.1174708    7.1523555    7.1580384    7.2029589
 
:EIG00201:       7.2239051    7.2824675    7.2843940    7.2925248    7.3449876
:EIG00206:       7.3541852    7.3697800    7.4251741    7.4538513    7.4825280
:EIG00211:       7.4866428    7.5323249    7.5359853    7.5530418    7.5660639
:EIG00216:       7.6012742    7.6107549    7.6123497    7.6401009    7.6827940
:EIG00221:       7.7070708    7.7518768    7.7545699    7.7620030    7.7690563
:EIG00226:       7.7801059    7.8171596    7.8224805    7.8609763    7.9202750
:EIG00231:       7.9222259    7.9656508    8.0060796    8.0148467    8.0256758
       ********************************************************

:KPT   :      NUMBER OF K-POINTS:   288

------- case.scfso --------
   0.0   0.0 angle (M,z), angle (M,x) deg
 
        SPIN-ORBIT EIGENVALUES:
     K=   0.06250   0.00000   0.06250            1
      MATRIX SIZE=  470   WEIGHT= 4.00
     EIGENVALUES ARE:
          -2.1274134   -2.1274134   -2.1191353   -2.1191353   -0.9404293
          -0.9404293   -0.9157738   -0.9157738   -0.7510598   -0.7510598
          -0.7060353   -0.7060353   -0.7037079   -0.7037079   -0.6981429
          -0.6981429    0.2915928    0.2915928    0.4361716    0.4361716
           0.5040575    0.5040575    0.5062193    0.5062193    0.5075610
           0.5075610    0.5084992    0.5084992    0.5100963    0.5100963
           0.5123625    0.5123625    0.5308229    0.5308229    0.5363557
           0.5363557    0.5384476    0.5384476    0.5393439    0.5393439

           0.5427015    0.5427015    0.5458636    0.5458636    0.5465895
           0.5465895    0.5494194    0.5494194    0.5853316    0.5853316
           0.5982188    0.5982188    0.6581958    0.6581958    0.6805319
           0.6805319    0.6933891    0.6933892    0.7334816    0.7334816
           0.7475557    0.7475557    0.8146135    0.8146135    0.8579353
           0.8579353    0.8925110    0.8925110    1.1368026    1.1368026
           1.1895047    1.1895047    1.2772997    1.2772997    1.2811197
           1.2811197    1.4213335    1.4213335    1.4724967    1.4724967

           1.5069860    1.5069860    1.6063051    1.6063051    1.6659776
           1.6659776    1.6892774    1.6892774    1.7590322    1.7590322
           1.8345659    1.8345659    1.8410472    1.8410472    1.8784736
           1.8784736    1.9449286    1.9449286    2.0167085    2.0167085
           2.0676842    2.0676842    2.1195053    2.1195053    2.1415458
           2.1415458    2.1893919    2.1893919    2.2114260    2.2114260
           2.2954379    2.2954379    2.3354785    2.3354785    2.3502635
           2.3502635    2.4404482    2.4404482    2.4723697    2.4723697

           2.5369551    2.5369551    2.5677055    2.5677055    2.6820724
           2.6820724    2.7692645    2.7692645    2.7832607    2.7832607
           2.8704119    2.8704119    2.9066425    2.9066425    2.9207840
           2.9207840    2.9302546    2.9302546    3.0193409    3.0193409
           3.0286716    3.0286716    3.0740678    3.0740678    3.0980827
           3.0980827    3.1289845    3.1289845    3.1449455    3.1449455
           3.1846975    3.1846975    3.2258771    3.2258771    3.2557454
           3.2557454    3.2843951    3.2843951    3.3050530    3.3050530

           3.3451045    3.3451045    3.3918260    3.3918260    3.3988217
           3.3988217    3.4370255    3.4370255    3.4909883    3.4909883
           3.5189086    3.5189086    3.5889734    3.5889734    3.5965869
           3.5965869    3.6267757    3.6267757    3.6361672    3.6361672
[...]

:ENE  : ********** TOTAL ENERGY IN Ry =       -36944.21364028

       TOTAL FORCE IN mRy/a.u. = |F|     Fx             Fy             Fz     with/without FOR in case.in2
:FOR001:   1.ATOM         18.414          0.000          0.000        -18.414 partial forces
       TOTAL FORCE WITH RESPECT TO GLOBAL CARTESIAN COORDINATES:
:FCA001:   1.ATOM                         0.000        -18.414          0.000 partial forces
       TOTAL FORCE WITH RESPECT TO THE GLOBAL COORDINATE SYSTEM:
:FGL001:   1.ATOM                 0.000000000   -18.414330761     0.000000000 partial forces

------- case.scf0 --------
 Flat Integration
 New Mode for Coulomb Integral
 Consistent 3/8+Simpson combinations
 Extension of core to zero
 LDM version in phi
 Fifth-order quadrature in outwin


            ---------
:ITE060: 60. ITERATION
            ---------

:NATO :    1 INDEPENDENT AND    2 TOTAL ATOMS IN UNITCELL
       SUBSTANCE: aU                                                          

       LATTICE                      = CXY 
:POT  : POTENTIAL OPTION EX_LDA EC_LDA VX_LDA VC_LDA
:LAT  : LATTICE CONSTANTS=  6.76640 13.73073 11.85402    1.571    1.571    1.571
:VOL  : UNIT CELL VOLUME =     550.66398
       MODE OF CALCULATION IS       = RELA
       NON-SPINPOLARIZED CALCULATION
:IFFT  : FFT-parameters:   54  108   96 Factor: 2.00


   CONVERGENCE PARAMETER FOR PSEUDOCHARGE: NCON=  9
   MAXIMAL VALUE OF RMT(JATOM)*ABSK(NKK) : RK  =27.59515


:VKCOUL :  VK-COUL convergence: 0.613E-07
       ATOMNUMBER=  1 Pr1        VCOUL-ZERO = -0.57524E-01
:EFG001:                        EFG         =    -6.82414   *10**21  V / m**2
                               V20  TOT/SRF=    -5.90988    -0.01844
                               V22  TOT/SRF=     0.93089     0.00281
                               V22M TOT/SRF=     0.00000     0.00000
                               V21  TOT/SRF=     0.00000     0.00000
                               V21M TOT/SRF=     0.00000     0.00000

              4.34296    0.00000    0.00000        4.34296    0.00000    0.00000
              0.00000    2.48118    0.00000        0.00000    2.48118    0.00000
              0.00000    0.00000   -6.82414        0.00000    0.00000   -6.82414

         MAIN DIRECTIONS OF THE EFG   1.0000  0.0000  0.0000
                                      0.0000  1.0000  0.0000
                                      0.0000  0.0000  1.0000
:ANG001:  ANGLE WITH OLD X-AXIS =         0.0

:ETA001:                         ASYMM. ETA =     0.27282


     HELLMANN-FEYNMAN-FORCE IN mRy/a.u. = |F|  Fx       Fy             Fz
:FHF001:   1.ATOM    411.555832862206      0.000000000000      0.000000000000   -411.555832862206

:FIT001: LUSE= 13 SIGMA OF V-XC FIT FOR ATOM  1  0.7882016E-05
:FIT001: LUSE= 13 SIGMA OF V-XC FIT FOR ATOM  1  0.7882016E-05
:DEN  : DENSITY INTEGRAL  =        -14133.38189929   (Ry)
       ELS_POTENTIAL_AT Z=0 and Z=0.5:   0.65653   0.65653
       ELS_POTENTIAL_AT Y=0 and Y=0.5:   0.07895   0.07895
:VZERO:v0,v0c,v0x   0.11495   0.65653  -0.54158 v5,v5c,v5x   0.11495   0.65653  -0.54158
:VZERY:v0,v0c,v0x  -0.64540   0.07895  -0.72435 v5,v5c,v5x  -0.64540   0.07895  -0.72435
:VZERX:v0,v0c,v0x  -1.06911  -0.36850  -0.70060 v5,v5c,v5x  -1.06911  -0.36850  -0.70060

------- case.scf1 --------
:LMAX-WF:   10   Non-Spherical LMAX:   4

          ATOMIC SPHERE DEPENDENT PARAMETERS FOR ATOM  Pr1       
:e__0001: OVERALL ENERGY PARAMETER IS    0.3273
          OVERALL BASIS SET ON ATOM IS LAPW
:E0_0001: E( 0)=    0.3273
             APW+lo
:E0_0001: E( 0)=   -2.1713   E(BOTTOM)=   -2.805   E(TOP)=   -1.537  4  5   164
             LOCAL ORBITAL
:E1_0001: E( 1)=    0.7273
             APW+lo
:E1_0001: E( 1)=   -0.7006   E(BOTTOM)=   -1.656   E(TOP)=    0.255  3  4   195
             LOCAL ORBITAL
:E3_0001: E( 3)=    0.4811   E(BOTTOM)=    0.274   E(TOP)=    0.688  0  1   124
             APW+lo
:E2_0001: E( 2)=    0.3273   E(BOTTOM)=    0.086   E(TOP)= -200.000  2 -1   102
             APW+lo

       K=   0.06250   0.00000   0.06250            1
:RKM  : MATRIX SIZE   509LOs:  40  RKM= 8.50  WEIGHT= 4.00  PGR:    
       EIGENVALUES ARE:
:EIG00001:      -2.1355295   -2.1273349   -0.8427374   -0.7913524   -0.7797867
:EIG00006:      -0.7757524   -0.7712410   -0.7710336    0.2914174    0.4353838
:EIG00011:       0.4994302    0.4997565    0.5000287    0.5028776    0.5040857
:EIG00016:       0.5114805    0.5148304    0.5154049    0.5176107    0.5193177
:EIG00021:       0.5224919    0.5250639    0.5256768    0.5282451    0.5811805
:EIG00026:       0.5959548    0.6562185    0.6808528    0.6889171    0.7307261
:EIG00031:       0.7451493    0.8122106    0.8546188    0.8891483    1.1340827
:EIG00036:       1.1883134    1.2764403    1.2803627    1.4212807    1.4727049
:EIG00041:       1.5059428    1.6076593    1.6652943    1.6871877    1.7564473
:EIG00046:       1.8350653    1.8422482    1.8748137    1.9435421    2.0152818
 
:EIG00051:       2.0667065    2.1205763    2.1391621    2.1859236    2.2093159
:EIG00056:       2.2947941    2.3331352    2.3492332    2.4394472    2.4711192
:EIG00061:       2.5319200    2.5668559    2.6808420    2.7680165    2.7830158
:EIG00066:       2.8701402    2.9051915    2.9191479    2.9294149    3.0184816
:EIG00071:       3.0285526    3.0735517    3.0974927    3.1288043    3.1434981
:EIG00076:       3.1835870    3.2243443    3.2549913    3.2840745    3.3039564
:EIG00081:       3.3442724    3.3919870    3.3985005    3.4361941    3.4908662
:EIG00086:       3.5189022    3.5887967    3.5968734    3.6269694    3.6356422
:EIG00091:       3.6706992    3.6861325    3.7341927    3.7389141    3.7418063
:EIG00096:       3.8054663    3.8253878    3.8319897    3.8475781    3.9272982
 
:EIG00101:       3.9746709    4.1031920    4.1057925    4.1616337    4.2000239
:EIG00106:       4.2160755    4.2470924    4.2495563    4.3000507    4.3278642
:EIG00111:       4.3918168    4.4092815    4.4317920    4.4487684    4.4766106
:EIG00116:       4.5387966    4.6084424    4.6461991    4.6471265    4.6742597
:EIG00121:       4.7068013    4.7953970    4.7963415    4.8334089    4.8871001
:EIG00126:       4.9490541    4.9578318    4.9985300    5.0482395    5.0682334
:EIG00131:       5.0930364    5.1381086    5.1730866    5.1894823    5.2034608
:EIG00136:       5.2588367    5.3022294    5.3497199    5.3621634    5.3931845
:EIG00141:       5.4039810    5.4087266    5.4570488    5.5108507    5.5165708
:EIG00146:       5.5395830    5.5611956    5.5656159    5.5684754    5.6665009
 
:EIG00151:       5.6720624    5.7051129    5.7791222    5.8040657    5.8204815
:EIG00156:       5.9310297    6.0057821    6.0219078    6.0648665    6.0801268
:EIG00161:       6.1057096    6.1843927    6.2232730    6.2278299    6.2342776
:EIG00166:       6.3051104    6.3394753    6.3448516    6.3728954    6.3914262
:EIG00171:       6.4105894    6.4745784    6.4919786    6.5108888    6.5649688
:EIG00176:       6.5656352    6.6052557    6.6285950    6.6638506    6.6769147
:EIG00181:       6.7512789    6.7657952    6.7724449    6.7999406    6.8363020
:EIG00186:       6.8404498    6.8538772    6.9317012    6.9412760    6.9482252
:EIG00191:       7.0009235    7.0119561    7.0567867    7.0706467    7.1014170
:EIG00196:       7.1167427    7.1174890    7.1523392    7.1578114    7.2026339
 
:EIG00201:       7.2242546    7.2826163    7.2845366    7.2922459    7.3442570
:EIG00206:       7.3537975    7.3695570    7.4252568    7.4537430    7.4821031
:EIG00211:       7.4867346    7.5321030    7.5358562    7.5528991    7.5659589
:EIG00216:       7.6010243    7.6105842    7.6122898    7.6402032    7.6831052
:EIG00221:       7.7073654    7.7520656    7.7548015    7.7621463    7.7693714
:EIG00226:       7.7801684    7.8173145    7.8226203    7.8610994    7.9203951
:EIG00231:       7.9222920    7.9657812    8.0065949    8.0146329    8.0257269
       ********************************************************

:KPT   :      NUMBER OF K-POINTS:   288

------- case.scfso --------
   0.0   0.0 angle (M,z), angle (M,x) deg
 
        SPIN-ORBIT EIGENVALUES:
     K=   0.06250   0.00000   0.06250            1
      MATRIX SIZE=  470   WEIGHT= 4.00
     EIGENVALUES ARE:
          -2.1355296   -2.1355296   -2.1273349   -2.1273349   -0.9468902
          -0.9468902   -0.9225248   -0.9225248   -0.7568121   -0.7568121
          -0.7121983   -0.7121983   -0.7098504   -0.7098504   -0.7043678
          -0.7043678    0.2914410    0.2914410    0.4352233    0.4352233
           0.4907207    0.4907207    0.4926099    0.4926099    0.4938927
           0.4938927    0.4948700    0.4948700    0.4962926    0.4962926
           0.4980951    0.4980951    0.5178808    0.5178808    0.5225017
           0.5225017    0.5243796    0.5243796    0.5254710    0.5254710

           0.5287985    0.5287985    0.5317505    0.5317505    0.5325373
           0.5325373    0.5351963    0.5351963    0.5812889    0.5812889
           0.5956441    0.5956441    0.6559908    0.6559908    0.6783152
           0.6783152    0.6911337    0.6911337    0.7312692    0.7312692
           0.7451223    0.7451223    0.8120031    0.8120032    0.8549376
           0.8549376    0.8892952    0.8892952    1.1340898    1.1340898
           1.1885029    1.1885029    1.2764002    1.2764002    1.2803983
           1.2803983    1.4207604    1.4207604    1.4719931    1.4719931

           1.5059437    1.5059437    1.6052089    1.6052089    1.6647129
           1.6647129    1.6880996    1.6880996    1.7570641    1.7570641
           1.8334938    1.8334938    1.8402421    1.8402421    1.8772107
           1.8772107    1.9439121    1.9439121    2.0147993    2.0147993
           2.0663646    2.0663646    2.1183376    2.1183376    2.1406898
           2.1406898    2.1876192    2.1876192    2.2100254    2.2100254
           2.2945981    2.2945981    2.3332287    2.3332287    2.3496878
           2.3496878    2.4393505    2.4393505    2.4708601    2.4708601

           2.5351916    2.5351916    2.5670394    2.5670394    2.6807719
           2.6807719    2.7681244    2.7681244    2.7831184    2.7831184
           2.8697860    2.8697860    2.9051822    2.9051822    2.9192337
           2.9192337    2.9296348    2.9296348    3.0186489    3.0186489
           3.0286369    3.0286369    3.0736027    3.0736027    3.0975388
           3.0975388    3.1282409    3.1282409    3.1443482    3.1443482
           3.1837160    3.1837160    3.2255257    3.2255257    3.2550667
           3.2550667    3.2840811    3.2840811    3.3043515    3.3043515

           3.3444863    3.3444863    3.3920015    3.3920015    3.3985710
           3.3985710    3.4363543    3.4363543    3.4908901    3.4908901
           3.5190242    3.5190242    3.5888959    3.5888959    3.5968604
           3.5968604    3.6269503    3.6269503    3.6356906    3.6356906
           3.6707087    3.6707087    3.6861763    3.6861763    3.7336618
           3.7336618    3.7389629    3.7389629    3.7420176    3.7420176
           3.8054457    3.8054457    3.8249320    3.8249320    3.8326071
           3.8326071    3.8476602    3.8476602    3.9273290    3.9273290

           3.9744952    3.9744952    4.1003528    4.1003528    4.1080465
           4.1080465    4.1624706    4.1624706    4.1998927    4.1998927
           4.2161950    4.2161950    4.2469788    4.2469788    4.2506447
           4.2506447    4.3002315    4.3002315    4.3279696    4.3279696
           4.3918579    4.3918579    4.4094521    4.4094521    4.4320914
           4.4320914    4.4488839    4.4488839    4.4766311    4.4766311

       ********************************************************

------- case.scf2 --------
:GMA  : POTENTIAL AND CHARGE CUT-OFF  12.00 Ry**.5




:POS001: at.nr.  -1 position = 0.00000 0.89750 0.25000  multiplicity =  2

       lmmax 16
       lm=   0 0  1 0  2 0  2 2  3 0  3 2  4 0  4 2  4 4  5 0  5 2  5 4  6 0  6 2  6 4  6 6
:FER gutzwiller fermi energy   0.54119
:EORB         -0.306884893
:SUM sum of gutz band energies        -13.153407759

:CHA001: total charge inside sphere   1 =     9.468395
:PCS001: partial charges sphere =  1 s,p,d,f,px,py,pz,d-z2,d-x2y2,d-xy,d-xz,d-yz 
:QTL001: 1.9417 5.0396 0.5143 1.9727 1.6766 1.6780 1.6850 0.0954 0.0976 0.1126 0.0966 0.1121

                      vxx         vyy         vzz       up to r

:VZZ001:             4.32566     2.46725    -6.79290       2.300

:CHA  : total charge inside unit cell =      13.000000

------- case.scfc --------

        1.ATOM      Pr1                  14 CORE STATES
       CORE-FORCE in mRy/a.u. = |F|      Fx             Fy             Fz
:FCO001:   1.ATOM    393.080946471480      0.000000000000      0.000000000000    393.080946471480

:1S 001: 1S               -3067.102355712 Ry
:2S 001: 2S                -492.856223982 Ry
:2PP001: 2P*               -465.955219376 Ry
:2P 001: 2P                -430.557784091 Ry
:3S 001: 3S                -105.946675772 Ry
:3PP001: 3P*                -94.484487920 Ry
:3P 001: 3P                 -87.476684282 Ry
:3DD001: 3D*                -67.403686034 Ry
:3D 001: 3D                 -65.892131031 Ry
:4S 001: 4S                 -20.625074120 Ry
:4PP001: 4P*                -16.331883766 Ry
:4P 001: 4P                 -14.804533568 Ry
:4DD001: 4D*                 -7.737473115 Ry
:4D 001: 4D                  -7.468074927 Ry

------- case.scfm --------
:CINT001 Core Integral Atom   1   45.998498

       DENSITY AT NUCLEUS
        JATOM        VALENCE       SEMI-CORE          CORE           TOTAL
:RTO001:   1      649.179985        0.000000   656824.331672   657473.511657
     
       CHARGES OF NEW CHARGE DENSITY
:NTO   : INTERSTITIAL CHARGE =     7.063889
:NPC   : PW Pseudocharge     =    16.902156
:NTO001: CHARGE SPHERE  1    =    55.466893

:NEC01: NUCLEAR AND ELECTRONIC CHARGE    118.00000   117.99768
     
       CHARGES OF OLD CHARGE DENSITY
:OTO   : INTERSTITIAL CHARGE =     7.067211
:OPC   : PW Pseudocharge     =    16.908685
:OTO001: CHARGE SPHERE  1    =    55.466395

:NEC02: NUCLEAR AND ELECTRONIC CHARGE    118.00000   118.00000
     
       CONVERGENCE TEST
:DTO001: DIFFERENCE IN SPHERE  1 =  0.0008389

:DIS  :  CHARGE DISTANCE       ( 0.0008389 for atom    1 spin 1)      0.0008389
 PW Mixed is          560
 
******************************************************
* MULTISECANT MIXING VER9 RELEASE 10.4.0              *
* Standard Mode with controls                        *
* Fixed density scale                                *
* Regularization       1.000E-04                     *
* Trust Upper Limit    5.000E+00                     *
* Max Number of Memory Steps    8                    *
******************************************************
 
:PWTMP   4.4873E+02  1.9467E+02  5.5066E+02
:PLANE:  PW TOTAL      4.3418 DISTAN   2.52E-04  5.79E-03 %
:CHARG:  CLM/ATOM   1381.9548 DISTAN   1.24E-03  8.96E-05 %
 
Step History
        DMIX         DMIXT        Red     Pred      Trust     Lambda    MagRel    MagAbs     Beta
 12   7.2541E-02   7.2541E-02  1.05E+00  6.26E-02  2.74E-01  4.03E-01  2.62E-03  1.74E-04  9.42E-01
 13   1.4848E-01   1.4848E-01  8.38E-01  2.47E-01  1.39E-01  1.28E-01  8.87E-02  6.21E-03  7.53E-01
 14   7.8559E-02   7.8559E-02  6.72E-01  6.39E-02  4.25E-01  2.23E-01  1.51E-01  8.89E-03  9.42E-01
 15   1.3674E-01   1.3674E-01  7.88E-02  4.94E-02  6.08E-01  2.32E-01  3.72E-01  1.47E-02  1.00E+00
 16   7.3607E-02   7.3607E-02  7.83E-01  5.04E-01  1.00E+00  3.99E-01  3.99E-01  1.24E-03  1.00E+00
 17   6.0868E-02   5.2053E-02  2.30E+00  4.40E-01  1.28E+00  4.81E-01  1.28E+00  3.11E-03  8.00E-01
 18   1.5217E-01   1.5217E-01  7.14E-01  8.34E-02  1.09E+00  4.44E-01  1.70E-01  9.53E-04  9.44E-01
 19   8.3105E-02   8.3105E-02  2.93E-01  5.55E-02  1.45E+00  4.05E-02  3.89E-01  1.55E-03  1.00E+00
 20   6.1389E-02   6.1389E-02 -1.00E+00  1.92E-01  1.94E+00  1.00E+00  3.48E-01  4.08E-04  9.54E-01
:JACOBIANS    7.296E-01   2.852E+00
  
:NORMS:  1/Froebius, Min, Max, Used   0.1466E+01  0.4226E+00  0.1541E+01  0.1541E+01
:INFO :  Number of Memory Steps    8 Skipping   11
:INFO :  SLambda=    0.1051208195  Max    0.7758680125
:PREDicted Charge, CTotal, PW Trust    3.988E-04   7.977E-04   5.442E-04
:PREDicted DMix, Beta, BLim   1.0156E-01  3.0431E+00  9.8551E-01

Eigenvalues, unscaled except for SY+YY
   #     SY Real        SY Imag          SS             YY         SY+YY Real      SY+YY Imag
   1  -1.196661E+00   0.000000E+00   1.637283E+01   6.894916E+00   6.764495E+00   0.000000E+00
   2   8.966983E-01   0.000000E+00   8.168724E-01   9.953975E-01   1.088882E+00   0.000000E+00
   3   6.512267E-05   4.137336E-04   6.769813E-04   1.092828E-01   1.146776E-01   0.000000E+00
   4   6.512267E-05  -4.137336E-04   4.757193E-05   2.895307E-04   3.130367E-04   0.000000E+00
   5   2.355828E-05   0.000000E+00   3.181432E-06   7.214868E-05   7.399175E-05   0.000000E+00
   6   7.480830E-06   0.000000E+00   7.629604E-07   2.363706E-05   2.487236E-05   0.000000E+00
   7   1.089735E-06   7.518310E-07   3.774570E-07   1.137856E-05   9.286851E-06   9.150447E-11
   8   1.089735E-06  -7.518310E-07   6.885501E-08   7.184967E-06   9.286851E-06  -9.150447E-11
 
:INFO :  Singular value  6.820E+00 Weight  1.000E+00 Projection -4.739E-04
:INFO :  Singular value  1.094E+00 Weight  1.000E+00 Projection -1.676E-05
:INFO :  Singular value  1.132E-01 Weight  1.000E+00 Projection -2.698E-04
:INFO :  Singular value  3.147E-04 Weight  1.724E-01 Projection -2.548E-05
:INFO :  Singular value  7.407E-05 Weight  1.141E-02 Projection  1.507E-05
:INFO :  Singular value  2.631E-05 Weight  1.454E-03 Projection  2.255E-05
:INFO :  Singular value  1.076E-05 Weight  2.436E-04 Projection -5.381E-06
:INFO :  Singular value  7.526E-06 Weight  1.191E-04 Projection  1.999E-06
:RANK :  ACTIVE   3.19/8  =  39.82 % ; YY RANK   3.16/8  =  39.53 %
 
:BLIM :  VZERO Control Off
:TRUST:  Step 1.79E+00  Charge 2.73E-03 (e) CTO  6.02E-03 (e) PW  8.80E-03 (e)
:DIRM :  MEMORY  8/8  SCALE   1.000 RED  1.08 PRED  0.19 NEXT  0.18 
:TRAVE:  Charge 3.16E-04 (e) CTO  6.32E-04 (e) PW  4.47E-04 (e)
:DIRP :  |MSR1|= 1.655E-04 |PRATT|= 2.516E-04 ANGLE=  19.3 DEGREES
:DIRQ :  |MSR1|= 7.844E-04 |PRATT|= 1.238E-03 ANGLE=  35.1 DEGREES
:DIRT :  |MSR1|= 8.017E-04 |PRATT|= 1.264E-03 ANGLE=  34.6 DEGREES
:MIX  :   MSD1   REGULARIZATION:  6.89E-04 GREED: 0.09095  Newton 1.00  0.6344                
     
       CHARGES OF MIXED CHARGE DENSITY
:CTO   : INTERSTITIAL CHARGE =     7.066700
:CPC   : PW Pseudocharge     =    16.908148
:CTO001: CHARGE SPHERE  1    =    55.466650

:NEC03: NUCLEAR AND ELECTRONIC CHARGE    118.00000   118.00000

PW CHANGE     H    K    L      Current       Change    Residue
:PTO001:      0    0    0  4.35380723E-02 -1.901E-06 -3.565E-06
:PTO003:      0    2    0  1.26515655E-02 -4.879E-07 -1.067E-06
:PTO004:     -1    1    0  6.32887800E-02 -2.123E-06 -3.303E-06
:PTO005:      0    2   -1 -7.40621510E-02  2.233E-06  3.419E-06
:PTO006:      0    0   -2 -3.83481675E-02  1.317E-06  2.095E-06
:PTO007:     -1    1   -1 -8.14907726E-02  2.231E-06  3.170E-06
:PTO008:      0    2   -2 -1.38978356E-02  4.706E-07  9.066E-07
:PTO009:     -1    1   -2 -7.19432861E-02  1.472E-06  2.510E-06
:PTO011:     -1    3    0 -1.22148607E-02  5.958E-07  4.067E-07
:PTO012:     -1    3   -1 -5.58128910E-02  2.251E-06  2.513E-06
:PTO013:      0    4    0 -1.05197576E-02  5.664E-07  5.458E-07
:PTO014:      0    2   -3  2.38583365E-02 -1.058E-06 -8.227E-07

:ENE  : ********** TOTAL ENERGY IN Ry =       -36944.21363475

       TOTAL FORCE IN mRy/a.u. = |F|     Fx             Fy             Fz     with/without FOR in case.in2
:FOR001:   1.ATOM         18.475          0.000          0.000        -18.475 partial forces
       TOTAL FORCE WITH RESPECT TO GLOBAL CARTESIAN COORDINATES:
:FCA001:   1.ATOM                         0.000        -18.475          0.000 partial forces
       TOTAL FORCE WITH RESPECT TO THE GLOBAL COORDINATE SYSTEM:
:FGL001:   1.ATOM                 0.000000000   -18.474886391     0.000000000 partial forces
