
:LABEL1: Calculations in /home/ykent/GWIEN/example/Pr/aU/V5/case
:LABEL2: on didymium-2.cmpgroup.ameslab.gov at Fri Jul 10 14:12:04 CDT 2020
:LABEL3: using WIEN2k_19.1 (Release 25/6/2019) in /home/ykent/opt/src/WIEN2k_19.1
:LABEL4: using the command: run_lapw -so -i 70 -cc 0.0001

:LABEL1: Calculations in /home/ykent/GWIEN/example/Pr/aU/V5/case
:LABEL2: on didymium-2.cmpgroup.ameslab.gov at Fri Jul 10 14:12:28 CDT 2020
:LABEL3: using WIEN2k_19.1 (Release 25/6/2019) in /home/ykent/opt/src/WIEN2k_19.1
:LABEL4: using the command: run_lapw -so -i 70 -cc 0.0001
 Flat Integration
 New Mode for Coulomb Integral
 Consistent 3/8+Simpson combinations
 Extension of core to zero
 LDM version in phi
 Fifth-order quadrature in outwin


            ---------
:ITE014: 14. ITERATION
            ---------

:NATO :    1 INDEPENDENT AND    2 TOTAL ATOMS IN UNITCELL
       SUBSTANCE: aU                                                          

       LATTICE                      = CXY 
:POT  : POTENTIAL OPTION EX_LDA EC_LDA VX_LDA VC_LDA
:LAT  : LATTICE CONSTANTS=  5.37049 10.89808  9.40854    1.571    1.571    1.571
:VOL  : UNIT CELL VOLUME =     275.33200
       MODE OF CALCULATION IS       = RELA
       NON-SPINPOLARIZED CALCULATION
:IFFT  : FFT-parameters:   48   90   72 Factor: 2.00


   CONVERGENCE PARAMETER FOR PSEUDOCHARGE: NCON=  9
   MAXIMAL VALUE OF RMT(JATOM)*ABSK(NKK) : RK  =27.59804


:VKCOUL :  VK-COUL convergence: 0.166E-06
       ATOMNUMBER=  1 Pr1        VCOUL-ZERO =  0.65508E+00
:EFG001:                        EFG         =     9.20339   *10**21  V / m**2
                               V20  TOT/SRF=    -7.38962    -0.07173
                               V22  TOT/SRF=    -4.93699    -0.01318
                               V22M TOT/SRF=     0.00000     0.00000
                               V21  TOT/SRF=     0.00000     0.00000
                               V21M TOT/SRF=     0.00000     0.00000

             -0.67059    0.00000    0.00000       -0.67059    0.00000    0.00000
              0.00000    9.20339    0.00000        0.00000    9.20339    0.00000
              0.00000    0.00000   -8.53280        0.00000    0.00000   -8.53280

         MAIN DIRECTIONS OF THE EFG   1.0000  0.0000  0.0000
                                      0.0000  1.0000  0.0000
                                      0.0000  0.0000  1.0000
:ANG001:  ANGLE WITH OLD X-AXIS =         0.0

:ETA001:                         ASYMM. ETA =     0.85427


     HELLMANN-FEYNMAN-FORCE IN mRy/a.u. = |F|  Fx       Fy             Fz
:FHF001:   1.ATOM   1584.850009360866      0.000000000000      0.000000000000  -1584.850009360866

:FIT001: LUSE= 13 SIGMA OF V-XC FIT FOR ATOM  1  0.9388666E-04
:FIT001: LUSE= 13 SIGMA OF V-XC FIT FOR ATOM  1  0.9388666E-04
:DEN  : DENSITY INTEGRAL  =        -14216.11502681   (Ry)
       ELS_POTENTIAL_AT Z=0 and Z=0.5:   1.02476   1.02476
       ELS_POTENTIAL_AT Y=0 and Y=0.5:  -0.01238  -0.01238
:VZERO:v0,v0c,v0x   0.27492   1.02476  -0.74985 v5,v5c,v5x   0.27492   1.02476  -0.74985
:VZERY:v0,v0c,v0x  -0.98668  -0.01238  -0.97430 v5,v5c,v5x  -0.98668  -0.01238  -0.97430
:VZERX:v0,v0c,v0x  -1.30715  -0.39659  -0.91056 v5,v5c,v5x  -1.30715  -0.39659  -0.91056
:LMAX-WF:   10   Non-Spherical LMAX:   4

          ATOMIC SPHERE DEPENDENT PARAMETERS FOR ATOM  Pr1       
:e__0001: OVERALL ENERGY PARAMETER IS    0.9833
          OVERALL BASIS SET ON ATOM IS LAPW
:E0_0001: E( 0)=    0.9833
             APW+lo
:E0_0001: E( 0)=   -1.4401   E(BOTTOM)=   -2.081   E(TOP)=   -0.800  4  5   237
             LOCAL ORBITAL
:E1_0001: E( 1)=    1.3833
             APW+lo
:E1_0001: E( 1)=    0.0277   E(BOTTOM)=   -0.937   E(TOP)=    0.993  3  4   240
             LOCAL ORBITAL
:E3_0001: E( 3)=    1.2016   E(BOTTOM)=    0.994   E(TOP)=    1.409  0  1   117
             APW+lo
:E2_0001: E( 2)=    0.9833   E(BOTTOM)=    0.797   E(TOP)= -200.000  2 -1   120
             APW+lo

       K=   0.06250   0.00000   0.06250            1
:RKM  : MATRIX SIZE   279LOs:  40  RKM= 8.50  WEIGHT= 4.00  PGR:    
       EIGENVALUES ARE:
:EIG00001:      -1.4916325   -1.4041003   -0.3145424   -0.0416983    0.0227986
:EIG00006:       0.0473611    0.0731488    0.0754385    1.0315448    1.0521446
:EIG00011:       1.1495995    1.1565928    1.1595491    1.1706838    1.1906453
:EIG00016:       1.2149443    1.2252107    1.2287631    1.2357230    1.2405178
:EIG00021:       1.2521294    1.2532852    1.2541945    1.2802752    1.2977064
:EIG00026:       1.3340927    1.4252446    1.4295406    1.5103996    1.5544137
:EIG00031:       1.6151141    1.7970396    1.8389966    1.9013312    2.1964534
:EIG00036:       2.2436901    2.2818485    2.5339657    2.5402724    2.6711018
:EIG00041:       2.8753349    2.9271175    3.0865364    3.1409666    3.2907979
:EIG00046:       3.3021793    3.3217288    3.4994290    3.5087846    3.6526545
 
:EIG00051:       3.7570671    3.8893307    3.9405059    4.0967290    4.1025126
:EIG00056:       4.1913216    4.2577595    4.4563178    4.4828365    4.5258978
:EIG00061:       4.5853863    4.7109023    4.7143165    4.8541052    4.9072286
:EIG00066:       4.9803819    4.9834039    5.0337423    5.1588097    5.2012438
:EIG00071:       5.2873078    5.3431493    5.4131427    5.4817944    5.4836632
:EIG00076:       5.4975308    5.5522669    5.5645569    5.5934413    5.6898254
:EIG00081:       5.7099655    5.7568397    5.7939957    5.8532735    5.9077871
:EIG00086:       5.9320932    6.0715641    6.1526272    6.1754268    6.2254133
:EIG00091:       6.2860723    6.3505941    6.3756897    6.4116406    6.4164541
:EIG00096:       6.5708850    6.6031245    6.6065098    6.6366031    6.7437330
 
:EIG00101:       6.7754139    6.8810411    6.9385753    6.9648634    6.9728458
:EIG00106:       7.1097477    7.1259749    7.1931769    7.2729837    7.4477621
:EIG00111:       7.5447941    7.5817940    7.5847721    7.6397367    7.7654218
:EIG00116:       7.8349793    7.9698015    8.0690922    8.0804013    8.1357825
:EIG00121:       8.1881239    8.2223609    8.2369983    8.3789022    8.4063236
:EIG00126:       8.4216535    8.4976373    8.5874065    8.6040020    8.6604953
:EIG00131:       8.6614206
       ********************************************************

:KPT   :      NUMBER OF K-POINTS:   288
   0.0   0.0 angle (M,z), angle (M,x) deg
 
        SPIN-ORBIT EIGENVALUES:
     K=   0.06250   0.00000   0.06250            1
      MATRIX SIZE=  262   WEIGHT= 4.00
     EIGENVALUES ARE:
          -1.4916351   -1.4916351   -1.4041027   -1.4041027   -0.3454410
          -0.3454410   -0.1131781   -0.1131781   -0.0565189   -0.0565189
           0.1062944    0.1062944    0.1121968    0.1121968    0.1385743
           0.1385743    1.0314248    1.0314248    1.0523111    1.0523111
           1.1481351    1.1481351    1.1548195    1.1548195    1.1578816
           1.1578816    1.1693429    1.1693429    1.1883054    1.1883054
           1.2087963    1.2087963    1.2200715    1.2200715    1.2292306
           1.2292306    1.2401555    1.2401555    1.2434578    1.2434578

           1.2521292    1.2521292    1.2550426    1.2550426    1.2586088
           1.2586088    1.2825277    1.2825277    1.2991903    1.2991903
           1.3343713    1.3343713    1.4208440    1.4208440    1.4339964
           1.4339964    1.5109361    1.5109361    1.5543953    1.5543954
           1.6154643    1.6154643    1.7972471    1.7972471    1.8390844
           1.8390844    1.9015918    1.9015918    2.1969547    2.1969547
           2.2437746    2.2437746    2.2818587    2.2818587    2.5335326
           2.5335326    2.5403861    2.5403861    2.6704907    2.6704907

           2.8756663    2.8756663    2.9267279    2.9267279    3.0865301
           3.0865301    3.1405401    3.1405401    3.2907518    3.2907518
           3.3016577    3.3016577    3.3220143    3.3220143    3.4961417
           3.4961417    3.5121268    3.5121268    3.6529674    3.6529674
           3.7567498    3.7567498    3.8876231    3.8876231    3.9407179
           3.9407179    4.0962232    4.0962232    4.1023745    4.1023745
           4.1915659    4.1915659    4.2551370    4.2551370    4.4581480
           4.4581480    4.4829195    4.4829195
       ********************************************************
:GAP (global)   :    0.0    Ry =     0.0   eV (metal)
:GAP (this spin):    0.0    Ry =     0.0   eV (metal)
         Bandranges (emin - emax) and occupancy:
:BAN00020:  20    0.985915    1.133752  1.00000000
:BAN00021:  21    1.033750    1.179587  1.00000000
:BAN00022:  22    1.033750    1.179587  1.00000000
:BAN00023:  23    1.098361    1.186485  0.98370730
:BAN00024:  24    1.098361    1.186485  0.98370728
:BAN00025:  25    1.138543    1.206030  0.63788501
:BAN00026:  26    1.138543    1.206030  0.63788498
:BAN00027:  27    1.159843    1.215603  0.36899317
:BAN00028:  28    1.159843    1.215603  0.36899314
:BAN00029:  29    1.174836    1.218191  0.00941457
:BAN00030:  30    1.174836    1.218191  0.00941456
:BAN00031:  31    1.187188    1.226349  0.00000000
:BAN00032:  32    1.187188    1.226349  0.00000000
:BAN00033:  33    1.210834    1.236584  0.00000000
:BAN00034:  34    1.210834    1.236584  0.00000000
:BAN00035:  35    1.217362    1.244032  0.00000000
        Energy to separate low and high energystates:    0.88424


:NOE  : NUMBER OF ELECTRONS          =   26.000

:FER  : F E R M I - ENERGY(TETRAH.M.)=   1.1811808739
:GMA  : POTENTIAL AND CHARGE CUT-OFF  12.00 Ry**.5

:POS001: ATOM   -1 X,Y,Z = 0.00000 0.89750 0.25000  MULT= 2  ZZ= 59.000  Pr1       

       LMMAX 16
       LM=   0 0  1 0  2 0  2 2  3 0  3 2  4 0  4 2  4 4  5 0  5 2  5 4  6 0  6 2  6 4  6 6

:CHA001: TOTAL VALENCE CHARGE INSIDE SPHERE   1 =   9.8718    (RMT=  2.3000 )
:PCS001: PARTIAL CHARGES SPHERE =  1 S,P,D,F,PX,PY,PZ,D-Z2,D-X2Y2,D-XY,D-XZ,D-YZ 
:QTL001: 1.9297 4.9584 0.8875 2.0927 1.6535 1.6476 1.6573 0.1739 0.1576 0.1820 0.1838 0.1902
        Q-s-low E-s-low   Q-p-low E-p-low   Q-d-low E-d-low   Q-f-low E-f-low
:EPL001:  1.8697 -1.3955    4.8698 -0.1000    0.0264 -0.1257    0.0086 -0.1326
        Q-s-hi  E-s-hi    Q-p-hi  E-p-hi    Q-d-hi  E-d-hi    Q-f-hi  E-f-hi 
:EPH001:  0.0600  1.0931    0.0885  1.1067    0.8610  1.0815    2.0841  1.1435

                      VXX         VYY         VZZ       UP TO R
:VZZ001:            -0.76207     8.94958    -8.18751       2.300

:CHA  : TOTAL VALENCE CHARGE INSIDE UNIT CELL =      26.000000

:SUM  : SUM OF EIGENVALUES =           4.225828996


        1.ATOM      Pr1                  14 CORE STATES
       CORE-FORCE in mRy/a.u. = |F|      Fx             Fy             Fz
:FCO001:   1.ATOM   1595.255385515193      0.000000000000      0.000000000000   1595.255385515193

:1S 001: 1S               -3066.398285433 Ry
:2S 001: 2S                -492.150773933 Ry
:2PP001: 2P*               -465.249315848 Ry
:2P 001: 2P                -429.852011837 Ry
:3S 001: 3S                -105.249925102 Ry
:3PP001: 3P*                -93.787425113 Ry
:3P 001: 3P                 -86.779767121 Ry
:3DD001: 3D*                -66.705502581 Ry
:3D 001: 3D                 -65.194063091 Ry
:4S 001: 4S                 -19.916069704 Ry
:4PP001: 4P*                -15.621781450 Ry
:4P 001: 4P                 -14.092859780 Ry
:4DD001: 4D*                 -7.022879952 Ry
:4D 001: 4D                  -6.752962923 Ry
:CINT001 Core Integral Atom   1   45.998485

       DENSITY AT NUCLEUS
        JATOM        VALENCE       SEMI-CORE          CORE           TOTAL
:RTO001:   1      641.231157        0.000000   656826.623775   657467.854932
     
       CHARGES OF NEW CHARGE DENSITY
:NTO   : INTERSTITIAL CHARGE =     6.256342
:NPC   : PW Pseudocharge     =    17.635700
:NTO001: CHARGE SPHERE  1    =    55.870312

:NEC01: NUCLEAR AND ELECTRONIC CHARGE    118.00000   117.99696
     
       CHARGES OF OLD CHARGE DENSITY
:OTO   : INTERSTITIAL CHARGE =     6.285360
:OPC   : PW Pseudocharge     =    17.673718
:OTO001: CHARGE SPHERE  1    =    55.857320

:NEC02: NUCLEAR AND ELECTRONIC CHARGE    118.00000   118.00000
     
       CONVERGENCE TEST
:DTO001: DIFFERENCE IN SPHERE  1 =  0.0351141

:DIS  :  CHARGE DISTANCE       ( 0.0351141 for atom    1 spin 1)      0.0351141
 PW Mixed is          294
 
******************************************************
* MULTISECANT MIXING VER9 RELEASE 10.4.0              *
* Standard Mode with controls                        *
* Fixed density scale                                *
* Regularization       1.000E-04                     *
* Trust Upper Limit    5.000E+00                     *
* Max Number of Memory Steps    8                    *
******************************************************
 
:PWTMP   1.7340E+02  1.9467E+02  2.7533E+02
:PLANE:  PW TOTAL      5.9436 DISTAN   1.02E-02  1.72E-01 %
:CHARG:  CLM/ATOM   1381.9449 DISTAN   5.02E-02  3.63E-03 %
 
Step History
        DMIX         DMIXT        Red     Pred      Trust     Lambda    MagRel    MagAbs     Beta
  1   3.5000E-02   3.5000E-02 -1.00E+00  1.00E+00 -1.00E+01  1.00E+00  3.50E-02  3.50E-02  1.00E+00
:INFO :  Note, Pratt in use
:TRUST:  Step 3.75E-02  Charge 7.50E-02 (e) CTO  2.50E-01 (e) PW  3.50E-01 (e)
:DIRM :  MEMORY  0/ 8 SCALE   1.000
Performing Pseudo Compensation
Final Pseudo Compensation Rescaling     1.00000E+00
:MIX  :   PRATT  REGULARIZATION:  1.00E-04 GREED: 0.02500                  
     
       CHARGES OF MIXED CHARGE DENSITY
:CTO   : INTERSTITIAL CHARGE =     6.284710
:CPC   : PW Pseudocharge     =    17.664978
:CTO001: CHARGE SPHERE  1    =    55.857645

:NEC03: NUCLEAR AND ELECTRONIC CHARGE    118.00000   118.00000

PW CHANGE     H    K    L      Current       Change    Residue
:PTO001:      0    0    0  8.69847636E-02 -3.410E-05 -2.014E-04
:PTO003:      0    2    0  1.94360994E-02 -8.923E-06 -4.794E-07
:PTO004:     -1    1    0  8.99320363E-02 -4.395E-05 -7.162E-05
:PTO005:      0    2   -1 -1.02232357E-01  4.998E-05  5.428E-05
:PTO006:      0    0   -2 -5.30103154E-02  2.593E-05  2.920E-05
:PTO007:     -1    1   -1 -1.04595247E-01  5.116E-05  7.881E-05
:PTO008:      0    2   -2 -1.38407914E-02  6.105E-06  1.201E-05
:PTO009:     -1    1   -2 -6.87286149E-02  2.398E-05  1.725E-05
:PTO011:     -1    3    0 -9.84091485E-03  1.337E-06  5.078E-06
:PTO012:     -1    3   -1 -3.90367207E-02 -2.683E-06 -3.729E-05
:PTO013:      0    4    0 -6.36261428E-03 -2.269E-06 -7.041E-06
:PTO014:      0    2   -3  1.49538078E-02  5.264E-06  1.355E-05

:ENE  : ********** TOTAL ENERGY IN Ry =       -36944.37198648

       TOTAL FORCE IN mRy/a.u. = |F|     Fx             Fy             Fz     with/without FOR in case.in2
:FOR001:   1.ATOM         10.405          0.000          0.000         10.405 partial forces
       TOTAL FORCE WITH RESPECT TO GLOBAL CARTESIAN COORDINATES:
:FCA001:   1.ATOM                         0.000         10.405          0.000 partial forces
       TOTAL FORCE WITH RESPECT TO THE GLOBAL COORDINATE SYSTEM:
:FGL001:   1.ATOM                 0.000000000    10.405376154     0.000000000 partial forces
 Flat Integration
 New Mode for Coulomb Integral
 Consistent 3/8+Simpson combinations
 Extension of core to zero
 LDM version in phi
 Fifth-order quadrature in outwin


            ---------
:ITE015: 15. ITERATION
            ---------

:NATO :    1 INDEPENDENT AND    2 TOTAL ATOMS IN UNITCELL
       SUBSTANCE: aU                                                          

       LATTICE                      = CXY 
:POT  : POTENTIAL OPTION EX_LDA EC_LDA VX_LDA VC_LDA
:LAT  : LATTICE CONSTANTS=  5.37049 10.89808  9.40854    1.571    1.571    1.571
:VOL  : UNIT CELL VOLUME =     275.33200
       MODE OF CALCULATION IS       = RELA
       NON-SPINPOLARIZED CALCULATION
:IFFT  : FFT-parameters:   48   90   72 Factor: 2.00


   CONVERGENCE PARAMETER FOR PSEUDOCHARGE: NCON=  9
   MAXIMAL VALUE OF RMT(JATOM)*ABSK(NKK) : RK  =27.59804


:VKCOUL :  VK-COUL convergence: 0.166E-06
       ATOMNUMBER=  1 Pr1        VCOUL-ZERO =  0.65482E+00
:EFG001:                        EFG         =     9.19823   *10**21  V / m**2
                               V20  TOT/SRF=    -7.38415    -0.07170
                               V22  TOT/SRF=    -4.93499    -0.01317
                               V22M TOT/SRF=     0.00000     0.00000
                               V21  TOT/SRF=     0.00000     0.00000
                               V21M TOT/SRF=     0.00000     0.00000

             -0.67174    0.00000    0.00000       -0.67174    0.00000    0.00000
              0.00000    9.19823    0.00000        0.00000    9.19823    0.00000
              0.00000    0.00000   -8.52649        0.00000    0.00000   -8.52649

         MAIN DIRECTIONS OF THE EFG   1.0000  0.0000  0.0000
                                      0.0000  1.0000  0.0000
                                      0.0000  0.0000  1.0000
:ANG001:  ANGLE WITH OLD X-AXIS =         0.0

:ETA001:                         ASYMM. ETA =     0.85394


     HELLMANN-FEYNMAN-FORCE IN mRy/a.u. = |F|  Fx       Fy             Fz
:FHF001:   1.ATOM   1584.333424569132      0.000000000000      0.000000000000  -1584.333424569132

:FIT001: LUSE= 13 SIGMA OF V-XC FIT FOR ATOM  1  0.9388935E-04
:FIT001: LUSE= 13 SIGMA OF V-XC FIT FOR ATOM  1  0.9388935E-04
:DEN  : DENSITY INTEGRAL  =        -14216.18346932   (Ry)
       ELS_POTENTIAL_AT Z=0 and Z=0.5:   1.02446   1.02446
       ELS_POTENTIAL_AT Y=0 and Y=0.5:  -0.01243  -0.01243
:VZERO:v0,v0c,v0x   0.27464   1.02446  -0.74982 v5,v5c,v5x   0.27464   1.02446  -0.74982
:VZERY:v0,v0c,v0x  -0.98662  -0.01243  -0.97419 v5,v5c,v5x  -0.98662  -0.01243  -0.97419
:VZERX:v0,v0c,v0x  -1.30689  -0.39641  -0.91048 v5,v5c,v5x  -1.30689  -0.39641  -0.91048
:LMAX-WF:   10   Non-Spherical LMAX:   4

          ATOMIC SPHERE DEPENDENT PARAMETERS FOR ATOM  Pr1       
:e__0001: OVERALL ENERGY PARAMETER IS    0.9819
          OVERALL BASIS SET ON ATOM IS LAPW
:E0_0001: E( 0)=    0.9819
             APW+lo
:E0_0001: E( 0)=   -1.4401   E(BOTTOM)=   -2.081   E(TOP)=   -0.800  4  5   234
             LOCAL ORBITAL
:E1_0001: E( 1)=    1.3819
             APW+lo
:E1_0001: E( 1)=    0.0277   E(BOTTOM)=   -0.937   E(TOP)=    0.993  3  4   240
             LOCAL ORBITAL
:E3_0001: E( 3)=    1.2019   E(BOTTOM)=    0.994   E(TOP)=    1.409  0  1   114
             APW+lo
:E2_0001: E( 2)=    0.9819   E(BOTTOM)=    0.797   E(TOP)= -200.000  2 -1   121
             APW+lo

       K=   0.06250   0.00000   0.06250            1
:RKM  : MATRIX SIZE   279LOs:  40  RKM= 8.50  WEIGHT= 4.00  PGR:    
       EIGENVALUES ARE:
:EIG00001:      -1.4916150   -1.4040612   -0.3146262   -0.0417304    0.0227795
:EIG00006:       0.0473532    0.0731390    0.0754364    1.0313629    1.0519635
:EIG00011:       1.1497411    1.1567957    1.1597793    1.1708927    1.1908446
:EIG00016:       1.2152390    1.2255190    1.2290767    1.2360281    1.2408122
:EIG00021:       1.2523902    1.2534992    1.2545294    1.2806229    1.2978895
:EIG00026:       1.3341382    1.4251178    1.4294968    1.5102881    1.5543045
:EIG00031:       1.6150130    1.7969493    1.8388756    1.9012530    2.1963256
:EIG00036:       2.2435596    2.2816991    2.5338315    2.5400989    2.6709627
:EIG00041:       2.8751837    2.9269575    3.0863641    3.1408159    3.2906314
:EIG00046:       3.3019843    3.3215747    3.4992423    3.5086117    3.6524524
 
:EIG00051:       3.7569091    3.8891784    3.9403707    4.0965691    4.1024199
:EIG00056:       4.1911719    4.2576055    4.4561588    4.4827931    4.5257464
:EIG00061:       4.5851828    4.7107140    4.7141672    4.8539981    4.9071557
:EIG00066:       4.9801948    4.9832340    5.0335555    5.1586514    5.2010767
:EIG00071:       5.2871195    5.3429894    5.4129696    5.4816120    5.4834732
:EIG00076:       5.4973538    5.5520720    5.5643753    5.5932524    5.6896218
:EIG00081:       5.7097727    5.7566513    5.7937909    5.8530713    5.9075960
:EIG00086:       5.9318640    6.0713521    6.1524495    6.1752149    6.2252439
:EIG00091:       6.2858816    6.3503898    6.3755744    6.4114786    6.4163719
:EIG00096:       6.5706505    6.6029336    6.6063716    6.6364423    6.7435740
 
:EIG00101:       6.7752418    6.8808556    6.9383952    6.9646743    6.9726548
:EIG00106:       7.1095096    7.1257966    7.1930200    7.2728095    7.4475464
:EIG00111:       7.5446759    7.5815951    7.5845718    7.6395524    7.7652970
:EIG00116:       7.8347592    7.9697356    8.0689886    8.0803484    8.1356714
:EIG00121:       8.1879580    8.2222797    8.2368458    8.3787355    8.4061452
:EIG00126:       8.4214868    8.4974694    8.5872440    8.6037959    8.6603206
:EIG00131:       8.6612241
       ********************************************************

:KPT   :      NUMBER OF K-POINTS:   288
   0.0   0.0 angle (M,z), angle (M,x) deg
 
        SPIN-ORBIT EIGENVALUES:
     K=   0.06250   0.00000   0.06250            1
      MATRIX SIZE=  262   WEIGHT= 4.00
     EIGENVALUES ARE:
          -1.4916176   -1.4916176   -1.4040635   -1.4040635   -0.3455107
          -0.3455107   -0.1131778   -0.1131778   -0.0565526   -0.0565526
           0.1062748    0.1062748    0.1121820    0.1121820    0.1385582
           0.1385582    1.0312433    1.0312433    1.0521301    1.0521301
           1.1482845    1.1482845    1.1550275    1.1550275    1.1581137
           1.1581137    1.1695556    1.1695556    1.1885147    1.1885147
           1.2091021    1.2091021    1.2203571    1.2203571    1.2295309
           1.2295309    1.2404576    1.2404576    1.2437486    1.2437486

           1.2523943    1.2523943    1.2552616    1.2552617    1.2589246
           1.2589246    1.2828734    1.2828734    1.2993788    1.2993788
           1.3344219    1.3344219    1.4207554    1.4207554    1.4339180
           1.4339180    1.5108242    1.5108242    1.5542867    1.5542867
           1.6153633    1.6153633    1.7971567    1.7971567    1.8389639
           1.8389639    1.9015134    1.9015134    2.1968269    2.1968269
           2.2436441    2.2436441    2.2817093    2.2817093    2.5333967
           2.5333967    2.5402143    2.5402143    2.6703517    2.6703517

           2.8755152    2.8755152    2.9265680    2.9265680    3.0863581
           3.0863581    3.1403892    3.1403892    3.2905850    3.2905850
           3.3014633    3.3014633    3.3218601    3.3218601    3.4959578
           3.4959578    3.5119513    3.5119513    3.6527654    3.6527654
           3.7565918    3.7565918    3.8874720    3.8874720    3.9405818
           3.9405818    4.0960636    4.0960636    4.1022814    4.1022814
           4.1914157    4.1914157    4.2549835    4.2549835    4.4579890
           4.4579890    4.4828727    4.4828727
       ********************************************************
:GAP (global)   :    0.0    Ry =     0.0   eV (metal)
:GAP (this spin):    0.0    Ry =     0.0   eV (metal)
         Bandranges (emin - emax) and occupancy:
:BAN00020:  20    0.985722    1.133777  1.00000000
:BAN00021:  21    1.033578    1.179813  1.00000000
:BAN00022:  22    1.033578    1.179813  1.00000000
:BAN00023:  23    1.098314    1.186703  0.98370717
:BAN00024:  24    1.098314    1.186703  0.98370717
:BAN00025:  25    1.138581    1.206338  0.63809838
:BAN00026:  26    1.138581    1.206338  0.63809834
:BAN00027:  27    1.160020    1.215875  0.36881184
:BAN00028:  28    1.160020    1.215875  0.36881179
:BAN00029:  29    1.175025    1.218512  0.00938265
:BAN00030:  30    1.175025    1.218512  0.00938265
:BAN00031:  31    1.187424    1.226627  0.00000000
:BAN00032:  32    1.187424    1.226627  0.00000000
:BAN00033:  33    1.211112    1.236884  0.00000000
:BAN00034:  34    1.211112    1.236884  0.00000000
:BAN00035:  35    1.217633    1.244329  0.00000000
        Energy to separate low and high energystates:    0.88404


:NOE  : NUMBER OF ELECTRONS          =   26.000

:FER  : F E R M I - ENERGY(TETRAH.M.)=   1.1814074376
:GMA  : POTENTIAL AND CHARGE CUT-OFF  12.00 Ry**.5

:POS001: ATOM   -1 X,Y,Z = 0.00000 0.89750 0.25000  MULT= 2  ZZ= 59.000  Pr1       

       LMMAX 16
       LM=   0 0  1 0  2 0  2 2  3 0  3 2  4 0  4 2  4 4  5 0  5 2  5 4  6 0  6 2  6 4  6 6

:CHA001: TOTAL VALENCE CHARGE INSIDE SPHERE   1 =   9.8689    (RMT=  2.3000 )
:PCS001: PARTIAL CHARGES SPHERE =  1 S,P,D,F,PX,PY,PZ,D-Z2,D-X2Y2,D-XY,D-XZ,D-YZ 
:QTL001: 1.9298 4.9584 0.8889 2.0882 1.6535 1.6476 1.6574 0.1742 0.1579 0.1822 0.1841 0.1905
        Q-s-low E-s-low   Q-p-low E-p-low   Q-d-low E-d-low   Q-f-low E-f-low
:EPL001:  1.8697 -1.3955    4.8696 -0.1001    0.0264 -0.1258    0.0086 -0.1327
        Q-s-hi  E-s-hi    Q-p-hi  E-p-hi    Q-d-hi  E-d-hi    Q-f-hi  E-f-hi 
:EPH001:  0.0602  1.0931    0.0888  1.1067    0.8624  1.0815    2.0796  1.1437

                      VXX         VYY         VZZ       UP TO R
:VZZ001:            -0.74950     8.97182    -8.22232       2.300

:CHA  : TOTAL VALENCE CHARGE INSIDE UNIT CELL =      26.000000

:SUM  : SUM OF EIGENVALUES =           4.225630834


        1.ATOM      Pr1                  14 CORE STATES
       CORE-FORCE in mRy/a.u. = |F|      Fx             Fy             Fz
:FCO001:   1.ATOM   1594.767133140323      0.000000000000      0.000000000000   1594.767133140323

:1S 001: 1S               -3066.397404114 Ry
:2S 001: 2S                -492.149889282 Ry
:2PP001: 2P*               -465.248431891 Ry
:2P 001: 2P                -429.851127649 Ry
:3S 001: 3S                -105.249065727 Ry
:3PP001: 3P*                -93.786563281 Ry
:3P 001: 3P                 -86.778909914 Ry
:3DD001: 3D*                -66.704637020 Ry
:3D 001: 3D                 -65.193198659 Ry
:4S 001: 4S                 -19.915456691 Ry
:4PP001: 4P*                -15.621183855 Ry
:4P 001: 4P                 -14.092286097 Ry
:4DD001: 4D*                 -7.022348347 Ry
:4D 001: 4D                  -6.752439451 Ry
:CINT001 Core Integral Atom   1   45.998485

       DENSITY AT NUCLEUS
        JATOM        VALENCE       SEMI-CORE          CORE           TOTAL
:RTO001:   1      641.247061        0.000000   656826.573233   657467.820294
     
       CHARGES OF NEW CHARGE DENSITY
:NTO   : INTERSTITIAL CHARGE =     6.262226
:NPC   : PW Pseudocharge     =    17.638770
:NTO001: CHARGE SPHERE  1    =    55.867369

:NEC01: NUCLEAR AND ELECTRONIC CHARGE    118.00000   117.99696
     
       CHARGES OF OLD CHARGE DENSITY
:OTO   : INTERSTITIAL CHARGE =     6.284710
:OPC   : PW Pseudocharge     =    17.664978
:OTO001: CHARGE SPHERE  1    =    55.857645

:NEC02: NUCLEAR AND ELECTRONIC CHARGE    118.00000   118.00000
     
       CONVERGENCE TEST
:DTO001: DIFFERENCE IN SPHERE  1 =  0.0284193

:DIS  :  CHARGE DISTANCE       ( 0.0284193 for atom    1 spin 1)      0.0284193
 PW Mixed is          294
 
******************************************************
* MULTISECANT MIXING VER9 RELEASE 10.4.0              *
* Slow Mode, cautious                                *
* Fixed density scale                                *
* Regularization       1.000E-04                     *
* Step Trust Radius    0.75000                       *
* Trust Upper Limit    2.000E+00                     *
* Max Number of Memory Steps   12                    *
******************************************************
 
:PWTMP   1.7340E+02  1.9467E+02  2.7533E+02
:PLANE:  PW TOTAL      5.9411 DISTAN   6.66E-03  1.12E-01 %
:CHARG:  CLM/ATOM   1381.9450 DISTAN   4.08E-02  2.95E-03 %
 
Step History
        DMIX         DMIXT        Red     Pred      Trust     Lambda    MagRel    MagAbs     Beta
  1   3.5000E-02   3.5000E-02 -1.00E+00  1.00E+00 -1.00E+01  1.00E+00  3.50E-02  3.50E-02  1.00E+00
  2   2.5000E-02   2.5000E-02 -1.00E+00  1.00E+00 -1.00E+01  1.00E+00  2.50E-02  1.28E-03  1.00E+00
:JACOBIANS    5.050E-02   5.518E-02
  
:NORMS:  1/Froebius, Min, Max, Used   0.9519E-01  0.9519E-01  0.2106E+00  0.9519E-01
:INFO :  Number of Memory Steps    1 Skipping    0
:PREDicted Charge, CTotal, PW Trust    1.538E-03   3.076E-03   2.800E-02
:PREDicted DMix, Beta, BLim   1.0000E-02  4.7355E+00  5.8523E-01

Eigenvalues, unscaled except for SY+YY
   #     SY Real        SY Imag          SS             YY         SY+YY Real      SY+YY Imag
   1   2.106393E-01   0.000000E+00   9.518587E-02   1.000000E+00   1.210639E+00   0.000000E+00
 
:BLIM :  VZERO Control Off
:TRUST:  Step 5.85E-01  Charge 7.50E-02 (e) CTO  2.50E-01 (e) PW  3.50E-01 (e)
:DIRM :  MEMORY  1/12 SCALE   1.000 RED  0.81 PRED  1.00 NEXT  0.34 
:TRAVE:  Charge 1.16E-03 (e) CTO  2.33E-03 (e) PW  2.17E-02 (e)
:DIRP :  |MSR1|= 1.084E-02 |PRATT|= 6.657E-03 ANGLE=  49.4 DEGREES
:DIRQ :  |MSR1|= 4.797E-03 |PRATT|= 4.076E-02 ANGLE=   0.5 DEGREES
:DIRT :  |MSR1|= 1.185E-02 |PRATT|= 4.130E-02 ANGLE=  60.3 DEGREES
:MIX  :   MSR1   REGULARIZATION:  1.00E-04 GREED: 0.02000  Newton 1.00  0.2869                
     
       CHARGES OF MIXED CHARGE DENSITY
:CTO   : INTERSTITIAL CHARGE =     6.282383
:CPC   : PW Pseudocharge     =    17.632860
:CTO001: CHARGE SPHERE  1    =    55.858809

:NEC03: NUCLEAR AND ELECTRONIC CHARGE    118.00000   118.00000

PW CHANGE     H    K    L      Current       Change    Residue
:PTO001:      0    0    0  8.68596590E-02 -1.251E-04 -1.348E-04
:PTO003:      0    2    0  1.94032313E-02 -3.287E-05  4.531E-06
:PTO004:     -1    1    0  8.97704971E-02 -1.615E-04 -2.869E-05
:PTO005:      0    2   -1 -1.02049035E-01  1.833E-04  6.992E-06
:PTO006:      0    0   -2 -5.29151746E-02  9.514E-05  4.719E-06
:PTO007:     -1    1   -1 -1.04407283E-01  1.880E-04  2.898E-05
:PTO008:      0    2   -2 -1.38183889E-02  2.240E-05  5.200E-06
:PTO009:     -1    1   -2 -6.86406858E-02  8.793E-05 -3.989E-06
:PTO011:     -1    3    0 -9.83604652E-03  4.868E-06  2.681E-06
:PTO012:     -1    3   -1 -3.90471445E-02 -1.042E-05 -3.367E-05
:PTO013:      0    4    0 -6.37102291E-03 -8.409E-06 -4.855E-06
:PTO014:      0    2   -3  1.49733595E-02  1.955E-05  9.493E-06

:ENE  : ********** TOTAL ENERGY IN Ry =       -36944.37194739

       TOTAL FORCE IN mRy/a.u. = |F|     Fx             Fy             Fz     with/without FOR in case.in2
:FOR001:   1.ATOM         10.434          0.000          0.000         10.434 partial forces
       TOTAL FORCE WITH RESPECT TO GLOBAL CARTESIAN COORDINATES:
:FCA001:   1.ATOM                         0.000         10.434          0.000 partial forces
       TOTAL FORCE WITH RESPECT TO THE GLOBAL COORDINATE SYSTEM:
:FGL001:   1.ATOM                 0.000000000    10.433708571     0.000000000 partial forces
 Flat Integration
 New Mode for Coulomb Integral
 Consistent 3/8+Simpson combinations
 Extension of core to zero
 LDM version in phi
 Fifth-order quadrature in outwin


            ---------
:ITE016: 16. ITERATION
            ---------

:NATO :    1 INDEPENDENT AND    2 TOTAL ATOMS IN UNITCELL
       SUBSTANCE: aU                                                          

       LATTICE                      = CXY 
:POT  : POTENTIAL OPTION EX_LDA EC_LDA VX_LDA VC_LDA
:LAT  : LATTICE CONSTANTS=  5.37049 10.89808  9.40854    1.571    1.571    1.571
:VOL  : UNIT CELL VOLUME =     275.33200
       MODE OF CALCULATION IS       = RELA
       NON-SPINPOLARIZED CALCULATION
:IFFT  : FFT-parameters:   48   90   72 Factor: 2.00


   CONVERGENCE PARAMETER FOR PSEUDOCHARGE: NCON=  9
   MAXIMAL VALUE OF RMT(JATOM)*ABSK(NKK) : RK  =27.59804


:VKCOUL :  VK-COUL convergence: 0.166E-06
       ATOMNUMBER=  1 Pr1        VCOUL-ZERO =  0.65387E+00
:EFG001:                        EFG         =     9.17744   *10**21  V / m**2
                               V20  TOT/SRF=    -7.36273    -0.07159
                               V22  TOT/SRF=    -4.92657    -0.01310
                               V22M TOT/SRF=     0.00000     0.00000
                               V21  TOT/SRF=     0.00000     0.00000
                               V21M TOT/SRF=     0.00000     0.00000

             -0.67569    0.00000    0.00000       -0.67569    0.00000    0.00000
              0.00000    9.17744    0.00000        0.00000    9.17744    0.00000
              0.00000    0.00000   -8.50175        0.00000    0.00000   -8.50175

         MAIN DIRECTIONS OF THE EFG   1.0000  0.0000  0.0000
                                      0.0000  1.0000  0.0000
                                      0.0000  0.0000  1.0000
:ANG001:  ANGLE WITH OLD X-AXIS =         0.0

:ETA001:                         ASYMM. ETA =     0.85275


     HELLMANN-FEYNMAN-FORCE IN mRy/a.u. = |F|  Fx       Fy             Fz
:FHF001:   1.ATOM   1582.322909818836      0.000000000000      0.000000000000  -1582.322909818836

:FIT001: LUSE= 13 SIGMA OF V-XC FIT FOR ATOM  1  0.9390417E-04
:FIT001: LUSE= 13 SIGMA OF V-XC FIT FOR ATOM  1  0.9390417E-04
:DEN  : DENSITY INTEGRAL  =        -14216.44398148   (Ry)
       ELS_POTENTIAL_AT Z=0 and Z=0.5:   1.02334   1.02334
       ELS_POTENTIAL_AT Y=0 and Y=0.5:  -0.01261  -0.01261
:VZERO:v0,v0c,v0x   0.27361   1.02334  -0.74973 v5,v5c,v5x   0.27361   1.02334  -0.74973
:VZERY:v0,v0c,v0x  -0.98638  -0.01261  -0.97377 v5,v5c,v5x  -0.98638  -0.01261  -0.97377
:VZERX:v0,v0c,v0x  -1.30595  -0.39574  -0.91020 v5,v5c,v5x  -1.30595  -0.39574  -0.91020
:LMAX-WF:   10   Non-Spherical LMAX:   4

          ATOMIC SPHERE DEPENDENT PARAMETERS FOR ATOM  Pr1       
:e__0001: OVERALL ENERGY PARAMETER IS    0.9816
          OVERALL BASIS SET ON ATOM IS LAPW
:E0_0001: E( 0)=    0.9816
             APW+lo
:E0_0001: E( 0)=   -1.4398   E(BOTTOM)=   -2.081   E(TOP)=   -0.799  4  5   236
             LOCAL ORBITAL
:E1_0001: E( 1)=    1.3816
             APW+lo
:E1_0001: E( 1)=    0.0278   E(BOTTOM)=   -0.937   E(TOP)=    0.993  3  4   245
             LOCAL ORBITAL
:E3_0001: E( 3)=    1.2032   E(BOTTOM)=    0.995   E(TOP)=    1.411  0  1   118
             APW+lo
:E2_0001: E( 2)=    0.9816   E(BOTTOM)=    0.797   E(TOP)= -200.000  2 -1   121
             APW+lo

       K=   0.06250   0.00000   0.06250            1
:RKM  : MATRIX SIZE   279LOs:  40  RKM= 8.50  WEIGHT= 4.00  PGR:    
       EIGENVALUES ARE:
:EIG00001:      -1.4915280   -1.4038924   -0.3149213   -0.0418299    0.0227289
:EIG00006:       0.0473449    0.0731226    0.0754505    1.0307026    1.0513078
:EIG00011:       1.1502914    1.1575843    1.1606698    1.1717020    1.1916166
:EIG00016:       1.2163758    1.2267059    1.2302839    1.2372023    1.2419456
:EIG00021:       1.2533972    1.2543193    1.2558202    1.2819587    1.2986174
:EIG00026:       1.3343451    1.4246648    1.4293586    1.5098926    1.5539169
:EIG00031:       1.6146548    1.7966273    1.8384423    1.9009720    2.1958722
:EIG00036:       2.2430952    2.2811595    2.5333322    2.5394668    2.6704399
:EIG00041:       2.8746295    2.9263630    3.0857133    3.1402439    3.2899833
:EIG00046:       3.3012512    3.3209417    3.4985170    3.5079408    3.6516848
 
:EIG00051:       3.7562449    3.8885301    3.9398077    4.0958986    4.1019141
:EIG00056:       4.1905765    4.2569994    4.4555248    4.4823714    4.5250235
:EIG00061:       4.5843783    4.7099355    4.7135439    4.8534635    4.9065959
:EIG00066:       4.9793813    4.9824609    5.0327538    5.1579127    5.2003436
:EIG00071:       5.2863296    5.3422789    5.4122630    5.4808291    5.4826653
:EIG00076:       5.4965972    5.5512583    5.5635866    5.5924478    5.6887928
:EIG00081:       5.7089404    5.7558270    5.7929336    5.8522341    5.9067932
:EIG00086:       5.9309526    6.0704926    6.1516499    6.1743146    6.2244201
:EIG00091:       6.2850524    6.3495462    6.3748496    6.4107086    6.4157053
:EIG00096:       6.5697352    6.6021161    6.6055970    6.6356338    6.7428055
 
:EIG00101:       6.7744714    6.8800097    6.9375775    6.9638253    6.9718315
:EIG00106:       7.1085580    7.1249693    7.1922989    7.2720257    7.4466264
:EIG00111:       7.5439720    7.5807042    7.5836756    7.6387110    7.7644945
:EIG00116:       7.8338229    7.9690082    8.0682562    8.0796544    8.1348868
:EIG00121:       8.1871087    8.2215277    8.2360202    8.3778861    8.4052568
:EIG00126:       8.4206162    8.4966344    8.5864131    8.6028722    8.6594631
:EIG00131:       8.6603343
       ********************************************************

:KPT   :      NUMBER OF K-POINTS:   288
   0.0   0.0 angle (M,z), angle (M,x) deg
 
        SPIN-ORBIT EIGENVALUES:
     K=   0.06250   0.00000   0.06250            1
      MATRIX SIZE=  262   WEIGHT= 4.00
     EIGENVALUES ARE:
          -1.4915306   -1.4915306   -1.4038948   -1.4038948   -0.3457536
          -0.3457536   -0.1131562   -0.1131562   -0.0566581   -0.0566581
           0.1062221    0.1062221    0.1121480    0.1121480    0.1385181
           0.1385181    1.0305842    1.0305842    1.0514752    1.0514752
           1.1488641    1.1488641    1.1558350    1.1558350    1.1590114
           1.1590114    1.1703793    1.1703793    1.1893241    1.1893242
           1.2102800    1.2102800    1.2214592    1.2214592    1.2306876
           1.2306876    1.2416205    1.2416205    1.2448677    1.2448678

           1.2534145    1.2534145    1.2561064    1.2561064    1.2601428
           1.2601428    1.2842019    1.2842019    1.3001262    1.3001262
           1.3346479    1.3346479    1.4204431    1.4204431    1.4336521
           1.4336522    1.5104278    1.5104278    1.5539009    1.5539009
           1.6150052    1.6150052    1.7968346    1.7968346    1.8385319
           1.8385319    1.9012317    1.9012317    2.1963734    2.1963734
           2.2431799    2.2431799    2.2811700    2.2811700    2.5328911
           2.5328911    2.5395883    2.5395883    2.6698288    2.6698288

           2.8749609    2.8749609    2.9259736    2.9259736    3.0857084
           3.0857084    3.1398166    3.1398166    3.2899357    3.2899357
           3.3007318    3.3007318    3.3212268    3.3212268    3.4952440
           3.4952440    3.5112691    3.5112691    3.6519981    3.6519981
           3.7559277    3.7559277    3.8868272    3.8868272    3.9400159
           3.9400159    4.0953939    4.0953939    4.1017749    4.1017749
           4.1908184    4.1908184    4.2543768    4.2543768    4.4573546
           4.4573546    4.4824432    4.4824432
       ********************************************************
:GAP (global)   :    0.0    Ry =     0.0   eV (metal)
:GAP (this spin):    0.0    Ry =     0.0   eV (metal)
         Bandranges (emin - emax) and occupancy:
:BAN00020:  20    0.985017    1.133889  1.00000000
:BAN00021:  21    1.032956    1.180682  1.00000000
:BAN00022:  22    1.032956    1.180682  1.00000000
:BAN00023:  23    1.098158    1.187534  0.98371620
:BAN00024:  24    1.098158    1.187534  0.98371619
:BAN00025:  25    1.138746    1.207521  0.63889871
:BAN00026:  26    1.138746    1.207521  0.63889869
:BAN00027:  27    1.160708    1.216924  0.36811773
:BAN00028:  28    1.160708    1.216924  0.36811770
:BAN00029:  29    1.175760    1.219751  0.00926739
:BAN00030:  30    1.175760    1.219751  0.00926739
:BAN00031:  31    1.188341    1.227699  0.00000000
:BAN00032:  32    1.188341    1.227699  0.00000000
:BAN00033:  33    1.212187    1.238036  0.00000000
:BAN00034:  34    1.212187    1.238036  0.00000000
:BAN00035:  35    1.218685    1.245475  0.00000000
        Energy to separate low and high energystates:    0.88330


:NOE  : NUMBER OF ELECTRONS          =   26.000

:FER  : F E R M I - ENERGY(TETRAH.M.)=   1.1822853959
:GMA  : POTENTIAL AND CHARGE CUT-OFF  12.00 Ry**.5

:POS001: ATOM   -1 X,Y,Z = 0.00000 0.89750 0.25000  MULT= 2  ZZ= 59.000  Pr1       

       LMMAX 16
       LM=   0 0  1 0  2 0  2 2  3 0  3 2  4 0  4 2  4 4  5 0  5 2  5 4  6 0  6 2  6 4  6 6

:CHA001: TOTAL VALENCE CHARGE INSIDE SPHERE   1 =   9.8578    (RMT=  2.3000 )
:PCS001: PARTIAL CHARGES SPHERE =  1 S,P,D,F,PX,PY,PZ,D-Z2,D-X2Y2,D-XY,D-XZ,D-YZ 
:QTL001: 1.9302 4.9585 0.8942 2.0713 1.6535 1.6476 1.6575 0.1753 0.1590 0.1831 0.1852 0.1915
        Q-s-low E-s-low   Q-p-low E-p-low   Q-d-low E-d-low   Q-f-low E-f-low
:EPL001:  1.8696 -1.3953    4.8687 -0.1002    0.0265 -0.1259    0.0086 -0.1328
        Q-s-hi  E-s-hi    Q-p-hi  E-p-hi    Q-d-hi  E-d-hi    Q-f-hi  E-f-hi 
:EPH001:  0.0606  1.0931    0.0898  1.1069    0.8677  1.0816    2.0628  1.1443

                      VXX         VYY         VZZ       UP TO R
:VZZ001:            -0.70178     9.05686    -8.35508       2.300

:CHA  : TOTAL VALENCE CHARGE INSIDE UNIT CELL =      26.000000

:SUM  : SUM OF EIGENVALUES =           4.225423626


        1.ATOM      Pr1                  14 CORE STATES
       CORE-FORCE in mRy/a.u. = |F|      Fx             Fy             Fz
:FCO001:   1.ATOM   1592.815864252855      0.000000000000      0.000000000000   1592.815864252855

:1S 001: 1S               -3066.394083904 Ry
:2S 001: 2S                -492.146547754 Ry
:2PP001: 2P*               -465.245094934 Ry
:2P 001: 2P                -429.847789084 Ry
:3S 001: 3S                -105.245803292 Ry
:3PP001: 3P*                -93.783292428 Ry
:3P 001: 3P                 -86.775655720 Ry
:3DD001: 3D*                -66.701353535 Ry
:3D 001: 3D                 -65.189919144 Ry
:4S 001: 4S                 -19.913116019 Ry
:4PP001: 4P*                -15.618901624 Ry
:4P 001: 4P                 -14.090094227 Ry
:4DD001: 4D*                 -7.020315980 Ry
:4D 001: 4D                  -6.750437844 Ry
:CINT001 Core Integral Atom   1   45.998482

       DENSITY AT NUCLEUS
        JATOM        VALENCE       SEMI-CORE          CORE           TOTAL
:RTO001:   1      641.303960        0.000000   656826.385542   657467.689502
     
       CHARGES OF NEW CHARGE DENSITY
:NTO   : INTERSTITIAL CHARGE =     6.284301
:NPC   : PW Pseudocharge     =    17.650295
:NTO001: CHARGE SPHERE  1    =    55.856329

:NEC01: NUCLEAR AND ELECTRONIC CHARGE    118.00000   117.99696
     
       CHARGES OF OLD CHARGE DENSITY
:OTO   : INTERSTITIAL CHARGE =     6.282383
:OPC   : PW Pseudocharge     =    17.632860
:OTO001: CHARGE SPHERE  1    =    55.858809

:NEC02: NUCLEAR AND ELECTRONIC CHARGE    118.00000   118.00000
     
       CONVERGENCE TEST
:DTO001: DIFFERENCE IN SPHERE  1 =  0.0052388

:DIS  :  CHARGE DISTANCE       ( 0.0052388 for atom    1 spin 1)      0.0052388
 PW Mixed is          294
 
******************************************************
* MULTISECANT MIXING VER9 RELEASE 10.4.0              *
* Slow Mode, cautious                                *
* Fixed density scale                                *
* Regularization       1.000E-04                     *
* Step Trust Radius    0.75000                       *
* Trust Upper Limit    2.000E+00                     *
* Max Number of Memory Steps   12                    *
******************************************************
 
:PWTMP   1.7340E+02  1.9467E+02  2.7533E+02
:PLANE:  PW TOTAL      5.9318 DISTAN   9.47E-03  1.60E-01 %
:CHARG:  CLM/ATOM   1381.9452 DISTAN   9.98E-03  7.22E-04 %
 
Step History
        DMIX         DMIXT        Red     Pred      Trust     Lambda    MagRel    MagAbs     Beta
  1   3.5000E-02   3.5000E-02 -1.00E+00  1.00E+00 -1.00E+01  1.00E+00  3.50E-02  3.50E-02  1.00E+00
  2   2.5000E-02   2.5000E-02  8.07E-01  1.00E+00 -1.00E+01  1.00E+00  2.50E-02  1.28E-03  1.00E+00
  3   2.0000E-02   2.0000E-02 -1.00E+00  3.41E-01  5.85E-01  1.00E+00  2.87E-01  1.19E-02  1.00E+00
:JACOBIANS    7.404E-02   8.366E-02
  
:NORMS:  1/Froebius, Min, Max, Used   0.3044E+00  0.3044E+00  0.9231E+00  0.3048E+00
:INFO :  Number of Memory Steps    2 Skipping    0
:INFO :  SLambda=    0.0322896581  Max    0.0322896581
:PREDicted Charge, CTotal, PW Trust    1.166E-03   2.331E-03   2.168E-02
:PREDicted DMix, Beta, BLim   6.2082E-03  1.0087E+00  4.3539E-01

Eigenvalues, unscaled except for SY+YY
   #     SY Real        SY Imag          SS             YY         SY+YY Real      SY+YY Imag
   1   4.174445E-01   0.000000E+00   1.852857E-01   1.999998E+00   2.013478E+00   0.000000E+00
   2   1.357731E-06   0.000000E+00   9.255212E-07   1.627728E-06   1.675164E-06   0.000000E+00
 
:INFO :  Singular value  2.013E+00 Weight  1.000E+00 Projection  8.646E-05
:INFO :  Singular value  1.675E-06 Weight  7.015E-05 Projection -7.420E-04
:RANK :  ACTIVE   1.00/2  =  50.00 % ; YY RANK   1.00/2  =  50.00 %
 
:BLIM :  VZERO Control Off
:TRUST:  Step 7.32E-01  Charge 7.50E-02 (e) CTO  2.50E-01 (e) PW  3.50E-01 (e)
:DIRM :  MEMORY  2/12 SCALE   1.000 RED  0.33 PRED  0.34 NEXT  1.00 
:TRAVE:  Charge 6.03E-04 (e) CTO  1.21E-03 (e) PW  1.10E-02 (e)
:DIRP :  |MSR1|= 1.813E-04 |PRATT|= 9.467E-03 ANGLE=   2.0 DEGREES
:DIRQ :  |MSR1|= 1.491E-04 |PRATT|= 9.976E-03 ANGLE=   4.2 DEGREES
:DIRT :  |MSR1|= 2.347E-04 |PRATT|= 1.375E-02 ANGLE=   7.8 DEGREES
:MIX  :   MSD1   REGULARIZATION:  2.00E-04 GREED: 0.01560  Newton 1.00  0.0171                
     
       CHARGES OF MIXED CHARGE DENSITY
:CTO   : INTERSTITIAL CHARGE =     6.282467
:CPC   : PW Pseudocharge     =    17.633366
:CTO001: CHARGE SPHERE  1    =    55.858767

:NEC03: NUCLEAR AND ELECTRONIC CHARGE    118.00000   118.00000

PW CHANGE     H    K    L      Current       Change    Residue
:PTO001:      0    0    0  8.68618011E-02  2.142E-06  1.123E-04
:PTO003:      0    2    0  1.94036933E-02  4.621E-07  2.294E-05
:PTO004:     -1    1    0  8.97730196E-02  2.523E-06  1.290E-04
:PTO005:      0    2   -1 -1.02052208E-01 -3.173E-06 -1.662E-04
:PTO006:      0    0   -2 -5.29167998E-02 -1.625E-06 -8.489E-05
:PTO007:     -1    1   -1 -1.04410276E-01 -2.992E-06 -1.538E-04
:PTO008:      0    2   -2 -1.38187694E-02 -3.806E-07 -1.987E-05
:PTO009:     -1    1   -2 -6.86422312E-02 -1.545E-06 -8.120E-05
:PTO011:     -1    3    0 -9.83615568E-03 -1.092E-07 -6.015E-06
:PTO012:     -1    3   -1 -3.90474166E-02 -2.721E-07 -1.942E-05
:PTO013:      0    4    0 -6.37094526E-03  7.765E-08  3.292E-06
:PTO014:      0    2   -3  1.49732101E-02 -1.494E-07 -5.653E-06

:ENE  : ********** TOTAL ENERGY IN Ry =       -36944.37186990

       TOTAL FORCE IN mRy/a.u. = |F|     Fx             Fy             Fz     with/without FOR in case.in2
:FOR001:   1.ATOM         10.493          0.000          0.000         10.493 partial forces
       TOTAL FORCE WITH RESPECT TO GLOBAL CARTESIAN COORDINATES:
:FCA001:   1.ATOM                         0.000         10.493          0.000 partial forces
       TOTAL FORCE WITH RESPECT TO THE GLOBAL COORDINATE SYSTEM:
:FGL001:   1.ATOM                 0.000000000    10.492954434     0.000000000 partial forces
 Flat Integration
 New Mode for Coulomb Integral
 Consistent 3/8+Simpson combinations
 Extension of core to zero
 LDM version in phi
 Fifth-order quadrature in outwin


            ---------
:ITE017: 17. ITERATION
            ---------

:NATO :    1 INDEPENDENT AND    2 TOTAL ATOMS IN UNITCELL
       SUBSTANCE: aU                                                          

       LATTICE                      = CXY 
:POT  : POTENTIAL OPTION EX_LDA EC_LDA VX_LDA VC_LDA
:LAT  : LATTICE CONSTANTS=  5.37049 10.89808  9.40854    1.571    1.571    1.571
:VOL  : UNIT CELL VOLUME =     275.33200
       MODE OF CALCULATION IS       = RELA
       NON-SPINPOLARIZED CALCULATION
:IFFT  : FFT-parameters:   48   90   72 Factor: 2.00


   CONVERGENCE PARAMETER FOR PSEUDOCHARGE: NCON=  9
   MAXIMAL VALUE OF RMT(JATOM)*ABSK(NKK) : RK  =27.59804


:VKCOUL :  VK-COUL convergence: 0.166E-06
       ATOMNUMBER=  1 Pr1        VCOUL-ZERO =  0.65388E+00
:EFG001:                        EFG         =     9.17636   *10**21  V / m**2
                               V20  TOT/SRF=    -7.36207    -0.07159
                               V22  TOT/SRF=    -4.92587    -0.01310
                               V22M TOT/SRF=     0.00000     0.00000
                               V21  TOT/SRF=     0.00000     0.00000
                               V21M TOT/SRF=     0.00000     0.00000

             -0.67537    0.00000    0.00000       -0.67537    0.00000    0.00000
              0.00000    9.17636    0.00000        0.00000    9.17636    0.00000
              0.00000    0.00000   -8.50099        0.00000    0.00000   -8.50099

         MAIN DIRECTIONS OF THE EFG   1.0000  0.0000  0.0000
                                      0.0000  1.0000  0.0000
                                      0.0000  0.0000  1.0000
:ANG001:  ANGLE WITH OLD X-AXIS =         0.0

:ETA001:                         ASYMM. ETA =     0.85280


     HELLMANN-FEYNMAN-FORCE IN mRy/a.u. = |F|  Fx       Fy             Fz
:FHF001:   1.ATOM   1582.262435490630      0.000000000000      0.000000000000  -1582.262435490630

:FIT001: LUSE= 13 SIGMA OF V-XC FIT FOR ATOM  1  0.9390777E-04
:FIT001: LUSE= 13 SIGMA OF V-XC FIT FOR ATOM  1  0.9390777E-04
:DEN  : DENSITY INTEGRAL  =        -14216.44681353   (Ry)
       ELS_POTENTIAL_AT Z=0 and Z=0.5:   1.02336   1.02336
       ELS_POTENTIAL_AT Y=0 and Y=0.5:  -0.01261  -0.01261
:VZERO:v0,v0c,v0x   0.27362   1.02336  -0.74973 v5,v5c,v5x   0.27362   1.02336  -0.74973
:VZERY:v0,v0c,v0x  -0.98639  -0.01261  -0.97378 v5,v5c,v5x  -0.98639  -0.01261  -0.97378
:VZERX:v0,v0c,v0x  -1.30597  -0.39576  -0.91021 v5,v5c,v5x  -1.30597  -0.39576  -0.91021
:LMAX-WF:   10   Non-Spherical LMAX:   4

          ATOMIC SPHERE DEPENDENT PARAMETERS FOR ATOM  Pr1       
:e__0001: OVERALL ENERGY PARAMETER IS    0.9820
          OVERALL BASIS SET ON ATOM IS LAPW
:E0_0001: E( 0)=    0.9820
             APW+lo
:E0_0001: E( 0)=   -1.4398   E(BOTTOM)=   -2.081   E(TOP)=   -0.799  4  5   240
             LOCAL ORBITAL
:E1_0001: E( 1)=    1.3820
             APW+lo
:E1_0001: E( 1)=    0.0278   E(BOTTOM)=   -0.937   E(TOP)=    0.993  3  4   242
             LOCAL ORBITAL
:E3_0001: E( 3)=    1.2032   E(BOTTOM)=    0.995   E(TOP)=    1.411  0  1   121
             APW+lo
:E2_0001: E( 2)=    0.9820   E(BOTTOM)=    0.797   E(TOP)= -200.000  2 -1   121
             APW+lo

       K=   0.06250   0.00000   0.06250            1
:RKM  : MATRIX SIZE   279LOs:  40  RKM= 8.50  WEIGHT= 4.00  PGR:    
       EIGENVALUES ARE:
:EIG00001:      -1.4915117   -1.4038758   -0.3149066   -0.0418139    0.0227449
:EIG00006:       0.0473612    0.0731380    0.0754671    1.0307198    1.0513260
:EIG00011:       1.1503120    1.1576077    1.1606913    1.1717245    1.1916373
:EIG00016:       1.2164003    1.2267300    1.2303085    1.2372266    1.2419690
:EIG00021:       1.2534212    1.2543416    1.2558455    1.2819825    1.2986394
:EIG00026:       1.3343641    1.4246815    1.4293761    1.5099100    1.5539343
:EIG00031:       1.6146717    1.7966439    1.8384595    1.9009872    2.1958919
:EIG00036:       2.2431147    2.2811783    2.5333477    2.5394854    2.6704548
:EIG00041:       2.8746457    2.9263790    3.0857291    3.1402580    3.2899968
:EIG00046:       3.3012659    3.3209520    3.4985294    3.5079538    3.6516996
 
:EIG00051:       3.7562528    3.8885376    3.9398162    4.0959060    4.1019129
:EIG00056:       4.1905884    4.2570119    4.4555365    4.4823611    4.5250240
:EIG00061:       4.5843889    4.7099425    4.7135527    4.8534657    4.9065832
:EIG00066:       4.9793845    4.9824617    5.0327585    5.1579131    5.2003480
:EIG00071:       5.2863367    5.3422834    5.4122718    5.4808343    5.4826714
:EIG00076:       5.4966026    5.5512647    5.5635912    5.5924538    5.6888011
:EIG00081:       5.7089450    5.7558306    5.7929398    5.8522411    5.9067997
:EIG00086:       5.9309626    6.0705002    6.1516518    6.1743195    6.2244171
:EIG00091:       6.2850557    6.3495535    6.3748362    6.4107076    6.4156850
:EIG00096:       6.5697465    6.6021213    6.6055865    6.6356283    6.7428039
 
:EIG00101:       6.7744736    6.8800092    6.9375783    6.9638263    6.9718357
:EIG00106:       7.1085674    7.1249685    7.1923011    7.2720278    7.4466307
:EIG00111:       7.5439617    7.5807053    7.5836762    7.6387109    7.7644771
:EIG00116:       7.8338272    7.9689766    8.0682380    8.0796210    8.1348663
:EIG00121:       8.1871018    8.2214997    8.2360100    8.3778788    8.4052507
:EIG00126:       8.4206071    8.4966293    8.5864063    8.6028732    8.6594585
:EIG00131:       8.6603336
       ********************************************************

:KPT   :      NUMBER OF K-POINTS:   288
   0.0   0.0 angle (M,z), angle (M,x) deg
 
        SPIN-ORBIT EIGENVALUES:
     K=   0.06250   0.00000   0.06250            1
      MATRIX SIZE=  262   WEIGHT= 4.00
     EIGENVALUES ARE:
          -1.4915143   -1.4915143   -1.4038781   -1.4038781   -0.3457387
          -0.3457387   -0.1131402   -0.1131402   -0.0566422   -0.0566422
           0.1062383    0.1062383    0.1121643    0.1121643    0.1385338
           0.1385338    1.0306013    1.0306013    1.0514934    1.0514934
           1.1488849    1.1488849    1.1558584    1.1558584    1.1590330
           1.1590330    1.1704019    1.1704019    1.1893451    1.1893451
           1.2103045    1.2103045    1.2214833    1.2214833    1.2307117
           1.2307117    1.2416447    1.2416447    1.2448913    1.2448913

           1.2534384    1.2534384    1.2561288    1.2561288    1.2601677
           1.2601677    1.2842258    1.2842258    1.3001482    1.3001482
           1.3346670    1.3346670    1.4204601    1.4204601    1.4336693
           1.4336694    1.5104452    1.5104452    1.5539182    1.5539182
           1.6150220    1.6150220    1.7968512    1.7968512    1.8385491
           1.8385491    1.9012469    1.9012469    2.1963932    2.1963932
           2.2431995    2.2431995    2.2811888    2.2811888    2.5329067
           2.5329067    2.5396068    2.5396068    2.6698436    2.6698436

           2.8749771    2.8749771    2.9259896    2.9259896    3.0857241
           3.0857241    3.1398307    3.1398307    3.2899491    3.2899491
           3.3007465    3.3007465    3.3212371    3.3212371    3.4952566
           3.4952566    3.5112819    3.5112819    3.6520129    3.6520129
           3.7559356    3.7559356    3.8868345    3.8868345    3.9400244
           3.9400244    4.0954014    4.0954014    4.1017738    4.1017738
           4.1908303    4.1908303    4.2543891    4.2543891    4.4573664
           4.4573664    4.4824334    4.4824334
       ********************************************************
:GAP (global)   :    0.0    Ry =     0.0   eV (metal)
:GAP (this spin):    0.0    Ry =     0.0   eV (metal)
         Bandranges (emin - emax) and occupancy:
:BAN00020:  20    0.985034    1.133908  1.00000000
:BAN00021:  21    1.032974    1.180704  1.00000000
:BAN00022:  22    1.032974    1.180704  1.00000000
:BAN00023:  23    1.098176    1.187556  0.98371883
:BAN00024:  24    1.098176    1.187556  0.98371882
:BAN00025:  25    1.138767    1.207545  0.63890556
:BAN00026:  26    1.138767    1.207545  0.63890553
:BAN00027:  27    1.160729    1.216949  0.36810950
:BAN00028:  28    1.160729    1.216949  0.36810946
:BAN00029:  29    1.175782    1.219776  0.00926615
:BAN00030:  30    1.175782    1.219776  0.00926614
:BAN00031:  31    1.188364    1.227723  0.00000000
:BAN00032:  32    1.188364    1.227723  0.00000000
:BAN00033:  33    1.212211    1.238060  0.00000000
:BAN00034:  34    1.212211    1.238060  0.00000000
:BAN00035:  35    1.218708    1.245499  0.00000000
        Energy to separate low and high energystates:    0.88332


:NOE  : NUMBER OF ELECTRONS          =   26.000

:FER  : F E R M I - ENERGY(TETRAH.M.)=   1.1823081023
:GMA  : POTENTIAL AND CHARGE CUT-OFF  12.00 Ry**.5

:POS001: ATOM   -1 X,Y,Z = 0.00000 0.89750 0.25000  MULT= 2  ZZ= 59.000  Pr1       

       LMMAX 16
       LM=   0 0  1 0  2 0  2 2  3 0  3 2  4 0  4 2  4 4  5 0  5 2  5 4  6 0  6 2  6 4  6 6

:CHA001: TOTAL VALENCE CHARGE INSIDE SPHERE   1 =   9.8578    (RMT=  2.3000 )
:PCS001: PARTIAL CHARGES SPHERE =  1 S,P,D,F,PX,PY,PZ,D-Z2,D-X2Y2,D-XY,D-XZ,D-YZ 
:QTL001: 1.9302 4.9585 0.8942 2.0713 1.6535 1.6476 1.6575 0.1753 0.1591 0.1831 0.1852 0.1915
        Q-s-low E-s-low   Q-p-low E-p-low   Q-d-low E-d-low   Q-f-low E-f-low
:EPL001:  1.8696 -1.3953    4.8687 -0.1002    0.0265 -0.1259    0.0086 -0.1328
        Q-s-hi  E-s-hi    Q-p-hi  E-p-hi    Q-d-hi  E-d-hi    Q-f-hi  E-f-hi 
:EPH001:  0.0606  1.0931    0.0898  1.1070    0.8677  1.0816    2.0627  1.1443

                      VXX         VYY         VZZ       UP TO R
:VZZ001:            -0.70192     9.05805    -8.35613       2.300

:CHA  : TOTAL VALENCE CHARGE INSIDE UNIT CELL =      26.000000

:SUM  : SUM OF EIGENVALUES =           4.225873654


        1.ATOM      Pr1                  14 CORE STATES
       CORE-FORCE in mRy/a.u. = |F|      Fx             Fy             Fz
:FCO001:   1.ATOM   1592.720201655115      0.000000000000      0.000000000000   1592.720201655115

:1S 001: 1S               -3066.394073505 Ry
:2S 001: 2S                -492.146530634 Ry
:2PP001: 2P*               -465.245079314 Ry
:2P 001: 2P                -429.847772904 Ry
:3S 001: 3S                -105.245774172 Ry
:3PP001: 3P*                -93.783263919 Ry
:3P 001: 3P                 -86.775626684 Ry
:3DD001: 3D*                -66.701326067 Ry
:3D 001: 3D                 -65.189891470 Ry
:4S 001: 4S                 -19.913084952 Ry
:4PP001: 4P*                -15.618871006 Ry
:4P 001: 4P                 -14.090064099 Ry
:4DD001: 4D*                 -7.020287076 Ry
:4D 001: 4D                  -6.750409126 Ry
:CINT001 Core Integral Atom   1   45.998482

       DENSITY AT NUCLEUS
        JATOM        VALENCE       SEMI-CORE          CORE           TOTAL
:RTO001:   1      641.303983        0.000000   656826.387017   657467.691000
     
       CHARGES OF NEW CHARGE DENSITY
:NTO   : INTERSTITIAL CHARGE =     6.284373
:NPC   : PW Pseudocharge     =    17.650354
:NTO001: CHARGE SPHERE  1    =    55.856293

:NEC01: NUCLEAR AND ELECTRONIC CHARGE    118.00000   117.99696
     
       CHARGES OF OLD CHARGE DENSITY
:OTO   : INTERSTITIAL CHARGE =     6.282467
:OPC   : PW Pseudocharge     =    17.633366
:OTO001: CHARGE SPHERE  1    =    55.858767

:NEC02: NUCLEAR AND ELECTRONIC CHARGE    118.00000   118.00000
     
       CONVERGENCE TEST
:DTO001: DIFFERENCE IN SPHERE  1 =  0.0051112

:DIS  :  CHARGE DISTANCE       ( 0.0051112 for atom    1 spin 1)      0.0051112
 PW Mixed is          294
 
******************************************************
* MULTISECANT MIXING VER9 RELEASE 10.4.0              *
* Slow Mode, cautious                                *
* Fixed density scale                                *
* Regularization       1.000E-04                     *
* Step Trust Radius    0.75000                       *
* Trust Upper Limit    2.000E+00                     *
* Max Number of Memory Steps   12                    *
******************************************************
 
:PWTMP   1.7340E+02  1.9467E+02  2.7533E+02
:PLANE:  PW TOTAL      5.9320 DISTAN   9.30E-03  1.57E-01 %
:CHARG:  CLM/ATOM   1381.9452 DISTAN   9.76E-03  7.07E-04 %
 
Step History
        DMIX         DMIXT        Red     Pred      Trust     Lambda    MagRel    MagAbs     Beta
  1   3.5000E-02   3.5000E-02 -1.00E+00  1.00E+00 -1.00E+01  1.00E+00  3.50E-02  3.50E-02  1.00E+00
  2   2.5000E-02   2.5000E-02  8.07E-01  1.00E+00 -1.00E+01  1.00E+00  2.50E-02  1.28E-03  1.00E+00
  3   2.0000E-02   2.0000E-02  3.33E-01  3.41E-01  5.85E-01  3.23E-02  2.87E-01  1.19E-02  1.00E+00
  4   1.5604E-02   1.5604E-02 -1.00E+00  1.00E+00  7.32E-01  1.00E+00  1.71E-02  2.35E-04  1.00E+00
:JACOBIANS    3.666E-01   2.658E-01
  
:NORMS:  1/Froebius, Min, Max, Used   0.5245E+00  0.4070E+00  0.9340E+00  0.5688E+00
:INFO :  Number of Memory Steps    3 Skipping    0
:INFO :  SLambda=    1.1184790694  Max    1.1184790694
:PREDicted Charge, CTotal, PW Trust    2.272E-03   4.544E-03   2.160E-02
:PREDicted DMix, Beta, BLim   8.8176E-01  2.8219E+01  1.0786E+00

Eigenvalues, unscaled except for SY+YY
   #     SY Real        SY Imag          SS             YY         SY+YY Real      SY+YY Imag
   1   2.968231E-10   0.000000E+00   7.140265E-01   2.207133E+00   4.356297E-08   0.000000E+00
   2   3.811362E-01   0.000000E+00   1.113520E-01   7.928666E-01   2.637423E+00   0.000000E+00
   3   7.419451E-01   0.000000E+00   3.340804E-11   3.930136E-08   1.618719E+00   0.000000E+00
 
:INFO :  Singular value  2.638E+00 Weight  1.000E+00 Projection -2.770E-03
:INFO :  Singular value  1.619E+00 Weight  1.000E+00 Projection -1.447E-02
:INFO :  Singular value  4.356E-08 Weight  3.896E-08 Projection -2.449E-07
:RANK :  ACTIVE   2.00/3  =  66.67 % ; YY RANK   2.00/3  =  66.67 %
 
:BLIM :  VZERO Control Off
:TRUST:  Step 8.68E-01  Charge 7.50E-02 (e) CTO  2.50E-01 (e) PW  3.50E-01 (e)
:DTRUS:  Lambda    1.966E-02 Increment    1.819E-12 Iterations   100 DMIX    3.685E-02
:INFOA:  Angle SubSpace to MSR1      0.18
:DIRM :  MEMORY  3/12 SCALE   1.000 RED  0.98 PRED  1.00 NEXT  0.20 
:INFO :  Limited by Atoms F by Step T

:TRAVE:  Charge 1.35E-03 (e) CTO  2.70E-03 (e) PW  1.54E-02 (e)
:DIRP :  |MSR1|= 9.616E-03 |PRATT|= 9.301E-03 ANGLE=   3.0 DEGREES
:DIRQ :  |MSR1|= 6.684E-03 |PRATT|= 9.763E-03 ANGLE=   8.0 DEGREES
:DIRT :  |MSR1|= 1.171E-02 |PRATT|= 1.348E-02 ANGLE=  12.9 DEGREES
:MIX  :   MSE1   REGULARIZATION:  2.21E-04 GREED: 0.03901  LMStep 0.94  0.8685 Step           
     
       CHARGES OF MIXED CHARGE DENSITY
:CTO   : INTERSTITIAL CHARGE =     6.286662
:CPC   : PW Pseudocharge     =    17.660444
:CTO001: CHARGE SPHERE  1    =    55.856669

:NEC03: NUCLEAR AND ELECTRONIC CHARGE    118.00000   118.00000

PW CHANGE     H    K    L      Current       Change    Residue
:PTO001:      0    0    0  8.69753848E-02  1.136E-04  1.107E-04
:PTO003:      0    2    0  1.94291939E-02  2.550E-05  2.269E-05
:PTO004:     -1    1    0  8.99084339E-02  1.354E-04  1.268E-04
:PTO005:      0    2   -1 -1.02219897E-01 -1.677E-04 -1.631E-04
:PTO006:      0    0   -2 -5.30028034E-02 -8.600E-05 -8.327E-05
:PTO007:     -1    1   -1 -1.04569843E-01 -1.596E-04 -1.508E-04
:PTO008:      0    2   -2 -1.38389816E-02 -2.021E-05 -1.953E-05
:PTO009:     -1    1   -2 -6.87235364E-02 -8.131E-05 -7.954E-05
:PTO011:     -1    3    0 -9.84163640E-03 -5.481E-06 -5.843E-06
:PTO012:     -1    3   -1 -3.90590873E-02 -1.167E-05 -1.915E-05
:PTO013:      0    4    0 -6.36641213E-03  4.533E-06  3.226E-06
:PTO014:      0    2   -3  1.49642054E-02 -9.005E-06 -5.480E-06

:ENE  : ********** TOTAL ENERGY IN Ry =       -36944.37187168

       TOTAL FORCE IN mRy/a.u. = |F|     Fx             Fy             Fz     with/without FOR in case.in2
:FOR001:   1.ATOM         10.458          0.000          0.000         10.458 partial forces
       TOTAL FORCE WITH RESPECT TO GLOBAL CARTESIAN COORDINATES:
:FCA001:   1.ATOM                         0.000         10.458          0.000 partial forces
       TOTAL FORCE WITH RESPECT TO THE GLOBAL COORDINATE SYSTEM:
:FGL001:   1.ATOM                 0.000000000    10.457766164     0.000000000 partial forces
 Flat Integration
 New Mode for Coulomb Integral
 Consistent 3/8+Simpson combinations
 Extension of core to zero
 LDM version in phi
 Fifth-order quadrature in outwin


            ---------
:ITE018: 18. ITERATION
            ---------

:NATO :    1 INDEPENDENT AND    2 TOTAL ATOMS IN UNITCELL
       SUBSTANCE: aU                                                          

       LATTICE                      = CXY 
:POT  : POTENTIAL OPTION EX_LDA EC_LDA VX_LDA VC_LDA
:LAT  : LATTICE CONSTANTS=  5.37049 10.89808  9.40854    1.571    1.571    1.571
:VOL  : UNIT CELL VOLUME =     275.33200
       MODE OF CALCULATION IS       = RELA
       NON-SPINPOLARIZED CALCULATION
:IFFT  : FFT-parameters:   48   90   72 Factor: 2.00


   CONVERGENCE PARAMETER FOR PSEUDOCHARGE: NCON=  9
   MAXIMAL VALUE OF RMT(JATOM)*ABSK(NKK) : RK  =27.59804


:VKCOUL :  VK-COUL convergence: 0.165E-06
       ATOMNUMBER=  1 Pr1        VCOUL-ZERO =  0.65468E+00
:EFG001:                        EFG         =     9.12988   *10**21  V / m**2
                               V20  TOT/SRF=    -7.33450    -0.07157
                               V22  TOT/SRF=    -4.89531    -0.01286
                               V22M TOT/SRF=     0.00000     0.00000
                               V21  TOT/SRF=     0.00000     0.00000
                               V21M TOT/SRF=     0.00000     0.00000

             -0.66073    0.00000    0.00000       -0.66073    0.00000    0.00000
              0.00000    9.12988    0.00000        0.00000    9.12988    0.00000
              0.00000    0.00000   -8.46915        0.00000    0.00000   -8.46915

         MAIN DIRECTIONS OF THE EFG   1.0000  0.0000  0.0000
                                      0.0000  1.0000  0.0000
                                      0.0000  0.0000  1.0000
:ANG001:  ANGLE WITH OLD X-AXIS =         0.0

:ETA001:                         ASYMM. ETA =     0.85526


     HELLMANN-FEYNMAN-FORCE IN mRy/a.u. = |F|  Fx       Fy             Fz
:FHF001:   1.ATOM   1579.246534850869      0.000000000000      0.000000000000  -1579.246534850869

:FIT001: LUSE= 13 SIGMA OF V-XC FIT FOR ATOM  1  0.9409823E-04
:FIT001: LUSE= 13 SIGMA OF V-XC FIT FOR ATOM  1  0.9409823E-04
:DEN  : DENSITY INTEGRAL  =        -14216.54606636   (Ry)
       ELS_POTENTIAL_AT Z=0 and Z=0.5:   1.02441   1.02441
       ELS_POTENTIAL_AT Y=0 and Y=0.5:  -0.01259  -0.01259
:VZERO:v0,v0c,v0x   0.27451   1.02441  -0.74989 v5,v5c,v5x   0.27451   1.02441  -0.74989
:VZERY:v0,v0c,v0x  -0.98675  -0.01259  -0.97416 v5,v5c,v5x  -0.98675  -0.01259  -0.97416
:VZERX:v0,v0c,v0x  -1.30686  -0.39633  -0.91053 v5,v5c,v5x  -1.30686  -0.39633  -0.91053
:LMAX-WF:   10   Non-Spherical LMAX:   4

          ATOMIC SPHERE DEPENDENT PARAMETERS FOR ATOM  Pr1       
:e__0001: OVERALL ENERGY PARAMETER IS    0.9822
          OVERALL BASIS SET ON ATOM IS LAPW
:E0_0001: E( 0)=    0.9822
             APW+lo
:E0_0001: E( 0)=   -1.4391   E(BOTTOM)=   -2.080   E(TOP)=   -0.798  4  5   235
             LOCAL ORBITAL
:E1_0001: E( 1)=    1.3822
             APW+lo
:E1_0001: E( 1)=    0.0286   E(BOTTOM)=   -0.937   E(TOP)=    0.994  3  4   248
             LOCAL ORBITAL
:E3_0001: E( 3)=    1.2042   E(BOTTOM)=    0.996   E(TOP)=    1.412  0  1   119
             APW+lo
:E2_0001: E( 2)=    0.9822   E(BOTTOM)=    0.798   E(TOP)= -200.000  2 -1   120
             APW+lo

       K=   0.06250   0.00000   0.06250            1
:RKM  : MATRIX SIZE   279LOs:  40  RKM= 8.50  WEIGHT= 4.00  PGR:    
       EIGENVALUES ARE:
:EIG00001:      -1.4907718   -1.4031311   -0.3141891   -0.0410647    0.0234885
:EIG00006:       0.0481136    0.0738529    0.0762258    1.0315909    1.0522431
:EIG00011:       1.1511954    1.1585873    1.1615820    1.1726665    1.1925051
:EIG00016:       1.2173952    1.2277015    1.2312997    1.2382069    1.2429132
:EIG00021:       1.2544048    1.2552711    1.2568592    1.2829228    1.2995617
:EIG00026:       1.3352149    1.4255083    1.4302029    1.5107672    1.5547870
:EIG00031:       1.6155020    1.7974746    1.8393186    1.9017649    2.1968600
:EIG00036:       2.2440810    2.2821345    2.5342067    2.5404495    2.6713126
:EIG00041:       2.8755049    2.9272721    3.0866631    3.1411092    3.2909101
:EIG00046:       3.3021435    3.3218589    3.4994056    3.5088386    3.6526242
 
:EIG00051:       3.7571205    3.8894101    3.9406242    4.0967483    4.1027323
:EIG00056:       4.1914610    4.2578960    4.4564313    4.4832085    4.5259425
:EIG00061:       4.5852573    4.7107764    4.7144231    4.8543371    4.9074654
:EIG00066:       4.9802355    4.9833030    5.0336266    5.1587776    5.2012186
:EIG00071:       5.2872394    5.3431796    5.4131147    5.4817110    5.4835861
:EIG00076:       5.4974572    5.5521299    5.5644873    5.5933607    5.6896791
:EIG00081:       5.7098525    5.7567293    5.7938346    5.8531241    5.9076834
:EIG00086:       5.9318664    6.0713369    6.1525324    6.1752377    6.2253352
:EIG00091:       6.2859241    6.3504438    6.3757237    6.4115969    6.4165456
:EIG00096:       6.5706424    6.6030173    6.6064548    6.6365019    6.7437035
 
:EIG00101:       6.7753261    6.8808619    6.9384586    6.9647116    6.9727103
:EIG00106:       7.1094828    7.1258514    7.1931922    7.2729085    7.4475434
:EIG00111:       7.5448535    7.5816174    7.5845699    7.6395888    7.7653913
:EIG00116:       7.8347412    7.9698854    8.0691418    8.0805114    8.1357872
:EIG00121:       8.1880163    8.2224307    8.2368881    8.3787549    8.4061681
:EIG00126:       8.4215021    8.4975250    8.5872930    8.6038145    8.6603636
:EIG00131:       8.6611920
       ********************************************************

:KPT   :      NUMBER OF K-POINTS:   288
   0.0   0.0 angle (M,z), angle (M,x) deg
 
        SPIN-ORBIT EIGENVALUES:
     K=   0.06250   0.00000   0.06250            1
      MATRIX SIZE=  262   WEIGHT= 4.00
     EIGENVALUES ARE:
          -1.4907743   -1.4907743   -1.4031335   -1.4031335   -0.3450193
          -0.3450193   -0.1124037   -0.1124037   -0.0558925   -0.0558925
           0.1069899    0.1069899    0.1129166    0.1129166    0.1392617
           0.1392617    1.0314725    1.0314725    1.0524103    1.0524103
           1.1497730    1.1497730    1.1568373    1.1568373    1.1599269
           1.1599269    1.1713448    1.1713448    1.1902187    1.1902187
           1.2112916    1.2112916    1.2224624    1.2224624    1.2316850
           1.2316850    1.2426243    1.2426243    1.2458434    1.2458434

           1.2544200    1.2544200    1.2570586    1.2570586    1.2611727
           1.2611727    1.2851680    1.2851680    1.3010729    1.3010729
           1.3355197    1.3355197    1.4212901    1.4212901    1.4344938
           1.4344938    1.5113022    1.5113022    1.5547710    1.5547710
           1.6158524    1.6158524    1.7976818    1.7976818    1.8394081
           1.8394081    1.9020249    1.9020249    2.1973612    2.1973612
           2.2441657    2.2441657    2.2821449    2.2821449    2.5337700
           2.5337700    2.5405667    2.5405667    2.6707014    2.6707014

           2.8758364    2.8758364    2.9268827    2.9268827    3.0866571
           3.0866571    3.1406829    3.1406829    3.2908621    3.2908621
           3.3016245    3.3016245    3.3221442    3.3221442    3.4961334
           3.4961334    3.5121662    3.5121662    3.6529371    3.6529371
           3.7568033    3.7568033    3.8877059    3.8877059    3.9408342
           3.9408342    4.0962441    4.0962441    4.1025935    4.1025935
           4.1917024    4.1917024    4.2552724    4.2552724    4.4582609
           4.4582609    4.4832823    4.4832823
       ********************************************************
:GAP (global)   :    0.0    Ry =     0.0   eV (metal)
:GAP (this spin):    0.0    Ry =     0.0   eV (metal)
         Bandranges (emin - emax) and occupancy:
:BAN00020:  20    0.985906    1.134779  1.00000000
:BAN00021:  21    1.033855    1.181627  1.00000000
:BAN00022:  22    1.033855    1.181627  1.00000000
:BAN00023:  23    1.099021    1.188495  0.98383714
:BAN00024:  24    1.099021    1.188495  0.98383714
:BAN00025:  25    1.139673    1.208491  0.63911945
:BAN00026:  26    1.139673    1.208491  0.63911943
:BAN00027:  27    1.161647    1.217933  0.36782243
:BAN00028:  28    1.161647    1.217933  0.36782240
:BAN00029:  29    1.176712    1.220769  0.00922100
:BAN00030:  30    1.176712    1.220769  0.00922100
:BAN00031:  31    1.189325    1.228687  0.00000000
:BAN00032:  32    1.189325    1.228687  0.00000000
:BAN00033:  33    1.213166    1.239033  0.00000000
:BAN00034:  34    1.213166    1.239033  0.00000000
:BAN00035:  35    1.219672    1.246461  0.00000000
        Energy to separate low and high energystates:    0.88418


:NOE  : NUMBER OF ELECTRONS          =   26.000

:FER  : F E R M I - ENERGY(TETRAH.M.)=   1.1832511278
:GMA  : POTENTIAL AND CHARGE CUT-OFF  12.00 Ry**.5

:POS001: ATOM   -1 X,Y,Z = 0.00000 0.89750 0.25000  MULT= 2  ZZ= 59.000  Pr1       

       LMMAX 16
       LM=   0 0  1 0  2 0  2 2  3 0  3 2  4 0  4 2  4 4  5 0  5 2  5 4  6 0  6 2  6 4  6 6

:CHA001: TOTAL VALENCE CHARGE INSIDE SPHERE   1 =   9.8574    (RMT=  2.3000 )
:PCS001: PARTIAL CHARGES SPHERE =  1 S,P,D,F,PX,PY,PZ,D-Z2,D-X2Y2,D-XY,D-XZ,D-YZ 
:QTL001: 1.9302 4.9586 0.8947 2.0702 1.6535 1.6476 1.6575 0.1754 0.1592 0.1831 0.1854 0.1916
        Q-s-low E-s-low   Q-p-low E-p-low   Q-d-low E-d-low   Q-f-low E-f-low
:EPL001:  1.8696 -1.3945    4.8688 -0.0995    0.0265 -0.1252    0.0086 -0.1321
        Q-s-hi  E-s-hi    Q-p-hi  E-p-hi    Q-d-hi  E-d-hi    Q-f-hi  E-f-hi 
:EPH001:  0.0606  1.0940    0.0899  1.1079    0.8683  1.0825    2.0617  1.1452

                      VXX         VYY         VZZ       UP TO R
:VZZ001:            -0.71167     9.09174    -8.38006       2.300

:CHA  : TOTAL VALENCE CHARGE INSIDE UNIT CELL =      26.000000

:SUM  : SUM OF EIGENVALUES =           4.246732244


        1.ATOM      Pr1                  14 CORE STATES
       CORE-FORCE in mRy/a.u. = |F|      Fx             Fy             Fz
:FCO001:   1.ATOM   1588.153908742975      0.000000000000      0.000000000000   1588.153908742975

:1S 001: 1S               -3066.393998747 Ry
:2S 001: 2S                -492.146147338 Ry
:2PP001: 2P*               -465.244764966 Ry
:2P 001: 2P                -429.847432768 Ry
:3S 001: 3S                -105.244823858 Ry
:3PP001: 3P*                -93.782342996 Ry
:3P 001: 3P                 -86.774679211 Ry
:3DD001: 3D*                -66.700455141 Ry
:3D 001: 3D                 -65.189010465 Ry
:4S 001: 4S                 -19.911930304 Ry
:4PP001: 4P*                -15.617730102 Ry
:4P 001: 4P                 -14.088934948 Ry
:4DD001: 4D*                 -7.019195448 Ry
:4D 001: 4D                  -6.749322473 Ry
:CINT001 Core Integral Atom   1   45.998482

       DENSITY AT NUCLEUS
        JATOM        VALENCE       SEMI-CORE          CORE           TOTAL
:RTO001:   1      641.301637        0.000000   656826.478425   657467.780063
     
       CHARGES OF NEW CHARGE DENSITY
:NTO   : INTERSTITIAL CHARGE =     6.285097
:NPC   : PW Pseudocharge     =    17.651813
:NTO001: CHARGE SPHERE  1    =    55.855931

:NEC01: NUCLEAR AND ELECTRONIC CHARGE    118.00000   117.99696
     
       CHARGES OF OLD CHARGE DENSITY
:OTO   : INTERSTITIAL CHARGE =     6.286662
:OPC   : PW Pseudocharge     =    17.660444
:OTO001: CHARGE SPHERE  1    =    55.856669

:NEC02: NUCLEAR AND ELECTRONIC CHARGE    118.00000   118.00000
     
       CONVERGENCE TEST
:DTO001: DIFFERENCE IN SPHERE  1 =  0.0009901

:DIS  :  CHARGE DISTANCE       ( 0.0009901 for atom    1 spin 1)      0.0009901
 PW Mixed is          294
 
******************************************************
* MULTISECANT MIXING VER9 RELEASE 10.4.0              *
* Standard Mode with controls                        *
* Fixed density scale                                *
* Regularization       1.000E-04                     *
* Trust Upper Limit    5.000E+00                     *
* Max Number of Memory Steps    8                    *
******************************************************
 
:PWTMP   1.7340E+02  1.9467E+02  2.7533E+02
:PLANE:  PW TOTAL      5.9403 DISTAN   6.94E-04  1.17E-02 %
:CHARG:  CLM/ATOM   1381.9436 DISTAN   2.43E-03  1.76E-04 %
 
Step History
        DMIX         DMIXT        Red     Pred      Trust     Lambda    MagRel    MagAbs     Beta
  1   3.5000E-02   3.5000E-02 -1.00E+00  1.00E+00 -1.00E+01  1.00E+00  3.50E-02  3.50E-02  1.00E+00
  2   2.5000E-02   2.5000E-02  8.07E-01  1.00E+00 -1.00E+01  1.00E+00  2.50E-02  1.28E-03  1.00E+00
  3   2.0000E-02   2.0000E-02  3.33E-01  3.41E-01  5.85E-01  3.23E-02  2.87E-01  1.19E-02  1.00E+00
  4   1.5604E-02   1.5604E-02  9.80E-01  1.00E+00  7.32E-01  1.12E+00  1.71E-02  2.35E-04  1.00E+00
  5   3.9010E-02   3.6848E-02 -1.00E+00  1.99E-01  8.68E-01  1.00E+00  8.68E-01  1.17E-02  1.00E+00
:JACOBIANS    5.134E-01   3.593E-01
  
:NORMS:  1/Froebius, Min, Max, Used   0.6768E+00  0.4047E+00  0.9807E+00  0.8185E+00
:INFO :  Number of Memory Steps    4 Skipping    0
:INFO :  SLambda=    0.7367085312  Max    0.7367085312
:PREDicted Charge, CTotal, PW Trust    2.229E-03   4.458E-03   2.098E-02
:PREDicted DMix, Beta, BLim   2.5000E-02  1.0624E+00  1.7662E+00

Eigenvalues, unscaled except for SY+YY
   #     SY Real        SY Imag          SS             YY         SY+YY Real      SY+YY Imag
   1   1.827751E+00   0.000000E+00   1.734825E+00   2.589308E+00   3.705836E+00   0.000000E+00
   2   3.251617E-01   0.000000E+00   9.719016E-02   1.410691E+00   1.880233E+00   0.000000E+00
   3   6.466671E-10   0.000000E+00   1.198987E-08   6.586782E-08   3.811330E-08   0.000000E+00
   4   2.347380E-08   0.000000E+00   1.382197E-11   3.531046E-08   8.380071E-08   0.000000E+00
 
:INFO :  Singular value  3.706E+00 Weight  1.000E+00 Projection -4.510E-04
:INFO :  Singular value  1.880E+00 Weight  1.000E+00 Projection -3.783E-04
:INFO :  Singular value  8.392E-08 Weight  1.050E-07 Projection -8.629E-07
:INFO :  Singular value  3.806E-08 Weight  2.160E-08 Projection  1.215E-07
:RANK :  ACTIVE   2.00/4  =  50.00 % ; YY RANK   2.00/4  =  50.00 %
 
:BLIM :  VZERO Control Off
:TRUST:  Step 1.26E+00  Charge 7.50E-02 (e) CTO  2.50E-01 (e) PW  3.50E-01 (e)
:DIRM :  MEMORY  4/8  SCALE   1.000 RED  0.19 PRED  0.20 NEXT  0.96 
:TRAVE:  Charge 7.49E-04 (e) CTO  1.50E-03 (e) PW  8.32E-03 (e)
:DIRP :  |MSR1|= 6.122E-04 |PRATT|= 6.935E-04 ANGLE=  83.3 DEGREES
:DIRQ :  |MSR1|= 4.269E-04 |PRATT|= 2.429E-03 ANGLE=  43.1 DEGREES
:DIRT :  |MSR1|= 7.464E-04 |PRATT|= 2.526E-03 ANGLE=  64.7 DEGREES
:MIX  :   MSD1   REGULARIZATION:  2.59E-04 GREED: 0.02733  Newton 1.00  0.2954                
     
       CHARGES OF MIXED CHARGE DENSITY
:CTO   : INTERSTITIAL CHARGE =     6.286957
:CPC   : PW Pseudocharge     =    17.662169
:CTO001: CHARGE SPHERE  1    =    55.856522

:NEC03: NUCLEAR AND ELECTRONIC CHARGE    118.00000   118.00000

PW CHANGE     H    K    L      Current       Change    Residue
:PTO001:      0    0    0  8.69827181E-02  7.333E-06  5.037E-06
:PTO003:      0    2    0  1.94310853E-02  1.891E-06  8.570E-06
:PTO004:     -1    1    0  8.99172432E-02  8.809E-06  5.496E-06
:PTO005:      0    2   -1 -1.02230486E-01 -1.059E-05  1.389E-06
:PTO006:      0    0   -2 -5.30082290E-02 -5.426E-06  1.087E-06
:PTO007:     -1    1   -1 -1.04579758E-01 -9.914E-06  9.196E-06
:PTO008:      0    2   -2 -1.38403014E-02 -1.320E-06 -1.296E-06
:PTO009:     -1    1   -2 -6.87285316E-02 -4.995E-06  5.323E-06
:PTO011:     -1    3    0 -9.84188196E-03 -2.456E-07  3.300E-06
:PTO012:     -1    3   -1 -3.90599593E-02 -8.720E-07 -8.520E-06
:PTO013:      0    4    0 -6.36612540E-03  2.867E-07 -6.128E-07
:PTO014:      0    2   -3  1.49637173E-02 -4.881E-07  4.535E-06

:ENE  : ********** TOTAL ENERGY IN Ry =       -36944.37186274

       TOTAL FORCE IN mRy/a.u. = |F|     Fx             Fy             Fz     with/without FOR in case.in2
:FOR001:   1.ATOM          8.907          0.000          0.000          8.907 partial forces
       TOTAL FORCE WITH RESPECT TO GLOBAL CARTESIAN COORDINATES:
:FCA001:   1.ATOM                         0.000          8.907          0.000 partial forces
       TOTAL FORCE WITH RESPECT TO THE GLOBAL COORDINATE SYSTEM:
:FGL001:   1.ATOM                 0.000000000     8.907373892     0.000000000 partial forces
 Flat Integration
 New Mode for Coulomb Integral
 Consistent 3/8+Simpson combinations
 Extension of core to zero
 LDM version in phi
 Fifth-order quadrature in outwin


            ---------
:ITE019: 19. ITERATION
            ---------

:NATO :    1 INDEPENDENT AND    2 TOTAL ATOMS IN UNITCELL
       SUBSTANCE: aU                                                          

       LATTICE                      = CXY 
:POT  : POTENTIAL OPTION EX_LDA EC_LDA VX_LDA VC_LDA
:LAT  : LATTICE CONSTANTS=  5.37049 10.89808  9.40854    1.571    1.571    1.571
:VOL  : UNIT CELL VOLUME =     275.33200
       MODE OF CALCULATION IS       = RELA
       NON-SPINPOLARIZED CALCULATION
:IFFT  : FFT-parameters:   48   90   72 Factor: 2.00


   CONVERGENCE PARAMETER FOR PSEUDOCHARGE: NCON=  9
   MAXIMAL VALUE OF RMT(JATOM)*ABSK(NKK) : RK  =27.59804


:VKCOUL :  VK-COUL convergence: 0.165E-06
       ATOMNUMBER=  1 Pr1        VCOUL-ZERO =  0.65474E+00
:EFG001:                        EFG         =     9.12757   *10**21  V / m**2
                               V20  TOT/SRF=    -7.33310    -0.07157
                               V22  TOT/SRF=    -4.89380    -0.01285
                               V22M TOT/SRF=     0.00000     0.00000
                               V21  TOT/SRF=     0.00000     0.00000
                               V21M TOT/SRF=     0.00000     0.00000

[...]
:INFO :  Singular value  1.896E+00 Weight  1.000E+00 Projection -1.498E-04
:INFO :  Singular value  1.396E+00 Weight  1.000E+00 Projection -9.318E-04
:INFO :  Singular value  5.297E-07 Weight  3.306E-06 Projection -3.286E-07
:INFO :  Singular value  2.678E-08 Weight  8.450E-09 Projection -2.500E-09
:INFO :  Singular value  1.107E-09 Weight  1.443E-11 Projection -9.203E-11
:RANK :  ACTIVE   4.00/7  =  57.14 % ; YY RANK   4.00/7  =  57.14 %
 
:BLIM :  VZERO Control Off
:TRUST:  Step 1.98E+00  Charge 3.60E-02 (e) CTO  1.20E-01 (e) PW  1.68E-01 (e)
:DIRM :  MEMORY  7/8  SCALE   1.000 RED  0.93 PRED  1.00 NEXT  0.27 
:TRAVE:  Charge 2.12E-04 (e) CTO  4.23E-04 (e) PW  1.29E-03 (e)
:DIRP :  |MSR1|= 3.833E-04 |PRATT|= 3.637E-04 ANGLE=  10.6 DEGREES
:DIRQ :  |MSR1|= 6.086E-04 |PRATT|= 8.270E-04 ANGLE=  22.2 DEGREES
:DIRT :  |MSR1|= 7.192E-04 |PRATT|= 9.035E-04 ANGLE=  21.9 DEGREES
:MIX  :   MSR1   REGULARIZATION:  2.91E-04 GREED: 0.09142  Newton 1.00  0.7960                
     
       CHARGES OF MIXED CHARGE DENSITY
:CTO   : INTERSTITIAL CHARGE =     6.287884
:CPC   : PW Pseudocharge     =    17.660160
:CTO001: CHARGE SPHERE  1    =    55.856058

:NEC03: NUCLEAR AND ELECTRONIC CHARGE    118.00000   118.00000

PW CHANGE     H    K    L      Current       Change    Residue
:PTO001:      0    0    0  8.69787903E-02 -2.543E-06 -1.849E-06
:PTO003:      0    2    0  1.94338820E-02 -2.849E-07 -9.279E-07
:PTO004:     -1    1    0  8.99107405E-02 -4.385E-06 -4.177E-06
:PTO005:      0    2   -1 -1.02220099E-01  4.600E-06  2.822E-06
:PTO006:      0    0   -2 -5.30024396E-02  2.589E-06  1.740E-06
:PTO007:     -1    1   -1 -1.04562215E-01  7.585E-06  6.656E-06
:PTO008:      0    2   -2 -1.38391827E-02  9.785E-07  1.249E-06
:PTO009:     -1    1   -2 -6.87179138E-02  5.152E-06  5.594E-06
:PTO011:     -1    3    0 -9.83964551E-03  5.329E-07  2.698E-07
:PTO012:     -1    3   -1 -3.90662484E-02 -1.973E-06 -1.789E-06
:PTO013:      0    4    0 -6.36736506E-03 -6.531E-07 -8.015E-07
:PTO014:      0    2   -3  1.49693401E-02  2.664E-06  3.342E-06

:ENE  : ********** TOTAL ENERGY IN Ry =       -36944.37186565

       TOTAL FORCE IN mRy/a.u. = |F|     Fx             Fy             Fz     with/without FOR in case.in2
:FOR001:   1.ATOM          9.723          0.000          0.000          9.723 partial forces
       TOTAL FORCE WITH RESPECT TO GLOBAL CARTESIAN COORDINATES:
:FCA001:   1.ATOM                         0.000          9.723          0.000 partial forces
       TOTAL FORCE WITH RESPECT TO THE GLOBAL COORDINATE SYSTEM:
:FGL001:   1.ATOM                 0.000000000     9.722667405     0.000000000 partial forces
 Flat Integration
 New Mode for Coulomb Integral
 Consistent 3/8+Simpson combinations
 Extension of core to zero
 LDM version in phi
 Fifth-order quadrature in outwin


            ---------
:ITE022: 22. ITERATION
            ---------

:NATO :    1 INDEPENDENT AND    2 TOTAL ATOMS IN UNITCELL
       SUBSTANCE: aU                                                          

       LATTICE                      = CXY 
:POT  : POTENTIAL OPTION EX_LDA EC_LDA VX_LDA VC_LDA
:LAT  : LATTICE CONSTANTS=  5.37049 10.89808  9.40854    1.571    1.571    1.571
:VOL  : UNIT CELL VOLUME =     275.33200
       MODE OF CALCULATION IS       = RELA
       NON-SPINPOLARIZED CALCULATION
:IFFT  : FFT-parameters:   48   90   72 Factor: 2.00


   CONVERGENCE PARAMETER FOR PSEUDOCHARGE: NCON=  9
   MAXIMAL VALUE OF RMT(JATOM)*ABSK(NKK) : RK  =27.59804


:VKCOUL :  VK-COUL convergence: 0.165E-06
       ATOMNUMBER=  1 Pr1        VCOUL-ZERO =  0.65471E+00
:EFG001:                        EFG         =     9.11787   *10**21  V / m**2
                               V20  TOT/SRF=    -7.33248    -0.07148
                               V22  TOT/SRF=    -4.88446    -0.01290
                               V22M TOT/SRF=     0.00000     0.00000
                               V21  TOT/SRF=     0.00000     0.00000
                               V21M TOT/SRF=     0.00000     0.00000

             -0.65105    0.00000    0.00000       -0.65105    0.00000    0.00000
              0.00000    9.11787    0.00000        0.00000    9.11787    0.00000
              0.00000    0.00000   -8.46682        0.00000    0.00000   -8.46682

         MAIN DIRECTIONS OF THE EFG   1.0000  0.0000  0.0000
                                      0.0000  1.0000  0.0000
                                      0.0000  0.0000  1.0000
:ANG001:  ANGLE WITH OLD X-AXIS =         0.0

:ETA001:                         ASYMM. ETA =     0.85719


     HELLMANN-FEYNMAN-FORCE IN mRy/a.u. = |F|  Fx       Fy             Fz
:FHF001:   1.ATOM   1573.378271956135      0.000000000000      0.000000000000  -1573.378271956135

:FIT001: LUSE= 13 SIGMA OF V-XC FIT FOR ATOM  1  0.9450438E-04
:FIT001: LUSE= 13 SIGMA OF V-XC FIT FOR ATOM  1  0.9450438E-04
:DEN  : DENSITY INTEGRAL  =        -14216.53717579   (Ry)
       ELS_POTENTIAL_AT Z=0 and Z=0.5:   1.02450   1.02450
       ELS_POTENTIAL_AT Y=0 and Y=0.5:  -0.01251  -0.01251
:VZERO:v0,v0c,v0x   0.27456   1.02450  -0.74994 v5,v5c,v5x   0.27456   1.02450  -0.74994
:VZERY:v0,v0c,v0x  -0.98671  -0.01251  -0.97420 v5,v5c,v5x  -0.98671  -0.01251  -0.97420
:VZERX:v0,v0c,v0x  -1.30688  -0.39631  -0.91057 v5,v5c,v5x  -1.30688  -0.39631  -0.91057
:LMAX-WF:   10   Non-Spherical LMAX:   4

          ATOMIC SPHERE DEPENDENT PARAMETERS FOR ATOM  Pr1       
:e__0001: OVERALL ENERGY PARAMETER IS    0.9833
          OVERALL BASIS SET ON ATOM IS LAPW
:E0_0001: E( 0)=    0.9833
             APW+lo
:E0_0001: E( 0)=   -1.4391   E(BOTTOM)=   -2.080   E(TOP)=   -0.798  4  5   239
             LOCAL ORBITAL
:E1_0001: E( 1)=    1.3833
             APW+lo
:E1_0001: E( 1)=    0.0285   E(BOTTOM)=   -0.937   E(TOP)=    0.994  3  4   243
             LOCAL ORBITAL
:E3_0001: E( 3)=    1.2042   E(BOTTOM)=    0.996   E(TOP)=    1.412  0  1   121
             APW+lo
:E2_0001: E( 2)=    0.9833   E(BOTTOM)=    0.798   E(TOP)= -200.000  2 -1   121
             APW+lo

       K=   0.06250   0.00000   0.06250            1
:RKM  : MATRIX SIZE   279LOs:  40  RKM= 8.50  WEIGHT= 4.00  PGR:    
       EIGENVALUES ARE:
:EIG00001:      -1.4907786   -1.4031452   -0.3141669   -0.0410757    0.0234807
:EIG00006:       0.0480928    0.0738548    0.0761992    1.0316077    1.0522676
:EIG00011:       1.1512056    1.1585685    1.1616082    1.1726763    1.1925258
:EIG00016:       1.2173880    1.2277065    1.2312973    1.2382064    1.2429133
:EIG00021:       1.2543931    1.2552652    1.2568658    1.2829346    1.2995461
:EIG00026:       1.3352171    1.4255197    1.4302250    1.5107713    1.5547873
:EIG00031:       1.6155172    1.7974803    1.8393437    1.9017818    2.1968840
:EIG00036:       2.2441091    2.2821566    2.5342286    2.5404663    2.6713340
:EIG00041:       2.8755333    2.9272960    3.0866618    3.1411408    3.2909132
:EIG00046:       3.3021829    3.3218610    3.4994386    3.5088478    3.6526293
 
:EIG00051:       3.7571081    3.8894020    3.9406495    4.0967384    4.1027101
:EIG00056:       4.1914584    4.2579034    4.4564275    4.4831582    4.5259306
:EIG00061:       4.5852702    4.7107697    4.7144218    4.8543206    4.9074044
:EIG00066:       4.9802324    4.9833054    5.0336206    5.1587554    5.2012208
:EIG00071:       5.2872272    5.3431693    5.4131262    5.4817132    5.4835768
:EIG00076:       5.4974598    5.5521425    5.5644723    5.5933497    5.6896949
:EIG00081:       5.7098405    5.7567194    5.7938340    5.8531327    5.9076726
:EIG00086:       5.9318815    6.0713576    6.1525152    6.1752392    6.2253114
:EIG00091:       6.2859202    6.3504584    6.3756773    6.4115833    6.4164797
:EIG00096:       6.5706684    6.6030070    6.6064309    6.6364865    6.7436782
 
:EIG00101:       6.7753254    6.8808617    6.9384512    6.9647037    6.9727080
:EIG00106:       7.1095105    7.1258414    7.1931789    7.2729019    7.4475423
:EIG00111:       7.5448091    7.5816160    7.5845577    7.6395758    7.7653273
:EIG00116:       7.8347555    7.9697943    8.0690848    8.0804204    8.1357198
:EIG00121:       8.1879791    8.2223530    8.2368573    8.3787350    8.4061438
:EIG00126:       8.4214769    8.4974978    8.5872690    8.6038009    8.6603402
:EIG00131:       8.6611892
       ********************************************************

:KPT   :      NUMBER OF K-POINTS:   288
   0.0   0.0 angle (M,z), angle (M,x) deg
 
        SPIN-ORBIT EIGENVALUES:
     K=   0.06250   0.00000   0.06250            1
      MATRIX SIZE=  262   WEIGHT= 4.00
     EIGENVALUES ARE:
          -1.4907812   -1.4907812   -1.4031475   -1.4031475   -0.3450019
          -0.3450019   -0.1124140   -0.1124140   -0.0559027   -0.0559027
           0.1069737    0.1069737    0.1128981    0.1128981    0.1392572
           0.1392572    1.0314893    1.0314893    1.0524349    1.0524349
           1.1497826    1.1497826    1.1568194    1.1568194    1.1599520
           1.1599520    1.1713545    1.1713545    1.1902388    1.1902388
           1.2112896    1.2112896    1.2224591    1.2224591    1.2316857
           1.2316857    1.2426240    1.2426240    1.2458430    1.2458430

           1.2544133    1.2544133    1.2570539    1.2570539    1.2611757
           1.2611757    1.2851793    1.2851793    1.3010572    1.3010572
           1.3355218    1.3355218    1.4213035    1.4213035    1.4345137
           1.4345137    1.5113064    1.5113064    1.5547713    1.5547713
           1.6158675    1.6158675    1.7976876    1.7976876    1.8394330
           1.8394330    1.9020419    1.9020419    2.1973852    2.1973852
           2.2441938    2.2441938    2.2821670    2.2821670    2.5337920
           2.5337920    2.5405835    2.5405835    2.6707228    2.6707228

           2.8758647    2.8758647    2.9269065    2.9269065    3.0866562
           3.0866562    3.1407140    3.1407140    3.2908656    3.2908656
           3.3016633    3.3016633    3.3221462    3.3221462    3.4961622
           3.4961622    3.5121794    3.5121794    3.6529423    3.6529423
           3.7567910    3.7567910    3.8876982    3.8876982    3.9408587
           3.9408587    4.0962341    4.0962341    4.1025714    4.1025714
           4.1917001    4.1917001    4.2552795    4.2552795    4.4582572
           4.4582572    4.4832334    4.4832334
       ********************************************************
:GAP (global)   :    0.0    Ry =     0.0   eV (metal)
:GAP (this spin):    0.0    Ry =     0.0   eV (metal)
         Bandranges (emin - emax) and occupancy:
:BAN00020:  20    0.985927    1.134805  1.00000000
:BAN00021:  21    1.033874    1.181634  1.00000000
:BAN00022:  22    1.033874    1.181634  1.00000000
:BAN00023:  23    1.099033    1.188495  0.98382382
:BAN00024:  24    1.099033    1.188495  0.98382381
:BAN00025:  25    1.139676    1.208491  0.63906227
:BAN00026:  26    1.139676    1.208491  0.63906223
:BAN00027:  27    1.161652    1.217931  0.36789674
:BAN00028:  28    1.161652    1.217931  0.36789670
:BAN00029:  29    1.176724    1.220766  0.00921722
:BAN00030:  30    1.176724    1.220766  0.00921721
:BAN00031:  31    1.189326    1.228686  0.00000000
:BAN00032:  32    1.189326    1.228686  0.00000000
:BAN00033:  33    1.213170    1.239035  0.00000000
:BAN00034:  34    1.213170    1.239035  0.00000000
:BAN00035:  35    1.219678    1.246464  0.00000000
        Energy to separate low and high energystates:    0.88421


:NOE  : NUMBER OF ELECTRONS          =   26.000

:FER  : F E R M I - ENERGY(TETRAH.M.)=   1.1832543440
:GMA  : POTENTIAL AND CHARGE CUT-OFF  12.00 Ry**.5

:POS001: ATOM   -1 X,Y,Z = 0.00000 0.89750 0.25000  MULT= 2  ZZ= 59.000  Pr1       

       LMMAX 16
       LM=   0 0  1 0  2 0  2 2  3 0  3 2  4 0  4 2  4 4  5 0  5 2  5 4  6 0  6 2  6 4  6 6

:CHA001: TOTAL VALENCE CHARGE INSIDE SPHERE   1 =   9.8576    (RMT=  2.3000 )
:PCS001: PARTIAL CHARGES SPHERE =  1 S,P,D,F,PX,PY,PZ,D-Z2,D-X2Y2,D-XY,D-XZ,D-YZ 
:QTL001: 1.9302 4.9587 0.8947 2.0704 1.6535 1.6476 1.6575 0.1754 0.1592 0.1831 0.1853 0.1916
        Q-s-low E-s-low   Q-p-low E-p-low   Q-d-low E-d-low   Q-f-low E-f-low
:EPL001:  1.8696 -1.3945    4.8688 -0.0995    0.0265 -0.1252    0.0086 -0.1321
        Q-s-hi  E-s-hi    Q-p-hi  E-p-hi    Q-d-hi  E-d-hi    Q-f-hi  E-f-hi 
:EPH001:  0.0606  1.0941    0.0898  1.1079    0.8682  1.0825    2.0618  1.1452

                      VXX         VYY         VZZ       UP TO R
:VZZ001:            -0.69611     9.06967    -8.37356       2.300

:CHA  : TOTAL VALENCE CHARGE INSIDE UNIT CELL =      26.000000

:SUM  : SUM OF EIGENVALUES =           4.246773100


        1.ATOM      Pr1                  14 CORE STATES
       CORE-FORCE in mRy/a.u. = |F|      Fx             Fy             Fz
:FCO001:   1.ATOM   1583.136503291496      0.000000000000      0.000000000000   1583.136503291496

:1S 001: 1S               -3066.394219717 Ry
:2S 001: 2S                -492.146350261 Ry
:2PP001: 2P*               -465.244973376 Ry
:2P 001: 2P                -429.847639142 Ry
:3S 001: 3S                -105.244945020 Ry
:3PP001: 3P*                -93.782468958 Ry
:3P 001: 3P                 -86.774799753 Ry
:3DD001: 3D*                -66.700590621 Ry
:3D 001: 3D                 -65.189144156 Ry
:4S 001: 4S                 -19.911937677 Ry
:4PP001: 4P*                -15.617736486 Ry
:4P 001: 4P                 -14.088937490 Ry
:4DD001: 4D*                 -7.019197819 Ry
:4D 001: 4D                  -6.749324064 Ry
:CINT001 Core Integral Atom   1   45.998482

       DENSITY AT NUCLEUS
        JATOM        VALENCE       SEMI-CORE          CORE           TOTAL
:RTO001:   1      641.300390        0.000000   656826.501600   657467.801990
     
       CHARGES OF NEW CHARGE DENSITY
:NTO   : INTERSTITIAL CHARGE =     6.284834
:NPC   : PW Pseudocharge     =    17.651711
:NTO001: CHARGE SPHERE  1    =    55.856062

:NEC01: NUCLEAR AND ELECTRONIC CHARGE    118.00000   117.99696
     
       CHARGES OF OLD CHARGE DENSITY
:OTO   : INTERSTITIAL CHARGE =     6.287884
:OPC   : PW Pseudocharge     =    17.660160
:OTO001: CHARGE SPHERE  1    =    55.856058

:NEC02: NUCLEAR AND ELECTRONIC CHARGE    118.00000   118.00000
     
       CONVERGENCE TEST
:DTO001: DIFFERENCE IN SPHERE  1 =  0.0000932

:DIS  :  CHARGE DISTANCE       ( 0.0000932 for atom    1 spin 1)      0.0000932
 PW Mixed is          294
 
******************************************************
* MULTISECANT MIXING VER9 RELEASE 10.4.0              *
* Standard Mode with controls                        *
* Fixed density scale                                *
* Regularization       1.000E-04                     *
* Trust Upper Limit    5.000E+00                     *
* Max Number of Memory Steps    8                    *
******************************************************
 
:PWTMP   1.7340E+02  1.9467E+02  2.7533E+02
:PLANE:  PW TOTAL      5.9404 DISTAN   6.90E-05  1.16E-03 %
:CHARG:  CLM/ATOM   1381.9435 DISTAN   1.92E-04  1.39E-05 %
 
Step History
        DMIX         DMIXT        Red     Pred      Trust     Lambda    MagRel    MagAbs     Beta
  1   3.5000E-02   3.5000E-02 -1.00E+00  1.00E+00 -1.00E+01  1.00E+00  3.50E-02  3.50E-02  1.00E+00
  2   2.5000E-02   2.5000E-02  8.07E-01  1.00E+00 -1.00E+01  1.00E+00  2.50E-02  1.28E-03  1.00E+00
  3   2.0000E-02   2.0000E-02  3.33E-01  3.41E-01  5.85E-01  3.23E-02  2.87E-01  1.19E-02  1.00E+00
  4   1.5604E-02   1.5604E-02  9.80E-01  1.00E+00  7.32E-01  1.12E+00  1.71E-02  2.35E-04  1.00E+00
  5   3.9010E-02   3.6848E-02  1.87E-01  1.99E-01  8.68E-01  7.37E-01  8.68E-01  1.17E-02  1.00E+00
  6   2.7328E-02   2.7328E-02  9.12E-01  9.61E-01  1.26E+00  6.94E-01  2.95E-01  7.46E-04  1.00E+00
  7   6.8320E-02   6.8320E-02  4.19E-01  4.83E-01  1.39E+00  1.15E-01  5.18E-01  1.19E-03  1.00E+00
  8   3.6566E-02   3.6566E-02  9.35E-01  9.99E-01  1.85E+00  1.00E+00  5.64E-02  5.45E-05  9.92E-01
  9   9.1416E-02   9.1416E-02 -1.00E+00  2.71E-01  1.98E+00  1.00E+00  7.96E-01  7.19E-04  1.00E+00
:JACOBIANS    8.316E-01   1.282E+00
  
:NORMS:  1/Froebius, Min, Max, Used   0.7569E+00  0.3845E+00  0.9697E+00  0.9375E+00
:INFO :  Number of Memory Steps    8 Skipping    0
:INFO :  SLambda=    0.6500043489  Max    0.6500043489
:PREDicted Charge, CTotal, PW Trust    1.577E-04   3.153E-04   4.404E-04
:PREDicted DMix, Beta, BLim   2.3687E-03  1.0047E+00  1.2448E+00

Eigenvalues, unscaled except for SY+YY
   #     SY Real        SY Imag          SS             YY         SY+YY Real      SY+YY Imag
   1   2.943551E+00   0.000000E+00   2.814284E+00   3.202266E+00   5.094943E+00   0.000000E+00
   2   1.667651E+00   0.000000E+00   1.602935E+00   2.256939E+00   3.116896E+00   0.000000E+00
   3   3.412580E-01   0.000000E+00   1.032204E-01   1.539081E+00   1.962498E+00   0.000000E+00
   4   2.827738E-01   0.000000E+00   6.296668E-02   1.001708E+00   1.228581E+00   0.000000E+00
   5   2.836533E-06   0.000000E+00   1.378176E-06   5.620331E-06   7.578111E-06   0.000000E+00
   6   2.659328E-08   0.000000E+00   2.583499E-09   3.856519E-07   2.565274E-08   0.000000E+00
   7   5.630377E-10   0.000000E+00   1.189483E-11   2.582835E-08   4.946671E-10   0.000000E+00
   8   3.232388E-11   0.000000E+00   2.015062E-12   4.528643E-10   4.011020E-07   0.000000E+00
 
:INFO :  Singular value  5.095E+00 Weight  1.000E+00 Projection  1.845E-06
:INFO :  Singular value  3.117E+00 Weight  1.000E+00 Projection -9.841E-06
:INFO :  Singular value  1.962E+00 Weight  1.000E+00 Projection  1.353E-05
:INFO :  Singular value  1.229E+00 Weight  1.000E+00 Projection  1.231E-05
:INFO :  Singular value  7.582E-06 Weight  5.603E-04 Projection -4.692E-05
:INFO :  Singular value  4.009E-07 Weight  1.567E-06 Projection -1.462E-08
:INFO :  Singular value  2.565E-08 Weight  6.418E-09 Projection  9.779E-10
:INFO :  Singular value  4.946E-10 Weight  2.386E-12 Projection  2.672E-12
:RANK :  ACTIVE   4.00/8  =  50.01 % ; YY RANK   4.00/8  =  50.00 %
 
:BLIM :  VZERO Control Off
:TRUST:  Step 2.64E+00  Charge 2.88E-02 (e) CTO  9.60E-02 (e) PW  1.34E-01 (e)
:DIRM :  MEMORY  8/8  SCALE   1.000 RED  0.23 PRED  0.27 NEXT  1.00 
:TRAVE:  Charge 1.07E-04 (e) CTO  2.13E-04 (e) PW  6.47E-04 (e)
:DIRP :  |MSR1|= 3.533E-06 |PRATT|= 6.901E-05 ANGLE=  41.7 DEGREES
:DIRQ :  |MSR1|= 1.217E-05 |PRATT|= 1.921E-04 ANGLE=  34.2 DEGREES
:DIRT :  |MSR1|= 1.267E-05 |PRATT|= 2.041E-04 ANGLE=  35.2 DEGREES
:MIX  :   MSD1   REGULARIZATION:  3.20E-04 GREED: 0.03657  Newton 1.00  0.0621                
     
       CHARGES OF MIXED CHARGE DENSITY
:CTO   : INTERSTITIAL CHARGE =     6.287887
:CPC   : PW Pseudocharge     =    17.660161
:CTO001: CHARGE SPHERE  1    =    55.856056

:NEC03: NUCLEAR AND ELECTRONIC CHARGE    118.00000   118.00000

PW CHANGE     H    K    L      Current       Change    Residue
:PTO001:      0    0    0  8.69788055E-02  1.524E-08  3.089E-07
:PTO003:      0    2    0  1.94338455E-02 -3.651E-08 -1.157E-06
:PTO004:     -1    1    0  8.99107568E-02  1.628E-08  5.442E-07
:PTO005:      0    2   -1 -1.02220145E-01 -4.573E-08 -1.252E-06
:PTO006:      0    0   -2 -5.30024561E-02 -1.649E-08 -5.225E-07
:PTO007:     -1    1   -1 -1.04562246E-01 -3.060E-08 -1.796E-06
:PTO008:      0    2   -2 -1.38391578E-02  2.492E-08  4.944E-07
:PTO009:     -1    1   -2 -6.87178571E-02  5.674E-08  4.134E-07
:PTO011:     -1    3    0 -9.83965257E-03 -7.069E-09 -3.337E-07
:PTO012:     -1    3   -1 -3.90662494E-02 -1.076E-09  4.131E-07
:PTO013:      0    4    0 -6.36737233E-03 -7.277E-09 -5.219E-08
:PTO014:      0    2   -3  1.49693737E-02  3.362E-08  1.676E-07

:ENE  : ********** TOTAL ENERGY IN Ry =       -36944.37186591

       TOTAL FORCE IN mRy/a.u. = |F|     Fx             Fy             Fz     with/without FOR in case.in2
:FOR001:   1.ATOM          9.758          0.000          0.000          9.758 partial forces
       TOTAL FORCE WITH RESPECT TO GLOBAL CARTESIAN COORDINATES:
:FCA001:   1.ATOM                         0.000          9.758          0.000 partial forces
       TOTAL FORCE WITH RESPECT TO THE GLOBAL COORDINATE SYSTEM:
:FGL001:   1.ATOM                 0.000000000     9.758231335     0.000000000 partial forces
