
------- case.scf0 --------
 Flat Integration
 New Mode for Coulomb Integral
 Consistent 3/8+Simpson combinations
 Extension of core to zero
 LDM version in phi
 Fifth-order quadrature in outwin


            ---------
:ITE053: 53. ITERATION
            ---------

:NATO :    1 INDEPENDENT AND    2 TOTAL ATOMS IN UNITCELL
       SUBSTANCE: aU                                                          

       LATTICE                      = CXY 
:POT  : POTENTIAL OPTION EX_LDA EC_LDA VX_LDA VC_LDA
:LAT  : LATTICE CONSTANTS=  5.57334 11.30972  9.76391    1.571    1.571    1.571
:VOL  : UNIT CELL VOLUME =     307.72401
       MODE OF CALCULATION IS       = RELA
       NON-SPINPOLARIZED CALCULATION
:IFFT  : FFT-parameters:   48   90   80 Factor: 2.00


   CONVERGENCE PARAMETER FOR PSEUDOCHARGE: NCON=  9
   MAXIMAL VALUE OF RMT(JATOM)*ABSK(NKK) : RK  =27.58719


:VKCOUL :  VK-COUL convergence: 0.169E-06
       ATOMNUMBER=  1 Pr1        VCOUL-ZERO =  0.52227E+00
:EFG001:                        EFG         =    -8.70745   *10**21  V / m**2
                               V20  TOT/SRF=    -7.54087    -0.06508
                               V22  TOT/SRF=    -3.12125    -0.00676
                               V22M TOT/SRF=     0.00000     0.00000
                               V21  TOT/SRF=     0.00000     0.00000
                               V21M TOT/SRF=     0.00000     0.00000

              1.23247    0.00000    0.00000        1.23247    0.00000    0.00000
              0.00000    7.47497    0.00000        0.00000    7.47497    0.00000
              0.00000    0.00000   -8.70745        0.00000    0.00000   -8.70745

         MAIN DIRECTIONS OF THE EFG   1.0000  0.0000  0.0000
                                      0.0000  1.0000  0.0000
                                      0.0000  0.0000  1.0000
:ANG001:  ANGLE WITH OLD X-AXIS =         0.0

:ETA001:                         ASYMM. ETA =     0.71692


     HELLMANN-FEYNMAN-FORCE IN mRy/a.u. = |F|  Fx       Fy             Fz
:FHF001:   1.ATOM   1265.175215787776      0.000000000000      0.000000000000  -1265.175215787776

:FIT001: LUSE= 13 SIGMA OF V-XC FIT FOR ATOM  1  0.4037646E-04
:FIT001: LUSE= 13 SIGMA OF V-XC FIT FOR ATOM  1  0.4037646E-04
:DEN  : DENSITY INTEGRAL  =        -14205.86953823   (Ry)
       ELS_POTENTIAL_AT Z=0 and Z=0.5:   0.94925   0.94925
       ELS_POTENTIAL_AT Y=0 and Y=0.5:   0.00861   0.00861
:VZERO:v0,v0c,v0x   0.24198   0.94925  -0.70727 v5,v5c,v5x   0.24198   0.94925  -0.70727
:VZERY:v0,v0c,v0x  -0.92127   0.00861  -0.92987 v5,v5c,v5x  -0.92127   0.00861  -0.92987
:VZERX:v0,v0c,v0x  -1.26687  -0.39538  -0.87149 v5,v5c,v5x  -1.26687  -0.39538  -0.87149

------- case.scf1 --------
:LMAX-WF:   10   Non-Spherical LMAX:   4

          ATOMIC SPHERE DEPENDENT PARAMETERS FOR ATOM  Pr1       
:e__0001: OVERALL ENERGY PARAMETER IS    0.8473
          OVERALL BASIS SET ON ATOM IS LAPW
:E0_0001: E( 0)=    0.8473
             APW+lo
:E0_0001: E( 0)=   -1.5595   E(BOTTOM)=   -2.202   E(TOP)=   -0.917  4  5   225
             LOCAL ORBITAL
:E1_0001: E( 1)=    1.2473
             APW+lo
:E1_0001: E( 1)=   -0.0933   E(BOTTOM)=   -1.061   E(TOP)=    0.874  3  4   233
             LOCAL ORBITAL
:E3_0001: E( 3)=    1.1011   E(BOTTOM)=    0.889   E(TOP)=    1.313  0  1   126
             APW+lo
:E2_0001: E( 2)=    0.8473   E(BOTTOM)=    0.674   E(TOP)= -200.000  2 -1   122
             APW+lo

       K=   0.06250   0.00000   0.06250            1
:RKM  : MATRIX SIZE   303LOs:  40  RKM= 8.48  WEIGHT= 4.00  PGR:    
       EIGENVALUES ARE:
:EIG00001:      -1.5867311   -1.5224722   -0.3957448   -0.1735495   -0.1223665
:EIG00006:      -0.1039319   -0.0833057   -0.0817237    0.8807757    0.9142450
:EIG00011:       1.0487048    1.0635940    1.0666143    1.0711170    1.0869599
:EIG00016:       1.1153135    1.1251709    1.1268334    1.1318060    1.1358901
:EIG00021:       1.1381983    1.1450938    1.1505133    1.1720206    1.1801052
:EIG00026:       1.1987692    1.2839064    1.2884419    1.3612695    1.4008732
:EIG00031:       1.4389645    1.6166635    1.6199025    1.7058246    2.0027729
:EIG00036:       2.0512851    2.0858128    2.2722287    2.3206605    2.4137835
:EIG00041:       2.6000678    2.6664116    2.8120371    2.8507547    3.0026280
:EIG00046:       3.0154030    3.0223580    3.1961757    3.1967024    3.3417244
 
:EIG00051:       3.4291568    3.5432007    3.5651862    3.7176552    3.7436166
:EIG00056:       3.7922389    3.8564788    4.0384626    4.0397201    4.1309219
:EIG00061:       4.1928756    4.2885740    4.3377351    4.3782028    4.4544104
:EIG00066:       4.5740264    4.5842078    4.6497399    4.7292552    4.7444017
:EIG00071:       4.8368851    4.8745499    4.9242834    5.0199863    5.0290728
:EIG00076:       5.0442194    5.1040896    5.1115468    5.1365577    5.2274081
:EIG00081:       5.2354643    5.2667969    5.3352739    5.3495637    5.3718456
:EIG00086:       5.4696405    5.5661224    5.6376813    5.6767891    5.7041710
:EIG00091:       5.7587243    5.8011773    5.8469973    5.8676976    5.8788639
:EIG00096:       5.9591832    6.0058863    6.0065937    6.0820186    6.1449702
 
:EIG00101:       6.1816687    6.3052406    6.3695811    6.4113836    6.4221316
:EIG00106:       6.5423446    6.5571825    6.5824367    6.6684536    6.8038015
:EIG00111:       6.8861312    6.9236123    7.0011318    7.0324166    7.1262118
:EIG00116:       7.2336907    7.2408425    7.3530905    7.3647989    7.4147126
:EIG00121:       7.4902930    7.5192497    7.5805324    7.6344048    7.7018548
:EIG00126:       7.7258146    7.8032992    7.8578985    7.8773124    7.8960727
:EIG00131:       7.9621994    7.9921176    8.0127377    8.1621783    8.1920785
:EIG00136:       8.2432009    8.2493646    8.3727455    8.3885649    8.4273111
:EIG00141:       8.4352121    8.4961566    8.5231402
       ********************************************************

:KPT   :      NUMBER OF K-POINTS:   288

------- case.scfso --------
   0.0   0.0 angle (M,z), angle (M,x) deg
 
        SPIN-ORBIT EIGENVALUES:
     K=   0.06250   0.00000   0.06250            1
      MATRIX SIZE=  286   WEIGHT= 4.00
     EIGENVALUES ARE:
          -1.5867329   -1.5867329   -1.5224733   -1.5224733   -0.4336724
          -0.4336724   -0.2593877   -0.2593877   -0.1856431   -0.1856431
          -0.0442861   -0.0442861   -0.0401785   -0.0401785   -0.0179250
          -0.0179250    0.8808903    0.8808903    0.9141700    0.9141700
           1.0475862    1.0475862    1.0617420    1.0617420    1.0647107
           1.0647107    1.0697468    1.0697468    1.0847510    1.0847510
           1.1083882    1.1083882    1.1176935    1.1176935    1.1274871
           1.1274871    1.1354790    1.1354790    1.1376611    1.1376611

           1.1420542    1.1420542    1.1463177    1.1463177    1.1544891
           1.1544891    1.1746263    1.1746263    1.1820701    1.1820701
           1.1996911    1.1996911    1.2805907    1.2805907    1.2920343
           1.2920343    1.3617703    1.3617703    1.4008068    1.4008068
           1.4394008    1.4394008    1.6166453    1.6166453    1.6202203
           1.6202203    1.7060014    1.7060014    2.0031967    2.0031967
           2.0513526    2.0513526    2.0858148    2.0858148    2.2721358
           2.2721358    2.3204855    2.3204855    2.4131919    2.4131919

           2.6002946    2.6002946    2.6659258    2.6659258    2.8117452
           2.8117452    2.8504903    2.8504903    3.0025758    3.0025758
           3.0146912    3.0146912    3.0227130    3.0227130    3.1897968
           3.1897968    3.2031020    3.2031020    3.3419601    3.3419601
           3.4287380    3.4287380    3.5399719    3.5399719    3.5669187
           3.5669187    3.7174440    3.7174440    3.7429045    3.7429045
           3.7929634    3.7929634    3.8544731    3.8544731    4.0379617
           4.0379617    4.0423450    4.0423450    4.1307432    4.1307432

           4.1944518    4.1944518    4.2881878    4.2881878    4.3378734
           4.3378734    4.3829129    4.3829129    4.4545698    4.4545698

       ********************************************************

------- case.scf2 --------
:GMA  : POTENTIAL AND CHARGE CUT-OFF  12.00 Ry**.5




:POS001: at.nr.  -1 position = 0.00000 0.89750 0.25000  multiplicity =  2

       lmmax 16
       lm=   0 0  1 0  2 0  2 2  3 0  3 2  4 0  4 2  4 4  5 0  5 2  5 4  6 0  6 2  6 4  6 6
:FER gutzwiller fermi energy   1.06271
:EORB          0.157361024
:SUM sum of gutz band energies          1.239136651

:CHA001: total charge inside sphere   1 =     9.780512
:PCS001: partial charges sphere =  1 s,p,d,f,px,py,pz,d-z2,d-x2y2,d-xy,d-xz,d-yz 
:QTL001: 1.9377 4.9578 0.8188 2.0639 1.6521 1.6481 1.6576 0.1603 0.1467 0.1668 0.1690 0.1760

                      vxx         vyy         vzz       up to r

:VZZ001:             1.26161     7.43268    -8.69429       2.300

:CHA  : total charge inside unit cell =      12.997929

------- case.scfc --------

        1.ATOM      Pr1                  14 CORE STATES
       CORE-FORCE in mRy/a.u. = |F|      Fx             Fy             Fz
:FCO001:   1.ATOM   1259.467558121542      0.000000000000      0.000000000000   1259.467558121542

:1S 001: 1S               -3066.480615480 Ry
:2S 001: 2S                -492.229016217 Ry
:2PP001: 2P*               -465.328622905 Ry
:2P 001: 2P                -429.930932092 Ry
:3S 001: 3S                -105.320161401 Ry
:3PP001: 3P*                -93.857996896 Ry
:3P 001: 3P                 -86.850184402 Ry
:3DD001: 3D*                -66.776769451 Ry
:3D 001: 3D                 -65.265228963 Ry
:4S 001: 4S                 -19.998101576 Ry
:4PP001: 4P*                -15.704959724 Ry
:4P 001: 4P                 -14.177665485 Ry
:4DD001: 4D*                 -7.110795722 Ry
:4D 001: 4D                  -6.841441951 Ry

------- case.scfm --------
:CINT001 Core Integral Atom   1   45.998454

       DENSITY AT NUCLEUS
        JATOM        VALENCE       SEMI-CORE          CORE           TOTAL
:RTO001:   1      643.769105        0.000000   656824.908745   657468.677850
     
       CHARGES OF NEW CHARGE DENSITY
:NTO   : INTERSTITIAL CHARGE =     6.439146
:NPC   : PW Pseudocharge     =    17.490189
:NTO001: CHARGE SPHERE  1    =    55.778966

:NEC01: NUCLEAR AND ELECTRONIC CHARGE    118.00000   117.99708
     
       CHARGES OF OLD CHARGE DENSITY
:OTO   : INTERSTITIAL CHARGE =     6.441797
:OPC   : PW Pseudocharge     =    17.498353
:OTO001: CHARGE SPHERE  1    =    55.779101

:NEC02: NUCLEAR AND ELECTRONIC CHARGE    118.00000   118.00000
     
       CONVERGENCE TEST
:DTO001: DIFFERENCE IN SPHERE  1 =  0.0002872

:DIS  :  CHARGE DISTANCE       ( 0.0002872 for atom    1 spin 1)      0.0002872
 PW Mixed is          332
 
******************************************************
* MULTISECANT MIXING VER9 RELEASE 10.4.0              *
* Standard Mode with controls                        *
* Fixed density scale                                *
* Regularization       1.000E-04                     *
* Trust Upper Limit    5.000E+00                     *
* Max Number of Memory Steps    8                    *
******************************************************
 
:INFO : Forcing a restart
:PWTMP   2.0579E+02  1.9467E+02  3.0772E+02
:PLANE:  PW TOTAL      5.9344 DISTAN   3.24E-04  5.45E-03 %
:CHARG:  CLM/ATOM   1381.9323 DISTAN   3.04E-03  2.20E-04 %
 
Step History
        DMIX         DMIXT        Red     Pred      Trust     Lambda    MagRel    MagAbs     Beta
  1   3.5000E-02   3.5000E-02 -1.00E+00  1.00E+00 -1.00E+01  1.00E+00  3.50E-02  3.50E-02  1.00E+00
:INFO :  Note, Pratt in use
:TRUST:  Step 2.25E-01  Charge 7.50E-02 (e) CTO  2.50E-01 (e) PW  3.50E-01 (e)
:DIRM :  MEMORY  0/ 8 SCALE   1.000
Performing Pseudo Compensation
Final Pseudo Compensation Rescaling     1.00000E+00
:MIX  :   PRATT  REGULARIZATION:  1.00E-04 GREED: 0.15000                  
     
       CHARGES OF MIXED CHARGE DENSITY
:CTO   : INTERSTITIAL CHARGE =     6.441838
:CPC   : PW Pseudocharge     =    17.498179
:CTO001: CHARGE SPHERE  1    =    55.779081

:NEC03: NUCLEAR AND ELECTRONIC CHARGE    118.00000   118.00000

PW CHANGE     H    K    L      Current       Change    Residue
:PTO001:      0    0    0  7.77970381E-02 -4.342E-07  1.570E-07
:PTO003:      0    2    0  1.82599272E-02 -2.302E-07 -1.848E-07
:PTO004:     -1    1    0  8.63151791E-02 -1.469E-06 -2.537E-06
:PTO005:      0    2   -1 -9.88132028E-02  1.648E-06  2.381E-06
:PTO006:      0    0   -2 -5.13170136E-02  5.258E-07 -9.689E-07
:PTO007:     -1    1   -1 -1.02983301E-01  2.529E-06  6.759E-06
:PTO008:      0    2   -2 -1.45198455E-02  5.806E-07  1.880E-06
:PTO009:     -1    1   -2 -7.24571754E-02  1.921E-06  2.080E-06
:PTO011:     -1    3    0 -1.07253148E-02  3.667E-07  3.950E-07
:PTO012:     -1    3   -1 -4.42454496E-02  2.421E-06  6.051E-06
:PTO013:      0    4    0 -7.43868635E-03  5.949E-07  1.870E-06
:PTO014:      0    2   -3  1.72487720E-02 -3.822E-07  2.199E-06

:ENE  : ********** TOTAL ENERGY IN Ry =       -36944.20176554

       TOTAL FORCE IN mRy/a.u. = |F|     Fx             Fy             Fz     with/without FOR in case.in2
:FOR001:   1.ATOM          5.708          0.000          0.000         -5.708 partial forces
       TOTAL FORCE WITH RESPECT TO GLOBAL CARTESIAN COORDINATES:
:FCA001:   1.ATOM                         0.000         -5.708          0.000 partial forces
       TOTAL FORCE WITH RESPECT TO THE GLOBAL COORDINATE SYSTEM:
:FGL001:   1.ATOM                 0.000000000    -5.707657666     0.000000000 partial forces
