
------- case.scf0 --------
 Flat Integration
 New Mode for Coulomb Integral
 Consistent 3/8+Simpson combinations
 Extension of core to zero
 LDM version in phi
 Fifth-order quadrature in outwin


            ---------
:ITE010: 10. ITERATION
            ---------

:NATO :    2 INDEPENDENT AND    4 TOTAL ATOMS IN UNITCELL
       SUBSTANCE: FeSe                                                        

       LATTICE                      = P   
:POT  : POTENTIAL OPTION EX_LDA EC_LDA VX_LDA VC_LDA
:LAT  : LATTICE CONSTANTS=  7.12881  7.12881 10.43450    1.571    1.571    1.571
:VOL  : UNIT CELL VOLUME =     530.28024
       MODE OF CALCULATION IS       = RELA
       NON-SPINPOLARIZED CALCULATION
:IFFT  : FFT-parameters:   60   60   80 Factor: 2.00


   CONVERGENCE PARAMETER FOR PSEUDOCHARGE: NCON=  9
   MAXIMAL VALUE OF RMT(JATOM)*ABSK(NKK) : RK  =25.91023


:VKCOUL :  VK-COUL convergence: 0.333E-06
       ATOMNUMBER=  1 Fe         VCOUL-ZERO =  0.26836E+00
:EFG001:                        EFG         =     0.15199   *10**21  V / m**2
                               V20  TOT/SRF=     0.13163    -0.01790
                               V22  TOT/SRF=     0.00000     0.00000
                               V22M TOT/SRF=     0.00000     0.00000
                               V21  TOT/SRF=     0.00000     0.00000
                               V21M TOT/SRF=     0.00000     0.00000

             -0.07599    0.00000    0.00000       -0.07599    0.00000    0.00000
              0.00000   -0.07599    0.00000        0.00000   -0.07599    0.00000
              0.00000    0.00000    0.15199        0.00000    0.00000    0.15199

         MAIN DIRECTIONS OF THE EFG   1.0000  0.0000  0.0000
                                      0.0000  1.0000  0.0000
                                      0.0000  0.0000  1.0000
:ANG001:  ANGLE WITH OLD X-AXIS =         0.0

:ETA001:                         ASYMM. ETA =     0.00000


       ATOMNUMBER=  2 Se         VCOUL-ZERO =  0.61654E-01
:EFG002:                        EFG         =    -5.41347   *10**21  V / m**2
                               V20  TOT/SRF=    -4.68820     0.00215
                               V22  TOT/SRF=     0.00000     0.00000
                               V22M TOT/SRF=     0.00000     0.00000
                               V21  TOT/SRF=     0.00000     0.00000
                               V21M TOT/SRF=     0.00000     0.00000

              2.70674    0.00000    0.00000        2.70674    0.00000    0.00000
              0.00000    2.70674    0.00000        0.00000    2.70674    0.00000
              0.00000    0.00000   -5.41347        0.00000    0.00000   -5.41347

         MAIN DIRECTIONS OF THE EFG   1.0000  0.0000  0.0000
                                      0.0000  1.0000  0.0000
                                      0.0000  0.0000  1.0000
:ANG002:  ANGLE WITH OLD X-AXIS =         0.0

:ETA002:                         ASYMM. ETA =     0.00000


     HELLMANN-FEYNMAN-FORCE IN mRy/a.u. = |F|  Fx       Fy             Fz
:FHF001:   1.ATOM      0.000000000000      0.000000000000      0.000000000000      0.000000000000

     HELLMANN-FEYNMAN-FORCE IN mRy/a.u. = |F|  Fx       Fy             Fz
:FHF002:   2.ATOM   1258.265212676577      0.000000000000      0.000000000000   1258.265212676577

:FIT001: LUSE= 13 SIGMA OF V-XC FIT FOR ATOM  1  0.1609331E-02
:FIT001: LUSE= 13 SIGMA OF V-XC FIT FOR ATOM  1  0.1609331E-02
:FIT002: LUSE= 13 SIGMA OF V-XC FIT FOR ATOM  2  0.3413316E-03
:FIT002: LUSE= 13 SIGMA OF V-XC FIT FOR ATOM  2  0.3413316E-03
:DEN  : DENSITY INTEGRAL  =         -6218.51390622   (Ry)
       ELS_POTENTIAL_AT Z=0 and Z=0.5:  -0.70674   0.62744
       ELS_POTENTIAL_AT Y=0 and Y=0.5:   0.00000   0.00000
:VZERO:v0,v0c,v0x  -1.51989  -0.70674  -0.81315 v5,v5c,v5x   0.10585   0.62744  -0.52159
:VZERY:v0,v0c,v0x  -0.71480   0.00000  -0.71480 v5,v5c,v5x  -0.71480   0.00000  -0.71480
:VZERX:v0,v0c,v0x   0.10106   0.78752  -0.68647 v5,v5c,v5x   0.10106   0.78752  -0.68647

------- case.scf1 --------
:LMAX-WF:   10   Non-Spherical LMAX:   4

          ATOMIC SPHERE DEPENDENT PARAMETERS FOR ATOM  Fe        
:e__0001: OVERALL ENERGY PARAMETER IS    0.1874
          OVERALL BASIS SET ON ATOM IS LAPW
:E1_0001: E( 1)=    0.1874
             APW+lo
:E1_0001: E( 1)=   -3.4812   E(BOTTOM)=   -3.572   E(TOP)=   -3.391  1  2   148
             LOCAL ORBITAL
:E2_0001: E( 2)=    0.3089   E(BOTTOM)=   -0.045   E(TOP)=    0.663  0  1   136
             APW+lo
:E0_0001: E( 0)=    0.1874
             APW+lo

          ATOMIC SPHERE DEPENDENT PARAMETERS FOR ATOM  Se        
:e__0002: OVERALL ENERGY PARAMETER IS    0.1874
          OVERALL BASIS SET ON ATOM IS LAPW
:E2_0002: E( 2)=    0.1874
             APW+lo
:E2_0002: E( 2)=   -3.1774   E(BOTTOM)=   -3.221   E(TOP)=   -3.134  0  1   140
             LOCAL ORBITAL
:E0_0002: E( 0)=    0.5874
             APW+lo
:E0_0002: E( 0)=   -1.0200   E(BOTTOM)=   -1.637   E(TOP)= -200.000  3 -1   181
             LOCAL ORBITAL
:E1_0002: E( 1)=    0.1874
             APW+lo

       K=   0.04545   0.04545   0.07143            1
:RKM  : MATRIX SIZE   582LOs:  54  RKM= 7.97  WEIGHT= 8.00  PGR:    
       EIGENVALUES ARE:
:EIG00001:      -3.4696544   -3.4694333   -3.4608645   -3.4606437   -3.4551621
:EIG00006:      -3.4532278   -3.1678406   -3.1677237   -3.1673858   -3.1673414
:EIG00011:      -3.1664539   -3.1664403   -3.1663889   -3.1663860   -3.1656300
:EIG00016:      -3.1656057   -0.6715937   -0.5877170   -0.0324200    0.1091679
:EIG00021:       0.1196634    0.1238514    0.1623512    0.1668049    0.2132936
:EIG00026:       0.3349596    0.3437617    0.3768658    0.3960480    0.3975035
:EIG00031:       0.4327165    0.4474653    0.5280915    0.5381842    0.5992519
:EIG00036:       0.7581100    0.8133986    0.8912660    0.9022833    0.9233946
:EIG00041:       1.2357907    1.2841207    1.3151503    1.3401474    1.3481579
:EIG00046:       1.3814443    1.4097373    1.4509159    1.4546523    1.4892272
 
:EIG00051:       1.5773065    1.5852476    1.6989321    1.7332292    1.8418561
       ********************************************************

:KPT   :      NUMBER OF K-POINTS:    84

------- case.scf2 --------
:GMA  : POTENTIAL AND CHARGE CUT-OFF  12.00 Ry**.5




:POS001: at.nr.  -1 position = 0.25000 0.75000 0.00000  multiplicity =  2

       lmmax  8
       lm=   0 0  2 0 -3 2  4 0  4 4 -5 2  6 0  6 4




:POS002: at.nr.  -2 position = 0.25000 0.75000 0.00000  multiplicity =  2

       lmmax 10
       lm=   0 0  1 0  2 0  3 0  4 0  4 4  5 0  5 4  6 0  6 4
:FER gutzwiller fermi energy   0.38619
:EORB          0.158719037
:SUM sum of gutz band energies       -102.068518234

:CHA001: total charge inside sphere   1 =    12.536453
:PCS001: partial charges sphere =  1 s,p,d,f,pz,pxy,,d-z2,d-xy,d-x2y2,d-xz,yz 
:QTL001: 0.2494 6.2247 6.0434 0.0154 2.0646 4.1602 0.0000 1.3613 1.2483 1.1844 2.2493 0.0000
:VZZ001: efg inside sphere   1 =     1.278203      up to r =   2.16000

:CHA002: total charge inside sphere   2 =    13.432156
:PCS002: partial charges sphere =  2 s,p,d,f,pz,pxy,,d-z2,d-xy,d-x2y2,d-xz,yz 
:QTL002: 1.3639 2.029410.0278 0.0092 0.6923 1.3372 0.0000 2.0054 2.0049 2.0052 4.0123 0.0000
:VZZ002: efg inside sphere   2 =    -4.637021      up to r =   2.05000

:CHA  : total charge inside unit cell =      60.000000

------- case.scfc --------

        1.ATOM      Fe                    5 CORE STATES
:1S 001: 1S                -512.225413426 Ry
:2S 001: 2S                 -59.156585129 Ry
:2PP001: 2P*                -50.958942387 Ry
:2P 001: 2P                 -50.043709431 Ry
:3S 001: 3S                  -5.924290245 Ry

        2.ATOM      Se                    7 CORE STATES
       CORE-FORCE in mRy/a.u. = |F|      Fx             Fy             Fz
:FCO002:   2.ATOM   1140.999056067383      0.000000000000      0.000000000000  -1140.999056067383

:1S 002: 1S                -916.480205985 Ry
:2S 002: 2S                -117.138758986 Ry
:2PP002: 2P*               -105.114161499 Ry
:2P 002: 2P                -102.050891248 Ry
:3S 002: 3S                 -14.869030966 Ry
:3PP002: 3P*                -10.756136804 Ry
:3P 002: 3P                 -10.323647114 Ry

------- case.scfm --------
:CINT001 Core Integral Atom   1   11.997194
:CINT002 Core Integral Atom   2   17.999413

       DENSITY AT NUCLEUS
        JATOM        VALENCE       SEMI-CORE          CORE           TOTAL
:RTO001:   1        5.497419        0.000000    14798.256013    14803.753431
:RTO002:   2       56.378896        0.000000    38924.787845    38981.166741
     
       CHARGES OF NEW CHARGE DENSITY
:NTO   : INTERSTITIAL CHARGE =     8.062549
:NPC   : PW Pseudocharge     =    13.606520
:NTO001: CHARGE SPHERE  1    =    24.533648
:NTO002: CHARGE SPHERE  2    =    31.431569

:NEC01: NUCLEAR AND ELECTRONIC CHARGE    120.00000   119.99298
     
       CHARGES OF OLD CHARGE DENSITY
:OTO   : INTERSTITIAL CHARGE =     8.145415
:OPC   : PW Pseudocharge     =    13.599743
:OTO001: CHARGE SPHERE  1    =    24.542029
:OTO002: CHARGE SPHERE  2    =    31.385263

:NEC02: NUCLEAR AND ELECTRONIC CHARGE    120.00000   120.00000
     
       CONVERGENCE TEST
:DTO001: DIFFERENCE IN SPHERE  1 =  0.0778342
:DTO002: DIFFERENCE IN SPHERE  2 =  0.0333258

:DIS  :  CHARGE DISTANCE       ( 0.0778342 for atom    1 spin 1)      0.0555800
 PW Mixed is          365
 
******************************************************
* MULTISECANT MIXING VER9 RELEASE 10.4.0              *
* Standard Mode with controls                        *
* Fixed density scale                                *
* Regularization       1.000E-04                     *
* Trust Upper Limit    5.000E+00                     *
* Max Number of Memory Steps    8                    *
******************************************************
 
:PWTMP   3.7368E+02  3.2249E+02  5.3028E+02
:PLANE:  PW TOTAL      3.6620 DISTAN   6.42E-02  1.75E+00 %
:CHARG:  CLM/ATOM    303.3343 DISTAN   7.57E-02  2.50E-02 %
 
Step History
        DMIX         DMIXT        Red     Pred      Trust     Lambda    MagRel    MagAbs     Beta
  1   3.5000E-02   3.5000E-02 -1.00E+00  1.00E+00 -1.00E+01  1.00E+00  3.50E-02  3.50E-02  1.00E+00
:INFO :  Note, Pratt in use
:TRUST:  Step 3.75E-02  Charge 7.50E-02 (e) CTO  2.50E-01 (e) PW  3.50E-01 (e)
:DIRM :  MEMORY  0/ 8 SCALE   1.000
Performing Pseudo Compensation
Final Pseudo Compensation Rescaling     1.00011E+00
:MIX  :   PRATT  REGULARIZATION:  1.00E-04 GREED: 0.02500                  
     
       CHARGES OF MIXED CHARGE DENSITY
:CTO   : INTERSTITIAL CHARGE =     8.143519
:CPC   : PW Pseudocharge     =    13.631928
:CTO001: CHARGE SPHERE  1    =    24.541820
:CTO002: CHARGE SPHERE  2    =    31.386421

:NEC03: NUCLEAR AND ELECTRONIC CHARGE    120.00000   120.00000

PW CHANGE     H    K    L      Current       Change    Residue
:PTO001:      0    0    0  4.10640357E-02  5.712E-05 -1.079E-04
:PTO002:      0    0   -1  1.61970320E-02 -1.253E-04 -8.455E-04
:PTO004:     -1    0   -1 -9.10202891E-02 -6.573E-04 -1.351E-03
:PTO005:      0    0   -2 -1.04394090E-02 -1.937E-04 -3.708E-04
:PTO006:     -1   -1    0 -2.13866059E-02 -3.784E-04 -5.766E-04
:PTO007:     -1   -1   -1  2.53918092E-02 -7.223E-05 -5.146E-05
:PTO008:     -1    0   -2  1.00761030E-02  1.129E-04 -4.120E-05
:PTO009:     -1   -1   -2  2.71786961E-02  3.144E-04  7.333E-04
:PTO010:     -2    0    0 -1.30608927E-02 -1.590E-04 -3.271E-04
:PTO011:      0    0   -3  2.34017159E-03  2.460E-05  1.366E-04
:PTO012:     -2    0   -1  3.46801734E-03  4.887E-05 -6.158E-04
:PTO014:     -1    0   -3  8.64524981E-03  2.407E-04  2.629E-04

:ENE  : ********** TOTAL ENERGY IN Ry =       -14790.26378947

       TOTAL FORCE IN mRy/a.u. = |F|     Fx             Fy             Fz     with/without FOR in case.in2
:FOR001:   1.ATOM          0.000          0.000          0.000          0.000 partial forces
:FOR002:   2.ATOM        117.266          0.000          0.000        117.266 partial forces
       TOTAL FORCE WITH RESPECT TO GLOBAL CARTESIAN COORDINATES:
:FCA001:   1.ATOM                         0.000          0.000          0.000 partial forces
:FCA002:   2.ATOM                         0.000          0.000        117.266 partial forces
       TOTAL FORCE WITH RESPECT TO THE GLOBAL COORDINATE SYSTEM:
:FGL001:   1.ATOM                 0.000000000     0.000000000     0.000000000 partial forces
:FGL002:   2.ATOM                 0.000000000     0.000000000   117.266156609 partial forces

------- case.scf0 --------
 Flat Integration
 New Mode for Coulomb Integral
 Consistent 3/8+Simpson combinations
 Extension of core to zero
 LDM version in phi
 Fifth-order quadrature in outwin


            ---------
:ITE011: 11. ITERATION
            ---------

:NATO :    2 INDEPENDENT AND    4 TOTAL ATOMS IN UNITCELL
       SUBSTANCE: FeSe                                                        

       LATTICE                      = P   
:POT  : POTENTIAL OPTION EX_LDA EC_LDA VX_LDA VC_LDA
:LAT  : LATTICE CONSTANTS=  7.12881  7.12881 10.43450    1.571    1.571    1.571
:VOL  : UNIT CELL VOLUME =     530.28024
       MODE OF CALCULATION IS       = RELA
       NON-SPINPOLARIZED CALCULATION
:IFFT  : FFT-parameters:   60   60   80 Factor: 2.00


   CONVERGENCE PARAMETER FOR PSEUDOCHARGE: NCON=  9
   MAXIMAL VALUE OF RMT(JATOM)*ABSK(NKK) : RK  =25.91023


:VKCOUL :  VK-COUL convergence: 0.334E-06
       ATOMNUMBER=  1 Fe         VCOUL-ZERO =  0.26750E+00
:EFG001:                        EFG         =     0.17834   *10**21  V / m**2
                               V20  TOT/SRF=     0.15445    -0.01885
                               V22  TOT/SRF=     0.00000     0.00000
                               V22M TOT/SRF=     0.00000     0.00000
                               V21  TOT/SRF=     0.00000     0.00000
                               V21M TOT/SRF=     0.00000     0.00000

             -0.08917    0.00000    0.00000       -0.08917    0.00000    0.00000
              0.00000   -0.08917    0.00000        0.00000   -0.08917    0.00000
              0.00000    0.00000    0.17834        0.00000    0.00000    0.17834

         MAIN DIRECTIONS OF THE EFG   1.0000  0.0000  0.0000
                                      0.0000  1.0000  0.0000
                                      0.0000  0.0000  1.0000
:ANG001:  ANGLE WITH OLD X-AXIS =         0.0

:ETA001:                         ASYMM. ETA =     0.00000


       ATOMNUMBER=  2 Se         VCOUL-ZERO =  0.62021E-01
:EFG002:                        EFG         =    -5.39325   *10**21  V / m**2
                               V20  TOT/SRF=    -4.67069     0.00234
                               V22  TOT/SRF=     0.00000     0.00000
                               V22M TOT/SRF=     0.00000     0.00000
                               V21  TOT/SRF=     0.00000     0.00000
                               V21M TOT/SRF=     0.00000     0.00000

              2.69662    0.00000    0.00000        2.69662    0.00000    0.00000
              0.00000    2.69662    0.00000        0.00000    2.69662    0.00000
              0.00000    0.00000   -5.39325        0.00000    0.00000   -5.39325

         MAIN DIRECTIONS OF THE EFG   1.0000  0.0000  0.0000
                                      0.0000  1.0000  0.0000
                                      0.0000  0.0000  1.0000
:ANG002:  ANGLE WITH OLD X-AXIS =         0.0

:ETA002:                         ASYMM. ETA =     0.00000


     HELLMANN-FEYNMAN-FORCE IN mRy/a.u. = |F|  Fx       Fy             Fz
:FHF001:   1.ATOM      0.000000000000      0.000000000000      0.000000000000      0.000000000000

     HELLMANN-FEYNMAN-FORCE IN mRy/a.u. = |F|  Fx       Fy             Fz
:FHF002:   2.ATOM   1272.214550275513      0.000000000000      0.000000000000   1272.214550275513

:FIT001: LUSE= 13 SIGMA OF V-XC FIT FOR ATOM  1  0.1609284E-02
:FIT001: LUSE= 13 SIGMA OF V-XC FIT FOR ATOM  1  0.1609284E-02
:FIT002: LUSE= 13 SIGMA OF V-XC FIT FOR ATOM  2  0.3401579E-03
:FIT002: LUSE= 13 SIGMA OF V-XC FIT FOR ATOM  2  0.3401579E-03
:DEN  : DENSITY INTEGRAL  =         -6218.60400253   (Ry)
       ELS_POTENTIAL_AT Z=0 and Z=0.5:  -0.70479   0.62839
       ELS_POTENTIAL_AT Y=0 and Y=0.5:   0.00000   0.00000
:VZERO:v0,v0c,v0x  -1.51713  -0.70479  -0.81234 v5,v5c,v5x   0.10669   0.62839  -0.52170
:VZERY:v0,v0c,v0x  -0.71483   0.00000  -0.71483 v5,v5c,v5x  -0.71483   0.00000  -0.71483
:VZERX:v0,v0c,v0x   0.10133   0.78751  -0.68618 v5,v5c,v5x   0.10133   0.78751  -0.68618

------- case.scf1 --------
:LMAX-WF:   10   Non-Spherical LMAX:   4

          ATOMIC SPHERE DEPENDENT PARAMETERS FOR ATOM  Fe        
:e__0001: OVERALL ENERGY PARAMETER IS    0.1874
          OVERALL BASIS SET ON ATOM IS LAPW
:E1_0001: E( 1)=    0.1874
             APW+lo
:E1_0001: E( 1)=   -3.4810   E(BOTTOM)=   -3.572   E(TOP)=   -3.390  1  2   148
             LOCAL ORBITAL
:E2_0001: E( 2)=    0.3089   E(BOTTOM)=   -0.045   E(TOP)=    0.663  0  1   135
             APW+lo
:E0_0001: E( 0)=    0.1874
             APW+lo

          ATOMIC SPHERE DEPENDENT PARAMETERS FOR ATOM  Se        
:e__0002: OVERALL ENERGY PARAMETER IS    0.1874
          OVERALL BASIS SET ON ATOM IS LAPW
:E2_0002: E( 2)=    0.1874
             APW+lo
:E2_0002: E( 2)=   -3.1764   E(BOTTOM)=   -3.220   E(TOP)=   -3.133  0  1   143
             LOCAL ORBITAL
:E0_0002: E( 0)=    0.5874
             APW+lo
:E0_0002: E( 0)=   -1.0200   E(BOTTOM)=   -1.636   E(TOP)= -200.000  3 -1   179
             LOCAL ORBITAL
:E1_0002: E( 1)=    0.1874
             APW+lo

       K=   0.04545   0.04545   0.07143            1
:RKM  : MATRIX SIZE   582LOs:  54  RKM= 7.97  WEIGHT= 8.00  PGR:    
       EIGENVALUES ARE:
:EIG00001:      -3.4694283   -3.4692071   -3.4606314   -3.4604104   -3.4550195
:EIG00006:      -3.4530835   -3.1668621   -3.1667455   -3.1664068   -3.1663623
:EIG00011:      -3.1654854   -3.1654719   -3.1654204   -3.1654175   -3.1646641
:EIG00016:      -3.1646398   -0.6713131   -0.5873696   -0.0323254    0.1091768
:EIG00021:       0.1197130    0.1239120    0.1625188    0.1669802    0.2131834
:EIG00026:       0.3350811    0.3438036    0.3769943    0.3960920    0.3975742
:EIG00031:       0.4329384    0.4476033    0.5283678    0.5385091    0.5993343
:EIG00036:       0.7581981    0.8135392    0.8912573    0.9022430    0.9234582
:EIG00041:       1.2361464    1.2841642    1.3153478    1.3403036    1.3483805
:EIG00046:       1.3813253    1.4098401    1.4511300    1.4546688    1.4893922
 
:EIG00051:       1.5775821    1.5855705    1.6989560    1.7332675    1.8418692
       ********************************************************

:KPT   :      NUMBER OF K-POINTS:    84

------- case.scf2 --------
:GMA  : POTENTIAL AND CHARGE CUT-OFF  12.00 Ry**.5




:POS001: at.nr.  -1 position = 0.25000 0.75000 0.00000  multiplicity =  2

       lmmax  8
       lm=   0 0  2 0 -3 2  4 0  4 4 -5 2  6 0  6 4




:POS002: at.nr.  -2 position = 0.25000 0.75000 0.00000  multiplicity =  2

       lmmax 10
       lm=   0 0  1 0  2 0  3 0  4 0  4 4  5 0  5 4  6 0  6 4
:FER gutzwiller fermi energy   0.38659
:EORB          0.154218671
:SUM sum of gutz band energies       -102.039095126

:CHA001: total charge inside sphere   1 =    12.535736
:PCS001: partial charges sphere =  1 s,p,d,f,pz,pxy,,d-z2,d-xy,d-x2y2,d-xz,yz 
:QTL001: 0.2497 6.2251 6.0420 0.0154 2.0647 4.1605 0.0000 1.3611 1.2482 1.1836 2.2490 0.0000
:VZZ001: efg inside sphere   1 =     1.258854      up to r =   2.16000

:CHA002: total charge inside sphere   2 =    13.431094
:PCS002: partial charges sphere =  2 s,p,d,f,pz,pxy,,d-z2,d-xy,d-x2y2,d-xz,yz 
:QTL002: 1.3638 2.028310.0280 0.0092 0.6919 1.3364 0.0000 2.0054 2.0049 2.0052 4.0123 0.0000
:VZZ002: efg inside sphere   2 =    -4.634015      up to r =   2.05000

:CHA  : total charge inside unit cell =      60.000000

------- case.scfc --------

        1.ATOM      Fe                    5 CORE STATES
:1S 001: 1S                -512.224097472 Ry
:2S 001: 2S                 -59.155396911 Ry
:2PP001: 2P*                -50.957722105 Ry
:2P 001: 2P                 -50.042492218 Ry
:3S 001: 3S                  -5.924030294 Ry

        2.ATOM      Se                    7 CORE STATES
       CORE-FORCE in mRy/a.u. = |F|      Fx             Fy             Fz
:FCO002:   2.ATOM   1147.049243448049      0.000000000000      0.000000000000  -1147.049243448049

:1S 002: 1S                -916.478931846 Ry
:2S 002: 2S                -117.137595169 Ry
:2PP002: 2P*               -105.112980155 Ry
:2P 002: 2P                -102.049712314 Ry
:3S 002: 3S                 -14.868033415 Ry
:3PP002: 3P*                -10.755142030 Ry
:3P 002: 3P                 -10.322656684 Ry

------- case.scfm --------
:CINT001 Core Integral Atom   1   11.997193
:CINT002 Core Integral Atom   2   17.999413

       DENSITY AT NUCLEUS
        JATOM        VALENCE       SEMI-CORE          CORE           TOTAL
:RTO001:   1        5.505479        0.000000    14798.236597    14803.742076
:RTO002:   2       56.370664        0.000000    38924.780678    38981.151342
     
       CHARGES OF NEW CHARGE DENSITY
:NTO   : INTERSTITIAL CHARGE =     8.065987
:NPC   : PW Pseudocharge     =    13.607287
:NTO001: CHARGE SPHERE  1    =    24.532928
:NTO002: CHARGE SPHERE  2    =    31.430508

:NEC01: NUCLEAR AND ELECTRONIC CHARGE    120.00000   119.99286
     
       CHARGES OF OLD CHARGE DENSITY
:OTO   : INTERSTITIAL CHARGE =     8.143519
:OPC   : PW Pseudocharge     =    13.631928
:OTO001: CHARGE SPHERE  1    =    24.541820
:OTO002: CHARGE SPHERE  2    =    31.386421

:NEC02: NUCLEAR AND ELECTRONIC CHARGE    120.00000   120.00000
     
       CONVERGENCE TEST
:DTO001: DIFFERENCE IN SPHERE  1 =  0.0717175
:DTO002: DIFFERENCE IN SPHERE  2 =  0.0314968

:DIS  :  CHARGE DISTANCE       ( 0.0717175 for atom    1 spin 1)      0.0516071
 PW Mixed is          365
 
******************************************************
* MULTISECANT MIXING VER9 RELEASE 10.4.0              *
* Slow Mode, cautious                                *
* Fixed density scale                                *
* Regularization       1.000E-04                     *
* Step Trust Radius    0.75000                       *
* Trust Upper Limit    2.000E+00                     *
* Max Number of Memory Steps   12                    *
******************************************************
 
:PWTMP   3.7368E+02  3.2249E+02  5.3028E+02
:PLANE:  PW TOTAL      3.6776 DISTAN   4.73E-02  1.29E+00 %
:CHARG:  CLM/ATOM    303.3346 DISTAN   7.12E-02  2.35E-02 %
 
Step History
        DMIX         DMIXT        Red     Pred      Trust     Lambda    MagRel    MagAbs     Beta
  1   3.5000E-02   3.5000E-02 -1.00E+00  1.00E+00 -1.00E+01  1.00E+00  3.50E-02  3.50E-02  1.00E+00
  2   2.5000E-02   2.5000E-02 -1.00E+00  1.00E+00 -1.00E+01  1.00E+00  2.50E-02  4.11E-03  1.00E+00
:JACOBIANS    4.269E-01   1.928E-02
  
:NORMS:  1/Froebius, Min, Max, Used   0.8355E+00  0.8355E+00  0.8923E+00  0.8355E+00
:INFO :  Number of Memory Steps    1 Skipping    0
:PREDicted Charge, CTotal, PW Trust    3.497E-03   5.728E-03   5.564E-02
:PREDicted DMix, Beta, BLim   1.0000E-02  3.0208E+00  5.0655E-01

Eigenvalues, unscaled except for SY+YY
   #     SY Real        SY Imag          SS             YY         SY+YY Real      SY+YY Imag
   1   8.922910E-01   0.000000E+00   8.355478E-01   1.000000E+00   1.892291E+00   0.000000E+00
 
:BLIM :  VZERO Control Off
:TRUST:  Step 4.74E-01  Charge 7.50E-02 (e) CTO  2.50E-01 (e) PW  3.50E-01 (e)
:DIRM :  MEMORY  1/12 SCALE   1.000 RED  0.91 PRED  1.00 NEXT  0.91 
:TRAVE:  Charge 3.13E-03 (e) CTO  5.02E-03 (e) PW  3.56E-02 (e)
:DIRP :  |MSR1|= 5.428E-02 |PRATT|= 4.734E-02 ANGLE=  68.2 DEGREES
:DIRQ :  |MSR1|= 1.013E-02 |PRATT|= 1.423E-01 ANGLE=   0.2 DEGREES
:DIRT :  |MSR1|= 5.521E-02 |PRATT|= 1.500E-01 ANGLE=  73.2 DEGREES
:MIX  :   MSR1   REGULARIZATION:  1.00E-04 GREED: 0.02000  Newton 1.00  0.3681                
     
       CHARGES OF MIXED CHARGE DENSITY
:CTO   : INTERSTITIAL CHARGE =     8.138500
:CPC   : PW Pseudocharge     =    13.695452
:CTO001: CHARGE SPHERE  1    =    24.541198
:CTO002: CHARGE SPHERE  2    =    31.389552

:NEC03: NUCLEAR AND ELECTRONIC CHARGE    120.00000   120.00000

PW CHANGE     H    K    L      Current       Change    Residue
:PTO001:      0    0    0  4.11743646E-02  1.103E-04 -1.565E-04
:PTO002:      0    0   -1  1.59365718E-02 -2.605E-04 -6.873E-04
:PTO004:     -1    0   -1 -9.23340059E-02 -1.314E-03 -6.638E-04
:PTO005:      0    0   -2 -1.08258823E-02 -3.865E-04 -1.675E-04
:PTO006:     -1   -1    0 -2.21392623E-02 -7.527E-04 -1.866E-04
:PTO007:     -1   -1   -1  2.52483845E-02 -1.434E-04  7.408E-06
:PTO008:     -1    0   -2  1.02954069E-02  2.193E-04 -1.736E-04
:PTO009:     -1   -1   -2  2.78089235E-02  6.302E-04  4.060E-04
:PTO010:     -2    0    0 -1.33785319E-02 -3.176E-04 -1.580E-04
:PTO011:      0    0   -3  2.39083310E-03  5.066E-05  1.071E-04
:PTO012:     -2    0   -1  3.55187615E-03  8.386E-05 -6.584E-04
:PTO014:     -1    0   -3  9.12221841E-03  4.770E-04  2.081E-05

:ENE  : ********** TOTAL ENERGY IN Ry =       -14790.26348630

       TOTAL FORCE IN mRy/a.u. = |F|     Fx             Fy             Fz     with/without FOR in case.in2
:FOR001:   1.ATOM          0.000          0.000          0.000          0.000 partial forces
:FOR002:   2.ATOM        125.165          0.000          0.000        125.165 partial forces
       TOTAL FORCE WITH RESPECT TO GLOBAL CARTESIAN COORDINATES:
:FCA001:   1.ATOM                         0.000          0.000          0.000 partial forces
:FCA002:   2.ATOM                         0.000          0.000        125.165 partial forces
       TOTAL FORCE WITH RESPECT TO THE GLOBAL COORDINATE SYSTEM:
:FGL001:   1.ATOM                 0.000000000     0.000000000     0.000000000 partial forces
:FGL002:   2.ATOM                 0.000000000     0.000000000   125.165306827 partial forces

------- case.scf0 --------
 Flat Integration
 New Mode for Coulomb Integral
 Consistent 3/8+Simpson combinations
 Extension of core to zero
 LDM version in phi
 Fifth-order quadrature in outwin


            ---------
:ITE012: 12. ITERATION
            ---------

:NATO :    2 INDEPENDENT AND    4 TOTAL ATOMS IN UNITCELL
       SUBSTANCE: FeSe                                                        

       LATTICE                      = P   
:POT  : POTENTIAL OPTION EX_LDA EC_LDA VX_LDA VC_LDA
:LAT  : LATTICE CONSTANTS=  7.12881  7.12881 10.43450    1.571    1.571    1.571
:VOL  : UNIT CELL VOLUME =     530.28024
       MODE OF CALCULATION IS       = RELA
       NON-SPINPOLARIZED CALCULATION
:IFFT  : FFT-parameters:   60   60   80 Factor: 2.00


   CONVERGENCE PARAMETER FOR PSEUDOCHARGE: NCON=  9
   MAXIMAL VALUE OF RMT(JATOM)*ABSK(NKK) : RK  =25.91023


:VKCOUL :  VK-COUL convergence: 0.337E-06
       ATOMNUMBER=  1 Fe         VCOUL-ZERO =  0.26513E+00
:EFG001:                        EFG         =     0.25002   *10**21  V / m**2
                               V20  TOT/SRF=     0.21652    -0.02141
                               V22  TOT/SRF=     0.00000     0.00000
                               V22M TOT/SRF=     0.00000     0.00000
                               V21  TOT/SRF=     0.00000     0.00000
                               V21M TOT/SRF=     0.00000     0.00000

             -0.12501    0.00000    0.00000       -0.12501    0.00000    0.00000
              0.00000   -0.12501    0.00000        0.00000   -0.12501    0.00000
              0.00000    0.00000    0.25002        0.00000    0.00000    0.25002

         MAIN DIRECTIONS OF THE EFG   1.0000  0.0000  0.0000
                                      0.0000  1.0000  0.0000
                                      0.0000  0.0000  1.0000
:ANG001:  ANGLE WITH OLD X-AXIS =         0.0

:ETA001:                         ASYMM. ETA =     0.00000


       ATOMNUMBER=  2 Se         VCOUL-ZERO =  0.62987E-01
:EFG002:                        EFG         =    -5.33725   *10**21  V / m**2
                               V20  TOT/SRF=    -4.62220     0.00285
                               V22  TOT/SRF=     0.00000     0.00000
                               V22M TOT/SRF=     0.00000     0.00000
                               V21  TOT/SRF=     0.00000     0.00000
                               V21M TOT/SRF=     0.00000     0.00000

              2.66863    0.00000    0.00000        2.66863    0.00000    0.00000
              0.00000    2.66863    0.00000        0.00000    2.66863    0.00000
              0.00000    0.00000   -5.33725        0.00000    0.00000   -5.33725

         MAIN DIRECTIONS OF THE EFG   1.0000  0.0000  0.0000
                                      0.0000  1.0000  0.0000
                                      0.0000  0.0000  1.0000
:ANG002:  ANGLE WITH OLD X-AXIS =         0.0

:ETA002:                         ASYMM. ETA =     0.00000


     HELLMANN-FEYNMAN-FORCE IN mRy/a.u. = |F|  Fx       Fy             Fz
:FHF001:   1.ATOM      0.000000000000      0.000000000000      0.000000000000      0.000000000000

     HELLMANN-FEYNMAN-FORCE IN mRy/a.u. = |F|  Fx       Fy             Fz
:FHF002:   2.ATOM   1308.406769802335      0.000000000000      0.000000000000   1308.406769802335

:FIT001: LUSE= 13 SIGMA OF V-XC FIT FOR ATOM  1  0.1609074E-02
:FIT001: LUSE= 13 SIGMA OF V-XC FIT FOR ATOM  1  0.1609074E-02
:FIT002: LUSE= 13 SIGMA OF V-XC FIT FOR ATOM  2  0.3369635E-03
:FIT002: LUSE= 13 SIGMA OF V-XC FIT FOR ATOM  2  0.3369635E-03
:DEN  : DENSITY INTEGRAL  =         -6218.83646862   (Ry)
       ELS_POTENTIAL_AT Z=0 and Z=0.5:  -0.70157   0.63093
       ELS_POTENTIAL_AT Y=0 and Y=0.5:   0.00000   0.00000
:VZERO:v0,v0c,v0x  -1.51222  -0.70157  -0.81065 v5,v5c,v5x   0.10891   0.63093  -0.52201
:VZERY:v0,v0c,v0x  -0.71487   0.00000  -0.71487 v5,v5c,v5x  -0.71487   0.00000  -0.71487
:VZERX:v0,v0c,v0x   0.10181   0.78742  -0.68561 v5,v5c,v5x   0.10181   0.78742  -0.68561

------- case.scf1 --------
:LMAX-WF:   10   Non-Spherical LMAX:   4

          ATOMIC SPHERE DEPENDENT PARAMETERS FOR ATOM  Fe        
:e__0001: OVERALL ENERGY PARAMETER IS    0.1874
          OVERALL BASIS SET ON ATOM IS LAPW
:E1_0001: E( 1)=    0.1874
             APW+lo
:E1_0001: E( 1)=   -3.4806   E(BOTTOM)=   -3.571   E(TOP)=   -3.390  1  2   146
             LOCAL ORBITAL
:E2_0001: E( 2)=    0.3089   E(BOTTOM)=   -0.046   E(TOP)=    0.663  0  1   136
             APW+lo
:E0_0001: E( 0)=    0.1874
             APW+lo

          ATOMIC SPHERE DEPENDENT PARAMETERS FOR ATOM  Se        
:e__0002: OVERALL ENERGY PARAMETER IS    0.1874
          OVERALL BASIS SET ON ATOM IS LAPW
:E2_0002: E( 2)=    0.1874
             APW+lo
:E2_0002: E( 2)=   -3.1738   E(BOTTOM)=   -3.218   E(TOP)=   -3.130  0  1   143
             LOCAL ORBITAL
:E0_0002: E( 0)=    0.5874
             APW+lo
:E0_0002: E( 0)=   -1.0200   E(BOTTOM)=   -1.635   E(TOP)= -200.000  3 -1   181
             LOCAL ORBITAL
:E1_0002: E( 1)=    0.1874
             APW+lo

       K=   0.04545   0.04545   0.07143            1
:RKM  : MATRIX SIZE   582LOs:  54  RKM= 7.97  WEIGHT= 8.00  PGR:    
       EIGENVALUES ARE:
:EIG00001:      -3.4689347   -3.4687129   -3.4601193   -3.4598978   -3.4547588
:EIG00006:      -3.4528182   -3.1642646   -3.1641486   -3.1638077   -3.1637629
:EIG00011:      -3.1629152   -3.1629015   -3.1628498   -3.1628468   -3.1621005
:EIG00016:      -3.1620763   -0.6705895   -0.5864639   -0.0321085    0.1091424
:EIG00021:       0.1197882    0.1240160    0.1629286    0.1674111    0.2128004
:EIG00026:       0.3353195    0.3438220    0.3772582    0.3961129    0.3976633
:EIG00031:       0.4334750    0.4478707    0.5290423    0.5393119    0.5995212
:EIG00036:       0.7583792    0.8138611    0.8911973    0.9020987    0.9235891
:EIG00041:       1.2370573    1.2842394    1.3158411    1.3406851    1.3489448
:EIG00046:       1.3809606    1.4100789    1.4516746    1.4546792    1.4898031
 
:EIG00051:       1.5782840    1.5864014    1.6989816    1.7333333    1.8418724
       ********************************************************

:KPT   :      NUMBER OF K-POINTS:    84

------- case.scf2 --------
:GMA  : POTENTIAL AND CHARGE CUT-OFF  12.00 Ry**.5




:POS001: at.nr.  -1 position = 0.25000 0.75000 0.00000  multiplicity =  2

       lmmax  8
       lm=   0 0  2 0 -3 2  4 0  4 4 -5 2  6 0  6 4




:POS002: at.nr.  -2 position = 0.25000 0.75000 0.00000  multiplicity =  2

       lmmax 10
       lm=   0 0  1 0  2 0  3 0  4 0  4 4  5 0  5 4  6 0  6 4
:FER gutzwiller fermi energy   0.38736
:EORB          0.143837419
:SUM sum of gutz band energies       -101.965962840

:CHA001: total charge inside sphere   1 =    12.535410
:PCS001: partial charges sphere =  1 s,p,d,f,pz,pxy,,d-z2,d-xy,d-x2y2,d-xz,yz 
:QTL001: 0.2506 6.2262 6.0397 0.0155 2.0648 4.1613 0.0000 1.3606 1.2479 1.1819 2.2494 0.0000
:VZZ001: efg inside sphere   1 =     1.200033      up to r =   2.16000

:CHA002: total charge inside sphere   2 =    13.427613
:PCS002: partial charges sphere =  2 s,p,d,f,pz,pxy,,d-z2,d-xy,d-x2y2,d-xz,yz 
:QTL002: 1.3635 2.024810.0282 0.0092 0.6906 1.3342 0.0000 2.0055 2.0050 2.0052 4.0125 0.0000
:VZZ002: efg inside sphere   2 =    -4.614037      up to r =   2.05000

:CHA  : total charge inside unit cell =      60.000000

------- case.scfc --------

        1.ATOM      Fe                    5 CORE STATES
:1S 001: 1S                -512.220775767 Ry
:2S 001: 2S                 -59.152394657 Ry
:2PP001: 2P*                -50.954637831 Ry
:2P 001: 2P                 -50.039415817 Ry
:3S 001: 3S                  -5.923452801 Ry

        2.ATOM      Se                    7 CORE STATES
       CORE-FORCE in mRy/a.u. = |F|      Fx             Fy             Fz
:FCO002:   2.ATOM   1162.481319715019      0.000000000000      0.000000000000  -1162.481319715019

:1S 002: 1S                -916.475561141 Ry
:2S 002: 2S                -117.134516237 Ry
:2PP002: 2P*               -105.109855132 Ry
:2P 002: 2P                -102.046593628 Ry
:3S 002: 3S                 -14.865385104 Ry
:3PP002: 3P*                -10.752501135 Ry
:3P 002: 3P                 -10.320027123 Ry

------- case.scfm --------
:CINT001 Core Integral Atom   1   11.997189
:CINT002 Core Integral Atom   2   17.999413

       DENSITY AT NUCLEUS
        JATOM        VALENCE       SEMI-CORE          CORE           TOTAL
:RTO001:   1        5.526864        0.000000    14798.186024    14803.712888
:RTO002:   2       56.349110        0.000000    38924.761938    38981.111048
     
       CHARGES OF NEW CHARGE DENSITY
:NTO   : INTERSTITIAL CHARGE =     8.073871
:NPC   : PW Pseudocharge     =    13.608231
:NTO001: CHARGE SPHERE  1    =    24.532598
:NTO002: CHARGE SPHERE  2    =    31.427026

:NEC01: NUCLEAR AND ELECTRONIC CHARGE    120.00000   119.99312
     
       CHARGES OF OLD CHARGE DENSITY
:OTO   : INTERSTITIAL CHARGE =     8.138500
:OPC   : PW Pseudocharge     =    13.695452
:OTO001: CHARGE SPHERE  1    =    24.541198
:OTO002: CHARGE SPHERE  2    =    31.389552

:NEC02: NUCLEAR AND ELECTRONIC CHARGE    120.00000   120.00000
     
       CONVERGENCE TEST
:DTO001: DIFFERENCE IN SPHERE  1 =  0.0572273
:DTO002: DIFFERENCE IN SPHERE  2 =  0.0262505

:DIS  :  CHARGE DISTANCE       ( 0.0572273 for atom    1 spin 1)      0.0417389
 PW Mixed is          365
 
******************************************************
* MULTISECANT MIXING VER9 RELEASE 10.4.0              *
* Slow Mode, cautious                                *
* Fixed density scale                                *
* Regularization       1.000E-04                     *
* Step Trust Radius    0.75000                       *
* Trust Upper Limit    2.000E+00                     *
* Max Number of Memory Steps   12                    *
******************************************************
 
:PWTMP   3.7368E+02  3.2249E+02  5.3028E+02
:PLANE:  PW TOTAL      3.7088 DISTAN   5.74E-02  1.55E+00 %
:CHARG:  CLM/ATOM    303.3353 DISTAN   5.98E-02  1.97E-02 %
 
Step History
        DMIX         DMIXT        Red     Pred      Trust     Lambda    MagRel    MagAbs     Beta
  1   3.5000E-02   3.5000E-02 -1.00E+00  1.00E+00 -1.00E+01  1.00E+00  3.50E-02  3.50E-02  1.00E+00
  2   2.5000E-02   2.5000E-02  9.12E-01  1.00E+00 -1.00E+01  1.00E+00  2.50E-02  4.11E-03  1.00E+00
  3   2.0000E-02   2.0000E-02 -1.00E+00  9.14E-01  4.74E-01  1.00E+00  3.68E-01  5.52E-02  1.00E+00
:JACOBIANS    7.048E-01   1.661E-01
  
:NORMS:  1/Froebius, Min, Max, Used   0.8827E+00  0.7379E+00  0.1019E+01  0.8827E+00
:INFO :  Number of Memory Steps    2 Skipping    0
:INFO :  SLambda=    0.3597069819  Max    0.3597069819
:PREDicted Charge, CTotal, PW Trust    1.773E-02   2.668E-02   2.403E-02
:PREDicted DMix, Beta, BLim   1.7418E-01  2.2947E-01  3.8908E-01

Eigenvalues, unscaled except for SY+YY
   #     SY Real        SY Imag          SS             YY         SY+YY Real      SY+YY Imag
   1   1.715473E+00   0.000000E+00   1.558214E+00   1.999693E+00   2.616754E+00   0.000000E+00
   2   1.667305E-04   0.000000E+00   1.033603E-04   3.073887E-04   3.737462E-04   0.000000E+00
 
:INFO :  Singular value  2.617E+00 Weight  1.000E+00 Projection -9.769E-05
:INFO :  Singular value  3.737E-04 Weight  7.774E-01 Projection -5.533E+00
:RANK :  ACTIVE   1.78/2  =  88.87 % ; YY RANK   1.70/2  =  85.13 %
 
:DLIM :  Beta Active  8.000E-01
:BLIM :  VZERO Control Off
:TRUST:  Step 5.35E-01  Charge 7.50E-02 (e) CTO  2.50E-01 (e) PW  3.50E-01 (e)
:DIRM :  MEMORY  2/12 SCALE   1.000 RED  0.88 PRED  0.91 NEXT  0.52 BETA  0.80
:TRAVE:  Charge 7.24E-03 (e) CTO  1.18E-02 (e) PW  4.22E-02 (e)
:DIRP :  |MSR1|= 4.597E-02 |PRATT|= 5.738E-02 ANGLE=  26.8 DEGREES
:DIRQ :  |MSR1|= 3.787E-02 |PRATT|= 1.197E-01 ANGLE=   2.1 DEGREES
:DIRT :  |MSR1|= 5.956E-02 |PRATT|= 1.327E-01 ANGLE=  29.4 DEGREES
:MIX  :   MSD1   REGULARIZATION:  2.00E-04 GREED: 0.05000  Newton 1.00  0.4488                
     
       CHARGES OF MIXED CHARGE DENSITY
:CTO   : INTERSTITIAL CHARGE =     8.119853
:CPC   : PW Pseudocharge     =    13.633888
:CTO001: CHARGE SPHERE  1    =    24.539172
:CTO002: CHARGE SPHERE  2    =    31.400901

:NEC03: NUCLEAR AND ELECTRONIC CHARGE    120.00000   120.00000

PW CHANGE     H    K    L      Current       Change    Residue
:PTO001:      0    0    0  4.10231046E-02 -1.513E-04 -2.515E-04
:PTO002:      0    0   -1  1.59588249E-02  2.225E-05 -3.382E-04
:PTO004:     -1    0   -1 -9.13577552E-02  9.763E-04  7.501E-04
:PTO005:      0    0   -2 -1.05294886E-02  2.964E-04  2.487E-04
:PTO006:     -1   -1    0 -2.15173582E-02  6.219E-04  6.075E-04
:PTO007:     -1   -1   -1  2.53606107E-02  1.122E-04  1.163E-04
:PTO008:     -1    0   -2  1.00077823E-02 -2.876E-04 -4.484E-04
:PTO009:     -1   -1   -2  2.73821534E-02 -4.268E-04 -2.613E-04
:PTO010:     -2    0    0 -1.31412604E-02  2.373E-04  1.880E-04
:PTO011:      0    0   -3  2.37820117E-03 -1.263E-05  4.273E-05
:PTO012:     -2    0   -1  3.24160699E-03 -3.103E-04 -7.277E-04
:PTO014:     -1    0   -3  8.70590996E-03 -4.163E-04 -4.612E-04

:ENE  : ********** TOTAL ENERGY IN Ry =       -14790.26320581

       TOTAL FORCE IN mRy/a.u. = |F|     Fx             Fy             Fz     with/without FOR in case.in2
:FOR001:   1.ATOM          0.000          0.000          0.000          0.000 partial forces
:FOR002:   2.ATOM        145.925          0.000          0.000        145.925 partial forces
       TOTAL FORCE WITH RESPECT TO GLOBAL CARTESIAN COORDINATES:
:FCA001:   1.ATOM                         0.000          0.000          0.000 partial forces
:FCA002:   2.ATOM                         0.000          0.000        145.925 partial forces
       TOTAL FORCE WITH RESPECT TO THE GLOBAL COORDINATE SYSTEM:
:FGL001:   1.ATOM                 0.000000000     0.000000000     0.000000000 partial forces
:FGL002:   2.ATOM                 0.000000000     0.000000000   145.925450087 partial forces

------- case.scf0 --------
 Flat Integration
 New Mode for Coulomb Integral
 Consistent 3/8+Simpson combinations
 Extension of core to zero
 LDM version in phi
 Fifth-order quadrature in outwin


            ---------
:ITE013: 13. ITERATION
            ---------

:NATO :    2 INDEPENDENT AND    4 TOTAL ATOMS IN UNITCELL
       SUBSTANCE: FeSe                                                        

       LATTICE                      = P   
:POT  : POTENTIAL OPTION EX_LDA EC_LDA VX_LDA VC_LDA
:LAT  : LATTICE CONSTANTS=  7.12881  7.12881 10.43450    1.571    1.571    1.571
:VOL  : UNIT CELL VOLUME =     530.28024
       MODE OF CALCULATION IS       = RELA
       NON-SPINPOLARIZED CALCULATION
:IFFT  : FFT-parameters:   60   60   80 Factor: 2.00


   CONVERGENCE PARAMETER FOR PSEUDOCHARGE: NCON=  9
   MAXIMAL VALUE OF RMT(JATOM)*ABSK(NKK) : RK  =25.91023


:VKCOUL :  VK-COUL convergence: 0.336E-06
       ATOMNUMBER=  1 Fe         VCOUL-ZERO =  0.25653E+00
:EFG001:                        EFG         =     0.52777   *10**21  V / m**2
                               V20  TOT/SRF=     0.45706    -0.02989
                               V22  TOT/SRF=     0.00000     0.00000
                               V22M TOT/SRF=     0.00000     0.00000
                               V21  TOT/SRF=     0.00000     0.00000
                               V21M TOT/SRF=     0.00000     0.00000

             -0.26389    0.00000    0.00000       -0.26389    0.00000    0.00000
              0.00000   -0.26389    0.00000        0.00000   -0.26389    0.00000
              0.00000    0.00000    0.52777        0.00000    0.00000    0.52777

         MAIN DIRECTIONS OF THE EFG   1.0000  0.0000  0.0000
                                      0.0000  1.0000  0.0000
                                      0.0000  0.0000  1.0000
:ANG001:  ANGLE WITH OLD X-AXIS =         0.0

:ETA001:                         ASYMM. ETA =     0.00000


       ATOMNUMBER=  2 Se         VCOUL-ZERO =  0.66011E-01
:EFG002:                        EFG         =    -5.07887   *10**21  V / m**2
                               V20  TOT/SRF=    -4.39843     0.00462
                               V22  TOT/SRF=     0.00000     0.00000
                               V22M TOT/SRF=     0.00000     0.00000
                               V21  TOT/SRF=     0.00000     0.00000
                               V21M TOT/SRF=     0.00000     0.00000

              2.53943    0.00000    0.00000        2.53943    0.00000    0.00000
              0.00000    2.53943    0.00000        0.00000    2.53943    0.00000
              0.00000    0.00000   -5.07887        0.00000    0.00000   -5.07887

         MAIN DIRECTIONS OF THE EFG   1.0000  0.0000  0.0000
                                      0.0000  1.0000  0.0000
                                      0.0000  0.0000  1.0000
:ANG002:  ANGLE WITH OLD X-AXIS =         0.0

:ETA002:                         ASYMM. ETA =     0.00000


     HELLMANN-FEYNMAN-FORCE IN mRy/a.u. = |F|  Fx       Fy             Fz
:FHF001:   1.ATOM      0.000000000000      0.000000000000      0.000000000000      0.000000000000

     HELLMANN-FEYNMAN-FORCE IN mRy/a.u. = |F|  Fx       Fy             Fz
:FHF002:   2.ATOM   1399.760666933767      0.000000000000      0.000000000000   1399.760666933767

:FIT001: LUSE= 13 SIGMA OF V-XC FIT FOR ATOM  1  0.1605930E-02
:FIT001: LUSE= 13 SIGMA OF V-XC FIT FOR ATOM  1  0.1605930E-02
:FIT002: LUSE= 13 SIGMA OF V-XC FIT FOR ATOM  2  0.3243760E-03
:FIT002: LUSE= 13 SIGMA OF V-XC FIT FOR ATOM  2  0.3243760E-03
:DEN  : DENSITY INTEGRAL  =         -6219.59175960   (Ry)
       ELS_POTENTIAL_AT Z=0 and Z=0.5:  -0.71486   0.63912
       ELS_POTENTIAL_AT Y=0 and Y=0.5:   0.00000   0.00000
:VZERO:v0,v0c,v0x  -1.52559  -0.71486  -0.81073 v5,v5c,v5x   0.11596   0.63912  -0.52315
:VZERY:v0,v0c,v0x  -0.71457   0.00000  -0.71457 v5,v5c,v5x  -0.71457   0.00000  -0.71457
:VZERX:v0,v0c,v0x   0.10032   0.78606  -0.68574 v5,v5c,v5x   0.10032   0.78606  -0.68574

------- case.scf1 --------
:LMAX-WF:   10   Non-Spherical LMAX:   4

          ATOMIC SPHERE DEPENDENT PARAMETERS FOR ATOM  Fe        
:e__0001: OVERALL ENERGY PARAMETER IS    0.1874
          OVERALL BASIS SET ON ATOM IS LAPW
:E1_0001: E( 1)=    0.1874
             APW+lo
:E1_0001: E( 1)=   -3.4793   E(BOTTOM)=   -3.570   E(TOP)=   -3.388  1  2   145
             LOCAL ORBITAL
:E2_0001: E( 2)=    0.3086   E(BOTTOM)=   -0.048   E(TOP)=    0.665  0  1   133
             APW+lo
:E0_0001: E( 0)=    0.1874
             APW+lo

          ATOMIC SPHERE DEPENDENT PARAMETERS FOR ATOM  Se        
:e__0002: OVERALL ENERGY PARAMETER IS    0.1874
          OVERALL BASIS SET ON ATOM IS LAPW
:E2_0002: E( 2)=    0.1874
             APW+lo
:E2_0002: E( 2)=   -3.1655   E(BOTTOM)=   -3.209   E(TOP)=   -3.122  0  1   138
             LOCAL ORBITAL
:E0_0002: E( 0)=    0.5874
             APW+lo
:E0_0002: E( 0)=   -1.0200   E(BOTTOM)=   -1.630   E(TOP)= -200.000  3 -1   178
             LOCAL ORBITAL
:E1_0002: E( 1)=    0.1874
             APW+lo

       K=   0.04545   0.04545   0.07143            1
:RKM  : MATRIX SIZE   582LOs:  54  RKM= 7.97  WEIGHT= 8.00  PGR:    
       EIGENVALUES ARE:
:EIG00001:      -3.4671831   -3.4669597   -3.4583017   -3.4580784   -3.4540642
:EIG00006:      -3.4521080   -3.1557830   -3.1556690   -3.1553183   -3.1552729
:EIG00011:      -3.1545426   -3.1545287   -3.1544765   -3.1544733   -3.1537569
:EIG00016:      -3.1537329   -0.6684376   -0.5836407   -0.0317337    0.1087724
:EIG00021:       0.1197772    0.1240967    0.1640110    0.1685656    0.2114266
:EIG00026:       0.3359063    0.3436597    0.3778709    0.3959865    0.3979839
:EIG00031:       0.4350365    0.4488369    0.5310847    0.5418345    0.5998373
:EIG00036:       0.7587872    0.8145636    0.8906293    0.9012484    0.9236258
:EIG00041:       1.2397097    1.2840978    1.3171483    1.3416215    1.3504817
:EIG00046:       1.3792460    1.4105005    1.4532054    1.4543556    1.4908205
 
:EIG00051:       1.5803058    1.5888768    1.6985697    1.7331793    1.8414772
       ********************************************************

:KPT   :      NUMBER OF K-POINTS:    84

------- case.scf2 --------
:GMA  : POTENTIAL AND CHARGE CUT-OFF  12.00 Ry**.5




:POS001: at.nr.  -1 position = 0.25000 0.75000 0.00000  multiplicity =  2

       lmmax  8
       lm=   0 0  2 0 -3 2  4 0  4 4 -5 2  6 0  6 4




:POS002: at.nr.  -2 position = 0.25000 0.75000 0.00000  multiplicity =  2

       lmmax 10
       lm=   0 0  1 0  2 0  3 0  4 0  4 4  5 0  5 4  6 0  6 4
:FER gutzwiller fermi energy   0.38858
:EORB          0.130674735
:SUM sum of gutz band energies       -101.752017968

:CHA001: total charge inside sphere   1 =    12.540397
:PCS001: partial charges sphere =  1 s,p,d,f,pz,pxy,,d-z2,d-xy,d-x2y2,d-xz,yz 
:QTL001: 0.2534 6.2293 6.0386 0.0156 2.0653 4.1640 0.0000 1.3608 1.2487 1.1755 2.2536 0.0000
:VZZ001: efg inside sphere   1 =     0.945506      up to r =   2.16000

:CHA002: total charge inside sphere   2 =    13.412234
:PCS002: partial charges sphere =  2 s,p,d,f,pz,pxy,,d-z2,d-xy,d-x2y2,d-xz,yz 
:QTL002: 1.3625 2.009410.0291 0.0093 0.6853 1.3241 0.0000 2.0056 2.0050 2.0052 4.0132 0.0000
:VZZ002: efg inside sphere   2 =    -4.543563      up to r =   2.05000

:CHA  : total charge inside unit cell =      60.000017

------- case.scfc --------

        1.ATOM      Fe                    5 CORE STATES
:1S 001: 1S                -512.209791800 Ry
:2S 001: 2S                 -59.142147413 Ry
:2PP001: 2P*                -50.944155515 Ry
:2P 001: 2P                 -50.028956610 Ry
:3S 001: 3S                  -5.921474690 Ry

        2.ATOM      Se                    7 CORE STATES
       CORE-FORCE in mRy/a.u. = |F|      Fx             Fy             Fz
:FCO002:   2.ATOM   1193.713592047431      0.000000000000      0.000000000000  -1193.713592047431

:1S 002: 1S                -916.464914017 Ry
:2S 002: 2S                -117.124778834 Ry
:2PP002: 2P*               -105.099981084 Ry
:2P 002: 2P                -102.036738353 Ry
:3S 002: 3S                 -14.856746769 Ry
:3PP002: 3P*                -10.743887442 Ry
:3P 002: 3P                 -10.311444470 Ry

------- case.scfm --------
:CINT001 Core Integral Atom   1   11.997173
:CINT002 Core Integral Atom   2   17.999412

       DENSITY AT NUCLEUS
        JATOM        VALENCE       SEMI-CORE          CORE           TOTAL
:RTO001:   1        5.597766        0.000000    14798.015051    14803.612817
:RTO002:   2       56.270751        0.000000    38924.709337    38980.980088
     
       CHARGES OF NEW CHARGE DENSITY
:NTO   : INTERSTITIAL CHARGE =     8.094679
:NPC   : PW Pseudocharge     =    13.606154
:NTO001: CHARGE SPHERE  1    =    24.537571
:NTO002: CHARGE SPHERE  2    =    31.411646

:NEC01: NUCLEAR AND ELECTRONIC CHARGE    120.00000   119.99311
     
       CHARGES OF OLD CHARGE DENSITY
:OTO   : INTERSTITIAL CHARGE =     8.119853
:OPC   : PW Pseudocharge     =    13.633888
:OTO001: CHARGE SPHERE  1    =    24.539172
:OTO002: CHARGE SPHERE  2    =    31.400901

:NEC02: NUCLEAR AND ELECTRONIC CHARGE    120.00000   120.00000
     
       CONVERGENCE TEST
:DTO001: DIFFERENCE IN SPHERE  1 =  0.0157372
:DTO002: DIFFERENCE IN SPHERE  2 =  0.0084292

:DIS  :  CHARGE DISTANCE       ( 0.0157372 for atom    1 spin 1)      0.0120832
 PW Mixed is          365
 
******************************************************
* MULTISECANT MIXING VER9 RELEASE 10.4.0              *
* Standard Mode with controls                        *
* Fixed density scale                                *
* Regularization       1.000E-04                     *
* Trust Upper Limit    5.000E+00                     *
* Max Number of Memory Steps    8                    *
******************************************************
 
:PWTMP   3.7368E+02  3.2249E+02  5.3028E+02
:PLANE:  PW TOTAL      3.6798 DISTAN   2.13E-02  5.79E-01 %
:CHARG:  CLM/ATOM    303.3372 DISTAN   2.46E-02  8.09E-03 %
 
Step History
        DMIX         DMIXT        Red     Pred      Trust     Lambda    MagRel    MagAbs     Beta
  1   3.5000E-02   3.5000E-02 -1.00E+00  1.00E+00 -1.00E+01  1.00E+00  3.50E-02  3.50E-02  1.00E+00
  2   2.5000E-02   2.5000E-02  9.12E-01  1.00E+00 -1.00E+01  1.00E+00  2.50E-02  4.11E-03  1.00E+00
  3   2.0000E-02   2.0000E-02  8.85E-01  9.14E-01  4.74E-01  3.60E-01  3.68E-01  5.52E-02  1.00E+00
  4   5.0000E-02   5.0000E-02 -1.00E+00  5.24E-01  5.35E-01  1.00E+00  4.49E-01  5.96E-02  8.00E-01
:JACOBIANS    8.766E-01   2.827E-01
  
:NORMS:  1/Froebius, Min, Max, Used   0.5426E+00  0.4615E+00  0.1003E+01  0.5975E+00
:INFO :  Number of Memory Steps    3 Skipping    0
:INFO :  SLambda=    1.4956123355  Max    1.4956123355
:PREDicted Charge, CTotal, PW Trust    1.683E-02   2.765E-02   7.217E-02
:PREDicted DMix, Beta, BLim   2.5238E-01  1.4320E+00  8.4317E-01

Eigenvalues, unscaled except for SY+YY
   #     SY Real        SY Imag          SS             YY         SY+YY Real      SY+YY Imag
   1   1.123642E+00   0.000000E+00   5.732075E-01   2.691389E+00   4.377927E+00   0.000000E+00
   2   6.915186E-07   0.000000E+00   3.101931E-01   3.085983E-01   1.390468E-05   0.000000E+00
   3   3.222260E-01   0.000000E+00   6.830510E-08   1.285503E-05   7.845179E-01   0.000000E+00
 
:INFO :  Singular value  4.383E+00 Weight  1.000E+00 Projection  2.346E-02
:INFO :  Singular value  7.836E-01 Weight  1.000E+00 Projection  3.282E-02
:INFO :  Singular value  1.390E-05 Weight  2.662E-03 Projection  3.542E-03
:RANK :  ACTIVE   2.00/3  =  66.76 % ; YY RANK   2.00/3  =  66.74 %
 
:BLIM :  VZERO Control Off
:TRUST:  Step 7.14E-01  Charge 7.50E-02 (e) CTO  2.50E-01 (e) PW  3.50E-01 (e)
:DIRM :  MEMORY  3/8  SCALE   1.000 RED  0.40 PRED  0.52 NEXT  0.74 
:TRAVE:  Charge 6.13E-03 (e) CTO  1.02E-02 (e) PW  3.18E-02 (e)
:DIRP :  |MSR1|= 2.105E-02 |PRATT|= 2.130E-02 ANGLE=  36.9 DEGREES
:DIRQ :  |MSR1|= 1.894E-02 |PRATT|= 4.911E-02 ANGLE=  15.3 DEGREES
:DIRT :  |MSR1|= 2.832E-02 |PRATT|= 5.353E-02 ANGLE=  34.1 DEGREES
:MIX  :   MSE1   REGULARIZATION:  2.69E-04 GREED: 0.12500  Newton 1.00  0.5290                
     
       CHARGES OF MIXED CHARGE DENSITY
:CTO   : INTERSTITIAL CHARGE =     8.111254
:CPC   : PW Pseudocharge     =    13.607163
:CTO001: CHARGE SPHERE  1    =    24.538443
:CTO002: CHARGE SPHERE  2    =    31.405930

:NEC03: NUCLEAR AND ELECTRONIC CHARGE    120.00000   120.00000

PW CHANGE     H    K    L      Current       Change    Residue
:PTO001:      0    0    0  4.09564900E-02 -6.661E-05 -6.495E-05
:PTO002:      0    0   -1  1.59811998E-02  2.237E-05 -3.624E-05
:PTO004:     -1    0   -1 -9.09208861E-02  4.369E-04  1.908E-04
:PTO005:      0    0   -2 -1.03942908E-02  1.352E-04  7.841E-05
:PTO006:     -1   -1    0 -2.12372085E-02  2.801E-04  1.713E-04
:PTO007:     -1   -1   -1  2.53886046E-02  2.799E-05 -9.050E-05
:PTO008:     -1    0   -2  9.83694839E-03 -1.708E-04 -3.564E-04
:PTO009:     -1   -1   -2  2.72080868E-02 -1.741E-04  2.945E-05
:PTO010:     -2    0    0 -1.30349848E-02  1.063E-04  4.867E-05
:PTO011:      0    0   -3  2.37213098E-03 -6.070E-06  1.129E-05
:PTO012:     -2    0   -1  3.07283930E-03 -1.688E-04 -3.741E-04
:PTO014:     -1    0   -3  8.52909834E-03 -1.768E-04 -7.276E-05

:ENE  : ********** TOTAL ENERGY IN Ry =       -14790.26172855

       TOTAL FORCE IN mRy/a.u. = |F|     Fx             Fy             Fz     with/without FOR in case.in2
:FOR001:   1.ATOM          0.000          0.000          0.000          0.000 partial forces
:FOR002:   2.ATOM        206.047          0.000          0.000        206.047 partial forces
       TOTAL FORCE WITH RESPECT TO GLOBAL CARTESIAN COORDINATES:
:FCA001:   1.ATOM                         0.000          0.000          0.000 partial forces
:FCA002:   2.ATOM                         0.000          0.000        206.047 partial forces
       TOTAL FORCE WITH RESPECT TO THE GLOBAL COORDINATE SYSTEM:
:FGL001:   1.ATOM                 0.000000000     0.000000000     0.000000000 partial forces
:FGL002:   2.ATOM                 0.000000000     0.000000000   206.047074886 partial forces

------- case.scf0 --------
 Flat Integration
 New Mode for Coulomb Integral
 Consistent 3/8+Simpson combinations
 Extension of core to zero
 LDM version in phi
 Fifth-order quadrature in outwin


            ---------
:ITE014: 14. ITERATION
            ---------

:NATO :    2 INDEPENDENT AND    4 TOTAL ATOMS IN UNITCELL
       SUBSTANCE: FeSe                                                        

       LATTICE                      = P   
:POT  : POTENTIAL OPTION EX_LDA EC_LDA VX_LDA VC_LDA
:LAT  : LATTICE CONSTANTS=  7.12881  7.12881 10.43450    1.571    1.571    1.571
:VOL  : UNIT CELL VOLUME =     530.28024
       MODE OF CALCULATION IS       = RELA
       NON-SPINPOLARIZED CALCULATION
:IFFT  : FFT-parameters:   60   60   80 Factor: 2.00


   CONVERGENCE PARAMETER FOR PSEUDOCHARGE: NCON=  9
   MAXIMAL VALUE OF RMT(JATOM)*ABSK(NKK) : RK  =25.91023


:VKCOUL :  VK-COUL convergence: 0.335E-06
       ATOMNUMBER=  1 Fe         VCOUL-ZERO =  0.25309E+00
:EFG001:                        EFG         =     0.67257   *10**21  V / m**2
                               V20  TOT/SRF=     0.58246    -0.03268
                               V22  TOT/SRF=     0.00000     0.00000
                               V22M TOT/SRF=     0.00000     0.00000
                               V21  TOT/SRF=     0.00000     0.00000
                               V21M TOT/SRF=     0.00000     0.00000

             -0.33628    0.00000    0.00000       -0.33628    0.00000    0.00000
              0.00000   -0.33628    0.00000        0.00000   -0.33628    0.00000
              0.00000    0.00000    0.67257        0.00000    0.00000    0.67257

         MAIN DIRECTIONS OF THE EFG   1.0000  0.0000  0.0000
                                      0.0000  1.0000  0.0000
                                      0.0000  0.0000  1.0000
:ANG001:  ANGLE WITH OLD X-AXIS =         0.0

:ETA001:                         ASYMM. ETA =     0.00000


       ATOMNUMBER=  2 Se         VCOUL-ZERO =  0.67307E-01
:EFG002:                        EFG         =    -4.90059   *10**21  V / m**2
                               V20  TOT/SRF=    -4.24403     0.00527
                               V22  TOT/SRF=     0.00000     0.00000
                               V22M TOT/SRF=     0.00000     0.00000
                               V21  TOT/SRF=     0.00000     0.00000
                               V21M TOT/SRF=     0.00000     0.00000

              2.45029    0.00000    0.00000        2.45029    0.00000    0.00000
              0.00000    2.45029    0.00000        0.00000    2.45029    0.00000
              0.00000    0.00000   -4.90059        0.00000    0.00000   -4.90059

         MAIN DIRECTIONS OF THE EFG   1.0000  0.0000  0.0000
                                      0.0000  1.0000  0.0000
                                      0.0000  0.0000  1.0000
:ANG002:  ANGLE WITH OLD X-AXIS =         0.0

:ETA002:                         ASYMM. ETA =     0.00000


     HELLMANN-FEYNMAN-FORCE IN mRy/a.u. = |F|  Fx       Fy             Fz
:FHF001:   1.ATOM      0.000000000000      0.000000000000      0.000000000000      0.000000000000

     HELLMANN-FEYNMAN-FORCE IN mRy/a.u. = |F|  Fx       Fy             Fz
:FHF002:   2.ATOM   1392.023746294505      0.000000000000      0.000000000000   1392.023746294505

:FIT001: LUSE= 13 SIGMA OF V-XC FIT FOR ATOM  1  0.1601226E-02
:FIT001: LUSE= 13 SIGMA OF V-XC FIT FOR ATOM  1  0.1601226E-02
:FIT002: LUSE= 13 SIGMA OF V-XC FIT FOR ATOM  2  0.3173141E-03
:FIT002: LUSE= 13 SIGMA OF V-XC FIT FOR ATOM  2  0.3173141E-03
:DEN  : DENSITY INTEGRAL  =         -6219.87948774   (Ry)
       ELS_POTENTIAL_AT Z=0 and Z=0.5:  -0.72003   0.64215
       ELS_POTENTIAL_AT Y=0 and Y=0.5:   0.00000   0.00000
:VZERO:v0,v0c,v0x  -1.53090  -0.72003  -0.81087 v5,v5c,v5x   0.11851   0.64215  -0.52364
:VZERY:v0,v0c,v0x  -0.71444   0.00000  -0.71444 v5,v5c,v5x  -0.71444   0.00000  -0.71444
:VZERX:v0,v0c,v0x   0.09968   0.78548  -0.68580 v5,v5c,v5x   0.09968   0.78548  -0.68580

------- case.scf1 --------
:LMAX-WF:   10   Non-Spherical LMAX:   4

          ATOMIC SPHERE DEPENDENT PARAMETERS FOR ATOM  Fe        
:e__0001: OVERALL ENERGY PARAMETER IS    0.1874
          OVERALL BASIS SET ON ATOM IS LAPW
:E1_0001: E( 1)=    0.1874
             APW+lo
:E1_0001: E( 1)=   -3.4784   E(BOTTOM)=   -3.570   E(TOP)=   -3.387  1  2   144
             LOCAL ORBITAL
:E2_0001: E( 2)=    0.3088   E(BOTTOM)=   -0.048   E(TOP)=    0.666  0  1   138
             APW+lo
:E0_0001: E( 0)=    0.1874
             APW+lo

          ATOMIC SPHERE DEPENDENT PARAMETERS FOR ATOM  Se        
:e__0002: OVERALL ENERGY PARAMETER IS    0.1874
          OVERALL BASIS SET ON ATOM IS LAPW
:E2_0002: E( 2)=    0.1874
             APW+lo
:E2_0002: E( 2)=   -3.1623   E(BOTTOM)=   -3.206   E(TOP)=   -3.118  0  1   141
             LOCAL ORBITAL
:E0_0002: E( 0)=    0.5874
             APW+lo
:E0_0002: E( 0)=   -1.0200   E(BOTTOM)=   -1.628   E(TOP)= -200.000  3 -1   182
             LOCAL ORBITAL
:E1_0002: E( 1)=    0.1874
             APW+lo

       K=   0.04545   0.04545   0.07143            1
:RKM  : MATRIX SIZE   582LOs:  54  RKM= 7.97  WEIGHT= 8.00  PGR:    
       EIGENVALUES ARE:
:EIG00001:      -3.4660930   -3.4658688   -3.4571840   -3.4569600   -3.4537112
:EIG00006:      -3.4517491   -3.1525550   -3.1524418   -3.1520846   -3.1520390
:EIG00011:      -3.1513728   -3.1513588   -3.1513064   -3.1513032   -3.1506041
:EIG00016:      -3.1505802   -0.6674771   -0.5823833   -0.0315531    0.1088147
:EIG00021:       0.1199087    0.1242565    0.1645362    0.1691195    0.2112419
:EIG00026:       0.3362280    0.3437123    0.3781805    0.3960872    0.3985157
:EIG00031:       0.4356988    0.4496342    0.5319783    0.5429325    0.6000503
:EIG00036:       0.7591585    0.8148417    0.8904484    0.9009712    0.9236234
:EIG00041:       1.2406419    1.2840968    1.3176709    1.3419853    1.3510781
:EIG00046:       1.3786041    1.4106734    1.4538133    1.4542750    1.4912314
 
:EIG00051:       1.5810986    1.5898430    1.6983368    1.7331447    1.8413417
       ********************************************************

:KPT   :      NUMBER OF K-POINTS:    84

------- case.scf2 --------
:GMA  : POTENTIAL AND CHARGE CUT-OFF  12.00 Ry**.5




:POS001: at.nr.  -1 position = 0.25000 0.75000 0.00000  multiplicity =  2

       lmmax  8
       lm=   0 0  2 0 -3 2  4 0  4 4 -5 2  6 0  6 4




:POS002: at.nr.  -2 position = 0.25000 0.75000 0.00000  multiplicity =  2

       lmmax 10
       lm=   0 0  1 0  2 0  3 0  4 0  4 4  5 0  5 4  6 0  6 4
:FER gutzwiller fermi energy   0.38921
:EORB          0.126991993
:SUM sum of gutz band energies       -101.663846239

:CHA001: total charge inside sphere   1 =    12.541756
:PCS001: partial charges sphere =  1 s,p,d,f,pz,pxy,,d-z2,d-xy,d-x2y2,d-xz,yz 
:QTL001: 0.2545 6.2305 6.0376 0.0156 2.0655 4.1650 0.0000 1.3611 1.2478 1.1725 2.2561 0.0000
:VZZ001: efg inside sphere   1 =     0.766519      up to r =   2.16000

:CHA002: total charge inside sphere   2 =    13.406209
:PCS002: partial charges sphere =  2 s,p,d,f,pz,pxy,,d-z2,d-xy,d-x2y2,d-xz,yz 
:QTL002: 1.3620 2.003510.0294 0.0094 0.6833 1.3202 0.0000 2.0057 2.0051 2.0052 4.0134 0.0000
:VZZ002: efg inside sphere   2 =    -4.529228      up to r =   2.05000

:CHA  : total charge inside unit cell =      60.000000

------- case.scfc --------

        1.ATOM      Fe                    5 CORE STATES
:1S 001: 1S                -512.205973414 Ry
:2S 001: 2S                 -59.138106093 Ry
:2PP001: 2P*                -50.940091600 Ry
:2P 001: 2P                 -50.024895809 Ry
:3S 001: 3S                  -5.920388320 Ry

        2.ATOM      Se                    7 CORE STATES
       CORE-FORCE in mRy/a.u. = |F|      Fx             Fy             Fz
:FCO002:   2.ATOM   1177.420169449779      0.000000000000      0.000000000000  -1177.420169449779

:1S 002: 1S                -916.461391326 Ry
:2S 002: 2S                -117.121504279 Ry
:2PP002: 2P*               -105.096677647 Ry
:2P 002: 2P                -102.033438862 Ry
:3S 002: 3S                 -14.853478208 Ry
:3PP002: 3P*                -10.740627316 Ry
:3P 002: 3P                 -10.308187562 Ry

------- case.scfm --------
:CINT001 Core Integral Atom   1   11.997167
:CINT002 Core Integral Atom   2   17.999411

       DENSITY AT NUCLEUS
        JATOM        VALENCE       SEMI-CORE          CORE           TOTAL
:RTO001:   1        5.625792        0.000000    14797.956108    14803.581901
:RTO002:   2       56.234911        0.000000    38924.702084    38980.936995
     
       CHARGES OF NEW CHARGE DENSITY
:NTO   : INTERSTITIAL CHARGE =     8.104184
:NPC   : PW Pseudocharge     =    13.605289
:NTO001: CHARGE SPHERE  1    =    24.538924
:NTO002: CHARGE SPHERE  2    =    31.405621

:NEC01: NUCLEAR AND ELECTRONIC CHARGE    120.00000   119.99327
     
       CHARGES OF OLD CHARGE DENSITY
:OTO   : INTERSTITIAL CHARGE =     8.111254
:OPC   : PW Pseudocharge     =    13.607163
:OTO001: CHARGE SPHERE  1    =    24.538443
:OTO002: CHARGE SPHERE  2    =    31.405930

:NEC02: NUCLEAR AND ELECTRONIC CHARGE    120.00000   120.00000
     
       CONVERGENCE TEST
:DTO001: DIFFERENCE IN SPHERE  1 =  0.0125329
:DTO002: DIFFERENCE IN SPHERE  2 =  0.0058988

:DIS  :  CHARGE DISTANCE       ( 0.0125329 for atom    1 spin 1)      0.0092158
 PW Mixed is          365
 
******************************************************
* MULTISECANT MIXING VER9 RELEASE 10.4.0              *
* Standard Mode with controls                        *
* Fixed density scale                                *
* Regularization       1.000E-04                     *
* Trust Upper Limit    5.000E+00                     *
* Max Number of Memory Steps    8                    *
******************************************************
 
:PWTMP   3.7368E+02  3.2249E+02  5.3028E+02
:PLANE:  PW TOTAL      3.6669 DISTAN   1.10E-02  2.99E-01 %
:CHARG:  CLM/ATOM    303.3374 DISTAN   1.47E-02  4.86E-03 %
 
Step History
        DMIX         DMIXT        Red     Pred      Trust     Lambda    MagRel    MagAbs     Beta
  1   3.5000E-02   3.5000E-02 -1.00E+00  1.00E+00 -1.00E+01  1.00E+00  3.50E-02  3.50E-02  1.00E+00
  2   2.5000E-02   2.5000E-02  9.12E-01  1.00E+00 -1.00E+01  1.00E+00  2.50E-02  4.11E-03  1.00E+00
  3   2.0000E-02   2.0000E-02  8.85E-01  9.14E-01  4.74E-01  3.60E-01  3.68E-01  5.52E-02  1.00E+00
  4   5.0000E-02   5.0000E-02  4.03E-01  5.24E-01  5.35E-01  1.50E+00  4.49E-01  5.96E-02  8.00E-01
  5   1.2500E-01   1.2500E-01 -1.00E+00  7.37E-01  7.14E-01  1.00E+00  5.29E-01  2.83E-02  1.00E+00
:JACOBIANS    9.984E-01   6.005E-01
  
:NORMS:  1/Froebius, Min, Max, Used   0.5911E+00  0.5220E+00  0.1003E+01  0.6223E+00
:INFO :  Number of Memory Steps    4 Skipping    0
:INFO :  SLambda=    0.3597562670  Max    0.3597562670
:PREDicted Charge, CTotal, PW Trust    5.239E-03   1.031E-02   1.743E-02
:PREDicted DMix, Beta, BLim   5.4473E-01  1.2333E+00  1.3040E+00

Eigenvalues, unscaled except for SY+YY
   #     SY Real        SY Imag          SS             YY         SY+YY Real      SY+YY Imag
   1   1.770956E+00   0.000000E+00   1.190087E+00   3.690417E+00   4.323457E+00   0.000000E+00
   2   2.754236E-01   0.000000E+00   2.043324E-01   2.993344E-01   4.023945E-01   0.000000E+00
   3   4.756621E-07   0.000000E+00   3.313503E-03   1.024062E-02   8.013643E-06   0.000000E+00
   4   5.816730E-03   0.000000E+00   2.841074E-08   7.869419E-06   1.243145E-02   0.000000E+00
 
:INFO :  Singular value  4.324E+00 Weight  1.000E+00 Projection  8.928E-04
:INFO :  Singular value  4.024E-01 Weight  1.000E+00 Projection -6.452E-03
:INFO :  Singular value  1.243E-02 Weight  9.991E-01 Projection -2.867E-01
:INFO :  Singular value  8.014E-06 Weight  4.713E-04 Projection -7.015E-04
:RANK :  ACTIVE   3.00/4  =  74.99 % ; YY RANK   3.00/4  =  74.98 %
 
:BLIM :  VZERO Control Off
:TRUST:  Step 9.57E-01  Charge 6.00E-02 (e) CTO  2.00E-01 (e) PW  2.80E-01 (e)
:DIRM :  MEMORY  4/8  SCALE   1.000 RED  0.59 PRED  0.74 NEXT  0.42 
:TRAVE:  Charge 3.49E-03 (e) CTO  5.52E-03 (e) PW  1.80E-02 (e)
:DIRP :  |MSR1|= 7.452E-03 |PRATT|= 1.096E-02 ANGLE=  18.5 DEGREES
:DIRQ :  |MSR1|= 1.838E-02 |PRATT|= 2.947E-02 ANGLE=   9.1 DEGREES
:DIRT :  |MSR1|= 1.983E-02 |PRATT|= 3.144E-02 ANGLE=  10.9 DEGREES
:MIX  :   MSD1   REGULARIZATION:  3.69E-04 GREED: 0.31250  Newton 1.00  0.6308                
     
       CHARGES OF MIXED CHARGE DENSITY
:CTO   : INTERSTITIAL CHARGE =     8.110438
:CPC   : PW Pseudocharge     =    13.614943
:CTO001: CHARGE SPHERE  1    =    24.538003
:CTO002: CHARGE SPHERE  2    =    31.406778

:NEC03: NUCLEAR AND ELECTRONIC CHARGE    120.00000   120.00000

PW CHANGE     H    K    L      Current       Change    Residue
:PTO001:      0    0    0  4.09696225E-02  1.313E-05  1.712E-05
:PTO002:      0    0   -1  1.59923733E-02  1.117E-05  6.169E-05
:PTO004:     -1    0   -1 -9.10183096E-02 -9.742E-05 -7.176E-05
:PTO005:      0    0   -2 -1.04152644E-02 -2.097E-05 -6.775E-06
:PTO006:     -1   -1    0 -2.12840360E-02 -4.683E-05 -3.128E-05
:PTO007:     -1   -1   -1  2.53048050E-02 -8.380E-05 -1.408E-04
:PTO008:     -1    0   -2  9.70472609E-03 -1.322E-04 -2.400E-04
:PTO009:     -1   -1   -2  2.73209667E-02  1.129E-04  1.408E-04
:PTO010:     -2    0    0 -1.30603490E-02 -2.536E-05 -1.843E-05
:PTO011:      0    0   -3  2.37774517E-03  5.614E-06  1.294E-06
:PTO012:     -2    0   -1  2.95022506E-03 -1.226E-04 -1.827E-04
:PTO014:     -1    0   -3  8.59781862E-03  6.872E-05  8.754E-05

:ENE  : ********** TOTAL ENERGY IN Ry =       -14790.26147266

       TOTAL FORCE IN mRy/a.u. = |F|     Fx             Fy             Fz     with/without FOR in case.in2
:FOR001:   1.ATOM          0.000          0.000          0.000          0.000 partial forces
:FOR002:   2.ATOM        214.604          0.000          0.000        214.604 partial forces
       TOTAL FORCE WITH RESPECT TO GLOBAL CARTESIAN COORDINATES:
:FCA001:   1.ATOM                         0.000          0.000          0.000 partial forces
:FCA002:   2.ATOM                         0.000          0.000        214.604 partial forces
       TOTAL FORCE WITH RESPECT TO THE GLOBAL COORDINATE SYSTEM:
:FGL001:   1.ATOM                 0.000000000     0.000000000     0.000000000 partial forces
:FGL002:   2.ATOM                 0.000000000     0.000000000   214.603576845 partial forces

------- case.scf0 --------
 Flat Integration
 New Mode for Coulomb Integral
 Consistent 3/8+Simpson combinations
 Extension of core to zero
 LDM version in phi
 Fifth-order quadrature in outwin


            ---------
:ITE015: 15. ITERATION
            ---------

:NATO :    2 INDEPENDENT AND    4 TOTAL ATOMS IN UNITCELL
       SUBSTANCE: FeSe                                                        

       LATTICE                      = P   
:POT  : POTENTIAL OPTION EX_LDA EC_LDA VX_LDA VC_LDA
:LAT  : LATTICE CONSTANTS=  7.12881  7.12881 10.43450    1.571    1.571    1.571
:VOL  : UNIT CELL VOLUME =     530.28024
       MODE OF CALCULATION IS       = RELA
       NON-SPINPOLARIZED CALCULATION
:IFFT  : FFT-parameters:   60   60   80 Factor: 2.00


   CONVERGENCE PARAMETER FOR PSEUDOCHARGE: NCON=  9
   MAXIMAL VALUE OF RMT(JATOM)*ABSK(NKK) : RK  =25.91023


:VKCOUL :  VK-COUL convergence: 0.336E-06
       ATOMNUMBER=  1 Fe         VCOUL-ZERO =  0.25325E+00
:EFG001:                        EFG         =     0.66990   *10**21  V / m**2
                               V20  TOT/SRF=     0.58015    -0.03078
                               V22  TOT/SRF=     0.00000     0.00000
                               V22M TOT/SRF=     0.00000     0.00000
                               V21  TOT/SRF=     0.00000     0.00000
                               V21M TOT/SRF=     0.00000     0.00000

             -0.33495    0.00000    0.00000       -0.33495    0.00000    0.00000
              0.00000   -0.33495    0.00000        0.00000   -0.33495    0.00000
              0.00000    0.00000    0.66990        0.00000    0.00000    0.66990

         MAIN DIRECTIONS OF THE EFG   1.0000  0.0000  0.0000
                                      0.0000  1.0000  0.0000
                                      0.0000  0.0000  1.0000
:ANG001:  ANGLE WITH OLD X-AXIS =         0.0

:ETA001:                         ASYMM. ETA =     0.00000


       ATOMNUMBER=  2 Se         VCOUL-ZERO =  0.67487E-01
:EFG002:                        EFG         =    -4.63837   *10**21  V / m**2
                               V20  TOT/SRF=    -4.01695     0.00516
                               V22  TOT/SRF=     0.00000     0.00000
                               V22M TOT/SRF=     0.00000     0.00000
                               V21  TOT/SRF=     0.00000     0.00000
                               V21M TOT/SRF=     0.00000     0.00000

              2.31919    0.00000    0.00000        2.31919    0.00000    0.00000
              0.00000    2.31919    0.00000        0.00000    2.31919    0.00000
              0.00000    0.00000   -4.63837        0.00000    0.00000   -4.63837

         MAIN DIRECTIONS OF THE EFG   1.0000  0.0000  0.0000
                                      0.0000  1.0000  0.0000
                                      0.0000  0.0000  1.0000
:ANG002:  ANGLE WITH OLD X-AXIS =         0.0

:ETA002:                         ASYMM. ETA =     0.00000


     HELLMANN-FEYNMAN-FORCE IN mRy/a.u. = |F|  Fx       Fy             Fz
:FHF001:   1.ATOM      0.000000000000      0.000000000000      0.000000000000      0.000000000000

     HELLMANN-FEYNMAN-FORCE IN mRy/a.u. = |F|  Fx       Fy             Fz
:FHF002:   2.ATOM   1247.069260347383      0.000000000000      0.000000000000   1247.069260347383

:FIT001: LUSE= 13 SIGMA OF V-XC FIT FOR ATOM  1  0.1585535E-02
:FIT001: LUSE= 13 SIGMA OF V-XC FIT FOR ATOM  1  0.1585535E-02
:FIT002: LUSE= 13 SIGMA OF V-XC FIT FOR ATOM  2  0.3099248E-03
:FIT002: LUSE= 13 SIGMA OF V-XC FIT FOR ATOM  2  0.3099248E-03
:DEN  : DENSITY INTEGRAL  =         -6219.68231417   (Ry)
       ELS_POTENTIAL_AT Z=0 and Z=0.5:  -0.71872   0.64135
       ELS_POTENTIAL_AT Y=0 and Y=0.5:   0.00000   0.00000
:VZERO:v0,v0c,v0x  -1.52980  -0.71872  -0.81109 v5,v5c,v5x   0.11761   0.64135  -0.52374
:VZERY:v0,v0c,v0x  -0.71453   0.00000  -0.71453 v5,v5c,v5x  -0.71453   0.00000  -0.71453
:VZERX:v0,v0c,v0x   0.09976   0.78557  -0.68581 v5,v5c,v5x   0.09976   0.78557  -0.68581

------- case.scf1 --------
:LMAX-WF:   10   Non-Spherical LMAX:   4

          ATOMIC SPHERE DEPENDENT PARAMETERS FOR ATOM  Fe        
:e__0001: OVERALL ENERGY PARAMETER IS    0.1874
          OVERALL BASIS SET ON ATOM IS LAPW
:E1_0001: E( 1)=    0.1874
             APW+lo
:E1_0001: E( 1)=   -3.4794   E(BOTTOM)=   -3.571   E(TOP)=   -3.388  1  2   149
             LOCAL ORBITAL
:E2_0001: E( 2)=    0.3081   E(BOTTOM)=   -0.049   E(TOP)=    0.665  0  1   139
             APW+lo
:E0_0001: E( 0)=    0.1874
             APW+lo

          ATOMIC SPHERE DEPENDENT PARAMETERS FOR ATOM  Se        
:e__0002: OVERALL ENERGY PARAMETER IS    0.1874
          OVERALL BASIS SET ON ATOM IS LAPW
:E2_0002: E( 2)=    0.1874
             APW+lo
:E2_0002: E( 2)=   -3.1632   E(BOTTOM)=   -3.207   E(TOP)=   -3.119  0  1   137
             LOCAL ORBITAL
:E0_0002: E( 0)=    0.5874
             APW+lo
:E0_0002: E( 0)=   -1.0200   E(BOTTOM)=   -1.628   E(TOP)= -200.000  3 -1   181
             LOCAL ORBITAL
:E1_0002: E( 1)=    0.1874
             APW+lo

       K=   0.04545   0.04545   0.07143            1
:RKM  : MATRIX SIZE   582LOs:  54  RKM= 7.97  WEIGHT= 8.00  PGR:    
       EIGENVALUES ARE:
:EIG00001:      -3.4668596   -3.4666356   -3.4579619   -3.4577382   -3.4552006
:EIG00006:      -3.4532421   -3.1534334   -3.1533209   -3.1529525   -3.1529073
:EIG00011:      -3.1523046   -3.1522907   -3.1522385   -3.1522354   -3.1515539
:EIG00016:      -3.1515300   -0.6672377   -0.5821166   -0.0316667    0.1087996
:EIG00021:       0.1197542    0.1240802    0.1645879    0.1691697    0.2111217
:EIG00026:       0.3353445    0.3428916    0.3774105    0.3952624    0.3980869
:EIG00031:       0.4350868    0.4491736    0.5314474    0.5422884    0.6001326
:EIG00036:       0.7591717    0.8145042    0.8904112    0.9009902    0.9234796
:EIG00041:       1.2399906    1.2841896    1.3175071    1.3417435    1.3509250
:EIG00046:       1.3787810    1.4105550    1.4535703    1.4542929    1.4911785
 
:EIG00051:       1.5808370    1.5895372    1.6981682    1.7330958    1.8413801
       ********************************************************

:KPT   :      NUMBER OF K-POINTS:    84

------- case.scf2 --------
:GMA  : POTENTIAL AND CHARGE CUT-OFF  12.00 Ry**.5




:POS001: at.nr.  -1 position = 0.25000 0.75000 0.00000  multiplicity =  2

       lmmax  8
       lm=   0 0  2 0 -3 2  4 0  4 4 -5 2  6 0  6 4




:POS002: at.nr.  -2 position = 0.25000 0.75000 0.00000  multiplicity =  2

       lmmax 10
       lm=   0 0  1 0  2 0  3 0  4 0  4 4  5 0  5 4  6 0  6 4
:FER gutzwiller fermi energy   0.38918
:EORB          0.118035964
:SUM sum of gutz band energies       -101.691841566

:CHA001: total charge inside sphere   1 =    12.542715
:PCS001: partial charges sphere =  1 s,p,d,f,pz,pxy,,d-z2,d-xy,d-x2y2,d-xz,yz 
:QTL001: 0.2545 6.2304 6.0387 0.0156 2.0656 4.1649 0.0000 1.3617 1.2457 1.1720 2.2593 0.0000
:VZZ001: efg inside sphere   1 =     0.591788      up to r =   2.16000

:CHA002: total charge inside sphere   2 =    13.406188
:PCS002: partial charges sphere =  2 s,p,d,f,pz,pxy,,d-z2,d-xy,d-x2y2,d-xz,yz 
:QTL002: 1.3619 2.003910.0292 0.0093 0.6835 1.3204 0.0000 2.0056 2.0051 2.0052 4.0133 0.0000
:VZZ002: efg inside sphere   2 =    -4.564897      up to r =   2.05000

:CHA  : total charge inside unit cell =      60.000000

------- case.scfc --------

        1.ATOM      Fe                    5 CORE STATES
:1S 001: 1S                -512.212288120 Ry
:2S 001: 2S                 -59.142254870 Ry
:2PP001: 2P*                -50.944566198 Ry
:2P 001: 2P                 -50.029341895 Ry
:3S 001: 3S                  -5.921484959 Ry

        2.ATOM      Se                    7 CORE STATES
       CORE-FORCE in mRy/a.u. = |F|      Fx             Fy             Fz
:FCO002:   2.ATOM   1083.015169188622      0.000000000000      0.000000000000  -1083.015169188622

:1S 002: 1S                -916.463881497 Ry
:2S 002: 2S                -117.123668913 Ry
:2PP002: 2P*               -105.098912148 Ry
:2P 002: 2P                -102.035663650 Ry
:3S 002: 3S                 -14.854445475 Ry
:3PP002: 3P*                -10.741587266 Ry
:3P 002: 3P                 -10.309120366 Ry

------- case.scfm --------
:CINT001 Core Integral Atom   1   11.997170
:CINT002 Core Integral Atom   2   17.999412

       DENSITY AT NUCLEUS
        JATOM        VALENCE       SEMI-CORE          CORE           TOTAL
:RTO001:   1        5.624256        0.000000    14798.028281    14803.652537
:RTO002:   2       56.226738        0.000000    38924.741665    38980.968404
     
       CHARGES OF NEW CHARGE DENSITY
:NTO   : INTERSTITIAL CHARGE =     8.102403
:NPC   : PW Pseudocharge     =    13.601474
:NTO001: CHARGE SPHERE  1    =    24.539885
:NTO002: CHARGE SPHERE  2    =    31.405600

:NEC01: NUCLEAR AND ELECTRONIC CHARGE    120.00000   119.99337
     
       CHARGES OF OLD CHARGE DENSITY
:OTO   : INTERSTITIAL CHARGE =     8.110438
:OPC   : PW Pseudocharge     =    13.614943
:OTO001: CHARGE SPHERE  1    =    24.538003
:OTO002: CHARGE SPHERE  2    =    31.406778

:NEC02: NUCLEAR AND ELECTRONIC CHARGE    120.00000   120.00000
     
       CONVERGENCE TEST
:DTO001: DIFFERENCE IN SPHERE  1 =  0.0031158
:DTO002: DIFFERENCE IN SPHERE  2 =  0.0008211

:DIS  :  CHARGE DISTANCE       ( 0.0031158 for atom    1 spin 1)      0.0019684
 PW Mixed is          365
 
******************************************************
* MULTISECANT MIXING VER9 RELEASE 10.4.0              *
* Standard Mode with controls                        *
* Fixed density scale                                *
* Regularization       1.000E-04                     *
* Trust Upper Limit    5.000E+00                     *
* Max Number of Memory Steps    8                    *
******************************************************
 
:PWTMP   3.7368E+02  3.2249E+02  5.3028E+02
:PLANE:  PW TOTAL      3.6692 DISTAN   2.31E-03  6.29E-02 %
:CHARG:  CLM/ATOM    303.3355 DISTAN   3.19E-03  1.05E-03 %
 
Step History
        DMIX         DMIXT        Red     Pred      Trust     Lambda    MagRel    MagAbs     Beta
  1   3.5000E-02   3.5000E-02 -1.00E+00  1.00E+00 -1.00E+01  1.00E+00  3.50E-02  3.50E-02  1.00E+00
  2   2.5000E-02   2.5000E-02  9.12E-01  1.00E+00 -1.00E+01  1.00E+00  2.50E-02  4.11E-03  1.00E+00
  3   2.0000E-02   2.0000E-02  8.85E-01  9.14E-01  4.74E-01  3.60E-01  3.68E-01  5.52E-02  1.00E+00
  4   5.0000E-02   5.0000E-02  4.03E-01  5.24E-01  5.35E-01  1.50E+00  4.49E-01  5.96E-02  8.00E-01
  5   1.2500E-01   1.2500E-01  5.87E-01  7.37E-01  7.14E-01  3.60E-01  5.29E-01  2.83E-02  1.00E+00
  6   3.1250E-01   3.1250E-01 -1.00E+00  4.21E-01  9.57E-01  1.00E+00  6.31E-01  1.98E-02  1.00E+00
:JACOBIANS    1.073E+00   9.118E-01
  
:NORMS:  1/Froebius, Min, Max, Used   0.6565E+00  0.5049E+00  0.1001E+01  0.6893E+00
:INFO :  Number of Memory Steps    5 Skipping    0
:INFO :  SLambda=    1.0000000000  Max    1.0000000000
:PREDicted Charge, CTotal, PW Trust    1.798E-03   1.836E-03   1.739E-03
:PREDicted DMix, Beta, BLim   2.8044E-01  1.0075E+00  1.3557E+00

Eigenvalues, unscaled except for SY+YY
   #     SY Real        SY Imag          SS             YY         SY+YY Real      SY+YY Imag
   1   2.211521E+00   0.000000E+00   1.685697E+00   3.547327E+00   5.710621E+00   0.000000E+00
   2   5.318436E-01   0.000000E+00   2.991807E-01   1.202351E+00   1.782149E+00   0.000000E+00
   3   2.487509E-01   0.000000E+00   1.698560E-01   2.491669E-01   4.981961E-01   0.000000E+00
   4   3.881474E-07   0.000000E+00   1.095322E-04   1.149310E-03   5.904573E-06   0.000000E+00
   5   3.334956E-04   0.000000E+00   2.650312E-08   5.299985E-06   1.477194E-03   0.000000E+00
 
:INFO :  Singular value  5.713E+00 Weight  1.000E+00 Projection  2.235E-03
:INFO :  Singular value  1.782E+00 Weight  1.000E+00 Projection  4.316E-04
:INFO :  Singular value  4.979E-01 Weight  1.000E+00 Projection  2.249E-03
:INFO :  Singular value  1.477E-03 Weight  9.455E-01 Projection -2.863E-03
[...]
  6   3.1250E-01   3.1250E-01  2.16E-01  4.21E-01  9.57E-01  1.00E+00  6.31E-01  1.98E-02  1.00E+00
  7   2.3866E-01   2.3866E-01  6.78E-01  8.01E-01  1.28E+00  1.50E+00  5.19E-01  3.52E-03  1.00E+00
  8   2.6538E-01   2.6538E-01 -1.00E+00  2.92E-01  1.70E+00  1.00E+00  5.28E-01  2.43E-03  9.34E-01
:JACOBIANS    1.156E+00   1.489E+00
  
:NORMS:  1/Froebius, Min, Max, Used   0.6641E+00  0.5181E+00  0.1001E+01  0.7038E+00
:INFO :  Number of Memory Steps    7 Skipping    0
:INFO :  SLambda=    1.0254441126  Max    1.0254441126
:PREDicted Charge, CTotal, PW Trust    2.597E-04   9.003E-04   1.981E-03
:PREDicted DMix, Beta, BLim   2.0018E-01  1.1270E+00  4.4554E+00

Eigenvalues, unscaled except for SY+YY
   #     SY Real        SY Imag          SS             YY         SY+YY Real      SY+YY Imag
   1   2.642410E+00   0.000000E+00   2.116348E+00   4.272505E+00   6.874250E+00   0.000000E+00
   2   9.055913E-01   0.000000E+00   6.675991E-01   1.548239E+00   2.568944E+00   0.000000E+00
   3   3.000112E-01   0.000000E+00   1.795480E-01   5.738355E-01   8.517805E-01   0.000000E+00
   4   2.433997E-01   0.000000E+00   1.136650E-01   4.599822E-01   7.208637E-01   0.000000E+00
   5   4.889870E-02   0.000000E+00   1.048873E-02   1.454281E-01   2.298096E-01   0.000000E+00
   6   1.159412E-07   0.000000E+00   4.133317E-06   8.028610E-06   2.111073E-06   0.000000E+00
   7   4.671385E-06   0.000000E+00   6.732355E-09   2.037696E-06   1.313476E-05   0.000000E+00
 
:INFO :  Singular value  6.881E+00 Weight  1.000E+00 Projection  2.049E-05
:INFO :  Singular value  2.580E+00 Weight  1.000E+00 Projection -4.311E-04
:INFO :  Singular value  8.642E-01 Weight  1.000E+00 Projection -7.222E-04
:INFO :  Singular value  7.099E-01 Weight  1.000E+00 Projection  2.511E-04
:INFO :  Singular value  2.288E-01 Weight  1.000E+00 Projection  1.187E-03
:INFO :  Singular value  1.323E-05 Weight  9.572E-04 Projection  2.303E-04
:INFO :  Singular value  2.097E-06 Weight  2.408E-05 Projection  2.005E-06
:RANK :  ACTIVE   5.00/7  =  71.44 % ; YY RANK   5.00/7  =  71.43 %
 
:BLIM :  VZERO Control Off
:TRUST:  Step 2.91E+00  Charge 3.07E-02 (e) CTO  1.02E-01 (e) PW  1.43E-01 (e)
:DIRM :  MEMORY  7/8  SCALE   1.000 RED  0.25 PRED  0.29 NEXT  0.70 
:TRAVE:  Charge 5.93E-04 (e) CTO  1.10E-03 (e) PW  3.13E-03 (e)
:DIRP :  |MSR1|= 1.944E-04 |PRATT|= 4.273E-04 ANGLE=  21.6 DEGREES
:DIRQ :  |MSR1|= 5.319E-04 |PRATT|= 1.086E-03 ANGLE=  22.8 DEGREES
:DIRT :  |MSR1|= 5.664E-04 |PRATT|= 1.167E-03 ANGLE=  22.7 DEGREES
:MIX  :   MSE1   REGULARIZATION:  4.27E-04 GREED: 0.22088  Newton 1.00  0.4852                
     
       CHARGES OF MIXED CHARGE DENSITY
:CTO   : INTERSTITIAL CHARGE =     8.110592
:CPC   : PW Pseudocharge     =    13.614915
:CTO001: CHARGE SPHERE  1    =    24.538150
:CTO002: CHARGE SPHERE  2    =    31.406553

:NEC03: NUCLEAR AND ELECTRONIC CHARGE    120.00000   120.00000

PW CHANGE     H    K    L      Current       Change    Residue
:PTO001:      0    0    0  4.09698592E-02  1.058E-06  3.222E-06
:PTO002:      0    0   -1  1.59943498E-02  1.450E-07  1.828E-06
:PTO004:     -1    0   -1 -9.09999900E-02 -7.809E-07 -2.528E-06
:PTO005:      0    0   -2 -1.04094764E-02  3.899E-08  2.789E-07
:PTO006:     -1   -1    0 -2.12746428E-02 -8.973E-07 -2.769E-06
:PTO007:     -1   -1   -1  2.52993877E-02  4.342E-07  1.899E-06
:PTO008:     -1    0   -2  9.67970162E-03 -6.151E-07  5.276E-07
:PTO009:     -1   -1   -2  2.73347469E-02  2.741E-06  5.149E-06
:PTO010:     -2    0    0 -1.30597898E-02 -4.609E-07 -5.996E-07
:PTO011:      0    0   -3  2.38260220E-03  1.101E-06  2.509E-06
:PTO012:     -2    0   -1  2.91133464E-03 -3.453E-06 -4.627E-06
:PTO014:     -1    0   -3  8.59913010E-03  5.144E-07  3.849E-07

:ENE  : ********** TOTAL ENERGY IN Ry =       -14790.26151419

       TOTAL FORCE IN mRy/a.u. = |F|     Fx             Fy             Fz     with/without FOR in case.in2
:FOR001:   1.ATOM          0.000          0.000          0.000          0.000 partial forces
:FOR002:   2.ATOM        160.859          0.000          0.000        160.859 partial forces
       TOTAL FORCE WITH RESPECT TO GLOBAL CARTESIAN COORDINATES:
:FCA001:   1.ATOM                         0.000          0.000          0.000 partial forces
:FCA002:   2.ATOM                         0.000          0.000        160.859 partial forces
       TOTAL FORCE WITH RESPECT TO THE GLOBAL COORDINATE SYSTEM:
:FGL001:   1.ATOM                 0.000000000     0.000000000     0.000000000 partial forces
:FGL002:   2.ATOM                 0.000000000     0.000000000   160.858672442 partial forces

------- case.scf0 --------
 Flat Integration
 New Mode for Coulomb Integral
 Consistent 3/8+Simpson combinations
 Extension of core to zero
 LDM version in phi
 Fifth-order quadrature in outwin


            ---------
:ITE018: 18. ITERATION
            ---------

:NATO :    2 INDEPENDENT AND    4 TOTAL ATOMS IN UNITCELL
       SUBSTANCE: FeSe                                                        

       LATTICE                      = P   
:POT  : POTENTIAL OPTION EX_LDA EC_LDA VX_LDA VC_LDA
:LAT  : LATTICE CONSTANTS=  7.12881  7.12881 10.43450    1.571    1.571    1.571
:VOL  : UNIT CELL VOLUME =     530.28024
       MODE OF CALCULATION IS       = RELA
       NON-SPINPOLARIZED CALCULATION
:IFFT  : FFT-parameters:   60   60   80 Factor: 2.00


   CONVERGENCE PARAMETER FOR PSEUDOCHARGE: NCON=  9
   MAXIMAL VALUE OF RMT(JATOM)*ABSK(NKK) : RK  =25.91023


:VKCOUL :  VK-COUL convergence: 0.336E-06
       ATOMNUMBER=  1 Fe         VCOUL-ZERO =  0.25303E+00
:EFG001:                        EFG         =     0.57763   *10**21  V / m**2
                               V20  TOT/SRF=     0.50024    -0.03084
                               V22  TOT/SRF=     0.00000     0.00000
                               V22M TOT/SRF=     0.00000     0.00000
                               V21  TOT/SRF=     0.00000     0.00000
                               V21M TOT/SRF=     0.00000     0.00000

             -0.28881    0.00000    0.00000       -0.28881    0.00000    0.00000
              0.00000   -0.28881    0.00000        0.00000   -0.28881    0.00000
              0.00000    0.00000    0.57763        0.00000    0.00000    0.57763

         MAIN DIRECTIONS OF THE EFG   1.0000  0.0000  0.0000
                                      0.0000  1.0000  0.0000
                                      0.0000  0.0000  1.0000
:ANG001:  ANGLE WITH OLD X-AXIS =         0.0

:ETA001:                         ASYMM. ETA =     0.00000


       ATOMNUMBER=  2 Se         VCOUL-ZERO =  0.67417E-01
:EFG002:                        EFG         =    -4.55586   *10**21  V / m**2
                               V20  TOT/SRF=    -3.94549     0.00525
                               V22  TOT/SRF=     0.00000     0.00000
                               V22M TOT/SRF=     0.00000     0.00000
                               V21  TOT/SRF=     0.00000     0.00000
                               V21M TOT/SRF=     0.00000     0.00000

              2.27793    0.00000    0.00000        2.27793    0.00000    0.00000
              0.00000    2.27793    0.00000        0.00000    2.27793    0.00000
              0.00000    0.00000   -4.55586        0.00000    0.00000   -4.55586

         MAIN DIRECTIONS OF THE EFG   1.0000  0.0000  0.0000
                                      0.0000  1.0000  0.0000
                                      0.0000  0.0000  1.0000
:ANG002:  ANGLE WITH OLD X-AXIS =         0.0

:ETA002:                         ASYMM. ETA =     0.00000


     HELLMANN-FEYNMAN-FORCE IN mRy/a.u. = |F|  Fx       Fy             Fz
:FHF001:   1.ATOM      0.000000000000      0.000000000000      0.000000000000      0.000000000000

     HELLMANN-FEYNMAN-FORCE IN mRy/a.u. = |F|  Fx       Fy             Fz
:FHF002:   2.ATOM   1235.487807170191      0.000000000000      0.000000000000   1235.487807170191

:FIT001: LUSE= 13 SIGMA OF V-XC FIT FOR ATOM  1  0.1578970E-02
:FIT001: LUSE= 13 SIGMA OF V-XC FIT FOR ATOM  1  0.1578970E-02
:FIT002: LUSE= 13 SIGMA OF V-XC FIT FOR ATOM  2  0.3073112E-03
:FIT002: LUSE= 13 SIGMA OF V-XC FIT FOR ATOM  2  0.3073112E-03
:DEN  : DENSITY INTEGRAL  =         -6219.67790139   (Ry)
       ELS_POTENTIAL_AT Z=0 and Z=0.5:  -0.71883   0.64151
       ELS_POTENTIAL_AT Y=0 and Y=0.5:   0.00000   0.00000
:VZERO:v0,v0c,v0x  -1.52999  -0.71883  -0.81116 v5,v5c,v5x   0.11769   0.64151  -0.52382
:VZERY:v0,v0c,v0x  -0.71457   0.00000  -0.71457 v5,v5c,v5x  -0.71457   0.00000  -0.71457
:VZERX:v0,v0c,v0x   0.09973   0.78557  -0.68584 v5,v5c,v5x   0.09973   0.78557  -0.68584

------- case.scf1 --------
:LMAX-WF:   10   Non-Spherical LMAX:   4

          ATOMIC SPHERE DEPENDENT PARAMETERS FOR ATOM  Fe        
:e__0001: OVERALL ENERGY PARAMETER IS    0.1874
          OVERALL BASIS SET ON ATOM IS LAPW
:E1_0001: E( 1)=    0.1874
             APW+lo
:E1_0001: E( 1)=   -3.4792   E(BOTTOM)=   -3.570   E(TOP)=   -3.388  1  2   143
             LOCAL ORBITAL
:E2_0001: E( 2)=    0.3082   E(BOTTOM)=   -0.049   E(TOP)=    0.665  0  1   136
             APW+lo
:E0_0001: E( 0)=    0.1874
             APW+lo

          ATOMIC SPHERE DEPENDENT PARAMETERS FOR ATOM  Se        
:e__0002: OVERALL ENERGY PARAMETER IS    0.1874
          OVERALL BASIS SET ON ATOM IS LAPW
:E2_0002: E( 2)=    0.1874
             APW+lo
:E2_0002: E( 2)=   -3.1634   E(BOTTOM)=   -3.207   E(TOP)=   -3.120  0  1   136
             LOCAL ORBITAL
:E0_0002: E( 0)=    0.5874
             APW+lo
:E0_0002: E( 0)=   -1.0200   E(BOTTOM)=   -1.628   E(TOP)= -200.000  3 -1   183
             LOCAL ORBITAL
:E1_0002: E( 1)=    0.1874
             APW+lo

       K=   0.04545   0.04545   0.07143            1
:RKM  : MATRIX SIZE   582LOs:  54  RKM= 7.97  WEIGHT= 8.00  PGR:    
       EIGENVALUES ARE:
:EIG00001:      -3.4666698   -3.4664459   -3.4577703   -3.4575466   -3.4549350
:EIG00006:      -3.4529760   -3.1536629   -3.1535502   -3.1531779   -3.1531327
:EIG00011:      -3.1525515   -3.1525377   -3.1524856   -3.1524825   -3.1518063
:EIG00016:      -3.1517823   -0.6673336   -0.5822238   -0.0317146    0.1087915
:EIG00021:       0.1197603    0.1240871    0.1645354    0.1691158    0.2112245
:EIG00026:       0.3354934    0.3430649    0.3774922    0.3954049    0.3982111
:EIG00031:       0.4350947    0.4493410    0.5314931    0.5423395    0.6001083
:EIG00036:       0.7592165    0.8145596    0.8903790    0.9009517    0.9234794
:EIG00041:       1.2399542    1.2841779    1.3175038    1.3417687    1.3508939
:EIG00046:       1.3787587    1.4105494    1.4535719    1.4542766    1.4911369
 
:EIG00051:       1.5808106    1.5895079    1.6981637    1.7330832    1.8413282
       ********************************************************

:KPT   :      NUMBER OF K-POINTS:    84

------- case.scf2 --------
:GMA  : POTENTIAL AND CHARGE CUT-OFF  12.00 Ry**.5




:POS001: at.nr.  -1 position = 0.25000 0.75000 0.00000  multiplicity =  2

       lmmax  8
       lm=   0 0  2 0 -3 2  4 0  4 4 -5 2  6 0  6 4




:POS002: at.nr.  -2 position = 0.25000 0.75000 0.00000  multiplicity =  2

       lmmax 10
       lm=   0 0  1 0  2 0  3 0  4 0  4 4  5 0  5 4  6 0  6 4
:FER gutzwiller fermi energy   0.38941
:EORB          0.116469260
:SUM sum of gutz band energies       -101.691854937

:CHA001: total charge inside sphere   1 =    12.540704
:PCS001: partial charges sphere =  1 s,p,d,f,pz,pxy,,d-z2,d-xy,d-x2y2,d-xz,yz 
:QTL001: 0.2545 6.2305 6.0366 0.0156 2.0656 4.1649 0.0000 1.3612 1.2455 1.1717 2.2582 0.0000
:VZZ001: efg inside sphere   1 =     0.613280      up to r =   2.16000

:CHA002: total charge inside sphere   2 =    13.407240
:PCS002: partial charges sphere =  2 s,p,d,f,pz,pxy,,d-z2,d-xy,d-x2y2,d-xz,yz 
:QTL002: 1.3619 2.004810.0292 0.0093 0.6839 1.3210 0.0000 2.0056 2.0051 2.0053 4.0133 0.0000
:VZZ002: efg inside sphere   2 =    -4.576320      up to r =   2.05000

:CHA  : total charge inside unit cell =      60.000000

------- case.scfc --------

        1.ATOM      Fe                    5 CORE STATES
:1S 001: 1S                -512.212289062 Ry
:2S 001: 2S                 -59.142077903 Ry
:2PP001: 2P*                -50.944415368 Ry
:2P 001: 2P                 -50.029188938 Ry
:3S 001: 3S                  -5.921252148 Ry

        2.ATOM      Se                    7 CORE STATES
       CORE-FORCE in mRy/a.u. = |F|      Fx             Fy             Fz
:FCO002:   2.ATOM   1073.844754575112      0.000000000000      0.000000000000  -1073.844754575112

:1S 002: 1S                -916.463957740 Ry
:2S 002: 2S                -117.123803040 Ry
:2PP002: 2P*               -105.099033851 Ry
:2P 002: 2P                -102.035787007 Ry
:3S 002: 3S                 -14.854697638 Ry
:3PP002: 3P*                -10.741836578 Ry
:3P 002: 3P                 -10.309370383 Ry

------- case.scfm --------
:CINT001 Core Integral Atom   1   11.997170
:CINT002 Core Integral Atom   2   17.999412

       DENSITY AT NUCLEUS
        JATOM        VALENCE       SEMI-CORE          CORE           TOTAL
:RTO001:   1        5.624750        0.000000    14798.028873    14803.653622
:RTO002:   2       56.230908        0.000000    38924.738843    38980.969751
     
       CHARGES OF NEW CHARGE DENSITY
:NTO   : INTERSTITIAL CHARGE =     8.104208
:NPC   : PW Pseudocharge     =    13.603832
:NTO001: CHARGE SPHERE  1    =    24.537873
:NTO002: CHARGE SPHERE  2    =    31.406651

:NEC01: NUCLEAR AND ELECTRONIC CHARGE    120.00000   119.99326
     
       CHARGES OF OLD CHARGE DENSITY
:OTO   : INTERSTITIAL CHARGE =     8.110592
:OPC   : PW Pseudocharge     =    13.614915
:OTO001: CHARGE SPHERE  1    =    24.538150
:OTO002: CHARGE SPHERE  2    =    31.406553

:NEC02: NUCLEAR AND ELECTRONIC CHARGE    120.00000   120.00000
     
       CONVERGENCE TEST
:DTO001: DIFFERENCE IN SPHERE  1 =  0.0003701
:DTO002: DIFFERENCE IN SPHERE  2 =  0.0001053

:DIS  :  CHARGE DISTANCE       ( 0.0003701 for atom    1 spin 1)      0.0002377
 PW Mixed is          365
 
******************************************************
* MULTISECANT MIXING VER9 RELEASE 10.4.0              *
* Standard Mode with controls                        *
* Fixed density scale                                *
* Regularization       1.000E-04                     *
* Trust Upper Limit    5.000E+00                     *
* Max Number of Memory Steps    8                    *
******************************************************
 
:PWTMP   3.7368E+02  3.2249E+02  5.3028E+02
:PLANE:  PW TOTAL      3.6689 DISTAN   2.26E-04  6.15E-03 %
:CHARG:  CLM/ATOM    303.3355 DISTAN   3.25E-04  1.07E-04 %
 
Step History
        DMIX         DMIXT        Red     Pred      Trust     Lambda    MagRel    MagAbs     Beta
  1   3.5000E-02   3.5000E-02 -1.00E+00  1.00E+00 -1.00E+01  1.00E+00  3.50E-02  3.50E-02  1.00E+00
  2   2.5000E-02   2.5000E-02  9.12E-01  1.00E+00 -1.00E+01  1.00E+00  2.50E-02  4.11E-03  1.00E+00
  3   2.0000E-02   2.0000E-02  8.85E-01  9.14E-01  4.74E-01  3.60E-01  3.68E-01  5.52E-02  1.00E+00
  4   5.0000E-02   5.0000E-02  4.03E-01  5.24E-01  5.35E-01  1.50E+00  4.49E-01  5.96E-02  8.00E-01
  5   1.2500E-01   1.2500E-01  5.87E-01  7.37E-01  7.14E-01  3.60E-01  5.29E-01  2.83E-02  1.00E+00
  6   3.1250E-01   3.1250E-01  2.16E-01  4.21E-01  9.57E-01  1.00E+00  6.31E-01  1.98E-02  1.00E+00
  7   2.3866E-01   2.3866E-01  6.78E-01  8.01E-01  1.28E+00  1.50E+00  5.19E-01  3.52E-03  1.00E+00
  8   2.6538E-01   2.6538E-01  2.54E-01  2.92E-01  1.70E+00  1.03E+00  5.28E-01  2.43E-03  9.34E-01
  9   2.2088E-01   2.2088E-01 -1.00E+00  7.04E-01  2.91E+00  1.00E+00  4.85E-01  5.66E-04  1.00E+00
:JACOBIANS    1.259E+00   1.868E+00
  
:NORMS:  1/Froebius, Min, Max, Used   0.6945E+00  0.4874E+00  0.1001E+01  0.7613E+00
:INFO :  Number of Memory Steps    8 Skipping    0
:INFO :  SLambda=    0.9025757629  Max    0.9025757629
:PREDicted Charge, CTotal, PW Trust    3.329E-04   5.451E-04   6.920E-04
:PREDicted DMix, Beta, BLim   6.1521E-01  1.5534E+00  4.7846E+00

Eigenvalues, unscaled except for SY+YY
   #     SY Real        SY Imag          SS             YY         SY+YY Real      SY+YY Imag
   1   2.805720E+00   0.000000E+00   2.434517E+00   4.200612E+00   6.555675E+00   0.000000E+00
   2   1.364242E+00   0.000000E+00   9.695669E-01   2.149479E+00   3.547165E+00   0.000000E+00
   3   4.533183E-01   0.000000E+00   2.549110E-01   9.783321E-01   1.403607E+00   0.000000E+00
   4   2.701241E-01   0.000000E+00   1.665604E-01   4.561573E-01   6.466994E-01   0.000000E+00
   5   7.940566E-02   0.000000E+00   2.805278E-02   1.796016E-01   2.966900E-01   0.000000E+00
   6   1.431885E-02   0.000000E+00   5.116896E-03   3.581217E-02   5.142018E-02   0.000000E+00
   7   1.150923E-07   0.000000E+00   4.100040E-07   3.601625E-06   2.065053E-06   0.000000E+00
   8   1.114810E-06   0.000000E+00   6.639220E-09   2.007095E-06   4.531623E-06   0.000000E+00
 
:INFO :  Singular value  6.560E+00 Weight  1.000E+00 Projection  7.037E-06
:INFO :  Singular value  3.561E+00 Weight  1.000E+00 Projection -1.632E-04
:INFO :  Singular value  1.403E+00 Weight  1.000E+00 Projection -1.541E-04
:INFO :  Singular value  6.485E-01 Weight  1.000E+00 Projection  2.620E-04
:INFO :  Singular value  2.953E-01 Weight  1.000E+00 Projection -8.166E-04
:INFO :  Singular value  5.130E-02 Weight  9.999E-01 Projection -2.191E-03
:INFO :  Singular value  4.532E-06 Weight  1.164E-04 Projection  3.963E-06
:INFO :  Singular value  2.065E-06 Weight  2.417E-05 Projection -2.037E-06
:RANK :  ACTIVE   6.00/8  =  75.00 % ; YY RANK   6.00/8  =  75.00 %
 
:BLIM :  VZERO Control Off
:TRUST:  Step 3.88E+00  Charge 2.46E-02 (e) CTO  8.19E-02 (e) PW  1.15E-01 (e)
:DIRM :  MEMORY  8/8  SCALE   1.000 RED  0.59 PRED  0.70 NEXT  0.59 
:TRAVE:  Charge 3.89E-04 (e) CTO  6.30E-04 (e) PW  1.58E-03 (e)
:DIRP :  |MSR1|= 2.190E-04 |PRATT|= 2.258E-04 ANGLE=  53.1 DEGREES
:DIRQ :  |MSR1|= 5.011E-04 |PRATT|= 6.496E-04 ANGLE=  18.5 DEGREES
:DIRT :  |MSR1|= 5.469E-04 |PRATT|= 6.877E-04 ANGLE=  25.9 DEGREES
:MIX  :   MSD1   REGULARIZATION:  4.20E-04 GREED: 0.35000  Newton 1.00  0.7952                
     
       CHARGES OF MIXED CHARGE DENSITY
:CTO   : INTERSTITIAL CHARGE =     8.110754
:CPC   : PW Pseudocharge     =    13.614705
:CTO001: CHARGE SPHERE  1    =    24.537966
:CTO002: CHARGE SPHERE  2    =    31.406657

:NEC03: NUCLEAR AND ELECTRONIC CHARGE    120.00000   120.00000

PW CHANGE     H    K    L      Current       Change    Residue
:PTO001:      0    0    0  4.09697678E-02 -9.131E-08  1.122E-06
:PTO002:      0    0   -1  1.59953676E-02  1.018E-06  1.463E-06
:PTO004:     -1    0   -1 -9.09954706E-02  4.519E-06  8.954E-10
:PTO005:      0    0   -2 -1.04083018E-02  1.175E-06  1.697E-07
:PTO006:     -1   -1    0 -2.12744253E-02  2.175E-07 -2.560E-06
:PTO007:     -1   -1   -1  2.52986276E-02 -7.600E-07 -8.672E-07
:PTO008:     -1    0   -2  9.67899530E-03 -7.063E-07  2.297E-07
:PTO009:     -1   -1   -2  2.73339467E-02 -8.003E-07  1.476E-06
:PTO010:     -2    0    0 -1.30582016E-02  1.588E-06  7.120E-07
:PTO011:      0    0   -3  2.38342915E-03  8.269E-07  1.215E-06
:PTO012:     -2    0   -1  2.91001862E-03 -1.316E-06 -6.412E-07
:PTO014:     -1    0   -3  8.59741082E-03 -1.719E-06 -3.075E-07

:ENE  : ********** TOTAL ENERGY IN Ry =       -14790.26151100

       TOTAL FORCE IN mRy/a.u. = |F|     Fx             Fy             Fz     with/without FOR in case.in2
:FOR001:   1.ATOM          0.000          0.000          0.000          0.000 partial forces
:FOR002:   2.ATOM        161.643          0.000          0.000        161.643 partial forces
       TOTAL FORCE WITH RESPECT TO GLOBAL CARTESIAN COORDINATES:
:FCA001:   1.ATOM                         0.000          0.000          0.000 partial forces
:FCA002:   2.ATOM                         0.000          0.000        161.643 partial forces
       TOTAL FORCE WITH RESPECT TO THE GLOBAL COORDINATE SYSTEM:
:FGL001:   1.ATOM                 0.000000000     0.000000000     0.000000000 partial forces
:FGL002:   2.ATOM                 0.000000000     0.000000000   161.643052595 partial forces
