
------- case.scf0 --------
 Flat Integration
 New Mode for Coulomb Integral
 Consistent 3/8+Simpson combinations
 Extension of core to zero
 LDM version in phi
 Fifth-order quadrature in outwin


            ---------
:ITE024: 24. ITERATION
            ---------

:NATO :    1 INDEPENDENT AND    1 TOTAL ATOMS IN UNITCELL
       SUBSTANCE: blebleble                                                   

       LATTICE                      = F   
:POT  : POTENTIAL OPTION EX_LDA EC_LDA VX_LDA VC_LDA
:LAT  : LATTICE CONSTANTS= 10.11927 10.11927 10.11927    1.571    1.571    1.571
:VOL  : UNIT CELL VOLUME =     259.05267
       MODE OF CALCULATION IS       = RELA
       NON-SPINPOLARIZED CALCULATION
:IFFT  : FFT-parameters:   80   80   80 Factor: 2.00


   CONVERGENCE PARAMETER FOR PSEUDOCHARGE: NCON=  9
   MAXIMAL VALUE OF RMT(JATOM)*ABSK(NKK) : RK  =29.93932


:VKCOUL :  VK-COUL convergence: 0.195E-06
       ATOMNUMBER=  1 Pr         VCOUL-ZERO =  0.18131E+00
:FIT001: LUSE= 13 SIGMA OF V-XC FIT FOR ATOM  1  0.4005065E-04
:FIT001: LUSE= 13 SIGMA OF V-XC FIT FOR ATOM  1  0.4005065E-04
:DEN  : DENSITY INTEGRAL  =         -7068.78727666   (Ry)
       ELS_POTENTIAL_AT Z=0 and Z=0.5:  -2.42235  -2.42235
       ELS_POTENTIAL_AT Y=0 and Y=0.5:   0.00000   0.00000
:VZERO:v0,v0c,v0x  -3.37706  -2.42235  -0.95472 v5,v5c,v5x  -3.37706  -2.42235  -0.95472
:VZERY:v0,v0c,v0x  -0.69034   0.00000  -0.69034 v5,v5c,v5x  -0.69034   0.00000  -0.69034
:VZERX:v0,v0c,v0x  -0.69034   0.00000  -0.69034 v5,v5c,v5x  -0.69034   0.00000  -0.69034

------- case.scf1 --------
:LMAX-WF:   10   Non-Spherical LMAX:   4

          ATOMIC SPHERE DEPENDENT PARAMETERS FOR ATOM  Pr        
:e__0001: OVERALL ENERGY PARAMETER IS    0.3274
          OVERALL BASIS SET ON ATOM IS LAPW
:E0_0001: E( 0)=    0.3274
             APW+lo
:E0_0001: E( 0)=   -2.1517   E(BOTTOM)=   -2.533   E(TOP)=   -1.770  4  5   164
             LOCAL ORBITAL
:E1_0001: E( 1)=    0.7274
             APW+lo
:E1_0001: E( 1)=   -0.7643   E(BOTTOM)=   -1.411   E(TOP)=   -0.117  3  4   165
             LOCAL ORBITAL
:E3_0001: E( 3)=    0.5239   E(BOTTOM)=    0.381   E(TOP)=    0.667  0  1   123
             APW+lo
:E2_0001: E( 2)=    0.3274   E(BOTTOM)=    0.164   E(TOP)= -200.000  2 -1    93
             APW+lo

       K=   0.00000   0.00000   0.00000            1
:RKM  : MATRIX SIZE   189LOs:  20  RKM= 8.07  WEIGHT= 1.00  PGR:    
       EIGENVALUES ARE:
:EIG00001:      -2.1100906   -0.7500452   -0.7500452   -0.7500452    0.2758063
:EIG00006:       0.5242484    0.5400116    0.5400116    0.5400116    0.5620723
:EIG00011:       0.5620723    0.5620723    0.6546481    0.6546481    0.6546481
:EIG00016:       0.8134473    0.8134473    1.2103547    1.4254212    1.4254212
:EIG00021:       1.4254212    1.5303960    2.1569540    2.1569540    2.1569540
:EIG00026:       2.2237555    2.2237555    2.2237555    2.4411898    2.4411898
:EIG00031:       2.7758105    2.9434232    2.9434232    2.9434232    3.3665582
:EIG00036:       3.3665582    3.5971654    3.5971654    3.5971654    3.6389992
:EIG00041:       3.6389992    3.6389992    3.7805693    3.7805693    3.7805693
:EIG00046:       4.0301105    4.0496202    4.0496202    4.0496202    4.1482594
 
:EIG00051:       4.1482594    4.1919080    4.1919080    4.1919080    4.2184854
:EIG00056:       4.2184854    4.2184854    4.3258767    4.3518071    4.4809388
:EIG00061:       4.4809388    4.4809388    4.5738304    4.5738304    4.5738304
:EIG00066:       4.7916549    5.8009442    5.8009442    5.8037419    6.1091688
:EIG00071:       6.1091688    6.1091688    6.5520573    6.5520573    6.7275099
:EIG00076:       6.7275099    6.7275099    6.7850991    6.7850991    6.7850991
:EIG00081:       7.0728222    7.0728222    7.0728222    7.1035486    7.1035486
:EIG00086:       7.1128585    7.1128585    7.1128585    7.1770105    7.1770105
:EIG00091:       7.1770105    7.2755452    7.2755452    7.2755452    7.2820231
:EIG00096:       7.2820231    7.2820231    7.3602251    7.4368047    7.5128295
 
:EIG00101:       7.5128295    7.5510555    7.5510555    7.5510555    7.5695109
:EIG00106:       7.5695109    7.5695109    7.5880178    7.5880178    7.5880178
:EIG00111:       7.6719208    7.6719208    7.9409631    7.9988646
       ********************************************************

:KPT   :      NUMBER OF K-POINTS:   165

------- case.scfso --------
   0.0   0.0 angle (M,z), angle (M,x) deg
 
        SPIN-ORBIT EIGENVALUES:
     K=   0.00000   0.00000   0.00000            1
      MATRIX SIZE=  228   WEIGHT= 1.00
     EIGENVALUES ARE:
          -2.1100906   -2.1100906   -0.8965911   -0.8965911   -0.6814512
          -0.6814512   -0.6814512   -0.6814512    0.2758063    0.2758063
           0.5194534    0.5194534    0.5289420    0.5289420    0.5289420
           0.5289420    0.5516631    0.5516631    0.5626308    0.5626308
           0.5693407    0.5693407    0.5693407    0.5693407    0.6509156
           0.6509156    0.6509156    0.6509156    0.6609294    0.6609294
           0.8138380    0.8138380    0.8138380    0.8138380    1.2104076
           1.2104076    1.4203565    1.4203565    1.4277270    1.4277270

           1.4277270    1.4277270    1.5303960    1.5303960    2.1520592
           2.1520592    2.1520592    2.1520592    2.1540269    2.1540269
           2.1662444    2.1662444    2.2594997    2.2594997    2.2594997
           2.2594997    2.4414753    2.4414753    2.4414753    2.4414753
           2.7758105    2.7758105    2.9429916    2.9429916    2.9436524
           2.9436524    2.9436524    2.9436524    3.3665335    3.3665335
           3.3665335    3.3665335    3.5958435    3.5958435    3.5958435
           3.5958435    3.6000573    3.6000573    3.6089416    3.6089416

           3.6554119    3.6554119    3.6554119    3.6554119    3.7805616
           3.7805616    3.7805731    3.7805731    3.7805731    3.7805731
           4.0301105    4.0301105    4.0495749    4.0495749    4.0495749
           4.0495749    4.0497163    4.0497163    4.1482594    4.1482594
           4.1482594    4.1482594    4.1917509    4.1917509    4.1919755
           4.1919755    4.1919755    4.1919755    4.2182617    4.2182617
           4.2182617    4.2182617    4.2189735    4.2189735    4.3258816
           4.3258816    4.3518071    4.3518071    4.4808810    4.4808810

           4.4808810    4.4808810    4.4810584    4.4810584
       ********************************************************

------- case.scf2 --------
:GMA  : POTENTIAL AND CHARGE CUT-OFF  12.00 Ry**.5




:POS001: at.nr.   1 position = 0.00000 0.00000 0.50000  multiplicity =  1

       lmmax  5
       lm=   0 0  4 0  4 4  6 0  6 4
:FER gutzwiller fermi energy   0.54203
:EORB         -0.078713652
:SUM sum of gutz band energies         -6.402836539

:CHA001: total charge inside sphere   1 =    10.075017
:PCS001: partial charges sphere =  1 s,p,d,f,      d-eg,d-t2g 
:QTL001: 2.0277 5.3611 0.6211 2.0648 0.0000 0.0000 0.0000 0.2224 0.3987 0.0000 0.0000 0.0000

:CHA  : total charge inside unit cell =       6.500005

------- case.scfc --------

        1.ATOM      Pr                   14 CORE STATES
:1S 001: 1S               -3067.069422042 Ry
:2S 001: 2S                -492.820112174 Ry
:2PP001: 2P*               -465.919838897 Ry
:2P 001: 2P                -430.522133412 Ry
:3S 001: 3S                -105.904729309 Ry
:3PP001: 3P*                -94.442841082 Ry
:3P 001: 3P                 -87.434781985 Ry
:3DD001: 3D*                -67.362551807 Ry
:3D 001: 3D                 -65.850896641 Ry
:4S 001: 4S                 -20.582892777 Ry
:4PP001: 4P*                -16.290038184 Ry
:4P 001: 4P                 -14.763082984 Ry
:4DD001: 4D*                 -7.697026462 Ry
:4D 001: 4D                  -7.427787775 Ry

------- case.scfm --------
:CINT001 Core Integral Atom   1   45.999514

       DENSITY AT NUCLEUS
        JATOM        VALENCE       SEMI-CORE          CORE           TOTAL
:RTO001:   1      649.567901        0.000000   656824.767594   657474.335495
 :WARNING: K-list has changed
     
       CHARGES OF NEW CHARGE DENSITY
:NTO   : INTERSTITIAL CHARGE =     2.924935
:NPC   : PW Pseudocharge     =     7.583065
:NTO001: CHARGE SPHERE  1    =    56.074532

:NEC01: NUCLEAR AND ELECTRONIC CHARGE     59.00000    58.99947
     
       CHARGES OF OLD CHARGE DENSITY
:OTO   : INTERSTITIAL CHARGE =     2.934573
:OPC   : PW Pseudocharge     =     7.588739
:OTO001: CHARGE SPHERE  1    =    56.065427

:NEC02: NUCLEAR AND ELECTRONIC CHARGE     59.00000    59.00000
     
       CONVERGENCE TEST
:DTO001: DIFFERENCE IN SPHERE  1 =  0.0241786

:DIS  :  CHARGE DISTANCE       ( 0.0241786 for atom    1 spin 1)      0.0241786
 PW Mixed is           56
 
******************************************************
* MULTISECANT MIXING VER9 RELEASE 10.4.0              *
* Standard Mode with controls                        *
* Fixed density scale                                *
* Regularization       1.000E-04                     *
* Trust Upper Limit    5.000E+00                     *
* Max Number of Memory Steps    8                    *
******************************************************
 
:PWTMP   1.9360E+02  1.2500E+02  2.5905E+02
:PLANE:  PW TOTAL      2.9029 DISTAN   1.68E-02  5.80E-01 %
:CHARG:  CLM/ATOM    977.1812 DISTAN   4.56E-01  4.67E-02 %
 
Step History
        DMIX         DMIXT        Red     Pred      Trust     Lambda    MagRel    MagAbs     Beta
  1   3.5000E-02   3.5000E-02 -1.00E+00  1.00E+00 -1.00E+01  1.00E+00  3.50E-02  3.50E-02  1.00E+00
:INFO :  Note, Pratt in use
:TRUST:  Step 3.75E-02  Charge 7.50E-02 (e) CTO  2.50E-01 (e) PW  3.50E-01 (e)
:DIRM :  MEMORY  0/ 8 SCALE   1.000
Performing Pseudo Compensation
Final Pseudo Compensation Rescaling     1.00000E+00
:MIX  :   PRATT  REGULARIZATION:  1.00E-04 GREED: 0.02500                  
     
       CHARGES OF MIXED CHARGE DENSITY
:CTO   : INTERSTITIAL CHARGE =     2.934345
:CPC   : PW Pseudocharge     =     7.583105
:CTO001: CHARGE SPHERE  1    =    56.065655

:NEC03: NUCLEAR AND ELECTRONIC CHARGE     59.00000    59.00000

PW CHANGE     H    K    L      Current       Change    Residue
:PTO001:      0    0    0  4.05996613E-02 -2.263E-05 -5.171E-05
:PTO002:     -1   -1   -1 -1.29324929E-01  1.958E-04  2.133E-04
:PTO003:      0    0   -2  7.71804320E-02 -1.449E-04  2.648E-05
:PTO004:      0   -2   -2  6.79347743E-02 -3.110E-04 -5.975E-04
:PTO005:     -1   -1   -3 -6.58401792E-02  5.877E-04  5.759E-04
:PTO006:     -2   -2   -2  1.69078177E-02 -1.855E-04  9.328E-05
:PTO007:      0    0   -4  3.13868298E-03 -1.288E-04 -3.337E-05
:PTO008:     -1   -3   -3 -2.48034491E-03  4.861E-04  8.517E-04
:PTO009:      0   -2   -4 -4.69636975E-04 -4.726E-04 -9.694E-04
:PTO010:     -2   -2   -4 -6.39636746E-03 -3.865E-04 -2.177E-04
:PTO011:     -3   -3   -3  2.64410460E-03  1.062E-04 -1.700E-04
:PTO012:     -1   -1   -5  7.65815154E-03  3.379E-04  2.620E-04

:ENE  : ********** TOTAL ENERGY IN Ry =       -18472.11898888


------- case.scf0 --------
 Flat Integration
 New Mode for Coulomb Integral
 Consistent 3/8+Simpson combinations
 Extension of core to zero
 LDM version in phi
 Fifth-order quadrature in outwin


            ---------
:ITE025: 25. ITERATION
            ---------

:NATO :    1 INDEPENDENT AND    1 TOTAL ATOMS IN UNITCELL
       SUBSTANCE: blebleble                                                   

       LATTICE                      = F   
:POT  : POTENTIAL OPTION EX_LDA EC_LDA VX_LDA VC_LDA
:LAT  : LATTICE CONSTANTS= 10.11927 10.11927 10.11927    1.571    1.571    1.571
:VOL  : UNIT CELL VOLUME =     259.05267
       MODE OF CALCULATION IS       = RELA
       NON-SPINPOLARIZED CALCULATION
:IFFT  : FFT-parameters:   80   80   80 Factor: 2.00


   CONVERGENCE PARAMETER FOR PSEUDOCHARGE: NCON=  9
   MAXIMAL VALUE OF RMT(JATOM)*ABSK(NKK) : RK  =29.93932


:VKCOUL :  VK-COUL convergence: 0.191E-06
       ATOMNUMBER=  1 Pr         VCOUL-ZERO =  0.18146E+00
:FIT001: LUSE= 13 SIGMA OF V-XC FIT FOR ATOM  1  0.3906929E-04
:FIT001: LUSE= 13 SIGMA OF V-XC FIT FOR ATOM  1  0.3906929E-04
:DEN  : DENSITY INTEGRAL  =         -7068.82930062   (Ry)
       ELS_POTENTIAL_AT Z=0 and Z=0.5:  -2.42325  -2.42325
       ELS_POTENTIAL_AT Y=0 and Y=0.5:   0.00000   0.00000
:VZERO:v0,v0c,v0x  -3.37758  -2.42325  -0.95432 v5,v5c,v5x  -3.37758  -2.42325  -0.95432
:VZERY:v0,v0c,v0x  -0.69032   0.00000  -0.69032 v5,v5c,v5x  -0.69032   0.00000  -0.69032
:VZERX:v0,v0c,v0x  -0.69032   0.00000  -0.69032 v5,v5c,v5x  -0.69032   0.00000  -0.69032

------- case.scf1 --------
:LMAX-WF:   10   Non-Spherical LMAX:   4

          ATOMIC SPHERE DEPENDENT PARAMETERS FOR ATOM  Pr        
:e__0001: OVERALL ENERGY PARAMETER IS    0.3274
          OVERALL BASIS SET ON ATOM IS LAPW
:E0_0001: E( 0)=    0.3274
             APW+lo
:E0_0001: E( 0)=   -2.1514   E(BOTTOM)=   -2.533   E(TOP)=   -1.770  4  5   164
             LOCAL ORBITAL
:E1_0001: E( 1)=    0.7274
             APW+lo
:E1_0001: E( 1)=   -0.7640   E(BOTTOM)=   -1.411   E(TOP)=   -0.117  3  4   166
             LOCAL ORBITAL
:E3_0001: E( 3)=    0.5244   E(BOTTOM)=    0.382   E(TOP)=    0.667  0  1   116
             APW+lo
:E2_0001: E( 2)=    0.3274   E(BOTTOM)=    0.164   E(TOP)= -200.000  2 -1    93
             APW+lo

       K=   0.00000   0.00000   0.00000            1
:RKM  : MATRIX SIZE   189LOs:  20  RKM= 8.07  WEIGHT= 1.00  PGR:    
       EIGENVALUES ARE:
:EIG00001:      -2.1097552   -0.7497472   -0.7497472   -0.7497472    0.2759671
:EIG00006:       0.5247100    0.5405014    0.5405014    0.5405014    0.5625878
:EIG00011:       0.5625878    0.5625878    0.6548404    0.6548404    0.6548404
:EIG00016:       0.8136642    0.8136642    1.2105463    1.4256014    1.4256014
:EIG00021:       1.4256014    1.5305373    2.1571684    2.1571684    2.1571684
:EIG00026:       2.2239577    2.2239577    2.2239577    2.4413730    2.4413730
:EIG00031:       2.7759973    2.9435897    2.9435897    2.9435897    3.3667557
:EIG00036:       3.3667557    3.5973504    3.5973504    3.5973504    3.6391631
:EIG00041:       3.6391631    3.6391631    3.7807409    3.7807409    3.7807409
:EIG00046:       4.0302920    4.0497622    4.0497622    4.0497622    4.1483962
 
:EIG00051:       4.1483962    4.1920446    4.1920446    4.1920446    4.2186446
:EIG00056:       4.2186446    4.2186446    4.3260192    4.3519734    4.4810793
:EIG00061:       4.4810793    4.4810793    4.5739730    4.5739730    4.5739730
:EIG00066:       4.7918029    5.8011171    5.8011171    5.8039091    6.1093310
:EIG00071:       6.1093310    6.1093310    6.5522801    6.5522801    6.7277340
:EIG00076:       6.7277340    6.7277340    6.7852989    6.7852989    6.7852989
:EIG00081:       7.0729854    7.0729854    7.0729854    7.1036975    7.1036975
:EIG00086:       7.1130562    7.1130562    7.1130562    7.1771687    7.1771687
:EIG00091:       7.1771687    7.2757169    7.2757169    7.2757169    7.2821823
:EIG00096:       7.2821823    7.2821823    7.3603902    7.4369506    7.5129997
 
:EIG00101:       7.5129997    7.5512056    7.5512056    7.5512056    7.5696482
:EIG00106:       7.5696482    7.5696482    7.5881754    7.5881754    7.5881754
:EIG00111:       7.6720781    7.6720781    7.9410877    7.9990577
       ********************************************************

:KPT   :      NUMBER OF K-POINTS:   165

------- case.scfso --------
   0.0   0.0 angle (M,z), angle (M,x) deg
 
        SPIN-ORBIT EIGENVALUES:
     K=   0.00000   0.00000   0.00000            1
      MATRIX SIZE=  228   WEIGHT= 1.00
     EIGENVALUES ARE:
          -2.1097552   -2.1097552   -0.8962848   -0.8962848   -0.6811572
          -0.6811572   -0.6811571   -0.6811571    0.2759671    0.2759671
           0.5199226    0.5199226    0.5294374    0.5294374    0.5294374
           0.5294374    0.5521507    0.5521507    0.5631392    0.5631392
           0.5698515    0.5698515    0.5698515    0.5698515    0.6511086
           0.6511086    0.6511086    0.6511086    0.6611208    0.6611208
           0.8140547    0.8140547    0.8140547    0.8140547    1.2105992
           1.2105992    1.4205380    1.4205380    1.4279067    1.4279067

           1.4279067    1.4279067    1.5305373    1.5305373    2.1522737
           2.1522737    2.1522737    2.1522737    2.1542297    2.1542297
           2.1664583    2.1664583    2.2597014    2.2597014    2.2597014
           2.2597014    2.4416585    2.4416585    2.4416585    2.4416585
           2.7759973    2.7759973    2.9431580    2.9431580    2.9438189
           2.9438189    2.9438189    2.9438189    3.3667310    3.3667310
           3.3667310    3.3667310    3.5960285    3.5960285    3.5960285
           3.5960285    3.6002423    3.6002423    3.6091044    3.6091044

           3.6555765    3.6555765    3.6555765    3.6555765    3.7807332
           3.7807332    3.7807447    3.7807447    3.7807447    3.7807447
           4.0302920    4.0302920    4.0497170    4.0497170    4.0497170
           4.0497170    4.0498583    4.0498583    4.1483962    4.1483962
           4.1483962    4.1483962    4.1918875    4.1918875    4.1921121
           4.1921121    4.1921121    4.1921121    4.2184209    4.2184209
           4.2184209    4.2184209    4.2191327    4.2191327    4.3260241
           4.3260241    4.3519734    4.3519734    4.4810215    4.4810215

           4.4810215    4.4810215    4.4811989    4.4811989
       ********************************************************

------- case.scf2 --------
:GMA  : POTENTIAL AND CHARGE CUT-OFF  12.00 Ry**.5




:POS001: at.nr.   1 position = 0.00000 0.00000 0.50000  multiplicity =  1

       lmmax  5
       lm=   0 0  4 0  4 4  6 0  6 4
:FER gutzwiller fermi energy   0.54300
:EORB         -0.080296226
:SUM sum of gutz band energies         -6.397409688

:CHA001: total charge inside sphere   1 =    10.065390
:PCS001: partial charges sphere =  1 s,p,d,f,      d-eg,d-t2g 
:QTL001: 2.0278 5.3617 0.6257 2.0499 0.0000 0.0000 0.0000 0.2239 0.4018 0.0000 0.0000 0.0000

:CHA  : total charge inside unit cell =       6.500000

------- case.scfc --------

        1.ATOM      Pr                   14 CORE STATES
:1S 001: 1S               -3067.068392776 Ry
:2S 001: 2S                -492.819115003 Ry
:2PP001: 2P*               -465.918834082 Ry
:2P 001: 2P                -430.521131446 Ry
:3S 001: 3S                -105.903823866 Ry
:3PP001: 3P*                -94.441929922 Ry
:3P 001: 3P                 -87.433878031 Ry
:3DD001: 3D*                -67.361631079 Ry
:3D 001: 3D                 -65.849978123 Ry
:4S 001: 4S                 -20.582213387 Ry
:4PP001: 4P*                -16.289368860 Ry
:4P 001: 4P                 -14.762430671 Ry
:4DD001: 4D*                 -7.696400766 Ry
:4D 001: 4D                  -7.427167600 Ry

------- case.scfm --------
:CINT001 Core Integral Atom   1   45.999514

       DENSITY AT NUCLEUS
        JATOM        VALENCE       SEMI-CORE          CORE           TOTAL
:RTO001:   1      649.570654        0.000000   656824.716799   657474.287453
     
       CHARGES OF NEW CHARGE DENSITY
:NTO   : INTERSTITIAL CHARGE =     2.934540
:NPC   : PW Pseudocharge     =     7.586498
:NTO001: CHARGE SPHERE  1    =    56.064905

:NEC01: NUCLEAR AND ELECTRONIC CHARGE     59.00000    58.99944
     
       CHARGES OF OLD CHARGE DENSITY
:OTO   : INTERSTITIAL CHARGE =     2.934345
:OPC   : PW Pseudocharge     =     7.583105
:OTO001: CHARGE SPHERE  1    =    56.065655

:NEC02: NUCLEAR AND ELECTRONIC CHARGE     59.00000    59.00000
     
       CONVERGENCE TEST
:DTO001: DIFFERENCE IN SPHERE  1 =  0.0135792

:DIS  :  CHARGE DISTANCE       ( 0.0135792 for atom    1 spin 1)      0.0135792
 PW Mixed is           56
 
******************************************************
* MULTISECANT MIXING VER9 RELEASE 10.4.0              *
* Slow Mode, cautious                                *
* Fixed density scale                                *
* Regularization       1.000E-04                     *
* Step Trust Radius    0.75000                       *
* Trust Upper Limit    2.000E+00                     *
* Max Number of Memory Steps   12                    *
******************************************************
 
:PWTMP   1.9360E+02  1.2500E+02  2.5905E+02
:PLANE:  PW TOTAL      2.8979 DISTAN   1.15E-02  3.95E-01 %
:CHARG:  CLM/ATOM    977.1814 DISTAN   4.47E-01  4.58E-02 %
 
Step History
        DMIX         DMIXT        Red     Pred      Trust     Lambda    MagRel    MagAbs     Beta
  1   3.5000E-02   3.5000E-02 -1.00E+00  1.00E+00 -1.00E+01  1.00E+00  3.50E-02  3.50E-02  1.00E+00
  2   2.5000E-02   2.5000E-02 -1.00E+00  1.00E+00 -1.00E+01  1.00E+00  2.50E-02  1.14E-02  1.00E+00
:JACOBIANS    1.289E-01   1.056E-01
  
:TRUST:  Step 2.93E-02  Charge 7.50E-02 (e) CTO  2.50E-01 (e) PW  3.50E-01 (e)
:DIRM :  MEMORY  1/12 SCALE   1.000
:MIX  :   PRATT  REGULARIZATION:  1.00E-04 GREED: 0.02928  Expand 1.17  0.0293                
     
       CHARGES OF MIXED CHARGE DENSITY
:CTO   : INTERSTITIAL CHARGE =     2.932588
:CPC   : PW Pseudocharge     =     7.539595
:CTO001: CHARGE SPHERE  1    =    56.067412

:NEC03: NUCLEAR AND ELECTRONIC CHARGE     59.00000    59.00000

PW CHANGE     H    K    L      Current       Change    Residue
:PTO001:      0    0    0  4.04249154E-02 -1.747E-04  2.154E-05
:PTO002:     -1   -1   -1 -1.27813069E-01  1.512E-03  1.282E-05
:PTO003:      0    0   -2  7.60616116E-02 -1.119E-03  1.672E-04
:PTO004:      0   -2   -2  6.55330470E-02 -2.402E-03 -2.852E-04
:PTO005:     -1   -1   -3 -6.13013700E-02  4.539E-03  2.950E-06
:PTO006:     -2   -2   -2  1.54753002E-02 -1.433E-03  2.789E-04
:PTO007:      0    0   -4  2.14410685E-03 -9.946E-04  9.018E-05
:PTO008:     -1   -3   -3  1.27402203E-03  3.754E-03  3.762E-04
:PTO009:      0   -2   -4 -4.11945920E-03 -3.650E-03 -5.130E-04
:PTO010:     -2   -2   -4 -9.38151850E-03 -2.985E-03  1.623E-04
:PTO011:     -3   -3   -3  3.46438685E-03  8.203E-04 -2.768E-04
:PTO012:     -1   -1   -5  1.02680833E-02  2.610E-03 -6.571E-05

:ENE  : ********** TOTAL ENERGY IN Ry =       -18472.11912464


------- case.scf0 --------
 Flat Integration
 New Mode for Coulomb Integral
 Consistent 3/8+Simpson combinations
 Extension of core to zero
 LDM version in phi
 Fifth-order quadrature in outwin


            ---------
:ITE026: 26. ITERATION
            ---------

:NATO :    1 INDEPENDENT AND    1 TOTAL ATOMS IN UNITCELL
       SUBSTANCE: blebleble                                                   

       LATTICE                      = F   
:POT  : POTENTIAL OPTION EX_LDA EC_LDA VX_LDA VC_LDA
:LAT  : LATTICE CONSTANTS= 10.11927 10.11927 10.11927    1.571    1.571    1.571
:VOL  : UNIT CELL VOLUME =     259.05267
       MODE OF CALCULATION IS       = RELA
       NON-SPINPOLARIZED CALCULATION
:IFFT  : FFT-parameters:   80   80   80 Factor: 2.00


   CONVERGENCE PARAMETER FOR PSEUDOCHARGE: NCON=  9
   MAXIMAL VALUE OF RMT(JATOM)*ABSK(NKK) : RK  =29.93932


:VKCOUL :  VK-COUL convergence: 0.156E-06
       ATOMNUMBER=  1 Pr         VCOUL-ZERO =  0.18263E+00
:FIT001: LUSE= 13 SIGMA OF V-XC FIT FOR ATOM  1  0.3196520E-04
:FIT001: LUSE= 13 SIGMA OF V-XC FIT FOR ATOM  1  0.3196520E-04
:DEN  : DENSITY INTEGRAL  =         -7069.15393524   (Ry)
       ELS_POTENTIAL_AT Z=0 and Z=0.5:  -2.43026  -2.43026
       ELS_POTENTIAL_AT Y=0 and Y=0.5:   0.00000   0.00000
:VZERO:v0,v0c,v0x  -3.38143  -2.43026  -0.95117 v5,v5c,v5x  -3.38143  -2.43026  -0.95117
:VZERY:v0,v0c,v0x  -0.69011   0.00000  -0.69011 v5,v5c,v5x  -0.69011   0.00000  -0.69011
:VZERX:v0,v0c,v0x  -0.69011   0.00000  -0.69011 v5,v5c,v5x  -0.69011   0.00000  -0.69011

------- case.scf1 --------
:LMAX-WF:   10   Non-Spherical LMAX:   4

          ATOMIC SPHERE DEPENDENT PARAMETERS FOR ATOM  Pr        
:e__0001: OVERALL ENERGY PARAMETER IS    0.3274
          OVERALL BASIS SET ON ATOM IS LAPW
:E0_0001: E( 0)=    0.3274
             APW+lo
:E0_0001: E( 0)=   -2.1488   E(BOTTOM)=   -2.531   E(TOP)=   -1.767  4  5   165
             LOCAL ORBITAL
:E1_0001: E( 1)=    0.7274
             APW+lo
:E1_0001: E( 1)=   -0.7616   E(BOTTOM)=   -1.409   E(TOP)=   -0.114  3  4   162
             LOCAL ORBITAL
:E3_0001: E( 3)=    0.5283   E(BOTTOM)=    0.385   E(TOP)=    0.671  0  1   117
             APW+lo
:E2_0001: E( 2)=    0.3274   E(BOTTOM)=    0.166   E(TOP)= -200.000  2 -1    93
             APW+lo

       K=   0.00000   0.00000   0.00000            1
:RKM  : MATRIX SIZE   189LOs:  20  RKM= 8.07  WEIGHT= 1.00  PGR:    
       EIGENVALUES ARE:
:EIG00001:      -2.1071635   -0.7474444   -0.7474444   -0.7474444    0.2772094
:EIG00006:       0.5282760    0.5442842    0.5442842    0.5442842    0.5665714
:EIG00011:       0.5665714    0.5665714    0.6563264    0.6563264    0.6563264
:EIG00016:       0.8153404    0.8153404    1.2120290    1.4269944    1.4269944
:EIG00021:       1.4269944    1.5316289    2.1588247    2.1588247    2.1588247
:EIG00026:       2.2255201    2.2255201    2.2255201    2.4427886    2.4427886
:EIG00031:       2.7774407    2.9448766    2.9448766    2.9448766    3.3682812
:EIG00036:       3.3682812    3.5987801    3.5987801    3.5987801    3.6404303
:EIG00041:       3.6404303    3.6404303    3.7820666    3.7820666    3.7820666
:EIG00046:       4.0316944    4.0508596    4.0508596    4.0508596    4.1494530
 
:EIG00051:       4.1494530    4.1931003    4.1931003    4.1931003    4.2198744
:EIG00056:       4.2198744    4.2198744    4.3271206    4.3532582    4.4821649
:EIG00061:       4.4821649    4.4821649    4.5750754    4.5750754    4.5750754
:EIG00066:       4.7929465    5.8024532    5.8024532    5.8052013    6.1105844
:EIG00071:       6.1105844    6.1105844    6.5540019    6.5540019    6.7294650
:EIG00076:       6.7294650    6.7294650    6.7868433    6.7868433    6.7868433
:EIG00081:       7.0742461    7.0742461    7.0742461    7.1048484    7.1048484
:EIG00086:       7.1145843    7.1145843    7.1145843    7.1783917    7.1783917
:EIG00091:       7.1783917    7.2770439    7.2770439    7.2770439    7.2834122
:EIG00096:       7.2834122    7.2834122    7.3616658    7.4380778    7.5143146
 
:EIG00101:       7.5143146    7.5523658    7.5523658    7.5523658    7.5707087
:EIG00106:       7.5707087    7.5707087    7.5893933    7.5893933    7.5893933
:EIG00111:       7.6732941    7.6732941    7.9420504    8.0005504
       ********************************************************

:KPT   :      NUMBER OF K-POINTS:   165

------- case.scfso --------
   0.0   0.0 angle (M,z), angle (M,x) deg
 
        SPIN-ORBIT EIGENVALUES:
     K=   0.00000   0.00000   0.00000            1
      MATRIX SIZE=  228   WEIGHT= 1.00
     EIGENVALUES ARE:
          -2.1071635   -2.1071635   -0.8939180   -0.8939180   -0.6788852
          -0.6788852   -0.6788851   -0.6788851    0.2772094    0.2772094
           0.5235470    0.5235470    0.5332634    0.5332634    0.5332634
           0.5332634    0.5559165    0.5559165    0.5670675    0.5670675
           0.5737982    0.5737982    0.5737982    0.5737982    0.6525998
           0.6525998    0.6525998    0.6525998    0.6625997    0.6625997
           0.8157295    0.8157295    0.8157295    0.8157295    1.2120824
           1.2120824    1.4219408    1.4219408    1.4292952    1.4292952

           1.4292952    1.4292952    1.5316289    1.5316289    2.1539313
           2.1539313    2.1539313    2.1539313    2.1557969    2.1557969
           2.1681116    2.1681116    2.2612602    2.2612602    2.2612602
           2.2612602    2.4430741    2.4430741    2.4430741    2.4430741
           2.7774407    2.7774407    2.9444441    2.9444441    2.9451063
           2.9451063    2.9451063    2.9451063    3.3682564    3.3682564
           3.3682564    3.3682564    3.5974582    3.5974582    3.5974582
           3.5974582    3.6016719    3.6016719    3.6103622    3.6103622

           3.6568489    3.6568489    3.6568489    3.6568489    3.7820589
           3.7820589    3.7820705    3.7820705    3.7820705    3.7820705
           4.0316944    4.0316944    4.0508144    4.0508144    4.0508144
           4.0508144    4.0509555    4.0509555    4.1494530    4.1494530
           4.1494530    4.1494530    4.1929428    4.1929428    4.1931680
           4.1931680    4.1931680    4.1931680    4.2196505    4.2196505
           4.2196505    4.2196505    4.2203630    4.2203630    4.3271255
           4.3271255    4.3532582    4.3532582    4.4821071    4.4821071

           4.4821071    4.4821071    4.4822845    4.4822845
       ********************************************************

------- case.scf2 --------
:GMA  : POTENTIAL AND CHARGE CUT-OFF  12.00 Ry**.5




:POS001: at.nr.   1 position = 0.00000 0.00000 0.50000  multiplicity =  1

       lmmax  5
       lm=   0 0  4 0  4 4  6 0  6 4
:FER gutzwiller fermi energy   0.54564
:EORB         -0.078537499
:SUM sum of gutz band energies         -6.368465288

:CHA001: total charge inside sphere   1 =    10.049315
:PCS001: partial charges sphere =  1 s,p,d,f,      d-eg,d-t2g 
:QTL001: 2.0278 5.3620 0.6324 2.0269 0.0000 0.0000 0.0000 0.2261 0.4063 0.0000 0.0000 0.0000

:CHA  : total charge inside unit cell =       6.500000

------- case.scfc --------

        1.ATOM      Pr                   14 CORE STATES
:1S 001: 1S               -3067.060443395 Ry
:2S 001: 2S                -492.811413499 Ry
:2PP001: 2P*               -465.911073540 Ry
:2P 001: 2P                -430.513392916 Ry
:3S 001: 3S                -105.896830556 Ry
:3PP001: 3P*                -94.434892477 Ry
:3P 001: 3P                 -87.426896188 Ry
:3DD001: 3D*                -67.354519778 Ry
:3D 001: 3D                 -65.842883878 Ry
:4S 001: 4S                 -20.576964371 Ry
:4PP001: 4P*                -16.284197536 Ry
:4P 001: 4P                 -14.757390639 Ry
:4DD001: 4D*                 -7.691566215 Ry
:4D 001: 4D                  -7.422375667 Ry

------- case.scfm --------
:CINT001 Core Integral Atom   1   45.999513

       DENSITY AT NUCLEUS
        JATOM        VALENCE       SEMI-CORE          CORE           TOTAL
:RTO001:   1      649.418583        0.000000   656824.324764   657473.743347
     
       CHARGES OF NEW CHARGE DENSITY
:NTO   : INTERSTITIAL CHARGE =     2.950670
:NPC   : PW Pseudocharge     =     7.592562
:NTO001: CHARGE SPHERE  1    =    56.048829

:NEC01: NUCLEAR AND ELECTRONIC CHARGE     59.00000    58.99950
     
       CHARGES OF OLD CHARGE DENSITY
:OTO   : INTERSTITIAL CHARGE =     2.932588
:OPC   : PW Pseudocharge     =     7.539595
:OTO001: CHARGE SPHERE  1    =    56.067412

:NEC02: NUCLEAR AND ELECTRONIC CHARGE     59.00000    59.00000
     
       CONVERGENCE TEST
:DTO001: DIFFERENCE IN SPHERE  1 =  0.0303199

:DIS  :  CHARGE DISTANCE       ( 0.0303199 for atom    1 spin 1)      0.0303199
 PW Mixed is           56
 
******************************************************
* MULTISECANT MIXING VER9 RELEASE 10.4.0              *
* Slow Mode, cautious                                *
* Fixed density scale                                *
* Regularization       1.000E-04                     *
* Step Trust Radius    0.75000                       *
* Trust Upper Limit    2.000E+00                     *
* Max Number of Memory Steps   12                    *
******************************************************
 
:PWTMP   1.9360E+02  1.2500E+02  2.5905E+02
:PLANE:  PW TOTAL      2.8599 DISTAN   8.65E-02  3.02E+00 %
:CHARG:  CLM/ATOM    977.1825 DISTAN   3.66E-01  3.74E-02 %
 
Step History
        DMIX         DMIXT        Red     Pred      Trust     Lambda    MagRel    MagAbs     Beta
  1   3.5000E-02   3.5000E-02 -1.00E+00  1.00E+00 -1.00E+01  1.00E+00  3.50E-02  3.50E-02  1.00E+00
  2   2.5000E-02   2.5000E-02  9.80E-01  1.00E+00 -1.00E+01  1.00E+00  2.50E-02  1.14E-02  1.00E+00
  3   2.9275E-02   2.9275E-02 -1.00E+00  1.00E+00 -1.00E+01  1.00E+00  2.93E-02  1.31E-02  1.00E+00
:JACOBIANS    3.124E-01   3.031E-01
  
:NORMS:  1/Froebius, Min, Max, Used   0.9857E+00  0.4984E+00  0.9968E+00  0.9867E+00
:INFO :  Number of Memory Steps    2 Skipping    0
:INFO :  SLambda=    0.8676646493  Max    0.8676646493
:PREDicted Charge, CTotal, PW Trust    4.586E-03   4.586E-03   5.699E-02
:PREDicted DMix, Beta, BLim   4.9797E-01  2.4145E+00  7.0138E-01

Eigenvalues, unscaled except for SY+YY
   #     SY Real        SY Imag          SS             YY         SY+YY Real      SY+YY Imag
   1  -4.596323E-14   0.000000E+00   1.943033E+00   1.995823E+00   4.275164E-03   0.000000E+00
   2   1.890644E+00   0.000000E+00   0.000000E+00   4.176649E-03   3.636170E+00   0.000000E+00
 
:INFO :  Singular value  3.636E+00 Weight  1.000E+00 Projection -1.316E-01
:INFO :  Singular value  4.275E-03 Weight  9.978E-01 Projection  1.977E+00
:RANK :  ACTIVE   2.00/2  =  99.89 % ; YY RANK   2.00/2  =  99.89 %
 
:BLIM :  VZERO Control Off
:TRUST:  Step 2.30E-01  Charge 7.50E-02 (e) CTO  2.50E-01 (e) PW  3.50E-01 (e)
:DTRUS:  Lambda    2.395E+00 Increment    7.276E-12 Iterations   120 DMIX    3.309E-02
:INFOA:  Angle SubSpace to MSR1      0.00
:DIRM :  MEMORY  2/12 SCALE   1.000 RED  0.84 PRED  1.00 NEXT  0.87 
:INFO :  Limited by Atoms F by Step T

:TRAVE:  Charge 1.99E-03 (e) CTO  1.99E-03 (e) PW  1.39E-02 (e)
:DIRP :  |MSR1|= 5.309E-02 |PRATT|= 8.650E-02 ANGLE= 171.5 DEGREES
:DIRQ :  |MSR1|= 6.827E-02 |PRATT|= 3.655E-01 ANGLE=   8.0 DEGREES
:DIRT :  |MSR1|= 8.648E-02 |PRATT|= 3.756E-01 ANGLE=  51.6 DEGREES
:MIX  :   MSD1   REGULARIZATION:  2.00E-04 GREED: 0.07319  LMStep 0.45  0.2302 Step           
     
       CHARGES OF MIXED CHARGE DENSITY
:CTO   : INTERSTITIAL CHARGE =     2.930595
:CPC   : PW Pseudocharge     =     7.512882
:CTO001: CHARGE SPHERE  1    =    56.069405

:NEC03: NUCLEAR AND ELECTRONIC CHARGE     59.00000    59.00000

PW CHANGE     H    K    L      Current       Change    Residue
:PTO001:      0    0    0  4.03141087E-02 -1.108E-04  2.812E-04
:PTO002:     -1   -1   -1 -1.26889872E-01  9.232E-04 -1.507E-03
:PTO003:      0    0   -2  7.53850424E-02 -6.766E-04  1.279E-03
:PTO004:      0   -2   -2  6.40576456E-02 -1.475E-03  2.112E-03
:PTO005:     -1   -1   -3 -5.85328038E-02  2.769E-03 -4.501E-03
:PTO006:     -2   -2   -2  1.46104223E-02 -8.649E-04  1.710E-03
:PTO007:      0    0   -4  1.54083185E-03 -6.033E-04  1.075E-03
:PTO008:     -1   -3   -3  3.57601480E-03  2.302E-03 -3.357E-03
:PTO009:      0   -2   -4 -6.36152347E-03 -2.242E-03  3.108E-03
:PTO010:     -2   -2   -4 -1.11963913E-02 -1.815E-03  3.137E-03
:PTO011:     -3   -3   -3  3.95559632E-03  4.912E-04 -1.099E-03
:PTO012:     -1   -1   -5  1.18566921E-02  1.589E-03 -2.661E-03

:ENE  : ********** TOTAL ENERGY IN Ry =       -18472.11918899


------- case.scf0 --------
 Flat Integration
 New Mode for Coulomb Integral
 Consistent 3/8+Simpson combinations
 Extension of core to zero
 LDM version in phi
 Fifth-order quadrature in outwin


            ---------
:ITE027: 27. ITERATION
            ---------

:NATO :    1 INDEPENDENT AND    1 TOTAL ATOMS IN UNITCELL
       SUBSTANCE: blebleble                                                   

       LATTICE                      = F   
:POT  : POTENTIAL OPTION EX_LDA EC_LDA VX_LDA VC_LDA
:LAT  : LATTICE CONSTANTS= 10.11927 10.11927 10.11927    1.571    1.571    1.571
:VOL  : UNIT CELL VOLUME =     259.05267
       MODE OF CALCULATION IS       = RELA
       NON-SPINPOLARIZED CALCULATION
:IFFT  : FFT-parameters:   80   80   80 Factor: 2.00


   CONVERGENCE PARAMETER FOR PSEUDOCHARGE: NCON=  9
   MAXIMAL VALUE OF RMT(JATOM)*ABSK(NKK) : RK  =29.93932


:VKCOUL :  VK-COUL convergence: 0.132E-06
       ATOMNUMBER=  1 Pr         VCOUL-ZERO =  0.18336E+00
:FIT001: LUSE= 13 SIGMA OF V-XC FIT FOR ATOM  1  0.2704112E-04
:FIT001: LUSE= 13 SIGMA OF V-XC FIT FOR ATOM  1  0.2704112E-04
:DEN  : DENSITY INTEGRAL  =         -7069.45104561   (Ry)
       ELS_POTENTIAL_AT Z=0 and Z=0.5:  -2.43401  -2.43401
       ELS_POTENTIAL_AT Y=0 and Y=0.5:   0.00000   0.00000
:VZERO:v0,v0c,v0x  -3.38323  -2.43401  -0.94922 v5,v5c,v5x  -3.38323  -2.43401  -0.94922
:VZERY:v0,v0c,v0x  -0.68994   0.00000  -0.68994 v5,v5c,v5x  -0.68994   0.00000  -0.68994
:VZERX:v0,v0c,v0x  -0.68994   0.00000  -0.68994 v5,v5c,v5x  -0.68994   0.00000  -0.68994

------- case.scf1 --------
:LMAX-WF:   10   Non-Spherical LMAX:   4

          ATOMIC SPHERE DEPENDENT PARAMETERS FOR ATOM  Pr        
:e__0001: OVERALL ENERGY PARAMETER IS    0.3274
          OVERALL BASIS SET ON ATOM IS LAPW
:E0_0001: E( 0)=    0.3274
             APW+lo
:E0_0001: E( 0)=   -2.1465   E(BOTTOM)=   -2.528   E(TOP)=   -1.764  4  5   167
             LOCAL ORBITAL
:E1_0001: E( 1)=    0.7274
             APW+lo
:E1_0001: E( 1)=   -0.7595   E(BOTTOM)=   -1.407   E(TOP)=   -0.112  3  4   164
             LOCAL ORBITAL
:E3_0001: E( 3)=    0.5318   E(BOTTOM)=    0.388   E(TOP)=    0.675  0  1   118
             APW+lo
:E2_0001: E( 2)=    0.3274   E(BOTTOM)=    0.167   E(TOP)= -200.000  2 -1    99
             APW+lo

       K=   0.00000   0.00000   0.00000            1
:RKM  : MATRIX SIZE   189LOs:  20  RKM= 8.07  WEIGHT= 1.00  PGR:    
       EIGENVALUES ARE:
:EIG00001:      -2.1049008   -0.7454972   -0.7454972   -0.7454972    0.2779924
:EIG00006:       0.5315571    0.5477757    0.5477757    0.5477757    0.5702650
:EIG00011:       0.5702650    0.5702650    0.6573918    0.6573918    0.6573918
:EIG00016:       0.8165971    0.8165971    1.2130686    1.4279205    1.4279205
:EIG00021:       1.4279205    1.5322201    2.1600519    2.1600519    2.1600519
:EIG00026:       2.2266467    2.2266467    2.2266467    2.4437789    2.4437789
:EIG00031:       2.7784291    2.9457130    2.9457130    2.9457130    3.3693335
:EIG00036:       3.3693335    3.5997412    3.5997412    3.5997412    3.6412306
:EIG00041:       3.6412306    3.6412306    3.7829308    3.7829308    3.7829308
:EIG00046:       4.0326301    4.0514996    4.0514996    4.0514996    4.1500496
 
:EIG00051:       4.1500496    4.1937072    4.1937072    4.1937072    4.2206147
:EIG00056:       4.2206147    4.2206147    4.3277386    4.3540806    4.4827654
:EIG00061:       4.4827654    4.4827654    4.5757019    4.5757019    4.5757019
:EIG00066:       4.7935988    5.8033078    5.8033078    5.8060207    6.1113647
:EIG00071:       6.1113647    6.1113647    6.5552450    6.5552450    6.7307016
:EIG00076:       6.7307016    6.7307016    6.7879349    6.7879349    6.7879349
:EIG00081:       7.0750326    7.0750326    7.0750326    7.1055355    7.1055355
:EIG00086:       7.1156053    7.1156053    7.1156053    7.1791454    7.1791454
:EIG00091:       7.1791454    7.2778893    7.2778893    7.2778893    7.2841751
:EIG00096:       7.2841751    7.2841751    7.3624414    7.4387515    7.5151394
 
:EIG00101:       7.5151394    7.5530432    7.5530432    7.5530432    7.5712907
:EIG00106:       7.5712907    7.5712907    7.5901140    7.5901140    7.5901140
:EIG00111:       7.6740192    7.6740192    7.9425306    8.0015558
       ********************************************************

:KPT   :      NUMBER OF K-POINTS:   165

------- case.scfso --------
   0.0   0.0 angle (M,z), angle (M,x) deg
 
        SPIN-ORBIT EIGENVALUES:
     K=   0.00000   0.00000   0.00000            1
      MATRIX SIZE=  228   WEIGHT= 1.00
     EIGENVALUES ARE:
          -2.1049008   -2.1049008   -0.8919006   -0.8919006   -0.6769716
          -0.6769716   -0.6769716   -0.6769716    0.2779924    0.2779924
           0.5268856    0.5268856    0.5367985    0.5367985    0.5367985
           0.5367985    0.5593901    0.5593901    0.5707069    0.5707069
           0.5774549    0.5774549    0.5774549    0.5774549    0.6536708
           0.6536708    0.6536708    0.6536708    0.6636576    0.6636576
           0.8169846    0.8169846    0.8169846    0.8169846    1.2131226
           1.2131226    1.4228773    1.4228773    1.4302166    1.4302166

           1.4302166    1.4302166    1.5322201    1.5322201    2.1551597
           2.1551597    2.1551597    2.1551597    2.1569281    2.1569281
           2.1693364    2.1693364    2.2623831    2.2623831    2.2623831
           2.2623831    2.4440643    2.4440643    2.4440643    2.4440643
           2.7784291    2.7784291    2.9452795    2.9452795    2.9459432
           2.9459432    2.9459432    2.9459432    3.3693087    3.3693087
           3.3693087    3.3693087    3.5984193    3.5984193    3.5984193
           3.5984193    3.6026335    3.6026335    3.6111517    3.6111517

           3.6576553    3.6576553    3.6576554    3.6576554    3.7829231
           3.7829231    3.7829347    3.7829347    3.7829347    3.7829347
           4.0326301    4.0326301    4.0514545    4.0514545    4.0514545
           4.0514545    4.0515954    4.0515954    4.1500496    4.1500496
           4.1500496    4.1500496    4.1935495    4.1935495    4.1937751
           4.1937751    4.1937751    4.1937751    4.2203905    4.2203905
           4.2203905    4.2203905    4.2211039    4.2211039    4.3277435
           4.3277435    4.3540806    4.3540806    4.4827076    4.4827076

           4.4827076    4.4827076    4.4828851    4.4828851
       ********************************************************

------- case.scf2 --------
:GMA  : POTENTIAL AND CHARGE CUT-OFF  12.00 Ry**.5




:POS001: at.nr.   1 position = 0.00000 0.00000 0.50000  multiplicity =  1

       lmmax  5
       lm=   0 0  4 0  4 4  6 0  6 4
:FER gutzwiller fermi energy   0.54789
:EORB         -0.076612694
:SUM sum of gutz band energies         -6.344396114

:CHA001: total charge inside sphere   1 =    10.033822
:PCS001: partial charges sphere =  1 s,p,d,f,      d-eg,d-t2g 
:QTL001: 2.0278 5.3622 0.6387 2.0048 0.0000 0.0000 0.0000 0.2282 0.4105 0.0000 0.0000 0.0000

:CHA  : total charge inside unit cell =       6.500000

------- case.scfc --------

        1.ATOM      Pr                   14 CORE STATES
:1S 001: 1S               -3067.053392730 Ry
:2S 001: 2S                -492.804487458 Ry
:2PP001: 2P*               -465.904116746 Ry
:2P 001: 2P                -430.506447604 Ry
:3S 001: 3S                -105.890357142 Ry
:3PP001: 3P*                -94.428388945 Ry
:3P 001: 3P                 -87.420433980 Ry
:3DD001: 3D*                -67.347966158 Ry
:3D 001: 3D                 -65.836342312 Ry
:4S 001: 4S                 -20.572000952 Ry
:4PP001: 4P*                -16.279310045 Ry
:4P 001: 4P                 -14.752627190 Ry
:4DD001: 4D*                 -7.687006061 Ry
:4D 001: 4D                  -7.417856498 Ry

------- case.scfm --------
:CINT001 Core Integral Atom   1   45.999512

       DENSITY AT NUCLEUS
        JATOM        VALENCE       SEMI-CORE          CORE           TOTAL
:RTO001:   1      649.239760        0.000000   656823.998295   657473.238056
     
       CHARGES OF NEW CHARGE DENSITY
:NTO   : INTERSTITIAL CHARGE =     2.966098
:NPC   : PW Pseudocharge     =     7.598354
:NTO001: CHARGE SPHERE  1    =    56.033334

:NEC01: NUCLEAR AND ELECTRONIC CHARGE     59.00000    58.99943
     
       CHARGES OF OLD CHARGE DENSITY
:OTO   : INTERSTITIAL CHARGE =     2.930595
:OPC   : PW Pseudocharge     =     7.512882
:OTO001: CHARGE SPHERE  1    =    56.069405

:NEC02: NUCLEAR AND ELECTRONIC CHARGE     59.00000    59.00000
     
       CONVERGENCE TEST
:DTO001: DIFFERENCE IN SPHERE  1 =  0.0608094

:DIS  :  CHARGE DISTANCE       ( 0.0608094 for atom    1 spin 1)      0.0608094
 PW Mixed is           56
 
******************************************************
* MULTISECANT MIXING VER9 RELEASE 10.4.0              *
* Standard Mode with controls                        *
* Fixed density scale                                *
* Regularization       1.000E-04                     *
* Trust Upper Limit    5.000E+00                     *
* Max Number of Memory Steps    8                    *
******************************************************
 
:PWTMP   1.9360E+02  1.2500E+02  2.5905E+02
:PLANE:  PW TOTAL      2.8378 DISTAN   1.39E-01  4.91E+00 %
:CHARG:  CLM/ATOM    977.1832 DISTAN   3.08E-01  3.15E-02 %
 
Step History
        DMIX         DMIXT        Red     Pred      Trust     Lambda    MagRel    MagAbs     Beta
  1   3.5000E-02   3.5000E-02 -1.00E+00  1.00E+00 -1.00E+01  1.00E+00  3.50E-02  3.50E-02  1.00E+00
  2   2.5000E-02   2.5000E-02  9.80E-01  1.00E+00 -1.00E+01  1.00E+00  2.50E-02  1.14E-02  1.00E+00
  3   2.9275E-02   2.9275E-02  8.40E-01  1.00E+00 -1.00E+01  8.68E-01  2.93E-02  1.31E-02  1.00E+00
  4   7.3188E-02   3.3089E-02 -1.00E+00  8.70E-01  2.30E-01  1.00E+00  2.30E-01  8.65E-02  1.00E+00
:JACOBIANS    6.528E-01   6.507E-01
  
:NORMS:  1/Froebius, Min, Max, Used   0.9831E+00  0.6692E+00  0.1004E+01  0.9833E+00
:INFO :  Number of Memory Steps    3 Skipping    0
:INFO :  SLambda=    0.7390575372  Max    0.7390575372
:PREDicted Charge, CTotal, PW Trust    2.711E-02   2.711E-02   6.539E-03
:PREDicted DMix, Beta, BLim   9.1057E-01  2.0400E+00  9.8228E-01

Eigenvalues, unscaled except for SY+YY
   #     SY Real        SY Imag          SS             YY         SY+YY Real      SY+YY Imag
   1   2.805589E+00   0.000000E+00   2.895879E+00   2.995013E+00   5.068458E+00   0.000000E+00
   2  -1.634922E-14   0.000000E+00   3.308254E-03   3.687842E-03   1.436155E-03   0.000000E+00
   3   3.228987E-03   0.000000E+00   8.309908E-17   1.299521E-03   5.983124E-03   0.000000E+00
 
:INFO :  Singular value  5.068E+00 Weight  1.000E+00 Projection -6.741E-02
:INFO :  Singular value  5.983E-03 Weight  9.975E-01 Projection -4.195E+00
:INFO :  Singular value  1.436E-03 Weight  9.583E-01 Projection  6.291E+00
:RANK :  ACTIVE   2.96/3  =  98.53 % ; YY RANK   2.94/3  =  98.10 %
 
:BLIM :  VZERO Control Off
:TRUST:  Step 6.06E-01  Charge 7.50E-02 (e) CTO  2.50E-01 (e) PW  3.50E-01 (e)
:DTRUS:  Lambda    1.646E+00 Increment    7.276E-12 Iterations   112 DMIX    1.583E-01
:INFOA:  Angle SubSpace to MSR1      0.50
:DIRM :  MEMORY  3/8  SCALE   1.000 RED  0.90 PRED  0.87 NEXT  0.36 
:INFO :  Limited by Atoms F by Step T

:TRAVE:  Charge 8.29E-03 (e) CTO  8.29E-03 (e) PW  1.36E-02 (e)
:DIRP :  |MSR1|= 8.741E-02 |PRATT|= 1.393E-01 ANGLE=   5.0 DEGREES
:DIRQ :  |MSR1|= 1.851E-01 |PRATT|= 3.075E-01 ANGLE=  19.3 DEGREES
:DIRT :  |MSR1|= 2.047E-01 |PRATT|= 3.376E-01 ANGLE=  17.6 DEGREES
:MIX  :   MSD1   REGULARIZATION:  3.00E-04 GREED: 0.18297  LMStep 0.63  0.6063 Step           
     
       CHARGES OF MIXED CHARGE DENSITY
:CTO   : INTERSTITIAL CHARGE =     2.916000
:CPC   : PW Pseudocharge     =     7.555344
:CTO001: CHARGE SPHERE  1    =    56.084000

:NEC03: NUCLEAR AND ELECTRONIC CHARGE     59.00000    59.00000

PW CHANGE     H    K    L      Current       Change    Residue
:PTO001:      0    0    0  4.04216811E-02  1.076E-04  4.748E-04
:PTO002:     -1   -1   -1 -1.28412929E-01 -1.523E-03 -2.440E-03
:PTO003:      0    0   -2  7.66509192E-02  1.266E-03  1.954E-03
:PTO004:      0   -2   -2  6.62879324E-02  2.230E-03  3.585E-03
:PTO005:     -1   -1   -3 -6.31118196E-02 -4.579E-03 -7.238E-03
:PTO006:     -2   -2   -2  1.62275424E-02  1.617E-03  2.574E-03
:PTO007:      0    0   -4  2.61317781E-03  1.072E-03  1.671E-03
:PTO008:     -1   -3   -3  2.80652603E-05 -3.548E-03 -5.635E-03
:PTO009:      0   -2   -4 -2.98445973E-03  3.377E-03  5.318E-03
:PTO010:     -2   -2   -4 -8.06953210E-03  3.127E-03  4.941E-03
:PTO011:     -3   -3   -3  2.95277128E-03 -1.003E-03 -1.592E-03
:PTO012:     -1   -1   -5  9.14780283E-03 -2.709E-03 -4.236E-03

:ENE  : ********** TOTAL ENERGY IN Ry =       -18472.11927929


------- case.scf0 --------
 Flat Integration
 New Mode for Coulomb Integral
 Consistent 3/8+Simpson combinations
 Extension of core to zero
 LDM version in phi
 Fifth-order quadrature in outwin


            ---------
:ITE028: 28. ITERATION
            ---------

:NATO :    1 INDEPENDENT AND    1 TOTAL ATOMS IN UNITCELL
       SUBSTANCE: blebleble                                                   

       LATTICE                      = F   
:POT  : POTENTIAL OPTION EX_LDA EC_LDA VX_LDA VC_LDA
:LAT  : LATTICE CONSTANTS= 10.11927 10.11927 10.11927    1.571    1.571    1.571
:VOL  : UNIT CELL VOLUME =     259.05267
       MODE OF CALCULATION IS       = RELA
       NON-SPINPOLARIZED CALCULATION
:IFFT  : FFT-parameters:   80   80   80 Factor: 2.00


   CONVERGENCE PARAMETER FOR PSEUDOCHARGE: NCON=  9
   MAXIMAL VALUE OF RMT(JATOM)*ABSK(NKK) : RK  =29.93932


:VKCOUL :  VK-COUL convergence: 0.700E-07
       ATOMNUMBER=  1 Pr         VCOUL-ZERO =  0.18244E+00
:FIT001: LUSE= 13 SIGMA OF V-XC FIT FOR ATOM  1  0.1600568E-04
:FIT001: LUSE= 13 SIGMA OF V-XC FIT FOR ATOM  1  0.1600568E-04
:DEN  : DENSITY INTEGRAL  =         -7070.81126737   (Ry)
       ELS_POTENTIAL_AT Z=0 and Z=0.5:  -2.41769  -2.41769
       ELS_POTENTIAL_AT Y=0 and Y=0.5:   0.00000   0.00000
:VZERO:v0,v0c,v0x  -3.37216  -2.41769  -0.95446 v5,v5c,v5x  -3.37216  -2.41769  -0.95446
:VZERY:v0,v0c,v0x  -0.68940   0.00000  -0.68940 v5,v5c,v5x  -0.68940   0.00000  -0.68940
:VZERX:v0,v0c,v0x  -0.68940   0.00000  -0.68940 v5,v5c,v5x  -0.68940   0.00000  -0.68940

------- case.scf1 --------
:LMAX-WF:   10   Non-Spherical LMAX:   4

          ATOMIC SPHERE DEPENDENT PARAMETERS FOR ATOM  Pr        
:e__0001: OVERALL ENERGY PARAMETER IS    0.3274
          OVERALL BASIS SET ON ATOM IS LAPW
:E0_0001: E( 0)=    0.3274
             APW+lo
:E0_0001: E( 0)=   -2.1368   E(BOTTOM)=   -2.520   E(TOP)=   -1.753  4  5   166
             LOCAL ORBITAL
:E1_0001: E( 1)=    0.7274
             APW+lo
:E1_0001: E( 1)=   -0.7514   E(BOTTOM)=   -1.401   E(TOP)=   -0.102  3  4   168
             LOCAL ORBITAL
:E3_0001: E( 3)=    0.5496   E(BOTTOM)=    0.404   E(TOP)=    0.695  0  1   120
             APW+lo
:E2_0001: E( 2)=    0.3274   E(BOTTOM)=    0.171   E(TOP)= -200.000  2 -1    93
             APW+lo

       K=   0.00000   0.00000   0.00000            1
:RKM  : MATRIX SIZE   189LOs:  20  RKM= 8.07  WEIGHT= 1.00  PGR:    
       EIGENVALUES ARE:
:EIG00001:      -2.0954223   -0.7381987   -0.7381987   -0.7381987    0.2772318
:EIG00006:       0.5473921    0.5648806    0.5648806    0.5648806    0.5885646
:EIG00011:       0.5885646    0.5885646    0.6587014    0.6587014    0.6587014
:EIG00016:       0.8190853    0.8190853    1.2140183    1.4279675    1.4279675
:EIG00021:       1.4279675    1.5298722    2.1622353    2.1622353    2.1622353
:EIG00026:       2.2281711    2.2281711    2.2281711    2.4446012    2.4446012
:EIG00031:       2.7789078    2.9453528    2.9453528    2.9453528    3.3700318
:EIG00036:       3.3700318    3.5999116    3.5999116    3.5999116    3.6404874
:EIG00041:       3.6404874    3.6404874    3.7826319    3.7826319    3.7826319
:EIG00046:       4.0326792    4.0498938    4.0498938    4.0498938    4.1481558
 
:EIG00051:       4.1481558    4.1920032    4.1920032    4.1920032    4.2192825
:EIG00056:       4.2192825    4.2192825    4.3256970    4.3535094    4.4806435
:EIG00061:       4.4806435    4.4806435    4.5738229    4.5738229    4.5738229
:EIG00066:       4.7917041    5.8027138    5.8027138    5.8053096    6.1104318
:EIG00071:       6.1104318    6.1104318    6.5569441    6.5569441    6.7321784
:EIG00076:       6.7321784    6.7321784    6.7890427    6.7890427    6.7890427
:EIG00081:       7.0741128    7.0741128    7.0741128    7.1041443    7.1041443
:EIG00086:       7.1156648    7.1156648    7.1156648    7.1780846    7.1780846
:EIG00091:       7.1780846    7.2772501    7.2772501    7.2772501    7.2832036
:EIG00096:       7.2832036    7.2832036    7.3611862    7.4374004    7.5142692
 
:EIG00101:       7.5142692    7.5513872    7.5513872    7.5513872    7.5691410
:EIG00106:       7.5691410    7.5691410    7.5885640    7.5885640    7.5885640
:EIG00111:       7.6725485    7.6725485    7.9396985    8.0017650
       ********************************************************

:KPT   :      NUMBER OF K-POINTS:   165

------- case.scfso --------
   0.0   0.0 angle (M,z), angle (M,x) deg
 
        SPIN-ORBIT EIGENVALUES:
     K=   0.00000   0.00000   0.00000            1
      MATRIX SIZE=  228   WEIGHT= 1.00
     EIGENVALUES ARE:
          -2.0954223   -2.0954223   -0.8841174   -0.8841174   -0.6699082
          -0.6699082   -0.6699082   -0.6699082    0.2772318    0.2772318
           0.5430488    0.5430488    0.5541609    0.5541609    0.5541609
           0.5541609    0.5763828    0.5763828    0.5886966    0.5886966
           0.5955398    0.5955398    0.5955398    0.5955398    0.6550166
           0.6550166    0.6550166    0.6550166    0.6649173    0.6649173
           0.8194630    0.8194630    0.8194630    0.8194630    1.2140760
           1.2140760    1.4229937    1.4229937    1.4302322    1.4302322

           1.4302322    1.4302322    1.5298722    1.5298722    2.1573459
           2.1573459    2.1573459    2.1573459    2.1584769    2.1584769
           2.1715111    2.1715111    2.2638850    2.2638850    2.2638850
           2.2638850    2.4448868    2.4448868    2.4448868    2.4448868
           2.7789078    2.7789078    2.9449135    2.9449135    2.9455862
           2.9455862    2.9455862    2.9455862    3.3700064    3.3700064
           3.3700064    3.3700064    3.5985862    3.5985862    3.5985862
           3.5985862    3.6028122    3.6028122    3.6103245    3.6103245

           3.6569587    3.6569587    3.6569587    3.6569587    3.7826242
           3.7826242    3.7826357    3.7826357    3.7826357    3.7826357
           4.0326792    4.0326792    4.0498491    4.0498491    4.0498491
           4.0498491    4.0499887    4.0499887    4.1481558    4.1481558
           4.1481558    4.1481558    4.1918434    4.1918434    4.1920721
           4.1920721    4.1920721    4.1920721    4.2190562    4.2190562
           4.2190562    4.2190562    4.2197763    4.2197763    4.3257020
           4.3257020    4.3535094    4.3535094    4.4805853    4.4805853

           4.4805853    4.4805853    4.4807639    4.4807639
       ********************************************************

------- case.scf2 --------
:GMA  : POTENTIAL AND CHARGE CUT-OFF  12.00 Ry**.5




:POS001: at.nr.   1 position = 0.00000 0.00000 0.50000  multiplicity =  1

       lmmax  5
       lm=   0 0  4 0  4 4  6 0  6 4
:FER gutzwiller fermi energy   0.55085
:EORB         -0.047463742
:SUM sum of gutz band energies         -6.275845631

:CHA001: total charge inside sphere   1 =     9.999664
:PCS001: partial charges sphere =  1 s,p,d,f,      d-eg,d-t2g 
:QTL001: 2.0274 5.3581 0.6450 1.9689 0.0000 0.0000 0.0000 0.2302 0.4148 0.0000 0.0000 0.0000

:CHA  : total charge inside unit cell =       6.500000

------- case.scfc --------

        1.ATOM      Pr                   14 CORE STATES
:1S 001: 1S               -3067.026275475 Ry
:2S 001: 2S                -492.775856046 Ry
:2PP001: 2P*               -465.875811975 Ry
:2P 001: 2P                -430.478020928 Ry
:3S 001: 3S                -105.859885744 Ry
:3PP001: 3P*                -94.397986675 Ry
:3P 001: 3P                 -87.390026160 Ry
:3DD001: 3D*                -67.317683124 Ry
:3D 001: 3D                 -65.806042699 Ry
:4S 001: 4S                 -20.546391841 Ry
:4PP001: 4P*                -16.254114060 Ry
:4P 001: 4P                 -14.728032141 Ry
:4DD001: 4D*                 -7.663550071 Ry
:4D 001: 4D                  -7.394610759 Ry

------- case.scfm --------
:CINT001 Core Integral Atom   1   45.999506

       DENSITY AT NUCLEUS
        JATOM        VALENCE       SEMI-CORE          CORE           TOTAL
:RTO001:   1      647.820206        0.000000   656823.236384   657471.056589
     
       CHARGES OF NEW CHARGE DENSITY
:NTO   : INTERSTITIAL CHARGE =     3.000321
:NPC   : PW Pseudocharge     =     7.612439
:NTO001: CHARGE SPHERE  1    =    55.999170

:NEC01: NUCLEAR AND ELECTRONIC CHARGE     59.00000    58.99949
     
       CHARGES OF OLD CHARGE DENSITY
:OTO   : INTERSTITIAL CHARGE =     2.916000
:OPC   : PW Pseudocharge     =     7.555344
:OTO001: CHARGE SPHERE  1    =    56.084000

:NEC02: NUCLEAR AND ELECTRONIC CHARGE     59.00000    59.00000
     
       CONVERGENCE TEST
:DTO001: DIFFERENCE IN SPHERE  1 =  0.1476208

:DIS  :  CHARGE DISTANCE       ( 0.1476208 for atom    1 spin 1)      0.1476208
 PW Mixed is           56
 
******************************************************
* MULTISECANT MIXING VER9 RELEASE 10.4.0              *
* Standard Mode with controls                        *
* Fixed density scale                                *
* Regularization       1.000E-04                     *
* Trust Upper Limit    5.000E+00                     *
* Max Number of Memory Steps    8                    *
******************************************************
 
:PWTMP   1.9360E+02  1.2500E+02  2.5905E+02
:PLANE:  PW TOTAL      2.8737 DISTAN   5.41E-02  1.88E+00 %
:CHARG:  CLM/ATOM    977.1793 DISTAN   1.95E-01  2.00E-02 %
 
Step History
        DMIX         DMIXT        Red     Pred      Trust     Lambda    MagRel    MagAbs     Beta
  1   3.5000E-02   3.5000E-02 -1.00E+00  1.00E+00 -1.00E+01  1.00E+00  3.50E-02  3.50E-02  1.00E+00
  2   2.5000E-02   2.5000E-02  9.80E-01  1.00E+00 -1.00E+01  1.00E+00  2.50E-02  1.14E-02  1.00E+00
  3   2.9275E-02   2.9275E-02  8.40E-01  1.00E+00 -1.00E+01  8.68E-01  2.93E-02  1.31E-02  1.00E+00
  4   7.3188E-02   3.3089E-02  8.99E-01  8.70E-01  2.30E-01  7.39E-01  2.30E-01  8.65E-02  1.00E+00
  5   1.8297E-01   1.5831E-01 -1.00E+00  3.64E-01  6.06E-01  1.00E+00  6.06E-01  2.05E-01  1.00E+00
:JACOBIANS    8.259E-01   8.023E-01
  
:NORMS:  1/Froebius, Min, Max, Used   0.9574E+00  0.5892E+00  0.9996E+00  0.9574E+00
:INFO :  Number of Memory Steps    4 Skipping    0
:INFO :  SLambda=    0.4736784617  Max    0.4736784617
:PREDicted Charge, CTotal, PW Trust    2.178E-02   2.178E-02   2.180E-02
:PREDicted DMix, Beta, BLim   1.1138E-02  1.4040E+00  9.7366E-01

Eigenvalues, unscaled except for SY+YY
   #     SY Real        SY Imag          SS             YY         SY+YY Real      SY+YY Imag
   1   3.368677E+00   0.000000E+00   3.440749E+00   3.774888E+00   5.370541E+00   0.000000E+00
   2   2.244054E-01   0.000000E+00   2.257319E-01   2.245826E-01   3.308794E-01   0.000000E+00
   3  -1.179971E-14   0.000000E+00   4.475815E-07   5.277059E-04   5.437603E-04   0.000000E+00
   4   1.005377E-06   0.000000E+00   1.198133E-17   1.940057E-06   2.298155E-06   0.000000E+00
 
:INFO :  Singular value  5.371E+00 Weight  1.000E+00 Projection -3.674E-02
:INFO :  Singular value  3.309E-01 Weight  1.000E+00 Projection -8.929E-02
:INFO :  Singular value  5.438E-04 Weight  6.748E-01 Projection  5.562E+00
:INFO :  Singular value  2.298E-06 Weight  3.706E-05 Projection -4.175E-04
:RANK :  ACTIVE   2.67/4  =  66.87 % ; YY RANK   2.66/4  =  66.54 %
 
:BLIM :  VZERO Control Off
:TRUST:  Step 8.08E-01  Charge 7.50E-02 (e) CTO  2.50E-01 (e) PW  3.50E-01 (e)
:DIRM :  MEMORY  4/8  SCALE   1.000 RED  0.60 PRED  0.36 NEXT  0.33 
:TRAVE:  Charge 6.55E-03 (e) CTO  6.55E-03 (e) PW  1.18E-02 (e)
:DIRP :  |MSR1|= 4.978E-02 |PRATT|= 5.413E-02 ANGLE=  20.4 DEGREES
:DIRQ :  |MSR1|= 8.722E-02 |PRATT|= 1.951E-01 ANGLE=  54.1 DEGREES
:DIRT :  |MSR1|= 1.004E-01 |PRATT|= 2.024E-01 ANGLE=  52.0 DEGREES
:MIX  :   MSD1   REGULARIZATION:  3.77E-04 GREED: 0.07319  Newton 1.00  0.4961                
     
       CHARGES OF MIXED CHARGE DENSITY
:CTO   : INTERSTITIAL CHARGE =     2.911188
:CPC   : PW Pseudocharge     =     7.580585
:CTO001: CHARGE SPHERE  1    =    56.088812

:NEC03: NUCLEAR AND ELECTRONIC CHARGE     59.00000    59.00000

PW CHANGE     H    K    L      Current       Change    Residue
:PTO001:      0    0    0  4.05005393E-02  7.886E-05  5.528E-04
:PTO002:     -1   -1   -1 -1.29282045E-01 -8.691E-04 -9.335E-04
:PTO003:      0    0   -2  7.73621240E-02  7.112E-04  6.866E-04
:PTO004:      0   -2   -2  6.75686023E-02  1.281E-03  1.309E-03
:PTO005:     -1   -1   -3 -6.57114887E-02 -2.600E-03 -2.517E-03
:PTO006:     -2   -2   -2  1.71353615E-02  9.078E-04  9.299E-04
:PTO007:      0    0   -4  3.21805431E-03  6.049E-04  5.746E-04
:PTO008:     -1   -3   -3 -2.00720335E-03 -2.035E-03 -2.010E-03
:PTO009:      0   -2   -4 -1.04243496E-03  1.942E-03  1.861E-03
:PTO010:     -2   -2   -4 -6.29511025E-03  1.774E-03  1.791E-03
:PTO011:     -3   -3   -3  2.39236633E-03 -5.604E-04 -5.935E-04
:PTO012:     -1   -1   -5  7.60877668E-03 -1.539E-03 -1.511E-03

:ENE  : ********** TOTAL ENERGY IN Ry =       -18472.12039082


------- case.scf0 --------
 Flat Integration
 New Mode for Coulomb Integral
 Consistent 3/8+Simpson combinations
 Extension of core to zero
 LDM version in phi
 Fifth-order quadrature in outwin


            ---------
:ITE029: 29. ITERATION
            ---------

:NATO :    1 INDEPENDENT AND    1 TOTAL ATOMS IN UNITCELL
       SUBSTANCE: blebleble                                                   

       LATTICE                      = F   
:POT  : POTENTIAL OPTION EX_LDA EC_LDA VX_LDA VC_LDA
:LAT  : LATTICE CONSTANTS= 10.11927 10.11927 10.11927    1.571    1.571    1.571
:VOL  : UNIT CELL VOLUME =     259.05267
       MODE OF CALCULATION IS       = RELA
       NON-SPINPOLARIZED CALCULATION
:IFFT  : FFT-parameters:   80   80   80 Factor: 2.00


   CONVERGENCE PARAMETER FOR PSEUDOCHARGE: NCON=  9
   MAXIMAL VALUE OF RMT(JATOM)*ABSK(NKK) : RK  =29.93932


:VKCOUL :  VK-COUL convergence: 0.584E-07
       ATOMNUMBER=  1 Pr         VCOUL-ZERO =  0.18188E+00
:FIT001: LUSE= 13 SIGMA OF V-XC FIT FOR ATOM  1  0.1297579E-04
:FIT001: LUSE= 13 SIGMA OF V-XC FIT FOR ATOM  1  0.1297579E-04
:DEN  : DENSITY INTEGRAL  =         -7071.17884982   (Ry)
       ELS_POTENTIAL_AT Z=0 and Z=0.5:  -2.41021  -2.41021
       ELS_POTENTIAL_AT Y=0 and Y=0.5:   0.00000   0.00000
:VZERO:v0,v0c,v0x  -3.36752  -2.41021  -0.95731 v5,v5c,v5x  -3.36752  -2.41021  -0.95731
:VZERY:v0,v0c,v0x  -0.68926   0.00000  -0.68926 v5,v5c,v5x  -0.68926   0.00000  -0.68926
:VZERX:v0,v0c,v0x  -0.68926   0.00000  -0.68926 v5,v5c,v5x  -0.68926   0.00000  -0.68926

------- case.scf1 --------
:LMAX-WF:   10   Non-Spherical LMAX:   4

          ATOMIC SPHERE DEPENDENT PARAMETERS FOR ATOM  Pr        
:e__0001: OVERALL ENERGY PARAMETER IS    0.3274
          OVERALL BASIS SET ON ATOM IS LAPW
:E0_0001: E( 0)=    0.3274
             APW+lo
:E0_0001: E( 0)=   -2.1340   E(BOTTOM)=   -2.518   E(TOP)=   -1.750  4  5   162
             LOCAL ORBITAL
:E1_0001: E( 1)=    0.7274
             APW+lo
:E1_0001: E( 1)=   -0.7492   E(BOTTOM)=   -1.400   E(TOP)=   -0.099  3  4   163
             LOCAL ORBITAL
:E3_0001: E( 3)=    0.5548   E(BOTTOM)=    0.408   E(TOP)=    0.701  0  1   124
             APW+lo
:E2_0001: E( 2)=    0.3274   E(BOTTOM)=    0.173   E(TOP)= -200.000  2 -1    90
             APW+lo

       K=   0.00000   0.00000   0.00000            1
:RKM  : MATRIX SIZE   189LOs:  20  RKM= 8.07  WEIGHT= 1.00  PGR:    
       EIGENVALUES ARE:
:EIG00001:      -2.0926966   -0.7361644   -0.7361644   -0.7361644    0.2767130
:EIG00006:       0.5519946    0.5699210    0.5699210    0.5699210    0.5940026
:EIG00011:       0.5940026    0.5940026    0.6588180    0.6588180    0.6588180
:EIG00016:       0.8195950    0.8195950    1.2140497    1.4277259    1.4277259
:EIG00021:       1.4277259    1.5288736    2.1626289    2.1626289    2.1626289
:EIG00026:       2.2283762    2.2283762    2.2283762    2.4445407    2.4445407
:EIG00031:       2.7787823    2.9449478    2.9449478    2.9449478    3.3699823
:EIG00036:       3.3699823    3.5996846    3.5996846    3.5996846    3.6399771
:EIG00041:       3.6399771    3.6399771    3.7822735    3.7822735    3.7822735
:EIG00046:       4.0324174    4.0490887    4.0490887    4.0490887    4.1472645
 
:EIG00051:       4.1472645    4.1911566    4.1911566    4.1911566    4.2186192
:EIG00056:       4.2186192    4.2186192    4.3247815    4.3530538    4.4797053
:EIG00061:       4.4797053    4.4797053    4.5729511    4.5729511    4.5729511
:EIG00066:       4.7908501    5.8022338    5.8022338    5.8047984    6.1098623
:EIG00071:       6.1098623    6.1098623    6.5571354    6.5571354    6.7323182
:EIG00076:       6.7323182    6.7323182    6.7890967    6.7890967    6.7890967
:EIG00081:       7.0735311    7.0735311    7.0735311    7.1034183    7.1034183
:EIG00086:       7.1153638    7.1153638    7.1153638    7.1774693    7.1774693
:EIG00091:       7.1774693    7.2767711    7.2767711    7.2767711    7.2826135
:EIG00096:       7.2826135    7.2826135    7.3605214    7.4366812    7.5137005
 
:EIG00101:       7.5137005    7.5505889    7.5505889    7.5505889    7.5681899
:EIG00106:       7.5681899    7.5681899    7.5878095    7.5878095    7.5878095
:EIG00111:       7.6717853    7.6717853    7.9385215    8.0015573
       ********************************************************

:KPT   :      NUMBER OF K-POINTS:   165

------- case.scfso --------
   0.0   0.0 angle (M,z), angle (M,x) deg
 
        SPIN-ORBIT EIGENVALUES:
     K=   0.00000   0.00000   0.00000            1
      MATRIX SIZE=  228   WEIGHT= 1.00
     EIGENVALUES ARE:
          -2.0926966   -2.0926966   -0.8819293   -0.8819293   -0.6679485
          -0.6679485   -0.6679485   -0.6679485    0.2767130    0.2767130
           0.5477531    0.5477531    0.5592818    0.5592818    0.5592818
           0.5592818    0.5813885    0.5813885    0.5940380    0.5940380
           0.6009104    0.6009104    0.6009104    0.6009104    0.6551447
           0.6551447    0.6551447    0.6551447    0.6650180    0.6650180
           0.8199697    0.8199697    0.8199697    0.8199697    1.2141086
           1.2141086    1.4227746    1.4227746    1.4299804    1.4299804

           1.4299804    1.4299804    1.5288736    1.5288736    2.1577400
           2.1577400    2.1577400    2.1577400    2.1586888    2.1586888
           2.1719026    2.1719026    2.2640834    2.2640834    2.2640834
           2.2640834    2.4448264    2.4448264    2.4448264    2.4448264
           2.7787823    2.7787823    2.9445065    2.9445065    2.9451822
           2.9451822    2.9451822    2.9451822    3.3699567    3.3699567
           3.3699567    3.3699567    3.5983581    3.5983581    3.5983581
           3.5983581    3.6025878    3.6025878    3.6097872    3.6097872

           3.6564633    3.6564633    3.6564633    3.6564633    3.7822659
           3.7822659    3.7822773    3.7822773    3.7822773    3.7822773
           4.0324174    4.0324174    4.0490441    4.0490441    4.0490441
           4.0490441    4.0491833    4.0491833    4.1472645    4.1472645
           4.1472645    4.1472645    4.1909960    4.1909960    4.1912257
           4.1912257    4.1912257    4.1912257    4.2183923    4.2183923
           4.2183923    4.2183923    4.2191144    4.2191144    4.3247865
           4.3247865    4.3530538    4.3530538    4.4796470    4.4796470

           4.4796470    4.4796470    4.4798259    4.4798259
       ********************************************************

------- case.scf2 --------
:GMA  : POTENTIAL AND CHARGE CUT-OFF  12.00 Ry**.5




:POS001: at.nr.   1 position = 0.00000 0.00000 0.50000  multiplicity =  1

       lmmax  5
       lm=   0 0  4 0  4 4  6 0  6 4
:FER gutzwiller fermi energy   0.55155
:EORB         -0.039289507
:SUM sum of gutz band energies         -6.257689747

:CHA001: total charge inside sphere   1 =     9.990715
:PCS001: partial charges sphere =  1 s,p,d,f,      d-eg,d-t2g 
:QTL001: 2.0272 5.3567 0.6461 1.9605 0.0000 0.0000 0.0000 0.2303 0.4157 0.0000 0.0000 0.0000

:CHA  : total charge inside unit cell =       6.500000

------- case.scfc --------

        1.ATOM      Pr                   14 CORE STATES
:1S 001: 1S               -3067.020449499 Ry
:2S 001: 2S                -492.769072518 Ry
:2PP001: 2P*               -465.869236432 Ry
:2P 001: 2P                -430.471367528 Ry
:3S 001: 3S                -105.851618309 Ry
:3PP001: 3P*                -94.389790512 Ry
:3P 001: 3P                 -87.381778666 Ry
:3DD001: 3D*                -67.309605903 Ry
:3D 001: 3D                 -65.797942792 Ry
:4S 001: 4S                 -20.538842095 Ry
:4PP001: 4P*                -16.246683281 Ry
:4P 001: 4P                 -14.720759271 Ry
:4DD001: 4D*                 -7.656608095 Ry
:4D 001: 4D                  -7.387726269 Ry

------- case.scfm --------
:CINT001 Core Integral Atom   1   45.999504

       DENSITY AT NUCLEUS
        JATOM        VALENCE       SEMI-CORE          CORE           TOTAL
:RTO001:   1      647.367104        0.000000   656823.240600   657470.607704
     
       CHARGES OF NEW CHARGE DENSITY
:NTO   : INTERSTITIAL CHARGE =     3.009174
:NPC   : PW Pseudocharge     =     7.616287
:NTO001: CHARGE SPHERE  1    =    55.990219

:NEC01: NUCLEAR AND ELECTRONIC CHARGE     59.00000    58.99939
     
       CHARGES OF OLD CHARGE DENSITY
:OTO   : INTERSTITIAL CHARGE =     2.911188
:OPC   : PW Pseudocharge     =     7.580585
:OTO001: CHARGE SPHERE  1    =    56.088812

:NEC02: NUCLEAR AND ELECTRONIC CHARGE     59.00000    59.00000
     
       CONVERGENCE TEST
:DTO001: DIFFERENCE IN SPHERE  1 =  0.1713073

:DIS  :  CHARGE DISTANCE       ( 0.1713073 for atom    1 spin 1)      0.1713073
 PW Mixed is           56
 
******************************************************
* MULTISECANT MIXING VER9 RELEASE 10.4.0              *
* Standard Mode with controls                        *
* Fixed density scale                                *
* Regularization       1.000E-04                     *
* Trust Upper Limit    5.000E+00                     *
* Max Number of Memory Steps    8                    *
******************************************************
 
:PWTMP   1.9360E+02  1.2500E+02  2.5905E+02
:PLANE:  PW TOTAL      2.8955 DISTAN   2.09E-02  7.22E-01 %
:CHARG:  CLM/ATOM    977.1763 DISTAN   1.77E-01  1.81E-02 %
 
Step History
        DMIX         DMIXT        Red     Pred      Trust     Lambda    MagRel    MagAbs     Beta
  1   3.5000E-02   3.5000E-02 -1.00E+00  1.00E+00 -1.00E+01  1.00E+00  3.50E-02  3.50E-02  1.00E+00
  2   2.5000E-02   2.5000E-02  9.80E-01  1.00E+00 -1.00E+01  1.00E+00  2.50E-02  1.14E-02  1.00E+00
  3   2.9275E-02   2.9275E-02  8.40E-01  1.00E+00 -1.00E+01  8.68E-01  2.93E-02  1.31E-02  1.00E+00
  4   7.3188E-02   3.3089E-02  8.99E-01  8.70E-01  2.30E-01  7.39E-01  2.30E-01  8.65E-02  1.00E+00
  5   1.8297E-01   1.5831E-01  6.00E-01  3.64E-01  6.06E-01  4.74E-01  6.06E-01  2.05E-01  1.00E+00
  6   7.3188E-02   7.3188E-02 -1.00E+00  3.25E-01  8.08E-01  1.00E+00  4.96E-01  1.00E-01  1.00E+00
:JACOBIANS    9.137E-01   1.021E+00
  
:NORMS:  1/Froebius, Min, Max, Used   0.9739E+00  0.4924E+00  0.9993E+00  0.9744E+00
:INFO :  Number of Memory Steps    5 Skipping    0
:INFO :  SLambda=    1.0000000000  Max    1.0000000000
:PREDicted Charge, CTotal, PW Trust    1.613E-02   1.613E-02   2.417E-02
:PREDicted DMix, Beta, BLim   2.7476E-01  1.1617E+00  7.5402E-01

Eigenvalues, unscaled except for SY+YY
   #     SY Real        SY Imag          SS             YY         SY+YY Real      SY+YY Imag
   1   4.416148E+00   0.000000E+00   4.494921E+00   4.734588E+00   9.150140E+00   0.000000E+00
   2   2.446982E-01   0.000000E+00   2.470085E-01   2.583654E-01   5.033510E-01   0.000000E+00
   3   1.946125E-03   0.000000E+00   4.903984E-04   6.990134E-03   9.244860E-03   0.000000E+00
   4   2.895775E-07   0.000000E+00   1.702238E-07   5.638635E-05   5.612206E-05   0.000000E+00
   5  -3.905691E-15   0.000000E+00  -5.076112E-16   5.029958E-07   6.185351E-07   0.000000E+00
 
:INFO :  Singular value  9.150E+00 Weight  1.000E+00 Projection  1.584E-04
:INFO :  Singular value  5.034E-01 Weight  1.000E+00 Projection -3.047E-02
:INFO :  Singular value  9.253E-03 Weight  9.974E-01 Projection -1.961E+00
:INFO :  Singular value  5.615E-05 Weight  1.387E-02 Projection  9.862E-02
:INFO :  Singular value  6.176E-07 Weight  1.702E-06 Projection -3.843E-06
:RANK :  ACTIVE   3.01/5  =  60.23 % ; YY RANK   3.01/5  =  60.19 %
 
:BLIM :  VZERO Control Off
:TRUST:  Step 9.20E-01  Charge 6.00E-02 (e) CTO  2.00E-01 (e) PW  2.80E-01 (e)
:DIRM :  MEMORY  5/8  SCALE   1.000 RED  0.88 PRED  0.33 NEXT  0.30 
:TRAVE:  Charge 1.48E-02 (e) CTO  1.48E-02 (e) PW  1.38E-02 (e)
:DIRP :  |MSR1|= 5.089E-03 |PRATT|= 2.090E-02 ANGLE=   5.4 DEGREES
:DIRQ :  |MSR1|= 4.613E-02 |PRATT|= 1.767E-01 ANGLE=  13.1 DEGREES
:DIRT :  |MSR1|= 4.641E-02 |PRATT|= 1.779E-01 ANGLE=  13.0 DEGREES
:MIX  :   MSR1   REGULARIZATION:  4.73E-04 GREED: 0.18297  Newton 1.00  0.2609                
     
       CHARGES OF MIXED CHARGE DENSITY
:CTO   : INTERSTITIAL CHARGE =     2.934292
:CPC   : PW Pseudocharge     =     7.590209
:CTO001: CHARGE SPHERE  1    =    56.065708

:NEC03: NUCLEAR AND ELECTRONIC CHARGE     59.00000    59.00000

PW CHANGE     H    K    L      Current       Change    Residue
:PTO001:      0    0    0  4.06268769E-02  1.263E-04  5.243E-04
:PTO002:     -1   -1   -1 -1.29319069E-01 -3.702E-05 -8.034E-05
:PTO003:      0    0   -2  7.73543594E-02 -7.765E-06 -2.727E-05
:PTO004:      0   -2   -2  6.75599542E-02 -8.648E-06  1.695E-05
:PTO005:     -1   -1   -3 -6.56622772E-02  4.921E-05  1.275E-04
:PTO006:     -2   -2   -2  1.71452057E-02  9.844E-06  1.689E-05
:PTO007:      0    0   -4  3.20766404E-03 -1.039E-05 -3.928E-05
:PTO008:     -1   -3   -3 -2.00023683E-03  6.967E-06  4.573E-05
:PTO009:      0   -2   -4 -1.06989958E-03 -2.746E-05 -1.049E-04
:PTO010:     -2   -2   -4 -6.27459521E-03  2.052E-05  1.006E-05
:PTO011:     -3   -3   -3  2.37306038E-03 -1.931E-05 -3.460E-05
:PTO012:     -1   -1   -5  7.60432490E-03 -4.452E-06  3.489E-05

:ENE  : ********** TOTAL ENERGY IN Ry =       -18472.12170658


------- case.scf0 --------
 Flat Integration
 New Mode for Coulomb Integral
 Consistent 3/8+Simpson combinations
 Extension of core to zero
 LDM version in phi
 Fifth-order quadrature in outwin


            ---------
:ITE030: 30. ITERATION
            ---------

:NATO :    1 INDEPENDENT AND    1 TOTAL ATOMS IN UNITCELL
       SUBSTANCE: blebleble                                                   

       LATTICE                      = F   
:POT  : POTENTIAL OPTION EX_LDA EC_LDA VX_LDA VC_LDA
:LAT  : LATTICE CONSTANTS= 10.11927 10.11927 10.11927    1.571    1.571    1.571
:VOL  : UNIT CELL VOLUME =     259.05267
       MODE OF CALCULATION IS       = RELA
       NON-SPINPOLARIZED CALCULATION
:IFFT  : FFT-parameters:   80   80   80 Factor: 2.00


   CONVERGENCE PARAMETER FOR PSEUDOCHARGE: NCON=  9
   MAXIMAL VALUE OF RMT(JATOM)*ABSK(NKK) : RK  =29.93932


:VKCOUL :  VK-COUL convergence: 0.569E-07
       ATOMNUMBER=  1 Pr         VCOUL-ZERO =  0.18181E+00
:FIT001: LUSE= 13 SIGMA OF V-XC FIT FOR ATOM  1  0.1322273E-04
:FIT001: LUSE= 13 SIGMA OF V-XC FIT FOR ATOM  1  0.1322273E-04
:DEN  : DENSITY INTEGRAL  =         -7068.54934887   (Ry)
       ELS_POTENTIAL_AT Z=0 and Z=0.5:  -2.42183  -2.42183
       ELS_POTENTIAL_AT Y=0 and Y=0.5:   0.00000   0.00000
:VZERO:v0,v0c,v0x  -3.37982  -2.42183  -0.95799 v5,v5c,v5x  -3.37982  -2.42183  -0.95799
:VZERY:v0,v0c,v0x  -0.69048   0.00000  -0.69048 v5,v5c,v5x  -0.69048   0.00000  -0.69048
:VZERX:v0,v0c,v0x  -0.69048   0.00000  -0.69048 v5,v5c,v5x  -0.69048   0.00000  -0.69048

------- case.scf1 --------
:LMAX-WF:   10   Non-Spherical LMAX:   4

          ATOMIC SPHERE DEPENDENT PARAMETERS FOR ATOM  Pr        
:e__0001: OVERALL ENERGY PARAMETER IS    0.3274
          OVERALL BASIS SET ON ATOM IS LAPW
:E0_0001: E( 0)=    0.3274
             APW+lo
:E0_0001: E( 0)=   -2.1518   E(BOTTOM)=   -2.533   E(TOP)=   -1.770  4  5   170
             LOCAL ORBITAL
:E1_0001: E( 1)=    0.7274
             APW+lo
:E1_0001: E( 1)=   -0.7644   E(BOTTOM)=   -1.411   E(TOP)=   -0.117  3  4   164
             LOCAL ORBITAL
:E3_0001: E( 3)=    0.5232   E(BOTTOM)=    0.381   E(TOP)=    0.666  0  1   116
             APW+lo
:E2_0001: E( 2)=    0.3274   E(BOTTOM)=    0.164   E(TOP)= -200.000  2 -1    93
             APW+lo

       K=   0.00000   0.00000   0.00000            1
:RKM  : MATRIX SIZE   189LOs:  20  RKM= 8.07  WEIGHT= 1.00  PGR:    
       EIGENVALUES ARE:
:EIG00001:      -2.1101890   -0.7500296   -0.7500296   -0.7500296    0.2762256
:EIG00006:       0.5232696    0.5393605    0.5393605    0.5393605    0.5615739
:EIG00011:       0.5615739    0.5615739    0.6547296    0.6547296    0.6547296
:EIG00016:       0.8137535    0.8137535    1.2105966    1.4260255    1.4260255
:EIG00021:       1.4260255    1.5312816    2.1570826    2.1570826    2.1570826
:EIG00026:       2.2241222    2.2241222    2.2241222    2.4409983    2.4409983
:EIG00031:       2.7763007    2.9436341    2.9436341    2.9436341    3.3671854
:EIG00036:       3.3671854    3.5976690    3.5976690    3.5976690    3.6395058
:EIG00041:       3.6395058    3.6395058    3.7811648    3.7811648    3.7811648
:EIG00046:       4.0306295    4.0498066    4.0498066    4.0498066    4.1485184
 
:EIG00051:       4.1485184    4.1918992    4.1918992    4.1918992    4.2194488
:EIG00056:       4.2194488    4.2194488    4.3265208    4.3522827    4.4816060
:EIG00061:       4.4816060    4.4816060    4.5743227    4.5743227    4.5743227
:EIG00066:       4.7924828    5.8013798    5.8013798    5.8041615    6.1097315
:EIG00071:       6.1097315    6.1097315    6.5519912    6.5519912    6.7277765
:EIG00076:       6.7277765    6.7277765    6.7853810    6.7853810    6.7853810
:EIG00081:       7.0732174    7.0732174    7.0732174    7.1039080    7.1039080
:EIG00086:       7.1132418    7.1132418    7.1132418    7.1774766    7.1774766
:EIG00091:       7.1774766    7.2761217    7.2761217    7.2761217    7.2824372
:EIG00096:       7.2824372    7.2824372    7.3610247    7.4370249    7.5133266
 
:EIG00101:       7.5133266    7.5516508    7.5516508    7.5516508    7.5700785
:EIG00106:       7.5700785    7.5700785    7.5888189    7.5888189    7.5888189
:EIG00111:       7.6723236    7.6723236    7.9414410    7.9995880
       ********************************************************

:KPT   :      NUMBER OF K-POINTS:   165

------- case.scfso --------
   0.0   0.0 angle (M,z), angle (M,x) deg
 
        SPIN-ORBIT EIGENVALUES:
     K=   0.00000   0.00000   0.00000            1
      MATRIX SIZE=  228   WEIGHT= 1.00
     EIGENVALUES ARE:
          -2.1101890   -2.1101890   -0.8966014   -0.8966014   -0.6814228
          -0.6814228   -0.6814228   -0.6814228    0.2762256    0.2762256
           0.5185186    0.5185186    0.5282992    0.5282992    0.5282992
           0.5282992    0.5510237    0.5510237    0.5620866    0.5620866
           0.5688294    0.5688294    0.5688294    0.5688294    0.6509972
           0.6509972    0.6509972    0.6509972    0.6610118    0.6610118
           0.8141436    0.8141436    0.8141436    0.8141436    1.2106492
           1.2106492    1.4209617    1.4209617    1.4283308    1.4283308

           1.4283308    1.4283308    1.5312816    1.5312816    2.1521857
           2.1521857    2.1521857    2.1521857    2.1543851    2.1543851
           2.1663760    2.1663760    2.2598710    2.2598710    2.2598711
           2.2598711    2.4412844    2.4412844    2.4412844    2.4412844
           2.7763007    2.7763007    2.9432025    2.9432025    2.9438632
           2.9438632    2.9438632    2.9438632    3.3671607    3.3671607
           3.3671607    3.3671607    3.5963486    3.5963486    3.5963486
           3.5963486    3.6005578    3.6005578    3.6094540    3.6094540

           3.6559155    3.6559155    3.6559155    3.6559155    3.7811571
           3.7811571    3.7811686    3.7811686    3.7811686    3.7811686
           4.0306295    4.0306295    4.0497615    4.0497615    4.0497615
           4.0497615    4.0499025    4.0499025    4.1485184    4.1485184
           4.1485184    4.1485184    4.1917423    4.1917423    4.1919672
           4.1919672    4.1919672    4.1919672    4.2192254    4.2192254
           4.2192254    4.2192254    4.2199354    4.2199354    4.3265256
           4.3265256    4.3522827    4.3522827    4.4815483    4.4815483

           4.4815483    4.4815483    4.4817253    4.4817253
       ********************************************************

------- case.scf2 --------
:GMA  : POTENTIAL AND CHARGE CUT-OFF  12.00 Ry**.5




:POS001: at.nr.   1 position = 0.00000 0.00000 0.50000  multiplicity =  1

       lmmax  5
       lm=   0 0  4 0  4 4  6 0  6 4
:FER gutzwiller fermi energy   0.54772
:EORB         -0.097234943
:SUM sum of gutz band energies         -6.386376012

:CHA001: total charge inside sphere   1 =    10.022133
:PCS001: partial charges sphere =  1 s,p,d,f,      d-eg,d-t2g 
:QTL001: 2.0282 5.3656 0.6500 1.9781 0.0000 0.0000 0.0000 0.2316 0.4183 0.0000 0.0000 0.0000

[...]
     
       CHARGES OF NEW CHARGE DENSITY
:NTO   : INTERSTITIAL CHARGE =     2.957267
:NPC   : PW Pseudocharge     =     7.594202
:NTO001: CHARGE SPHERE  1    =    56.042151

:NEC01: NUCLEAR AND ELECTRONIC CHARGE     59.00000    58.99942
     
       CHARGES OF OLD CHARGE DENSITY
:OTO   : INTERSTITIAL CHARGE =     2.958494
:OPC   : PW Pseudocharge     =     7.596574
:OTO001: CHARGE SPHERE  1    =    56.041506

:NEC02: NUCLEAR AND ELECTRONIC CHARGE     59.00000    59.00000
     
       CONVERGENCE TEST
:DTO001: DIFFERENCE IN SPHERE  1 =  0.0006128

:DIS  :  CHARGE DISTANCE       ( 0.0006128 for atom    1 spin 1)      0.0006128
 PW Mixed is           56
 
******************************************************
* MULTISECANT MIXING VER9 RELEASE 10.4.0              *
* Standard Mode with controls                        *
* Fixed density scale                                *
* Regularization       1.000E-04                     *
* Trust Upper Limit    5.000E+00                     *
* Max Number of Memory Steps    8                    *
******************************************************
 
:PWTMP   1.9360E+02  1.2500E+02  2.5905E+02
:PLANE:  PW TOTAL      2.9028 DISTAN   4.62E-04  1.59E-02 %
:CHARG:  CLM/ATOM    977.1943 DISTAN   6.97E-04  7.14E-05 %
 
Step History
        DMIX         DMIXT        Red     Pred      Trust     Lambda    MagRel    MagAbs     Beta
 33   3.4502E-02   3.4502E-02  9.92E-01  6.72E-01  3.94E-02  3.28E-01  5.67E-03  9.77E-05  3.28E-01
 34   8.6255E-02   8.6255E-02  9.97E-01  5.91E-01  3.61E-02  9.13E-01  1.02E-02  1.75E-04  4.10E-01
 35   1.5291E-01   1.5079E-01  9.11E-01  4.88E-01  5.63E-02  4.81E-01  4.46E-02  7.60E-04  5.12E-01
 36   1.2549E-01   1.2549E-01  8.94E-01  3.60E-01  1.97E-01  1.51E-01  5.88E-02  9.13E-04  6.40E-01
 37   7.8616E-02   7.8616E-02  8.68E-01  2.01E-01  3.25E-01  1.41E-01  6.81E-02  9.45E-04  8.00E-01
 38   7.1587E-02   5.0239E-02  7.19E-01  4.30E-02  4.27E-01  1.93E-01  1.53E-01  1.84E-03  1.00E+00
 39   1.1916E-01   1.0123E-01  3.20E-01  3.02E-01  5.69E-01  1.00E+00  3.65E-01  3.16E-03  1.00E+00
 40   5.3645E-02   5.3237E-02  1.09E+00  3.08E-01  7.59E-01  7.81E-01  7.59E-01  2.10E-03  1.00E+00
 41   4.2063E-02   4.2063E-02 -1.00E+00  3.11E-01  6.98E-01  1.00E+00  4.15E-01  1.25E-03  8.00E-01
:JACOBIANS    2.166E-01   1.243E+00
  
:NORMS:  1/Froebius, Min, Max, Used   0.4591E+00  0.3558E+00  0.9035E+00  0.4959E+00
:INFO :  Number of Memory Steps    8 Skipping   32
:INFO :  SLambda=    0.6902059717  Max    1.1718359578
:PREDicted Charge, CTotal, PW Trust    7.077E-04   7.077E-04   6.790E-04
:PREDicted DMix, Beta, BLim   1.1555E-01  1.1860E+00  6.9069E-01

Eigenvalues, unscaled except for SY+YY
   #     SY Real        SY Imag          SS             YY         SY+YY Real      SY+YY Imag
   1   2.722385E+00   0.000000E+00   1.517457E+00   7.769095E+00   9.641928E+00   0.000000E+00
   2   1.928150E-01   0.000000E+00   1.683257E-01   2.273053E-01   3.664944E-01   0.000000E+00
   3   5.391981E-04   0.000000E+00   1.185699E-04   3.484903E-03   3.907389E-03   0.000000E+00
   4   9.465272E-06   0.000000E+00   2.847611E-06   9.002603E-05   1.140716E-04   0.000000E+00
   5   2.458595E-06   0.000000E+00   8.343729E-07   2.030276E-05   2.199256E-05   0.000000E+00
   6   3.195267E-07   0.000000E+00   5.754630E-07   2.397660E-06   1.643260E-06   0.000000E+00
   7   9.389052E-08   0.000000E+00   4.504142E-08   1.170090E-06   8.422783E-07   9.742497E-11
   8  -6.039752E-08   0.000000E+00   2.331349E-09   4.758107E-07   8.422783E-07  -9.742497E-11
 
:INFO :  Singular value  9.644E+00 Weight  1.000E+00 Projection -2.184E-04
:INFO :  Singular value  3.665E-01 Weight  1.000E+00 Projection -1.802E-04
:INFO :  Singular value  3.912E-03 Weight  9.621E-01 Projection  7.614E-03
:INFO :  Singular value  1.154E-04 Weight  2.159E-02 Projection  7.036E-04
:INFO :  Singular value  2.191E-05 Weight  7.950E-04 Projection -1.826E-05
:INFO :  Singular value  2.499E-06 Weight  1.034E-05 Projection  1.331E-06
:INFO :  Singular value  1.232E-06 Weight  2.517E-06 Projection  7.270E-08
:INFO :  Singular value  3.749E-07 Weight  2.329E-07 Projection  2.886E-07
:RANK :  ACTIVE   2.98/8  =  37.31 % ; YY RANK   2.97/8  =  37.08 %
 
:BLIM :  VZERO Control Off
:TRUST:  Step 9.31E-01  Charge 1.84E-03 (e) CTO  2.75E-03 (e) PW  3.50E-03 (e)
:DIRM :  MEMORY  8/8  SCALE   1.000 RED  0.28 PRED  0.31 NEXT  0.42 
:TRAVE:  Charge 5.26E-04 (e) CTO  5.26E-04 (e) PW  3.75E-04 (e)
:DIRP :  |MSR1|= 6.148E-05 |PRATT|= 4.618E-04 ANGLE=  61.5 DEGREES
:DIRQ :  |MSR1|= 3.427E-04 |PRATT|= 6.973E-04 ANGLE=  38.5 DEGREES
:DIRT :  |MSR1|= 3.482E-04 |PRATT|= 8.364E-04 ANGLE=  46.5 DEGREES
:MIX  :   MSD1   REGULARIZATION:  7.77E-04 GREED: 0.08771  Newton 1.00  0.4163                
     
       CHARGES OF MIXED CHARGE DENSITY
:CTO   : INTERSTITIAL CHARGE =     2.958210
:CPC   : PW Pseudocharge     =     7.596585
:CTO001: CHARGE SPHERE  1    =    56.041790

:NEC03: NUCLEAR AND ELECTRONIC CHARGE     59.00000    59.00000

PW CHANGE     H    K    L      Current       Change    Residue
:PTO001:      0    0    0  4.07438215E-02 -1.052E-06 -5.872E-06
:PTO002:     -1   -1   -1 -1.29398431E-01 -1.953E-06  1.337E-05
:PTO003:      0    0   -2  7.73291149E-02 -7.133E-08 -1.252E-05
:PTO004:      0   -2   -2  6.77439667E-02 -1.202E-06 -1.430E-05
:PTO005:     -1   -1   -3 -6.59812782E-02  2.756E-06  2.187E-05
:PTO006:     -2   -2   -2  1.72832866E-02  3.053E-08 -3.401E-06
:PTO007:      0    0   -4  3.23158325E-03 -1.570E-07 -3.135E-06
:PTO008:     -1   -3   -3 -2.11844458E-03  1.791E-06  9.908E-06
:PTO009:      0   -2   -4 -1.02599381E-03 -1.896E-06 -1.080E-05
:PTO010:     -2   -2   -4 -6.24797507E-03  7.893E-08 -4.985E-06
:PTO011:     -3   -3   -3  2.35876552E-03 -4.673E-07  4.748E-07
:PTO012:     -1   -1   -5  7.65715426E-03  4.875E-09  4.992E-06

:ENE  : ********** TOTAL ENERGY IN Ry =       -18472.12204329


------- case.scf0 --------
 Flat Integration
 New Mode for Coulomb Integral
 Consistent 3/8+Simpson combinations
 Extension of core to zero
 LDM version in phi
 Fifth-order quadrature in outwin


            ---------
:ITE065: 65. ITERATION
            ---------

:NATO :    1 INDEPENDENT AND    1 TOTAL ATOMS IN UNITCELL
       SUBSTANCE: blebleble                                                   

       LATTICE                      = F   
:POT  : POTENTIAL OPTION EX_LDA EC_LDA VX_LDA VC_LDA
:LAT  : LATTICE CONSTANTS= 10.11927 10.11927 10.11927    1.571    1.571    1.571
:VOL  : UNIT CELL VOLUME =     259.05267
       MODE OF CALCULATION IS       = RELA
       NON-SPINPOLARIZED CALCULATION
:IFFT  : FFT-parameters:   80   80   80 Factor: 2.00


   CONVERGENCE PARAMETER FOR PSEUDOCHARGE: NCON=  9
   MAXIMAL VALUE OF RMT(JATOM)*ABSK(NKK) : RK  =29.93932


:VKCOUL :  VK-COUL convergence: 0.555E-07
       ATOMNUMBER=  1 Pr         VCOUL-ZERO =  0.18111E+00
:FIT001: LUSE= 13 SIGMA OF V-XC FIT FOR ATOM  1  0.1465382E-04
:FIT001: LUSE= 13 SIGMA OF V-XC FIT FOR ATOM  1  0.1465382E-04
:DEN  : DENSITY INTEGRAL  =         -7066.99351862   (Ry)
       ELS_POTENTIAL_AT Z=0 and Z=0.5:  -2.43280  -2.43280
       ELS_POTENTIAL_AT Y=0 and Y=0.5:   0.00000   0.00000
:VZERO:v0,v0c,v0x  -3.39067  -2.43280  -0.95787 v5,v5c,v5x  -3.39067  -2.43280  -0.95787
:VZERY:v0,v0c,v0x  -0.69166   0.00000  -0.69166 v5,v5c,v5x  -0.69166   0.00000  -0.69166
:VZERX:v0,v0c,v0x  -0.69166   0.00000  -0.69166 v5,v5c,v5x  -0.69166   0.00000  -0.69166

------- case.scf1 --------
:LMAX-WF:   10   Non-Spherical LMAX:   4

          ATOMIC SPHERE DEPENDENT PARAMETERS FOR ATOM  Pr        
:e__0001: OVERALL ENERGY PARAMETER IS    0.3274
          OVERALL BASIS SET ON ATOM IS LAPW
:E0_0001: E( 0)=    0.3274
             APW+lo
:E0_0001: E( 0)=   -2.1679   E(BOTTOM)=   -2.547   E(TOP)=   -1.789  4  5   160
             LOCAL ORBITAL
:E1_0001: E( 1)=    0.7274
             APW+lo
:E1_0001: E( 1)=   -0.7780   E(BOTTOM)=   -1.422   E(TOP)=   -0.134  3  4   165
             LOCAL ORBITAL
:E3_0001: E( 3)=    0.4963   E(BOTTOM)=    0.357   E(TOP)=    0.636  0  1   121
             APW+lo
:E2_0001: E( 2)=    0.3274   E(BOTTOM)=    0.156   E(TOP)= -200.000  2 -1    93
             APW+lo

       K=   0.00000   0.00000   0.00000            1
:RKM  : MATRIX SIZE   189LOs:  20  RKM= 8.07  WEIGHT= 1.00  PGR:    
       EIGENVALUES ARE:
:EIG00001:      -2.1259203   -0.7624874   -0.7624874   -0.7624874    0.2756930
:EIG00006:       0.4984453    0.5131389    0.5131389    0.5131389    0.5339304
:EIG00011:       0.5339304    0.5339304    0.6510153    0.6510153    0.6510153
:EIG00016:       0.8084648    0.8084648    1.2081372    1.4247091    1.4247091
:EIG00021:       1.4247091    1.5333766    2.1521265    2.1521265    2.1521265
:EIG00026:       2.2203987    2.2203987    2.2203987    2.4377099    2.4377099
:EIG00031:       2.7741854    2.9426816    2.9426816    2.9426816    3.3645947
:EIG00036:       3.3645947    3.5958386    3.5958386    3.5958386    3.6390820
:EIG00041:       3.6390820    3.6390820    3.7799958    3.7799958    3.7799958
:EIG00046:       4.0290869    4.0502710    4.0502710    4.0502710    4.1494871
 
:EIG00051:       4.1494871    4.1925190    4.1925190    4.1925190    4.2202092
:EIG00056:       4.2202092    4.2202092    4.3282358    4.3514601    4.4831474
:EIG00061:       4.4831474    4.4831474    4.5755654    4.5755654    4.5755654
:EIG00066:       4.7940653    5.8004753    5.8004753    5.8034032    6.1095559
:EIG00071:       6.1095559    6.1095559    6.5471650    6.5471650    6.7235362
:EIG00076:       6.7235362    6.7235362    6.7821182    6.7821182    6.7821182
:EIG00081:       7.0726964    7.0726964    7.0726964    7.1041908    7.1041908
:EIG00086:       7.1113556    7.1113556    7.1113556    7.1774032    7.1774032
:EIG00091:       7.1774032    7.2753183    7.2753183    7.2753183    7.2821273
:EIG00096:       7.2821273    7.2821273    7.3613276    7.4371602    7.5128071
 
:EIG00101:       7.5128071    7.5525239    7.5525239    7.5525239    7.5715384
:EIG00106:       7.5715384    7.5715384    7.5896224    7.5896224    7.5896224
:EIG00111:       7.6727262    7.6727262    7.9439827    7.9979267
       ********************************************************

:KPT   :      NUMBER OF K-POINTS:   165

------- case.scfso --------
   0.0   0.0 angle (M,z), angle (M,x) deg
 
        SPIN-ORBIT EIGENVALUES:
     K=   0.00000   0.00000   0.00000            1
      MATRIX SIZE=  228   WEIGHT= 1.00
     EIGENVALUES ARE:
          -2.1259203   -2.1259203   -0.9097884   -0.9097884   -0.6935271
          -0.6935271   -0.6935271   -0.6935271    0.2756930    0.2756930
           0.4932586    0.4932586    0.5017499    0.5017499    0.5017499
           0.5017499    0.5249427    0.5249427    0.5348575    0.5348575
           0.5414599    0.5414599    0.5414599    0.5414599    0.6472289
           0.6472289    0.6472289    0.6472289    0.6573720    0.6573720
           0.8088693    0.8088693    0.8088693    0.8088693    1.2081850
           1.2081850    1.4195504    1.4195504    1.4270571    1.4270571

           1.4270571    1.4270571    1.5333766    1.5333766    2.1472217
           2.1472217    2.1472217    2.1472217    2.1506301    2.1506301
           2.1614391    2.1614391    2.2561782    2.2561782    2.2561783
           2.2561783    2.4379965    2.4379965    2.4379965    2.4379965
           2.7741854    2.7741854    2.9422583    2.9422583    2.9429063
           2.9429063    2.9429063    2.9429063    3.3645709    3.3645709
           3.3645709    3.3645709    3.5945233    3.5945233    3.5945233
           3.5945233    3.5987153    3.5987153    3.6091494    3.6091494

           3.6554254    3.6554254    3.6554254    3.6554254    3.7799880
           3.7799880    3.7799997    3.7799997    3.7799997    3.7799997
           4.0290869    4.0290869    4.0502253    4.0502253    4.0502253
           4.0502253    4.0503678    4.0503678    4.1494871    4.1494871
           4.1494871    4.1494871    4.1923650    4.1923650    4.1925860
           4.1925860    4.1925860    4.1925860    4.2199891    4.2199891
           4.2199891    4.2199891    4.2206879    4.2206879    4.3282405
           4.3282405    4.3514601    4.3514601    4.4830902    4.4830902

           4.4830902    4.4830902    4.4832655    4.4832655
       ********************************************************

------- case.scf2 --------
:GMA  : POTENTIAL AND CHARGE CUT-OFF  12.00 Ry**.5




:POS001: at.nr.   1 position = 0.00000 0.00000 0.50000  multiplicity =  1

       lmmax  5
       lm=   0 0  4 0  4 4  6 0  6 4
:FER gutzwiller fermi energy   0.54541
:EORB         -0.150032034
:SUM sum of gutz band energies         -6.499253592

:CHA001: total charge inside sphere   1 =    10.042666
:PCS001: partial charges sphere =  1 s,p,d,f,      d-eg,d-t2g 
:QTL001: 2.0290 5.3741 0.6575 1.9818 0.0000 0.0000 0.0000 0.2340 0.4236 0.0000 0.0000 0.0000

:CHA  : total charge inside unit cell =       6.500000

------- case.scfc --------

        1.ATOM      Pr                   14 CORE STATES
:1S 001: 1S               -3067.096206149 Ry
:2S 001: 2S                -492.851168256 Ry
:2PP001: 2P*               -465.949935155 Ry
:2P 001: 2P                -430.552587104 Ry
:3S 001: 3S                -105.943303051 Ry
:3PP001: 3P*                -94.481035545 Ry
:3P 001: 3P                 -87.473288226 Ry
:3DD001: 3D*                -67.400096351 Ry
:3D 001: 3D                 -65.888566678 Ry
:4S 001: 4S                 -20.620654660 Ry
:4PP001: 4P*                -16.327307878 Ry
:4P 001: 4P                 -14.799746841 Ry
:4DD001: 4D*                 -7.732257718 Ry
:4D 001: 4D                  -7.462784377 Ry

------- case.scfm --------
:CINT001 Core Integral Atom   1   45.999523

       DENSITY AT NUCLEUS
        JATOM        VALENCE       SEMI-CORE          CORE           TOTAL
:RTO001:   1      651.981588        0.000000   656824.374986   657476.356574
     
       CHARGES OF NEW CHARGE DENSITY
:NTO   : INTERSTITIAL CHARGE =     2.957411
:NPC   : PW Pseudocharge     =     7.594236
:NTO001: CHARGE SPHERE  1    =    56.042189

:NEC01: NUCLEAR AND ELECTRONIC CHARGE     59.00000    58.99960
     
       CHARGES OF OLD CHARGE DENSITY
:OTO   : INTERSTITIAL CHARGE =     2.958210
:OPC   : PW Pseudocharge     =     7.596585
:OTO001: CHARGE SPHERE  1    =    56.041790

:NEC02: NUCLEAR AND ELECTRONIC CHARGE     59.00000    59.00000
     
       CONVERGENCE TEST
:DTO001: DIFFERENCE IN SPHERE  1 =  0.0004156

:DIS  :  CHARGE DISTANCE       ( 0.0004156 for atom    1 spin 1)      0.0004156
 PW Mixed is           56
 
******************************************************
* MULTISECANT MIXING VER9 RELEASE 10.4.0              *
* Standard Mode with controls                        *
* Fixed density scale                                *
* Regularization       1.000E-04                     *
* Trust Upper Limit    5.000E+00                     *
* Max Number of Memory Steps    8                    *
******************************************************
 
:PWTMP   1.9360E+02  1.2500E+02  2.5905E+02
:PLANE:  PW TOTAL      2.9028 DISTAN   6.03E-04  2.08E-02 %
:CHARG:  CLM/ATOM    977.1942 DISTAN   4.72E-04  4.83E-05 %
 
Step History
        DMIX         DMIXT        Red     Pred      Trust     Lambda    MagRel    MagAbs     Beta
 34   8.6255E-02   8.6255E-02  9.97E-01  5.91E-01  3.61E-02  9.13E-01  1.02E-02  1.75E-04  4.10E-01
 35   1.5291E-01   1.5079E-01  9.11E-01  4.88E-01  5.63E-02  4.81E-01  4.46E-02  7.60E-04  5.12E-01
 36   1.2549E-01   1.2549E-01  8.94E-01  3.60E-01  1.97E-01  1.51E-01  5.88E-02  9.13E-04  6.40E-01
 37   7.8616E-02   7.8616E-02  8.68E-01  2.01E-01  3.25E-01  1.41E-01  6.81E-02  9.45E-04  8.00E-01
 38   7.1587E-02   5.0239E-02  7.19E-01  4.30E-02  4.27E-01  1.93E-01  1.53E-01  1.84E-03  1.00E+00
 39   1.1916E-01   1.0123E-01  3.20E-01  3.02E-01  5.69E-01  1.00E+00  3.65E-01  3.16E-03  1.00E+00
 40   5.3645E-02   5.3237E-02  1.09E+00  3.08E-01  7.59E-01  7.81E-01  7.59E-01  2.10E-03  1.00E+00
 41   4.2063E-02   4.2063E-02  2.78E-01  3.11E-01  6.98E-01  6.90E-01  4.15E-01  1.25E-03  8.00E-01
 42   8.7714E-02   8.7714E-02 -1.00E+00  4.18E-01  9.31E-01  1.00E+00  4.16E-01  3.48E-04  1.00E+00
:JACOBIANS    3.521E-01   1.730E+00
  
:NORMS:  1/Froebius, Min, Max, Used   0.5547E+00  0.3913E+00  0.1143E+01  0.5794E+00
:INFO :  Number of Memory Steps    8 Skipping   33
:INFO :  SLambda=    1.0353089576  Max    1.0353089576
:PREDicted Charge, CTotal, PW Trust    1.030E-03   1.030E-03   9.775E-04
:PREDicted DMix, Beta, BLim   1.0338E+00  4.0979E+00  2.1211E+00

Eigenvalues, unscaled except for SY+YY
   #     SY Real        SY Imag          SS             YY         SY+YY Real      SY+YY Imag
   1   2.737140E+00   0.000000E+00   2.133121E+00   7.237048E+00   1.007667E+01   0.000000E+00
   2   4.055288E-01   0.000000E+00   2.950760E-01   7.318244E-01   1.128533E+00   0.000000E+00
   3   1.593365E-02   0.000000E+00   3.308013E-02   2.809369E-02   6.151459E-02   0.000000E+00
   4   3.110509E-04   0.000000E+00   8.094502E-06   2.937925E-03   3.636869E-03   0.000000E+00
   5   6.360980E-06   0.000000E+00   2.372344E-06   7.842799E-05   9.198209E-05   0.000000E+00
   6  -2.879843E-08   0.000000E+00   7.366482E-07   1.438528E-05   1.290781E-06   0.000000E+00
   7   5.125604E-07   0.000000E+00   2.250346E-07   1.737303E-06   1.726879E-06   0.000000E+00
   8   2.488010E-06   0.000000E+00   3.012585E-09   1.011996E-06   1.717667E-05   0.000000E+00
 
:INFO :  Singular value  1.019E+01 Weight  1.000E+00 Projection -1.439E-04
:INFO :  Singular value  1.141E+00 Weight  1.000E+00 Projection -3.090E-04
:INFO :  Singular value  6.030E-02 Weight  9.999E-01 Projection -2.297E-03
:INFO :  Singular value  3.641E-03 Weight  9.620E-01 Projection  9.415E-03
:INFO :  Singular value  9.258E-05 Weight  1.610E-02 Projection  2.704E-04
:INFO :  Singular value  1.714E-05 Weight  5.608E-04 Projection -1.289E-05
:INFO :  Singular value  1.914E-06 Weight  6.994E-06 Projection -2.325E-07
:INFO :  Singular value  1.156E-06 Weight  2.551E-06 Projection  3.663E-07
:RANK :  ACTIVE   3.98/8  =  49.73 % ; YY RANK   3.95/8  =  49.43 %
 
:BLIM :  VZERO Control Off
:TRUST:  Step 1.46E+00  Charge 1.84E-03 (e) CTO  2.50E-03 (e) PW  3.50E-03 (e)
:DTRUS:  Lambda    6.214E-02 Increment    3.638E-12 Iterations   103 DMIX    2.146E-01
:INFOA:  Angle SubSpace to MSR1      0.36
:DIRM :  MEMORY  8/8  SCALE   1.000 RED  0.92 PRED  0.42 NEXT  0.26 
:INFO :  Limited by Atoms F by Step T

:TRAVE:  Charge 5.57E-04 (e) CTO  5.57E-04 (e) PW  5.34E-04 (e)
:DIRP :  |MSR1|= 4.196E-04 |PRATT|= 6.027E-04 ANGLE=   9.2 DEGREES
:DIRQ :  |MSR1|= 1.033E-03 |PRATT|= 4.723E-04 ANGLE=  42.7 DEGREES
:DIRT :  |MSR1|= 1.115E-03 |PRATT|= 7.657E-04 ANGLE=  44.6 DEGREES
:MIX  :   MSE1   REGULARIZATION:  7.24E-04 GREED: 0.21928  LMStep 0.86  1.4559 Step           
     
       CHARGES OF MIXED CHARGE DENSITY
:CTO   : INTERSTITIAL CHARGE =     2.957622
:CPC   : PW Pseudocharge     =     7.595739
:CTO001: CHARGE SPHERE  1    =    56.042378

:NEC03: NUCLEAR AND ELECTRONIC CHARGE     59.00000    59.00000

PW CHANGE     H    K    L      Current       Change    Residue
:PTO001:      0    0    0  4.07382819E-02 -5.540E-06 -6.642E-06
:PTO002:     -1   -1   -1 -1.29383811E-01  1.462E-05  2.400E-05
:PTO003:      0    0   -2  7.73193418E-02 -9.773E-06 -1.731E-05
:PTO004:      0   -2   -2  6.77310416E-02 -1.293E-05 -1.777E-05
:PTO005:     -1   -1   -3 -6.59621063E-02  1.917E-05  2.435E-05
:PTO006:     -2   -2   -2  1.72783133E-02 -4.973E-06 -4.967E-06
:PTO007:      0    0   -4  3.22904579E-03 -2.537E-06 -3.283E-06
:PTO008:     -1   -3   -3 -2.11132015E-03  7.124E-06  8.572E-06
:PTO009:      0   -2   -4 -1.03259186E-03 -6.598E-06 -8.968E-06
:PTO010:     -2   -2   -4 -6.25183995E-03 -3.865E-06 -4.688E-06
:PTO011:     -3   -3   -3  2.35966941E-03  9.039E-07  8.023E-07
:PTO012:     -1   -1   -5  7.65992330E-03  2.769E-06  4.304E-06

:ENE  : ********** TOTAL ENERGY IN Ry =       -18472.12203692

