
------- alpha_Pu_2.scf0 --------


            ---------
:ITE077: 77. ITERATION
            ---------

:NATO :    8 INDEPENDENT AND   16 TOTAL ATOMS IN UNITCELL
       SUBSTANCE: alpha_Pu                                                    

       LATTICE                      = P   
:POT  : POTENTIAL OPTION    5
:LAT  : LATTICE CONSTANTS= 11.27881  8.79918 20.00501    1.571    1.777    1.571
:VOL  : UNIT CELL VOLUME =    1943.51982
       MODE OF CALCULATION IS       = RELA
       NON-SPINPOLARIZED CALCULATION
:IFFT  : FFT-parameters:   90   72  160 Factor: 2.00
       ATOMNUMBER=  1 Pu  0+     VCOUL-ZERO =  0.72992E+00
:EFG001:                        EFG         =   -18.64667   *10**21  V / m**2
                               V20  TOT/SRF=     7.44562    -0.10545
                               V22  TOT/SRF=     3.56913     0.11011
                               V22M TOT/SRF=   -13.89694    -0.08408
                               V21  TOT/SRF=     0.00000     0.00000
                               V21M TOT/SRF=     0.00000     0.00000

             -0.72960  -13.89694    0.00000       10.04922    0.00000    0.00000
            -13.89694   -7.86786    0.00000        0.00000  -18.64667    0.00000
              0.00000    0.00000    8.59746        0.00000    0.00000    8.59746

         MAIN DIRECTIONS OF THE EFG   1.0000  0.7756  0.0000
                                     -0.7756  1.0000  0.0000
                                      0.0000  0.0000  1.0000
:ANG001:  ANGLE WITH OLD X-AXIS =        37.8

:ETA001:                         ASYMM. ETA =     0.07786


       ATOMNUMBER=  2 Pu  0+     VCOUL-ZERO =  0.74093E+00
:EFG002:                        EFG         =   -26.28942   *10**21  V / m**2
                               V20  TOT/SRF=     8.99595     0.01593
                               V22  TOT/SRF=   -17.22826    -0.09805
                               V22M TOT/SRF=    12.17422     0.08161
                               V21  TOT/SRF=     0.00000     0.00000
                               V21M TOT/SRF=     0.00000     0.00000

            -22.42207   12.17422    0.00000      -26.28942    0.00000    0.00000
             12.17422   12.03444    0.00000        0.00000   15.90179    0.00000
              0.00000    0.00000   10.38763        0.00000    0.00000   10.38763

         MAIN DIRECTIONS OF THE EFG   1.0000  0.3177  0.0000
                                     -0.3177  1.0000  0.0000
                                      0.0000  0.0000  1.0000
:ANG002:  ANGLE WITH OLD X-AXIS =        17.6

:ETA002:                         ASYMM. ETA =     0.20975


       ATOMNUMBER=  3 Pu  0+     VCOUL-ZERO =  0.74053E+00
:EFG003:                        EFG         =   -16.80698   *10**21  V / m**2
                               V20  TOT/SRF=     2.54969    -0.00166
                               V22  TOT/SRF=    -4.71035     0.00017
                               V22M TOT/SRF=   -14.59357    -0.00862
                               V21  TOT/SRF=     0.00000     0.00000
                               V21M TOT/SRF=     0.00000     0.00000

             -6.18241  -14.59357    0.00000      -16.80698    0.00000    0.00000
            -14.59357    3.23828    0.00000        0.00000   13.86285    0.00000
              0.00000    0.00000    2.94413        0.00000    0.00000    2.94413

         MAIN DIRECTIONS OF THE EFG   1.0000 -0.7280  0.0000
                                      0.7280  1.0000  0.0000
                                      0.0000  0.0000  1.0000
:ANG003:  ANGLE WITH OLD X-AXIS =        36.1

:ETA003:                         ASYMM. ETA =     0.64965


       ATOMNUMBER=  4 Pu  0+     VCOUL-ZERO =  0.74209E+00
:EFG004:                        EFG         =   -16.88558   *10**21  V / m**2
                               V20  TOT/SRF=     1.84570    -0.01480
                               V22  TOT/SRF=    -1.40416     0.01549
                               V22M TOT/SRF=    15.75753     0.03064
                               V21  TOT/SRF=     0.00000     0.00000
                               V21M TOT/SRF=     0.00000     0.00000

             -2.46978   15.75753    0.00000      -16.88558    0.00000    0.00000
             15.75753    0.33854    0.00000        0.00000   14.75435    0.00000
              0.00000    0.00000    2.13124        0.00000    0.00000    2.13124

         MAIN DIRECTIONS OF THE EFG   1.0000  0.9149  0.0000
                                     -0.9149  1.0000  0.0000
                                      0.0000  0.0000  1.0000
:ANG004:  ANGLE WITH OLD X-AXIS =        42.5

:ETA004:                         ASYMM. ETA =     0.74757


       ATOMNUMBER=  5 Pu  0+     VCOUL-ZERO =  0.74598E+00
:EFG005:                        EFG         =   -40.99810   *10**21  V / m**2
                               V20  TOT/SRF=    12.36957     0.01915
                               V22  TOT/SRF=   -33.62895    -0.12594
                               V22M TOT/SRF=     3.91890     0.04692
                               V21  TOT/SRF=     0.00000     0.00000
                               V21M TOT/SRF=     0.00000     0.00000

            -40.77053    3.91890    0.00000      -40.99810    0.00000    0.00000
              3.91890   26.48738    0.00000        0.00000   26.71495    0.00000
              0.00000    0.00000   14.28315        0.00000    0.00000   14.28315

         MAIN DIRECTIONS OF THE EFG   1.0000  0.0581  0.0000
                                     -0.0581  1.0000  0.0000
                                      0.0000  0.0000  1.0000
:ANG005:  ANGLE WITH OLD X-AXIS =         3.3

:ETA005:                         ASYMM. ETA =     0.30323


       ATOMNUMBER=  6 Pu  0+     VCOUL-ZERO =  0.74638E+00
:EFG006:                        EFG         =   -18.17774   *10**21  V / m**2
                               V20  TOT/SRF=    11.45483    -0.00053
                               V22  TOT/SRF=    -6.86268    -0.00919
                               V22M TOT/SRF=    -9.30787    -0.06075
                               V21  TOT/SRF=     0.00000     0.00000
                               V21M TOT/SRF=     0.00000     0.00000

            -13.47613   -9.30787    0.00000      -18.17774    0.00000    0.00000
             -9.30787    0.24923    0.00000        0.00000    4.95084    0.00000
              0.00000    0.00000   13.22690        0.00000    0.00000   13.22690

         MAIN DIRECTIONS OF THE EFG   1.0000 -0.5051  0.0000
                                      0.5051  1.0000  0.0000
                                      0.0000  0.0000  1.0000
:ANG006:  ANGLE WITH OLD X-AXIS =        26.8

:ETA006:                         ASYMM. ETA =     0.45529


       ATOMNUMBER=  7 Pu  0+     VCOUL-ZERO =  0.73943E+00
:EFG007:                        EFG         =   -20.95040   *10**21  V / m**2
                               V20  TOT/SRF=    11.44866     0.00099
                               V22  TOT/SRF=     8.25263     0.09848
                               V22M TOT/SRF=    11.72793     0.02029
                               V21  TOT/SRF=     0.00000     0.00000
                               V21M TOT/SRF=     0.00000     0.00000

              1.64274   11.72793    0.00000        7.73062    0.00000    0.00000
             11.72793  -14.86252    0.00000        0.00000  -20.95040    0.00000
              0.00000    0.00000   13.21978        0.00000    0.00000   13.21978

         MAIN DIRECTIONS OF THE EFG   1.0000 -0.5191  0.0000
                                      0.5191  1.0000  0.0000
                                      0.0000  0.0000  1.0000
:ANG007:  ANGLE WITH OLD X-AXIS =        27.4

:ETA007:                         ASYMM. ETA =     0.26201


       ATOMNUMBER=  8 Pu  0+     VCOUL-ZERO =  0.75314E+00
:EFG008:                        EFG         =   -45.32420   *10**21  V / m**2
                               V20  TOT/SRF=    12.52154     0.04431
                               V22  TOT/SRF=   -37.48366    -0.05067
                               V22M TOT/SRF=     6.79675    -0.00378
                               V21  TOT/SRF=     0.00000     0.00000
                               V21M TOT/SRF=     0.00000     0.00000

            -44.71297    6.79675    0.00000      -45.32420    0.00000    0.00000
              6.79675   30.25435    0.00000        0.00000   30.86557    0.00000
              0.00000    0.00000   14.45863        0.00000    0.00000   14.45863

         MAIN DIRECTIONS OF THE EFG   1.0000  0.0899  0.0000
                                     -0.0899  1.0000  0.0000
                                      0.0000  0.0000  1.0000
:ANG008:  ANGLE WITH OLD X-AXIS =         5.1

:ETA008:                         ASYMM. ETA =     0.36199


     HELLMANN-FEYNMAN-FORCE IN mRy/a.u. = |F|  Fx       Fy             Fz
:FHF001:   1.ATOM       3201.997       3107.265        773.106          0.000

     HELLMANN-FEYNMAN-FORCE IN mRy/a.u. = |F|  Fx       Fy             Fz
:FHF002:   2.ATOM       1679.902       -314.516       1650.197          0.000

     HELLMANN-FEYNMAN-FORCE IN mRy/a.u. = |F|  Fx       Fy             Fz
:FHF003:   3.ATOM       5996.452       4599.195       3847.706          0.000

     HELLMANN-FEYNMAN-FORCE IN mRy/a.u. = |F|  Fx       Fy             Fz
:FHF004:   4.ATOM       3349.118      -3309.077       -516.333          0.000

     HELLMANN-FEYNMAN-FORCE IN mRy/a.u. = |F|  Fx       Fy             Fz
:FHF005:   5.ATOM       2030.510       1088.018       1714.406          0.000

     HELLMANN-FEYNMAN-FORCE IN mRy/a.u. = |F|  Fx       Fy             Fz
:FHF006:   6.ATOM       5602.034       4526.141       3301.036          0.000

     HELLMANN-FEYNMAN-FORCE IN mRy/a.u. = |F|  Fx       Fy             Fz
:FHF007:   7.ATOM       5611.267      -3866.348       4066.654          0.000

     HELLMANN-FEYNMAN-FORCE IN mRy/a.u. = |F|  Fx       Fy             Fz
:FHF008:   8.ATOM       1314.014       1210.315        511.635          0.000

:FIT001: LUSE= 13 SIGMA OF V-XC FIT FOR ATOM  1  0.5864403E-03
:FIT001: LUSE= 13 SIGMA OF V-XC FIT FOR ATOM  1  0.5864403E-03
:FIT002: LUSE= 13 SIGMA OF V-XC FIT FOR ATOM  2  0.3007567E-03
:FIT002: LUSE= 13 SIGMA OF V-XC FIT FOR ATOM  2  0.3007567E-03
:FIT003: LUSE= 13 SIGMA OF V-XC FIT FOR ATOM  3  0.3207809E-03
:FIT003: LUSE= 13 SIGMA OF V-XC FIT FOR ATOM  3  0.3207809E-03
:FIT004: LUSE= 13 SIGMA OF V-XC FIT FOR ATOM  4  0.3335521E-03
:FIT004: LUSE= 13 SIGMA OF V-XC FIT FOR ATOM  4  0.3335521E-03
:FIT005: LUSE= 13 SIGMA OF V-XC FIT FOR ATOM  5  0.2669370E-03
:FIT005: LUSE= 13 SIGMA OF V-XC FIT FOR ATOM  5  0.2669370E-03
:FIT006: LUSE= 13 SIGMA OF V-XC FIT FOR ATOM  6  0.2086694E-03
:FIT006: LUSE= 13 SIGMA OF V-XC FIT FOR ATOM  6  0.2086694E-03
:FIT007: LUSE= 13 SIGMA OF V-XC FIT FOR ATOM  7  0.5733468E-03
:FIT007: LUSE= 13 SIGMA OF V-XC FIT FOR ATOM  7  0.5733468E-03
:FIT008: LUSE= 13 SIGMA OF V-XC FIT FOR ATOM  8  0.1482265E-03
:FIT008: LUSE= 13 SIGMA OF V-XC FIT FOR ATOM  8  0.1482265E-03
:DEN  : DENSITY INTEGRAL  =       -350798.37728983   (Ry)
       ELS_POTENTIAL_AT Z=0 and Z=0.5:   1.03001   0.49194
       ELS_POTENTIAL_AT Y=0 and Y=0.5:   1.30061   1.30061
:VZERO:v0,v0c,v0x   0.13976   1.03001  -0.89025 v5,v5c,v5x  -0.45333   0.49194  -0.94527
:VZERY:v0,v0c,v0x   0.45268   1.30061  -0.84792 v5,v5c,v5x   0.45268   1.30061  -0.84792
:VZERX:v0,v0c,v0x  -0.82525   0.16085  -0.98610 v5,v5c,v5x  -0.72298   0.25407  -0.97705

------- alpha_Pu_2.scf1 --------

          ATOMIC SPHERE DEPENDENT PARAMETERS FOR ATOM  Pu  0+    
:e__0001: OVERALL ENERGY PARAMETER IS    1.3676
          OVERALL BASIS SET ON ATOM IS LAPW
:E0_0001: E( 0)=    1.3676
             APW+lo
:E0_0001: E( 0)=   -1.8475   E(BOTTOM)=   -2.623   E(TOP)=   -1.072
             LOCAL ORBITAL
:E1_0001: E( 1)=   -0.9280   E(BOTTOM)=   -0.928   E(TOP)= -200.000
             APW+lo
:E1_0001: E( 1)=    1.3676
             LOCAL ORBITAL
:E3_0001: E( 3)=    1.3676   E(BOTTOM)=    1.113   E(TOP)= -200.000
             APW+lo
:E2_0001: E( 2)=    1.3676   E(BOTTOM)=    1.273   E(TOP)= -200.000
             APW+lo

          ATOMIC SPHERE DEPENDENT PARAMETERS FOR ATOM  Pu  0+    
:e__0002: OVERALL ENERGY PARAMETER IS    1.3676
          OVERALL BASIS SET ON ATOM IS LAPW
:E0_0002: E( 0)=    1.3676
             APW+lo
:E0_0002: E( 0)=   -1.8455   E(BOTTOM)=   -2.619   E(TOP)=   -1.072
             LOCAL ORBITAL
:E1_0002: E( 1)=   -0.9220   E(BOTTOM)=   -0.922   E(TOP)= -200.000
             APW+lo
:E1_0002: E( 1)=    1.3676
             LOCAL ORBITAL
:E3_0002: E( 3)=    1.3676   E(BOTTOM)=    1.118   E(TOP)= -200.000
             APW+lo
:E2_0002: E( 2)=    1.3676   E(BOTTOM)=    1.283   E(TOP)= -200.000
             APW+lo

          ATOMIC SPHERE DEPENDENT PARAMETERS FOR ATOM  Pu  0+    
:e__0003: OVERALL ENERGY PARAMETER IS    1.3676
          OVERALL BASIS SET ON ATOM IS LAPW
:E0_0003: E( 0)=    1.3676
             APW+lo
:E0_0003: E( 0)=   -1.8435   E(BOTTOM)=   -2.617   E(TOP)=   -1.070
             LOCAL ORBITAL
:E1_0003: E( 1)=   -0.9200   E(BOTTOM)=   -0.920   E(TOP)= -200.000
             APW+lo
:E1_0003: E( 1)=    1.3676
             LOCAL ORBITAL
:E3_0003: E( 3)=    1.3676   E(BOTTOM)=    1.118   E(TOP)= -200.000
             APW+lo
:E2_0003: E( 2)=    1.3676   E(BOTTOM)=    1.283   E(TOP)= -200.000
             APW+lo

          ATOMIC SPHERE DEPENDENT PARAMETERS FOR ATOM  Pu  0+    
:e__0004: OVERALL ENERGY PARAMETER IS    1.3676
          OVERALL BASIS SET ON ATOM IS LAPW
:E0_0004: E( 0)=    1.3676
             APW+lo
:E0_0004: E( 0)=   -1.8440   E(BOTTOM)=   -2.617   E(TOP)=   -1.071
             LOCAL ORBITAL
:E1_0004: E( 1)=   -0.9200   E(BOTTOM)=   -0.920   E(TOP)= -200.000
             APW+lo
:E1_0004: E( 1)=    1.3676
             LOCAL ORBITAL
:E3_0004: E( 3)=    1.3676   E(BOTTOM)=    1.118   E(TOP)= -200.000
             APW+lo
:E2_0004: E( 2)=    1.3676   E(BOTTOM)=    1.283   E(TOP)= -200.000
             APW+lo

          ATOMIC SPHERE DEPENDENT PARAMETERS FOR ATOM  Pu  0+    
:e__0005: OVERALL ENERGY PARAMETER IS    1.3676
          OVERALL BASIS SET ON ATOM IS LAPW
:E0_0005: E( 0)=    1.3676
             APW+lo
:E0_0005: E( 0)=   -1.8430   E(BOTTOM)=   -2.616   E(TOP)=   -1.070
             LOCAL ORBITAL
:E1_0005: E( 1)=   -0.9180   E(BOTTOM)=   -0.918   E(TOP)= -200.000
             APW+lo
:E1_0005: E( 1)=    1.3676
             LOCAL ORBITAL
:E3_0005: E( 3)=    1.3676   E(BOTTOM)=    1.118   E(TOP)= -200.000
             APW+lo
:E2_0005: E( 2)=    1.3676   E(BOTTOM)=    1.283   E(TOP)= -200.000
             APW+lo

          ATOMIC SPHERE DEPENDENT PARAMETERS FOR ATOM  Pu  0+    
:e__0006: OVERALL ENERGY PARAMETER IS    1.3676
          OVERALL BASIS SET ON ATOM IS LAPW
:E0_0006: E( 0)=    1.3676
             APW+lo
:E0_0006: E( 0)=   -1.8425   E(BOTTOM)=   -2.615   E(TOP)=   -1.070
             LOCAL ORBITAL
:E1_0006: E( 1)=   -0.9180   E(BOTTOM)=   -0.918   E(TOP)= -200.000
             APW+lo
:E1_0006: E( 1)=    1.3676
             LOCAL ORBITAL
:E3_0006: E( 3)=    1.3676   E(BOTTOM)=    1.123   E(TOP)= -200.000
             APW+lo
:E2_0006: E( 2)=    1.3676   E(BOTTOM)=    1.288   E(TOP)= -200.000
             APW+lo

          ATOMIC SPHERE DEPENDENT PARAMETERS FOR ATOM  Pu  0+    
:e__0007: OVERALL ENERGY PARAMETER IS    1.3676
          OVERALL BASIS SET ON ATOM IS LAPW
:E0_0007: E( 0)=    1.3676
             APW+lo
:E0_0007: E( 0)=   -1.8430   E(BOTTOM)=   -2.617   E(TOP)=   -1.069
             LOCAL ORBITAL
:E1_0007: E( 1)=   -0.9200   E(BOTTOM)=   -0.920   E(TOP)= -200.000
             APW+lo
:E1_0007: E( 1)=    1.3676
             LOCAL ORBITAL
:E3_0007: E( 3)=    1.3676   E(BOTTOM)=    1.118   E(TOP)= -200.000
             APW+lo
:E2_0007: E( 2)=    1.3676   E(BOTTOM)=    1.283   E(TOP)= -200.000
             APW+lo

          ATOMIC SPHERE DEPENDENT PARAMETERS FOR ATOM  Pu  0+    
:e__0008: OVERALL ENERGY PARAMETER IS    1.3676
          OVERALL BASIS SET ON ATOM IS LAPW
:E0_0008: E( 0)=    1.3676
             APW+lo
:E0_0008: E( 0)=   -1.8375   E(BOTTOM)=   -2.609   E(TOP)=   -1.066
             LOCAL ORBITAL
:E1_0008: E( 1)=   -0.9100   E(BOTTOM)=   -0.910   E(TOP)= -200.000
             APW+lo
:E1_0008: E( 1)=    1.3676
             LOCAL ORBITAL
:E3_0008: E( 3)=    1.3676   E(BOTTOM)=    1.128   E(TOP)= -200.000
             APW+lo
:E2_0008: E( 2)=    1.3676   E(BOTTOM)=    1.293   E(TOP)= -200.000
             APW+lo

       K=   0.00000   0.00000   0.00000            1
:RKM  : MATRIX SIZE 2337LOs: 320  RKM= 8.50  WEIGHT= 1.00  PGR:    
       EIGENVALUES ARE:
:EIG00001:      -1.8996613   -1.8744574   -1.8693019   -1.8465226   -1.8292548
:EIG00006:      -1.8255929   -1.8126477   -1.8043841   -1.8022165   -1.7856714
:EIG00011:      -1.7791767   -1.7727001   -1.7573394   -1.7539437   -1.7474084
:EIG00016:      -1.7353309   -0.1217440   -0.1131422   -0.1124408   -0.0819259
:EIG00021:      -0.0801117   -0.0710931   -0.0643790   -0.0624352   -0.0159120
:EIG00026:      -0.0102566   -0.0089526    0.0108526    0.0124494    0.0286423
:EIG00031:       0.0318244    0.0330782    0.0346247    0.0374539    0.0653348
:EIG00036:       0.0763262    0.1167230    0.1184517    0.1703878    0.1880695
:EIG00041:       0.1966434    0.2189367    0.2389699    0.2451775    0.2774868
:EIG00046:       0.2796510    0.2995770    0.3118281    0.3140601    0.3147598
 
:EIG00051:       0.3225172    0.3376674    0.3475765    0.3482462    0.3605699
:EIG00056:       0.3647521    0.3748741    0.3881953    0.3906910    0.3937466
:EIG00061:       0.4032408    0.4085822    0.4325557    0.4405253    1.2574922
:EIG00066:       1.3209418    1.3415256    1.3429803    1.3543332    1.3551675
:EIG00071:       1.3663004    1.3747178    1.3859520    1.3947812    1.3955503
:EIG00076:       1.3988141    1.4126869    1.4153543    1.4171247    1.4207363
:EIG00081:       1.4325791    1.4434742    1.4453066    1.4541639    1.4682223
:EIG00086:       1.4703955    1.4723086    1.4727616    1.4768684    1.4774758
:EIG00091:       1.4838031    1.4852553    1.4870777    1.4877432    1.4900930
:EIG00096:       1.4971661    1.5010010    1.5023403    1.5031363    1.5061865
 
:EIG00101:       1.5071113    1.5077625    1.5094569    1.5126607    1.5128205
:EIG00106:       1.5129461    1.5154612    1.5157016    1.5205539    1.5259503
:EIG00111:       1.5264714    1.5319055    1.5331718    1.5350047    1.5354450
:EIG00116:       1.5358854    1.5415697    1.5421533    1.5480908    1.5498575
:EIG00121:       1.5596668    1.5663630    1.5716389    1.5718839    1.5790942
:EIG00126:       1.5801051    1.5857561    1.5866861    1.5921464    1.5983423
:EIG00131:       1.5989858    1.6091306    1.6137332    1.6142627    1.6173153
:EIG00136:       1.6175417    1.6265660    1.6291439    1.6295421    1.6299294
:EIG00141:       1.6314454    1.6317219    1.6329211    1.6334235    1.6416466
:EIG00146:       1.6450368    1.6476624    1.6500107    1.6560003    1.6560226
 
:EIG00151:       1.6616730    1.6623092    1.6653628    1.6679618    1.6692441
:EIG00156:       1.6742386    1.6767162    1.6769335    1.6790226    1.6794081
:EIG00161:       1.6813188    1.6816815    1.6818449    1.6856600    1.6874606
:EIG00166:       1.6878409    1.6889200    1.6920051    1.6923016    1.6982909
:EIG00171:       1.6985794    1.6996218    1.7048211    1.7062028    1.7063593
:EIG00176:       1.7104212    1.7105506    1.7108240    1.7111440    1.7137832
:EIG00181:       1.7144323    1.7197112    1.7241279    1.7314107    1.7324459
:EIG00186:       1.7340814    1.7352072    1.7365484    1.7381095    1.7451470
:EIG00191:       1.7462578    1.7490517    1.7558378    1.7561941    1.7708044
:EIG00196:       1.7717381    1.7832456    1.8104763    1.8281331    1.8309530
 
:EIG00201:       1.8434123    1.8531984    1.8609525    1.8687104    1.8744378
:EIG00206:       1.8816207    1.8936766    1.8952242    1.8992633    1.9243030
:EIG00211:       1.9262894    1.9276138    1.9362535    1.9594713    1.9596024
:EIG00216:       1.9977128    2.0072388    2.0123765    2.0482917    2.0512497
:EIG00221:       2.0618823    2.0631547    2.0813319    2.1032290    2.1042895
:EIG00226:       2.1070691    2.1302247    2.1431444    2.1547076    2.1594955
:EIG00231:       2.1672886    2.1937671    2.2129743    2.2204168    2.2251468
:EIG00236:       2.2565979    2.2567904    2.2606170    2.2826281    2.3090399
:EIG00241:       2.3141342    2.3171215    2.3267427    2.3500586    2.3779715
:EIG00246:       2.3832565    2.3839816    2.4110709    2.4296444    2.4338780
 
:EIG00251:       2.4589198    2.4619394    2.4740070    2.4751910    2.4821234
:EIG00256:       2.4904950    2.5223481    2.5271859    2.5443276    2.5558141
:EIG00261:       2.5817624    2.6269339    2.6518518    2.6523214    2.7154914
:EIG00266:       2.7553323    2.7941861    2.8114201    2.8225975    2.8383767
:EIG00271:       2.8679446    2.8710080    2.8756958    2.8862218    2.8868251
:EIG00276:       2.8955756    2.8962569    2.8976248    2.9005561    2.9194401
:EIG00281:       2.9632685    2.9682423    2.9698810    2.9900149    3.0022158
:EIG00286:       3.0125698    3.0372270    3.0429168    3.0546150    3.0682239
:EIG00291:       3.0983653    3.0991074    3.1349579    3.1400175    3.1405219
:EIG00296:       3.1653206    3.1808967    3.2015798    3.2205774    3.2411971
 
:EIG00301:       3.2525628    3.2534320    3.2544489    3.2852570    3.2985676
:EIG00306:       3.3246211    3.3246547    3.3356711    3.3379089    3.3393054
:EIG00311:       3.3536970    3.3589104    3.3724851    3.3931106    3.3932639
:EIG00316:       3.3958317    3.4112805    3.4415899    3.4483029    3.4502894
:EIG00321:       3.4534851    3.4800996    3.4803653    3.5075369    3.5142990
:EIG00326:       3.5270504    3.5363082    3.5389347    3.5406973    3.5611385
:EIG00331:       3.5825320    3.5857915    3.5890855    3.6001430    3.6089579
:EIG00336:       3.6093338    3.6386892    3.6686336    3.6728442    3.6777021
:EIG00341:       3.6909345    3.7039349    3.7191905    3.7192653    3.7261880
:EIG00346:       3.7477507    3.7501749    3.7608082    3.7762990    3.7779813
 
:EIG00351:       3.8018273    3.8032363    3.8102046    3.8116299    3.8383666
:EIG00356:       3.8929603    3.8939223    3.8987094    3.9126149    3.9164621
:EIG00361:       3.9218148    3.9237598    3.9528684    3.9606731    3.9657746
:EIG00366:       3.9670445    3.9912692    3.9965421    3.9969897    4.0236853
:EIG00371:       4.0276460    4.0408655    4.0557199    4.0606060    4.0690420
:EIG00376:       4.0839244    4.1005075    4.1077048    4.1249434    4.1408208
:EIG00381:       4.1470027    4.1478806    4.1490783    4.1611268    4.1822947
:EIG00386:       4.1834195    4.1928031    4.2157700    4.2309151    4.2437673
:EIG00391:       4.2598417    4.2841336    4.2980579    4.3108015    4.3267309
:EIG00396:       4.3343967    4.3425435    4.3484078    4.3548792    4.3621604
 
:EIG00401:       4.3952323    4.4074845    4.4247595    4.4256901    4.4599227
:EIG00406:       4.4631247    4.4633633    4.4705486    4.4737238    4.4851703
:EIG00411:       4.4978757    4.5039373    4.5161797    4.5279978    4.5334920
:EIG00416:       4.5486426    4.5497779    4.5575311    4.5887022    4.5918159
:EIG00421:       4.5954755    4.6086436    4.6136616    4.6308644    4.6504503
:EIG00426:       4.6649319    4.6679421    4.6840930    4.6955713    4.7165197
:EIG00431:       4.7285024    4.7303161    4.7363362    4.7420575    4.7456770
:EIG00436:       4.7469345    4.7537350    4.7601202    4.7787560    4.7810130
:EIG00441:       4.7845999    4.7933717    4.8003900    4.8074730    4.8219042
:EIG00446:       4.8227708    4.8254718    4.8443173    4.8460808    4.8485964
 
:EIG00451:       4.8594885    4.8704897    4.8770041    4.8907419    4.9090624
:EIG00456:       4.9213095    4.9268065    4.9457024    4.9493479    4.9704061
:EIG00461:       4.9741668    4.9828656    5.0083722    5.0110609    5.0127996
:EIG00466:       5.0182428    5.0393948    5.0394662    5.0638599    5.0807957
:EIG00471:       5.0875859    5.0982281    5.1001770    5.1119501    5.1135664
:EIG00476:       5.1303941    5.1306134    5.1392543    5.1461920    5.1521276
:EIG00481:       5.1651942    5.1652114    5.1710802    5.1858233    5.1900801
:EIG00486:       5.1901731    5.2034268    5.2079256    5.2196182    5.2299288
:EIG00491:       5.2312188    5.2314296    5.2369455    5.2511806    5.2515373
:EIG00496:       5.2520648    5.2583068    5.2784137    5.2803661    5.2888806
 
:EIG00501:       5.2966123    5.3018969    5.3142333    5.3206032    5.3329046
:EIG00506:       5.3365439    5.3528402    5.3534077    5.3540160    5.3628605
:EIG00511:       5.3721534    5.3788510    5.3908903    5.4086511    5.4093146
:EIG00516:       5.4099074    5.4204216    5.4283274    5.4419871    5.4422157
:EIG00521:       5.4452720    5.4697316    5.4780701    5.4832800    5.4880656
:EIG00526:       5.4921949    5.5019398    5.5088101    5.5090473    5.5266270
:EIG00531:       5.5482307    5.5525732    5.5557349    5.5754036    5.5874716
:EIG00536:       5.5936765    5.5983596    5.6017112    5.6311078    5.6355204
:EIG00541:       5.6532431    5.6569818    5.6781637    5.6821838    5.6859908
:EIG00546:       5.6863731    5.6882760    5.6971530    5.7067802    5.7167623
 
:EIG00551:       5.7205001    5.7357445    5.7385378    5.7430940    5.7589977
:EIG00556:       5.7621678    5.7738669    5.7793106    5.7830301    5.7954172
:EIG00561:       5.8172434    5.8183798    5.8211346    5.8383669    5.8408025
:EIG00566:       5.8437904    5.8538413    5.8578437    5.8579369    5.8779359
:EIG00571:       5.8793760    5.8858489    5.8862445    5.8942015    5.8957366
:EIG00576:       5.9145480    5.9163617    5.9219929    5.9307681    5.9482043
:EIG00581:       5.9681495    5.9683966    5.9721690    5.9822884    5.9853308
:EIG00586:       5.9886704    5.9923886    6.0118367    6.0120690    6.0271999
:EIG00591:       6.0272894    6.0306652    6.0393876    6.0578769    6.0632317
:EIG00596:       6.0643548    6.0728733    6.0803823    6.0888789    6.1063377
 
:EIG00601:       6.1089910    6.1232179    6.1253224    6.1288230    6.1292162
:EIG00606:       6.1480273    6.1485035    6.1554685    6.1760727    6.1821153
:EIG00611:       6.1834668    6.1906696    6.1917150    6.2049240    6.2058730
:EIG00616:       6.2257024    6.2314185    6.2383669    6.2550499    6.2571096
:EIG00621:       6.2573610    6.2677897    6.2722258    6.2951735    6.3124130
:EIG00626:       6.3162336    6.3267122    6.3278602    6.3501140    6.3537470
:EIG00631:       6.3689291    6.3738237    6.3794798    6.3854698    6.3931139
:EIG00636:       6.3985551    6.4041870    6.4077469    6.4306008    6.4319289
:EIG00641:       6.4412053    6.4552283    6.4613377    6.4647045    6.4742342
:EIG00646:       6.4833345    6.5009935    6.5024330    6.5168484    6.5272030
 
:EIG00651:       6.5328005    6.5455722    6.5507972    6.5579186    6.5762984
:EIG00656:       6.5812739    6.5892920    6.6077778    6.6090965    6.6100801
:EIG00661:       6.6110771    6.6340730    6.6361793    6.6509604    6.6637601
:EIG00666:       6.6678889    6.6687667    6.6707064    6.6833172    6.6887720
:EIG00671:       6.6996906    6.7274977    6.7328965    6.7438855    6.7555803
:EIG00676:       6.7760695    6.7831036    6.7914878    6.7918948    6.7956175
:EIG00681:       6.7970921    6.8108537    6.8125354    6.8371516    6.8472819
:EIG00686:       6.8520247    6.8568103    6.8679366    6.8848182    6.9072274
:EIG00691:       6.9172067    6.9200371    6.9271244    6.9415551    6.9519402
:EIG00696:       6.9538540    6.9653244    6.9662417    6.9797791    6.9802507
 
:EIG00701:       6.9927551    6.9957532    6.9971845    7.0073343    7.0241306
:EIG00706:       7.0479705    7.0511367    7.0529388    7.0577951    7.0677828
:EIG00711:       7.0707482    7.0729186    7.1059819    7.1186029    7.1190740
:EIG00716:       7.1202106    7.1367213    7.1490377    7.1608953    7.1638218
:EIG00721:       7.1737635    7.1756568    7.1830150    7.1900461    7.1970019
:EIG00726:       7.2083786    7.2204946    7.2306434    7.2391331    7.2553145
:EIG00731:       7.2622328    7.2689522    7.2751813    7.2759263    7.2783881
:EIG00736:       7.2843527    7.2856998    7.3130553    7.3170008    7.3225257
:EIG00741:       7.3406664    7.3424709    7.3449012    7.3449110    7.3572626
:EIG00746:       7.3617612    7.3744327    7.3907350    7.3973348    7.3985615
 
:EIG00751:       7.3986203    7.4100439    7.4208583    7.4213327    7.4215848
:EIG00756:       7.4666939    7.4757558    7.4849434    7.4928692    7.4934448
       ********************************************************

:KPT   :      NUMBER OF K-POINTS:    272

------- alpha_Pu_2.scfso --------
   0.0   0.0 angle (M,z), angle (M,x) deg
 
        SPIN-ORBIT EIGENVALUES:
     K=   0.00000   0.00000   0.00000            1
      MATRIX SIZE= 1520   WEIGHT= 1.00
     EIGENVALUES ARE:
          -1.8996827   -1.8996827   -1.8745116   -1.8745116   -1.8693544
          -1.8693544   -1.8465895   -1.8465895   -1.8293004   -1.8293004
          -1.8256588   -1.8256588   -1.8127010   -1.8127010   -1.8044339
          -1.8044339   -1.8022354   -1.8022354   -1.7857268   -1.7857268
          -1.7792498   -1.7792498   -1.7727522   -1.7727522   -1.7573963
          -1.7573963   -1.7539897   -1.7539897   -1.7474474   -1.7474474
          -1.7353788   -1.7353788   -0.3609230   -0.3609230   -0.3600065
          -0.3600065   -0.3399860   -0.3399860   -0.3361249   -0.3361249

          -0.3331235   -0.3331235   -0.3253792   -0.3253792   -0.3210454
          -0.3210454   -0.3133578   -0.3133578   -0.2876901   -0.2876901
          -0.2838345   -0.2838345   -0.2809734   -0.2809734   -0.2799321
          -0.2799321   -0.2647941   -0.2647941   -0.1981123   -0.1981123
          -0.1773521   -0.1773521   -0.1145482   -0.1145482    0.1171300
           0.1171300    0.1450362    0.1450362    0.1489124    0.1489124
           0.1552521    0.1552521    0.1725212    0.1725212    0.1842120
           0.1842120    0.1896463    0.1896463    0.2106399    0.2106399

           0.2476381    0.2476381    0.2480346    0.2480346    0.2569165
           0.2569165    0.2649024    0.2649024    0.2884045    0.2884045
           0.3095337    0.3095337    0.3172352    0.3172352    0.3297453
           0.3297453    0.3695775    0.3695775    0.3891673    0.3891673
           0.4068399    0.4068399    0.4438464    0.4438464    0.4477645
           0.4477645    0.4546364    0.4546364    0.4745027    0.4745027
           0.4931030    0.4931030    0.5092793    0.5092793    0.5196483
           0.5196483    0.5324854    0.5324854    0.5502018    0.5502018

           0.5703288    0.5703288    0.5945938    0.5945938    0.5968448
           0.5968448    0.6127034    0.6127034    1.2574451    1.2574451
           1.3187827    1.3187827    1.3384091    1.3384091    1.3419197
           1.3419197    1.3493167    1.3493167    1.3533743    1.3533743
           1.3671067    1.3671067    1.3726896    1.3726896    1.3846071
           1.3846071    1.3903204    1.3903204    1.3904652    1.3904652
           1.4008773    1.4008773    1.4018380    1.4018380    1.4136377
           1.4136377    1.4186948    1.4186948    1.4245273    1.4245273

           1.4327363    1.4327363    1.4361273    1.4361273    1.4443203
           1.4443203    1.4486590    1.4486590    1.4591800    1.4591800
           1.4629114    1.4629114    1.4663369    1.4663369    1.4678012
           1.4678012    1.4706398    1.4706398    1.4708216    1.4708216
           1.4763157    1.4763157    1.4790643    1.4790643    1.4808479
           1.4808479    1.4828225    1.4828225    1.4877258    1.4877258
           1.4903908    1.4903908    1.4916108    1.4916108    1.4964731
           1.4964731    1.4966728    1.4966728    1.4986886    1.4986886

           1.5014872    1.5014872    1.5030535    1.5030535    1.5043105
           1.5043105    1.5062275    1.5062275    1.5073915    1.5073915
           1.5089810    1.5089810    1.5119402    1.5119402    1.5141344
           1.5141344    1.5150948    1.5150948    1.5212756    1.5212756
           1.5223972    1.5223972    1.5227802    1.5227802    1.5257881
           1.5257881    1.5267610    1.5267610    1.5292687    1.5292687
           1.5319985    1.5319985    1.5345282    1.5345282    1.5380841
           1.5380841    1.5405577    1.5405577    1.5423693    1.5423693

           1.5504565    1.5504565    1.5529330    1.5529330    1.5615137
           1.5615137    1.5616865    1.5616865    1.5638815    1.5638815
           1.5694421    1.5694421    1.5758101    1.5758101    1.5780057
           1.5780057    1.5796420    1.5796420    1.5863649    1.5863649
           1.5864977    1.5864977    1.5926058    1.5926058    1.5937747
           1.5937747    1.5992913    1.5992913    1.6049984    1.6049984
           1.6133567    1.6133567    1.6178173    1.6178173    1.6209908
           1.6209908    1.6283449    1.6283449    1.6310161    1.6310161

           1.6342406    1.6342406    1.6386961    1.6386961    1.6432533
           1.6432533    1.6444116    1.6444116    1.6458995    1.6458995
           1.6462800    1.6462800    1.6533605    1.6533605    1.6535776
           1.6535776    1.6584612    1.6584612    1.6614349    1.6614349
           1.6654149    1.6654149    1.6658581    1.6658581    1.6714588
           1.6714588    1.6724626    1.6724626    1.6759437    1.6759437
           1.6763861    1.6763861    1.6775269    1.6775269    1.6786806
           1.6786806    1.6822880    1.6822880    1.6838647    1.6838647

           1.6861467    1.6861467    1.6877785    1.6877785    1.6900999
           1.6900999    1.6907513    1.6907513    1.6932795    1.6932795
           1.6948457    1.6948457    1.6963334    1.6963334    1.6975613
           1.6975613    1.7002702    1.7002702    1.7013032    1.7013032
           1.7056469    1.7056469    1.7074810    1.7074810    1.7087642
           1.7087642    1.7113191    1.7113191    1.7129013    1.7129013
           1.7172903    1.7172903    1.7179906    1.7179906    1.7221636
           1.7221636    1.7233611    1.7233611    1.7235590    1.7235590

           1.7273881    1.7273881    1.7292725    1.7292725    1.7293659
           1.7293659    1.7343374    1.7343374    1.7365365    1.7365365
           1.7402165    1.7402165    1.7415632    1.7415632    1.7469594
           1.7469594    1.7473188    1.7473188    1.7510981    1.7510981
           1.7522716    1.7522716    1.7596430    1.7596430    1.7602380
           1.7602380    1.7648719    1.7648719    1.7709955    1.7709955
           1.7801535    1.7801535    1.7908175    1.7908175    1.8165362
           1.8165362    1.8286494    1.8286494    1.8311652    1.8311652

           1.8460884    1.8460884    1.8487703    1.8487703    1.8646469
           1.8646469    1.8685115    1.8685115    1.8833118    1.8833118
           1.8847950    1.8847950    1.8964803    1.8964803    1.8966070
           1.8966070    1.9021536    1.9021536    1.9286137    1.9286137
           1.9329381    1.9329381    1.9361657    1.9361657    1.9422102
           1.9422102    1.9628933    1.9628933    1.9660318    1.9660318
           2.0015707    2.0015707    2.0110385    2.0110385    2.0192123
           2.0192123    2.0487745    2.0487745    2.0489657    2.0489657

           2.0551565    2.0551565    2.0714380    2.0714380    2.0907817
           2.0907817    2.0966825    2.0966825    2.1093047    2.1093047
           2.1104550    2.1104550    2.1311959    2.1311959    2.1458055
           2.1458055    2.1530704    2.1530704    2.1584618    2.1584618
           2.1771970    2.1771970    2.1912357    2.1912357    2.2191484
           2.2191484    2.2245558    2.2245558    2.2266296    2.2266296
           2.2525222    2.2525222    2.2575004    2.2575004    2.2651197
           2.2651197    2.2824404    2.2824404    2.2941826    2.2941826

           2.3147920    2.3147920    2.3289687    2.3289687    2.3342700
           2.3342700    2.3532227    2.3532227    2.3726455    2.3726455
           2.3835760    2.3835760    2.3900340    2.3900340    2.4085184
           2.4085184    2.4246716    2.4246716    2.4309980    2.4309980
           2.4506681    2.4506681    2.4588223    2.4588223    2.4731709
           2.4731709    2.4738549    2.4738549    2.4832910    2.4832910
           2.5122172    2.5122172    2.5157409    2.5157409    2.5367868
           2.5367868    2.5491261    2.5491261    2.5578212    2.5578212

           2.5868013    2.5868013    2.6244873    2.6244873    2.6501228
           2.6501228    2.6584478    2.6584478    2.7157208    2.7157208
           2.7473934    2.7473934    2.7746999    2.7746999    2.7865270
           2.7865270    2.8196798    2.8196798    2.8370034    2.8370034
           2.8527200    2.8527200    2.8587044    2.8587044    2.8745155
           2.8745155    2.8774100    2.8774100    2.8960390    2.8960390
           2.9022734    2.9022734    2.9067400    2.9067400    2.9115811
           2.9115811    2.9306443    2.9306443    2.9352934    2.9352934

           2.9668111    2.9668111    2.9725671    2.9725671    2.9788102
           2.9788102    2.9914342    2.9914342    3.0072353    3.0072353
           3.0141720    3.0141720    3.0427014    3.0427014    3.0461739
           3.0461739    3.0687462    3.0687462    3.0759124    3.0759124
           3.0972450    3.0972450    3.1072449    3.1072449    3.1365396
           3.1365396    3.1424175    3.1424175    3.1445173    3.1445173
           3.1725433    3.1725433    3.1768668    3.1768668    3.2030421
           3.2030421    3.2204680    3.2204680    3.2373078    3.2373078

           3.2524280    3.2524280    3.2596671    3.2596671    3.2633518
           3.2633518    3.2883763    3.2883763    3.2959285    3.2959285
           3.3231806    3.3231806    3.3268829    3.3268829    3.3312528
           3.3312528    3.3403379    3.3403379    3.3484877    3.3484877
           3.3543361    3.3543361    3.3652164    3.3652164    3.3780191
           3.3780191    3.3867049    3.3867049    3.3975261    3.3975261
           3.4076066    3.4076066    3.4106417    3.4106417    3.4472504
           3.4472504    3.4475872    3.4475872    3.4563101    3.4563101

           3.4603039    3.4603039    3.4809660    3.4809660    3.4833964
           3.4833964    3.5083718    3.5083718    3.5182438    3.5182438
           3.5314878    3.5314878    3.5343882    3.5343882    3.5425100
           3.5425100    3.5469024    3.5469024    3.5683370    3.5683370
           3.5840042    3.5840042    3.5856956    3.5856956    3.5935337
           3.5935337    3.6024281    3.6024281    3.6096482    3.6096482
           3.6142453    3.6142453    3.6421502    3.6421502    3.6687740
           3.6687740    3.6734612    3.6734612    3.6797643    3.6797643

           3.6899266    3.6899266    3.7083945    3.7083945    3.7194836
           3.7194836    3.7214423    3.7214423    3.7311476    3.7311476
           3.7471973    3.7471973    3.7524558    3.7524558    3.7627404
           3.7627404    3.7735173    3.7735173    3.7812198    3.7812198
           3.8026709    3.8026709    3.8048864    3.8048864    3.8132588
           3.8132588    3.8160883    3.8160883    3.8419255    3.8419255
           3.8897651    3.8897651    3.8955456    3.8955456    3.8995586
           3.8995586    3.9124591    3.9124591    3.9139258    3.9139258

           3.9248669    3.9248669    3.9259008    3.9259008    3.9536951
           3.9536951    3.9597318    3.9597318    3.9631895    3.9631895
           3.9679036    3.9679036    3.9890940    3.9890940    3.9926185
           3.9926185    4.0066003    4.0066003    4.0209208    4.0209208
           4.0317591    4.0317591    4.0377250    4.0377250    4.0574845
           4.0574845    4.0608387    4.0608387    4.0717110    4.0717110
           4.0848792    4.0848792    4.1012816    4.1012816    4.1059752
           4.1059752    4.1261316    4.1261316    4.1404735    4.1404735

           4.1461433    4.1461433    4.1477344    4.1477344    4.1489319
           4.1489319    4.1614610    4.1614610    4.1808854    4.1808854
           4.1839553    4.1839553    4.1862938    4.1862938    4.2192432
           4.2192432    4.2192548    4.2192548    4.2509078    4.2509078
           4.2569741    4.2569741    4.2829151    4.2829151    4.2944407
           4.2944407    4.2986005    4.2986005    4.3297098    4.3297098
           4.3353596    4.3353596    4.3390691    4.3390691    4.3481487
           4.3481487    4.3590625    4.3590625    4.3632095    4.3632095

           4.3878314    4.3878314    4.3996306    4.3996306    4.4224404
           4.4224404    4.4296032    4.4296032    4.4495251    4.4495251
           4.4576785    4.4576785    4.4627409    4.4627409    4.4697964
           4.4697964    4.4750390    4.4750390    4.4937435    4.4937435
           4.4958976    4.4958976
       ********************************************************

------- alpha_Pu_2.scf2 --------
:GMA  : POTENTIAL AND CHARGE CUT-OFF  12.00 Ry**.5
         Bandranges (emin - emax) and occupancy:
:BAN00248: 248    1.558502    1.573168  1.00000000
:BAN00249: 249    1.560722    1.577002  1.00000000
:BAN00250: 250    1.560722    1.577002  1.00000000
:BAN00251: 251    1.566609    1.578691  1.00000000
:BAN00252: 252    1.566609    1.578691  1.00000000
:BAN00253: 253    1.571243    1.582893  0.93525451
:BAN00254: 254    1.571243    1.582893  0.93525451
:BAN00255: 255    1.574114    1.583535  0.75141063
:BAN00256: 256    1.574114    1.583535  0.75141063
:BAN00257: 257    1.576903    1.588296  0.31333979
:BAN00258: 258    1.576903    1.588296  0.31333979
:BAN00259: 259    1.580620    1.588862  0.00000000
:BAN00260: 260    1.580620    1.588862  0.00000000
:BAN00261: 261    1.584243    1.591120  0.00000000
:BAN00262: 262    1.584243    1.591120  0.00000000
:BAN00263: 263    1.588199    1.594414  0.00000000
        Energy to separate low and high energystates:    1.20745


:NLDA  : NUMBER OF ELECTRONS          = 256.000

:FLDA  : F E R M I - ENERGY           =   2.08045




:POS001: AT.NR.  -1 POSITION = 0.33900 0.25000 0.15650  MULTIPLICITY =  2

       LMMAX 28
       LM=   0 0  1 1 -1 1  2 0  2 2 -2 2  3 1 -3 1  3 3 -3 3  4 0  4 2 -4 2  4 4 -4 4  5 1 -5 1
         5 3 -5 3  5 5 -5 5  6 0  6 2 -6 2  6 4 -6 4  6 6 -6 6




:POS002: AT.NR.  -2 POSITION = 0.33900 0.25000 0.15650  MULTIPLICITY =  2

       LMMAX 28
       LM=   0 0  1 1 -1 1  2 0  2 2 -2 2  3 1 -3 1  3 3 -3 3  4 0  4 2 -4 2  4 4 -4 4  5 1 -5 1
         5 3 -5 3  5 5 -5 5  6 0  6 2 -6 2  6 4 -6 4  6 6 -6 6




:POS003: AT.NR.  -3 POSITION = 0.33900 0.25000 0.15650  MULTIPLICITY =  2

       LMMAX 28
       LM=   0 0  1 1 -1 1  2 0  2 2 -2 2  3 1 -3 1  3 3 -3 3  4 0  4 2 -4 2  4 4 -4 4  5 1 -5 1
         5 3 -5 3  5 5 -5 5  6 0  6 2 -6 2  6 4 -6 4  6 6 -6 6




:POS004: AT.NR.  -4 POSITION = 0.33900 0.25000 0.15650  MULTIPLICITY =  2

       LMMAX 28
       LM=   0 0  1 1 -1 1  2 0  2 2 -2 2  3 1 -3 1  3 3 -3 3  4 0  4 2 -4 2  4 4 -4 4  5 1 -5 1
         5 3 -5 3  5 5 -5 5  6 0  6 2 -6 2  6 4 -6 4  6 6 -6 6




:POS005: AT.NR.  -5 POSITION = 0.33900 0.25000 0.15650  MULTIPLICITY =  2

       LMMAX 28
       LM=   0 0  1 1 -1 1  2 0  2 2 -2 2  3 1 -3 1  3 3 -3 3  4 0  4 2 -4 2  4 4 -4 4  5 1 -5 1
         5 3 -5 3  5 5 -5 5  6 0  6 2 -6 2  6 4 -6 4  6 6 -6 6




:POS006: AT.NR.  -6 POSITION = 0.33900 0.25000 0.15650  MULTIPLICITY =  2

       LMMAX 28
       LM=   0 0  1 1 -1 1  2 0  2 2 -2 2  3 1 -3 1  3 3 -3 3  4 0  4 2 -4 2  4 4 -4 4  5 1 -5 1
         5 3 -5 3  5 5 -5 5  6 0  6 2 -6 2  6 4 -6 4  6 6 -6 6




:POS007: AT.NR.  -7 POSITION = 0.33900 0.25000 0.15650  MULTIPLICITY =  2

       LMMAX 28
       LM=   0 0  1 1 -1 1  2 0  2 2 -2 2  3 1 -3 1  3 3 -3 3  4 0  4 2 -4 2  4 4 -4 4  5 1 -5 1
         5 3 -5 3  5 5 -5 5  6 0  6 2 -6 2  6 4 -6 4  6 6 -6 6




:POS008: AT.NR.  -8 POSITION = 0.33900 0.25000 0.15650  MULTIPLICITY =  2

       LMMAX 28
       LM=   0 0  1 1 -1 1  2 0  2 2 -2 2  3 1 -3 1  3 3 -3 3  4 0  4 2 -4 2  4 4 -4 4  5 1 -5 1
         5 3 -5 3  5 5 -5 5  6 0  6 2 -6 2  6 4 -6 4  6 6 -6 6
:FER DMFT Fermi Energy   1.57512
:EORB    1.38670625
:SUM SUM OF DMFT BAND ENERGIES  146.18105702

:CHA001: TOTAL CHARGE INSIDE SPHERE   1 =    11.959006
:PCS001: PARTIAL CHARGES SPHERE =  1 S,P,D,F,PX,PY,PZ,D-Z2,D-X2Y2,D-XY,D-XZ,D-YZ 
:QTL001: 1.9409 4.5701 0.8349 4.6005 2.7202 2.5924 2.5526 0.1605 0.1809 0.1919 0.1880 0.1604
        Q-s-low E-s-low   Q-p-low E-p-low   Q-d-low E-d-low   Q-f-low E-f-low
:EPL001:  1.8870 -1.7797    4.4631  0.1211    0.0638  0.2188    0.0331  0.2471
        Q-s-hi  E-s-hi    Q-p-hi  E-p-hi    Q-d-hi  E-d-hi    Q-f-hi  E-f-hi 
:EPH001:  0.0539  1.4158    0.1070  1.4437    0.7711  1.4230    4.5674  1.5193

                      QXX         QXY         QYY         QZZ       UP TO R

:VZZ001:            -0.84684   -13.63355    -7.70231     8.54916       2.150

:CHA002: TOTAL CHARGE INSIDE SPHERE   2 =    11.830257
:PCS002: PARTIAL CHARGES SPHERE =  2 S,P,D,F,PX,PY,PZ,D-Z2,D-X2Y2,D-XY,D-XZ,D-YZ 
:QTL002: 1.9471 4.5869 0.7394 4.5476 2.5772 2.6718 2.6317 0.1554 0.1536 0.1479 0.1490 0.1688
        Q-s-low E-s-low   Q-p-low E-p-low   Q-d-low E-d-low   Q-f-low E-f-low
:EPL002:  1.8834 -1.7829    4.4621  0.1264    0.0458  0.2387    0.0232  0.2597
        Q-s-hi  E-s-hi    Q-p-hi  E-p-hi    Q-d-hi  E-d-hi    Q-f-hi  E-f-hi 
:EPH002:  0.0637  1.4067    0.1249  1.4402    0.6935  1.4258    4.5244  1.5214

                      QXX         QXY         QYY         QZZ       UP TO R

:VZZ002:           -22.17667    11.80344    11.96714    10.20953       2.150

:CHA003: TOTAL CHARGE INSIDE SPHERE   3 =    11.851965
:PCS003: PARTIAL CHARGES SPHERE =  3 S,P,D,F,PX,PY,PZ,D-Z2,D-X2Y2,D-XY,D-XZ,D-YZ 
:QTL003: 1.9470 4.5783 0.7552 4.5623 2.6284 2.6299 2.6139 0.1557 0.1645 0.1507 0.1649 0.1560
        Q-s-low E-s-low   Q-p-low E-p-low   Q-d-low E-d-low   Q-f-low E-f-low
:EPL003:  1.8838 -1.7800    4.4589  0.1270    0.0484  0.2452    0.0248  0.2778
        Q-s-hi  E-s-hi    Q-p-hi  E-p-hi    Q-d-hi  E-d-hi    Q-f-hi  E-f-hi 
:EPH003:  0.0632  1.4052    0.1193  1.4443    0.7067  1.4264    4.5375  1.5162

                      QXX         QXY         QYY         QZZ       UP TO R

:VZZ003:            -6.12988   -14.47265     3.51676     2.61312       2.150

:CHA004: TOTAL CHARGE INSIDE SPHERE   4 =    11.826774
:PCS004: PARTIAL CHARGES SPHERE =  4 S,P,D,F,PX,PY,PZ,D-Z2,D-X2Y2,D-XY,D-XZ,D-YZ 
:QTL004: 1.9499 4.5891 0.7337 4.5454 2.6257 2.6240 2.6051 0.1510 0.1516 0.1550 0.1504 0.1596
        Q-s-low E-s-low   Q-p-low E-p-low   Q-d-low E-d-low   Q-f-low E-f-low
:EPL004:  1.8828 -1.7822    4.4533  0.1260    0.0432  0.2346    0.0221  0.2676
        Q-s-hi  E-s-hi    Q-p-hi  E-p-hi    Q-d-hi  E-d-hi    Q-f-hi  E-f-hi 
:EPH004:  0.0672  1.4060    0.1359  1.4432    0.6905  1.4264    4.5234  1.5204

                      QXX         QXY         QYY         QZZ       UP TO R

:VZZ004:            -2.22774    15.32628     0.24483     1.98291       2.150

:CHA005: TOTAL CHARGE INSIDE SPHERE   5 =    11.816361
:PCS005: PARTIAL CHARGES SPHERE =  5 S,P,D,F,PX,PY,PZ,D-Z2,D-X2Y2,D-XY,D-XZ,D-YZ 
:QTL005: 1.9490 4.5905 0.7377 4.5305 2.5609 2.6864 2.6352 0.1549 0.1498 0.1509 0.1444 0.1718
        Q-s-low E-s-low   Q-p-low E-p-low   Q-d-low E-d-low   Q-f-low E-f-low
:EPL005:  1.8828 -1.7812    4.4592  0.1291    0.0432  0.2358    0.0219  0.2620
        Q-s-hi  E-s-hi    Q-p-hi  E-p-hi    Q-d-hi  E-d-hi    Q-f-hi  E-f-hi 
:EPH005:  0.0662  1.4047    0.1313  1.4437    0.6944  1.4269    4.5086  1.5231

                      QXX         QXY         QYY         QZZ       UP TO R

:VZZ005:           -39.97828     3.81441    25.89333    14.08494       2.150

:CHA006: TOTAL CHARGE INSIDE SPHERE   6 =    11.792908
:PCS006: PARTIAL CHARGES SPHERE =  6 S,P,D,F,PX,PY,PZ,D-Z2,D-X2Y2,D-XY,D-XZ,D-YZ 
:QTL006: 1.9510 4.5791 0.7163 4.5386 2.6220 2.6364 2.6227 0.1455 0.1415 0.1560 0.1501 0.1555
        Q-s-low E-s-low   Q-p-low E-p-low   Q-d-low E-d-low   Q-f-low E-f-low
:EPL006:  1.8818 -1.7822    4.4624  0.1301    0.0401  0.2447    0.0200  0.2771
        Q-s-hi  E-s-hi    Q-p-hi  E-p-hi    Q-d-hi  E-d-hi    Q-f-hi  E-f-hi 
:EPH006:  0.0692  1.3951    0.1167  1.4428    0.6762  1.4276    4.5186  1.5212

                      QXX         QXY         QYY         QZZ       UP TO R

:VZZ006:           -13.62312    -9.38593     0.28544    13.33768       2.150

:CHA007: TOTAL CHARGE INSIDE SPHERE   7 =    11.857781
:PCS007: PARTIAL CHARGES SPHERE =  7 S,P,D,F,PX,PY,PZ,D-Z2,D-X2Y2,D-XY,D-XZ,D-YZ 
:QTL007: 1.9464 4.5868 0.7541 4.5602 2.6980 2.5639 2.6131 0.1594 0.1440 0.1635 0.1776 0.1483
        Q-s-low E-s-low   Q-p-low E-p-low   Q-d-low E-d-low   Q-f-low E-f-low
:EPL007:  1.8845 -1.7791    4.4613  0.1279    0.0506  0.2267    0.0263  0.2515
        Q-s-hi  E-s-hi    Q-p-hi  E-p-hi    Q-d-hi  E-d-hi    Q-f-hi  E-f-hi 
:EPH007:  0.0619  1.3999    0.1255  1.4378    0.7036  1.4252    4.5339  1.5159

                      QXX         QXY         QYY         QZZ       UP TO R

:VZZ007:             1.84081    11.93342   -14.76464    12.92383       2.150

:CHA008: TOTAL CHARGE INSIDE SPHERE   8 =    11.683326
:PCS008: PARTIAL CHARGES SPHERE =  8 S,P,D,F,PX,PY,PZ,D-Z2,D-X2Y2,D-XY,D-XZ,D-YZ 
:QTL008: 1.9523 4.6131 0.6113 4.5014 2.6037 2.6823 2.6722 0.1383 0.1134 0.1198 0.1210 0.1407
        Q-s-low E-s-low   Q-p-low E-p-low   Q-d-low E-d-low   Q-f-low E-f-low
:EPL008:  1.8786 -1.7817    4.4624  0.1375    0.0238  0.2541    0.0115  0.2753
        Q-s-hi  E-s-hi    Q-p-hi  E-p-hi    Q-d-hi  E-d-hi    Q-f-hi  E-f-hi 
:EPH008:  0.0737  1.3934    0.1507  1.4362    0.5875  1.4280    4.4899  1.5127

                      QXX         QXY         QYY         QZZ       UP TO R

:VZZ008:           -44.63338     6.99450    29.98688    14.64650       2.150

:CHA  : TOTAL CHARGE INSIDE UNIT CELL =     256.000000

:ESUM  : SUM OF EIGENVALUES =         146.841796392


------- alpha_Pu_2.scfc --------

        1.ATOM      Pu  0+               21 CORE STATES
       CORE-FORCE in mRy/a.u. = |F|      Fx             Fy             Fz
:FCO001:   1.ATOM       3094.820      -2990.749       -795.821          0.000

:1S 001: 1S               -8966.177747041 Ry
:2S 001: 2S               -1686.851797045 Ry
:2PP001: 2P*              -1627.544779894 Ry
:2P 001: 2P               -1314.393955907 Ry
:3S 001: 3S                -427.397968417 Ry
:3PP001: 3P*               -400.473318366 Ry
:3P 001: 3P                -327.912297384 Ry
:3DD001: 3D*               -285.671693236 Ry
:3D 001: 3D                -271.129640524 Ry
:4S 001: 4S                -108.878016158 Ry
:4PP001: 4P*                -96.690170228 Ry
:4P 001: 4P                 -77.544536455 Ry
:4DD001: 4D*                -58.257140600 Ry
:4D 001: 4D                 -54.762500418 Ry
:5S 001: 5S                 -23.031171648 Ry
:5PP001: 5P*                -18.212896877 Ry
:5P 001: 5P                 -13.522669226 Ry
:4FF001: 4F*                -29.363043932 Ry
:4F 001: 4F                 -28.434930981 Ry
:5DD001: 5D*                 -6.485703150 Ry
:5D 001: 5D                  -5.786178207 Ry

        2.ATOM      Pu  0+               21 CORE STATES
       CORE-FORCE in mRy/a.u. = |F|      Fx             Fy             Fz
:FCO002:   2.ATOM       1650.760        230.480      -1634.591          0.000

:1S 002: 1S               -8966.176467599 Ry
:2S 002: 2S               -1686.851237384 Ry
:2PP002: 2P*              -1627.544197286 Ry
:2P 002: 2P               -1314.393405252 Ry
:3S 002: 3S                -427.396466107 Ry
:3PP002: 3P*               -400.471863923 Ry
:3P 002: 3P                -327.910781875 Ry
:3DD002: 3D*               -285.670364891 Ry
:3D 002: 3D                -271.128270127 Ry
:4S 002: 4S                -108.876754878 Ry
:4PP002: 4P*                -96.688910695 Ry
:4P 002: 4P                 -77.543348202 Ry
:4DD002: 4D*                -58.255967265 Ry
:4D 002: 4D                 -54.761344483 Ry
:5S 002: 5S                 -23.030510443 Ry
:5PP002: 5P*                -18.212302109 Ry
:5P 002: 5P                 -13.522295327 Ry
:4FF002: 4F*                -29.361758346 Ry
:4F 002: 4F                 -28.433656546 Ry
:5DD002: 5D*                 -6.485525620 Ry
:5D 002: 5D                  -5.786048260 Ry

        3.ATOM      Pu  0+               21 CORE STATES
       CORE-FORCE in mRy/a.u. = |F|      Fx             Fy             Fz
:FCO003:   3.ATOM       5946.862      -4554.306      -3824.063          0.000

:1S 003: 1S               -8966.173227584 Ry
:2S 003: 2S               -1686.847612358 Ry
:2PP003: 2P*              -1627.540643182 Ry
:2P 003: 2P               -1314.389782353 Ry
:3S 003: 3S                -427.392714257 Ry
:3PP003: 3P*               -400.468121913 Ry
:3P 003: 3P                -327.907030883 Ry
:3DD003: 3D*               -285.666602440 Ry
:3D 003: 3D                -271.124504693 Ry
:4S 003: 4S                -108.873052150 Ry
:4PP003: 4P*                -96.685208382 Ry
:4P 003: 4P                 -77.539656654 Ry
:4DD003: 4D*                -58.252268721 Ry
:4D 003: 4D                 -54.757648506 Ry
:5S 003: 5S                 -23.026897894 Ry
:5PP003: 5P*                -18.208712570 Ry
:5P 003: 5P                 -13.518785321 Ry
:4FF003: 4F*                -29.358046705 Ry
:4F 003: 4F                 -28.429946682 Ry
:5DD003: 5D*                 -6.482138008 Ry
:5D 003: 5D                  -5.782704726 Ry

        4.ATOM      Pu  0+               21 CORE STATES
       CORE-FORCE in mRy/a.u. = |F|      Fx             Fy             Fz
:FCO004:   4.ATOM       3293.708       3258.855        477.885          0.000

:1S 004: 1S               -8966.173964292 Ry
:2S 004: 2S               -1686.848981021 Ry
:2PP004: 2P*              -1627.541904185 Ry
:2P 004: 2P               -1314.391151650 Ry
:3S 004: 3S                -427.394285420 Ry
:3PP004: 3P*               -400.469676417 Ry
:3P 004: 3P                -327.908605683 Ry
:3DD004: 3D*               -285.668189910 Ry
:3D 004: 3D                -271.126097868 Ry
:4S 004: 4S                -108.874636789 Ry
:4PP004: 4P*                -96.686791696 Ry
:4P 004: 4P                 -77.541245469 Ry
:4DD004: 4D*                -58.253866566 Ry
:4D 004: 4D                 -54.759248939 Ry
:5S 004: 5S                 -23.028584142 Ry
:5PP004: 5P*                -18.210391672 Ry
:5P 004: 5P                 -13.520439028 Ry
:4FF004: 4F*                -29.359660797 Ry
:4F 004: 4F                 -28.431561368 Ry
:5DD004: 5D*                 -6.483733779 Ry
:5D 004: 5D                  -5.784277371 Ry

        5.ATOM      Pu  0+               21 CORE STATES
       CORE-FORCE in mRy/a.u. = |F|      Fx             Fy             Fz
:FCO005:   5.ATOM       2028.863      -1051.768      -1734.954          0.000

:1S 005: 1S               -8966.174676525 Ry
:2S 005: 2S               -1686.849857055 Ry
:2PP005: 2P*              -1627.542729737 Ry
:2P 005: 2P               -1314.392025012 Ry
:3S 005: 3S                -427.395453272 Ry
:3PP005: 3P*               -400.470826421 Ry
:3P 005: 3P                -327.909776770 Ry
:3DD005: 3D*               -285.669330664 Ry
:3D 005: 3D                -271.127249759 Ry
:4S 005: 4S                -108.875734847 Ry
:4PP005: 4P*                -96.687888987 Ry
:4P 005: 4P                 -77.542323341 Ry
:4DD005: 4D*                -58.254946780 Ry
:4D 005: 4D                 -54.760324663 Ry
:5S 005: 5S                 -23.029515884 Ry
:5PP005: 5P*                -18.211286936 Ry
:5P 005: 5P                 -13.521206932 Ry
:4FF005: 4F*                -29.360773348 Ry
:4F 005: 4F                 -28.432670815 Ry
:5DD005: 5D*                 -6.484299786 Ry
:5D 005: 5D                  -5.784773920 Ry

        6.ATOM      Pu  0+               21 CORE STATES
       CORE-FORCE in mRy/a.u. = |F|      Fx             Fy             Fz
:FCO006:   6.ATOM       5573.778      -4496.768      -3293.338          0.000

:1S 006: 1S               -8966.173603144 Ry
:2S 006: 2S               -1686.848149748 Ry
:2PP006: 2P*              -1627.541203507 Ry
:2P 006: 2P               -1314.390327610 Ry
:3S 006: 3S                -427.392794100 Ry
:3PP006: 3P*               -400.468227544 Ry
:3P 006: 3P                -327.907104569 Ry
:3DD006: 3D*               -285.666753183 Ry
:3D 006: 3D                -271.124635721 Ry
:4S 006: 4S                -108.873220225 Ry
:4PP006: 4P*                -96.685377925 Ry
:4P 006: 4P                 -77.539852240 Ry
:4DD006: 4D*                -58.252468675 Ry
:4D 006: 4D                 -54.757854313 Ry
:5S 006: 5S                 -23.027251543 Ry
:5PP006: 5P*                -18.209088591 Ry
:5P 006: 5P                 -13.519230342 Ry
:4FF006: 4F*                -29.358194750 Ry
:4F 006: 4F                 -28.430098872 Ry
:5DD006: 5D*                 -6.482621969 Ry
:5D 006: 5D                  -5.783193018 Ry

        7.ATOM      Pu  0+               21 CORE STATES
       CORE-FORCE in mRy/a.u. = |F|      Fx             Fy             Fz
:FCO007:   7.ATOM       5538.457       3697.830      -4123.174          0.000

:1S 007: 1S               -8966.172346283 Ry
:2S 007: 2S               -1686.847053813 Ry
:2PP007: 2P*              -1627.540010010 Ry
:2P 007: 2P               -1314.389219484 Ry
:3S 007: 3S                -427.392420444 Ry
:3PP007: 3P*               -400.467809105 Ry
:3P 007: 3P                -327.906741929 Ry
:3DD007: 3D*               -285.666295958 Ry
:3D 007: 3D                -271.124208123 Ry
:4S 007: 4S                -108.872764851 Ry
:4PP007: 4P*                -96.684919400 Ry
:4P 007: 4P                 -77.539368418 Ry
:4DD007: 4D*                -58.251983897 Ry
:4D 007: 4D                 -54.757365000 Ry
:5S 007: 5S                 -23.026665327 Ry
:5PP007: 5P*                -18.208474834 Ry
:5P 007: 5P                 -13.518532561 Ry
:4FF007: 4F*                -29.357786129 Ry
:4F 007: 4F                 -28.429685999 Ry
:5DD007: 5D*                 -6.481872008 Ry
:5D 007: 5D                  -5.782435489 Ry

        8.ATOM      Pu  0+               21 CORE STATES
       CORE-FORCE in mRy/a.u. = |F|      Fx             Fy             Fz
:FCO008:   8.ATOM       1262.226      -1175.586       -459.577          0.000

:1S 008: 1S               -8966.162553738 Ry
:2S 008: 2S               -1686.837751148 Ry
:2PP008: 2P*              -1627.530803471 Ry
:2P 008: 2P               -1314.379927884 Ry
:3S 008: 3S                -427.381098103 Ry
:3PP008: 3P*               -400.456591247 Ry
:3P 008: 3P                -327.895402974 Ry
:3DD008: 3D*               -285.655272060 Ry
:3D 008: 3D                -271.113101896 Ry
:4S 008: 4S                -108.862168566 Ry
:4PP008: 4P*                -96.674324836 Ry
:4P 008: 4P                 -77.528967991 Ry
:4DD008: 4D*                -58.241592340 Ry
:4D 008: 4D                 -54.747022537 Ry
:5S 008: 5S                 -23.017758623 Ry
:5PP008: 5P*                -18.199785506 Ry
:5P 008: 5P                 -13.510567705 Ry
:4FF008: 4F*                -29.347148053 Ry
:4F 008: 4F                 -28.419078306 Ry
:5DD008: 5D*                 -6.474731607 Ry
:5D 008: 5D                  -5.775547366 Ry

------- alpha_Pu_2.scfm --------

       DENSITY AT NUCLEUS
        JATOM    VALENCE       SEMI-CORE            CORE           TOTAL
:RTO001:   1    23325.442452        0.000000 45141829.624840 45165155.067292
:RTO002:   2    23462.674927        0.000000 45141823.987477 45165286.662404
:RTO003:   3    23454.844012        0.000000 45141824.556647 45165279.400659
:RTO004:   4    23514.296521        0.000000 45141821.323255 45165335.619776
:RTO005:   5    23504.342419        0.000000 45141821.956660 45165326.299079
:RTO006:   6    23540.602517        0.000000 45141823.192243 45165363.794760
:RTO007:   7    23442.401155        0.000000 45141822.722959 45165265.124114
:RTO008:   8    23569.050360        0.000000 45141810.907041 45165379.957401
     
       CHARGES OF NEW CHARGE DENSITY
:NTO  : TOTAL   INTERSTITIAL CHARGE=   66.7630325
:NTO001: TOTAL   CHARGE IN SPHERE  1 =       89.9496538
:NTO002: TOTAL   CHARGE IN SPHERE  2 =       89.8209578
:NTO003: TOTAL   CHARGE IN SPHERE  3 =       89.8426498
:NTO004: TOTAL   CHARGE IN SPHERE  4 =       89.8174731
:NTO005: TOTAL   CHARGE IN SPHERE  5 =       89.8070759
:NTO006: TOTAL   CHARGE IN SPHERE  6 =       89.7836201
:NTO007: TOTAL   CHARGE IN SPHERE  7 =       89.8484624
:NTO008: TOTAL   CHARGE IN SPHERE  8 =       89.6740505

:NEC01: NUCLEAR AND ELECTRONIC CHARGE   1504.00000  1503.85092     1.00010
     
       CHARGES OF OLD CHARGE DENSITY
:OTO  : TOTAL   INTERSTITIAL CHARGE=   67.2584281
:OTO001: TOTAL   CHARGE IN SPHERE  1 =       89.9160975
:OTO002: TOTAL   CHARGE IN SPHERE  2 =       89.7996424
:OTO003: TOTAL   CHARGE IN SPHERE  3 =       89.8181073
:OTO004: TOTAL   CHARGE IN SPHERE  4 =       89.7953453
:OTO005: TOTAL   CHARGE IN SPHERE  5 =       89.7878704
:OTO006: TOTAL   CHARGE IN SPHERE  6 =       89.7649184
:OTO007: TOTAL   CHARGE IN SPHERE  7 =       89.8253262
:OTO008: TOTAL   CHARGE IN SPHERE  8 =       89.6634785

:NEC02: NUCLEAR AND ELECTRONIC CHARGE   1504.00000  1504.00000     1.00000
     
       CONVERGENCE TEST
:DTO001: TOTAL   DIFFERENCE CHARGE**2 IN SPHERE  1 =  0.0334638
:DTO002: TOTAL   DIFFERENCE CHARGE**2 IN SPHERE  2 =  0.0243388
:DTO003: TOTAL   DIFFERENCE CHARGE**2 IN SPHERE  3 =  0.0265263
:DTO004: TOTAL   DIFFERENCE CHARGE**2 IN SPHERE  4 =  0.0251883
:DTO005: TOTAL   DIFFERENCE CHARGE**2 IN SPHERE  5 =  0.0232809
:DTO006: TOTAL   DIFFERENCE CHARGE**2 IN SPHERE  6 =  0.0234103
:DTO007: TOTAL   DIFFERENCE CHARGE**2 IN SPHERE  7 =  0.0256986
:DTO008: TOTAL   DIFFERENCE CHARGE**2 IN SPHERE  8 =  0.0168002

:DIS  :  CHARGE DISTANCE       ( 0.0334638 for atom    1 spin 1)      0.0248384
:BIG check (qbig,qrms,qtot)    0.112D-01   0.178D-01   0.248D-01
 
******************************************************
* MULTISECANT MIXING VER4 OPTIONS                    *
* Unpredicted Step Limit   0.100000                  *
* Plane Wave Dynamic Rescaling                       *
* Dynamic Regularization active                      *
* Upper Cutoff Lambda  1.0E-01 Lower 3.5E-04         *
* SQRT Multiplicity/Degeneracy                       *
* Max Number of Memory Steps    8                    *
******************************************************
 
:PLANE:  INTERSTITIAL TOTAL      7.73082 DISTAN  1.540E-01 % 
:CHARG:  CLM CHARGE   /ATOM    356.61421 DISTAN  8.136E-03 % 
:MIX  :  PRATT  REGULARIZATION: 3.50E-04  GREED: 0.035
     
       CHARGES OF MIXED CHARGE DENSITY
:CTO  : TOTAL   INTERSTITIAL CHARGE=   67.2463070
:CTO001: TOTAL   CHARGE IN SPHERE  1 =       89.9172720
:CTO002: TOTAL   CHARGE IN SPHERE  2 =       89.8003884
:CTO003: TOTAL   CHARGE IN SPHERE  3 =       89.8189663
:CTO004: TOTAL   CHARGE IN SPHERE  4 =       89.7961198
:CTO005: TOTAL   CHARGE IN SPHERE  5 =       89.7885426
:CTO006: TOTAL   CHARGE IN SPHERE  6 =       89.7655730
:CTO007: TOTAL   CHARGE IN SPHERE  7 =       89.8261359
:CTO008: TOTAL   CHARGE IN SPHERE  8 =       89.6638486

:NEC03: NUCLEAR AND ELECTRONIC CHARGE   1504.00000  1504.00000     1.00000


:ENE  : ********** TOTAL ENERGY IN Ry =      -949675.69072913

       TOTAL FORCE IN mRy/a.u. = |F|     Fx             Fy             Fz     with/without FOR in case.in2
:FOR001:   1.ATOM        118.710        116.516        -22.715          0.000 partial forces
:FOR002:   2.ATOM         85.473        -84.036         15.606          0.000 partial forces
:FOR003:   3.ATOM         50.735         44.889         23.643          0.000 partial forces
:FOR004:   4.ATOM         63.249        -50.222        -38.448          0.000 partial forces
:FOR005:   5.ATOM         41.669         36.250        -20.548          0.000 partial forces
:FOR006:   6.ATOM         30.365         29.373          7.698          0.000 partial forces
:FOR007:   7.ATOM        177.744       -168.518        -56.520          0.000 partial forces
:FOR008:   8.ATOM         62.579         34.729         52.058          0.000 partial forces

       TOTAL FORCE WITH RESPECT TO GLOBAL CARTESIAN COORDINATES:
:FCA001:   1.ATOM                       -22.715          0.000        116.516 partial forces
:FCA002:   2.ATOM                        15.606          0.000        -84.036 partial forces
:FCA003:   3.ATOM                        23.643          0.000         44.889 partial forces
:FCA004:   4.ATOM                       -38.448          0.000        -50.222 partial forces
:FCA005:   5.ATOM                       -20.548          0.000         36.250 partial forces
:FCA006:   6.ATOM                         7.698          0.000         29.373 partial forces
:FCA007:   7.ATOM                       -56.520          0.000       -168.518 partial forces
:FCA008:   8.ATOM                        52.058          0.000         34.729 partial forces

       TOTAL FORCE WITH RESPECT TO THE GLOBAL COORDINATE SYSTEM:
:FGL001:   1.ATOM               -23.204291201     0.000000000   111.775967812 partial forces
:FGL002:   2.ATOM                15.942160180     0.000000000   -80.779431991 partial forces
:FGL003:   3.ATOM                24.152280734     0.000000000    49.822681754 partial forces
:FGL004:   4.ATOM               -39.276187017     0.000000000   -58.245101809 partial forces
:FGL005:   5.ATOM               -20.990613058     0.000000000    31.962164587 partial forces
:FGL006:   6.ATOM                 7.863818343     0.000000000    30.979373224 partial forces
:FGL007:   7.ATOM               -57.737465934     0.000000000  -180.312260149 partial forces
:FGL008:   8.ATOM                53.179352470     0.000000000    45.592156314 partial forces

------- alpha_Pu_2.scf0 --------


            ---------
:ITE078: 78. ITERATION
            ---------

:NATO :    8 INDEPENDENT AND   16 TOTAL ATOMS IN UNITCELL
       SUBSTANCE: alpha_Pu                                                    

       LATTICE                      = P   
:POT  : POTENTIAL OPTION    5
:LAT  : LATTICE CONSTANTS= 11.27881  8.79918 20.00501    1.571    1.777    1.571
:VOL  : UNIT CELL VOLUME =    1943.51982
       MODE OF CALCULATION IS       = RELA
       NON-SPINPOLARIZED CALCULATION
:IFFT  : FFT-parameters:   90   72  160 Factor: 2.00
       ATOMNUMBER=  1 Pu  0+     VCOUL-ZERO =  0.73008E+00
:EFG001:                        EFG         =   -18.63505   *10**21  V / m**2
                               V20  TOT/SRF=     7.43814    -0.10532
                               V22  TOT/SRF=     3.56864     0.11001
                               V22M TOT/SRF=   -13.88952    -0.08401
                               V21  TOT/SRF=     0.00000     0.00000
                               V21M TOT/SRF=     0.00000     0.00000

             -0.72577  -13.88952    0.00000       10.04623    0.00000    0.00000
            -13.88952   -7.86305    0.00000        0.00000  -18.63505    0.00000
              0.00000    0.00000    8.58882        0.00000    0.00000    8.58882

         MAIN DIRECTIONS OF THE EFG   1.0000  0.7755  0.0000
                                     -0.7755  1.0000  0.0000
                                      0.0000  0.0000  1.0000
:ANG001:  ANGLE WITH OLD X-AXIS =        37.8

:ETA001:                         ASYMM. ETA =     0.07821


       ATOMNUMBER=  2 Pu  0+     VCOUL-ZERO =  0.74090E+00
:EFG002:                        EFG         =   -26.27652   *10**21  V / m**2
                               V20  TOT/SRF=     8.98992     0.01602
                               V22  TOT/SRF=   -17.22451    -0.09797
                               V22M TOT/SRF=    12.16320     0.08155
                               V21  TOT/SRF=     0.00000     0.00000
                               V21M TOT/SRF=     0.00000     0.00000

            -22.41485   12.16320    0.00000      -26.27652    0.00000    0.00000
             12.16320   12.03418    0.00000        0.00000   15.89585    0.00000
              0.00000    0.00000   10.38067        0.00000    0.00000   10.38067

         MAIN DIRECTIONS OF THE EFG   1.0000  0.3175  0.0000
                                     -0.3175  1.0000  0.0000
                                      0.0000  0.0000  1.0000
:ANG002:  ANGLE WITH OLD X-AXIS =        17.6

:ETA002:                         ASYMM. ETA =     0.20989


       ATOMNUMBER=  3 Pu  0+     VCOUL-ZERO =  0.74055E+00
:EFG003:                        EFG         =   -16.79619   *10**21  V / m**2
                               V20  TOT/SRF=     2.53932    -0.00160
                               V22  TOT/SRF=    -4.71352     0.00015
                               V22M TOT/SRF=   -14.58750    -0.00859
                               V21  TOT/SRF=     0.00000     0.00000
                               V21M TOT/SRF=     0.00000     0.00000

             -6.17960  -14.58750    0.00000      -16.79619    0.00000    0.00000
            -14.58750    3.24745    0.00000        0.00000   13.86404    0.00000
              0.00000    0.00000    2.93215        0.00000    0.00000    2.93215

         MAIN DIRECTIONS OF THE EFG   1.0000 -0.7278  0.0000
                                      0.7278  1.0000  0.0000
                                      0.0000  0.0000  1.0000
:ANG003:  ANGLE WITH OLD X-AXIS =        36.0

:ETA003:                         ASYMM. ETA =     0.65086


       ATOMNUMBER=  4 Pu  0+     VCOUL-ZERO =  0.74206E+00
:EFG004:                        EFG         =   -16.86585   *10**21  V / m**2
                               V20  TOT/SRF=     1.84018    -0.01479
                               V22  TOT/SRF=    -1.39726     0.01554
                               V22M TOT/SRF=    15.74154     0.03065
                               V21  TOT/SRF=     0.00000     0.00000
                               V21M TOT/SRF=     0.00000     0.00000

             -2.45968   15.74154    0.00000      -16.86585    0.00000    0.00000
             15.74154    0.33483    0.00000        0.00000   14.74100    0.00000
              0.00000    0.00000    2.12486        0.00000    0.00000    2.12486

         MAIN DIRECTIONS OF THE EFG   1.0000  0.9152  0.0000
                                     -0.9152  1.0000  0.0000
                                      0.0000  0.0000  1.0000
:ANG004:  ANGLE WITH OLD X-AXIS =        42.5

:ETA004:                         ASYMM. ETA =     0.74803


       ATOMNUMBER=  5 Pu  0+     VCOUL-ZERO =  0.74588E+00
:EFG005:                        EFG         =   -40.97020   *10**21  V / m**2
                               V20  TOT/SRF=    12.36240     0.01908
                               V22  TOT/SRF=   -33.60528    -0.12596
                               V22M TOT/SRF=     3.91675     0.04695
                               V21  TOT/SRF=     0.00000     0.00000
                               V21M TOT/SRF=     0.00000     0.00000

            -40.74271    3.91675    0.00000      -40.97020    0.00000    0.00000
              3.91675   26.46785    0.00000        0.00000   26.69533    0.00000
              0.00000    0.00000   14.27487        0.00000    0.00000   14.27487

         MAIN DIRECTIONS OF THE EFG   1.0000  0.0581  0.0000
                                     -0.0581  1.0000  0.0000
                                      0.0000  0.0000  1.0000
:ANG005:  ANGLE WITH OLD X-AXIS =         3.3

:ETA005:                         ASYMM. ETA =     0.30316


       ATOMNUMBER=  6 Pu  0+     VCOUL-ZERO =  0.74629E+00
:EFG006:                        EFG         =   -18.18333   *10**21  V / m**2
                               V20  TOT/SRF=    11.45623    -0.00055
                               V22  TOT/SRF=    -6.86520    -0.00925
                               V22M TOT/SRF=    -9.31195    -0.06081
                               V21  TOT/SRF=     0.00000     0.00000
                               V21M TOT/SRF=     0.00000     0.00000

            -13.47946   -9.31195    0.00000      -18.18333    0.00000    0.00000
             -9.31195    0.25094    0.00000        0.00000    4.95481    0.00000
              0.00000    0.00000   13.22852        0.00000    0.00000   13.22852

         MAIN DIRECTIONS OF THE EFG   1.0000 -0.5051  0.0000
                                      0.5051  1.0000  0.0000
                                      0.0000  0.0000  1.0000
:ANG006:  ANGLE WITH OLD X-AXIS =        26.8

:ETA006:                         ASYMM. ETA =     0.45502


       ATOMNUMBER=  7 Pu  0+     VCOUL-ZERO =  0.73944E+00
:EFG007:                        EFG         =   -20.95215   *10**21  V / m**2
                               V20  TOT/SRF=    11.43799     0.00097
                               V22  TOT/SRF=     8.25764     0.09838
                               V22M TOT/SRF=    11.73409     0.02027
                               V21  TOT/SRF=     0.00000     0.00000
                               V21M TOT/SRF=     0.00000     0.00000

              1.65391   11.73409    0.00000        7.74470    0.00000    0.00000
             11.73409  -14.86136    0.00000        0.00000  -20.95215    0.00000
              0.00000    0.00000   13.20745        0.00000    0.00000   13.20745

         MAIN DIRECTIONS OF THE EFG   1.0000 -0.5191  0.0000
                                      0.5191  1.0000  0.0000
                                      0.0000  0.0000  1.0000
:ANG007:  ANGLE WITH OLD X-AXIS =        27.4

:ETA007:                         ASYMM. ETA =     0.26072


       ATOMNUMBER=  8 Pu  0+     VCOUL-ZERO =  0.75290E+00
:EFG008:                        EFG         =   -45.31902   *10**21  V / m**2
                               V20  TOT/SRF=    12.52720     0.04425
                               V22  TOT/SRF=   -37.47405    -0.05066
                               V22M TOT/SRF=     6.80240    -0.00376
                               V21  TOT/SRF=     0.00000     0.00000
                               V21M TOT/SRF=     0.00000     0.00000

            -44.70663    6.80240    0.00000      -45.31902    0.00000    0.00000
              6.80240   30.24147    0.00000        0.00000   30.85386    0.00000
              0.00000    0.00000   14.46516        0.00000    0.00000   14.46516

         MAIN DIRECTIONS OF THE EFG   1.0000  0.0900  0.0000
                                     -0.0900  1.0000  0.0000
                                      0.0000  0.0000  1.0000
:ANG008:  ANGLE WITH OLD X-AXIS =         5.1

:ETA008:                         ASYMM. ETA =     0.36163


     HELLMANN-FEYNMAN-FORCE IN mRy/a.u. = |F|  Fx       Fy             Fz
:FHF001:   1.ATOM       3201.197       3105.825        775.576          0.000

     HELLMANN-FEYNMAN-FORCE IN mRy/a.u. = |F|  Fx       Fy             Fz
:FHF002:   2.ATOM       1674.682       -313.667       1645.046          0.000

     HELLMANN-FEYNMAN-FORCE IN mRy/a.u. = |F|  Fx       Fy             Fz
:FHF003:   3.ATOM       5994.529       4596.654       3847.746          0.000

     HELLMANN-FEYNMAN-FORCE IN mRy/a.u. = |F|  Fx       Fy             Fz
:FHF004:   4.ATOM       3348.823      -3308.681       -516.954          0.000

     HELLMANN-FEYNMAN-FORCE IN mRy/a.u. = |F|  Fx       Fy             Fz
:FHF005:   5.ATOM       2027.388       1085.119       1712.547          0.000

     HELLMANN-FEYNMAN-FORCE IN mRy/a.u. = |F|  Fx       Fy             Fz
:FHF006:   6.ATOM       5598.987       4523.206       3299.889          0.000

     HELLMANN-FEYNMAN-FORCE IN mRy/a.u. = |F|  Fx       Fy             Fz
:FHF007:   7.ATOM       5610.626      -3862.322       4069.594          0.000

     HELLMANN-FEYNMAN-FORCE IN mRy/a.u. = |F|  Fx       Fy             Fz
:FHF008:   8.ATOM       1312.462       1210.191        507.930          0.000

:FIT001: LUSE= 13 SIGMA OF V-XC FIT FOR ATOM  1  0.5863493E-03
:FIT001: LUSE= 13 SIGMA OF V-XC FIT FOR ATOM  1  0.5863493E-03
:FIT002: LUSE= 13 SIGMA OF V-XC FIT FOR ATOM  2  0.3006338E-03
:FIT002: LUSE= 13 SIGMA OF V-XC FIT FOR ATOM  2  0.3006338E-03
:FIT003: LUSE= 13 SIGMA OF V-XC FIT FOR ATOM  3  0.3206653E-03
:FIT003: LUSE= 13 SIGMA OF V-XC FIT FOR ATOM  3  0.3206653E-03
:FIT004: LUSE= 13 SIGMA OF V-XC FIT FOR ATOM  4  0.3334073E-03
:FIT004: LUSE= 13 SIGMA OF V-XC FIT FOR ATOM  4  0.3334073E-03
:FIT005: LUSE= 13 SIGMA OF V-XC FIT FOR ATOM  5  0.2667994E-03
:FIT005: LUSE= 13 SIGMA OF V-XC FIT FOR ATOM  5  0.2667994E-03
:FIT006: LUSE= 13 SIGMA OF V-XC FIT FOR ATOM  6  0.2085910E-03
:FIT006: LUSE= 13 SIGMA OF V-XC FIT FOR ATOM  6  0.2085910E-03
:FIT007: LUSE= 13 SIGMA OF V-XC FIT FOR ATOM  7  0.5733175E-03
:FIT007: LUSE= 13 SIGMA OF V-XC FIT FOR ATOM  7  0.5733175E-03
:FIT008: LUSE= 13 SIGMA OF V-XC FIT FOR ATOM  8  0.1481217E-03
:FIT008: LUSE= 13 SIGMA OF V-XC FIT FOR ATOM  8  0.1481217E-03
:DEN  : DENSITY INTEGRAL  =       -350799.80315707   (Ry)
       ELS_POTENTIAL_AT Z=0 and Z=0.5:   1.02987   0.49189
       ELS_POTENTIAL_AT Y=0 and Y=0.5:   1.30044   1.30044
:VZERO:v0,v0c,v0x   0.13967   1.02987  -0.89021 v5,v5c,v5x  -0.45333   0.49189  -0.94523
:VZERY:v0,v0c,v0x   0.45257   1.30044  -0.84787 v5,v5c,v5x   0.45257   1.30044  -0.84787
:VZERX:v0,v0c,v0x  -0.82533   0.16073  -0.98606 v5,v5c,v5x  -0.72289   0.25412  -0.97701

------- alpha_Pu_2.scf1 --------

          ATOMIC SPHERE DEPENDENT PARAMETERS FOR ATOM  Pu  0+    
:e__0001: OVERALL ENERGY PARAMETER IS    1.3676
          OVERALL BASIS SET ON ATOM IS LAPW
:E0_0001: E( 0)=    1.3676
             APW+lo
:E0_0001: E( 0)=   -1.8465   E(BOTTOM)=   -2.622   E(TOP)=   -1.071
             LOCAL ORBITAL
:E1_0001: E( 1)=   -0.9280   E(BOTTOM)=   -0.928   E(TOP)= -200.000
             APW+lo
:E1_0001: E( 1)=    1.3676
             LOCAL ORBITAL
:E3_0001: E( 3)=    1.3676   E(BOTTOM)=    1.113   E(TOP)= -200.000
             APW+lo
:E2_0001: E( 2)=    1.3676   E(BOTTOM)=    1.273   E(TOP)= -200.000
             APW+lo

          ATOMIC SPHERE DEPENDENT PARAMETERS FOR ATOM  Pu  0+    
:e__0002: OVERALL ENERGY PARAMETER IS    1.3676
          OVERALL BASIS SET ON ATOM IS LAPW
:E0_0002: E( 0)=    1.3676
             APW+lo
:E0_0002: E( 0)=   -1.8450   E(BOTTOM)=   -2.618   E(TOP)=   -1.072
             LOCAL ORBITAL
:E1_0002: E( 1)=   -0.9220   E(BOTTOM)=   -0.922   E(TOP)= -200.000
             APW+lo
:E1_0002: E( 1)=    1.3676
             LOCAL ORBITAL
:E3_0002: E( 3)=    1.3676   E(BOTTOM)=    1.118   E(TOP)= -200.000
             APW+lo
:E2_0002: E( 2)=    1.3676   E(BOTTOM)=    1.283   E(TOP)= -200.000
             APW+lo

          ATOMIC SPHERE DEPENDENT PARAMETERS FOR ATOM  Pu  0+    
:e__0003: OVERALL ENERGY PARAMETER IS    1.3676
          OVERALL BASIS SET ON ATOM IS LAPW
:E0_0003: E( 0)=    1.3676
             APW+lo
:E0_0003: E( 0)=   -1.8430   E(BOTTOM)=   -2.617   E(TOP)=   -1.069
             LOCAL ORBITAL
:E1_0003: E( 1)=   -0.9200   E(BOTTOM)=   -0.920   E(TOP)= -200.000
             APW+lo
:E1_0003: E( 1)=    1.3676
             LOCAL ORBITAL
:E3_0003: E( 3)=    1.3676   E(BOTTOM)=    1.118   E(TOP)= -200.000
             APW+lo
:E2_0003: E( 2)=    1.3676   E(BOTTOM)=    1.283   E(TOP)= -200.000
             APW+lo

          ATOMIC SPHERE DEPENDENT PARAMETERS FOR ATOM  Pu  0+    
:e__0004: OVERALL ENERGY PARAMETER IS    1.3676
          OVERALL BASIS SET ON ATOM IS LAPW
:E0_0004: E( 0)=    1.3676
             APW+lo
:E0_0004: E( 0)=   -1.8435   E(BOTTOM)=   -2.617   E(TOP)=   -1.070
             LOCAL ORBITAL
:E1_0004: E( 1)=   -0.9200   E(BOTTOM)=   -0.920   E(TOP)= -200.000
             APW+lo
:E1_0004: E( 1)=    1.3676
             LOCAL ORBITAL
:E3_0004: E( 3)=    1.3676   E(BOTTOM)=    1.118   E(TOP)= -200.000
             APW+lo
:E2_0004: E( 2)=    1.3676   E(BOTTOM)=    1.283   E(TOP)= -200.000
             APW+lo

          ATOMIC SPHERE DEPENDENT PARAMETERS FOR ATOM  Pu  0+    
:e__0005: OVERALL ENERGY PARAMETER IS    1.3676
          OVERALL BASIS SET ON ATOM IS LAPW
:E0_0005: E( 0)=    1.3676
             APW+lo
:E0_0005: E( 0)=   -1.8425   E(BOTTOM)=   -2.615   E(TOP)=   -1.070
             LOCAL ORBITAL
:E1_0005: E( 1)=   -0.9180   E(BOTTOM)=   -0.918   E(TOP)= -200.000
             APW+lo
[...]

                      QXX         QXY         QYY         QZZ       UP TO R

:VZZ003:            -6.37564   -13.98093     3.69033     2.68531       2.150

:CHA004: TOTAL CHARGE INSIDE SPHERE   4 =    11.818541
:PCS004: PARTIAL CHARGES SPHERE =  4 S,P,D,F,PX,PY,PZ,D-Z2,D-X2Y2,D-XY,D-XZ,D-YZ 
:QTL004: 1.9490 4.5836 0.7285 4.5488 2.6206 2.6193 2.5999 0.1500 0.1505 0.1539 0.1493 0.1586
        Q-s-low E-s-low   Q-p-low E-p-low   Q-d-low E-d-low   Q-f-low E-f-low
:EPL004:  1.8823 -1.7765    4.4478  0.1289    0.0434  0.2370    0.0221  0.2697
        Q-s-hi  E-s-hi    Q-p-hi  E-p-hi    Q-d-hi  E-d-hi    Q-f-hi  E-f-hi 
:EPH004:  0.0667  1.4082    0.1358  1.4463    0.6850  1.4289    4.5267  1.5250

                      QXX         QXY         QYY         QZZ       UP TO R

:VZZ004:            -2.34379    15.13451     0.37512     1.96867       2.150

:CHA005: TOTAL CHARGE INSIDE SPHERE   5 =    11.810101
:PCS005: PARTIAL CHARGES SPHERE =  5 S,P,D,F,PX,PY,PZ,D-Z2,D-X2Y2,D-XY,D-XZ,D-YZ 
:QTL005: 1.9482 4.5854 0.7334 4.5344 2.5573 2.6822 2.6306 0.1540 0.1489 0.1501 0.1436 0.1710
        Q-s-low E-s-low   Q-p-low E-p-low   Q-d-low E-d-low   Q-f-low E-f-low
:EPL005:  1.8824 -1.7761    4.4542  0.1316    0.0435  0.2390    0.0219  0.2648
        Q-s-hi  E-s-hi    Q-p-hi  E-p-hi    Q-d-hi  E-d-hi    Q-f-hi  E-f-hi 
:EPH005:  0.0658  1.4068    0.1312  1.4468    0.6899  1.4295    4.5124  1.5276

                      QXX         QXY         QYY         QZZ       UP TO R

:VZZ005:           -39.06481     3.58569    25.20732    13.85749       2.150

:CHA006: TOTAL CHARGE INSIDE SPHERE   6 =    11.787004
:PCS006: PARTIAL CHARGES SPHERE =  6 S,P,D,F,PX,PY,PZ,D-Z2,D-X2Y2,D-XY,D-XZ,D-YZ 
:QTL006: 1.9504 4.5740 0.7122 4.5426 2.6174 2.6317 2.6180 0.1443 0.1407 0.1551 0.1493 0.1549
        Q-s-low E-s-low   Q-p-low E-p-low   Q-d-low E-d-low   Q-f-low E-f-low
:EPL006:  1.8814 -1.7774    4.4576  0.1323    0.0404  0.2476    0.0201  0.2796
        Q-s-hi  E-s-hi    Q-p-hi  E-p-hi    Q-d-hi  E-d-hi    Q-f-hi  E-f-hi 
:EPH006:  0.0689  1.3970    0.1164  1.4458    0.6718  1.4301    4.5225  1.5257

                      QXX         QXY         QYY         QZZ       UP TO R

:VZZ006:           -13.54635    -8.99642     0.17915    13.36720       2.150

:CHA007: TOTAL CHARGE INSIDE SPHERE   7 =    11.848713
:PCS007: PARTIAL CHARGES SPHERE =  7 S,P,D,F,PX,PY,PZ,D-Z2,D-X2Y2,D-XY,D-XZ,D-YZ 
:QTL007: 1.9454 4.5812 0.7484 4.5633 2.6925 2.5603 2.6083 0.1579 0.1426 0.1625 0.1765 0.1474
        Q-s-low E-s-low   Q-p-low E-p-low   Q-d-low E-d-low   Q-f-low E-f-low
:EPL007:  1.8840 -1.7728    4.4556  0.1315    0.0508  0.2311    0.0263  0.2552
        Q-s-hi  E-s-hi    Q-p-hi  E-p-hi    Q-d-hi  E-d-hi    Q-f-hi  E-f-hi 
:EPH007:  0.0614  1.4019    0.1256  1.4407    0.6976  1.4278    4.5370  1.5204

                      QXX         QXY         QYY         QZZ       UP TO R

:VZZ007:             0.93796    11.84311   -13.66989    12.73193       2.150

:CHA008: TOTAL CHARGE INSIDE SPHERE   8 =    11.681137
:PCS008: PARTIAL CHARGES SPHERE =  8 S,P,D,F,PX,PY,PZ,D-Z2,D-X2Y2,D-XY,D-XZ,D-YZ 
:QTL008: 1.9519 4.6105 0.6109 4.5026 2.6026 2.6807 2.6698 0.1382 0.1132 0.1198 0.1210 0.1407
        Q-s-low E-s-low   Q-p-low E-p-low   Q-d-low E-d-low   Q-f-low E-f-low
:EPL008:  1.8784 -1.7803    4.4599  0.1372    0.0241  0.2592    0.0117  0.2803
        Q-s-hi  E-s-hi    Q-p-hi  E-p-hi    Q-d-hi  E-d-hi    Q-f-hi  E-f-hi 
:EPH008:  0.0736  1.3950    0.1506  1.4391    0.5868  1.4303    4.4909  1.5173

                      QXX         QXY         QYY         QZZ       UP TO R

:VZZ008:           -44.00221     6.98973    29.78965    14.21255       2.150

:CHA  : TOTAL CHARGE INSIDE UNIT CELL =     256.000000

:ESUM  : SUM OF EIGENVALUES =         147.818742311


------- alpha_Pu_2.scfc --------

        1.ATOM      Pu  0+               21 CORE STATES
       CORE-FORCE in mRy/a.u. = |F|      Fx             Fy             Fz
:FCO001:   1.ATOM       3034.243      -2936.709       -763.133          0.000

:1S 001: 1S               -8966.160926214 Ry
:2S 001: 2S               -1686.833699762 Ry
:2PP001: 2P*              -1627.527001859 Ry
:2P 001: 2P               -1314.375864089 Ry
:3S 001: 3S                -427.378217376 Ry
:3PP001: 3P*               -400.453672017 Ry
:3P 001: 3P                -327.892519481 Ry
:3DD001: 3D*               -285.652075186 Ry
:3D 001: 3D                -271.109959303 Ry
:4S 001: 4S                -108.858493478 Ry
:4PP001: 4P*                -96.670653296 Ry
:4P 001: 4P                 -77.525088027 Ry
:4DD001: 4D*                -58.237677961 Ry
:4D 001: 4D                 -54.743051128 Ry
:5S 001: 5S                 -23.012148846 Ry
:5PP001: 5P*                -18.194020075 Ry
:5P 001: 5P                 -13.504305571 Ry
:4FF001: 4F*                -29.343409637 Ry
:4F 001: 4F                 -28.415308105 Ry
:5DD001: 5D*                 -6.468150642 Ry
:5D 001: 5D                  -5.768903861 Ry

        2.ATOM      Pu  0+               21 CORE STATES
       CORE-FORCE in mRy/a.u. = |F|      Fx             Fy             Fz
:FCO002:   2.ATOM       1617.085        213.788      -1602.891          0.000

:1S 002: 1S               -8966.166028080 Ry
:2S 002: 2S               -1686.839889129 Ry
:2PP002: 2P*              -1627.533075680 Ry
:2P 002: 2P               -1314.382060761 Ry
:3S 002: 3S                -427.383949082 Ry
:3PP002: 3P*               -400.459420542 Ry
:3P 002: 3P                -327.898246794 Ry
:3DD002: 3D*               -285.657941196 Ry
:3D 002: 3D                -271.115802040 Ry
:4S 002: 4S                -108.864419536 Ry
:4PP002: 4P*                -96.676579238 Ry
:4P 002: 4P                 -77.531070125 Ry
:4DD002: 4D*                -58.243678609 Ry
:4D 002: 4D                 -54.749066742 Ry
:5S 002: 5S                 -23.018579160 Ry
:5PP002: 5P*                -18.200480009 Ry
:5P 002: 5P                 -13.510851528 Ry
:4FF002: 4F*                -29.349347431 Ry
:4F 002: 4F                 -28.421254459 Ry
:5DD002: 5D*                 -6.474670096 Ry
:5D 002: 5D                  -5.775394207 Ry

        3.ATOM      Pu  0+               21 CORE STATES
       CORE-FORCE in mRy/a.u. = |F|      Fx             Fy             Fz
:FCO003:   3.ATOM       5839.400      -4479.450      -3746.081          0.000

:1S 003: 1S               -8966.161283896 Ry
:2S 003: 2S               -1686.834690542 Ry
:2PP003: 2P*              -1627.527966698 Ry
:2P 003: 2P               -1314.376865058 Ry
:3S 003: 3S                -427.378527469 Ry
:3PP003: 3P*               -400.454014817 Ry
:3P 003: 3P                -327.892824800 Ry
:3DD003: 3D*               -285.652516907 Ry
:3D 003: 3D                -271.110371130 Ry
:4S 003: 4S                -108.859065294 Ry
:4PP003: 4P*                -96.671225706 Ry
:4P 003: 4P                 -77.525732403 Ry
:4DD003: 4D*                -58.238332965 Ry
:4D 003: 4D                 -54.743724733 Ry
:5S 003: 5S                 -23.013352168 Ry
:5PP003: 5P*                -18.195285527 Ry
:5P 003: 5P                 -13.505769570 Ry
:4FF003: 4F*                -29.343978307 Ry
:4F 003: 4F                 -28.415887927 Ry
:5DD003: 5D*                 -6.469762551 Ry
:5D 003: 5D                  -5.770548543 Ry

        4.ATOM      Pu  0+               21 CORE STATES
       CORE-FORCE in mRy/a.u. = |F|      Fx             Fy             Fz
:FCO004:   4.ATOM       3268.550       3231.237        492.465          0.000

:1S 004: 1S               -8966.163340850 Ry
:2S 004: 2S               -1686.837424280 Ry
:2PP004: 2P*              -1627.530580633 Ry
:2P 004: 2P               -1314.379599202 Ry
:3S 004: 3S                -427.381536264 Ry
:3PP004: 3P*               -400.457002153 Ry
:3P 004: 3P                -327.895839157 Ry
:3DD004: 3D*               -285.655535208 Ry
:3D 004: 3D                -271.113398134 Ry
:4S 004: 4S                -108.862092175 Ry
:4PP004: 4P*                -96.674250881 Ry
:4P 004: 4P                 -77.528763368 Ry
:4DD004: 4D*                -58.241373066 Ry
:4D 004: 4D                 -54.746767804 Ry
:5S 004: 5S                 -23.016491602 Ry
:5PP004: 5P*                -18.198414404 Ry
:5P 004: 5P                 -13.508860644 Ry
:4FF004: 4F*                -29.347041476 Ry
:4F 004: 4F                 -28.418951693 Ry
:5DD004: 5D*                 -6.472769697 Ry
:5D 004: 5D                  -5.773523522 Ry

        5.ATOM      Pu  0+               21 CORE STATES
       CORE-FORCE in mRy/a.u. = |F|      Fx             Fy             Fz
:FCO005:   5.ATOM       1979.606      -1000.473      -1708.184          0.000

:1S 005: 1S               -8966.164978607 Ry
:2S 005: 2S               -1686.839272209 Ry
:2PP005: 2P*              -1627.532366493 Ry
:2P 005: 2P               -1314.381444236 Ry
:3S 005: 3S                -427.383734865 Ry
:3PP005: 3P*               -400.459179224 Ry
:3P 005: 3P                -327.898041799 Ry
:3DD005: 3D*               -285.657702086 Ry
:3D 005: 3D                -271.115578358 Ry
:4S 005: 4S                -108.864209839 Ry
:4PP005: 4P*                -96.676367605 Ry
:4P 005: 4P                 -77.530857552 Ry
:4DD005: 4D*                -58.243470197 Ry
:4D 005: 4D                 -54.748859776 Ry
:5S 005: 5S                 -23.018418868 Ry
:5PP005: 5P*                -18.200299169 Ry
:5P 005: 5P                 -13.510597130 Ry
:4FF005: 4F*                -29.349177237 Ry
:4F 005: 4F                 -28.421083844 Ry
:5DD005: 5D*                 -6.474271475 Ry
:5D 005: 5D                  -5.774944594 Ry

        6.ATOM      Pu  0+               21 CORE STATES
       CORE-FORCE in mRy/a.u. = |F|      Fx             Fy             Fz
:FCO006:   6.ATOM       5460.564      -4419.800      -3206.732          0.000

:1S 006: 1S               -8966.164207850 Ry
:2S 006: 2S               -1686.837887279 Ry
:2PP006: 2P*              -1627.531160136 Ry
:2P 006: 2P               -1314.380069571 Ry
:3S 006: 3S                -427.381398988 Ry
:3PP006: 3P*               -400.456903731 Ry
:3P 006: 3P                -327.895692422 Ry
:3DD006: 3D*               -285.655449221 Ry
:3D 006: 3D                -271.113288753 Ry
:4S 006: 4S                -108.862009096 Ry
:4PP006: 4P*                -96.674170547 Ry
:4P 006: 4P                 -77.528698964 Ry
:4DD006: 4D*                -58.241305208 Ry
:4D 006: 4D                 -54.746702160 Ry
:5S 006: 5S                 -23.016462683 Ry
:5PP006: 5P*                -18.198408783 Ry
:5P 006: 5P                 -13.508927968 Ry
:4FF006: 4F*                -29.346912565 Ry
:4F 006: 4F                 -28.418825612 Ry
:5DD006: 5D*                 -6.472901854 Ry
:5D 006: 5D                  -5.773672068 Ry

        7.ATOM      Pu  0+               21 CORE STATES
       CORE-FORCE in mRy/a.u. = |F|      Fx             Fy             Fz
:FCO007:   7.ATOM       5451.850       3651.692      -4048.186          0.000

:1S 007: 1S               -8966.161067158 Ry
:2S 007: 2S               -1686.834841907 Ry
:2PP007: 2P*              -1627.528032142 Ry
:2P 007: 2P               -1314.377011975 Ry
:3S 007: 3S                -427.379004456 Ry
:3PP007: 3P*               -400.454468856 Ry
:3P 007: 3P                -327.893307970 Ry
:3DD007: 3D*               -285.652976119 Ry
:3D 007: 3D                -271.110842664 Ry
:4S 007: 4S                -108.859547182 Ry
:4PP007: 4P*                -96.671705650 Ry
:4P 007: 4P                 -77.526212281 Ry
:4DD007: 4D*                -58.238816616 Ry
:4D 007: 4D                 -54.744209728 Ry
:5S 007: 5S                 -23.013890190 Ry
:5PP007: 5P*                -18.195814981 Ry
:5P 007: 5P                 -13.506271918 Ry
:4FF007: 4F*                -29.344492267 Ry
:4F 007: 4F                 -28.416401625 Ry
:5DD007: 5D*                 -6.470229225 Ry
:5D 007: 5D                  -5.771004235 Ry

        8.ATOM      Pu  0+               21 CORE STATES
       CORE-FORCE in mRy/a.u. = |F|      Fx             Fy             Fz
:FCO008:   8.ATOM       1275.538      -1188.598       -462.852          0.000

:1S 008: 1S               -8966.158016785 Ry
:2S 008: 2S               -1686.832617841 Ry
:2PP008: 2P*              -1627.525818962 Ry
:2P 008: 2P               -1314.374797425 Ry
:3S 008: 3S                -427.375211116 Ry
:3PP008: 3P*               -400.450751313 Ry
:3P 008: 3P                -327.889505953 Ry
:3DD008: 3D*               -285.649444088 Ry
:3D 008: 3D                -271.107245705 Ry
:4S 008: 4S                -108.856430715 Ry
:4PP008: 4P*                -96.668589247 Ry
:4P 008: 4P                 -77.523274640 Ry
:4DD008: 4D*                -58.235891298 Ry
:4D 008: 4D                 -54.741330866 Ry
:5S 008: 5S                 -23.012364483 Ry
:5PP008: 5P*                -18.194469579 Ry
:5P 008: 5P                 -13.505521410 Ry
:4FF008: 4F*                -29.341366753 Ry
:4F 008: 4F                 -28.413303896 Ry
:5DD008: 5D*                 -6.470089680 Ry
:5D 008: 5D                  -5.771043460 Ry

------- alpha_Pu_2.scfm --------

       DENSITY AT NUCLEUS
        JATOM    VALENCE       SEMI-CORE            CORE           TOTAL
:RTO001:   1    23271.519578        0.000000 45141831.778843 45165103.298421
:RTO002:   2    23426.221711        0.000000 45141825.161308 45165251.383019
:RTO003:   3    23415.734034        0.000000 45141825.745343 45165241.479377
:RTO004:   4    23478.868197        0.000000 45141822.207138 45165301.075335
:RTO005:   5    23470.961762        0.000000 45141822.816064 45165293.777826
:RTO006:   6    23510.275264        0.000000 45141824.007084 45165334.282349
:RTO007:   7    23406.499990        0.000000 45141823.681517 45165230.181508
:RTO008:   8    23550.173459        0.000000 45141811.058716 45165361.232175
     
       CHARGES OF NEW CHARGE DENSITY
:NTO  : TOTAL   INTERSTITIAL CHARGE=   66.8897360
:NTO001: TOTAL   CHARGE IN SPHERE  1 =       89.9355281
:NTO002: TOTAL   CHARGE IN SPHERE  2 =       89.8131047
:NTO003: TOTAL   CHARGE IN SPHERE  3 =       89.8327826
:NTO004: TOTAL   CHARGE IN SPHERE  4 =       89.8091963
:NTO005: TOTAL   CHARGE IN SPHERE  5 =       89.8007748
:NTO006: TOTAL   CHARGE IN SPHERE  6 =       89.7776747
:NTO007: TOTAL   CHARGE IN SPHERE  7 =       89.8393498
:NTO008: TOTAL   CHARGE IN SPHERE  8 =       89.6718338

:NEC01: NUCLEAR AND ELECTRONIC CHARGE   1504.00000  1503.85023     1.00010
     
       CHARGES OF OLD CHARGE DENSITY
:OTO  : TOTAL   INTERSTITIAL CHARGE=   67.0384617
:OTO001: TOTAL   CHARGE IN SPHERE  1 =       89.9357726
:OTO002: TOTAL   CHARGE IN SPHERE  2 =       89.8132006
:OTO003: TOTAL   CHARGE IN SPHERE  3 =       89.8329015
:OTO004: TOTAL   CHARGE IN SPHERE  4 =       89.8092384
:OTO005: TOTAL   CHARGE IN SPHERE  5 =       89.8008406
:OTO006: TOTAL   CHARGE IN SPHERE  6 =       89.7776720
:OTO007: TOTAL   CHARGE IN SPHERE  7 =       89.8394650
:OTO008: TOTAL   CHARGE IN SPHERE  8 =       89.6716784

:NEC02: NUCLEAR AND ELECTRONIC CHARGE   1504.00000  1504.00000     1.00000
     
       CONVERGENCE TEST
:DTO001: TOTAL   DIFFERENCE CHARGE**2 IN SPHERE  1 =  0.0002216
:DTO002: TOTAL   DIFFERENCE CHARGE**2 IN SPHERE  2 =  0.0000953
:DTO003: TOTAL   DIFFERENCE CHARGE**2 IN SPHERE  3 =  0.0001119
:DTO004: TOTAL   DIFFERENCE CHARGE**2 IN SPHERE  4 =  0.0000544
:DTO005: TOTAL   DIFFERENCE CHARGE**2 IN SPHERE  5 =  0.0000730
:DTO006: TOTAL   DIFFERENCE CHARGE**2 IN SPHERE  6 =  0.0000352
:DTO007: TOTAL   DIFFERENCE CHARGE**2 IN SPHERE  7 =  0.0001130
:DTO008: TOTAL   DIFFERENCE CHARGE**2 IN SPHERE  8 =  0.0001269

:DIS  :  CHARGE DISTANCE       ( 0.0002216 for atom    1 spin 1)      0.0001039
:BIG check (qbig,qrms,qtot)    0.739D-04   0.826D-04   0.104D-03
 
******************************************************
* MULTISECANT MIXING VER4 OPTIONS                    *
* Unpredicted Step Limit   0.100000                  *
* Plane Wave Dynamic Rescaling                       *
* Dynamic Regularization active                      *
* Upper Cutoff Lambda  1.0E-01 Lower 3.5E-04         *
* SQRT Multiplicity/Degeneracy                       *
* Max Number of Memory Steps    8                    *
******************************************************
 
:PLANE:  INTERSTITIAL TOTAL      7.71664 DISTAN  5.575E-04 % 
:CHARG:  CLM CHARGE   /ATOM    356.61461 DISTAN  3.781E-05 % 
:INFO :  Dynamic rescale   1.923E+01  1.000E-01
:INFO :  Number of Memory Steps    1 Skipping    0
:INFO :  Bounds         0.175D-01  0.200D+00  0.206D+00  0.175D-01
:DIRM :  MEMORY 1/8 RESCALE  19.23 RED 2.056 PRED 1.000 NEXT 0.486 COND 1.00E+00
:DIRP :  |BROYD|= 9.430E-06 |PRATT|= 1.448E-05 ANGLE= 123.7 DEGREES
:DIRB :  |BROYD|= 1.192E-05 |PRATT|= 2.379E-05 ANGLE= 122.0 DEGREES
:MIX  :  MSR1   REGULARIZATION: 3.50E-04  GREED: 0.018
     
       CHARGES OF MIXED CHARGE DENSITY
:CTO  : TOTAL   INTERSTITIAL CHARGE=   67.0384606
:CTO001: TOTAL   CHARGE IN SPHERE  1 =       89.9357731
:CTO002: TOTAL   CHARGE IN SPHERE  2 =       89.8132008
:CTO003: TOTAL   CHARGE IN SPHERE  3 =       89.8329018
:CTO004: TOTAL   CHARGE IN SPHERE  4 =       89.8092386
:CTO005: TOTAL   CHARGE IN SPHERE  5 =       89.8008404
:CTO006: TOTAL   CHARGE IN SPHERE  6 =       89.7776720
:CTO007: TOTAL   CHARGE IN SPHERE  7 =       89.8394649
:CTO008: TOTAL   CHARGE IN SPHERE  8 =       89.6716781

:NEC03: NUCLEAR AND ELECTRONIC CHARGE   1504.00000  1504.00000     1.00000


:ENE  : ********** TOTAL ENERGY IN Ry =      -949675.68171081

       TOTAL FORCE IN mRy/a.u. = |F|     Fx             Fy             Fz     with/without FOR in case.in2
:FOR001:   1.ATOM        117.777        115.760        -21.702          0.000 partial forces
:FOR002:   2.ATOM         85.964        -85.454          9.352          0.000 partial forces
:FOR003:   3.ATOM         46.335         41.156         21.287          0.000 partial forces
:FOR004:   4.ATOM         63.600        -50.009        -39.294          0.000 partial forces
:FOR005:   5.ATOM         40.772         34.596        -21.574          0.000 partial forces
:FOR006:   6.ATOM         29.967         29.771          3.418          0.000 partial forces
:FOR007:   7.ATOM        181.103       -170.681        -60.550          0.000 partial forces
:FOR008:   8.ATOM         60.336         35.004         49.144          0.000 partial forces

       TOTAL FORCE WITH RESPECT TO GLOBAL CARTESIAN COORDINATES:
:FCA001:   1.ATOM                       -21.702          0.000        115.760 partial forces
:FCA002:   2.ATOM                         9.352          0.000        -85.454 partial forces
:FCA003:   3.ATOM                        21.287          0.000         41.156 partial forces
:FCA004:   4.ATOM                       -39.294          0.000        -50.009 partial forces
:FCA005:   5.ATOM                       -21.574          0.000         34.596 partial forces
:FCA006:   6.ATOM                         3.418          0.000         29.771 partial forces
:FCA007:   7.ATOM                       -60.550          0.000       -170.681 partial forces
:FCA008:   8.ATOM                        49.144          0.000         35.004 partial forces

       TOTAL FORCE WITH RESPECT TO THE GLOBAL COORDINATE SYSTEM:
:FGL001:   1.ATOM               -22.169470731     0.000000000   111.231354675 partial forces
:FGL002:   2.ATOM                 9.553446239     0.000000000   -83.502479814 partial forces
:FGL003:   3.ATOM                21.745531446     0.000000000    45.598045573 partial forces
:FGL004:   4.ATOM               -40.140410234     0.000000000   -58.208640097 partial forces
:FGL005:   5.ATOM               -22.038713554     0.000000000    30.094064960 partial forces
:FGL006:   6.ATOM                 3.491625240     0.000000000    30.484248075 partial forces
:FGL007:   7.ATOM               -61.854273926     0.000000000  -183.316216774 partial forces
:FGL008:   8.ATOM                50.202583614     0.000000000    45.259079985 partial forces
