
:LABEL1: Calculations in /home/ykent/GWIEN/example/Pr/V10/case
:LABEL2: on didymium-2.cmpgroup.ameslab.gov at Wed Jul  8 16:01:20 CDT 2020
:LABEL3: using WIEN2k_19.1 (Release 25/6/2019) in /home/ykent/opt/src/WIEN2k_19.1
:LABEL4: using the command: run_lapw -cc 0.0001
 Flat Integration
 New Mode for Coulomb Integral
 Consistent 3/8+Simpson combinations
 Extension of core to zero
 LDM version in phi
 Fifth-order quadrature in outwin


            ---------
:ITE001:  1. ITERATION
            ---------

:NATO :    1 INDEPENDENT AND    1 TOTAL ATOMS IN UNITCELL
       SUBSTANCE: blebleble                                                   

       LATTICE                      = F   
:POT  : POTENTIAL OPTION EX_LDA EC_LDA VX_LDA VC_LDA
:LAT  : LATTICE CONSTANTS=  9.61244  9.61244  9.61244    1.571    1.571    1.571
:VOL  : UNIT CELL VOLUME =     222.04511
       MODE OF CALCULATION IS       = RELA
       NON-SPINPOLARIZED CALCULATION
:IFFT  : FFT-parameters:   80   80   80 Factor: 2.00


   CONVERGENCE PARAMETER FOR PSEUDOCHARGE: NCON=  9
   MAXIMAL VALUE OF RMT(JATOM)*ABSK(NKK) : RK  =29.95407


:VKCOUL :  VK-COUL convergence: 0.167E-05
       ATOMNUMBER=  1 Pr         VCOUL-ZERO =  0.30158E+00
:FIT001: LUSE= 13 SIGMA OF V-XC FIT FOR ATOM  1  0.1870425E-05
:FIT001: LUSE= 13 SIGMA OF V-XC FIT FOR ATOM  1  0.1870425E-05
:DEN  : DENSITY INTEGRAL  =         -7077.61933069   (Ry)
       ELS_POTENTIAL_AT Z=0 and Z=0.5:  -2.46641  -2.46641
       ELS_POTENTIAL_AT Y=0 and Y=0.5:   0.00000   0.00000
:VZERO:v0,v0c,v0x  -3.44261  -2.46641  -0.97621 v5,v5c,v5x  -3.44261  -2.46641  -0.97621
:VZERY:v0,v0c,v0x  -0.72876   0.00000  -0.72876 v5,v5c,v5x  -0.72876   0.00000  -0.72876
:VZERX:v0,v0c,v0x  -0.72876   0.00000  -0.72876 v5,v5c,v5x  -0.72876   0.00000  -0.72876
:LMAX-WF:   10   Non-Spherical LMAX:   4

          ATOMIC SPHERE DEPENDENT PARAMETERS FOR ATOM  Pr        
:e__0001: OVERALL ENERGY PARAMETER IS    0.3000
          OVERALL BASIS SET ON ATOM IS LAPW
:E0_0001: E( 0)=    0.3000
             APW+lo
:E0_0001: E( 0)=   -2.0121   E(BOTTOM)=   -2.397   E(TOP)=   -1.628  4  5   181
             LOCAL ORBITAL
:E1_0001: E( 1)=    0.7000
             APW+lo
:E1_0001: E( 1)=   -0.6273   E(BOTTOM)=   -1.279   E(TOP)=    0.024  3  4   179
             LOCAL ORBITAL
:E3_0001: E( 3)=    0.6672   E(BOTTOM)=    0.522   E(TOP)=    0.812  0  1   134
             APW+lo
:E2_0001: E( 2)=    0.3000   E(BOTTOM)=    0.292   E(TOP)= -200.000  2 -1    88
             APW+lo

       K=   0.00000   0.00000   0.00000            1
:RKM  : MATRIX SIZE   189LOs:  20  RKM= 8.49  WEIGHT= 1.00  PGR:    
       EIGENVALUES ARE:
:EIG00001:      -1.9788119   -0.6014965   -0.6014965   -0.6014965    0.3810595
:EIG00006:       0.6524115    0.6777654    0.6777654    0.6777654    0.7094083
:EIG00011:       0.7094083    0.7094083    0.7705046    0.7705046    0.7705046
:EIG00016:       0.9648196    0.9648196    1.3704187    1.6123570    1.6123570
:EIG00021:       1.6123570    1.7114521
       ********************************************************

:KPT   :      NUMBER OF K-POINTS:   165
:GAP (global)   :    0.0    Ry =     0.0   eV (metal)
         Bandranges (emin - emax) and occupancy:
:BAN00001:   1   -1.978812   -1.958906  2.00000000
:BAN00002:   2   -0.711209   -0.601497  2.00000000
:BAN00003:   3   -0.673029   -0.601497  2.00000000
:BAN00004:   4   -0.642410   -0.601497  2.00000000
:BAN00005:   5    0.381059    0.612686  2.00000000
:BAN00006:   6    0.542657    0.661388  2.00000000
:BAN00007:   7    0.637740    0.684433  1.00000000
:BAN00008:   8    0.668645    0.686565  0.00000000
:BAN00009:   9    0.677765    0.691178  0.00000000
:BAN00010:  10    0.685733    0.709408  0.00000000
:BAN00011:  11    0.689890    0.709408  0.00000000
:BAN00012:  12    0.693693    0.711066  0.00000000
        Energy to separate low and high energystates:    0.33106


:NOE  : NUMBER OF ELECTRONS          =   13.000

:FER  : F E R M I - ENERGY(TETRAH.M.)=   0.6677753241
:GMA  : POTENTIAL AND CHARGE CUT-OFF  12.00 Ry**.5

:POS001: ATOM    1 X,Y,Z = 0.00000 0.00000 0.50000  MULT= 1  ZZ= 59.000  Pr        

       LMMAX  5
       LM=   0 0  4 0  4 4  6 0  6 4

:CHA001: TOTAL VALENCE CHARGE INSIDE SPHERE   1 =   9.7364    (RMT=  2.5000 )
:PCS001: PARTIAL CHARGES SPHERE =  1 S,P,D,F,      D-EG,D-T2G 
:QTL001: 2.0398 5.3595 0.8425 1.4940 0.0000 0.0000 0.0000 0.2958 0.5467 0.0000 0.0000 0.0000
        Q-s-low E-s-low   Q-p-low E-p-low   Q-d-low E-d-low   Q-f-low E-f-low
:EPL001:  1.9238 -1.9628    5.2587 -0.6476    0.0022 -0.6672    0.0007 -0.6689
        Q-s-hi  E-s-hi    Q-p-hi  E-p-hi    Q-d-hi  E-d-hi    Q-f-hi  E-f-hi 
:EPH001:  0.1160  0.5394    0.1008  0.5919    0.8403  0.5924    1.4934  0.6439

:CHA  : TOTAL VALENCE CHARGE INSIDE UNIT CELL =      13.000000

:SUM  : SUM OF EIGENVALUES =          -4.813240753


        1.ATOM      Pr                   14 CORE STATES
:1S 001: 1S               -3066.886437138 Ry
:2S 001: 2S                -492.652134205 Ry
:2PP001: 2P*               -465.749764770 Ry
:2P 001: 2P                -430.352963105 Ry
:3S 001: 3S                -105.749775130 Ry
:3PP001: 3P*                -94.287184959 Ry
:3P 001: 3P                 -87.279805604 Ry
:3DD001: 3D*                -67.206144310 Ry
:3D 001: 3D                 -65.694721308 Ry
:4S 001: 4S                 -20.435806779 Ry
:4PP001: 4P*                -16.142885666 Ry
:4P 001: 4P                 -14.615992603 Ry
:4DD001: 4D*                 -7.550034942 Ry
:4D 001: 4D                  -7.280827934 Ry
:CINT001 Core Integral Atom   1   45.999508

       DENSITY AT NUCLEUS
        JATOM        VALENCE       SEMI-CORE          CORE           TOTAL
:RTO001:   1      652.526172        0.000000   656820.699760   657473.225931
     
       CHARGES OF NEW CHARGE DENSITY
:NTO   : INTERSTITIAL CHARGE =     3.263596
:NPC   : PW Pseudocharge     =     7.852955
:NTO001: CHARGE SPHERE  1    =    55.735911

:NEC01: NUCLEAR AND ELECTRONIC CHARGE     59.00000    58.99951
     
       CHARGES OF OLD CHARGE DENSITY
:OTO   : INTERSTITIAL CHARGE =     2.842120
:OPC   : PW Pseudocharge     =     6.998274
:OTO001: CHARGE SPHERE  1    =    56.158543

:NEC02: NUCLEAR AND ELECTRONIC CHARGE     59.00000    59.00066
     
       CONVERGENCE TEST
:DTO001: DIFFERENCE IN SPHERE  1 =  0.7348558

:DIS  :  CHARGE DISTANCE       ( 0.7348558 for atom    1 spin 1)      0.7348558
 PW Mixed is           53
 
******************************************************
* MULTISECANT MIXING VER9 RELEASE 10.4.0              *
* Standard Mode with controls                        *
* Fixed density scale                                *
* Regularization       1.000E-04                     *
* Trust Upper Limit    5.000E+00                     *
* Max Number of Memory Steps    8                    *
******************************************************
 
:PWTMP   1.5660E+02  1.2500E+02  2.2205E+02
:PLANE:  PW TOTAL      2.7994 DISTAN   4.43E-01  1.58E+01 %
:CHARG:  CLM/ATOM    977.2582 DISTAN   8.57E-01  8.77E-02 %
 
Step History
        DMIX         DMIXT        Red     Pred      Trust     Lambda    MagRel    MagAbs     Beta
  1   3.5000E-02   3.5000E-02 -1.00E+00  1.00E+00 -1.00E+01  1.00E+00  3.50E-02  3.50E-02  1.00E+00
:INFO :  Note, Pratt in use
:TRUST:  Step 3.75E-02  Charge 7.50E-02 (e) CTO  2.50E-01 (e) PW  3.50E-01 (e)
:DIRM :  MEMORY  0/ 8 SCALE   1.000
Performing Pseudo Compensation
Final Pseudo Compensation Rescaling     1.00000E+00
:MIX  :   PRATT  REGULARIZATION:  1.00E-04 GREED: 0.02500                  
     
       CHARGES OF MIXED CHARGE DENSITY
:CTO   : INTERSTITIAL CHARGE =     2.852022
:CPC   : PW Pseudocharge     =     7.580210
:CTO001: CHARGE SPHERE  1    =    56.147978

:NEC03: NUCLEAR AND ELECTRONIC CHARGE     59.00000    59.00000

PW CHANGE     H    K    L      Current       Change    Residue
:PTO001:      0    0    0  4.69824898E-02  2.676E-03  5.765E-03
:PTO002:     -1   -1   -1 -1.37802047E-01 -1.483E-02 -1.762E-02
:PTO003:      0    0   -2  8.07984127E-02  9.851E-03  1.025E-02
:PTO004:      0   -2   -2  6.21834657E-02  1.209E-02  1.570E-02
:PTO005:     -1   -1   -3 -5.61988414E-02 -1.603E-02 -1.542E-02
:PTO006:     -2   -2   -2  1.39210299E-02  4.629E-03  4.272E-03
:PTO007:      0    0   -4  2.02399473E-03  1.829E-03  6.533E-04
:PTO008:     -1   -3   -3  2.01060935E-03 -4.214E-03 -3.793E-03
:PTO009:      0   -2   -4 -3.85919107E-03  3.361E-03  2.202E-03
:PTO010:     -2   -2   -4 -6.83994126E-03  9.147E-04 -7.060E-04
:PTO011:     -3   -3   -3  2.22357346E-03  7.104E-05  7.892E-04
:PTO012:     -1   -1   -5  6.67238859E-03  2.148E-04  2.434E-03

:ENE  : ********** TOTAL ENERGY IN Ry =       -18472.11360645

 Flat Integration
 New Mode for Coulomb Integral
 Consistent 3/8+Simpson combinations
 Extension of core to zero
 LDM version in phi
 Fifth-order quadrature in outwin


            ---------
:ITE002:  2. ITERATION
            ---------

:NATO :    1 INDEPENDENT AND    1 TOTAL ATOMS IN UNITCELL
       SUBSTANCE: blebleble                                                   

       LATTICE                      = F   
:POT  : POTENTIAL OPTION EX_LDA EC_LDA VX_LDA VC_LDA
:LAT  : LATTICE CONSTANTS=  9.61244  9.61244  9.61244    1.571    1.571    1.571
:VOL  : UNIT CELL VOLUME =     222.04511
       MODE OF CALCULATION IS       = RELA
       NON-SPINPOLARIZED CALCULATION
:IFFT  : FFT-parameters:   80   80   80 Factor: 2.00


   CONVERGENCE PARAMETER FOR PSEUDOCHARGE: NCON=  9
   MAXIMAL VALUE OF RMT(JATOM)*ABSK(NKK) : RK  =29.95407


:VKCOUL :  VK-COUL convergence: 0.440E-07
       ATOMNUMBER=  1 Pr         VCOUL-ZERO =  0.31005E+00
:FIT001: LUSE= 13 SIGMA OF V-XC FIT FOR ATOM  1  0.1934134E-05
:FIT001: LUSE= 13 SIGMA OF V-XC FIT FOR ATOM  1  0.1934134E-05
:DEN  : DENSITY INTEGRAL  =         -7076.93609948   (Ry)
       ELS_POTENTIAL_AT Z=0 and Z=0.5:  -2.52694  -2.52694
       ELS_POTENTIAL_AT Y=0 and Y=0.5:   0.00000   0.00000
:VZERO:v0,v0c,v0x  -3.52728  -2.52694  -1.00034 v5,v5c,v5x  -3.52728  -2.52694  -1.00034
:VZERY:v0,v0c,v0x  -0.73454   0.00000  -0.73454 v5,v5c,v5x  -0.73454   0.00000  -0.73454
:VZERX:v0,v0c,v0x  -0.73454   0.00000  -0.73454 v5,v5c,v5x  -0.73454   0.00000  -0.73454
:LMAX-WF:   10   Non-Spherical LMAX:   4

          ATOMIC SPHERE DEPENDENT PARAMETERS FOR ATOM  Pr        
:e__0001: OVERALL ENERGY PARAMETER IS    0.4119
          OVERALL BASIS SET ON ATOM IS LAPW
:E0_0001: E( 0)=    0.4119
             APW+lo
:E0_0001: E( 0)=   -2.0119   E(BOTTOM)=   -2.395   E(TOP)=   -1.629  4  5   179
             LOCAL ORBITAL
:E1_0001: E( 1)=    0.8119
             APW+lo
:E1_0001: E( 1)=   -0.6259   E(BOTTOM)=   -1.276   E(TOP)=    0.024  3  4   183
             LOCAL ORBITAL
:E3_0001: E( 3)=    0.6612   E(BOTTOM)=    0.518   E(TOP)=    0.804  0  1   119
             APW+lo
:E2_0001: E( 2)=    0.4119   E(BOTTOM)=    0.296   E(TOP)= -200.000  2 -1    88
             APW+lo

       K=   0.00000   0.00000   0.00000            1
:RKM  : MATRIX SIZE   189LOs:  20  RKM= 8.49  WEIGHT= 1.00  PGR:    
       EIGENVALUES ARE:
:EIG00001:      -1.9783401   -0.5995254   -0.5995254   -0.5995254    0.3888170
:EIG00006:       0.6480714    0.6723548    0.6723548    0.6723548    0.7029477
:EIG00011:       0.7029477    0.7029477    0.7768435    0.7768435    0.7768435
:EIG00016:       0.9702042    0.9702042    1.3765231    1.6195087    1.6195087
:EIG00021:       1.6195087    1.7205858
       ********************************************************

:KPT   :      NUMBER OF K-POINTS:   165
:GAP (global)   :    0.0    Ry =     0.0   eV (metal)
         Bandranges (emin - emax) and occupancy:
:BAN00001:   1   -1.978340   -1.958641  2.00000000
:BAN00002:   2   -0.708220   -0.599525  2.00000000
:BAN00003:   3   -0.670384   -0.599525  2.00000000
:BAN00004:   4   -0.640051   -0.599525  2.00000000
:BAN00005:   5    0.388817    0.616676  2.00000000
:BAN00006:   6    0.549828    0.662746  2.00000000
:BAN00007:   7    0.638376    0.678701  1.00000000
:BAN00008:   8    0.664831    0.681257  0.00000000
:BAN00009:   9    0.672355    0.685917  0.00000000
:BAN00010:  10    0.680379    0.702948  0.00000000
:BAN00011:  11    0.684338    0.702948  0.00000000
:BAN00012:  12    0.687751    0.706248  0.00000000
        Energy to separate low and high energystates:    0.33882


:NOE  : NUMBER OF ELECTRONS          =   13.000

:FER  : F E R M I - ENERGY(TETRAH.M.)=   0.6643631207
:GMA  : POTENTIAL AND CHARGE CUT-OFF  12.00 Ry**.5

:POS001: ATOM    1 X,Y,Z = 0.00000 0.00000 0.50000  MULT= 1  ZZ= 59.000  Pr        

       LMMAX  5
       LM=   0 0  4 0  4 4  6 0  6 4

:CHA001: TOTAL VALENCE CHARGE INSIDE SPHERE   1 =   9.8497    (RMT=  2.5000 )
:PCS001: PARTIAL CHARGES SPHERE =  1 S,P,D,F,      D-EG,D-T2G 
:QTL001: 2.0385 5.3558 0.7942 1.6607 0.0000 0.0000 0.0000 0.2797 0.5145 0.0000 0.0000 0.0000
        Q-s-low E-s-low   Q-p-low E-p-low   Q-d-low E-d-low   Q-f-low E-f-low
:EPL001:  1.9243 -1.9625    5.2641 -0.6452    0.0022 -0.6648    0.0006 -0.6665
        Q-s-hi  E-s-hi    Q-p-hi  E-p-hi    Q-d-hi  E-d-hi    Q-f-hi  E-f-hi 
:EPH001:  0.1142  0.5445    0.0917  0.5924    0.7920  0.5944    1.6600  0.6426

:CHA  : TOTAL VALENCE CHARGE INSIDE UNIT CELL =      13.000000

:SUM  : SUM OF EIGENVALUES =          -4.782410799


        1.ATOM      Pr                   14 CORE STATES
:1S 001: 1S               -3066.905487775 Ry
:2S 001: 2S                -492.670778160 Ry
:2PP001: 2P*               -465.768464505 Ry
:2P 001: 2P                -430.371638155 Ry
:3S 001: 3S                -105.767465330 Ry
:3PP001: 3P*                -94.304949239 Ry
:3P 001: 3P                 -87.297451876 Ry
:3DD001: 3D*                -67.224010862 Ry
:3D 001: 3D                 -65.712556780 Ry
:4S 001: 4S                 -20.448097392 Ry
:4PP001: 4P*                -16.154851736 Ry
:4P 001: 4P                 -14.627452067 Ry
:4DD001: 4D*                 -7.560591650 Ry
:4D 001: 4D                  -7.291210900 Ry
:CINT001 Core Integral Atom   1   45.999513

       DENSITY AT NUCLEUS
        JATOM        VALENCE       SEMI-CORE          CORE           TOTAL
:RTO001:   1      652.944729        0.000000   656821.890225   657474.834954
     
       CHARGES OF NEW CHARGE DENSITY
:NTO   : INTERSTITIAL CHARGE =     3.150305
:NPC   : PW Pseudocharge     =     7.806500
:NTO001: CHARGE SPHERE  1    =    55.849208

:NEC01: NUCLEAR AND ELECTRONIC CHARGE     59.00000    58.99951
     
       CHARGES OF OLD CHARGE DENSITY
:OTO   : INTERSTITIAL CHARGE =     2.852022
:OPC   : PW Pseudocharge     =     7.580210
:OTO001: CHARGE SPHERE  1    =    56.147978

:NEC02: NUCLEAR AND ELECTRONIC CHARGE     59.00000    59.00000
     
       CONVERGENCE TEST
:DTO001: DIFFERENCE IN SPHERE  1 =  0.5148464

:DIS  :  CHARGE DISTANCE       ( 0.5148464 for atom    1 spin 1)      0.5148464
 PW Mixed is           53
 
******************************************************
* MULTISECANT MIXING VER9 RELEASE 10.4.0              *
* Slow Mode, cautious                                *
* Fixed density scale                                *
* Regularization       1.000E-04                     *
* Step Trust Radius    0.75000                       *
* Trust Upper Limit    2.000E+00                     *
* Max Number of Memory Steps   12                    *
******************************************************
 
:PWTMP   1.5660E+02  1.2500E+02  2.2205E+02
:PLANE:  PW TOTAL      3.1097 DISTAN   1.16E-01  3.72E+00 %
:CHARG:  CLM/ATOM    977.2549 DISTAN   6.86E-01  7.02E-02 %
 
Step History
        DMIX         DMIXT        Red     Pred      Trust     Lambda    MagRel    MagAbs     Beta
  1   3.5000E-02   3.5000E-02 -1.00E+00  1.00E+00 -1.00E+01  1.00E+00  3.50E-02  3.50E-02  1.00E+00
  2   2.5000E-02   2.5000E-02 -1.00E+00  1.00E+00 -1.00E+01  1.00E+00  2.50E-02  2.41E-02  1.00E+00
:JACOBIANS    3.530E-01   1.167E-02
  
:TRUST:  Step 3.29E-02  Charge 7.50E-02 (e) CTO  2.50E-01 (e) PW  3.50E-01 (e)
:DIRM :  MEMORY  1/12 SCALE   1.000
:MIX  :   PRATT  REGULARIZATION:  1.00E-04 GREED: 0.03287  Expand 1.31  0.0329                
     
       CHARGES OF MIXED CHARGE DENSITY
:CTO   : INTERSTITIAL CHARGE =     2.859869
:CPC   : PW Pseudocharge     =     8.013608
:CTO001: CHARGE SPHERE  1    =    56.140131

:NEC03: NUCLEAR AND ELECTRONIC CHARGE     59.00000    59.00000

PW CHANGE     H    K    L      Current       Change    Residue
:PTO001:      0    0    0  4.89696758E-02  1.987E-03  2.370E-03
:PTO002:     -1   -1   -1 -1.48818882E-01 -1.102E-02 -2.777E-03
:PTO003:      0    0   -2  8.81145121E-02  7.316E-03  5.261E-04
:PTO004:      0   -2   -2  7.11632810E-02  8.980E-03  3.552E-03
:PTO005:     -1   -1   -3 -6.81001659E-02 -1.190E-02  4.170E-04
:PTO006:     -2   -2   -2  1.73585886E-02  3.438E-03 -3.171E-04
:PTO007:      0    0   -4  3.38240581E-03  1.358E-03 -1.108E-03
:PTO008:     -1   -3   -3 -1.11866461E-03 -3.129E-03  3.632E-04
:PTO009:      0   -2   -4 -1.36300247E-03  2.496E-03 -1.056E-03
:PTO010:     -2   -2   -4 -6.16060547E-03  6.793E-04 -1.567E-03
:PTO011:     -3   -3   -3  2.27633604E-03  5.276E-05  7.124E-04
:PTO012:     -1   -1   -5  6.83191527E-03  1.595E-04  2.143E-03

:ENE  : ********** TOTAL ENERGY IN Ry =       -18472.10588307

 Flat Integration
 New Mode for Coulomb Integral
 Consistent 3/8+Simpson combinations
 Extension of core to zero
 LDM version in phi
 Fifth-order quadrature in outwin


            ---------
:ITE003:  3. ITERATION
            ---------

:NATO :    1 INDEPENDENT AND    1 TOTAL ATOMS IN UNITCELL
       SUBSTANCE: blebleble                                                   

       LATTICE                      = F   
:POT  : POTENTIAL OPTION EX_LDA EC_LDA VX_LDA VC_LDA
:LAT  : LATTICE CONSTANTS=  9.61244  9.61244  9.61244    1.571    1.571    1.571
:VOL  : UNIT CELL VOLUME =     222.04511
       MODE OF CALCULATION IS       = RELA
       NON-SPINPOLARIZED CALCULATION
:IFFT  : FFT-parameters:   80   80   80 Factor: 2.00


   CONVERGENCE PARAMETER FOR PSEUDOCHARGE: NCON=  9
   MAXIMAL VALUE OF RMT(JATOM)*ABSK(NKK) : RK  =29.95407


:VKCOUL :  VK-COUL convergence: 0.466E-07
       ATOMNUMBER=  1 Pr         VCOUL-ZERO =  0.31638E+00
:FIT001: LUSE= 13 SIGMA OF V-XC FIT FOR ATOM  1  0.1999076E-05
:FIT001: LUSE= 13 SIGMA OF V-XC FIT FOR ATOM  1  0.1999076E-05
:DEN  : DENSITY INTEGRAL  =         -7076.43138434   (Ry)
       ELS_POTENTIAL_AT Z=0 and Z=0.5:  -2.57233  -2.57233
       ELS_POTENTIAL_AT Y=0 and Y=0.5:   0.00000   0.00000
:VZERO:v0,v0c,v0x  -3.58929  -2.57233  -1.01696 v5,v5c,v5x  -3.58929  -2.57233  -1.01696
:VZERY:v0,v0c,v0x  -0.73864   0.00000  -0.73864 v5,v5c,v5x  -0.73864   0.00000  -0.73864
:VZERX:v0,v0c,v0x  -0.73864   0.00000  -0.73864 v5,v5c,v5x  -0.73864   0.00000  -0.73864
:LMAX-WF:   10   Non-Spherical LMAX:   4

          ATOMIC SPHERE DEPENDENT PARAMETERS FOR ATOM  Pr        
:e__0001: OVERALL ENERGY PARAMETER IS    0.4469
          OVERALL BASIS SET ON ATOM IS LAPW
:E0_0001: E( 0)=    0.4469
             APW+lo
:E0_0001: E( 0)=   -2.0117   E(BOTTOM)=   -2.394   E(TOP)=   -1.629  4  5   179
             LOCAL ORBITAL
:E1_0001: E( 1)=    0.8469
             APW+lo
:E1_0001: E( 1)=   -0.6247   E(BOTTOM)=   -1.273   E(TOP)=    0.024  3  4   175
             LOCAL ORBITAL
:E3_0001: E( 3)=    0.6568   E(BOTTOM)=    0.515   E(TOP)=    0.799  0  1   116
             APW+lo
:E2_0001: E( 2)=    0.4469   E(BOTTOM)=    0.300   E(TOP)= -200.000  2 -1    89
             APW+lo

       K=   0.00000   0.00000   0.00000            1
:RKM  : MATRIX SIZE   189LOs:  20  RKM= 8.49  WEIGHT= 1.00  PGR:    
       EIGENVALUES ARE:
:EIG00001:      -1.9779519   -0.5980184   -0.5980184   -0.5980184    0.3946639
:EIG00006:       0.6448193    0.6683360    0.6683360    0.6683360    0.6981718
:EIG00011:       0.6981718    0.6981718    0.7816330    0.7816330    0.7816330
:EIG00016:       0.9743347    0.9743347    1.3812020    1.6249389    1.6249389
:EIG00021:       1.6249389    1.7274773
       ********************************************************

:KPT   :      NUMBER OF K-POINTS:   165
:GAP (global)   :    0.0    Ry =     0.0   eV (metal)
         Bandranges (emin - emax) and occupancy:
:BAN00001:   1   -1.977952   -1.958406  2.00000000
:BAN00002:   2   -0.705958   -0.598018  2.00000000
:BAN00003:   3   -0.668377   -0.598018  2.00000000
:BAN00004:   4   -0.638257   -0.598018  2.00000000
:BAN00005:   5    0.394664    0.619981  2.00000000
:BAN00006:   6    0.555222    0.661142  2.00000000
:BAN00007:   7    0.638418    0.674452  1.00000000
:BAN00008:   8    0.661968    0.677283  0.00000000
:BAN00009:   9    0.668336    0.681946  0.00000000
:BAN00010:  10    0.676672    0.698172  0.00000000
:BAN00011:  11    0.680118    0.698172  0.00000000
:BAN00012:  12    0.683350    0.702954  0.00000000
        Energy to separate low and high energystates:    0.34466


:NOE  : NUMBER OF ELECTRONS          =   13.000

:FER  : F E R M I - ENERGY(TETRAH.M.)=   0.6615895350
:GMA  : POTENTIAL AND CHARGE CUT-OFF  12.00 Ry**.5

:POS001: ATOM    1 X,Y,Z = 0.00000 0.00000 0.50000  MULT= 1  ZZ= 59.000  Pr        

       LMMAX  5
       LM=   0 0  4 0  4 4  6 0  6 4

:CHA001: TOTAL VALENCE CHARGE INSIDE SPHERE   1 =   9.9393    (RMT=  2.5000 )
:PCS001: PARTIAL CHARGES SPHERE =  1 S,P,D,F,      D-EG,D-T2G 
:QTL001: 2.0373 5.3528 0.7560 1.7926 0.0000 0.0000 0.0000 0.2670 0.4890 0.0000 0.0000 0.0000
        Q-s-low E-s-low   Q-p-low E-p-low   Q-d-low E-d-low   Q-f-low E-f-low
:EPL001:  1.9247 -1.9622    5.2681 -0.6434    0.0022 -0.6630    0.0006 -0.6647
        Q-s-hi  E-s-hi    Q-p-hi  E-p-hi    Q-d-hi  E-d-hi    Q-f-hi  E-f-hi 
:EPH001:  0.1126  0.5482    0.0847  0.5925    0.7539  0.5958    1.7920  0.6414

:CHA  : TOTAL VALENCE CHARGE INSIDE UNIT CELL =      13.000000

:SUM  : SUM OF EIGENVALUES =          -4.760380051


        1.ATOM      Pr                   14 CORE STATES
:1S 001: 1S               -3066.919596438 Ry
:2S 001: 2S                -492.684584793 Ry
:2PP001: 2P*               -465.782312564 Ry
:2P 001: 2P                -430.385467882 Ry
:3S 001: 3S                -105.780563635 Ry
:3PP001: 3P*                -94.318102563 Ry
:3P 001: 3P                 -87.310517560 Ry
:3DD001: 3D*                -67.237240148 Ry
:3D 001: 3D                 -65.725762985 Ry
:4S 001: 4S                 -20.457186206 Ry
:4PP001: 4P*                -16.163699762 Ry
:4P 001: 4P                 -14.635924013 Ry
:4DD001: 4D*                 -7.568394310 Ry
:4D 001: 4D                  -7.298884634 Ry
:CINT001 Core Integral Atom   1   45.999516

       DENSITY AT NUCLEUS
        JATOM        VALENCE       SEMI-CORE          CORE           TOTAL
:RTO001:   1      653.189417        0.000000   656822.774128   657475.963545
     
       CHARGES OF NEW CHARGE DENSITY
:NTO   : INTERSTITIAL CHARGE =     3.060661
:NPC   : PW Pseudocharge     =     7.769903
:NTO001: CHARGE SPHERE  1    =    55.938855

:NEC01: NUCLEAR AND ELECTRONIC CHARGE     59.00000    58.99952
     
       CHARGES OF OLD CHARGE DENSITY
:OTO   : INTERSTITIAL CHARGE =     2.859869
:OPC   : PW Pseudocharge     =     8.013608
:OTO001: CHARGE SPHERE  1    =    56.140131

:NEC02: NUCLEAR AND ELECTRONIC CHARGE     59.00000    59.00000
     
       CONVERGENCE TEST
:DTO001: DIFFERENCE IN SPHERE  1 =  0.3435986

:DIS  :  CHARGE DISTANCE       ( 0.3435986 for atom    1 spin 1)      0.3435986
 PW Mixed is           53
 
******************************************************
* MULTISECANT MIXING VER9 RELEASE 10.4.0              *
* Slow Mode, cautious                                *
* Fixed density scale                                *
* Regularization       1.000E-04                     *
* Step Trust Radius    0.75000                       *
* Trust Upper Limit    2.000E+00                     *
* Max Number of Memory Steps   12                    *
******************************************************
 
:PWTMP   1.5660E+02  1.2500E+02  2.2205E+02
:PLANE:  PW TOTAL      3.3456 DISTAN   2.14E-01  6.41E+00 %
:CHARG:  CLM/ATOM    977.2525 DISTAN   5.72E-01  5.86E-02 %
 
Step History
        DMIX         DMIXT        Red     Pred      Trust     Lambda    MagRel    MagAbs     Beta
  1   3.5000E-02   3.5000E-02 -1.00E+00  1.00E+00 -1.00E+01  1.00E+00  3.50E-02  3.50E-02  1.00E+00
  2   2.5000E-02   2.5000E-02  7.21E-01  1.00E+00 -1.00E+01  1.00E+00  2.50E-02  2.41E-02  1.00E+00
  3   3.2874E-02   3.2874E-02 -1.00E+00  1.00E+00 -1.00E+01  1.00E+00  3.29E-02  2.29E-02  1.00E+00
:JACOBIANS    5.637E-01   1.598E-02
  
:NORMS:  1/Froebius, Min, Max, Used   0.8229E+00  0.4325E+00  0.8651E+00  0.8229E+00
:INFO :  Number of Memory Steps    2 Skipping    0
:INFO :  SLambda=    0.0648210806  Max    0.0648210806
:PREDicted Charge, CTotal, PW Trust    4.821E-03   4.821E-03   1.526E-01
:PREDicted DMix, Beta, BLim   2.0956E-02  6.0184E-01  3.5706E-01

Eigenvalues, unscaled except for SY+YY
   #     SY Real        SY Imag          SS             YY         SY+YY Real      SY+YY Imag
   1   1.422820E+00   0.000000E+00   1.354287E+00   1.999803E+00   2.092030E+00   0.000000E+00
   2  -9.436896E-15   0.000000E+00   0.000000E+00   1.965851E-04   1.984565E-04   0.000000E+00
 
:INFO :  Singular value  2.092E+00 Weight  1.000E+00 Projection  1.081E-03
:INFO :  Singular value  1.985E-04 Weight  4.962E-01 Projection -1.822E+01
:RANK :  ACTIVE   1.50/2  =  74.81 % ; YY RANK   1.49/2  =  74.57 %
 
:DLIM :  Beta Active  8.000E-01
:BLIM :  VZERO Control Off
:TRUST:  Step 2.20E-01  Charge 7.50E-02 (e) CTO  2.50E-01 (e) PW  3.50E-01 (e)
:DIRM :  MEMORY  2/12 SCALE   1.000 RED  0.88 PRED  1.00 NEXT  0.74 BETA  0.80
:TRAVE:  Charge 3.94E-04 (e) CTO  3.94E-04 (e) PW  8.08E-02 (e)
:DIRP :  |MSR1|= 8.806E-02 |PRATT|= 2.143E-01 ANGLE=  19.8 DEGREES
:DIRQ :  |MSR1|= 7.044E-03 |PRATT|= 5.724E-01 ANGLE=  42.7 DEGREES
:DIRT :  |MSR1|= 8.834E-02 |PRATT|= 6.112E-01 ANGLE=  67.4 DEGREES
:MIX  :   MSD1   REGULARIZATION:  2.00E-04 GREED: 0.02620  Newton 1.00  0.1445                
     
       CHARGES OF MIXED CHARGE DENSITY
:CTO   : INTERSTITIAL CHARGE =     2.860263
:CPC   : PW Pseudocharge     =     7.869643
:CTO001: CHARGE SPHERE  1    =    56.139737

:NEC03: NUCLEAR AND ELECTRONIC CHARGE     59.00000    59.00000

PW CHANGE     H    K    L      Current       Change    Residue
:PTO001:      0    0    0  4.83230936E-02 -6.466E-04 -1.855E-04
:PTO002:     -1   -1   -1 -1.45129854E-01  3.689E-03  8.242E-03
:PTO003:      0    0   -2  8.56338112E-02 -2.481E-03 -6.691E-03
:PTO004:      0   -2   -2  6.81811162E-02 -2.982E-03 -5.482E-03
:PTO005:     -1   -1   -3 -6.40289353E-02  4.071E-03  1.217E-02
:PTO006:     -2   -2   -2  1.61813572E-02 -1.177E-03 -3.717E-03
:PTO007:      0    0   -4  2.89325984E-03 -4.891E-04 -2.410E-03
:PTO008:     -1   -3   -3 -3.58392548E-05  1.083E-03  3.457E-03
:PTO009:      0   -2   -4 -2.24555065E-03 -8.825E-04 -3.481E-03
:PTO010:     -2   -2   -4 -6.43159230E-03 -2.710E-04 -2.203E-03
:PTO011:     -3   -3   -3  2.27491442E-03 -1.422E-06  6.523E-04
:PTO012:     -1   -1   -5  6.82794106E-03 -3.974E-06  1.919E-03

:ENE  : ********** TOTAL ENERGY IN Ry =       -18472.10191768

 Flat Integration
 New Mode for Coulomb Integral
 Consistent 3/8+Simpson combinations
 Extension of core to zero
 LDM version in phi
 Fifth-order quadrature in outwin


            ---------
:ITE004:  4. ITERATION
            ---------

:NATO :    1 INDEPENDENT AND    1 TOTAL ATOMS IN UNITCELL
       SUBSTANCE: blebleble                                                   

       LATTICE                      = F   
:POT  : POTENTIAL OPTION EX_LDA EC_LDA VX_LDA VC_LDA
:LAT  : LATTICE CONSTANTS=  9.61244  9.61244  9.61244    1.571    1.571    1.571
:VOL  : UNIT CELL VOLUME =     222.04511
       MODE OF CALCULATION IS       = RELA
       NON-SPINPOLARIZED CALCULATION
:IFFT  : FFT-parameters:   80   80   80 Factor: 2.00


   CONVERGENCE PARAMETER FOR PSEUDOCHARGE: NCON=  9
   MAXIMAL VALUE OF RMT(JATOM)*ABSK(NKK) : RK  =29.95407


:VKCOUL :  VK-COUL convergence: 0.465E-07
       ATOMNUMBER=  1 Pr         VCOUL-ZERO =  0.31435E+00
:FIT001: LUSE= 13 SIGMA OF V-XC FIT FOR ATOM  1  0.2109030E-05
:FIT001: LUSE= 13 SIGMA OF V-XC FIT FOR ATOM  1  0.2109030E-05
:DEN  : DENSITY INTEGRAL  =         -7076.27652986   (Ry)
       ELS_POTENTIAL_AT Z=0 and Z=0.5:  -2.55924  -2.55924
       ELS_POTENTIAL_AT Y=0 and Y=0.5:   0.00000   0.00000
:VZERO:v0,v0c,v0x  -3.57050  -2.55924  -1.01125 v5,v5c,v5x  -3.57050  -2.55924  -1.01125
:VZERY:v0,v0c,v0x  -0.73746   0.00000  -0.73746 v5,v5c,v5x  -0.73746   0.00000  -0.73746
:VZERX:v0,v0c,v0x  -0.73746   0.00000  -0.73746 v5,v5c,v5x  -0.73746   0.00000  -0.73746
:LMAX-WF:   10   Non-Spherical LMAX:   4

          ATOMIC SPHERE DEPENDENT PARAMETERS FOR ATOM  Pr        
:e__0001: OVERALL ENERGY PARAMETER IS    0.4567
          OVERALL BASIS SET ON ATOM IS LAPW
:E0_0001: E( 0)=    0.4567
             APW+lo
:E0_0001: E( 0)=   -2.0141   E(BOTTOM)=   -2.396   E(TOP)=   -1.632  4  5   180
             LOCAL ORBITAL
:E1_0001: E( 1)=    0.8567
             APW+lo
:E1_0001: E( 1)=   -0.6271   E(BOTTOM)=   -1.276   E(TOP)=    0.021  3  4   179
             LOCAL ORBITAL
:E3_0001: E( 3)=    0.6543   E(BOTTOM)=    0.512   E(TOP)=    0.796  0  1   118
             APW+lo
:E2_0001: E( 2)=    0.4567   E(BOTTOM)=    0.298   E(TOP)= -200.000  2 -1    84
             APW+lo

       K=   0.00000   0.00000   0.00000            1
:RKM  : MATRIX SIZE   189LOs:  20  RKM= 8.49  WEIGHT= 1.00  PGR:    
       EIGENVALUES ARE:
:EIG00001:      -1.9803472   -0.6003540   -0.6003540   -0.6003540    0.3926178
:EIG00006:       0.6423906    0.6658148    0.6658148    0.6658148    0.6956408
:EIG00011:       0.6956408    0.6956408    0.7795258    0.7795258    0.7795258
:EIG00016:       0.9721502    0.9721502    1.3791364    1.6228743    1.6228743
:EIG00021:       1.6228743    1.7254279
       ********************************************************

:KPT   :      NUMBER OF K-POINTS:   165
:GAP (global)   :    0.0    Ry =     0.0   eV (metal)
         Bandranges (emin - emax) and occupancy:
:BAN00001:   1   -1.980347   -1.960811  2.00000000
:BAN00002:   2   -0.708244   -0.600354  2.00000000
:BAN00003:   3   -0.670680   -0.600354  2.00000000
:BAN00004:   4   -0.640574   -0.600354  2.00000000
:BAN00005:   5    0.392618    0.617794  2.00000000
:BAN00006:   6    0.553154    0.658705  2.00000000
:BAN00007:   7    0.636076    0.671944  1.00000000
:BAN00008:   8    0.659516    0.674773  0.00000000
:BAN00009:   9    0.665815    0.679479  0.00000000
:BAN00010:  10    0.674184    0.695641  0.00000000
:BAN00011:  11    0.677589    0.695641  0.00000000
:BAN00012:  12    0.680818    0.700481  0.00000000
        Energy to separate low and high energystates:    0.34262


:NOE  : NUMBER OF ELECTRONS          =   13.000

:FER  : F E R M I - ENERGY(TETRAH.M.)=   0.6591376379
:GMA  : POTENTIAL AND CHARGE CUT-OFF  12.00 Ry**.5

:POS001: ATOM    1 X,Y,Z = 0.00000 0.00000 0.50000  MULT= 1  ZZ= 59.000  Pr        

       LMMAX  5
       LM=   0 0  4 0  4 4  6 0  6 4

:CHA001: TOTAL VALENCE CHARGE INSIDE SPHERE   1 =   9.9435    (RMT=  2.5000 )
:PCS001: PARTIAL CHARGES SPHERE =  1 S,P,D,F,      D-EG,D-T2G 
:QTL001: 2.0373 5.3528 0.7544 1.7986 0.0000 0.0000 0.0000 0.2665 0.4879 0.0000 0.0000 0.0000
        Q-s-low E-s-low   Q-p-low E-p-low   Q-d-low E-d-low   Q-f-low E-f-low
:EPL001:  1.9247 -1.9646    5.2684 -0.6457    0.0022 -0.6653    0.0006 -0.6670
        Q-s-hi  E-s-hi    Q-p-hi  E-p-hi    Q-d-hi  E-d-hi    Q-f-hi  E-f-hi 
:EPH001:  0.1125  0.5461    0.0844  0.5902    0.7522  0.5936    1.7979  0.6390

:CHA  : TOTAL VALENCE CHARGE INSIDE UNIT CELL =      13.000000

:SUM  : SUM OF EIGENVALUES =          -4.790239144


        1.ATOM      Pr                   14 CORE STATES
:1S 001: 1S               -3066.922747268 Ry
:2S 001: 2S                -492.687450092 Ry
:2PP001: 2P*               -465.785214838 Ry
:2P 001: 2P                -430.388353927 Ry
:3S 001: 3S                -105.783246532 Ry
:3PP001: 3P*                -94.320795113 Ry
:3P 001: 3P                 -87.313201428 Ry
:3DD001: 3D*                -67.239938570 Ry
:3D 001: 3D                 -65.728458426 Ry
:4S 001: 4S                 -20.459800260 Ry
:4PP001: 4P*                -16.166314868 Ry
:4P 001: 4P                 -14.638539465 Ry
:4DD001: 4D*                 -7.571004228 Ry
:4D 001: 4D                  -7.301493927 Ry
:CINT001 Core Integral Atom   1   45.999517

       DENSITY AT NUCLEUS
        JATOM        VALENCE       SEMI-CORE          CORE           TOTAL
:RTO001:   1      653.198587        0.000000   656822.837434   657476.036021
     
       CHARGES OF NEW CHARGE DENSITY
:NTO   : INTERSTITIAL CHARGE =     3.056491
:NPC   : PW Pseudocharge     =     7.768407
:NTO001: CHARGE SPHERE  1    =    55.943025

:NEC01: NUCLEAR AND ELECTRONIC CHARGE     59.00000    58.99952
     
       CHARGES OF OLD CHARGE DENSITY
:OTO   : INTERSTITIAL CHARGE =     2.860263
:OPC   : PW Pseudocharge     =     7.869643
:OTO001: CHARGE SPHERE  1    =    56.139737

:NEC02: NUCLEAR AND ELECTRONIC CHARGE     59.00000    59.00000
     
       CONVERGENCE TEST
:DTO001: DIFFERENCE IN SPHERE  1 =  0.3361745

:DIS  :  CHARGE DISTANCE       ( 0.3361745 for atom    1 spin 1)      0.3361745
 PW Mixed is           53
 
******************************************************
* MULTISECANT MIXING VER9 RELEASE 10.4.0              *
* Slow Mode, cautious                                *
* Fixed density scale                                *
* Regularization       1.000E-04                     *
* Step Trust Radius    0.75000                       *
* Trust Upper Limit    2.000E+00                     *
* Max Number of Memory Steps   12                    *
******************************************************
 
:PWTMP   1.5660E+02  1.2500E+02  2.2205E+02
:PLANE:  PW TOTAL      3.2664 DISTAN   1.34E-01  4.12E+00 %
:CHARG:  CLM/ATOM    977.2510 DISTAN   5.63E-01  5.77E-02 %
 
Step History
        DMIX         DMIXT        Red     Pred      Trust     Lambda    MagRel    MagAbs     Beta
  1   3.5000E-02   3.5000E-02 -1.00E+00  1.00E+00 -1.00E+01  1.00E+00  3.50E-02  3.50E-02  1.00E+00
  2   2.5000E-02   2.5000E-02  7.21E-01  1.00E+00 -1.00E+01  1.00E+00  2.50E-02  2.41E-02  1.00E+00
  3   3.2874E-02   3.2874E-02  8.78E-01  1.00E+00 -1.00E+01  6.48E-02  3.29E-02  2.29E-02  1.00E+00
  4   2.6196E-02   2.6196E-02 -1.00E+00  7.40E-01  2.20E-01  1.00E+00  1.45E-01  8.83E-02  8.00E-01
:JACOBIANS    7.802E-01   5.488E-02
  
:NORMS:  1/Froebius, Min, Max, Used   0.8309E+00  0.3360E+00  0.9987E+00  0.8916E+00
:INFO :  Number of Memory Steps    3 Skipping    0
:INFO :  SLambda=    1.4572354522  Max    1.4572354522
:PREDicted Charge, CTotal, PW Trust    1.898E-02   1.898E-02   2.072E-01
:PREDicted DMix, Beta, BLim   1.4714E-01  2.7509E+00  3.3459E-01

Eigenvalues, unscaled except for SY+YY
   #     SY Real        SY Imag          SS             YY         SY+YY Real      SY+YY Imag
   1   2.114148E+00   0.000000E+00   2.057276E+00   2.587956E+00   5.619392E+00   0.000000E+00
   2  -1.250305E-14   0.000000E+00   1.372797E-02   4.119372E-01   9.694186E-05   0.000000E+00
   3   4.114862E-02   0.000000E+00   9.650686E-17   1.070458E-04   5.212854E-01   0.000000E+00
 
:INFO :  Singular value  5.620E+00 Weight  1.000E+00 Projection  2.931E-02
:INFO :  Singular value  5.213E-01 Weight  1.000E+00 Projection -7.014E-01
:INFO :  Singular value  9.694E-05 Weight  1.230E-01 Projection -2.323E+00
:RANK :  ACTIVE   2.12/3  =  70.77 % ; YY RANK   2.15/3  =  71.54 %
 
:BLIM :  VZERO Control Off
:TRUST:  Step 2.77E-01  Charge 7.50E-02 (e) CTO  2.50E-01 (e) PW  3.50E-01 (e)
:DTRUS:  Lambda    6.128E-02 Increment    3.638E-12 Iterations    97 DMIX    5.874E-02
:INFOA:  Angle SubSpace to MSR1      2.46
:DIRM :  MEMORY  3/12 SCALE   1.000 RED  0.95 PRED  0.74 NEXT  0.73 
:INFO :  Limited by Atoms F by Step T

:TRAVE:  Charge 7.97E-03 (e) CTO  7.97E-03 (e) PW  9.35E-02 (e)
:DIRP :  |MSR1|= 1.317E-01 |PRATT|= 1.344E-01 ANGLE=  27.9 DEGREES
:DIRQ :  |MSR1|= 9.165E-02 |PRATT|= 5.634E-01 ANGLE=  25.9 DEGREES
:DIRT :  |MSR1|= 1.605E-01 |PRATT|= 5.792E-01 ANGLE=  48.1 DEGREES
:MIX  :   MSE1   REGULARIZATION:  2.59E-04 GREED: 0.06549  LMStep 0.90  0.2771 Step           
     
       CHARGES OF MIXED CHARGE DENSITY
:CTO   : INTERSTITIAL CHARGE =     2.875807
:CPC   : PW Pseudocharge     =     7.665467
:CTO001: CHARGE SPHERE  1    =    56.124193

:NEC03: NUCLEAR AND ELECTRONIC CHARGE     59.00000    59.00000

PW CHANGE     H    K    L      Current       Change    Residue
:PTO001:      0    0    0  4.74735696E-02 -8.495E-04  4.355E-04
:PTO002:     -1   -1   -1 -1.39754249E-01  5.376E-03  4.549E-03
:PTO003:      0    0   -2  8.17981052E-02 -3.836E-03 -4.201E-03
:PTO004:      0   -2   -2  6.40312817E-02 -4.150E-03 -2.499E-03
:PTO005:     -1   -1   -3 -5.74651112E-02  6.564E-03  8.092E-03
:PTO006:     -2   -2   -2  1.42646972E-02 -1.917E-03 -2.538E-03
:PTO007:      0    0   -4  1.92425548E-03 -9.690E-04 -1.917E-03
:PTO008:     -1   -3   -3  1.79211001E-03  1.828E-03  2.374E-03
:PTO009:      0   -2   -4 -3.86706540E-03 -1.622E-03 -2.594E-03
:PTO010:     -2   -2   -4 -7.15270314E-03 -7.211E-04 -1.931E-03
:PTO011:     -3   -3   -3  2.39895728E-03  1.240E-04  6.538E-04
:PTO012:     -1   -1   -5  7.19533054E-03  3.674E-04  1.918E-03

:ENE  : ********** TOTAL ENERGY IN Ry =       -18472.10177154

 Flat Integration
 New Mode for Coulomb Integral
 Consistent 3/8+Simpson combinations
 Extension of core to zero
 LDM version in phi
 Fifth-order quadrature in outwin


            ---------
:ITE005:  5. ITERATION
            ---------

:NATO :    1 INDEPENDENT AND    1 TOTAL ATOMS IN UNITCELL
       SUBSTANCE: blebleble                                                   

       LATTICE                      = F   
:POT  : POTENTIAL OPTION EX_LDA EC_LDA VX_LDA VC_LDA
:LAT  : LATTICE CONSTANTS=  9.61244  9.61244  9.61244    1.571    1.571    1.571
:VOL  : UNIT CELL VOLUME =     222.04511
       MODE OF CALCULATION IS       = RELA
       NON-SPINPOLARIZED CALCULATION
:IFFT  : FFT-parameters:   80   80   80 Factor: 2.00


   CONVERGENCE PARAMETER FOR PSEUDOCHARGE: NCON=  9
   MAXIMAL VALUE OF RMT(JATOM)*ABSK(NKK) : RK  =29.95407


:VKCOUL :  VK-COUL convergence: 0.524E-07
       ATOMNUMBER=  1 Pr         VCOUL-ZERO =  0.31183E+00
:FIT001: LUSE= 13 SIGMA OF V-XC FIT FOR ATOM  1  0.5027340E-05
:FIT001: LUSE= 13 SIGMA OF V-XC FIT FOR ATOM  1  0.5027340E-05
:DEN  : DENSITY INTEGRAL  =         -7074.48783962   (Ry)
       ELS_POTENTIAL_AT Z=0 and Z=0.5:  -2.55202  -2.55202
       ELS_POTENTIAL_AT Y=0 and Y=0.5:   0.00000   0.00000
:VZERO:v0,v0c,v0x  -3.55261  -2.55202  -1.00060 v5,v5c,v5x  -3.55261  -2.55202  -1.00060
:VZERY:v0,v0c,v0x  -0.73652   0.00000  -0.73652 v5,v5c,v5x  -0.73652   0.00000  -0.73652
:VZERX:v0,v0c,v0x  -0.73652   0.00000  -0.73652 v5,v5c,v5x  -0.73652   0.00000  -0.73652
:LMAX-WF:   10   Non-Spherical LMAX:   4

          ATOMIC SPHERE DEPENDENT PARAMETERS FOR ATOM  Pr        
:e__0001: OVERALL ENERGY PARAMETER IS    0.4583
          OVERALL BASIS SET ON ATOM IS LAPW
:E0_0001: E( 0)=    0.4583
             APW+lo
:E0_0001: E( 0)=   -2.0294   E(BOTTOM)=   -2.410   E(TOP)=   -1.649  4  5   176
             LOCAL ORBITAL
:E1_0001: E( 1)=    0.8583
             APW+lo
:E1_0001: E( 1)=   -0.6406   E(BOTTOM)=   -1.286   E(TOP)=    0.005  3  4   175
             LOCAL ORBITAL
:E3_0001: E( 3)=    0.6309   E(BOTTOM)=    0.491   E(TOP)=    0.771  0  1   115
             APW+lo
:E2_0001: E( 2)=    0.4583   E(BOTTOM)=    0.289   E(TOP)= -200.000  2 -1    86
             APW+lo

       K=   0.00000   0.00000   0.00000            1
:RKM  : MATRIX SIZE   189LOs:  20  RKM= 8.49  WEIGHT= 1.00  PGR:    
       EIGENVALUES ARE:
:EIG00001:      -1.9952550   -0.6130182   -0.6130182   -0.6130182    0.3892221
:EIG00006:       0.6215135    0.6430535    0.6430535    0.6430535    0.6716573
:EIG00011:       0.6716573    0.6716573    0.7739756    0.7739756    0.7739756
:EIG00016:       0.9649832    0.9649832    1.3739276    1.6187376    1.6187376
:EIG00021:       1.6187376    1.7235385
       ********************************************************

:KPT   :      NUMBER OF K-POINTS:   165
:GAP (global)   :    0.0    Ry =     0.0   eV (metal)
         Bandranges (emin - emax) and occupancy:
:BAN00001:   1   -1.995255   -1.976034  2.00000000
:BAN00002:   2   -0.719326   -0.613018  2.00000000
:BAN00003:   3   -0.682294   -0.613018  2.00000000
:BAN00004:   4   -0.652636   -0.613018  2.00000000
:BAN00005:   5    0.389222    0.607591  2.00000000
:BAN00006:   6    0.548843    0.637648  2.00000000
:BAN00007:   7    0.620145    0.650342  1.00006918
:BAN00008:   8    0.639004    0.652076 -0.00006918
:BAN00009:   9    0.643053    0.657419  0.00000000
:BAN00010:  10    0.651389    0.671657  0.00000000
:BAN00011:  11    0.654845    0.671657  0.00000000
:BAN00012:  12    0.657407    0.682503  0.00000000
:BAN00013:  13    0.665014    0.780233  0.00000000
        Energy to separate low and high energystates:    0.33922


:NOE  : NUMBER OF ELECTRONS          =   13.000

:FER  : F E R M I - ENERGY(TETRAH.M.)=   0.6385245898
:GMA  : POTENTIAL AND CHARGE CUT-OFF  12.00 Ry**.5

:POS001: ATOM    1 X,Y,Z = 0.00000 0.00000 0.50000  MULT= 1  ZZ= 59.000  Pr        

       LMMAX  5
       LM=   0 0  4 0  4 4  6 0  6 4

:CHA001: TOTAL VALENCE CHARGE INSIDE SPHERE   1 =  10.1288    (RMT=  2.5000 )
:PCS001: PARTIAL CHARGES SPHERE =  1 S,P,D,F,      D-EG,D-T2G 
:QTL001: 2.0345 5.3478 0.6760 2.0700 0.0000 0.0000 0.0000 0.2413 0.4347 0.0000 0.0000 0.0000
        Q-s-low E-s-low   Q-p-low E-p-low   Q-d-low E-d-low   Q-f-low E-f-low
:EPL001:  1.9255 -1.9798    5.2767 -0.6577    0.0021 -0.6773    0.0006 -0.6790
        Q-s-hi  E-s-hi    Q-p-hi  E-p-hi    Q-d-hi  E-d-hi    Q-f-hi  E-f-hi 
:EPH001:  0.1090  0.5383    0.0710  0.5749    0.6739  0.5810    2.0694  0.6212

:CHA  : TOTAL VALENCE CHARGE INSIDE UNIT CELL =      13.000000

:SUM  : SUM OF EIGENVALUES =          -4.950181270


        1.ATOM      Pr                   14 CORE STATES
:1S 001: 1S               -3066.966015418 Ry
:2S 001: 2S                -492.727605404 Ry
:2PP001: 2P*               -465.825756308 Ry
:2P 001: 2P                -430.428722579 Ry
:3S 001: 3S                -105.820903452 Ry
:3PP001: 3P*                -94.358611222 Ry
:3P 001: 3P                 -87.350817505 Ry
:3DD001: 3D*                -67.277892582 Ry
:3D 001: 3D                 -65.766354971 Ry
:4S 001: 4S                 -20.490958999 Ry
:4PP001: 4P*                -16.197123440 Ry
:4P 001: 4P                 -14.668792439 Ry
:4DD001: 4D*                 -7.600204021 Ry
:4D 001: 4D                  -7.330495932 Ry
:CINT001 Core Integral Atom   1   45.999523

       DENSITY AT NUCLEUS
        JATOM        VALENCE       SEMI-CORE          CORE           TOTAL
:RTO001:   1      653.537698        0.000000   656824.714664   657478.252362
     
       CHARGES OF NEW CHARGE DENSITY
:NTO   : INTERSTITIAL CHARGE =     2.871245
:NPC   : PW Pseudocharge     =     7.694114
:NTO001: CHARGE SPHERE  1    =    56.128277

:NEC01: NUCLEAR AND ELECTRONIC CHARGE     59.00000    58.99952
     
       CHARGES OF OLD CHARGE DENSITY
:OTO   : INTERSTITIAL CHARGE =     2.875807
:OPC   : PW Pseudocharge     =     7.665467
:OTO001: CHARGE SPHERE  1    =    56.124193

:NEC02: NUCLEAR AND ELECTRONIC CHARGE     59.00000    59.00000
     
       CONVERGENCE TEST
:DTO001: DIFFERENCE IN SPHERE  1 =  0.0696945

:DIS  :  CHARGE DISTANCE       ( 0.0696945 for atom    1 spin 1)      0.0696945
 PW Mixed is           53
 
******************************************************
* MULTISECANT MIXING VER9 RELEASE 10.4.0              *
* Standard Mode with controls                        *
* Fixed density scale                                *
* Regularization       1.000E-04                     *
* Trust Upper Limit    5.000E+00                     *
* Max Number of Memory Steps    8                    *
******************************************************
 
:PWTMP   1.5660E+02  1.2500E+02  2.2205E+02
:PLANE:  PW TOTAL      3.1521 DISTAN   3.58E-02  1.13E+00 %
:CHARG:  CLM/ATOM    977.2337 DISTAN   3.87E-01  3.96E-02 %
 
Step History
        DMIX         DMIXT        Red     Pred      Trust     Lambda    MagRel    MagAbs     Beta
  1   3.5000E-02   3.5000E-02 -1.00E+00  1.00E+00 -1.00E+01  1.00E+00  3.50E-02  3.50E-02  1.00E+00
  2   2.5000E-02   2.5000E-02  7.21E-01  1.00E+00 -1.00E+01  1.00E+00  2.50E-02  2.41E-02  1.00E+00
  3   3.2874E-02   3.2874E-02  8.78E-01  1.00E+00 -1.00E+01  6.48E-02  3.29E-02  2.29E-02  1.00E+00
  4   2.6196E-02   2.6196E-02  9.48E-01  7.40E-01  2.20E-01  1.46E+00  1.45E-01  8.83E-02  8.00E-01
  5   6.5491E-02   5.8736E-02 -1.00E+00  7.29E-01  2.77E-01  1.00E+00  2.77E-01  1.60E-01  1.00E+00
:JACOBIANS    8.837E-01   1.174E-01
  
:NORMS:  1/Froebius, Min, Max, Used   0.4381E+00  0.4276E+00  0.9989E+00  0.4461E+00
:INFO :  Number of Memory Steps    4 Skipping    0
:INFO :  SLambda=    0.5231127291  Max    0.5231127291
:PREDicted Charge, CTotal, PW Trust    1.573E-02   1.573E-02   1.325E-01
:PREDicted DMix, Beta, BLim   1.2259E-01  1.2953E+00  4.0030E-01

Eigenvalues, unscaled except for SY+YY
   #     SY Real        SY Imag          SS             YY         SY+YY Real      SY+YY Imag
   1   6.260314E-01   0.000000E+00   6.261471E-01   3.424294E+00   3.612692E+00   0.000000E+00
   2   2.990688E-01   0.000000E+00   1.416086E-01   5.755569E-01   8.710885E-01   0.000000E+00
   3  -4.195293E-15   0.000000E+00   1.189433E-05   1.292703E-04   2.118095E-05   0.000000E+00
   4   7.743182E-05   0.000000E+00  -6.479785E-18   1.985923E-05   1.704721E-04   0.000000E+00
 
:INFO :  Singular value  3.613E+00 Weight  1.000E+00 Projection -4.000E-02
:INFO :  Singular value  8.710E-01 Weight  1.000E+00 Projection -4.129E-02
:INFO :  Singular value  1.716E-04 Weight  2.006E-01 Projection -6.767E+00
:INFO :  Singular value  2.105E-05 Weight  3.763E-03 Projection -1.180E-03
:RANK :  ACTIVE   2.20/4  =  55.11 % ; YY RANK   2.13/4  =  53.20 %
 
:BLIM :  VZERO Control Off
:TRUST:  Step 3.74E-01  Charge 7.50E-02 (e) CTO  2.50E-01 (e) PW  3.50E-01 (e)
:DIRM :  MEMORY  4/8  SCALE   1.000 RED  0.67 PRED  0.73 NEXT  0.80 
:TRAVE:  Charge 5.27E-03 (e) CTO  5.27E-03 (e) PW  5.87E-02 (e)
:DIRP :  |MSR1|= 2.823E-02 |PRATT|= 3.576E-02 ANGLE=  83.9 DEGREES
:DIRQ :  |MSR1|= 8.830E-02 |PRATT|= 3.873E-01 ANGLE=   6.2 DEGREES
:DIRT :  |MSR1|= 9.270E-02 |PRATT|= 3.890E-01 ANGLE=  18.9 DEGREES
:MIX  :   MSD1   REGULARIZATION:  3.42E-04 GREED: 0.08487  Newton 1.00  0.2383                
     
       CHARGES OF MIXED CHARGE DENSITY
:CTO   : INTERSTITIAL CHARGE =     2.873239
:CPC   : PW Pseudocharge     =     7.625679
:CTO001: CHARGE SPHERE  1    =    56.126761

:NEC03: NUCLEAR AND ELECTRONIC CHARGE     59.00000    59.00000

PW CHANGE     H    K    L      Current       Change    Residue
:PTO001:      0    0    0  4.72828180E-02 -1.908E-04  1.164E-04
:PTO002:     -1   -1   -1 -1.38766756E-01  9.875E-04 -8.231E-04
:PTO003:      0    0   -2  8.09702621E-02 -8.278E-04 -9.924E-05
:PTO004:      0   -2   -2  6.34321380E-02 -5.991E-04  1.548E-03
:PTO005:     -1   -1   -3 -5.58485619E-02  1.617E-03  1.197E-03
:PTO006:     -2   -2   -2  1.37587341E-02 -5.060E-04 -5.482E-04
:PTO007:      0    0   -4  1.56785120E-03 -3.564E-04 -8.192E-04
:PTO008:     -1   -3   -3  2.28468347E-03  4.926E-04  5.140E-04
:PTO009:      0   -2   -4 -4.37462632E-03 -5.076E-04 -8.423E-04
:PTO010:     -2   -2   -4 -7.51910016E-03 -3.664E-04 -1.136E-03
:PTO011:     -3   -3   -3  2.52072131E-03  1.218E-04  5.162E-04
:PTO012:     -1   -1   -5  7.53305971E-03  3.377E-04  1.406E-03

:ENE  : ********** TOTAL ENERGY IN Ry =       -18472.09879130

 Flat Integration
 New Mode for Coulomb Integral
 Consistent 3/8+Simpson combinations
 Extension of core to zero
 LDM version in phi
 Fifth-order quadrature in outwin


            ---------
:ITE006:  6. ITERATION
            ---------

:NATO :    1 INDEPENDENT AND    1 TOTAL ATOMS IN UNITCELL
       SUBSTANCE: blebleble                                                   

       LATTICE                      = F   
:POT  : POTENTIAL OPTION EX_LDA EC_LDA VX_LDA VC_LDA
:LAT  : LATTICE CONSTANTS=  9.61244  9.61244  9.61244    1.571    1.571    1.571
:VOL  : UNIT CELL VOLUME =     222.04511
       MODE OF CALCULATION IS       = RELA
       NON-SPINPOLARIZED CALCULATION
:IFFT  : FFT-parameters:   80   80   80 Factor: 2.00


   CONVERGENCE PARAMETER FOR PSEUDOCHARGE: NCON=  9
   MAXIMAL VALUE OF RMT(JATOM)*ABSK(NKK) : RK  =29.95407


:VKCOUL :  VK-COUL convergence: 0.599E-07
       ATOMNUMBER=  1 Pr         VCOUL-ZERO =  0.31115E+00
:FIT001: LUSE= 13 SIGMA OF V-XC FIT FOR ATOM  1  0.1073677E-04
:FIT001: LUSE= 13 SIGMA OF V-XC FIT FOR ATOM  1  0.1073677E-04
:DEN  : DENSITY INTEGRAL  =         -7074.84864803   (Ry)
       ELS_POTENTIAL_AT Z=0 and Z=0.5:  -2.55060  -2.55060
       ELS_POTENTIAL_AT Y=0 and Y=0.5:   0.00000   0.00000
:VZERO:v0,v0c,v0x  -3.54731  -2.55060  -0.99670 v5,v5c,v5x  -3.54731  -2.55060  -0.99670
:VZERY:v0,v0c,v0x  -0.73606   0.00000  -0.73606 v5,v5c,v5x  -0.73606   0.00000  -0.73606
:VZERX:v0,v0c,v0x  -0.73606   0.00000  -0.73606 v5,v5c,v5x  -0.73606   0.00000  -0.73606
:LMAX-WF:   10   Non-Spherical LMAX:   4

          ATOMIC SPHERE DEPENDENT PARAMETERS FOR ATOM  Pr        
:e__0001: OVERALL ENERGY PARAMETER IS    0.4451
          OVERALL BASIS SET ON ATOM IS LAPW
:E0_0001: E( 0)=    0.4451
             APW+lo
:E0_0001: E( 0)=   -2.0285   E(BOTTOM)=   -2.409   E(TOP)=   -1.648  4  5   177
             LOCAL ORBITAL
:E1_0001: E( 1)=    0.8451
             APW+lo
:E1_0001: E( 1)=   -0.6400   E(BOTTOM)=   -1.286   E(TOP)=    0.006  3  4   178
             LOCAL ORBITAL
:E3_0001: E( 3)=    0.6344   E(BOTTOM)=    0.494   E(TOP)=    0.775  0  1   119
             APW+lo
:E2_0001: E( 2)=    0.4451   E(BOTTOM)=    0.289   E(TOP)= -200.000  2 -1    86
             APW+lo

       K=   0.00000   0.00000   0.00000            1
:RKM  : MATRIX SIZE   189LOs:  20  RKM= 8.49  WEIGHT= 1.00  PGR:    
       EIGENVALUES ARE:
:EIG00001:      -1.9944104   -0.6125324   -0.6125324   -0.6125324    0.3887884
:EIG00006:       0.6247624    0.6463270    0.6463270    0.6463270    0.6752565
:EIG00011:       0.6752565    0.6752565    0.7738913    0.7738913    0.7738913
:EIG00016:       0.9648241    0.9648241    1.3740954    1.6184333    1.6184333
:EIG00021:       1.6184333    1.7221663
       ********************************************************

:KPT   :      NUMBER OF K-POINTS:   165
:GAP (global)   :    0.0    Ry =     0.0   eV (metal)
         Bandranges (emin - emax) and occupancy:
:BAN00001:   1   -1.994410   -1.975153  2.00000000
:BAN00002:   2   -0.719002   -0.612532  2.00000000
:BAN00003:   3   -0.681912   -0.612532  2.00000000
:BAN00004:   4   -0.652210   -0.612532  2.00000000
:BAN00005:   5    0.388788    0.608562  2.00000000
:BAN00006:   6    0.548588    0.640767  2.00000000
:BAN00007:   7    0.622157    0.653378  1.00008511
:BAN00008:   8    0.641910    0.655424 -0.00008511
:BAN00009:   9    0.646327    0.660801  0.00000000
:BAN00010:  10    0.654810    0.675256  0.00000000
:BAN00011:  11    0.658157    0.675256  0.00000000
:BAN00012:  12    0.660837    0.684301  0.00000000
:BAN00013:  13    0.668788    0.780156  0.00000000
        Energy to separate low and high energystates:    0.33879


:NOE  : NUMBER OF ELECTRONS          =   13.000

:FER  : F E R M I - ENERGY(TETRAH.M.)=   0.6414628335
:GMA  : POTENTIAL AND CHARGE CUT-OFF  12.00 Ry**.5

:POS001: ATOM    1 X,Y,Z = 0.00000 0.00000 0.50000  MULT= 1  ZZ= 59.000  Pr        

       LMMAX  5
       LM=   0 0  4 0  4 4  6 0  6 4

:CHA001: TOTAL VALENCE CHARGE INSIDE SPHERE   1 =  10.0908    (RMT=  2.5000 )
:PCS001: PARTIAL CHARGES SPHERE =  1 S,P,D,F,      D-EG,D-T2G 
:QTL001: 2.0351 5.3494 0.6932 2.0127 0.0000 0.0000 0.0000 0.2470 0.4462 0.0000 0.0000 0.0000
        Q-s-low E-s-low   Q-p-low E-p-low   Q-d-low E-d-low   Q-f-low E-f-low
:EPL001:  1.9254 -1.9789    5.2758 -0.6573    0.0021 -0.6769    0.0006 -0.6785
        Q-s-hi  E-s-hi    Q-p-hi  E-p-hi    Q-d-hi  E-d-hi    Q-f-hi  E-f-hi 
:EPH001:  0.1097  0.5387    0.0736  0.5768    0.6911  0.5823    2.0120  0.6236

:CHA  : TOTAL VALENCE CHARGE INSIDE UNIT CELL =      13.000000

:SUM  : SUM OF EIGENVALUES =          -4.940048152


        1.ATOM      Pr                   14 CORE STATES
:1S 001: 1S               -3066.959200967 Ry
:2S 001: 2S                -492.718687657 Ry
:2PP001: 2P*               -465.817053930 Ry
:2P 001: 2P                -430.419917324 Ry
:3S 001: 3S                -105.811732468 Ry
:3PP001: 3P*                -94.349442291 Ry
:3P 001: 3P                 -87.341676268 Ry
:3DD001: 3D*                -67.268632626 Ry
:3D 001: 3D                 -65.757101141 Ry
:4S 001: 4S                 -20.484665978 Ry
:4PP001: 4P*                -16.191024248 Ry
:4P 001: 4P                 -14.662995012 Ry
:4DD001: 4D*                 -7.594872013 Ry
:4D 001: 4D                  -7.325260196 Ry
:CINT001 Core Integral Atom   1   45.999521

       DENSITY AT NUCLEUS
        JATOM        VALENCE       SEMI-CORE          CORE           TOTAL
:RTO001:   1      653.523305        0.000000   656824.461739   657477.985044
     
       CHARGES OF NEW CHARGE DENSITY
:NTO   : INTERSTITIAL CHARGE =     2.909171
:NPC   : PW Pseudocharge     =     7.711455
:NTO001: CHARGE SPHERE  1    =    56.090350

:NEC01: NUCLEAR AND ELECTRONIC CHARGE     59.00000    58.99952
     
       CHARGES OF OLD CHARGE DENSITY
:OTO   : INTERSTITIAL CHARGE =     2.873239
:OPC   : PW Pseudocharge     =     7.625679
:OTO001: CHARGE SPHERE  1    =    56.126761

:NEC02: NUCLEAR AND ELECTRONIC CHARGE     59.00000    59.00000
     
       CONVERGENCE TEST
:DTO001: DIFFERENCE IN SPHERE  1 =  0.0722993

:DIS  :  CHARGE DISTANCE       ( 0.0722993 for atom    1 spin 1)      0.0722993
 PW Mixed is           53
 
******************************************************
* MULTISECANT MIXING VER9 RELEASE 10.4.0              *
* Standard Mode with controls                        *
* Fixed density scale                                *
* Regularization       1.000E-04                     *
* Trust Upper Limit    5.000E+00                     *
* Max Number of Memory Steps    8                    *
******************************************************
 
:PWTMP   1.5660E+02  1.2500E+02  2.2205E+02
:PLANE:  PW TOTAL      3.1295 DISTAN   4.76E-02  1.52E+00 %
:CHARG:  CLM/ATOM    977.2230 DISTAN   3.01E-01  3.08E-02 %
 
Step History
        DMIX         DMIXT        Red     Pred      Trust     Lambda    MagRel    MagAbs     Beta
  1   3.5000E-02   3.5000E-02 -1.00E+00  1.00E+00 -1.00E+01  1.00E+00  3.50E-02  3.50E-02  1.00E+00
  2   2.5000E-02   2.5000E-02  7.21E-01  1.00E+00 -1.00E+01  1.00E+00  2.50E-02  2.41E-02  1.00E+00
  3   3.2874E-02   3.2874E-02  8.78E-01  1.00E+00 -1.00E+01  6.48E-02  3.29E-02  2.29E-02  1.00E+00
  4   2.6196E-02   2.6196E-02  9.48E-01  7.40E-01  2.20E-01  1.46E+00  1.45E-01  8.83E-02  8.00E-01
  5   6.5491E-02   5.8736E-02  6.72E-01  7.29E-01  2.77E-01  5.23E-01  2.77E-01  1.60E-01  1.00E+00
  6   8.4873E-02   8.4873E-02 -1.00E+00  7.98E-01  3.74E-01  1.00E+00  2.38E-01  9.27E-02  1.00E+00
:JACOBIANS    9.483E-01   5.896E-01
  
:NORMS:  1/Froebius, Min, Max, Used   0.6307E+00  0.4231E+00  0.1000E+01  0.6767E+00
:INFO :  Number of Memory Steps    5 Skipping    0
:INFO :  SLambda=    1.0000000000  Max    1.0000000000
:PREDicted Charge, CTotal, PW Trust    3.060E-03   3.060E-03   3.042E-02
:PREDicted DMix, Beta, BLim   9.2467E-01  3.3881E+00  9.9184E-01

Eigenvalues, unscaled except for SY+YY
   #     SY Real        SY Imag          SS             YY         SY+YY Real      SY+YY Imag
   1   1.492092E+00   0.000000E+00   1.522893E+00   3.326074E+00   4.102704E+00   0.000000E+00
   2   4.605086E-01   0.000000E+00   4.500104E-01   1.288549E+00   2.261736E+00   0.000000E+00
   3   1.763265E-01   0.000000E+00   1.578022E-02   3.853460E-01   7.644553E-01   0.000000E+00
   4  -1.978034E-14   0.000000E+00   2.722909E-08   2.698280E-05   2.828692E-05   0.000000E+00
   5   2.060257E-07   0.000000E+00  -1.985073E-17   4.244813E-06   4.356796E-06   0.000000E+00
 
:INFO :  Singular value  4.109E+00 Weight  1.000E+00 Projection -1.310E-01
:INFO :  Singular value  2.259E+00 Weight  1.000E+00 Projection -8.894E-02
:INFO :  Singular value  7.644E-01 Weight  1.000E+00 Projection  3.448E-01
:INFO :  Singular value  2.829E-05 Weight  7.183E-03 Projection -7.406E-02
:INFO :  Singular value  4.356E-06 Weight  1.715E-04 Projection -1.090E-03
:RANK :  ACTIVE   3.01/5  =  60.15 % ; YY RANK   3.01/5  =  60.13 %
 
:BLIM :  VZERO Control Off
:TRUST:  Step 6.52E-01  Charge 6.00E-02 (e) CTO  2.00E-01 (e) PW  2.80E-01 (e)
:DTRUS:  Lambda    1.509E-01 Increment    7.276E-12 Iterations    97 DMIX    1.879E-01
:INFOA:  Angle SubSpace to MSR1      0.94
:DIRM :  MEMORY  5/8  SCALE   1.000 RED  0.78 PRED  0.80 NEXT  0.38 
:INFO :  Limited by Atoms F by Step T

:TRAVE:  Charge 3.77E-03 (e) CTO  3.77E-03 (e) PW  4.43E-02 (e)
:DIRP :  |MSR1|= 3.077E-02 |PRATT|= 4.760E-02 ANGLE=  10.0 DEGREES
:DIRQ :  |MSR1|= 1.962E-01 |PRATT|= 3.011E-01 ANGLE=  13.7 DEGREES
:DIRT :  |MSR1|= 1.986E-01 |PRATT|= 3.048E-01 ANGLE=  13.6 DEGREES
:MIX  :   MSR1   REGULARIZATION:  3.33E-04 GREED: 0.21218  LMStep 0.66  0.6515 Step           
     
       CHARGES OF MIXED CHARGE DENSITY
:CTO   : INTERSTITIAL CHARGE =     2.875507
:CPC   : PW Pseudocharge     =     7.676561
:CTO001: CHARGE SPHERE  1    =    56.124493

:NEC03: NUCLEAR AND ELECTRONIC CHARGE     59.00000    59.00000

PW CHANGE     H    K    L      Current       Change    Residue
:PTO001:      0    0    0  4.75221807E-02  2.394E-04  5.560E-04
:PTO002:     -1   -1   -1 -1.40045587E-01 -1.279E-03 -1.846E-03
:PTO003:      0    0   -2  8.14522639E-02  4.820E-04  7.228E-04
:PTO004:      0   -2   -2  6.49364038E-02  1.504E-03  2.206E-03
:PTO005:     -1   -1   -3 -5.60244944E-02 -1.759E-04 -3.867E-04
:PTO006:     -2   -2   -2  1.37128828E-02 -4.585E-05 -6.113E-05
:PTO007:      0    0   -4  1.21321113E-03 -3.546E-04 -4.807E-04
:PTO008:     -1   -3   -3  2.38214914E-03  9.747E-05  2.947E-05
:PTO009:      0   -2   -4 -4.69488330E-03 -3.203E-04 -3.490E-04
:PTO010:     -2   -2   -4 -8.10790434E-03 -5.888E-04 -7.866E-04
:PTO011:     -3   -3   -3  2.80598039E-03  2.853E-04  4.009E-04
:PTO012:     -1   -1   -5  8.31487453E-03  7.818E-04  1.087E-03

:ENE  : ********** TOTAL ENERGY IN Ry =       -18472.09885225

 Flat Integration
 New Mode for Coulomb Integral
 Consistent 3/8+Simpson combinations
 Extension of core to zero
 LDM version in phi
 Fifth-order quadrature in outwin


            ---------
:ITE007:  7. ITERATION
            ---------

:NATO :    1 INDEPENDENT AND    1 TOTAL ATOMS IN UNITCELL
       SUBSTANCE: blebleble                                                   

       LATTICE                      = F   
:POT  : POTENTIAL OPTION EX_LDA EC_LDA VX_LDA VC_LDA
:LAT  : LATTICE CONSTANTS=  9.61244  9.61244  9.61244    1.571    1.571    1.571
:VOL  : UNIT CELL VOLUME =     222.04511
       MODE OF CALCULATION IS       = RELA
       NON-SPINPOLARIZED CALCULATION
:IFFT  : FFT-parameters:   80   80   80 Factor: 2.00


   CONVERGENCE PARAMETER FOR PSEUDOCHARGE: NCON=  9
   MAXIMAL VALUE OF RMT(JATOM)*ABSK(NKK) : RK  =29.95407


:VKCOUL :  VK-COUL convergence: 0.855E-07
       ATOMNUMBER=  1 Pr         VCOUL-ZERO =  0.31180E+00
:FIT001: LUSE= 13 SIGMA OF V-XC FIT FOR ATOM  1  0.3484421E-04
:FIT001: LUSE= 13 SIGMA OF V-XC FIT FOR ATOM  1  0.3484421E-04
:DEN  : DENSITY INTEGRAL  =         -7074.70193993   (Ry)
       ELS_POTENTIAL_AT Z=0 and Z=0.5:  -2.56435  -2.56435
       ELS_POTENTIAL_AT Y=0 and Y=0.5:   0.00000   0.00000
:VZERO:v0,v0c,v0x  -3.55813  -2.56435  -0.99377 v5,v5c,v5x  -3.55813  -2.56435  -0.99377
:VZERY:v0,v0c,v0x  -0.73662   0.00000  -0.73662 v5,v5c,v5x  -0.73662   0.00000  -0.73662
:VZERX:v0,v0c,v0x  -0.73662   0.00000  -0.73662 v5,v5c,v5x  -0.73662   0.00000  -0.73662
:LMAX-WF:   10   Non-Spherical LMAX:   4

          ATOMIC SPHERE DEPENDENT PARAMETERS FOR ATOM  Pr        
:e__0001: OVERALL ENERGY PARAMETER IS    0.4427
          OVERALL BASIS SET ON ATOM IS LAPW
:E0_0001: E( 0)=    0.4427
             APW+lo
:E0_0001: E( 0)=   -2.0311   E(BOTTOM)=   -2.411   E(TOP)=   -1.651  4  5   178
             LOCAL ORBITAL
:E1_0001: E( 1)=    0.8427
             APW+lo
:E1_0001: E( 1)=   -0.6422   E(BOTTOM)=   -1.288   E(TOP)=    0.004  3  4   175
             LOCAL ORBITAL
:E3_0001: E( 3)=    0.6316   E(BOTTOM)=    0.492   E(TOP)=    0.772  0  1   119
             APW+lo
:E2_0001: E( 2)=    0.4427   E(BOTTOM)=    0.288   E(TOP)= -200.000  2 -1    88
             APW+lo

       K=   0.00000   0.00000   0.00000            1
:RKM  : MATRIX SIZE   189LOs:  20  RKM= 8.49  WEIGHT= 1.00  PGR:    
       EIGENVALUES ARE:
:EIG00001:      -1.9969321   -0.6145809   -0.6145809   -0.6145809    0.3894546
:EIG00006:       0.6227406    0.6436834    0.6436834    0.6436834    0.6724338
:EIG00011:       0.6724338    0.6724338    0.7741586    0.7741586    0.7741586
:EIG00016:       0.9642644    0.9642644    1.3747831    1.6189271    1.6189271
:EIG00021:       1.6189271    1.7219965
       ********************************************************

:KPT   :      NUMBER OF K-POINTS:   165
:GAP (global)   :    0.0    Ry =     0.0   eV (metal)
         Bandranges (emin - emax) and occupancy:
:BAN00001:   1   -1.996932   -1.977759  2.00000000
:BAN00002:   2   -0.720593   -0.614581  2.00000000
:BAN00003:   3   -0.683649   -0.614581  2.00000000
:BAN00004:   4   -0.654080   -0.614581  2.00000000
:BAN00005:   5    0.389455    0.607630  2.00000000
:BAN00006:   6    0.549134    0.638347  2.00000000
:BAN00007:   7    0.620541    0.650929  1.00004905
:BAN00008:   8    0.639638    0.652814 -0.00004905
:BAN00009:   9    0.643683    0.658638  0.00000000
:BAN00010:  10    0.652142    0.672434  0.00000000
:BAN00011:  11    0.655566    0.672434  0.00000000
:BAN00012:  12    0.658107    0.682699  0.00000000
:BAN00013:  13    0.666445    0.780077  0.00000000
        Energy to separate low and high energystates:    0.33945


:NOE  : NUMBER OF ELECTRONS          =   13.000

:FER  : F E R M I - ENERGY(TETRAH.M.)=   0.6391851516
:GMA  : POTENTIAL AND CHARGE CUT-OFF  12.00 Ry**.5

:POS001: ATOM    1 X,Y,Z = 0.00000 0.00000 0.50000  MULT= 1  ZZ= 59.000  Pr        

       LMMAX  5
       LM=   0 0  4 0  4 4  6 0  6 4

:CHA001: TOTAL VALENCE CHARGE INSIDE SPHERE   1 =  10.1217    (RMT=  2.5000 )
:PCS001: PARTIAL CHARGES SPHERE =  1 S,P,D,F,      D-EG,D-T2G 
:QTL001: 2.0346 5.3495 0.6813 2.0558 0.0000 0.0000 0.0000 0.2436 0.4377 0.0000 0.0000 0.0000
        Q-s-low E-s-low   Q-p-low E-p-low   Q-d-low E-d-low   Q-f-low E-f-low
:EPL001:  1.9256 -1.9815    5.2781 -0.6591    0.0021 -0.6788    0.0006 -0.6803
        Q-s-hi  E-s-hi    Q-p-hi  E-p-hi    Q-d-hi  E-d-hi    Q-f-hi  E-f-hi 
:EPH001:  0.1090  0.5385    0.0714  0.5753    0.6792  0.5814    2.0552  0.6218

:CHA  : TOTAL VALENCE CHARGE INSIDE UNIT CELL =      13.000000

:SUM  : SUM OF EIGENVALUES =          -4.960577464


        1.ATOM      Pr                   14 CORE STATES
:1S 001: 1S               -3066.967427117 Ry
:2S 001: 2S                -492.722157021 Ry
:2PP001: 2P*               -465.821038419 Ry
:2P 001: 2P                -430.423659981 Ry
:3S 001: 3S                -105.813487279 Ry
:3PP001: 3P*                -94.351287607 Ry
:3P 001: 3P                 -87.343449610 Ry
:3DD001: 3D*                -67.270421877 Ry
:3D 001: 3D                 -65.758867586 Ry
:4S 001: 4S                 -20.487009295 Ry
:4PP001: 4P*                -16.193470661 Ry
:4P 001: 4P                 -14.665591507 Ry
:4DD001: 4D*                 -7.597620624 Ry
:4D 001: 4D                  -7.328048483 Ry
:CINT001 Core Integral Atom   1   45.999522

       DENSITY AT NUCLEUS
        JATOM        VALENCE       SEMI-CORE          CORE           TOTAL
:RTO001:   1      653.600627        0.000000   656825.106573   657478.707200
     
       CHARGES OF NEW CHARGE DENSITY
:NTO   : INTERSTITIAL CHARGE =     2.878309
:NPC   : PW Pseudocharge     =     7.701569
:NTO001: CHARGE SPHERE  1    =    56.121212

:NEC01: NUCLEAR AND ELECTRONIC CHARGE     59.00000    58.99952
     
       CHARGES OF OLD CHARGE DENSITY
:OTO   : INTERSTITIAL CHARGE =     2.875507
:OPC   : PW Pseudocharge     =     7.676561
:OTO001: CHARGE SPHERE  1    =    56.124493

:NEC02: NUCLEAR AND ELECTRONIC CHARGE     59.00000    59.00000
     
       CONVERGENCE TEST
:DTO001: DIFFERENCE IN SPHERE  1 =  0.0139708

:DIS  :  CHARGE DISTANCE       ( 0.0139708 for atom    1 spin 1)      0.0139708
 PW Mixed is           53
 
******************************************************
* MULTISECANT MIXING VER9 RELEASE 10.4.0              *
* Standard Mode with controls                        *
* Fixed density scale                                *
* Regularization       1.000E-04                     *
* Trust Upper Limit    5.000E+00                     *
* Max Number of Memory Steps    8                    *
******************************************************
 
:PWTMP   1.5660E+02  1.2500E+02  2.2205E+02
:PLANE:  PW TOTAL      3.1542 DISTAN   1.51E-02  4.80E-01 %
:CHARG:  CLM/ATOM    977.1979 DISTAN   1.03E-01  1.06E-02 %
 
Step History
        DMIX         DMIXT        Red     Pred      Trust     Lambda    MagRel    MagAbs     Beta
  1   3.5000E-02   3.5000E-02 -1.00E+00  1.00E+00 -1.00E+01  1.00E+00  3.50E-02  3.50E-02  1.00E+00
  2   2.5000E-02   2.5000E-02  7.21E-01  1.00E+00 -1.00E+01  1.00E+00  2.50E-02  2.41E-02  1.00E+00
  3   3.2874E-02   3.2874E-02  8.78E-01  1.00E+00 -1.00E+01  6.48E-02  3.29E-02  2.29E-02  1.00E+00
  4   2.6196E-02   2.6196E-02  9.48E-01  7.40E-01  2.20E-01  1.46E+00  1.45E-01  8.83E-02  8.00E-01
  5   6.5491E-02   5.8736E-02  6.72E-01  7.29E-01  2.77E-01  5.23E-01  2.77E-01  1.60E-01  1.00E+00
  6   8.4873E-02   8.4873E-02  7.84E-01  7.98E-01  3.74E-01  1.00E+00  2.38E-01  9.27E-02  1.00E+00
  7   2.1218E-01   1.8786E-01 -1.00E+00  3.78E-01  6.52E-01  1.00E+00  6.52E-01  1.99E-01  1.00E+00
:JACOBIANS    9.827E-01   9.450E-01
  
:NORMS:  1/Froebius, Min, Max, Used   0.8100E+00  0.4585E+00  0.1001E+01  0.8657E+00
:INFO :  Number of Memory Steps    6 Skipping    0
:INFO :  SLambda=    1.0506187900  Max    1.0506187900
:PREDicted Charge, CTotal, PW Trust    8.942E-04   8.942E-04   4.213E-02
:PREDicted DMix, Beta, BLim   2.8159E-01  1.4019E+00  1.0447E+00

Eigenvalues, unscaled except for SY+YY
   #     SY Real        SY Imag          SS             YY         SY+YY Real      SY+YY Imag
   1   3.462171E+00   0.000000E+00   3.491619E+00   4.659030E+00   8.167160E+00   0.000000E+00
   2   4.423190E-01   0.000000E+00   4.364299E-01   9.273940E-01   1.220079E+00   0.000000E+00
   3   8.333574E-02   0.000000E+00   8.274757E-03   4.131657E-01   8.020413E-01   0.000000E+00
   4   2.591503E-04   0.000000E+00   1.576796E-04   4.003042E-04   6.667011E-04   0.000000E+00
   5  -6.447174E-15   0.000000E+00   1.137840E-08   9.660817E-06   8.901171E-06   0.000000E+00
   6   1.233725E-07   0.000000E+00  -2.292649E-17   6.853177E-07   8.091482E-07   0.000000E+00
 
:INFO :  Singular value  8.170E+00 Weight  1.000E+00 Projection  4.469E-02
:INFO :  Singular value  1.220E+00 Weight  1.000E+00 Projection  2.507E-02
:INFO :  Singular value  8.019E-01 Weight  1.000E+00 Projection -5.112E-02
:INFO :  Singular value  6.687E-04 Weight  6.732E-01 Projection -1.216E+00
:INFO :  Singular value  8.908E-06 Weight  3.654E-04 Projection -2.799E-03
:INFO :  Singular value  8.061E-07 Weight  2.994E-06 Projection  1.358E-05
:RANK :  ACTIVE   3.67/6  =  61.23 % ; YY RANK   3.43/6  =  57.09 %
 
:BLIM :  VZERO Control Off
:TRUST:  Step 8.69E-01  Charge 6.00E-02 (e) CTO  2.00E-01 (e) PW  2.80E-01 (e)
:DIRM :  MEMORY  6/8  SCALE   1.000 RED  0.34 PRED  0.38 NEXT  0.24 
:TRAVE:  Charge 3.01E-03 (e) CTO  3.01E-03 (e) PW  2.86E-02 (e)
:DIRP :  |MSR1|= 1.513E-02 |PRATT|= 1.514E-02 ANGLE=   5.5 DEGREES
:DIRQ :  |MSR1|= 8.593E-02 |PRATT|= 1.033E-01 ANGLE=  10.4 DEGREES
:DIRT :  |MSR1|= 8.726E-02 |PRATT|= 1.044E-01 ANGLE=  10.4 DEGREES
:MIX  :   MSE1   REGULARIZATION:  4.66E-04 GREED: 0.21035  Newton 1.00  0.8361                
     
       CHARGES OF MIXED CHARGE DENSITY
:CTO   : INTERSTITIAL CHARGE =     2.873250
:CPC   : PW Pseudocharge     =     7.701853
:CTO001: CHARGE SPHERE  1    =    56.126750

:NEC03: NUCLEAR AND ELECTRONIC CHARGE     59.00000    59.00000

PW CHANGE     H    K    L      Current       Change    Residue
:PTO001:      0    0    0  4.76259247E-02  1.037E-04  1.332E-04
:PTO002:     -1   -1   -1 -1.40685594E-01 -6.400E-04 -5.961E-04
:PTO003:      0    0   -2  8.18124485E-02  3.602E-04  3.600E-04
:PTO004:      0   -2   -2  6.56696653E-02  7.333E-04  7.349E-04
:PTO005:     -1   -1   -3 -5.63448239E-02 -3.203E-04 -3.149E-04
:PTO006:     -2   -2   -2  1.37294296E-02  1.655E-05 -1.118E-05
:PTO007:      0    0   -4  1.12215518E-03 -9.106E-05 -9.274E-05
:PTO008:     -1   -3   -3  2.33621707E-03 -4.593E-05 -6.596E-05
:PTO009:      0   -2   -4 -4.71589618E-03 -2.101E-05  6.816E-06
:PTO010:     -2   -2   -4 -8.30049788E-03 -1.926E-04 -1.893E-04
:PTO011:     -3   -3   -3  2.91785510E-03  1.119E-04  1.177E-04
:PTO012:     -1   -1   -5  8.58135454E-03  2.665E-04  2.661E-04

:ENE  : ********** TOTAL ENERGY IN Ry =       -18472.09874300

 Flat Integration
 New Mode for Coulomb Integral
 Consistent 3/8+Simpson combinations
 Extension of core to zero
 LDM version in phi
 Fifth-order quadrature in outwin


            ---------
:ITE008:  8. ITERATION
            ---------

:NATO :    1 INDEPENDENT AND    1 TOTAL ATOMS IN UNITCELL
       SUBSTANCE: blebleble                                                   

       LATTICE                      = F   
:POT  : POTENTIAL OPTION EX_LDA EC_LDA VX_LDA VC_LDA
:LAT  : LATTICE CONSTANTS=  9.61244  9.61244  9.61244    1.571    1.571    1.571
:VOL  : UNIT CELL VOLUME =     222.04511
       MODE OF CALCULATION IS       = RELA
       NON-SPINPOLARIZED CALCULATION
:IFFT  : FFT-parameters:   80   80   80 Factor: 2.00


   CONVERGENCE PARAMETER FOR PSEUDOCHARGE: NCON=  9
   MAXIMAL VALUE OF RMT(JATOM)*ABSK(NKK) : RK  =29.95407


:VKCOUL :  VK-COUL convergence: 0.989E-07
       ATOMNUMBER=  1 Pr         VCOUL-ZERO =  0.31195E+00
:FIT001: LUSE= 13 SIGMA OF V-XC FIT FOR ATOM  1  0.4768072E-04
:FIT001: LUSE= 13 SIGMA OF V-XC FIT FOR ATOM  1  0.4768072E-04
:DEN  : DENSITY INTEGRAL  =         -7074.74013842   (Ry)
       ELS_POTENTIAL_AT Z=0 and Z=0.5:  -2.56770  -2.56770
       ELS_POTENTIAL_AT Y=0 and Y=0.5:   0.00000   0.00000
:VZERO:v0,v0c,v0x  -3.56106  -2.56770  -0.99336 v5,v5c,v5x  -3.56106  -2.56770  -0.99336
:VZERY:v0,v0c,v0x  -0.73673   0.00000  -0.73673 v5,v5c,v5x  -0.73673   0.00000  -0.73673
:VZERX:v0,v0c,v0x  -0.73673   0.00000  -0.73673 v5,v5c,v5x  -0.73673   0.00000  -0.73673
:LMAX-WF:   10   Non-Spherical LMAX:   4

          ATOMIC SPHERE DEPENDENT PARAMETERS FOR ATOM  Pr        
:e__0001: OVERALL ENERGY PARAMETER IS    0.4404
          OVERALL BASIS SET ON ATOM IS LAPW
:E0_0001: E( 0)=    0.4404
             APW+lo
:E0_0001: E( 0)=   -2.0305   E(BOTTOM)=   -2.411   E(TOP)=   -1.650  4  5   182
             LOCAL ORBITAL
:E1_0001: E( 1)=    0.8404
             APW+lo
:E1_0001: E( 1)=   -0.6416   E(BOTTOM)=   -1.288   E(TOP)=    0.004  3  4   176
             LOCAL ORBITAL
:E3_0001: E( 3)=    0.6326   E(BOTTOM)=    0.492   E(TOP)=    0.773  0  1   118
             APW+lo
:E2_0001: E( 2)=    0.4404   E(BOTTOM)=    0.288   E(TOP)= -200.000  2 -1    84
             APW+lo

       K=   0.00000   0.00000   0.00000            1
:RKM  : MATRIX SIZE   189LOs:  20  RKM= 8.49  WEIGHT= 1.00  PGR:    
       EIGENVALUES ARE:
:EIG00001:      -1.9962563   -0.6139873   -0.6139873   -0.6139873    0.3897747
:EIG00006:       0.6235396    0.6447503    0.6447503    0.6447503    0.6733702
:EIG00011:       0.6733702    0.6733702    0.7746669    0.7746669    0.7746669
:EIG00016:       0.9647544    0.9647544    1.3750412    1.6192289    1.6192289
:EIG00021:       1.6192289    1.7217776
       ********************************************************

:KPT   :      NUMBER OF K-POINTS:   165
:GAP (global)   :    0.0    Ry =     0.0   eV (metal)
         Bandranges (emin - emax) and occupancy:
:BAN00001:   1   -1.996256   -1.977076  2.00000000
:BAN00002:   2   -0.720031   -0.613987  2.00000000
:BAN00003:   3   -0.683074   -0.613987  2.00000000
:BAN00004:   4   -0.653496   -0.613987  2.00000000
:BAN00005:   5    0.389775    0.608209  2.00000000
:BAN00006:   6    0.549539    0.639242  2.00000000
:BAN00007:   7    0.621358    0.651947  1.00005656
:BAN00008:   8    0.640526    0.653796 -0.00005656
:BAN00009:   9    0.644750    0.659478  0.00000000
:BAN00010:  10    0.653065    0.673370  0.00000000
:BAN00011:  11    0.656468    0.673370  0.00000000
:BAN00012:  12    0.659150    0.683414  0.00000000
:BAN00013:  13    0.667323    0.780559  0.00000000
        Energy to separate low and high energystates:    0.33977


:NOE  : NUMBER OF ELECTRONS          =   13.000

:FER  : F E R M I - ENERGY(TETRAH.M.)=   0.6400878230
:GMA  : POTENTIAL AND CHARGE CUT-OFF  12.00 Ry**.5

:POS001: ATOM    1 X,Y,Z = 0.00000 0.00000 0.50000  MULT= 1  ZZ= 59.000  Pr        

       LMMAX  5
       LM=   0 0  4 0  4 4  6 0  6 4

:CHA001: TOTAL VALENCE CHARGE INSIDE SPHERE   1 =  10.1153    (RMT=  2.5000 )
:PCS001: PARTIAL CHARGES SPHERE =  1 S,P,D,F,      D-EG,D-T2G 
:QTL001: 2.0346 5.3498 0.6840 2.0465 0.0000 0.0000 0.0000 0.2446 0.4393 0.0000 0.0000 0.0000
        Q-s-low E-s-low   Q-p-low E-p-low   Q-d-low E-d-low   Q-f-low E-f-low
:EPL001:  1.9256 -1.9808    5.2779 -0.6585    0.0021 -0.6782    0.0006 -0.6797
        Q-s-hi  E-s-hi    Q-p-hi  E-p-hi    Q-d-hi  E-d-hi    Q-f-hi  E-f-hi 
:EPH001:  0.1091  0.5390    0.0718  0.5760    0.6819  0.5820    2.0458  0.6226

:CHA  : TOTAL VALENCE CHARGE INSIDE UNIT CELL =      13.000000

:SUM  : SUM OF EIGENVALUES =          -4.952657505


        1.ATOM      Pr                   14 CORE STATES
:1S 001: 1S               -3066.968740661 Ry
:2S 001: 2S                -492.722114353 Ry
:2PP001: 2P*               -465.821135916 Ry
:2P 001: 2P                -430.423689532 Ry
:3S 001: 3S                -105.812802045 Ry
:3PP001: 3P*                -94.350640994 Ry
:3P 001: 3P                 -87.342761241 Ry
:3DD001: 3D*                -67.269783922 Ry
:3D 001: 3D                 -65.758217694 Ry
:4S 001: 4S                 -20.485787603 Ry
:4PP001: 4P*                -16.192264019 Ry
:4P 001: 4P                 -14.664396057 Ry
:4DD001: 4D*                 -7.596455852 Ry
:4D 001: 4D                  -7.326888750 Ry
:CINT001 Core Integral Atom   1   45.999521

       DENSITY AT NUCLEUS
        JATOM        VALENCE       SEMI-CORE          CORE           TOTAL
:RTO001:   1      653.580943        0.000000   656825.403046   657478.983989
     
       CHARGES OF NEW CHARGE DENSITY
:NTO   : INTERSTITIAL CHARGE =     2.884697
:NPC   : PW Pseudocharge     =     7.704255
:NTO001: CHARGE SPHERE  1    =    56.114824

:NEC01: NUCLEAR AND ELECTRONIC CHARGE     59.00000    58.99952
     
       CHARGES OF OLD CHARGE DENSITY
:OTO   : INTERSTITIAL CHARGE =     2.873250
:OPC   : PW Pseudocharge     =     7.701853
:OTO001: CHARGE SPHERE  1    =    56.126750

:NEC02: NUCLEAR AND ELECTRONIC CHARGE     59.00000    59.00000
     
       CONVERGENCE TEST
:DTO001: DIFFERENCE IN SPHERE  1 =  0.0233890

:DIS  :  CHARGE DISTANCE       ( 0.0233890 for atom    1 spin 1)      0.0233890
 PW Mixed is           53
 
******************************************************
* MULTISECANT MIXING VER9 RELEASE 10.4.0              *
* Standard Mode with controls                        *
* Fixed density scale                                *
* Regularization       1.000E-04                     *
* Trust Upper Limit    5.000E+00                     *
* Max Number of Memory Steps    8                    *
******************************************************
 
:PWTMP   1.5660E+02  1.2500E+02  2.2205E+02
:PLANE:  PW TOTAL      3.1672 DISTAN   2.95E-03  9.31E-02 %
:CHARG:  CLM/ATOM    977.1903 DISTAN   2.99E-02  3.06E-03 %
 
Step History
        DMIX         DMIXT        Red     Pred      Trust     Lambda    MagRel    MagAbs     Beta
  1   3.5000E-02   3.5000E-02 -1.00E+00  1.00E+00 -1.00E+01  1.00E+00  3.50E-02  3.50E-02  1.00E+00
  2   2.5000E-02   2.5000E-02  7.21E-01  1.00E+00 -1.00E+01  1.00E+00  2.50E-02  2.41E-02  1.00E+00
  3   3.2874E-02   3.2874E-02  8.78E-01  1.00E+00 -1.00E+01  6.48E-02  3.29E-02  2.29E-02  1.00E+00
  4   2.6196E-02   2.6196E-02  9.48E-01  7.40E-01  2.20E-01  1.46E+00  1.45E-01  8.83E-02  8.00E-01
  5   6.5491E-02   5.8736E-02  6.72E-01  7.29E-01  2.77E-01  5.23E-01  2.77E-01  1.60E-01  1.00E+00
  6   8.4873E-02   8.4873E-02  7.84E-01  7.98E-01  3.74E-01  1.00E+00  2.38E-01  9.27E-02  1.00E+00
  7   2.1218E-01   1.8786E-01  3.42E-01  3.78E-01  6.52E-01  1.05E+00  6.52E-01  1.99E-01  1.00E+00
  8   2.1035E-01   2.1035E-01 -1.00E+00  2.44E-01  8.69E-01  1.00E+00  8.36E-01  8.73E-02  1.00E+00
:JACOBIANS    1.001E+00   1.378E+00
  
:NORMS:  1/Froebius, Min, Max, Used   0.8656E+00  0.4430E+00  0.1007E+01  0.9375E+00
:INFO :  Number of Memory Steps    7 Skipping    0
:INFO :  SLambda=    1.3627112954  Max    1.3627112954
:PREDicted Charge, CTotal, PW Trust    2.666E-03   2.666E-03   1.217E-02
:PREDicted DMix, Beta, BLim   4.1016E-01  1.1474E+00  9.6552E-01

Eigenvalues, unscaled except for SY+YY
   #     SY Real        SY Imag          SS             YY         SY+YY Real      SY+YY Imag
   1   4.802641E+00   0.000000E+00   4.801511E+00   5.463064E+00   1.193603E+01   0.000000E+00
   2   4.063264E-01   0.000000E+00   4.043321E-01   1.106443E+00   1.311300E+00   0.000000E+00
   3   8.994875E-02   0.000000E+00   3.592938E-02   4.060812E-01   9.507778E-01   0.000000E+00
   4   2.020964E-02   0.000000E+00   3.202646E-03   2.436497E-02   5.028308E-02   0.000000E+00
   5   1.292936E-05   0.000000E+00   3.966532E-06   4.526659E-05   6.178326E-05   0.000000E+00
   6   1.926101E-16   0.000000E+00   2.128292E-09   1.817157E-06   1.657166E-06   0.000000E+00
   7   1.909677E-08   0.000000E+00   1.101846E-16   1.388176E-08   1.669181E-08   0.000000E+00
 
:INFO :  Singular value  1.194E+01 Weight  1.000E+00 Projection  6.376E-03
:INFO :  Singular value  1.313E+00 Weight  1.000E+00 Projection  1.329E-02
:INFO :  Singular value  9.497E-01 Weight  1.000E+00 Projection  4.668E-04
:INFO :  Singular value  5.027E-02 Weight  9.999E-01 Projection  9.833E-02
:INFO :  Singular value  6.199E-05 Weight  1.271E-02 Projection  1.459E-02
:INFO :  Singular value  1.673E-06 Weight  9.375E-06 Projection  4.141E-05
:INFO :  Singular value  1.648E-08 Weight  9.102E-10 Projection  1.216E-08
:RANK :  ACTIVE   4.01/7  =  57.32 % ; YY RANK   4.01/7  =  57.23 %
 
:BLIM :  VZERO Control Off
:TRUST:  Step 1.16E+00  Charge 4.80E-02 (e) CTO  1.60E-01 (e) PW  2.24E-01 (e)
:DIRM :  MEMORY  7/8  SCALE   1.000 RED  0.29 PRED  0.24 NEXT  0.33 
:TRAVE:  Charge 1.71E-03 (e) CTO  1.71E-03 (e) PW  1.44E-02 (e)
:DIRP :  |MSR1|= 8.191E-04 |PRATT|= 2.950E-03 ANGLE=  74.7 DEGREES
:DIRQ :  |MSR1|= 1.608E-02 |PRATT|= 2.993E-02 ANGLE=  41.7 DEGREES
:DIRT :  |MSR1|= 1.610E-02 |PRATT|= 3.008E-02 ANGLE=  41.9 DEGREES
:MIX  :   MSE1   REGULARIZATION:  5.46E-04 GREED: 0.29244  Newton 1.00  0.5354                
     
       CHARGES OF MIXED CHARGE DENSITY
:CTO   : INTERSTITIAL CHARGE =     2.873659
:CPC   : PW Pseudocharge     =     7.701221
:CTO001: CHARGE SPHERE  1    =    56.126341

:NEC03: NUCLEAR AND ELECTRONIC CHARGE     59.00000    59.00000

PW CHANGE     H    K    L      Current       Change    Residue
:PTO001:      0    0    0  4.76249194E-02 -1.005E-06  7.029E-05
:PTO002:     -1   -1   -1 -1.40648218E-01  3.738E-05  4.852E-05
:PTO003:      0    0   -2  8.18185288E-02  6.080E-06  3.451E-06
:PTO004:      0   -2   -2  6.56823019E-02  1.264E-05  1.898E-05
:PTO005:     -1   -1   -3 -5.63191093E-02  2.571E-05  1.416E-05
:PTO006:     -2   -2   -2  1.36973084E-02 -3.212E-05 -3.241E-05
:PTO007:      0    0   -4  1.11367098E-03 -8.484E-06 -6.923E-06
[...]


            ---------
:ITE012: 12. ITERATION
            ---------

:NATO :    1 INDEPENDENT AND    1 TOTAL ATOMS IN UNITCELL
       SUBSTANCE: blebleble                                                   

       LATTICE                      = F   
:POT  : POTENTIAL OPTION EX_LDA EC_LDA VX_LDA VC_LDA
:LAT  : LATTICE CONSTANTS=  9.61244  9.61244  9.61244    1.571    1.571    1.571
:VOL  : UNIT CELL VOLUME =     222.04511
       MODE OF CALCULATION IS       = RELA
       NON-SPINPOLARIZED CALCULATION
:IFFT  : FFT-parameters:   80   80   80 Factor: 2.00


   CONVERGENCE PARAMETER FOR PSEUDOCHARGE: NCON=  9
   MAXIMAL VALUE OF RMT(JATOM)*ABSK(NKK) : RK  =29.95407


:VKCOUL :  VK-COUL convergence: 0.101E-06
       ATOMNUMBER=  1 Pr         VCOUL-ZERO =  0.31185E+00
:FIT001: LUSE= 13 SIGMA OF V-XC FIT FOR ATOM  1  0.4862626E-04
:FIT001: LUSE= 13 SIGMA OF V-XC FIT FOR ATOM  1  0.4862626E-04
:DEN  : DENSITY INTEGRAL  =         -7074.65079297   (Ry)
       ELS_POTENTIAL_AT Z=0 and Z=0.5:  -2.56747  -2.56747
       ELS_POTENTIAL_AT Y=0 and Y=0.5:   0.00000   0.00000
:VZERO:v0,v0c,v0x  -3.56105  -2.56747  -0.99358 v5,v5c,v5x  -3.56105  -2.56747  -0.99358
:VZERY:v0,v0c,v0x  -0.73677   0.00000  -0.73677 v5,v5c,v5x  -0.73677   0.00000  -0.73677
:VZERX:v0,v0c,v0x  -0.73677   0.00000  -0.73677 v5,v5c,v5x  -0.73677   0.00000  -0.73677
:LMAX-WF:   10   Non-Spherical LMAX:   4

          ATOMIC SPHERE DEPENDENT PARAMETERS FOR ATOM  Pr        
:e__0001: OVERALL ENERGY PARAMETER IS    0.4391
          OVERALL BASIS SET ON ATOM IS LAPW
:E0_0001: E( 0)=    0.4391
             APW+lo
:E0_0001: E( 0)=   -2.0310   E(BOTTOM)=   -2.411   E(TOP)=   -1.651  4  5   181
             LOCAL ORBITAL
:E1_0001: E( 1)=    0.8391
             APW+lo
:E1_0001: E( 1)=   -0.6421   E(BOTTOM)=   -1.288   E(TOP)=    0.004  3  4   175
             LOCAL ORBITAL
:E3_0001: E( 3)=    0.6314   E(BOTTOM)=    0.491   E(TOP)=    0.771  0  1   122
             APW+lo
:E2_0001: E( 2)=    0.4391   E(BOTTOM)=    0.288   E(TOP)= -200.000  2 -1    90
             APW+lo

       K=   0.00000   0.00000   0.00000            1
:RKM  : MATRIX SIZE   189LOs:  20  RKM= 8.49  WEIGHT= 1.00  PGR:    
       EIGENVALUES ARE:
:EIG00001:      -1.9967933   -0.6144144   -0.6144144   -0.6144144    0.3897319
:EIG00006:       0.6224066    0.6436163    0.6436163    0.6436163    0.6721102
:EIG00011:       0.6721102    0.6721102    0.7745196    0.7745196    0.7745196
:EIG00016:       0.9645872    0.9645872    1.3747608    1.6191597    1.6191597
:EIG00021:       1.6191597    1.7218834
       ********************************************************

:KPT   :      NUMBER OF K-POINTS:   165
:GAP (global)   :    0.0    Ry =     0.0   eV (metal)
         Bandranges (emin - emax) and occupancy:
:BAN00001:   1   -1.996793   -1.977627  2.00000000
:BAN00002:   2   -0.720391   -0.614414  2.00000000
:BAN00003:   3   -0.683457   -0.614414  2.00000000
:BAN00004:   4   -0.653897   -0.614414  2.00000000
:BAN00005:   5    0.389732    0.607721  2.00000000
:BAN00006:   6    0.549420    0.638128  2.00000000
:BAN00007:   7    0.620580    0.650876  1.00005054
:BAN00008:   8    0.639477    0.652645 -0.00005054
:BAN00009:   9    0.643616    0.658314  0.00000000
:BAN00010:  10    0.651860    0.672110  0.00000000
:BAN00011:  11    0.655295    0.672110  0.00000000
:BAN00012:  12    0.657963    0.682696  0.00000000
:BAN00013:  13    0.666050    0.780394  0.00000000
        Energy to separate low and high energystates:    0.33973


:NOE  : NUMBER OF ELECTRONS          =   13.000

:FER  : F E R M I - ENERGY(TETRAH.M.)=   0.6390354893
:GMA  : POTENTIAL AND CHARGE CUT-OFF  12.00 Ry**.5

:POS001: ATOM    1 X,Y,Z = 0.00000 0.00000 0.50000  MULT= 1  ZZ= 59.000  Pr        

       LMMAX  5
       LM=   0 0  4 0  4 4  6 0  6 4

:CHA001: TOTAL VALENCE CHARGE INSIDE SPHERE   1 =  10.1264    (RMT=  2.5000 )
:PCS001: PARTIAL CHARGES SPHERE =  1 S,P,D,F,      D-EG,D-T2G 
:QTL001: 2.0345 5.3494 0.6791 2.0630 0.0000 0.0000 0.0000 0.2430 0.4360 0.0000 0.0000 0.0000
        Q-s-low E-s-low   Q-p-low E-p-low   Q-d-low E-d-low   Q-f-low E-f-low
:EPL001:  1.9256 -1.9814    5.2783 -0.6589    0.0021 -0.6786    0.0006 -0.6802
        Q-s-hi  E-s-hi    Q-p-hi  E-p-hi    Q-d-hi  E-d-hi    Q-f-hi  E-f-hi 
:EPH001:  0.1089  0.5387    0.0711  0.5753    0.6770  0.5814    2.0624  0.6217

:CHA  : TOTAL VALENCE CHARGE INSIDE UNIT CELL =      13.000000

:SUM  : SUM OF EIGENVALUES =          -4.958822975


        1.ATOM      Pr                   14 CORE STATES
:1S 001: 1S               -3066.969780991 Ry
:2S 001: 2S                -492.723672495 Ry
:2PP001: 2P*               -465.822595008 Ry
:2P 001: 2P                -430.425186933 Ry
:3S 001: 3S                -105.814990435 Ry
:3PP001: 3P*                -94.352799931 Ry
:3P 001: 3P                 -87.344940150 Ry
:3DD001: 3D*                -67.271899447 Ry
:3D 001: 3D                 -65.760342361 Ry
:4S 001: 4S                 -20.487630404 Ry
:4PP001: 4P*                -16.194063351 Ry
:4P 001: 4P                 -14.666135573 Ry
:4DD001: 4D*                 -7.598087916 Ry
:4D 001: 4D                  -7.328500953 Ry
:CINT001 Core Integral Atom   1   45.999522

       DENSITY AT NUCLEUS
        JATOM        VALENCE       SEMI-CORE          CORE           TOTAL
:RTO001:   1      653.583806        0.000000   656825.378098   657478.961904
     
       CHARGES OF NEW CHARGE DENSITY
:NTO   : INTERSTITIAL CHARGE =     2.873598
:NPC   : PW Pseudocharge     =     7.699375
:NTO001: CHARGE SPHERE  1    =    56.125923

:NEC01: NUCLEAR AND ELECTRONIC CHARGE     59.00000    58.99952
     
       CHARGES OF OLD CHARGE DENSITY
:OTO   : INTERSTITIAL CHARGE =     2.874088
:OPC   : PW Pseudocharge     =     7.700663
:OTO001: CHARGE SPHERE  1    =    56.125912

:NEC02: NUCLEAR AND ELECTRONIC CHARGE     59.00000    59.00000
     
       CONVERGENCE TEST
:DTO001: DIFFERENCE IN SPHERE  1 =  0.0000453

:DIS  :  CHARGE DISTANCE       ( 0.0000453 for atom    1 spin 1)      0.0000453
 PW Mixed is           53
 
******************************************************
* MULTISECANT MIXING VER9 RELEASE 10.4.0              *
* Standard Mode with controls                        *
* Fixed density scale                                *
* Regularization       1.000E-04                     *
* Trust Upper Limit    5.000E+00                     *
* Max Number of Memory Steps    8                    *
******************************************************
 
:PWTMP   1.5660E+02  1.2500E+02  2.2205E+02
:PLANE:  PW TOTAL      3.1667 DISTAN   8.44E-06  2.66E-04 %
:CHARG:  CLM/ATOM    977.1922 DISTAN   4.78E-05  4.89E-06 %
 
Step History
        DMIX         DMIXT        Red     Pred      Trust     Lambda    MagRel    MagAbs     Beta
  4   2.6196E-02   2.6196E-02  9.48E-01  7.40E-01  2.20E-01  1.46E+00  1.45E-01  8.83E-02  8.00E-01
  5   6.5491E-02   5.8736E-02  6.72E-01  7.29E-01  2.77E-01  5.23E-01  2.77E-01  1.60E-01  1.00E+00
  6   8.4873E-02   8.4873E-02  7.84E-01  7.98E-01  3.74E-01  1.00E+00  2.38E-01  9.27E-02  1.00E+00
  7   2.1218E-01   1.8786E-01  3.42E-01  3.78E-01  6.52E-01  1.05E+00  6.52E-01  1.99E-01  1.00E+00
  8   2.1035E-01   2.1035E-01  2.88E-01  2.44E-01  8.69E-01  1.36E+00  8.36E-01  8.73E-02  1.00E+00
  9   2.9244E-01   2.9244E-01  2.79E-01  3.31E-01  1.16E+00  1.40E+00  5.35E-01  1.61E-02  1.00E+00
 10   3.5000E-01   3.5000E-01  2.05E-01  3.25E-01  1.54E+00  1.27E+00  8.05E-01  6.75E-03  1.00E+00
 11   2.2839E-01   2.2839E-01  2.89E-01  3.59E-01  3.89E+00  1.00E+00  7.72E-01  1.33E-03  8.87E-01
 12   3.1028E-01   3.1028E-01 -1.00E+00  8.96E-02  6.87E+00  1.00E+00  7.41E-01  3.69E-04  1.00E+00
:JACOBIANS    1.024E+00   3.130E+00
  
:NORMS:  1/Froebius, Min, Max, Used   0.8513E+00  0.6844E+00  0.1000E+01  0.9395E+00
:INFO :  Number of Memory Steps    8 Skipping    3
:INFO :  SLambda=    1.3241661589  Max    1.3241661589
:PREDicted Charge, CTotal, PW Trust    1.507E-05   1.507E-05   1.375E-05
:PREDicted DMix, Beta, BLim   2.1856E-01  1.0101E+00  7.5427E-01

Eigenvalues, unscaled except for SY+YY
   #     SY Real        SY Imag          SS             YY         SY+YY Real      SY+YY Imag
   1   4.107402E+00   0.000000E+00   4.080210E+00   4.623029E+00   9.996184E+00   0.000000E+00
   2   9.046349E-01   0.000000E+00   8.860516E-01   1.444130E+00   2.470389E+00   0.000000E+00
   3   8.462319E-01   0.000000E+00   6.408348E-01   1.038805E+00   2.196215E+00   0.000000E+00
   4   1.903306E-01   0.000000E+00   1.170031E-01   6.069351E-01   9.709533E-01   0.000000E+00
   5   9.562168E-02   0.000000E+00   7.024514E-02   2.335079E-01   4.271044E-01   0.000000E+00
   6   3.381649E-02   0.000000E+00   3.769877E-03   5.358436E-02   1.198932E-01   0.000000E+00
   7   3.038718E-06   0.000000E+00   1.232494E-06   7.796637E-06   1.171498E-05   0.000000E+00
   8   7.165936E-07   0.000000E+00   4.090906E-07   1.233991E-06   2.237348E-06   0.000000E+00
 
:INFO :  Singular value  9.998E+00 Weight  1.000E+00 Projection -1.643E-06
:INFO :  Singular value  2.477E+00 Weight  1.000E+00 Projection  1.467E-05
:INFO :  Singular value  2.195E+00 Weight  1.000E+00 Projection  2.379E-05
:INFO :  Singular value  9.719E-01 Weight  1.000E+00 Projection  3.493E-05
:INFO :  Singular value  4.258E-01 Weight  1.000E+00 Projection -1.849E-06
:INFO :  Singular value  1.199E-01 Weight  1.000E+00 Projection -2.536E-05
:INFO :  Singular value  1.175E-05 Weight  6.452E-04 Projection -2.541E-06
:INFO :  Singular value  2.231E-06 Weight  2.329E-05 Projection -2.545E-07
:RANK :  ACTIVE   6.00/8  =  75.01 % ; YY RANK   6.00/8  =  75.00 %
 
:BLIM :  VZERO Control Off
:TRUST:  Step 2.25E+01  Charge 1.97E-02 (e) CTO  6.55E-02 (e) PW  9.18E-02 (e)
:DIRM :  MEMORY  8/8  SCALE   1.000 RED  0.10 PRED  0.09 NEXT  0.35 
:TRAVE:  Charge 1.41E-04 (e) CTO  1.41E-04 (e) PW  9.44E-04 (e)
:DIRP :  |MSR1|= 3.891E-06 |PRATT|= 8.439E-06 ANGLE=  30.8 DEGREES
:DIRQ :  |MSR1|= 2.194E-05 |PRATT|= 4.778E-05 ANGLE=  43.9 DEGREES
:DIRT :  |MSR1|= 2.228E-05 |PRATT|= 4.852E-05 ANGLE=  43.5 DEGREES
:MIX  :   MSE1   REGULARIZATION:  4.62E-04 GREED: 0.25187  Newton 1.00  0.4593                
     
       CHARGES OF MIXED CHARGE DENSITY
:CTO   : INTERSTITIAL CHARGE =     2.874089
:CPC   : PW Pseudocharge     =     7.700663
:CTO001: CHARGE SPHERE  1    =    56.125911

:NEC03: NUCLEAR AND ELECTRONIC CHARGE     59.00000    59.00000

PW CHANGE     H    K    L      Current       Change    Residue
:PTO001:      0    0    0  4.76243429E-02  5.761E-09 -7.497E-08
:PTO002:     -1   -1   -1 -1.40629884E-01 -1.027E-07 -2.482E-07
:PTO003:      0    0   -2  8.18212014E-02 -1.900E-07 -4.224E-07
:PTO004:      0   -2   -2  6.56770496E-02 -1.565E-08 -5.386E-08
:PTO005:     -1   -1   -3 -5.63418067E-02  1.453E-07  1.341E-07
:PTO006:     -2   -2   -2  1.37009763E-02  7.328E-10  3.054E-08
:PTO007:      0    0   -4  1.12076528E-03 -4.957E-08 -4.527E-08
:PTO008:     -1   -3   -3  2.31006064E-03  4.172E-08 -3.822E-08
:PTO009:      0   -2   -4 -4.68352186E-03 -7.972E-08 -2.574E-08
:PTO010:     -2   -2   -4 -8.29073536E-03 -5.365E-08 -2.192E-08
:PTO011:     -3   -3   -3  2.92118870E-03  1.400E-08  7.751E-09
:PTO012:     -1   -1   -5  8.57718521E-03  6.678E-08  5.186E-08

:ENE  : ********** TOTAL ENERGY IN Ry =       -18472.09874113


:LABEL1: Calculations in /home/ykent/GWIEN/example/Pr/V10/case
:LABEL2: on didymium-2.cmpgroup.ameslab.gov at Wed Jul  8 16:10:11 CDT 2020
:LABEL3: using WIEN2k_19.1 (Release 25/6/2019) in /home/ykent/opt/src/WIEN2k_19.1
:LABEL4: using the command: run_lapw -cc 0.0001
 Flat Integration
 New Mode for Coulomb Integral
 Consistent 3/8+Simpson combinations
 Extension of core to zero
 LDM version in phi
 Fifth-order quadrature in outwin


            ---------
:ITE013: 13. ITERATION
            ---------

:NATO :    1 INDEPENDENT AND    1 TOTAL ATOMS IN UNITCELL
       SUBSTANCE: blebleble                                                   

       LATTICE                      = F   
:POT  : POTENTIAL OPTION EX_LDA EC_LDA VX_LDA VC_LDA
:LAT  : LATTICE CONSTANTS=  9.61244  9.61244  9.61244    1.571    1.571    1.571
:VOL  : UNIT CELL VOLUME =     222.04511
       MODE OF CALCULATION IS       = RELA
       NON-SPINPOLARIZED CALCULATION
:IFFT  : FFT-parameters:   80   80   80 Factor: 2.00


   CONVERGENCE PARAMETER FOR PSEUDOCHARGE: NCON=  9
   MAXIMAL VALUE OF RMT(JATOM)*ABSK(NKK) : RK  =29.95407


:VKCOUL :  VK-COUL convergence: 0.101E-06
       ATOMNUMBER=  1 Pr         VCOUL-ZERO =  0.31185E+00
:FIT001: LUSE= 13 SIGMA OF V-XC FIT FOR ATOM  1  0.4862978E-04
:FIT001: LUSE= 13 SIGMA OF V-XC FIT FOR ATOM  1  0.4862978E-04
:DEN  : DENSITY INTEGRAL  =         -7074.65083596   (Ry)
       ELS_POTENTIAL_AT Z=0 and Z=0.5:  -2.56747  -2.56747
       ELS_POTENTIAL_AT Y=0 and Y=0.5:   0.00000   0.00000
:VZERO:v0,v0c,v0x  -3.56105  -2.56747  -0.99357 v5,v5c,v5x  -3.56105  -2.56747  -0.99357
:VZERY:v0,v0c,v0x  -0.73677   0.00000  -0.73677 v5,v5c,v5x  -0.73677   0.00000  -0.73677
:VZERX:v0,v0c,v0x  -0.73677   0.00000  -0.73677 v5,v5c,v5x  -0.73677   0.00000  -0.73677
:LMAX-WF:   10   Non-Spherical LMAX:   4

          ATOMIC SPHERE DEPENDENT PARAMETERS FOR ATOM  Pr        
:e__0001: OVERALL ENERGY PARAMETER IS    0.4390
          OVERALL BASIS SET ON ATOM IS LAPW
:E0_0001: E( 0)=    0.4390
             APW+lo
:E0_0001: E( 0)=   -2.0310   E(BOTTOM)=   -2.411   E(TOP)=   -1.651  4  5   179
             LOCAL ORBITAL
:E1_0001: E( 1)=    0.8390
             APW+lo
:E1_0001: E( 1)=   -0.6421   E(BOTTOM)=   -1.288   E(TOP)=    0.004  3  4   175
             LOCAL ORBITAL
:E3_0001: E( 3)=    0.6314   E(BOTTOM)=    0.491   E(TOP)=    0.771  0  1   121
             APW+lo
:E2_0001: E( 2)=    0.4390   E(BOTTOM)=    0.288   E(TOP)= -200.000  2 -1    89
             APW+lo

       K=   0.00000   0.00000   0.00000            1
:RKM  : MATRIX SIZE   189LOs:  20  RKM= 8.49  WEIGHT= 1.00  PGR:    
       EIGENVALUES ARE:
:EIG00001:      -1.9967934   -0.6144145   -0.6144145   -0.6144145    0.3897320
:EIG00006:       0.6224075    0.6436170    0.6436170    0.6436170    0.6721111
:EIG00011:       0.6721111    0.6721111    0.7745198    0.7745198    0.7745198
:EIG00016:       0.9645871    0.9645871    1.3747614    1.6191597    1.6191597
:EIG00021:       1.6191597    1.7218832
       ********************************************************

:KPT   :      NUMBER OF K-POINTS:   165
:GAP (global)   :    0.0    Ry =     0.0   eV (metal)
         Bandranges (emin - emax) and occupancy:
:BAN00001:   1   -1.996793   -1.977627  2.00000000
:BAN00002:   2   -0.720391   -0.614414  2.00000000
:BAN00003:   3   -0.683457   -0.614414  2.00000000
:BAN00004:   4   -0.653897   -0.614414  2.00000000
:BAN00005:   5    0.389732    0.607721  2.00000000
:BAN00006:   6    0.549421    0.638129  2.00000000
:BAN00007:   7    0.620581    0.650877  1.00006552
:BAN00008:   8    0.639478    0.652646 -0.00005056
:BAN00009:   9    0.643617    0.658315  0.00000000
:BAN00010:  10    0.651861    0.672111  0.00000000
:BAN00011:  11    0.655296    0.672111  0.00000000
:BAN00012:  12    0.657964    0.682697  0.00000000
:BAN00013:  13    0.666050    0.780394  0.00000000
        Energy to separate low and high energystates:    0.33973


:NOE  : NUMBER OF ELECTRONS          =   13.000

:FER  : F E R M I - ENERGY(TETRAH.M.)=   0.6390363245
:GMA  : POTENTIAL AND CHARGE CUT-OFF  12.00 Ry**.5

:POS001: ATOM    1 X,Y,Z = 0.00000 0.00000 0.50000  MULT= 1  ZZ= 59.000  Pr        

       LMMAX  5
       LM=   0 0  4 0  4 4  6 0  6 4

:CHA001: TOTAL VALENCE CHARGE INSIDE SPHERE   1 =  10.1264    (RMT=  2.5000 )
:PCS001: PARTIAL CHARGES SPHERE =  1 S,P,D,F,      D-EG,D-T2G 
:QTL001: 2.0345 5.3494 0.6791 2.0630 0.0000 0.0000 0.0000 0.2431 0.4360 0.0000 0.0000 0.0000
        Q-s-low E-s-low   Q-p-low E-p-low   Q-d-low E-d-low   Q-f-low E-f-low
:EPL001:  1.9256 -1.9814    5.2783 -0.6589    0.0021 -0.6786    0.0006 -0.6802
        Q-s-hi  E-s-hi    Q-p-hi  E-p-hi    Q-d-hi  E-d-hi    Q-f-hi  E-f-hi 
:EPH001:  0.1089  0.5387    0.0711  0.5753    0.6770  0.5814    2.0624  0.6217

:CHA  : TOTAL VALENCE CHARGE INSIDE UNIT CELL =      13.000015

:SUM  : SUM OF EIGENVALUES =          -4.958812089


        1.ATOM      Pr                   14 CORE STATES
:1S 001: 1S               -3066.969784449 Ry
:2S 001: 2S                -492.723673375 Ry
:2PP001: 2P*               -465.822596356 Ry
:2P 001: 2P                -430.425188098 Ry
:3S 001: 3S                -105.814988465 Ry
:3PP001: 3P*                -94.352798102 Ry
:3P 001: 3P                 -87.344938212 Ry
:3DD001: 3D*                -67.271897800 Ry
:3D 001: 3D                 -65.760340670 Ry
:4S 001: 4S                 -20.487628677 Ry
:4PP001: 4P*                -16.194061720 Ry
:4P 001: 4P                 -14.666134066 Ry
:4DD001: 4D*                 -7.598086606 Ry
:4D 001: 4D                  -7.328499681 Ry
:CINT001 Core Integral Atom   1   45.999522

       DENSITY AT NUCLEUS
        JATOM        VALENCE       SEMI-CORE          CORE           TOTAL
:RTO001:   1      653.583865        0.000000   656825.378529   657478.962394
     
       CHARGES OF NEW CHARGE DENSITY
:NTO   : INTERSTITIAL CHARGE =     2.873607
:NPC   : PW Pseudocharge     =     7.699380
:NTO001: CHARGE SPHERE  1    =    56.125930

:NEC01: NUCLEAR AND ELECTRONIC CHARGE     59.00000    58.99954
     
       CHARGES OF OLD CHARGE DENSITY
:OTO   : INTERSTITIAL CHARGE =     2.874089
:OPC   : PW Pseudocharge     =     7.700663
:OTO001: CHARGE SPHERE  1    =    56.125911

:NEC02: NUCLEAR AND ELECTRONIC CHARGE     59.00000    59.00000
     
       CONVERGENCE TEST
:DTO001: DIFFERENCE IN SPHERE  1 =  0.0000345

:DIS  :  CHARGE DISTANCE       ( 0.0000345 for atom    1 spin 1)      0.0000345
 PW Mixed is           53
 
******************************************************
* MULTISECANT MIXING VER9 RELEASE 10.4.0              *
* Standard Mode with controls                        *
* Fixed density scale                                *
* Regularization       1.000E-04                     *
* Trust Upper Limit    5.000E+00                     *
* Max Number of Memory Steps    8                    *
******************************************************
 
:INFO : Forcing a restart
:PWTMP   1.5660E+02  1.2500E+02  2.2205E+02
:PLANE:  PW TOTAL      3.1667 DISTAN   1.75E-05  5.52E-04 %
:CHARG:  CLM/ATOM    977.1922 DISTAN   3.51E-05  3.59E-06 %
 
Step History
        DMIX         DMIXT        Red     Pred      Trust     Lambda    MagRel    MagAbs     Beta
  1   3.5000E-02   3.5000E-02 -1.00E+00  1.00E+00 -1.00E+01  1.00E+00  3.50E-02  3.50E-02  1.00E+00
:INFO :  Note, Pratt in use
:TRUST:  Step 2.25E-01  Charge 7.50E-02 (e) CTO  2.50E-01 (e) PW  3.50E-01 (e)
:DIRM :  MEMORY  0/ 8 SCALE   1.000
Performing Pseudo Compensation
Final Pseudo Compensation Rescaling     1.00000E+00
:MIX  :   PRATT  REGULARIZATION:  1.00E-04 GREED: 0.15000                  
     
       CHARGES OF MIXED CHARGE DENSITY
:CTO   : INTERSTITIAL CHARGE =     2.874086
:CPC   : PW Pseudocharge     =     7.700637
:CTO001: CHARGE SPHERE  1    =    56.125914

:NEC03: NUCLEAR AND ELECTRONIC CHARGE     59.00000    59.00000

PW CHANGE     H    K    L      Current       Change    Residue
:PTO001:      0    0    0  4.76242109E-02 -1.320E-07 -2.684E-07
:PTO002:     -1   -1   -1 -1.40629323E-01  5.613E-07  5.688E-07
:PTO003:      0    0   -2  8.18208005E-02 -4.009E-07 -6.280E-07
:PTO004:      0   -2   -2  6.56766763E-02 -3.733E-07 -3.705E-07
:PTO005:     -1   -1   -3 -5.63414056E-02  4.011E-07  2.729E-07
:PTO006:     -2   -2   -2  1.37008720E-02 -1.043E-07 -4.670E-08
:PTO007:      0    0   -4  1.12073946E-03 -2.582E-08  1.527E-09
:PTO008:     -1   -3   -3  2.31007577E-03  1.513E-08 -8.609E-08
:PTO009:      0   -2   -4 -4.68352090E-03  9.598E-10  8.096E-08
:PTO010:     -2   -2   -4 -8.29069712E-03  3.824E-08  7.396E-08
:PTO011:     -3   -3   -3  2.92117369E-03 -1.501E-08 -2.083E-08
:PTO012:     -1   -1   -5  8.57713969E-03 -4.552E-08 -6.585E-08

:ENE  : ********** TOTAL ENERGY IN Ry =       -18472.09873157

