
------- case.scf0 --------
 Flat Integration
 New Mode for Coulomb Integral
 Consistent 3/8+Simpson combinations
 Extension of core to zero
 LDM version in phi
 Fifth-order quadrature in outwin


            ---------
:ITE062: 62. ITERATION
            ---------

:NATO :    1 INDEPENDENT AND    2 TOTAL ATOMS IN UNITCELL
       SUBSTANCE: aU                                                          

       LATTICE                      = CXY 
:POT  : POTENTIAL OPTION EX_LDA EC_LDA VX_LDA VC_LDA
:LAT  : LATTICE CONSTANTS=  6.48990 13.16965 11.36963    1.571    1.571    1.571
:VOL  : UNIT CELL VOLUME =     485.88001
       MODE OF CALCULATION IS       = RELA
       NON-SPINPOLARIZED CALCULATION
:IFFT  : FFT-parameters:   54  108   90 Factor: 2.00


   CONVERGENCE PARAMETER FOR PSEUDOCHARGE: NCON=  9
   MAXIMAL VALUE OF RMT(JATOM)*ABSK(NKK) : RK  =27.59923


:VKCOUL :  VK-COUL convergence: 0.706E-07
       ATOMNUMBER=  1 Pr1        VCOUL-ZERO =  0.52377E-01
:EFG001:                        EFG         =    -7.84883   *10**21  V / m**2
                               V20  TOT/SRF=    -6.79729    -0.02723
                               V22  TOT/SRF=     0.71077     0.00277
                               V22M TOT/SRF=     0.00000     0.00000
                               V21  TOT/SRF=     0.00000     0.00000
                               V21M TOT/SRF=     0.00000     0.00000

              4.63519    0.00000    0.00000        4.63519    0.00000    0.00000
              0.00000    3.21364    0.00000        0.00000    3.21364    0.00000
              0.00000    0.00000   -7.84883        0.00000    0.00000   -7.84883

         MAIN DIRECTIONS OF THE EFG   1.0000  0.0000  0.0000
                                      0.0000  1.0000  0.0000
                                      0.0000  0.0000  1.0000
:ANG001:  ANGLE WITH OLD X-AXIS =         0.0

:ETA001:                         ASYMM. ETA =     0.18112


     HELLMANN-FEYNMAN-FORCE IN mRy/a.u. = |F|  Fx       Fy             Fz
:FHF001:   1.ATOM    531.157657172761      0.000000000000      0.000000000000   -531.157657172761

:FIT001: LUSE= 13 SIGMA OF V-XC FIT FOR ATOM  1  0.8382122E-05
:FIT001: LUSE= 13 SIGMA OF V-XC FIT FOR ATOM  1  0.8382122E-05
:DEN  : DENSITY INTEGRAL  =        -14146.33101149   (Ry)
       ELS_POTENTIAL_AT Z=0 and Z=0.5:   0.71204   0.71204
       ELS_POTENTIAL_AT Y=0 and Y=0.5:   0.06825   0.06825
:VZERO:v0,v0c,v0x   0.13968   0.71204  -0.57236 v5,v5c,v5x   0.13968   0.71204  -0.57236
:VZERY:v0,v0c,v0x  -0.69723   0.06825  -0.76548 v5,v5c,v5x  -0.69723   0.06825  -0.76548
:VZERX:v0,v0c,v0x  -1.11183  -0.37728  -0.73455 v5,v5c,v5x  -1.11183  -0.37728  -0.73455

------- case.scf1 --------
:LMAX-WF:   10   Non-Spherical LMAX:   4

          ATOMIC SPHERE DEPENDENT PARAMETERS FOR ATOM  Pr1       
:e__0001: OVERALL ENERGY PARAMETER IS    0.4158
          OVERALL BASIS SET ON ATOM IS LAPW
:E0_0001: E( 0)=    0.4158
             APW+lo
:E0_0001: E( 0)=   -2.0595   E(BOTTOM)=   -2.694   E(TOP)=   -1.425  4  5   172
             LOCAL ORBITAL
:E1_0001: E( 1)=    0.8158
             APW+lo
:E1_0001: E( 1)=   -0.5892   E(BOTTOM)=   -1.546   E(TOP)=    0.368  3  4   196
             LOCAL ORBITAL
:E3_0001: E( 3)=    0.5924   E(BOTTOM)=    0.385   E(TOP)=    0.800  0  1   119
             APW+lo
:E2_0001: E( 2)=    0.4158   E(BOTTOM)=    0.195   E(TOP)= -200.000  2 -1    95
             APW+lo

       K=   0.06250   0.00000   0.06250            1
:RKM  : MATRIX SIZE   453LOs:  40  RKM= 8.49  WEIGHT= 4.00  PGR:    
       EIGENVALUES ARE:
:EIG00001:      -2.0297326   -2.0164127   -0.7530094   -0.6794305   -0.6630725
:EIG00006:      -0.6576650   -0.6511618   -0.6508771    0.3820010    0.5191802
:EIG00011:       0.6027339    0.6035868    0.6038251    0.6074553    0.6103266
:EIG00016:       0.6201816    0.6246443    0.6250313    0.6278105    0.6302457
:EIG00021:       0.6344329    0.6370901    0.6382933    0.6420766    0.6801880
:EIG00026:       0.6950389    0.7717920    0.7875695    0.8096730    0.8447978
:EIG00031:       0.8610808    0.9443029    0.9888393    1.0316515    1.3217771
:EIG00036:       1.3340873    1.4226254    1.4236209    1.5827734    1.6340890
:EIG00041:       1.6962548    1.7984293    1.8745643    1.8899581    1.9869633
:EIG00046:       2.0418033    2.0548127    2.1170366    2.1715787    2.2640174
 
:EIG00051:       2.3132922    2.3671647    2.3842489    2.4559631    2.4837290
:EIG00056:       2.5620948    2.5962582    2.6205086    2.7142295    2.7679814
:EIG00061:       2.8407248    2.8423951    2.9839863    3.0576823    3.0703462
:EIG00066:       3.1685931    3.2276729    3.2475795    3.2593524    3.3267283
:EIG00071:       3.3324350    3.3824529    3.4109911    3.4666922    3.4846192
:EIG00076:       3.5238903    3.5551924    3.5958603    3.6216279    3.6492460
:EIG00081:       3.6762604    3.7191925    3.7308772    3.8016232    3.8239165
:EIG00086:       3.8543059    3.9450553    3.9497966    3.9828009    3.9969924
:EIG00091:       4.0303153    4.0615538    4.0953345    4.1079857    4.1202414
:EIG00096:       4.1677976    4.2043992    4.2135990    4.2259029    4.3061685
 
:EIG00101:       4.3771298    4.5021286    4.5122570    4.5773406    4.6104354
:EIG00106:       4.6135587    4.6647211    4.6769877    4.7175630    4.7495770
:EIG00111:       4.8324536    4.8617732    4.8733596    4.9167823    4.9753424
:EIG00116:       5.0097418    5.0827032    5.0843226    5.1258576    5.1577915
:EIG00121:       5.1682557    5.2504041    5.2959230    5.3156966    5.3643657
:EIG00126:       5.4512789    5.4764693    5.5049192    5.5438287    5.5842767
:EIG00131:       5.5882540    5.6572188    5.6808730    5.6861116    5.7121746
:EIG00136:       5.7877020    5.8196943    5.8729751    5.8822575    5.9130182
:EIG00141:       5.9297898    5.9469116    5.9917314    6.0271427    6.0863294
:EIG00146:       6.0892325    6.0922224    6.1062385    6.1266832    6.2104478
 
:EIG00151:       6.2576318    6.2610624    6.3507934    6.3522929    6.4255980
:EIG00156:       6.5141934    6.6058989    6.6240645    6.6542455    6.6952554
:EIG00161:       6.7674352    6.7775765    6.8320789    6.8550091    6.8620632
:EIG00166:       6.9319127    6.9360338    6.9474711    6.9919338    7.0469119
:EIG00171:       7.0606528    7.1178947    7.1510218    7.1582348    7.2198881
:EIG00176:       7.2381380    7.2546784    7.2943210    7.3233665    7.3592068
:EIG00181:       7.4082311    7.4190367    7.4339612    7.4556397    7.5019535
:EIG00186:       7.5115848    7.5526746    7.6417264    7.6565398    7.6640740
:EIG00191:       7.6916441    7.7167295    7.7735498    7.7786987    7.7950887
:EIG00196:       7.8088144    7.8238290    7.8729041    7.8733865    7.9177237
 
:EIG00201:       7.9256098    7.9729494    7.9890723    8.0172382    8.0779720
:EIG00206:       8.0911279    8.1017623
       ********************************************************

:KPT   :      NUMBER OF K-POINTS:   288

------- case.scfso --------
   0.0   0.0 angle (M,z), angle (M,x) deg
 
        SPIN-ORBIT EIGENVALUES:
     K=   0.06250   0.00000   0.06250            1
      MATRIX SIZE=  414   WEIGHT= 4.00
     EIGENVALUES ARE:
          -2.0297329   -2.0297329   -2.0164127   -2.0164127   -0.8433423
          -0.8433423   -0.8053854   -0.8053854   -0.6559274   -0.6559274
          -0.5949344   -0.5949344   -0.5919256   -0.5919256   -0.5843575
          -0.5843575    0.3820365    0.3820365    0.5190479    0.5190479
           0.5956225    0.5956225    0.5981416    0.5981416    0.5997650
           0.5997650    0.6012684    0.6012684    0.6040874    0.6040874
           0.6076784    0.6076784    0.6246600    0.6246600    0.6310715
           0.6310715    0.6338479    0.6338479    0.6355444    0.6355444

           0.6388163    0.6388163    0.6428412    0.6428412    0.6441475
           0.6441475    0.6480962    0.6480962    0.6808226    0.6808226
           0.6949151    0.6949151    0.7707015    0.7707015    0.7878234
           0.7878234    0.8102011    0.8102011    0.8452885    0.8452885
           0.8611223    0.8611223    0.9441312    0.9441313    0.9891294
           0.9891294    1.0317804    1.0317804    1.3215851    1.3215851
           1.3344939    1.3344939    1.4223638    1.4223638    1.4239011
           1.4239011    1.5823566    1.5823566    1.6335349    1.6335349

           1.6961927    1.6961927    1.7968282    1.7968282    1.8728587
           1.8728587    1.8913416    1.8913416    1.9874144    1.9874144
           2.0415000    2.0415000    2.0529714    2.0529714    2.1175293
           2.1175293    2.1722825    2.1722825    2.2636274    2.2636274
           2.3128462    2.3128462    2.3645652    2.3645652    2.3860511
           2.3860511    2.4563967    2.4563967    2.4851314    2.4851314
           2.5620330    2.5620330    2.5956498    2.5956498    2.6214984
           2.6214984    2.7144140    2.7144140    2.7677189    2.7677189

           2.8407496    2.8407496    2.8462948    2.8462948    2.9838871
           2.9838871    3.0576892    3.0576892    3.0705627    3.0705627
           3.1685309    3.1685309    3.2275858    3.2275858    3.2479075
           3.2479075    3.2590860    3.2590860    3.3267863    3.3267863
           3.3326793    3.3326793    3.3824576    3.3824576    3.4110495
           3.4110495    3.4660251    3.4660251    3.4854329    3.4854329
           3.5241040    3.5241040    3.5567054    3.5567054    3.5959397
           3.5959397    3.6217540    3.6217540    3.6496195    3.6496195

           3.6764153    3.6764153    3.7192092    3.7192092    3.7311433
           3.7311433    3.8017475    3.8017475    3.8240041    3.8240041
           3.8544142    3.8544142    3.9450356    3.9450356    3.9499341
           3.9499341    3.9828133    3.9828133    3.9970508    3.9970508
           4.0303384    4.0303384    4.0616057    4.0616057    4.0953190
           4.0953190    4.1078546    4.1078546    4.1201958    4.1201958
           4.1678350    4.1678350    4.2040515    4.2040515    4.2140228
           4.2140228    4.2260240    4.2260240    4.3062290    4.3062290

           4.3769972    4.3769972
       ********************************************************

------- case.scf2 --------
:GMA  : POTENTIAL AND CHARGE CUT-OFF  12.00 Ry**.5




:POS001: at.nr.  -1 position = 0.00000 0.89750 0.25000  multiplicity =  2

       lmmax 16
       lm=   0 0  1 0  2 0  2 2  3 0  3 2  4 0  4 2  4 4  5 0  5 2  5 4  6 0  6 2  6 4  6 6
:FER gutzwiller fermi energy   0.63289
:EORB         -0.229720433
:SUM sum of gutz band energies        -10.525594042

:CHA001: total charge inside sphere   1 =     9.505391
:PCS001: partial charges sphere =  1 s,p,d,f,px,py,pz,d-z2,d-x2y2,d-xy,d-xz,d-yz 
:QTL001: 1.9441 5.0281 0.5680 1.9650 1.6727 1.6738 1.6816 0.1061 0.1065 0.1225 0.1095 0.1234

                      vxx         vyy         vzz       up to r

:VZZ001:             4.62212     3.20100    -7.82311       2.300

:CHA  : total charge inside unit cell =      13.000000

------- case.scfc --------

        1.ATOM      Pr1                  14 CORE STATES
       CORE-FORCE in mRy/a.u. = |F|      Fx             Fy             Fz
:FCO001:   1.ATOM    515.097478380071      0.000000000000      0.000000000000    515.097478380071

:1S 001: 1S               -3066.990610913 Ry
:2S 001: 2S                -492.744344028 Ry
:2PP001: 2P*               -465.843289189 Ry
:2P 001: 2P                -430.445869885 Ry
:3S 001: 3S                -105.836012190 Ry
:3PP001: 3P*                -94.373771711 Ry
:3P 001: 3P                 -87.366014030 Ry
:3DD001: 3D*                -67.292811713 Ry
:3D 001: 3D                 -65.781277586 Ry
:4S 001: 4S                 -20.514276583 Ry
:4PP001: 4P*                -16.221023837 Ry
:4P 001: 4P                 -14.693596823 Ry
:4DD001: 4D*                 -7.626359095 Ry
:4D 001: 4D                  -7.356933922 Ry

------- case.scfm --------
:CINT001 Core Integral Atom   1   45.998496

       DENSITY AT NUCLEUS
        JATOM        VALENCE       SEMI-CORE          CORE           TOTAL
:RTO001:   1      650.216170        0.000000   656824.335916   657474.552085
     
       CHARGES OF NEW CHARGE DENSITY
:NTO   : INTERSTITIAL CHARGE =     6.989150
:NPC   : PW Pseudocharge     =    16.992357
:NTO001: CHARGE SPHERE  1    =    55.503887

:NEC01: NUCLEAR AND ELECTRONIC CHARGE    118.00000   117.99692
     
       CHARGES OF OLD CHARGE DENSITY
:OTO   : INTERSTITIAL CHARGE =     6.990817
:OPC   : PW Pseudocharge     =    16.998728
:OTO001: CHARGE SPHERE  1    =    55.504591

:NEC02: NUCLEAR AND ELECTRONIC CHARGE    118.00000   118.00000
     
       CONVERGENCE TEST
:DTO001: DIFFERENCE IN SPHERE  1 =  0.0011130

:DIS  :  CHARGE DISTANCE       ( 0.0011130 for atom    1 spin 1)      0.0011130
 PW Mixed is          506
 
******************************************************
* MULTISECANT MIXING VER9 RELEASE 10.4.0              *
* Standard Mode with controls                        *
* Fixed density scale                                *
* Regularization       1.000E-04                     *
* Trust Upper Limit    5.000E+00                     *
* Max Number of Memory Steps    8                    *
******************************************************
 
:INFO : Forcing a restart
:PWTMP   3.8395E+02  1.9467E+02  4.8588E+02
:PLANE:  PW TOTAL      4.6398 DISTAN   3.50E-04  7.55E-03 %
:CHARG:  CLM/ATOM   1381.9555 DISTAN   1.67E-03  1.21E-04 %
 
Step History
        DMIX         DMIXT        Red     Pred      Trust     Lambda    MagRel    MagAbs     Beta
  1   3.5000E-02   3.5000E-02 -1.00E+00  1.00E+00 -1.00E+01  1.00E+00  3.50E-02  3.50E-02  1.00E+00
:INFO :  Note, Pratt in use
:TRUST:  Step 2.25E-01  Charge 7.50E-02 (e) CTO  2.50E-01 (e) PW  3.50E-01 (e)
:DIRM :  MEMORY  0/ 8 SCALE   1.000
Performing Pseudo Compensation
Final Pseudo Compensation Rescaling     1.00000E+00
:MIX  :   PRATT  REGULARIZATION:  1.00E-04 GREED: 0.15000                  
     
       CHARGES OF MIXED CHARGE DENSITY
:CTO   : INTERSTITIAL CHARGE =     6.991029
:CPC   : PW Pseudocharge     =    16.999324
:CTO001: CHARGE SPHERE  1    =    55.504486

:NEC03: NUCLEAR AND ELECTRONIC CHARGE    118.00000   118.00000

PW CHANGE     H    K    L      Current       Change    Residue
:PTO001:      0    0    0  4.93750559E-02  1.662E-06  5.180E-06
:PTO003:      0    2    0  1.37279961E-02  2.483E-07 -9.594E-07
:PTO004:     -1    1    0  6.82325330E-02  2.576E-06  3.128E-06
:PTO005:      0    2   -1 -7.95942116E-02 -3.048E-06 -3.670E-06
:PTO006:      0    0   -2 -4.12270762E-02 -1.723E-06 -2.830E-06
:PTO007:     -1    1   -1 -8.67476551E-02 -3.858E-06 -6.220E-06
:PTO008:      0    2   -2 -1.44205232E-02 -5.908E-07 -1.215E-07
:PTO009:     -1    1   -2 -7.38656727E-02 -3.568E-06 -3.312E-06
:PTO011:     -1    3    0 -1.22023737E-02 -7.851E-07 -1.369E-06
:PTO012:     -1    3   -1 -5.50520226E-02 -3.180E-06 -2.332E-06
:PTO013:      0    4    0 -1.01519925E-02 -7.034E-07 -8.113E-07
:PTO014:      0    2   -3  2.31273471E-02  1.529E-06  1.413E-06

:ENE  : ********** TOTAL ENERGY IN Ry =       -36944.23539023

       TOTAL FORCE IN mRy/a.u. = |F|     Fx             Fy             Fz     with/without FOR in case.in2
:FOR001:   1.ATOM         16.060          0.000          0.000        -16.060 partial forces
       TOTAL FORCE WITH RESPECT TO GLOBAL CARTESIAN COORDINATES:
:FCA001:   1.ATOM                         0.000        -16.060          0.000 partial forces
       TOTAL FORCE WITH RESPECT TO THE GLOBAL COORDINATE SYSTEM:
:FGL001:   1.ATOM                 0.000000000   -16.060178793     0.000000000 partial forces

------- case.scf0 --------
 Flat Integration
 New Mode for Coulomb Integral
 Consistent 3/8+Simpson combinations
 Extension of core to zero
 LDM version in phi
 Fifth-order quadrature in outwin


            ---------
:ITE063: 63. ITERATION
            ---------

:NATO :    1 INDEPENDENT AND    2 TOTAL ATOMS IN UNITCELL
       SUBSTANCE: aU                                                          

       LATTICE                      = CXY 
:POT  : POTENTIAL OPTION EX_LDA EC_LDA VX_LDA VC_LDA
:LAT  : LATTICE CONSTANTS=  6.48990 13.16965 11.36963    1.571    1.571    1.571
:VOL  : UNIT CELL VOLUME =     485.88001
       MODE OF CALCULATION IS       = RELA
       NON-SPINPOLARIZED CALCULATION
:IFFT  : FFT-parameters:   54  108   90 Factor: 2.00


   CONVERGENCE PARAMETER FOR PSEUDOCHARGE: NCON=  9
   MAXIMAL VALUE OF RMT(JATOM)*ABSK(NKK) : RK  =27.59923


:VKCOUL :  VK-COUL convergence: 0.706E-07
       ATOMNUMBER=  1 Pr1        VCOUL-ZERO =  0.52375E-01
:EFG001:                        EFG         =    -7.84970   *10**21  V / m**2
                               V20  TOT/SRF=    -6.79804    -0.02724
                               V22  TOT/SRF=     0.71130     0.00278
                               V22M TOT/SRF=     0.00000     0.00000
                               V21  TOT/SRF=     0.00000     0.00000
                               V21M TOT/SRF=     0.00000     0.00000

              4.63615    0.00000    0.00000        4.63615    0.00000    0.00000
              0.00000    3.21355    0.00000        0.00000    3.21355    0.00000
              0.00000    0.00000   -7.84970        0.00000    0.00000   -7.84970

         MAIN DIRECTIONS OF THE EFG   1.0000  0.0000  0.0000
                                      0.0000  1.0000  0.0000
                                      0.0000  0.0000  1.0000
:ANG001:  ANGLE WITH OLD X-AXIS =         0.0

:ETA001:                         ASYMM. ETA =     0.18123


     HELLMANN-FEYNMAN-FORCE IN mRy/a.u. = |F|  Fx       Fy             Fz
:FHF001:   1.ATOM    531.394317771417      0.000000000000      0.000000000000   -531.394317771417

:FIT001: LUSE= 13 SIGMA OF V-XC FIT FOR ATOM  1  0.8377626E-05
:FIT001: LUSE= 13 SIGMA OF V-XC FIT FOR ATOM  1  0.8377626E-05
:DEN  : DENSITY INTEGRAL  =        -14146.31058560   (Ry)
       ELS_POTENTIAL_AT Z=0 and Z=0.5:   0.71206   0.71206
       ELS_POTENTIAL_AT Y=0 and Y=0.5:   0.06824   0.06824
:VZERO:v0,v0c,v0x   0.13969   0.71206  -0.57237 v5,v5c,v5x   0.13969   0.71206  -0.57237
:VZERY:v0,v0c,v0x  -0.69724   0.06824  -0.76548 v5,v5c,v5x  -0.69724   0.06824  -0.76548
:VZERX:v0,v0c,v0x  -1.11185  -0.37729  -0.73456 v5,v5c,v5x  -1.11185  -0.37729  -0.73456

------- case.scf1 --------
:LMAX-WF:   10   Non-Spherical LMAX:   4

          ATOMIC SPHERE DEPENDENT PARAMETERS FOR ATOM  Pr1       
:e__0001: OVERALL ENERGY PARAMETER IS    0.4158
          OVERALL BASIS SET ON ATOM IS LAPW
:E0_0001: E( 0)=    0.4158
             APW+lo
:E0_0001: E( 0)=   -2.0596   E(BOTTOM)=   -2.694   E(TOP)=   -1.425  4  5   176
             LOCAL ORBITAL
:E1_0001: E( 1)=    0.8158
             APW+lo
:E1_0001: E( 1)=   -0.5893   E(BOTTOM)=   -1.546   E(TOP)=    0.368  3  4   193
             LOCAL ORBITAL
:E3_0001: E( 3)=    0.5923   E(BOTTOM)=    0.385   E(TOP)=    0.799  0  1   120
             APW+lo
:E2_0001: E( 2)=    0.4158   E(BOTTOM)=    0.195   E(TOP)= -200.000  2 -1    97
             APW+lo

       K=   0.06250   0.00000   0.06250            1
:RKM  : MATRIX SIZE   453LOs:  40  RKM= 8.49  WEIGHT= 4.00  PGR:    
       EIGENVALUES ARE:
:EIG00001:      -2.0297992   -2.0164803   -0.7530557   -0.6794786   -0.6631219
:EIG00006:      -0.6577180   -0.6512154   -0.6509305    0.3820035    0.5191768
:EIG00011:       0.6026285    0.6034718    0.6037131    0.6073429    0.6102134
:EIG00016:       0.6200589    0.6245205    0.6249081    0.6276868    0.6301249
:EIG00021:       0.6343070    0.6369692    0.6381701    0.6419503    0.6801486
:EIG00026:       0.6950155    0.7717710    0.7875537    0.8096569    0.8447825
:EIG00031:       0.8610633    0.9442823    0.9888154    1.0316253    1.3217574
:EIG00036:       1.3340810    1.4226222    1.4236140    1.5827721    1.6340860
:EIG00041:       1.6962479    1.7984227    1.8745581    1.8899489    1.9869498
:EIG00046:       2.0417963    2.0548109    2.1170297    2.1715740    2.2640066
 
:EIG00051:       2.3132860    2.3671580    2.3842431    2.4559536    2.4837173
:EIG00056:       2.5620911    2.5962571    2.6204896    2.7142247    2.7679704
:EIG00061:       2.8407112    2.8423939    2.9839774    3.0576852    3.0703431
:EIG00066:       3.1685886    3.2276718    3.2475709    3.2593415    3.3267330
:EIG00071:       3.3324353    3.3824540    3.4109905    3.4666884    3.4846191
:EIG00076:       3.5238847    3.5551932    3.5958589    3.6216288    3.6492431
:EIG00081:       3.6762608    3.7191997    3.7308780    3.8016170    3.8239186
:EIG00086:       3.8543130    3.9450636    3.9498005    3.9828043    3.9969923
:EIG00091:       4.0303205    4.0615539    4.0953409    4.1079810    4.1202364
:EIG00096:       4.1678019    4.2044033    4.2135998    4.2259079    4.3061754
 
:EIG00101:       4.3771270    4.5021326    4.5122536    4.5773425    4.6104410
:EIG00106:       4.6135632    4.6647255    4.6769897    4.7175651    4.7495835
:EIG00111:       4.8324607    4.8617680    4.8733685    4.9167804    4.9753459
:EIG00116:       5.0097388    5.0827095    5.0843209    5.1258550    5.1577862
:EIG00121:       5.1682521    5.2504069    5.2959197    5.3157013    5.3643656
:EIG00126:       5.4512811    5.4764653    5.5049190    5.5438289    5.5842806
:EIG00131:       5.5882525    5.6572208    5.6808753    5.6861134    5.7121756
:EIG00136:       5.7877057    5.8196980    5.8729808    5.8822616    5.9130196
:EIG00141:       5.9297893    5.9469084    5.9917331    6.0271522    6.0863309
:EIG00146:       6.0892393    6.0922281    6.1062355    6.1266842    6.2104544
 
:EIG00151:       6.2576402    6.2610611    6.3508011    6.3522938    6.4255966
:EIG00156:       6.5141974    6.6059022    6.6240688    6.6542505    6.6952549
:EIG00161:       6.7674323    6.7775828    6.8320815    6.8550082    6.8620621
:EIG00166:       6.9319147    6.9360369    6.9474735    6.9919367    7.0469133
:EIG00171:       7.0606514    7.1178966    7.1510199    7.1582353    7.2198874
:EIG00176:       7.2381380    7.2546719    7.2943222    7.3233636    7.3592067
:EIG00181:       7.4082321    7.4190398    7.4339666    7.4556383    7.5019574
:EIG00186:       7.5115897    7.5526699    7.6417280    7.6565407    7.6640715
:EIG00191:       7.6916492    7.7167337    7.7735547    7.7787021    7.7950949
:EIG00196:       7.8088160    7.8238344    7.8729078    7.8733894    7.9177274
 
:EIG00201:       7.9256103    7.9729542    7.9890795    8.0172393    8.0779750
:EIG00206:       8.0911288    8.1017641
       ********************************************************

:KPT   :      NUMBER OF K-POINTS:   288

------- case.scfso --------
   0.0   0.0 angle (M,z), angle (M,x) deg
 
        SPIN-ORBIT EIGENVALUES:
     K=   0.06250   0.00000   0.06250            1
      MATRIX SIZE=  414   WEIGHT= 4.00
     EIGENVALUES ARE:
          -2.0297995   -2.0297995   -2.0164804   -2.0164804   -0.8433942
          -0.8433942   -0.8054407   -0.8054407   -0.6559735   -0.6559735
          -0.5949841   -0.5949841   -0.5919749   -0.5919749   -0.5844090
          -0.5844090    0.3820389    0.3820389    0.5190444    0.5190444
           0.5955104    0.5955104    0.5980246    0.5980246    0.5996500
           0.5996500    0.6011529    0.6011529    0.6039697    0.6039697
           0.6075539    0.6075539    0.6245489    0.6245489    0.6309514
           0.6309514    0.6337250    0.6337250    0.6354245    0.6354245

           0.6386965    0.6386965    0.6427207    0.6427207    0.6440256
           0.6440256    0.6479714    0.6479714    0.6807799    0.6807799
           0.6948904    0.6948904    0.7706793    0.7706794    0.7878078
           0.7878078    0.8101849    0.8101849    0.8452732    0.8452732
           0.8611047    0.8611047    0.9441107    0.9441107    0.9891055
           0.9891055    1.0317543    1.0317543    1.3215656    1.3215656
           1.3344875    1.3344875    1.4223600    1.4223600    1.4238947
           1.4238947    1.5823552    1.5823552    1.6335319    1.6335319

           1.6961857    1.6961857    1.7968215    1.7968215    1.8728521
           1.8728521    1.8913329    1.8913329    1.9874010    1.9874010
           2.0414930    2.0414930    2.0529693    2.0529693    2.1175226
           2.1175226    2.1722777    2.1722777    2.2636167    2.2636167
           2.3128401    2.3128401    2.3645588    2.3645588    2.3860451
           2.3860451    2.4563875    2.4563875    2.4851196    2.4851196
           2.5620290    2.5620290    2.5956483    2.5956483    2.6214799
           2.6214799    2.7144091    2.7144091    2.7677078    2.7677078

           2.8407447    2.8407447    2.8462850    2.8462850    2.9838782
           2.9838782    3.0576921    3.0576921    3.0705596    3.0705596
           3.1685265    3.1685265    3.2275846    3.2275846    3.2478990
           3.2478990    3.2590752    3.2590752    3.3267910    3.3267910
           3.3326797    3.3326797    3.3824588    3.3824588    3.4110489
           3.4110489    3.4660214    3.4660214    3.4854326    3.4854326
           3.5240984    3.5240984    3.5567062    3.5567062    3.5959383
           3.5959383    3.6217548    3.6217548    3.6496166    3.6496166

           3.6764158    3.6764158    3.7192164    3.7192164    3.7311441
           3.7311441    3.8017413    3.8017413    3.8240063    3.8240063
           3.8544213    3.8544213    3.9450439    3.9450439    3.9499380
           3.9499380    3.9828167    3.9828167    3.9970507    3.9970507
           4.0303436    4.0303436    4.0616058    4.0616058    4.0953253
           4.0953253    4.1078499    4.1078499    4.1201908    4.1201908
           4.1678393    4.1678393    4.2040553    4.2040553    4.2140238
           4.2140238    4.2260290    4.2260290    4.3062359    4.3062359

           4.3769944    4.3769944
       ********************************************************

------- case.scf2 --------
:GMA  : POTENTIAL AND CHARGE CUT-OFF  12.00 Ry**.5




:POS001: at.nr.  -1 position = 0.00000 0.89750 0.25000  multiplicity =  2

       lmmax 16
       lm=   0 0  1 0  2 0  2 2  3 0  3 2  4 0  4 2  4 4  5 0  5 2  5 4  6 0  6 2  6 4  6 6
:FER gutzwiller fermi energy   0.63286
:EORB         -0.230064398
:SUM sum of gutz band energies        -10.526652879

:CHA001: total charge inside sphere   1 =     9.505694
:PCS001: partial charges sphere =  1 s,p,d,f,px,py,pz,d-z2,d-x2y2,d-xy,d-xz,d-yz 
:QTL001: 1.9441 5.0281 0.5679 1.9653 1.6727 1.6738 1.6816 0.1061 0.1065 0.1225 0.1094 0.1234

                      vxx         vyy         vzz       up to r

:VZZ001:             4.61995     3.19870    -7.81865       2.300

:CHA  : total charge inside unit cell =      13.000000

------- case.scfc --------

        1.ATOM      Pr1                  14 CORE STATES
       CORE-FORCE in mRy/a.u. = |F|      Fx             Fy             Fz
:FCO001:   1.ATOM    515.241466545400      0.000000000000      0.000000000000    515.241466545400

:1S 001: 1S               -3066.990845589 Ry
:2S 001: 2S                -492.744578036 Ry
:2PP001: 2P*               -465.843523336 Ry
:2P 001: 2P                -430.446103975 Ry
:3S 001: 3S                -105.836239835 Ry
:3PP001: 3P*                -94.373999884 Ry
:3P 001: 3P                 -87.366241289 Ry
:3DD001: 3D*                -67.293040682 Ry
:3D 001: 3D                 -65.781506321 Ry
:4S 001: 4S                 -20.514458067 Ry
:4PP001: 4P*                -16.221202372 Ry
:4P 001: 4P                 -14.693770814 Ry
:4DD001: 4D*                 -7.626524909 Ry
:4D 001: 4D                  -7.357098173 Ry

------- case.scfm --------
:CINT001 Core Integral Atom   1   45.998496

       DENSITY AT NUCLEUS
        JATOM        VALENCE       SEMI-CORE          CORE           TOTAL
:RTO001:   1      650.226111        0.000000   656824.345797   657474.571908
     
       CHARGES OF NEW CHARGE DENSITY
:NTO   : INTERSTITIAL CHARGE =     6.988440
:NPC   : PW Pseudocharge     =    16.992205
:NTO001: CHARGE SPHERE  1    =    55.504189

:NEC01: NUCLEAR AND ELECTRONIC CHARGE    118.00000   117.99682
     
       CHARGES OF OLD CHARGE DENSITY
:OTO   : INTERSTITIAL CHARGE =     6.991029
:OPC   : PW Pseudocharge     =    16.999324
:OTO001: CHARGE SPHERE  1    =    55.504486

:NEC02: NUCLEAR AND ELECTRONIC CHARGE    118.00000   118.00000
     
       CONVERGENCE TEST
:DTO001: DIFFERENCE IN SPHERE  1 =  0.0004647

:DIS  :  CHARGE DISTANCE       ( 0.0004647 for atom    1 spin 1)      0.0004647
 PW Mixed is          506
 
******************************************************
* MULTISECANT MIXING VER9 RELEASE 10.4.0              *
* Standard Mode with controls                        *
* Fixed density scale                                *
* Restart from converged density                     *
* Regularization       1.000E-04                     *
* Trust Upper Limit    5.000E+00                     *
* Max Number of Memory Steps    8                    *
******************************************************
 
:INFO : Forcing a restart
:PWTMP   3.8395E+02  1.9467E+02  4.8588E+02
:PLANE:  PW TOTAL      4.6400 DISTAN   1.76E-04  3.79E-03 %
:CHARG:  CLM/ATOM   1381.9555 DISTAN   7.24E-04  5.24E-05 %
 
Step History
        DMIX         DMIXT        Red     Pred      Trust     Lambda    MagRel    MagAbs     Beta
  1   3.5000E-02   3.5000E-02 -1.00E+00  1.00E+00 -1.00E+01  1.00E+00  3.50E-02  3.50E-02  1.00E+00
  2   1.5000E-01   1.5000E-01 -1.00E+00  1.00E+00 -1.00E+01  1.00E+00  1.50E-01  2.55E-04  1.00E+00
:JACOBIANS    1.536E-02   1.119E-01
  
:NORMS:  1/Froebius, Min, Max, Used   0.9598E-01  0.9598E-01  0.2542E+00  0.9598E-01
:INFO :  Number of Memory Steps    1 Skipping    0
:PREDicted Charge, CTotal, PW Trust    1.635E-04   3.271E-04   5.008E-04
:PREDicted DMix, Beta, BLim   5.0000E-02  1.5483E+00  2.5702E+00

Eigenvalues, unscaled except for SY+YY
   #     SY Real        SY Imag          SS             YY         SY+YY Real      SY+YY Imag
   1   2.541880E-01   0.000000E+00   9.597680E-02   1.000000E+00   1.254188E+00   0.000000E+00
 
:BLIM :  VZERO Control Off
:TRUST:  Step 3.00E+00  Charge 7.50E-02 (e) CTO  2.50E-01 (e) PW  3.50E-01 (e)
:DIRM :  MEMORY  1/8  SCALE   1.000 RED  0.44 PRED  1.00 NEXT  0.63 
:TRAVE:  Charge 6.31E-05 (e) CTO  1.26E-04 (e) PW  1.91E-04 (e)
:DIRP :  |MSR1|= 1.202E-04 |PRATT|= 1.759E-04 ANGLE=  33.0 DEGREES
:DIRQ :  |MSR1|= 1.487E-04 |PRATT|= 7.241E-04 ANGLE=  11.0 DEGREES
:DIRT :  |MSR1|= 1.912E-04 |PRATT|= 7.452E-04 ANGLE=  30.0 DEGREES
:MIX  :   MSR1   REGULARIZATION:  1.00E-04 GREED: 0.07125  Newton 1.00  0.2566                
     
       CHARGES OF MIXED CHARGE DENSITY
:CTO   : INTERSTITIAL CHARGE =     6.991155
:CPC   : PW Pseudocharge     =    16.999675
:CTO001: CHARGE SPHERE  1    =    55.504423

:NEC03: NUCLEAR AND ELECTRONIC CHARGE    118.00000   118.00000

PW CHANGE     H    K    L      Current       Change    Residue
:PTO001:      0    0    0  4.93760393E-02  9.834E-07  2.490E-06
:PTO003:      0    2    0  1.37281393E-02  1.432E-07 -2.756E-07
:PTO004:     -1    1    0  6.82340413E-02  1.508E-06  1.977E-06
:PTO005:      0    2   -1 -7.95959910E-02 -1.779E-06 -2.282E-06
:PTO006:      0    0   -2 -4.12280903E-02 -1.014E-06 -1.632E-06
:PTO007:     -1    1   -1 -8.67499001E-02 -2.245E-06 -3.377E-06
:PTO008:      0    2   -2 -1.44208433E-02 -3.201E-07 -8.831E-09
:PTO009:     -1    1   -2 -7.38676409E-02 -1.968E-06 -1.281E-06
:PTO011:     -1    3    0 -1.22028059E-02 -4.322E-07 -5.003E-07
:PTO012:     -1    3   -1 -5.50537755E-02 -1.753E-06 -9.116E-07
:PTO013:      0    4    0 -1.01523887E-02 -3.962E-07 -3.825E-07
:PTO014:      0    2   -3  2.31281967E-02  8.496E-07  6.023E-07

:ENE  : ********** TOTAL ENERGY IN Ry =       -36944.23539863

       TOTAL FORCE IN mRy/a.u. = |F|     Fx             Fy             Fz     with/without FOR in case.in2
:FOR001:   1.ATOM         16.153          0.000          0.000        -16.153 partial forces
       TOTAL FORCE WITH RESPECT TO GLOBAL CARTESIAN COORDINATES:
:FCA001:   1.ATOM                         0.000        -16.153          0.000 partial forces
       TOTAL FORCE WITH RESPECT TO THE GLOBAL COORDINATE SYSTEM:
:FGL001:   1.ATOM                 0.000000000   -16.152851226     0.000000000 partial forces
