
------- UO2_6.scf0 --------


            ---------
:ITE084: 84. ITERATION
            ---------

:NATO :    2 INDEPENDENT AND    3 TOTAL ATOMS IN UNITCELL
       SUBSTANCE: blebleble                                                   

       LATTICE                      = F   
:POT  : POTENTIAL OPTION    5
:LAT  : LATTICE CONSTANTS= 10.34250 10.34250 10.34250    1.571    1.571    1.571
:VOL  : UNIT CELL VOLUME =     276.57734
       MODE OF CALCULATION IS       = RELA
       NON-SPINPOLARIZED CALCULATION
:IFFT  : FFT-parameters:   80   80   80 Factor: 2.00
       ATOMNUMBER=  1 U  4+      VCOUL-ZERO = -0.44629E+00
       ATOMNUMBER=  2 O  2-      VCOUL-ZERO =  0.83843E+00
:FIT001: LUSE= 13 SIGMA OF V-XC FIT FOR ATOM  1  0.6563219E-04
:FIT001: LUSE= 13 SIGMA OF V-XC FIT FOR ATOM  1  0.6563219E-04
:FIT002: LUSE= 13 SIGMA OF V-XC FIT FOR ATOM  2  0.1337025E-03
:FIT002: LUSE= 13 SIGMA OF V-XC FIT FOR ATOM  2  0.1337025E-03
:DEN  : DENSITY INTEGRAL  =        -20905.01826120   (Ry)
       ELS_POTENTIAL_AT Z=0 and Z=0.5:  -3.39303  -3.39303
       ELS_POTENTIAL_AT Y=0 and Y=0.5:   0.00000   0.00000
:VZERO:v0,v0c,v0x  -4.12056  -3.39303  -0.72753 v5,v5c,v5x  -4.12056  -3.39303  -0.72753
:VZERY:v0,v0c,v0x  -0.86928   0.00000  -0.86928 v5,v5c,v5x  -0.86928   0.00000  -0.86928
:VZERX:v0,v0c,v0x  -0.86928   0.00000  -0.86928 v5,v5c,v5x  -0.86928   0.00000  -0.86928

------- UO2_6.scf1 --------

          ATOMIC SPHERE DEPENDENT PARAMETERS FOR ATOM  U  4+     
:e__0001: OVERALL ENERGY PARAMETER IS    0.7682
          OVERALL BASIS SET ON ATOM IS LAPW
:E0_0001: E( 0)=    0.7682
             APW+lo
:E0_0001: E( 0)=   -2.1957   E(BOTTOM)=   -3.544   E(TOP)=   -0.848  5  6   236
             LOCAL ORBITAL
:E1_0001: E( 1)=   -1.2800   E(BOTTOM)=   -1.811   E(TOP)= -200.000  4 -1   214
             APW+lo
:E1_0001: E( 1)=    1.1682
             LOCAL ORBITAL
:E3_0001: E( 3)=    1.0317   E(BOTTOM)=    0.242   E(TOP)=    1.821  1  2   183
             APW+lo
:E2_0001: E( 2)=    0.8006   E(BOTTOM)=    0.801   E(TOP)= -200.000  3 -1   111
             APW+lo

          ATOMIC SPHERE DEPENDENT PARAMETERS FOR ATOM  O  2-     
:e__0002: OVERALL ENERGY PARAMETER IS    0.7682
          OVERALL BASIS SET ON ATOM IS LAPW
:E0_0002: E( 0)=   -0.2814   E(BOTTOM)=   -1.651   E(TOP)=    1.088  1  2   245
             APW+lo
:E0_0002: E( 0)=    1.1682
             LOCAL ORBITAL
:E1_0002: E( 1)=    0.7682
             APW+lo

       K=   0.00000   0.00000   0.00000            1
:RKM  : MATRIX SIZE  755LOs:  30  RKM= 8.47  WEIGHT= 1.00  PGR:    
       EIGENVALUES ARE:
:EIG00001:      -2.2812897   -0.4879824   -0.4339578   -0.4339578   -0.4339578
:EIG00006:      -0.3867403    0.4309587    0.4309587    0.4309587    0.6627207
:EIG00011:       0.6627207    0.6627207    1.0042298    1.0042298    1.0042298
:EIG00016:       1.0431213    1.0691222    1.0691222    1.0691222    1.1349685
:EIG00021:       1.1683051    1.1683051    1.6722400    1.6722400    1.6722400
:EIG00026:       1.8856047    1.8856047    1.8856047    2.2831854    2.6195364
:EIG00031:       2.6195364    2.6389495    2.6389495    2.6389495    3.0511164
:EIG00036:       3.0511164    3.0511164    3.1784567    3.1784567    3.1784567
:EIG00041:       3.2942054    3.6419253    3.6419253    3.7384336    3.7384336
:EIG00046:       3.7384336    3.7708692    3.7708692    3.7794888    3.7794888
 
:EIG00051:       3.7794888    3.9415141    4.0398307    4.0398307    4.0398307
:EIG00056:       4.0959020    4.1574214    4.1574214    4.1574214    4.2334446
:EIG00061:       4.2334446    4.2334446    4.2646083    4.2646083    4.2646083
:EIG00066:       4.6017180    5.1376549    5.1376549    5.1376549    5.3567224
:EIG00071:       5.3567224    5.4148369    5.4148369    5.4148369    5.5814172
:EIG00076:       6.0245805    6.0245805    6.0537400    6.0537400    6.0537400
:EIG00081:       6.2303345    6.2303345    6.2303345    6.3178393    6.3178393
:EIG00086:       6.3178393    6.5981488    6.5981488    6.5981488    6.6917865
:EIG00091:       6.6917865    6.6927197    6.7779374    6.7779374    6.8131512
:EIG00096:       6.8131512    6.8131512    6.9872773    6.9872773    6.9872773
 
:EIG00101:       7.0286634    7.0496451    7.0496451    7.0496451    7.1954581
:EIG00106:       7.1954581    7.1954581    7.2521965    7.3889067    7.4774323
:EIG00111:       7.4774323    7.4794770    7.4794770    7.4794770    7.4858395
:EIG00116:       7.4858395    7.4858395    7.6250436    7.6250436    7.6250436
:EIG00121:       7.8710202    7.8710202    7.8710202    8.2691913    8.2691913
:EIG00126:       8.2691913    8.3889384    8.3889384    8.3889384    8.4649116
       ********************************************************

:KPT   :      NUMBER OF K-POINTS:   145

------- UO2_6.scfso --------
   0.0   0.0 angle (M,z), angle (M,x) deg
 
        SPIN-ORBIT EIGENVALUES:
     K=   0.00000   0.00000   0.00000            1
      MATRIX SIZE=  260   WEIGHT= 1.00
     EIGENVALUES ARE:
          -2.2812897   -2.2812897   -0.8412011   -0.8412011   -0.4879824
          -0.4879824   -0.3867442   -0.3867442   -0.2693695   -0.2693695
          -0.2693695   -0.2693695    0.4290446    0.4290446    0.4290446
           0.4290446    0.4339689    0.4339689    0.6567903    0.6567903
           0.6655815    0.6655815    0.6655815    0.6655815    0.9765553
           0.9765553    0.9952025    0.9952025    0.9952025    0.9952025
           1.0606475    1.0606475    1.0736145    1.0736145    1.0736145
           1.0736145    1.0880592    1.0880592    1.1349685    1.1349685

           1.1663379    1.1663379    1.1663379    1.1663379    1.6609774
           1.6609774    1.6609774    1.6609774    1.6948695    1.6948695
           1.8229920    1.8229920    1.9139537    1.9139537    1.9139537
           1.9139537    2.2831854    2.2831854    2.6100107    2.6100107
           2.6100107    2.6100107    2.6439164    2.6439164    2.6439164
           2.6439164    2.6481634    2.6481634    2.8757857    2.8757857
           3.1470389    3.1470389    3.1470390    3.1470390    3.1752320
           3.1752320    3.1803822    3.1803822    3.1803822    3.1803822

           3.2948469    3.2948469    3.6368657    3.6368657    3.6368657
           3.6368657    3.7353365    3.7353365    3.7353365    3.7353365
           3.7567593    3.7567593    3.7708692    3.7708692    3.7708692
           3.7708692    3.7794715    3.7794715    3.7794974    3.7794974
           3.7794974    3.7794974    3.9415142    3.9415142    4.0399116
           4.0399116    4.0399116    4.0399116    4.0401512    4.0401512
           4.0959020    4.0959020    4.1574188    4.1574188    4.1574188
           4.1574188    4.1574513    4.1574513    4.2268050    4.2268050

           4.2373457    4.2373457    4.2373457    4.2373457    4.2633854
           4.2633854    4.2663308    4.2663308    4.2663308    4.2663308

       ********************************************************

------- UO2_6.scf2 --------
:GMA  : POTENTIAL AND CHARGE CUT-OFF  12.00 Ry**.5
         Bandranges (emin - emax) and occupancy:
:BAN00018:  18    0.433969    0.657480  1.00000000
:BAN00019:  19    0.537236    0.658027  1.00000000
:BAN00020:  20    0.537236    0.658027  1.00000000
:BAN00021:  21    0.621902    0.687699  1.00000000
:BAN00022:  22    0.621902    0.687699  1.00000000
:BAN00023:  23    0.659879    0.721178  1.00000000
:BAN00024:  24    0.659879    0.721178  1.00000000
:BAN00025:  25    0.925042    0.976555  0.94110802
:BAN00026:  26    0.925042    0.976555  0.94110802
:BAN00027:  27    0.962769    0.995202  0.05889198
:BAN00028:  28    0.962769    0.995202  0.05889198
:BAN00029:  29    0.972544    0.995202  0.00000000
:BAN00030:  30    0.972544    0.995202  0.00000000
:BAN00031:  31    0.993189    1.060648  0.00000000
:BAN00032:  32    0.993189    1.060648  0.00000000
:BAN00033:  33    1.024762    1.073614  0.00000000
        Energy to separate low and high energystates:    0.87504


:NLDA  : NUMBER OF ELECTRONS          =  26.000

:FLDA  : F E R M I - ENERGY           =   1.46732




:POS001: AT.NR.   1 POSITION = 0.00000 0.00000 0.00000  MULTIPLICITY =  1

       LMMAX  5
       LM=   0 0  4 0  4 4  6 0  6 4




:POS002: AT.NR.   2 POSITION = 0.00000 0.00000 0.00000  MULTIPLICITY =  2

       LMMAX  6
       LM=   0 0  4 0  4 4  6 0  6 4 -3 2
:FER DMFT Fermi Energy   0.93428
:EORB          0.098423599
:SUM SUM OF DMFT BAND ENERGIES         -0.152657550

:CHA001: TOTAL CHARGE INSIDE SPHERE   1 =     8.208644
:PCS001: PARTIAL CHARGES SPHERE =  1 S,P,D,F,      D-EG,D-T2G 
:QTL001: 1.7984 4.1794 0.2408 1.9864 0.0000 0.0000 0.0000 0.0558 0.2025 0.0000 0.0000 0.0000
        Q-s-low E-s-low   Q-p-low E-p-low   Q-d-low E-d-low   Q-f-low E-f-low
:EPL001:  1.7982 -2.1931    4.1774 -0.4086    0.2380  0.4818    0.2500  0.6166
        Q-s-hi  E-s-hi    Q-p-hi  E-p-hi    Q-d-hi  E-d-hi    Q-f-hi  E-f-hi 
:EPH001:  0.0002  1.0014    0.0020  0.9846    0.0028  0.9816    1.7364  0.9590

:CHA002: TOTAL CHARGE INSIDE SPHERE   2 =     5.201227
:PCS002: PARTIAL CHARGES SPHERE =  2 S,P,D,F,      D-EG,D-T2G 
:QTL002: 1.5800 3.6073 0.0118 0.0018 0.0000 0.0000 0.0000 0.0041 0.0129 0.0000 0.0000 0.0000
        Q-s-low E-s-low   Q-p-low E-p-low   Q-d-low E-d-low   Q-f-low E-f-low
:EPL002:  1.5784 -0.4111    3.5879  0.5727    0.0094  0.0449    0.0015 -0.0598
        Q-s-hi  E-s-hi    Q-p-hi  E-p-hi    Q-d-hi  E-d-hi    Q-f-hi  E-f-hi 
:EPH002:  0.0016  0.9789    0.0194  0.9810    0.0024  0.9535    0.0003  0.9653

:CHA  : TOTAL CHARGE INSIDE UNIT CELL =      26.000000

:ESUM  : SUM OF EIGENVALUES =          -0.092654088


------- UO2_6.scfc --------

        1.ATOM      U  4+                21 CORE STATES
:1S 001: 1S               -8506.301116747 Ry
:2S 001: 2S               -1587.749234586 Ry
:2PP001: 2P*              -1530.995014357 Ry
:2P 001: 2P               -1249.799247752 Ry
:3S 001: 3S                -399.890141953 Ry
:3PP001: 3P*               -374.116851792 Ry
:3P 001: 3P                -309.333614277 Ry
:3DD001: 3D*               -268.521145367 Ry
:3D 001: 3D                -255.375922124 Ry
:4S 001: 4S                -100.959228597 Ry
:4PP001: 4P*                -89.365673985 Ry
:4P 001: 4P                 -72.455922199 Ry
:4DD001: 4D*                -53.991120423 Ry
:4D 001: 4D                 -50.882534384 Ry
:5S 001: 5S                 -21.551996717 Ry
:5PP001: 5P*                -17.045320388 Ry
:5P 001: 5P                 -13.015318040 Ry
:4FF001: 4F*                -26.596142638 Ry
:4F 001: 4F                 -25.786146916 Ry
:5DD001: 5D*                 -6.426525575 Ry
:5D 001: 5D                  -5.828452555 Ry

        2.ATOM      O  2-                 1 CORE STATES
:1S 002: 1S                 -35.997831318 Ry

------- UO2_6.scfm --------
:CINT001 Core Integral Atom   1   77.964239
:CINT002 Core Integral Atom   2    2.000000
     
       CHARGES OF NEW CHARGE DENSITY
:NTO   : INTERSTITIAL CHARGE =     7.388881
:NTO001: CHARGE SPHERE  1    =    86.172884
:NTO002: CHARGE SPHERE  2    =     7.201227

:NEC01: NUCLEAR AND ELECTRONIC CHARGE    108.00000   107.96422
     
       CHARGES OF OLD CHARGE DENSITY
:OTO   : INTERSTITIAL CHARGE =     7.458889
:OTO001: CHARGE SPHERE  1    =    86.204218
:OTO002: CHARGE SPHERE  2    =     7.168446
:DNEW  1   -0.0313
:DNEW  2    0.0328

:NEC02: NUCLEAR AND ELECTRONIC CHARGE    108.00000   108.00000
     
       CONVERGENCE TEST
:DTO001: DIFFERENCE IN SPHERE  1 =  0.0209577
:DTO002: DIFFERENCE IN SPHERE  2 =  0.0409318

:DIS  :  CHARGE DISTANCE       ( 0.0409318 for atom    2 spin 1)      0.0342737
:BIG check (qbig,qrms,qtot)    0.136D-01   0.251D-01   0.343D-01
 
******************************************************
* MULTISECANT MIXING VER6 RELEASE 6.0 OPTIONS        *
* Standard Mode with controls                        *
* Regularization       1.000E-06                     *
* Trust Region Control Active                        *
* Max Number of Memory Steps    8                    *
******************************************************
 
:PLANE:  INTERSTITIAL TOTAL      2.52852 DISTAN  3.398E-01 % 
:CHARG:  CLM CHARGE   /ATOM    345.91275 DISTAN  1.976E-02 % 
:DIRM :  MEMORY  0/8 RESCALES   1.00
:MIX  :   PRATT  REGULARIZATION: 1.00E-06  GREED: 0.025
     
       CHARGES OF MIXED CHARGE DENSITY
:CTO   : INTERSTITIAL CHARGE =     7.458034
:CTO001: CHARGE SPHERE  1    =    86.203435
:CTO002: CHARGE SPHERE  2    =     7.169266

:NEC03: NUCLEAR AND ELECTRONIC CHARGE    108.00000   108.00000

PW CHANGE     H    K    L       Current     Change     Residue
:PTO001:      0    0    0  9.11586410E-02 -1.388E-06 -5.551E-05
:PTO002:     -1   -1   -1  2.18450919E-01 -7.748E-06 -3.099E-04
:PTO003:      0    0   -2 -3.12248134E-04 -2.080E-05 -8.319E-04
:PTO004:      0   -2   -2  2.94284490E-01  2.560E-05  1.024E-03
:PTO005:     -1   -1   -3  1.52927817E-01  1.131E-05  4.524E-04
:PTO006:     -2   -2   -2 -2.14643002E-02 -1.970E-06 -7.880E-05
:PTO007:      0    0   -4  4.23432212E-02  3.070E-06  1.228E-04
:PTO008:     -1   -3   -3  2.73240649E-02  4.958E-06  1.983E-04
:PTO009:      0   -2   -4 -5.30751691E-02 -3.477E-06 -1.391E-04
:PTO010:     -2   -2   -4  3.95874334E-02  8.248E-06  3.299E-04
:PTO011:     -3   -3   -3 -5.65455989E-03  5.601E-06  2.240E-04
:PTO012:     -1   -1   -5 -6.22536698E-03 -4.779E-06 -1.912E-04

:ENE  : ********** TOTAL ENERGY IN Ry =       -56437.57203873


------- UO2_6.scf0 --------


            ---------
:ITE085: 85. ITERATION
            ---------

:NATO :    2 INDEPENDENT AND    3 TOTAL ATOMS IN UNITCELL
       SUBSTANCE: blebleble                                                   

       LATTICE                      = F   
:POT  : POTENTIAL OPTION    5
:LAT  : LATTICE CONSTANTS= 10.34250 10.34250 10.34250    1.571    1.571    1.571
:VOL  : UNIT CELL VOLUME =     276.57734
       MODE OF CALCULATION IS       = RELA
       NON-SPINPOLARIZED CALCULATION
:IFFT  : FFT-parameters:   80   80   80 Factor: 2.00
       ATOMNUMBER=  1 U  4+      VCOUL-ZERO = -0.44663E+00
       ATOMNUMBER=  2 O  2-      VCOUL-ZERO =  0.83875E+00
:FIT001: LUSE= 13 SIGMA OF V-XC FIT FOR ATOM  1  0.6562815E-04
:FIT001: LUSE= 13 SIGMA OF V-XC FIT FOR ATOM  1  0.6562815E-04
:FIT002: LUSE= 13 SIGMA OF V-XC FIT FOR ATOM  2  0.1335370E-03
:FIT002: LUSE= 13 SIGMA OF V-XC FIT FOR ATOM  2  0.1335370E-03
:DEN  : DENSITY INTEGRAL  =        -20904.96431876   (Ry)
       ELS_POTENTIAL_AT Z=0 and Z=0.5:  -3.39376  -3.39376
       ELS_POTENTIAL_AT Y=0 and Y=0.5:   0.00000   0.00000
:VZERO:v0,v0c,v0x  -4.12118  -3.39376  -0.72742 v5,v5c,v5x  -4.12118  -3.39376  -0.72742
:VZERY:v0,v0c,v0x  -0.86926   0.00000  -0.86926 v5,v5c,v5x  -0.86926   0.00000  -0.86926
:VZERX:v0,v0c,v0x  -0.86926   0.00000  -0.86926 v5,v5c,v5x  -0.86926   0.00000  -0.86926

------- UO2_6.scf1 --------

          ATOMIC SPHERE DEPENDENT PARAMETERS FOR ATOM  U  4+     
:e__0001: OVERALL ENERGY PARAMETER IS    0.7682
          OVERALL BASIS SET ON ATOM IS LAPW
:E0_0001: E( 0)=    0.7682
             APW+lo
:E0_0001: E( 0)=   -2.1962   E(BOTTOM)=   -3.544   E(TOP)=   -0.848  5  6   234
             LOCAL ORBITAL
:E1_0001: E( 1)=   -1.2800   E(BOTTOM)=   -1.811   E(TOP)= -200.000  4 -1   216
             APW+lo
:E1_0001: E( 1)=    1.1682
             LOCAL ORBITAL
:E3_0001: E( 3)=    1.0310   E(BOTTOM)=    0.242   E(TOP)=    1.820  1  2   180
             APW+lo
:E2_0001: E( 2)=    0.8001   E(BOTTOM)=    0.800   E(TOP)= -200.000  3 -1   111
             APW+lo

          ATOMIC SPHERE DEPENDENT PARAMETERS FOR ATOM  O  2-     
:e__0002: OVERALL ENERGY PARAMETER IS    0.7682
          OVERALL BASIS SET ON ATOM IS LAPW
:E0_0002: E( 0)=   -0.2806   E(BOTTOM)=   -1.650   E(TOP)=    1.089  1  2   241
             APW+lo
:E0_0002: E( 0)=    1.1682
             LOCAL ORBITAL
:E1_0002: E( 1)=    0.7682
             APW+lo

       K=   0.00000   0.00000   0.00000            1
:RKM  : MATRIX SIZE  755LOs:  30  RKM= 8.47  WEIGHT= 1.00  PGR:    
       EIGENVALUES ARE:
:EIG00001:      -2.2817864   -0.4874102   -0.4343296   -0.4343296   -0.4343296
:EIG00006:      -0.3860755    0.4313639    0.4313639    0.4313639    0.6631334
:EIG00011:       0.6631334    0.6631334    1.0036901    1.0036901    1.0036901
:EIG00016:       1.0426186    1.0688262    1.0688262    1.0688262    1.1350924
:EIG00021:       1.1681521    1.1681521    1.6724222    1.6724222    1.6724222
:EIG00026:       1.8855898    1.8855898    1.8855898    2.2831920    2.6195017
:EIG00031:       2.6195017    2.6390412    2.6390412    2.6390412    3.0511533
:EIG00036:       3.0511533    3.0511533    3.1783663    3.1783663    3.1783663
:EIG00041:       3.2943995    3.6417799    3.6417799    3.7384950    3.7384950
:EIG00046:       3.7384950    3.7711199    3.7711199    3.7794000    3.7794000
 
:EIG00051:       3.7794000    3.9414725    4.0399387    4.0399387    4.0399387
:EIG00056:       4.0958177    4.1574393    4.1574393    4.1574393    4.2333773
:EIG00061:       4.2333773    4.2333773    4.2645701    4.2645701    4.2645701
:EIG00066:       4.6017295    5.1378648    5.1378648    5.1378648    5.3567029
:EIG00071:       5.3567029    5.4149926    5.4149926    5.4149926    5.5813753
:EIG00076:       6.0244555    6.0244555    6.0536589    6.0536589    6.0536589
:EIG00081:       6.2303596    6.2303596    6.2303596    6.3176851    6.3176851
:EIG00086:       6.3176851    6.5982943    6.5982943    6.5982943    6.6918646
:EIG00091:       6.6918646    6.6928229    6.7780344    6.7780344    6.8131012
:EIG00096:       6.8131012    6.8131012    6.9873084    6.9873084    6.9873084
 
:EIG00101:       7.0288326    7.0495333    7.0495333    7.0495333    7.1955698
:EIG00106:       7.1955698    7.1955698    7.2522350    7.3888623    7.4774705
:EIG00111:       7.4774705    7.4795174    7.4795174    7.4795174    7.4859171
:EIG00116:       7.4859171    7.4859171    7.6250671    7.6250671    7.6250671
:EIG00121:       7.8709881    7.8709881    7.8709881    8.2692165    8.2692165
:EIG00126:       8.2692165    8.3889619    8.3889619    8.3889619    8.4647781
       ********************************************************

:KPT   :      NUMBER OF K-POINTS:   145

------- UO2_6.scfso --------
   0.0   0.0 angle (M,z), angle (M,x) deg
 
        SPIN-ORBIT EIGENVALUES:
     K=   0.00000   0.00000   0.00000            1
      MATRIX SIZE=  260   WEIGHT= 1.00
     EIGENVALUES ARE:
          -2.2817864   -2.2817864   -0.8416269   -0.8416269   -0.4874102
          -0.4874102   -0.3860794   -0.3860794   -0.2697123   -0.2697123
          -0.2697123   -0.2697123    0.4294455    0.4294455    0.4294455
           0.4294455    0.4343810    0.4343810    0.6572426    0.6572426
           0.6659647    0.6659647    0.6659647    0.6659647    0.9760185
           0.9760185    0.9947185    0.9947185    0.9947185    0.9947185
           1.0601406    1.0601406    1.0732807    1.0732807    1.0732807
           1.0732807    1.0877422    1.0877422    1.1350924    1.1350924

           1.1661855    1.1661855    1.1661855    1.1661855    1.6611557
           1.6611557    1.6611557    1.6611557    1.6950585    1.6950585
           1.8229527    1.8229527    1.9139505    1.9139505    1.9139505
           1.9139505    2.2831920    2.2831920    2.6100167    2.6100167
           2.6100167    2.6100167    2.6439704    2.6439704    2.6439704
           2.6439704    2.6482504    2.6482504    2.8758361    2.8758361
           3.1470693    3.1470693    3.1470693    3.1470693    3.1751433
           3.1751433    3.1802933    3.1802933    3.1802933    3.1802933

           3.2950396    3.2950396    3.6367339    3.6367339    3.6367339
           3.6367339    3.7353865    3.7353865    3.7353865    3.7353865
           3.7568166    3.7568166    3.7711199    3.7711199    3.7711199
           3.7711199    3.7793827    3.7793827    3.7794087    3.7794087
           3.7794087    3.7794087    3.9414725    3.9414725    4.0400202
           4.0400202    4.0400202    4.0400202    4.0402593    4.0402593
           4.0958177    4.0958177    4.1574368    4.1574368    4.1574368
           4.1574368    4.1574689    4.1574689    4.2267450    4.2267450

           4.2372758    4.2372758    4.2372758    4.2372758    4.2633477
           4.2633477    4.2662905    4.2662905    4.2662905    4.2662905

       ********************************************************

------- UO2_6.scf2 --------
:GMA  : POTENTIAL AND CHARGE CUT-OFF  12.00 Ry**.5
         Bandranges (emin - emax) and occupancy:
:BAN00018:  18    0.434381    0.658048  1.00000000
:BAN00019:  19    0.537676    0.658395  1.00000000
:BAN00020:  20    0.537676    0.658395  1.00000000
:BAN00021:  21    0.622297    0.688206  1.00000000
:BAN00022:  22    0.622297    0.688206  1.00000000
:BAN00023:  23    0.660261    0.721703  1.00000000
:BAN00024:  24    0.660261    0.721703  1.00000000
:BAN00025:  25    0.924570    0.976019  0.94122403
:BAN00026:  26    0.924570    0.976019  0.94122403
:BAN00027:  27    0.962294    0.994719  0.05877597
:BAN00028:  28    0.962294    0.994719  0.05877597
:BAN00029:  29    0.972066    0.994719  0.00000000
:BAN00030:  30    0.972066    0.994719  0.00000000
:BAN00031:  31    0.992747    1.060141  0.00000000
:BAN00032:  32    0.992747    1.060141  0.00000000
:BAN00033:  33    1.024292    1.073281  0.00000000
        Energy to separate low and high energystates:    0.87457


:NLDA  : NUMBER OF ELECTRONS          =  26.000

:FLDA  : F E R M I - ENERGY           =   1.46685




:POS001: AT.NR.   1 POSITION = 0.00000 0.00000 0.00000  MULTIPLICITY =  1

       LMMAX  5
       LM=   0 0  4 0  4 4  6 0  6 4




:POS002: AT.NR.   2 POSITION = 0.00000 0.00000 0.00000  MULTIPLICITY =  2

       LMMAX  6
       LM=   0 0  4 0  4 4  6 0  6 4 -3 2
:FER DMFT Fermi Energy   0.93550
:EORB          0.093974517
:SUM SUM OF DMFT BAND ENERGIES         -0.144417524

:CHA001: TOTAL CHARGE INSIDE SPHERE   1 =     8.208244
:PCS001: PARTIAL CHARGES SPHERE =  1 S,P,D,F,      D-EG,D-T2G 
:QTL001: 1.7985 4.1799 0.2413 1.9849 0.0000 0.0000 0.0000 0.0560 0.2028 0.0000 0.0000 0.0000
        Q-s-low E-s-low   Q-p-low E-p-low   Q-d-low E-d-low   Q-f-low E-f-low
:EPL001:  1.7983 -2.1935    4.1779 -0.4089    0.2385  0.4823    0.2490  0.6168
        Q-s-hi  E-s-hi    Q-p-hi  E-p-hi    Q-d-hi  E-d-hi    Q-f-hi  E-f-hi 
:EPH001:  0.0002  1.0007    0.0020  0.9841    0.0028  0.9812    1.7360  0.9585

:CHA002: TOTAL CHARGE INSIDE SPHERE   2 =     5.200161
:PCS002: PARTIAL CHARGES SPHERE =  2 S,P,D,F,      D-EG,D-T2G 
:QTL002: 1.5798 3.6064 0.0118 0.0018 0.0000 0.0000 0.0000 0.0041 0.0129 0.0000 0.0000 0.0000
        Q-s-low E-s-low   Q-p-low E-p-low   Q-d-low E-d-low   Q-f-low E-f-low
:EPL002:  1.5782 -0.4104    3.5871  0.5732    0.0094  0.0455    0.0015 -0.0596
        Q-s-hi  E-s-hi    Q-p-hi  E-p-hi    Q-d-hi  E-d-hi    Q-f-hi  E-f-hi 
:EPH002:  0.0016  0.9784    0.0194  0.9805    0.0024  0.9531    0.0003  0.9648

:CHA  : TOTAL CHARGE INSIDE UNIT CELL =      26.000000

:ESUM  : SUM OF EIGENVALUES =          -0.088614417


------- UO2_6.scfc --------

        1.ATOM      U  4+                21 CORE STATES
:1S 001: 1S               -8506.301988271 Ry
:2S 001: 2S               -1587.750108886 Ry
:2PP001: 2P*              -1530.995888131 Ry
:2P 001: 2P               -1249.800121982 Ry
:3S 001: 3S                -399.891010165 Ry
:3PP001: 3P*               -374.117721100 Ry
:3P 001: 3P                -309.334480558 Ry
:3DD001: 3D*               -268.522015182 Ry
:3D 001: 3D                -255.376791240 Ry
:4S 001: 4S                -100.960057333 Ry
:4PP001: 4P*                -89.366503101 Ry
:4P 001: 4P                 -72.456743584 Ry
:4DD001: 4D*                -53.991942814 Ry
:4D 001: 4D                 -50.883354565 Ry
:5S 001: 5S                 -21.552760460 Ry
:5PP001: 5P*                -17.046077861 Ry
:5P 001: 5P                 -13.016056571 Ry
:4FF001: 4F*                -26.596966772 Ry
:4F 001: 4F                 -25.786969905 Ry
:5DD001: 5D*                 -6.427237669 Ry
:5D 001: 5D                  -5.829156459 Ry

        2.ATOM      O  2-                 1 CORE STATES
:1S 002: 1S                 -35.996342456 Ry

------- UO2_6.scfm --------
:CINT001 Core Integral Atom   1   77.964245
:CINT002 Core Integral Atom   2    2.000000
     
       CHARGES OF NEW CHARGE DENSITY
:NTO   : INTERSTITIAL CHARGE =     7.391447
:NTO001: CHARGE SPHERE  1    =    86.172489
:NTO002: CHARGE SPHERE  2    =     7.200160

:NEC01: NUCLEAR AND ELECTRONIC CHARGE    108.00000   107.96426
     
       CHARGES OF OLD CHARGE DENSITY
:OTO   : INTERSTITIAL CHARGE =     7.458034
:OTO001: CHARGE SPHERE  1    =    86.203435
:OTO002: CHARGE SPHERE  2    =     7.169266
:DNEW  1   -0.0309
:DNEW  2    0.0309

:NEC02: NUCLEAR AND ELECTRONIC CHARGE    108.00000   108.00000
     
       CONVERGENCE TEST
:DTO001: DIFFERENCE IN SPHERE  1 =  0.0208650
:DTO002: DIFFERENCE IN SPHERE  2 =  0.0381519

:DIS  :  CHARGE DISTANCE       ( 0.0381519 for atom    2 spin 1)      0.0323896
:BIG check (qbig,qrms,qtot)    0.127D-01   0.236D-01   0.324D-01
 
******************************************************
* MULTISECANT MIXING VER6 RELEASE 6.0 OPTIONS        *
* Standard Mode with controls                        *
* Regularization       1.000E-06                     *
* Trust Region Control Active                        *
* Max Number of Memory Steps    8                    *
******************************************************
 
:PLANE:  INTERSTITIAL TOTAL      2.52856 DISTAN  3.235E-01 % 
:CHARG:  CLM CHARGE   /ATOM    345.91274 DISTAN  1.874E-02 % 
 
 Step History DMIX, Red, Pred, Trust, FRMS, FABS
  2  2.5000E-02  1.0000E+00  1.0000E+00  1.0000E+00
  
:DIRM :  MEMORY  1/8 RESCALES  15.88
:MIX  :   PRATT  REGULARIZATION: 1.00E-06  GREED: 0.062  Expand 2.50  0.06                
     
       CHARGES OF MIXED CHARGE DENSITY
:CTO   : INTERSTITIAL CHARGE =     7.455467
:CTO001: CHARGE SPHERE  1    =    86.201085
:CTO002: CHARGE SPHERE  2    =     7.171724

:NEC03: NUCLEAR AND ELECTRONIC CHARGE    108.00000   108.00000

PW CHANGE     H    K    L       Current     Change     Residue
:PTO001:      0    0    0  9.11544781E-02 -4.163E-06 -4.486E-05
:PTO002:     -1   -1   -1  2.18427676E-01 -2.324E-05 -2.885E-04
:PTO003:      0    0   -2 -3.74644080E-04 -6.240E-05 -7.816E-04
:PTO004:      0   -2   -2  2.94361293E-01  7.680E-05  9.802E-04
:PTO005:     -1   -1   -3  1.52961744E-01  3.393E-05  4.749E-04
:PTO006:     -2   -2   -2 -2.14702104E-02 -5.910E-06 -4.376E-05
:PTO007:      0    0   -4  4.23524306E-02  9.209E-06  1.112E-04
:PTO008:     -1   -3   -3  2.73389402E-02  1.488E-05  2.162E-04
:PTO009:      0   -2   -4 -5.30855994E-02 -1.043E-05 -8.495E-05
:PTO010:     -2   -2   -4  3.96121774E-02  2.474E-05  3.110E-04
:PTO011:     -3   -3   -3 -5.63775641E-03  1.680E-05  2.223E-04
:PTO012:     -1   -1   -5 -6.23970334E-03 -1.434E-05 -1.845E-04

:ENE  : ********** TOTAL ENERGY IN Ry =       -56437.57212910


------- UO2_6.scf0 --------


            ---------
:ITE086: 86. ITERATION
            ---------

:NATO :    2 INDEPENDENT AND    3 TOTAL ATOMS IN UNITCELL
       SUBSTANCE: blebleble                                                   

       LATTICE                      = F   
:POT  : POTENTIAL OPTION    5
:LAT  : LATTICE CONSTANTS= 10.34250 10.34250 10.34250    1.571    1.571    1.571
:VOL  : UNIT CELL VOLUME =     276.57734
       MODE OF CALCULATION IS       = RELA
       NON-SPINPOLARIZED CALCULATION
:IFFT  : FFT-parameters:   80   80   80 Factor: 2.00
       ATOMNUMBER=  1 U  4+      VCOUL-ZERO = -0.44765E+00
       ATOMNUMBER=  2 O  2-      VCOUL-ZERO =  0.83972E+00
:FIT001: LUSE= 13 SIGMA OF V-XC FIT FOR ATOM  1  0.6561680E-04
:FIT001: LUSE= 13 SIGMA OF V-XC FIT FOR ATOM  1  0.6561680E-04
:FIT002: LUSE= 13 SIGMA OF V-XC FIT FOR ATOM  2  0.1330413E-03
:FIT002: LUSE= 13 SIGMA OF V-XC FIT FOR ATOM  2  0.1330413E-03
:DEN  : DENSITY INTEGRAL  =        -20904.80250410   (Ry)
       ELS_POTENTIAL_AT Z=0 and Z=0.5:  -3.39594  -3.39594
       ELS_POTENTIAL_AT Y=0 and Y=0.5:   0.00000   0.00000
:VZERO:v0,v0c,v0x  -4.12304  -3.39594  -0.72710 v5,v5c,v5x  -4.12304  -3.39594  -0.72710
:VZERY:v0,v0c,v0x  -0.86919   0.00000  -0.86919 v5,v5c,v5x  -0.86919   0.00000  -0.86919
:VZERX:v0,v0c,v0x  -0.86919   0.00000  -0.86919 v5,v5c,v5x  -0.86919   0.00000  -0.86919

------- UO2_6.scf1 --------

          ATOMIC SPHERE DEPENDENT PARAMETERS FOR ATOM  U  4+     
:e__0001: OVERALL ENERGY PARAMETER IS    0.7682
          OVERALL BASIS SET ON ATOM IS LAPW
:E0_0001: E( 0)=    0.7682
             APW+lo
:E0_0001: E( 0)=   -2.1979   E(BOTTOM)=   -3.546   E(TOP)=   -0.850  5  6   234
             LOCAL ORBITAL
:E1_0001: E( 1)=   -1.2800   E(BOTTOM)=   -1.812   E(TOP)= -200.000  4 -1   213
             APW+lo
:E1_0001: E( 1)=    1.1682
             LOCAL ORBITAL
:E3_0001: E( 3)=    1.0292   E(BOTTOM)=    0.240   E(TOP)=    1.818  1  2   179
             APW+lo
:E2_0001: E( 2)=    0.7987   E(BOTTOM)=    0.799   E(TOP)= -200.000  3 -1   110
             APW+lo

          ATOMIC SPHERE DEPENDENT PARAMETERS FOR ATOM  O  2-     
:e__0002: OVERALL ENERGY PARAMETER IS    0.7682
          OVERALL BASIS SET ON ATOM IS LAPW
:E0_0002: E( 0)=   -0.2782   E(BOTTOM)=   -1.648   E(TOP)=    1.092  1  2   239
             APW+lo
:E0_0002: E( 0)=    1.1682
             LOCAL ORBITAL
:E1_0002: E( 1)=    0.7682
             APW+lo

       K=   0.00000   0.00000   0.00000            1
:RKM  : MATRIX SIZE  755LOs:  30  RKM= 8.47  WEIGHT= 1.00  PGR:    
       EIGENVALUES ARE:
:EIG00001:      -2.2832765   -0.4856943   -0.4354452   -0.4354452   -0.4354452
:EIG00006:      -0.3840816    0.4325776    0.4325776    0.4325776    0.6643645
:EIG00011:       0.6643645    0.6643645    1.0020708    1.0020708    1.0020708
:EIG00016:       1.0411104    1.0679437    1.0679437    1.0679437    1.1354647
:EIG00021:       1.1676927    1.1676927    1.6729693    1.6729693    1.6729693
:EIG00026:       1.8855457    1.8855457    1.8855457    2.2832121    2.6193977
:EIG00031:       2.6193977    2.6393167    2.6393167    2.6393167    3.0512644
:EIG00036:       3.0512644    3.0512644    3.1780952    3.1780952    3.1780952
:EIG00041:       3.2949821    3.6413437    3.6413437    3.7386795    3.7386795
:EIG00046:       3.7386795    3.7718720    3.7718720    3.7791335    3.7791335
 
:EIG00051:       3.7791335    3.9413476    4.0402622    4.0402622    4.0402622
:EIG00056:       4.0955645    4.1574930    4.1574930    4.1574930    4.2331761
:EIG00061:       4.2331761    4.2331761    4.2644559    4.2644559    4.2644559
:EIG00066:       4.6017642    5.1384948    5.1384948    5.1384948    5.3566437
:EIG00071:       5.3566437    5.4154594    5.4154594    5.4154594    5.5812493
:EIG00076:       6.0240810    6.0240810    6.0534156    6.0534156    6.0534156
:EIG00081:       6.2304347    6.2304347    6.2304347    6.3172220    6.3172220
:EIG00086:       6.3172220    6.5987306    6.5987306    6.5987306    6.6920991
:EIG00091:       6.6920991    6.6931323    6.7783256    6.7783256    6.8129515
:EIG00096:       6.8129515    6.8129515    6.9874019    6.9874019    6.9874019
 
:EIG00101:       7.0293402    7.0491980    7.0491980    7.0491980    7.1959050
:EIG00106:       7.1959050    7.1959050    7.2523504    7.3887291    7.4775853
:EIG00111:       7.4775853    7.4796386    7.4796386    7.4796386    7.4861494
:EIG00116:       7.4861494    7.4861494    7.6251379    7.6251379    7.6251379
:EIG00121:       7.8708918    7.8708918    7.8708918    8.2692920    8.2692920
:EIG00126:       8.2692920    8.3890325    8.3890325    8.3890325    8.4643777
       ********************************************************

:KPT   :      NUMBER OF K-POINTS:   145

------- UO2_6.scfso --------
   0.0   0.0 angle (M,z), angle (M,x) deg
 
        SPIN-ORBIT EIGENVALUES:
     K=   0.00000   0.00000   0.00000            1
      MATRIX SIZE=  260   WEIGHT= 1.00
     EIGENVALUES ARE:
          -2.2832765   -2.2832765   -0.8429047   -0.8429047   -0.4856943
          -0.4856943   -0.3840855   -0.3840855   -0.2707412   -0.2707412
          -0.2707412   -0.2707412    0.4306463    0.4306463    0.4306463
           0.4306463    0.4356158    0.4356158    0.6585938    0.6585938
           0.6671067    0.6671067    0.6671067    0.6671067    0.9744080
           0.9744080    0.9932666    0.9932666    0.9932666    0.9932666
           1.0586198    1.0586198    1.0722857    1.0722857    1.0722857
           1.0722857    1.0867959    1.0867959    1.1354647    1.1354647

           1.1657280    1.1657280    1.1657280    1.1657280    1.6616910
           1.6616910    1.6616910    1.6616910    1.6956263    1.6956263
           1.8228351    1.8228351    1.9139413    1.9139413    1.9139413
           1.9139413    2.2832121    2.2832121    2.6100338    2.6100338
           2.6100338    2.6100338    2.6441340    2.6441340    2.6441340
           2.6441340    2.6485116    2.6485116    2.8759874    2.8759874
           3.1471603    3.1471603    3.1471603    3.1471603    3.1748774
           3.1748774    3.1800264    3.1800264    3.1800264    3.1800264

           3.2956178    3.2956178    3.6363380    3.6363380    3.6363380
           3.6363380    3.7355369    3.7355369    3.7355369    3.7355369
           3.7569886    3.7569886    3.7718720    3.7718720    3.7718720
           3.7718720    3.7791162    3.7791162    3.7791421    3.7791421
           3.7791421    3.7791421    3.9413476    3.9413476    4.0403450
           4.0403450    4.0403450    4.0403450    4.0405829    4.0405829
           4.0955645    4.0955645    4.1574909    4.1574909    4.1574909
           4.1574909    4.1575214    4.1575214    4.2265654    4.2265654

           4.2370668    4.2370668    4.2370668    4.2370668    4.2632347
           4.2632347    4.2661698    4.2661698    4.2661698    4.2661698

       ********************************************************

------- UO2_6.scf2 --------
:GMA  : POTENTIAL AND CHARGE CUT-OFF  12.00 Ry**.5
         Bandranges (emin - emax) and occupancy:
:BAN00018:  18    0.435616    0.659490  1.00000000
:BAN00019:  19    0.538995    0.659752  1.00000000
:BAN00020:  20    0.538995    0.659752  1.00000000
:BAN00021:  21    0.623481    0.689721  1.00000000
:BAN00022:  22    0.623481    0.689721  1.00000000
:BAN00023:  23    0.661400    0.723275  1.00000000
:BAN00024:  24    0.661400    0.723275  1.00000000
:BAN00025:  25    0.923152    0.974408  0.94157547
:BAN00026:  26    0.923152    0.974408  0.94157547
:BAN00027:  27    0.960871    0.993267  0.05842453
:BAN00028:  28    0.960871    0.993267  0.05842453
:BAN00029:  29    0.970639    0.993267  0.00000000
:BAN00030:  30    0.970639    0.993267  0.00000000
:BAN00031:  31    0.991419    1.058620  0.00000000
:BAN00032:  32    0.991419    1.058620  0.00000000
:BAN00033:  33    1.022882    1.072286  0.00000000
        Energy to separate low and high energystates:    0.87315


:NLDA  : NUMBER OF ELECTRONS          =  26.000

:FLDA  : F E R M I - ENERGY           =   1.46542




:POS001: AT.NR.   1 POSITION = 0.00000 0.00000 0.00000  MULTIPLICITY =  1

       LMMAX  5
       LM=   0 0  4 0  4 4  6 0  6 4




:POS002: AT.NR.   2 POSITION = 0.00000 0.00000 0.00000  MULTIPLICITY =  2

       LMMAX  6
       LM=   0 0  4 0  4 4  6 0  6 4 -3 2
:FER DMFT Fermi Energy   0.93710
:EORB          0.086500737
:SUM SUM OF DMFT BAND ENERGIES         -0.125434201

:CHA001: TOTAL CHARGE INSIDE SPHERE   1 =     8.211846
:PCS001: PARTIAL CHARGES SPHERE =  1 S,P,D,F,      D-EG,D-T2G 
:QTL001: 1.7987 4.1810 0.2427 1.9858 0.0000 0.0000 0.0000 0.0564 0.2037 0.0000 0.0000 0.0000
        Q-s-low E-s-low   Q-p-low E-p-low   Q-d-low E-d-low   Q-f-low E-f-low
:EPL001:  1.7985 -2.1949    4.1790 -0.4100    0.2399  0.4838    0.2498  0.6182
        Q-s-hi  E-s-hi    Q-p-hi  E-p-hi    Q-d-hi  E-d-hi    Q-f-hi  E-f-hi 
:EPH001:  0.0002  0.9979    0.0020  0.9825    0.0028  0.9803    1.7359  0.9571

:CHA002: TOTAL CHARGE INSIDE SPHERE   2 =     5.194384
:PCS002: PARTIAL CHARGES SPHERE =  2 S,P,D,F,      D-EG,D-T2G 
:QTL002: 1.5792 3.6012 0.0118 0.0018 0.0000 0.0000 0.0000 0.0041 0.0129 0.0000 0.0000 0.0000
        Q-s-low E-s-low   Q-p-low E-p-low   Q-d-low E-d-low   Q-f-low E-f-low
:EPL002:  1.5776 -0.4085    3.5818  0.5745    0.0094  0.0471    0.0015 -0.0588
        Q-s-hi  E-s-hi    Q-p-hi  E-p-hi    Q-d-hi  E-d-hi    Q-f-hi  E-f-hi 
:EPH002:  0.0016  0.9771    0.0194  0.9792    0.0024  0.9516    0.0003  0.9633

:CHA  : TOTAL CHARGE INSIDE UNIT CELL =      26.000000

:ESUM  : SUM OF EIGENVALUES =          -0.077146931


------- UO2_6.scfc --------

        1.ATOM      U  4+                21 CORE STATES
:1S 001: 1S               -8506.304602843 Ry
:2S 001: 2S               -1587.752731785 Ry
:2PP001: 2P*              -1530.998509453 Ry
:2P 001: 2P               -1249.802744671 Ry
:3S 001: 3S                -399.893614801 Ry
:3PP001: 3P*               -374.120329023 Ry
:3P 001: 3P                -309.337079399 Ry
:3DD001: 3D*               -268.524624626 Ry
:3D 001: 3D                -255.379398587 Ry
:4S 001: 4S                -100.962543538 Ry
:4PP001: 4P*                -89.368990449 Ry
:4P 001: 4P                 -72.459207738 Ry
:4DD001: 4D*                -53.994409985 Ry
:4D 001: 4D                 -50.885815111 Ry
:5S 001: 5S                 -21.555051691 Ry
:5PP001: 5P*                -17.048350281 Ry
:5P 001: 5P                 -13.018272167 Ry
:4FF001: 4F*                -26.599439174 Ry
:4F 001: 4F                 -25.789438875 Ry
:5DD001: 5D*                 -6.429373956 Ry
:5D 001: 5D                  -5.831268177 Ry

        2.ATOM      O  2-                 1 CORE STATES
:1S 002: 1S                 -35.991875860 Ry

------- UO2_6.scfm --------
:CINT001 Core Integral Atom   1   77.964262
:CINT002 Core Integral Atom   2    2.000000
     
       CHARGES OF NEW CHARGE DENSITY
:NTO   : INTERSTITIAL CHARGE =     7.399393
:NTO001: CHARGE SPHERE  1    =    86.176108
:NTO002: CHARGE SPHERE  2    =     7.194383

:NEC01: NUCLEAR AND ELECTRONIC CHARGE    108.00000   107.96427
     
       CHARGES OF OLD CHARGE DENSITY
:OTO   : INTERSTITIAL CHARGE =     7.455467
:OTO001: CHARGE SPHERE  1    =    86.201085
:OTO002: CHARGE SPHERE  2    =     7.171724
:DNEW  1   -0.0250
:DNEW  2    0.0227

:NEC02: NUCLEAR AND ELECTRONIC CHARGE    108.00000   108.00000
     
       CONVERGENCE TEST
:DTO001: DIFFERENCE IN SPHERE  1 =  0.0170345
:DTO002: DIFFERENCE IN SPHERE  2 =  0.0267774

:DIS  :  CHARGE DISTANCE       ( 0.0267774 for atom    2 spin 1)      0.0235298
:BIG check (qbig,qrms,qtot)    0.893D-02   0.170D-01   0.235D-01
 
******************************************************
* MULTISECANT MIXING VER6 RELEASE 6.0 OPTIONS        *
* Standard Mode with controls                        *
* Regularization       1.000E-06                     *
* Trust Region Control Active                        *
* Max Number of Memory Steps    8                    *
******************************************************
 
:PLANE:  INTERSTITIAL TOTAL      2.52870 DISTAN  2.550E-01 % 
:CHARG:  CLM CHARGE   /ATOM    345.91268 DISTAN  1.413E-02 % 
 
 Step History DMIX, Red, Pred, Trust, FRMS, FABS
  2  2.5000E-02  1.0000E+00  1.0000E+00  1.0000E+00
  3  6.2500E-02  1.0000E+00  1.0000E+00  1.0000E+00
  
:NORMS:  Nuclear, Spectral, Froebius, Shanno-Pua   0.3315E+01  0.3240E+01  0.3241E+01  0.2789E+00
:INFO :  Number of Memory Steps    2 Skipping    0
:INFO :  SLambda=    3.0000000  Max    3.0000000

Eigenvalues, unscaled except for SY+YY
   #     SY Real        SY Imag          SS             YY         SY+YY Real      SY+YY Imag
   1   5.572619E-01   0.000000E+00   1.904543E-01   1.998914E+00   3.670955E+00   0.000000E+00
   2  -8.404943E-13   0.000000E+00  -2.775558E-17   1.086232E-03   8.307069E-04   0.000000E+00
 
:INFO :  Increased using Multisecant Shanno-Phua
:INFO :  Singular value   3.672E+00 Weight  1.0000E+00 Projections   7.625E-01  9.279E-02
:INFO :  Singular value   8.305E-04 Weight  1.0000E+00 Projections  -8.880E-01 -1.167E+00
 
:DIRM :  MEMORY 2/8 RESCALE  15.63 RED 0.771 PRED 1.000 NEXT 0.453
:INFO :  Blimit    1.241E+00  9.260E-01  4.648E-01  1.722E+00
:DIRP :  |MSR1|= 1.546E-02 |PRATT|= 1.008E-01 ANGLE=   3.9 DEGREES
:DIRQ :  |MSR1|= 1.456E-02 |PRATT|= 9.774E-02 ANGLE=   6.7 DEGREES
:DIR  :  |MSR1|= 2.124E-02 |PRATT|= 1.404E-01 ANGLE=   5.5 DEGREES
:MIX  :   MSE1   REGULARIZATION: 2.00E-06  GREED: 0.070  Newton 1.00  0.15                
     
       CHARGES OF MIXED CHARGE DENSITY
:CTO   : INTERSTITIAL CHARGE =     7.451615
:CTO001: CHARGE SPHERE  1    =    86.198090
:CTO002: CHARGE SPHERE  2    =     7.175148

:NEC03: NUCLEAR AND ELECTRONIC CHARGE    108.00000   108.00000

PW CHANGE     H    K    L       Current     Change     Residue
:PTO001:      0    0    0  9.11499512E-02 -4.527E-06 -1.498E-05
:PTO002:     -1   -1   -1  2.18406748E-01 -2.093E-05 -1.796E-04
:PTO003:      0    0   -2 -4.58396396E-04 -8.375E-05 -5.613E-04
:PTO004:      0   -2   -2  2.94487638E-01  1.263E-04  7.916E-04
:PTO005:     -1   -1   -3  1.53043963E-01  8.222E-05  5.230E-04
:PTO006:     -2   -2   -2 -2.14580536E-02  1.216E-05  7.417E-05
:PTO007:      0    0   -4  4.23619600E-02  9.529E-06  6.518E-05
:PTO008:     -1   -3   -3  2.73742858E-02  3.535E-05  2.499E-04
:PTO009:      0   -2   -4 -5.30791173E-02  6.482E-06  7.711E-05
:PTO010:     -2   -2   -4  3.96473228E-02  3.515E-05  2.298E-04
:PTO011:     -3   -3   -3 -5.60691999E-03  3.084E-05  2.019E-04
:PTO012:     -1   -1   -5 -6.26723390E-03 -2.753E-05 -1.606E-04

:ENE  : ********** TOTAL ENERGY IN Ry =       -56437.57227619


------- UO2_6.scf0 --------


            ---------
:ITE087: 87. ITERATION
            ---------

:NATO :    2 INDEPENDENT AND    3 TOTAL ATOMS IN UNITCELL
       SUBSTANCE: blebleble                                                   

       LATTICE                      = F   
:POT  : POTENTIAL OPTION    5
:LAT  : LATTICE CONSTANTS= 10.34250 10.34250 10.34250    1.571    1.571    1.571
:VOL  : UNIT CELL VOLUME =     276.57734
       MODE OF CALCULATION IS       = RELA
       NON-SPINPOLARIZED CALCULATION
:IFFT  : FFT-parameters:   80   80   80 Factor: 2.00
       ATOMNUMBER=  1 U  4+      VCOUL-ZERO = -0.44907E+00
       ATOMNUMBER=  2 O  2-      VCOUL-ZERO =  0.84110E+00
:FIT001: LUSE= 13 SIGMA OF V-XC FIT FOR ATOM  1  0.6568748E-04
:FIT001: LUSE= 13 SIGMA OF V-XC FIT FOR ATOM  1  0.6568748E-04
:FIT002: LUSE= 13 SIGMA OF V-XC FIT FOR ATOM  2  0.1321806E-03
:FIT002: LUSE= 13 SIGMA OF V-XC FIT FOR ATOM  2  0.1321806E-03
:DEN  : DENSITY INTEGRAL  =        -20904.63813412   (Ry)
       ELS_POTENTIAL_AT Z=0 and Z=0.5:  -3.39901  -3.39901
       ELS_POTENTIAL_AT Y=0 and Y=0.5:   0.00000   0.00000
:VZERO:v0,v0c,v0x  -4.12557  -3.39901  -0.72655 v5,v5c,v5x  -4.12557  -3.39901  -0.72655
:VZERY:v0,v0c,v0x  -0.86908   0.00000  -0.86908 v5,v5c,v5x  -0.86908   0.00000  -0.86908
:VZERX:v0,v0c,v0x  -0.86908   0.00000  -0.86908 v5,v5c,v5x  -0.86908   0.00000  -0.86908

------- UO2_6.scf1 --------

          ATOMIC SPHERE DEPENDENT PARAMETERS FOR ATOM  U  4+     
:e__0001: OVERALL ENERGY PARAMETER IS    0.7682
          OVERALL BASIS SET ON ATOM IS LAPW
:E0_0001: E( 0)=    0.7682
             APW+lo
:E0_0001: E( 0)=   -2.2000   E(BOTTOM)=   -3.548   E(TOP)=   -0.852  5  6   235
             LOCAL ORBITAL
:E1_0001: E( 1)=   -1.2800   E(BOTTOM)=   -1.814   E(TOP)= -200.000  4 -1   215
             APW+lo
:E1_0001: E( 1)=    1.1682
             LOCAL ORBITAL
:E3_0001: E( 3)=    1.0270   E(BOTTOM)=    0.238   E(TOP)=    1.816  1  2   184
             APW+lo
:E2_0001: E( 2)=    0.7969   E(BOTTOM)=    0.797   E(TOP)= -200.000  3 -1   113
             APW+lo

          ATOMIC SPHERE DEPENDENT PARAMETERS FOR ATOM  O  2-     
:e__0002: OVERALL ENERGY PARAMETER IS    0.7682
          OVERALL BASIS SET ON ATOM IS LAPW
:E0_0002: E( 0)=   -0.2749   E(BOTTOM)=   -1.645   E(TOP)=    1.096  1  2   235
             APW+lo
:E0_0002: E( 0)=    1.1682
             LOCAL ORBITAL
:E1_0002: E( 1)=    0.7682
             APW+lo

       K=   0.00000   0.00000   0.00000            1
:RKM  : MATRIX SIZE  755LOs:  30  RKM= 8.47  WEIGHT= 1.00  PGR:    
       EIGENVALUES ARE:
:EIG00001:      -2.2851600   -0.4833322   -0.4368772   -0.4368772   -0.4368772
:EIG00006:      -0.3813431    0.4342478    0.4342478    0.4342478    0.6660640
:EIG00011:       0.6660640    0.6660640    1.0000725    1.0000725    1.0000725
:EIG00016:       1.0392922    1.0669231    1.0669231    1.0669231    1.1359786
:EIG00021:       1.1670898    1.1670898    1.6737592    1.6737592    1.6737592
:EIG00026:       1.8855141    1.8855141    1.8855141    2.2832589    2.6192817
:EIG00031:       2.6192817    2.6397128    2.6397128    2.6397128    3.0514687
:EIG00036:       3.0514687    3.0514687    3.1777762    3.1777762    3.1777762
:EIG00041:       3.2958209    3.6407796    3.6407796    3.7389724    3.7389724
:EIG00046:       3.7389724    3.7729162    3.7729162    3.7787764    3.7787764
 
:EIG00051:       3.7787764    3.9412135    4.0407193    4.0407193    4.0407193
:EIG00056:       4.0952268    4.1575740    4.1575740    4.1575740    4.2329365
:EIG00061:       4.2329365    4.2329365    4.2643225    4.2643225    4.2643225
:EIG00066:       4.6018516    5.1393631    5.1393631    5.1393631    5.3565910
:EIG00071:       5.3565910    5.4161112    5.4161112    5.4161112    5.5810915
:EIG00076:       6.0236014    6.0236014    6.0531441    6.0531441    6.0531441
:EIG00081:       6.2305611    6.2305611    6.2305611    6.3166318    6.3166318
:EIG00086:       6.3166318    6.5993477    6.5993477    6.5993477    6.6924290
:EIG00091:       6.6924290    6.6935757    6.7787580    6.7787580    6.8127709
:EIG00096:       6.8127709    6.8127709    6.9875416    6.9875416    6.9875416
 
:EIG00101:       7.0300581    7.0487468    7.0487468    7.0487468    7.1963657
:EIG00106:       7.1963657    7.1963657    7.2525510    7.3885442    7.4777442
:EIG00111:       7.4777442    7.4798276    7.4798276    7.4798276    7.4864683
:EIG00116:       7.4864683    7.4864683    7.6252677    7.6252677    7.6252677
:EIG00121:       7.8708095    7.8708095    7.8708095    8.2694212    8.2694212
:EIG00126:       8.2694212    8.3891573    8.3891573    8.3891573    8.4638720
       ********************************************************

:KPT   :      NUMBER OF K-POINTS:   145

------- UO2_6.scfso --------
   0.0   0.0 angle (M,z), angle (M,x) deg
 
        SPIN-ORBIT EIGENVALUES:
     K=   0.00000   0.00000   0.00000            1
      MATRIX SIZE=  260   WEIGHT= 1.00
     EIGENVALUES ARE:
          -2.2851600   -2.2851600   -0.8445383   -0.8445383   -0.4833322
          -0.4833322   -0.3813470   -0.3813470   -0.2720641   -0.2720641
          -0.2720641   -0.2720641    0.4322988    0.4322988    0.4322988
           0.4322988    0.4373144    0.4373144    0.6604551    0.6604551
           0.6686864    0.6686864    0.6686864    0.6686864    0.9724316
           0.9724316    0.9914904    0.9914904    0.9914904    0.9914904
           1.0567755    1.0567755    1.0711188    1.0711188    1.0711188
           1.0711188    1.0856838    1.0856838    1.1359786    1.1359786

           1.1651279    1.1651279    1.1651279    1.1651279    1.6624654
           1.6624654    1.6624654    1.6624654    1.6964430    1.6964430
           1.8227068    1.8227068    1.9139558    1.9139558    1.9139558
           1.9139558    2.2832589    2.2832589    2.6100785    2.6100785
           2.6100785    2.6100785    2.6443819    2.6443819    2.6443819
           2.6443819    2.6488887    2.6488887    2.8762417    2.8762417
           3.1473389    3.1473389    3.1473389    3.1473389    3.1745650
           3.1745650    3.1797135    3.1797135    3.1797135    3.1797135

           3.2964506    3.2964506    3.6358286    3.6358286    3.6358286
           3.6358286    3.7357837    3.7357837    3.7357837    3.7357837
           3.7572647    3.7572647    3.7729161    3.7729161    3.7729161
           3.7729161    3.7787590    3.7787590    3.7787851    3.7787851
           3.7787851    3.7787851    3.9412135    3.9412135    4.0408035
           4.0408035    4.0408035    4.0408035    4.0410409    4.0410409
           4.0952268    4.0952268    4.1575725    4.1575725    4.1575725
           4.1575725    4.1576010    4.1576010    4.2263560    4.2263560

           4.2368156    4.2368156    4.2368156    4.2368156    4.2631029
           4.2631029    4.2660286    4.2660286    4.2660286    4.2660286

       ********************************************************

------- UO2_6.scf2 --------
:GMA  : POTENTIAL AND CHARGE CUT-OFF  12.00 Ry**.5
         Bandranges (emin - emax) and occupancy:
:BAN00018:  18    0.437314    0.661013  1.00000000
:BAN00019:  19    0.540814    0.662089  1.00000000
:BAN00020:  20    0.540814    0.662089  1.00000000
:BAN00021:  21    0.625118    0.691806  1.00000000
:BAN00022:  22    0.625118    0.691806  1.00000000
:BAN00023:  23    0.662976    0.725439  1.00000000
:BAN00024:  24    0.662976    0.725439  1.00000000
:BAN00025:  25    0.921394    0.972432  0.94199701
:BAN00026:  26    0.921394    0.972432  0.94199701
:BAN00027:  27    0.959118    0.991490  0.05800299
:BAN00028:  28    0.959118    0.991490  0.05800299
:BAN00029:  29    0.968889    0.991490  0.00000000
:BAN00030:  30    0.968889    0.991490  0.00000000
:BAN00031:  31    0.989773    1.056776  0.00000000
:BAN00032:  32    0.989773    1.056776  0.00000000
:BAN00033:  33    1.021148    1.071119  0.00000000
        Energy to separate low and high energystates:    0.87139


:NLDA  : NUMBER OF ELECTRONS          =  26.000

:FLDA  : F E R M I - ENERGY           =   1.46366




:POS001: AT.NR.   1 POSITION = 0.00000 0.00000 0.00000  MULTIPLICITY =  1

       LMMAX  5
       LM=   0 0  4 0  4 4  6 0  6 4




:POS002: AT.NR.   2 POSITION = 0.00000 0.00000 0.00000  MULTIPLICITY =  2

       LMMAX  6
       LM=   0 0  4 0  4 4  6 0  6 4 -3 2
:FER DMFT Fermi Energy   0.93891
:EORB          0.078277896
:SUM SUM OF DMFT BAND ENERGIES         -0.099746525

:CHA001: TOTAL CHARGE INSIDE SPHERE   1 =     8.217910
:PCS001: PARTIAL CHARGES SPHERE =  1 S,P,D,F,      D-EG,D-T2G 
:QTL001: 1.7990 4.1823 0.2447 1.9883 0.0000 0.0000 0.0000 0.0570 0.2050 0.0000 0.0000 0.0000
        Q-s-low E-s-low   Q-p-low E-p-low   Q-d-low E-d-low   Q-f-low E-f-low
:EPL001:  1.7988 -2.1965    4.1803 -0.4114    0.2418  0.4857    0.2522  0.6203
        Q-s-hi  E-s-hi    Q-p-hi  E-p-hi    Q-d-hi  E-d-hi    Q-f-hi  E-f-hi 
:EPH001:  0.0002  0.9966    0.0020  0.9807    0.0029  0.9782    1.7361  0.9553

:CHA002: TOTAL CHARGE INSIDE SPHERE   2 =     5.185828
:PCS002: PARTIAL CHARGES SPHERE =  2 S,P,D,F,      D-EG,D-T2G 
:QTL002: 1.5784 3.5934 0.0118 0.0018 0.0000 0.0000 0.0000 0.0041 0.0129 0.0000 0.0000 0.0000
        Q-s-low E-s-low   Q-p-low E-p-low   Q-d-low E-d-low   Q-f-low E-f-low
:EPL002:  1.5768 -0.4058    3.5738  0.5764    0.0094  0.0493    0.0015 -0.0574
        Q-s-hi  E-s-hi    Q-p-hi  E-p-hi    Q-d-hi  E-d-hi    Q-f-hi  E-f-hi 
:EPH002:  0.0016  0.9755    0.0196  0.9774    0.0024  0.9498    0.0003  0.9616

:CHA  : TOTAL CHARGE INSIDE UNIT CELL =      26.000000

:ESUM  : SUM OF EIGENVALUES =          -0.060073394


------- UO2_6.scfc --------

        1.ATOM      U  4+                21 CORE STATES
:1S 001: 1S               -8506.307194616 Ry
:2S 001: 2S               -1587.755370361 Ry
:2PP001: 2P*              -1531.001137076 Ry
:2P 001: 2P               -1249.805382556 Ry
:3S 001: 3S                -399.896303253 Ry
:3PP001: 3P*               -374.123014553 Ry
:3P 001: 3P                -309.339767906 Ry
:3DD001: 3D*               -268.527309606 Ry
:3D 001: 3D                -255.382085217 Ry
:4S 001: 4S                -100.965210571 Ry
:4PP001: 4P*                -89.371657417 Ry
:4P 001: 4P                 -72.461869579 Ry
:4DD001: 4D*                -53.997072734 Ry
:4D 001: 4D                 -50.888476573 Ry
:5S 001: 5S                 -21.557673022 Ry
:5PP001: 5P*                -17.050961648 Ry
:5P 001: 5P                 -13.020852175 Ry
:4FF001: 4F*                -26.602107709 Ry
:4F 001: 4F                 -25.792106613 Ry
:5DD001: 5D*                 -6.431895520 Ry
:5D 001: 5D                  -5.833771074 Ry

        2.ATOM      O  2-                 1 CORE STATES
:1S 002: 1S                 -35.985899131 Ry

------- UO2_6.scfm --------
:CINT001 Core Integral Atom   1   77.964279
:CINT002 Core Integral Atom   2    2.000000
     
       CHARGES OF NEW CHARGE DENSITY
:NTO   : INTERSTITIAL CHARGE =     7.410468
:NTO001: CHARGE SPHERE  1    =    86.182189
:NTO002: CHARGE SPHERE  2    =     7.185828

:NEC01: NUCLEAR AND ELECTRONIC CHARGE    108.00000   107.96431
     
       CHARGES OF OLD CHARGE DENSITY
:OTO   : INTERSTITIAL CHARGE =     7.451615
:OTO001: CHARGE SPHERE  1    =    86.198090
:OTO002: CHARGE SPHERE  2    =     7.175148
:DNEW  1   -0.0159
:DNEW  2    0.0107

:NEC02: NUCLEAR AND ELECTRONIC CHARGE    108.00000   108.00000
     
       CONVERGENCE TEST
:DTO001: DIFFERENCE IN SPHERE  1 =  0.0117225
:DTO002: DIFFERENCE IN SPHERE  2 =  0.0110753

:DIS  :  CHARGE DISTANCE       ( 0.0117225 for atom    1 spin 1)      0.0112910
:BIG check (qbig,qrms,qtot)    0.391D-02   0.799D-02   0.113D-01
 
******************************************************
* MULTISECANT MIXING VER6 RELEASE 6.0 OPTIONS        *
* Standard Mode with controls                        *
* Regularization       1.000E-06                     *
* Trust Region Control Active                        *
* Max Number of Memory Steps    8                    *
******************************************************
 
:PLANE:  INTERSTITIAL TOTAL      2.52900 DISTAN  1.716E-01 % 
:CHARG:  CLM CHARGE   /ATOM    345.91278 DISTAN  7.795E-03 % 
 
 Step History DMIX, Red, Pred, Trust, FRMS, FABS
  2  2.5000E-02  1.0000E+00  1.0000E+00  1.0000E+00
  3  6.2500E-02  7.7112E-01  1.0000E+00  1.0000E+00
  4  6.9715E-02  1.0000E+00  4.5346E-01  1.7215E+00
  
:NORMS:  Nuclear, Spectral, Froebius, Shanno-Pua   0.3236E+01  0.3266E+01  0.3264E+01  0.2714E+00
:INFO :  Number of Memory Steps    3 Skipping    0
:INFO :  SLambda=    3.0000000  Max    3.0000000

Eigenvalues, unscaled except for SY+YY
   #     SY Real        SY Imag          SS             YY         SY+YY Real      SY+YY Imag
   1   8.133083E-01   0.000000E+00   2.810185E-01   2.997668E+00   5.438073E+00   0.000000E+00
   2   4.152997E-15   0.000000E+00  -4.060756E-17   2.228624E-03   1.217307E-04   0.000000E+00
   3   1.034155E-03   0.000000E+00   5.126769E-04   1.029052E-04   4.832369E-03   0.000000E+00
 
:INFO :  Singular value   5.439E+00 Weight  1.0000E+00 Projections   6.691E-01  3.786E-02
:INFO :  Singular value   4.847E-03 Weight  1.0000E+00 Projections   4.859E-01 -1.442E+00
:INFO :  Singular value   1.213E-04 Weight  9.9939E-01 Projections  -1.206E+00  2.400E-01
 
:DIRM :  MEMORY 3/8 RESCALE  14.77 RED 0.614 PRED 0.453 NEXT 0.152
:INFO :  Blimit    1.525E+00  9.271E-01  5.645E-01  2.093E+00
:DIRP :  |MSR1|= 3.019E-02 |PRATT|= 6.407E-02 ANGLE=  35.7 DEGREES
:DIRQ :  |MSR1|= 1.918E-02 |PRATT|= 5.393E-02 ANGLE=  64.3 DEGREES
:DIR  :  |MSR1|= 3.577E-02 |PRATT|= 8.374E-02 ANGLE=  47.6 DEGREES
:MIX  :   MSE1   REGULARIZATION: 3.00E-06  GREED: 0.085  Newton 1.00  0.43                
     
       CHARGES OF MIXED CHARGE DENSITY
:CTO   : INTERSTITIAL CHARGE =     7.448767
:CTO001: CHARGE SPHERE  1    =    86.199962
:CTO002: CHARGE SPHERE  2    =     7.175636

:NEC03: NUCLEAR AND ELECTRONIC CHARGE    108.00000   108.00000

PW CHANGE     H    K    L       Current     Change     Residue
:PTO001:      0    0    0  9.11588612E-02  8.910E-06  2.247E-05
:PTO002:     -1   -1   -1  2.18493207E-01  8.646E-05 -4.080E-05
:PTO003:      0    0   -2 -4.46327435E-04  1.207E-05 -2.477E-04
:PTO004:      0   -2   -2  2.94660213E-01  1.726E-04  4.832E-04
:PTO005:     -1   -1   -3  1.53339836E-01  2.959E-04  5.283E-04
:PTO006:     -2   -2   -2 -2.12861843E-02  1.719E-04  2.127E-04
:PTO007:      0    0   -4  4.23332001E-02 -2.876E-05  6.792E-08
:PTO008:     -1   -3   -3  2.74940836E-02  1.198E-04  2.623E-04
:PTO009:      0   -2   -4 -5.29033672E-02  1.758E-04  2.713E-04
:PTO010:     -2   -2   -4  3.96515622E-02  4.239E-06  1.027E-04
:PTO011:     -3   -3   -3 -5.54143246E-03  6.549E-05  1.588E-04
:PTO012:     -1   -1   -5 -6.33445572E-03 -6.722E-05 -1.170E-04

:ENE  : ********** TOTAL ENERGY IN Ry =       -56437.57234095


------- UO2_6.scf0 --------


            ---------
:ITE088: 88. ITERATION
            ---------

:NATO :    2 INDEPENDENT AND    3 TOTAL ATOMS IN UNITCELL
       SUBSTANCE: blebleble                                                   

       LATTICE                      = F   
:POT  : POTENTIAL OPTION    5
:LAT  : LATTICE CONSTANTS= 10.34250 10.34250 10.34250    1.571    1.571    1.571
:VOL  : UNIT CELL VOLUME =     276.57734
       MODE OF CALCULATION IS       = RELA
       NON-SPINPOLARIZED CALCULATION
:IFFT  : FFT-parameters:   80   80   80 Factor: 2.00
       ATOMNUMBER=  1 U  4+      VCOUL-ZERO = -0.44933E+00
       ATOMNUMBER=  2 O  2-      VCOUL-ZERO =  0.84159E+00
:FIT001: LUSE= 13 SIGMA OF V-XC FIT FOR ATOM  1  0.6640108E-04
:FIT001: LUSE= 13 SIGMA OF V-XC FIT FOR ATOM  1  0.6640108E-04
:FIT002: LUSE= 13 SIGMA OF V-XC FIT FOR ATOM  2  0.1305974E-03
:FIT002: LUSE= 13 SIGMA OF V-XC FIT FOR ATOM  2  0.1305974E-03
:DEN  : DENSITY INTEGRAL  =        -20905.09594639   (Ry)
       ELS_POTENTIAL_AT Z=0 and Z=0.5:  -3.39971  -3.39971
       ELS_POTENTIAL_AT Y=0 and Y=0.5:   0.00000   0.00000
:VZERO:v0,v0c,v0x  -4.12540  -3.39971  -0.72569 v5,v5c,v5x  -4.12540  -3.39971  -0.72569
:VZERY:v0,v0c,v0x  -0.86900   0.00000  -0.86900 v5,v5c,v5x  -0.86900   0.00000  -0.86900
:VZERX:v0,v0c,v0x  -0.86900   0.00000  -0.86900 v5,v5c,v5x  -0.86900   0.00000  -0.86900

------- UO2_6.scf1 --------

          ATOMIC SPHERE DEPENDENT PARAMETERS FOR ATOM  U  4+     
:e__0001: OVERALL ENERGY PARAMETER IS    0.7682
          OVERALL BASIS SET ON ATOM IS LAPW
:E0_0001: E( 0)=    0.7682
             APW+lo
:E0_0001: E( 0)=   -2.1985   E(BOTTOM)=   -3.546   E(TOP)=   -0.850  5  6   237
             LOCAL ORBITAL
:E1_0001: E( 1)=   -1.2800   E(BOTTOM)=   -1.813   E(TOP)= -200.000  4 -1   213
             APW+lo
:E1_0001: E( 1)=    1.1682
             LOCAL ORBITAL
:E3_0001: E( 3)=    1.0290   E(BOTTOM)=    0.240   E(TOP)=    1.818  1  2   177
             APW+lo
:E2_0001: E( 2)=    0.7980   E(BOTTOM)=    0.798   E(TOP)= -200.000  3 -1   111
             APW+lo

          ATOMIC SPHERE DEPENDENT PARAMETERS FOR ATOM  O  2-     
:e__0002: OVERALL ENERGY PARAMETER IS    0.7682
          OVERALL BASIS SET ON ATOM IS LAPW
:E0_0002: E( 0)=   -0.2748   E(BOTTOM)=   -1.645   E(TOP)=    1.096  1  2   239
             APW+lo
:E0_0002: E( 0)=    1.1682
             LOCAL ORBITAL
:E1_0002: E( 1)=    0.7682
             APW+lo

       K=   0.00000   0.00000   0.00000            1
:RKM  : MATRIX SIZE  755LOs:  30  RKM= 8.47  WEIGHT= 1.00  PGR:    
       EIGENVALUES ARE:
:EIG00001:      -2.2838785   -0.4832111   -0.4360982   -0.4360982   -0.4360982
:EIG00006:      -0.3812604    0.4343540    0.4343540    0.4343540    0.6663131
:EIG00011:       0.6663131    0.6663131    1.0018659    1.0018659    1.0018659
:EIG00016:       1.0413168    1.0683434    1.0683434    1.0683434    1.1360004
:EIG00021:       1.1673047    1.1673047    1.6740763    1.6740763    1.6740763
:EIG00026:       1.8857397    1.8857397    1.8857397    2.2834072    2.6194948
:EIG00031:       2.6194948    2.6398561    2.6398561    2.6398561    3.0518887
:EIG00036:       3.0518887    3.0518887    3.1782015    3.1782015    3.1782015
:EIG00041:       3.2961532    3.6410487    3.6410487    3.7392994    3.7392994
:EIG00046:       3.7392994    3.7730426    3.7730426    3.7788400    3.7788400
 
:EIG00051:       3.7788400    3.9415088    4.0408533    4.0408533    4.0408533
:EIG00056:       4.0952919    4.1576356    4.1576356    4.1576356    4.2332118
:EIG00061:       4.2332118    4.2332118    4.2645073    4.2645073    4.2645073
:EIG00066:       4.6021748    5.1394022    5.1394022    5.1394022    5.3568421
:EIG00071:       5.3568421    5.4162189    5.4162189    5.4162189    5.5812099
:EIG00076:       6.0238615    6.0238615    6.0536441    6.0536441    6.0536441
:EIG00081:       6.2307551    6.2307551    6.2307551    6.3169954    6.3169954
:EIG00086:       6.3169954    6.5995067    6.5995067    6.5995067    6.6925029
:EIG00091:       6.6925029    6.6937353    6.7790289    6.7790289    6.8129650
:EIG00096:       6.8129650    6.8129650    6.9876342    6.9876342    6.9876342
 
:EIG00101:       7.0302405    7.0488072    7.0488072    7.0488072    7.1963794
:EIG00106:       7.1963794    7.1963794    7.2528975    7.3885204    7.4777591
:EIG00111:       7.4777591    7.4800161    7.4800161    7.4800161    7.4864847
:EIG00116:       7.4864847    7.4864847    7.6255265    7.6255265    7.6255265
:EIG00121:       7.8712145    7.8712145    7.8712145    8.2696317    8.2696317
:EIG00126:       8.2696317    8.3893809    8.3893809    8.3893809    8.4642078
       ********************************************************

:KPT   :      NUMBER OF K-POINTS:   145

------- UO2_6.scfso --------
   0.0   0.0 angle (M,z), angle (M,x) deg
 
        SPIN-ORBIT EIGENVALUES:
     K=   0.00000   0.00000   0.00000            1
      MATRIX SIZE=  260   WEIGHT= 1.00
     EIGENVALUES ARE:
          -2.2838785   -2.2838785   -0.8435925   -0.8435925   -0.4832111
          -0.4832111   -0.3812644   -0.3812644   -0.2713603   -0.2713603
          -0.2713603   -0.2713603    0.4324068    0.4324068    0.4324068
           0.4324068    0.4374177    0.4374177    0.6606662    0.6606662
           0.6689655    0.6689655    0.6689655    0.6689655    0.9743071
           0.9743071    0.9932215    0.9932215    0.9932215    0.9932215
           1.0587274    1.0587274    1.0725903    1.0725903    1.0725903
           1.0725903    1.0870917    1.0870917    1.1360004    1.1360004

           1.1653441    1.1653441    1.1653441    1.1653441    1.6627878
           1.6627878    1.6627878    1.6627878    1.6967481    1.6967481
           1.8229657    1.8229657    1.9141666    1.9141666    1.9141666
           1.9141666    2.2834072    2.2834072    2.6102709    2.6102709
           2.6102709    2.6102709    2.6445434    2.6445434    2.6445434
           2.6445434    2.6490358    2.6490358    2.8766178    2.8766178
           3.1477749    3.1477749    3.1477749    3.1477749    3.1749876
           3.1749876    3.1801402    3.1801402    3.1801402    3.1801402

           3.2967839    3.2967839    3.6360992    3.6360992    3.6360992
           3.6360992    3.7361081    3.7361081    3.7361081    3.7361081
           3.7575935    3.7575935    3.7730426    3.7730426    3.7730426
           3.7730426    3.7788227    3.7788227    3.7788486    3.7788486
           3.7788486    3.7788486    3.9415088    3.9415088    4.0409331
           4.0409331    4.0409331    4.0409331    4.0411806    4.0411806
           4.0952919    4.0952919    4.1576341    4.1576341    4.1576341
           4.1576341    4.1576629    4.1576629    4.2266364    4.2266364

           4.2370835    4.2370835    4.2370835    4.2370835    4.2632861
           4.2632861    4.2662201    4.2662201    4.2662201    4.2662201

       ********************************************************

------- UO2_6.scf2 --------
:GMA  : POTENTIAL AND CHARGE CUT-OFF  12.00 Ry**.5
         Bandranges (emin - emax) and occupancy:
:BAN00018:  18    0.437418    0.661347  1.00000000
:BAN00019:  19    0.540981    0.662171  1.00000000
:BAN00020:  20    0.540981    0.662171  1.00000000
:BAN00021:  21    0.625309    0.691994  1.00000000
:BAN00022:  22    0.625309    0.691994  1.00000000
:BAN00023:  23    0.663228    0.725621  1.00000000
:BAN00024:  24    0.663228    0.725621  1.00000000
:BAN00025:  25    0.922905    0.974307  0.94143824
:BAN00026:  26    0.922905    0.974307  0.94143824
:BAN00027:  27    0.960711    0.993221  0.05856175
:BAN00028:  28    0.960711    0.993221  0.05856175
:BAN00029:  29    0.970469    0.993221  0.00000000
:BAN00030:  30    0.970469    0.993221  0.00000000
:BAN00031:  31    0.991212    1.058727  0.00000000
:BAN00032:  32    0.991212    1.058727  0.00000000
:BAN00033:  33    1.022732    1.072590  0.00000000
        Energy to separate low and high energystates:    0.87290


:NLDA  : NUMBER OF ELECTRONS          =  26.000

:FLDA  : F E R M I - ENERGY           =   1.46530




:POS001: AT.NR.   1 POSITION = 0.00000 0.00000 0.00000  MULTIPLICITY =  1

       LMMAX  5
       LM=   0 0  4 0  4 4  6 0  6 4




:POS002: AT.NR.   2 POSITION = 0.00000 0.00000 0.00000  MULTIPLICITY =  2

       LMMAX  6
       LM=   0 0  4 0  4 4  6 0  6 4 -3 2
:FER DMFT Fermi Energy   0.94034
:EORB          0.078480541
:SUM SUM OF DMFT BAND ENERGIES         -0.087399795

:CHA001: TOTAL CHARGE INSIDE SPHERE   1 =     8.212856
:PCS001: PARTIAL CHARGES SPHERE =  1 S,P,D,F,      D-EG,D-T2G 
:QTL001: 1.7989 4.1815 0.2445 1.9844 0.0000 0.0000 0.0000 0.0570 0.2049 0.0000 0.0000 0.0000
        Q-s-low E-s-low   Q-p-low E-p-low   Q-d-low E-d-low   Q-f-low E-f-low
:EPL001:  1.7986 -2.1952    4.1795 -0.4105    0.2416  0.4859    0.2498  0.6201
        Q-s-hi  E-s-hi    Q-p-hi  E-p-hi    Q-d-hi  E-d-hi    Q-f-hi  E-f-hi 
:EPH001:  0.0002  0.9975    0.0020  0.9821    0.0029  0.9795    1.7346  0.9570

:CHA002: TOTAL CHARGE INSIDE SPHERE   2 =     5.187682
:PCS002: PARTIAL CHARGES SPHERE =  2 S,P,D,F,      D-EG,D-T2G 
:QTL002: 1.5785 3.5952 0.0118 0.0018 0.0000 0.0000 0.0000 0.0041 0.0129 0.0000 0.0000 0.0000
        Q-s-low E-s-low   Q-p-low E-p-low   Q-d-low E-d-low   Q-f-low E-f-low
:EPL002:  1.5769 -0.4057    3.5757  0.5766    0.0094  0.0496    0.0015 -0.0571
        Q-s-hi  E-s-hi    Q-p-hi  E-p-hi    Q-d-hi  E-d-hi    Q-f-hi  E-f-hi 
:EPH002:  0.0016  0.9771    0.0195  0.9789    0.0024  0.9514    0.0003  0.9632

:CHA  : TOTAL CHARGE INSIDE UNIT CELL =      26.000000

:ESUM  : SUM OF EIGENVALUES =          -0.047193923


------- UO2_6.scfc --------

        1.ATOM      U  4+                21 CORE STATES
:1S 001: 1S               -8506.299410669 Ry
:2S 001: 2S               -1587.747844624 Ry
:2PP001: 2P*              -1530.993547497 Ry
:2P 001: 2P               -1249.797853916 Ry
:3S 001: 3S                -399.889324030 Ry
:3PP001: 3P*               -374.115980713 Ry
:3P 001: 3P                -309.332848060 Ry
:3DD001: 3D*               -268.520256660 Ry
:3D 001: 3D                -255.375065538 Ry
:4S 001: 4S                -100.959286203 Ry
:4PP001: 4P*                -89.365721076 Ry
:4P 001: 4P                 -72.456135179 Ry
:4DD001: 4D*                -53.991314651 Ry
:4D 001: 4D                 -50.882777705 Ry
:5S 001: 5S                 -21.553467930 Ry
:5PP001: 5P*                -17.046883366 Ry
:5P 001: 5P                 -13.017147005 Ry
:4FF001: 4F*                -26.596339563 Ry
:4F 001: 4F                 -25.786368200 Ry
:5DD001: 5D*                 -6.428597134 Ry
:5D 001: 5D                  -5.830594227 Ry

        2.ATOM      O  2-                 1 CORE STATES
:1S 002: 1S                 -35.987083951 Ry

------- UO2_6.scfm --------
:CINT001 Core Integral Atom   1   77.964227
:CINT002 Core Integral Atom   2    2.000000
     
       CHARGES OF NEW CHARGE DENSITY
:NTO   : INTERSTITIAL CHARGE =     7.411775
:NTO001: CHARGE SPHERE  1    =    86.177083
:NTO002: CHARGE SPHERE  2    =     7.187682

:NEC01: NUCLEAR AND ELECTRONIC CHARGE    108.00000   107.96422
     
       CHARGES OF OLD CHARGE DENSITY
:OTO   : INTERSTITIAL CHARGE =     7.448767
:OTO001: CHARGE SPHERE  1    =    86.199962
:OTO002: CHARGE SPHERE  2    =     7.175636
:DNEW  1   -0.0229
:DNEW  2    0.0120

:NEC02: NUCLEAR AND ELECTRONIC CHARGE    108.00000   108.00000
     
       CONVERGENCE TEST
:DTO001: DIFFERENCE IN SPHERE  1 =  0.0205419
:DTO002: DIFFERENCE IN SPHERE  2 =  0.0139742

:DIS  :  CHARGE DISTANCE       ( 0.0205419 for atom    1 spin 1)      0.0161634
:BIG check (qbig,qrms,qtot)    0.685D-02   0.116D-01   0.162D-01
 
******************************************************
* MULTISECANT MIXING VER6 RELEASE 6.0 OPTIONS        *
* Standard Mode with controls                        *
* Regularization       1.000E-06                     *
* Trust Region Control Active                        *
* Max Number of Memory Steps    8                    *
******************************************************
 
:PLANE:  INTERSTITIAL TOTAL      2.52992 DISTAN  1.286E-01 % 
:CHARG:  CLM CHARGE   /ATOM    345.91412 DISTAN  8.620E-03 % 
 
 Step History DMIX, Red, Pred, Trust, FRMS, FABS
  2  2.5000E-02  1.0000E+00  1.0000E+00  1.0000E+00
  3  6.2500E-02  7.7112E-01  1.0000E+00  1.0000E+00
  4  6.9715E-02  6.1368E-01  4.5346E-01  1.7215E+00
  5  8.4681E-02  1.0000E+00  1.5162E-01  2.0935E+00
  
:NORMS:  Nuclear, Spectral, Froebius, Shanno-Pua   0.1887E+01  0.1496E+01  0.1669E+01  0.5226E+00
:INFO :  Number of Memory Steps    4 Skipping    0
:INFO :  SLambda=    1.8872840  Max    1.8872840

Eigenvalues, unscaled except for SY+YY
   #     SY Real        SY Imag          SS             YY         SY+YY Real      SY+YY Imag
   1   1.718368E+00   0.000000E+00   1.345640E+00   3.013413E+00   6.150163E+00   0.000000E+00
   2   3.350828E-01   0.000000E+00   9.083277E-02   9.857866E-01   1.724576E+00   0.000000E+00
   3  -8.730184E-14   0.000000E+00  -6.565060E-16   7.954313E-04   6.997486E-04   0.000000E+00
   4   6.286254E-07   0.000000E+00   4.438312E-07   5.515947E-06   6.222275E-06   0.000000E+00
 
:INFO :  Increased using Multisecant Shanno-Phua
:INFO :  Singular value   6.160E+00 Weight  1.0000E+00 Projections   1.769E+00  2.647E-02
:INFO :  Singular value   1.722E+00 Weight  1.0000E+00 Projections  -2.153E+00  4.237E-02
:INFO :  Singular value   6.997E-04 Weight  9.9998E-01 Projections   3.428E-01  1.340E+00
:INFO :  Singular value   6.222E-06 Weight  8.1002E-01 Projections   3.360E-03 -2.467E+00
 
:DIRM :  MEMORY 4/8 RESCALE  15.42 RED 0.907 PRED 0.152 NEXT 0.145
:INFO :  Blimit    2.481E+00  1.261E+00  8.710E-01  4.394E+00
:DIRP :  |MSR1|= 2.016E-03 |PRATT|= 5.016E-02 ANGLE=  78.6 DEGREES
:DIRQ :  |MSR1|= 1.846E-03 |PRATT|= 5.963E-02 ANGLE=  96.5 DEGREES
:DIR  :  |MSR1|= 2.733E-03 |PRATT|= 7.793E-02 ANGLE=  88.0 DEGREES
:MIX  :   MSE1   REGULARIZATION: 3.01E-06  GREED: 0.131  Newton 1.00  0.04                
     
       CHARGES OF MIXED CHARGE DENSITY
:CTO   : INTERSTITIAL CHARGE =     7.448719
:CTO001: CHARGE SPHERE  1    =    86.200115
:CTO002: CHARGE SPHERE  2    =     7.175583

:NEC03: NUCLEAR AND ELECTRONIC CHARGE    108.00000   108.00000

PW CHANGE     H    K    L       Current     Change     Residue
:PTO001:      0    0    0  9.11593645E-02  5.033E-07  1.040E-05
:PTO002:     -1   -1   -1  2.18496098E-01  2.892E-06 -2.254E-04
:PTO003:      0    0   -2 -4.47595534E-04 -1.268E-06 -3.507E-04
:PTO004:      0   -2   -2  2.94663930E-01  3.717E-06  2.489E-04
:PTO005:     -1   -1   -3  1.53353016E-01  1.318E-05  9.257E-05
:PTO006:     -2   -2   -2 -2.12734290E-02  1.276E-05 -2.773E-05
:PTO007:      0    0   -4  4.23269080E-02 -6.292E-06  1.874E-05
:PTO008:     -1   -3   -3  2.74941077E-02  2.419E-08  5.703E-05
:PTO009:      0   -2   -4 -5.28925058E-02  1.086E-05  2.035E-05
:PTO010:     -2   -2   -4  3.96440653E-02 -7.497E-06  6.442E-05
:PTO011:     -3   -3   -3 -5.53700818E-03  4.424E-06  8.460E-05
:PTO012:     -1   -1   -5 -6.34381030E-03 -9.355E-06 -6.554E-05

:ENE  : ********** TOTAL ENERGY IN Ry =       -56437.57235188


------- UO2_6.scf0 --------


            ---------
:ITE089: 89. ITERATION
            ---------

:NATO :    2 INDEPENDENT AND    3 TOTAL ATOMS IN UNITCELL
       SUBSTANCE: blebleble                                                   

       LATTICE                      = F   
:POT  : POTENTIAL OPTION    5
:LAT  : LATTICE CONSTANTS= 10.34250 10.34250 10.34250    1.571    1.571    1.571
:VOL  : UNIT CELL VOLUME =     276.57734
       MODE OF CALCULATION IS       = RELA
       NON-SPINPOLARIZED CALCULATION
:IFFT  : FFT-parameters:   80   80   80 Factor: 2.00
       ATOMNUMBER=  1 U  4+      VCOUL-ZERO = -0.44933E+00
       ATOMNUMBER=  2 O  2-      VCOUL-ZERO =  0.84161E+00
:FIT001: LUSE= 13 SIGMA OF V-XC FIT FOR ATOM  1  0.6644697E-04
:FIT001: LUSE= 13 SIGMA OF V-XC FIT FOR ATOM  1  0.6644697E-04
:FIT002: LUSE= 13 SIGMA OF V-XC FIT FOR ATOM  2  0.1304363E-03
:FIT002: LUSE= 13 SIGMA OF V-XC FIT FOR ATOM  2  0.1304363E-03
:DEN  : DENSITY INTEGRAL  =        -20905.09505385   (Ry)
       ELS_POTENTIAL_AT Z=0 and Z=0.5:  -3.39974  -3.39974
       ELS_POTENTIAL_AT Y=0 and Y=0.5:   0.00000   0.00000
:VZERO:v0,v0c,v0x  -4.12534  -3.39974  -0.72560 v5,v5c,v5x  -4.12534  -3.39974  -0.72560
:VZERY:v0,v0c,v0x  -0.86899   0.00000  -0.86899 v5,v5c,v5x  -0.86899   0.00000  -0.86899
:VZERX:v0,v0c,v0x  -0.86899   0.00000  -0.86899 v5,v5c,v5x  -0.86899   0.00000  -0.86899

------- UO2_6.scf1 --------

          ATOMIC SPHERE DEPENDENT PARAMETERS FOR ATOM  U  4+     
:e__0001: OVERALL ENERGY PARAMETER IS    0.7682
          OVERALL BASIS SET ON ATOM IS LAPW
:E0_0001: E( 0)=    0.7682
             APW+lo
:E0_0001: E( 0)=   -2.1984   E(BOTTOM)=   -3.546   E(TOP)=   -0.850  5  6   237
             LOCAL ORBITAL
:E1_0001: E( 1)=   -1.2800   E(BOTTOM)=   -1.813   E(TOP)= -200.000  4 -1   214
             APW+lo
:E1_0001: E( 1)=    1.1682
             LOCAL ORBITAL
:E3_0001: E( 3)=    1.0291   E(BOTTOM)=    0.240   E(TOP)=    1.819  1  2   176
             APW+lo
:E2_0001: E( 2)=    0.7980   E(BOTTOM)=    0.798   E(TOP)= -200.000  3 -1   110
             APW+lo

          ATOMIC SPHERE DEPENDENT PARAMETERS FOR ATOM  O  2-     
:e__0002: OVERALL ENERGY PARAMETER IS    0.7682
          OVERALL BASIS SET ON ATOM IS LAPW
:E0_0002: E( 0)=   -0.2749   E(BOTTOM)=   -1.645   E(TOP)=    1.096  1  2   237
             APW+lo
:E0_0002: E( 0)=    1.1682
             LOCAL ORBITAL
:E1_0002: E( 1)=    0.7682
             APW+lo

       K=   0.00000   0.00000   0.00000            1
:RKM  : MATRIX SIZE  755LOs:  30  RKM= 8.47  WEIGHT= 1.00  PGR:    
       EIGENVALUES ARE:
:EIG00001:      -2.2838119   -0.4832595   -0.4360546   -0.4360546   -0.4360546
:EIG00006:      -0.3813192    0.4343208    0.4343208    0.4343208    0.6662771
:EIG00011:       0.6662771    0.6662771    1.0019518    1.0019518    1.0019518
:EIG00016:       1.0414182    1.0683895    1.0683895    1.0683895    1.1359911
:EIG00021:       1.1673186    1.1673186    1.6740592    1.6740592    1.6740592
:EIG00026:       1.8857470    1.8857470    1.8857470    2.2834126    2.6195026
:EIG00031:       2.6195026    2.6398538    2.6398538    2.6398538    3.0518933
:EIG00036:       3.0518933    3.0518933    3.1782211    3.1782211    3.1782211
:EIG00041:       3.2961419    3.6410711    3.6410711    3.7393055    3.7393055
:EIG00046:       3.7393055    3.7730347    3.7730347    3.7788493    3.7788493
 
:EIG00051:       3.7788493    3.9415177    4.0408548    4.0408548    4.0408548
:EIG00056:       4.0953029    4.1576403    4.1576403    4.1576403    4.2332212
:EIG00061:       4.2332212    4.2332212    4.2645181    4.2645181    4.2645181
:EIG00066:       4.6021850    5.1393871    5.1393871    5.1393871    5.3568546
:EIG00071:       5.3568546    5.4162091    5.4162091    5.4162091    5.5812198
:EIG00076:       6.0238757    6.0238757    6.0536687    6.0536687    6.0536687
:EIG00081:       6.2307588    6.2307588    6.2307588    6.3170166    6.3170166
:EIG00086:       6.3170166    6.5995032    6.5995032    6.5995032    6.6925021
:EIG00091:       6.6925021    6.6937292    6.7790322    6.7790322    6.8129750
:EIG00096:       6.8129750    6.8129750    6.9876416    6.9876416    6.9876416
 
:EIG00101:       7.0302307    7.0488171    7.0488171    7.0488171    7.1963729
:EIG00106:       7.1963729    7.1963729    7.2529061    7.3885260    7.4777647
:EIG00111:       7.4777647    7.4800214    7.4800214    7.4800214    7.4864877
:EIG00116:       7.4864877    7.4864877    7.6255325    7.6255325    7.6255325
:EIG00121:       7.8712292    7.8712292    7.8712292    8.2696410    8.2696410
:EIG00126:       8.2696410    8.3893861    8.3893861    8.3893861    8.4642284
       ********************************************************

:KPT   :      NUMBER OF K-POINTS:   145

------- UO2_6.scfso --------
   0.0   0.0 angle (M,z), angle (M,x) deg
 
        SPIN-ORBIT EIGENVALUES:
     K=   0.00000   0.00000   0.00000            1
      MATRIX SIZE=  260   WEIGHT= 1.00
     EIGENVALUES ARE:
          -2.2838119   -2.2838119   -0.8435405   -0.8435405   -0.4832595
          -0.4832595   -0.3813231   -0.3813231   -0.2713207   -0.2713207
          -0.2713207   -0.2713207    0.4323740    0.4323740    0.4323740
           0.4323740    0.4373837    0.4373837    0.6606262    0.6606262
           0.6689324    0.6689324    0.6689324    0.6689324    0.9743973
           0.9743973    0.9932994    0.9932994    0.9932994    0.9932994
           1.0588248    1.0588248    1.0726424    1.0726424    1.0726424
           1.0726424    1.0871394    1.0871394    1.1359911    1.1359911

           1.1653580    1.1653580    1.1653580    1.1653580    1.6627712
           1.6627712    1.6627712    1.6627712    1.6967300    1.6967300
           1.8229764    1.8229764    1.9141722    1.9141722    1.9141722
           1.9141722    2.2834126    2.2834126    2.6102754    2.6102754
           2.6102754    2.6102754    2.6445441    2.6445441    2.6445441
           2.6445441    2.6490342    2.6490342    2.8766200    2.8766200
           3.1477805    3.1477805    3.1477805    3.1477805    3.1750070
           3.1750070    3.1801597    3.1801597    3.1801597    3.1801597

           3.2967728    3.2967728    3.6361206    3.6361206    3.6361206
           3.6361206    3.7361150    3.7361150    3.7361150    3.7361150
           3.7575999    3.7575999    3.7730347    3.7730347    3.7730347
           3.7730347    3.7788319    3.7788319    3.7788579    3.7788579
           3.7788579    3.7788579    3.9415177    3.9415177    4.0409345
           4.0409345    4.0409345    4.0409345    4.0411823    4.0411823
           4.0953029    4.0953029    4.1576387    4.1576387    4.1576387
           4.1576387    4.1576675    4.1576675    4.2266450    4.2266450

           4.2370933    4.2370933    4.2370933    4.2370933    4.2632968
           4.2632968    4.2662310    4.2662310    4.2662310    4.2662310

       ********************************************************

------- UO2_6.scf2 --------
:GMA  : POTENTIAL AND CHARGE CUT-OFF  12.00 Ry**.5
         Bandranges (emin - emax) and occupancy:
:BAN00018:  18    0.437384    0.661319  1.00000000
:BAN00019:  19    0.540946    0.662119  1.00000000
:BAN00020:  20    0.540946    0.662119  1.00000000
:BAN00021:  21    0.625274    0.691949  1.00000000
:BAN00022:  22    0.625274    0.691949  1.00000000
:BAN00023:  23    0.663194    0.725573  1.00000000
:BAN00024:  24    0.663194    0.725573  1.00000000
:BAN00025:  25    0.922975    0.974397  0.94139423
:BAN00026:  26    0.922975    0.974397  0.94139423
:BAN00027:  27    0.960783    0.993299  0.05860577
:BAN00028:  28    0.960783    0.993299  0.05860577
:BAN00029:  29    0.970538    0.993299  0.00000000
:BAN00030:  30    0.970538    0.993299  0.00000000
:BAN00031:  31    0.991276    1.058825  0.00000000
:BAN00032:  32    0.991276    1.058825  0.00000000
:BAN00033:  33    1.022804    1.072642  0.00000000
        Energy to separate low and high energystates:    0.87297


:NLDA  : NUMBER OF ELECTRONS          =  26.000

:FLDA  : F E R M I - ENERGY           =   1.46538




:POS001: AT.NR.   1 POSITION = 0.00000 0.00000 0.00000  MULTIPLICITY =  1

       LMMAX  5
       LM=   0 0  4 0  4 4  6 0  6 4




:POS002: AT.NR.   2 POSITION = 0.00000 0.00000 0.00000  MULTIPLICITY =  2

       LMMAX  6
       LM=   0 0  4 0  4 4  6 0  6 4 -3 2
:FER DMFT Fermi Energy   0.94105
:EORB          0.076534559
:SUM SUM OF DMFT BAND ENERGIES         -0.085689861

:CHA001: TOTAL CHARGE INSIDE SPHERE   1 =     8.210770
:PCS001: PARTIAL CHARGES SPHERE =  1 S,P,D,F,      D-EG,D-T2G 
:QTL001: 1.7988 4.1815 0.2445 1.9823 0.0000 0.0000 0.0000 0.0570 0.2049 0.0000 0.0000 0.0000
[...]
******************************************************
 
:PLANE:  INTERSTITIAL TOTAL      2.53344 DISTAN  4.257E-03 % 
:CHARG:  CLM CHARGE   /ATOM    345.91333 DISTAN  2.128E-04 % 
 
 Step History DMIX, Red, Pred, Trust, FRMS, FABS
 27  3.0000E-02  9.9654E-01  7.7721E-03  5.0000E-01
 28  2.9264E-02  8.5000E-01  1.3390E-02  5.0000E-01
 29  4.5406E-02  1.2134E+00  3.1750E-02  6.0541E-01
 30  6.4928E-02  2.2818E-01  3.1215E-02  8.6571E-01
 31  7.0456E-02  1.9475E-01  1.5264E-01  9.3941E-01
 32  8.4218E-02  8.6253E-01  5.4818E-01  1.1229E+00
 33  9.9638E-02  4.4656E-01  4.3537E-01  1.3285E+00
 34  1.2681E-01  1.0000E+00  6.3536E-01  1.6908E+00
  
:NORMS:  Nuclear, Spectral, Froebius, Shanno-Pua   0.1434E+01  0.1594E+01  0.1522E+01  0.2213E+00
:INFO :  Number of Memory Steps    8 Skipping   25
:INFO :  SLambda=    1.5940881  Max    1.5940881

Eigenvalues, unscaled except for SY+YY
   #     SY Real        SY Imag          SS             YY         SY+YY Real      SY+YY Imag
   1   1.317157E+00   0.000000E+00   2.617269E+00   6.650786E+00   8.832739E+00   0.000000E+00
   2   9.117292E-01   0.000000E+00   6.766276E-01   1.120810E+00   2.455750E+00   0.000000E+00
   3   1.013143E-01   0.000000E+00   6.890865E-02   1.316255E-01   3.062418E-01   0.000000E+00
   4   6.539408E-02   0.000000E+00   8.994525E-02   9.591540E-02   2.232272E-01   0.000000E+00
   5   6.587468E-04   0.000000E+00   3.875520E-04   4.907255E-04   1.393331E-03   0.000000E+00
   6   4.298971E-04   0.000000E+00   1.299892E-04   3.568026E-04   1.157089E-03   0.000000E+00
   7   8.614660E-08   0.000000E+00   1.744307E-07   3.311677E-07   8.698687E-07   0.000000E+00
   8   1.097111E-05   0.000000E+00   8.419398E-06   1.576111E-05   3.273158E-05   0.000000E+00
 
:INFO :  Singular value   8.873E+00 Weight  1.0000E+00 Projections   5.314E-02  5.536E-04
:INFO :  Singular value   2.448E+00 Weight  1.0000E+00 Projections  -1.293E-01 -3.036E-04
:INFO :  Singular value   3.062E-01 Weight  1.0000E+00 Projections   9.685E-02  3.783E-03
:INFO :  Singular value   2.231E-01 Weight  1.0000E+00 Projections  -9.198E-03 -3.069E-03
:INFO :  Singular value   1.503E-03 Weight  9.9998E-01 Projections  -1.627E-02  1.182E-02
:INFO :  Singular value   1.090E-03 Weight  9.9996E-01 Projections   2.530E-03  2.033E-03
:INFO :  Singular value   3.281E-05 Weight  9.6053E-01 Projections   4.476E-03 -1.500E-01
:INFO :  Singular value   8.532E-07 Weight  1.6190E-02 Projections  -3.900E-03  8.164E-02
 
:DIRM :  MEMORY 8/8 RESCALE  17.79 RED 0.845 PRED 0.635 NEXT 0.508
:INFO :  Blimit    2.329E+00  1.112E+00  1.000E+00  4.446E+00
:DIRP :  |MSR1|= 1.442E-03 |PRATT|= 1.919E-03 ANGLE=  24.5 DEGREES
:DIRQ :  |MSR1|= 7.780E-04 |PRATT|= 1.473E-03 ANGLE=  34.5 DEGREES
:DIR  :  |MSR1|= 1.639E-03 |PRATT|= 2.419E-03 ANGLE=  29.1 DEGREES
:MIX  :   MSE1   REGULARIZATION: 6.65E-06  GREED: 0.157  Newton 1.00  0.68                
     
       CHARGES OF MIXED CHARGE DENSITY
:CTO   : INTERSTITIAL CHARGE =     7.457937
:CTO001: CHARGE SPHERE  1    =    86.179549
:CTO002: CHARGE SPHERE  2    =     7.181257

:NEC03: NUCLEAR AND ELECTRONIC CHARGE    108.00000   108.00000

PW CHANGE     H    K    L       Current     Change     Residue
:PTO001:      0    0    0  9.12594554E-02  2.068E-06  2.549E-06
:PTO002:     -1   -1   -1  2.18705155E-01  6.290E-06  6.262E-06
:PTO003:      0    0   -2 -3.48770764E-04 -4.898E-06 -7.701E-06
:PTO004:      0   -2   -2  2.95200087E-01  8.624E-06  8.060E-06
:PTO005:     -1   -1   -3  1.54244381E-01  4.504E-06  5.798E-06
:PTO006:     -2   -2   -2 -2.08848543E-02 -2.252E-06 -1.603E-06
:PTO007:      0    0   -4  4.23727241E-02  5.719E-07 -1.001E-06
:PTO008:     -1   -3   -3  2.80407911E-02 -8.071E-07  4.018E-07
:PTO009:      0   -2   -4 -5.23235051E-02 -3.081E-06 -6.276E-07
:PTO010:     -2   -2   -4  3.97960321E-02  3.183E-07  1.519E-06
:PTO011:     -3   -3   -3 -5.41123747E-03  7.193E-07  3.196E-06
:PTO012:     -1   -1   -5 -6.33757873E-03 -4.178E-06 -7.719E-06

:ENE  : ********** TOTAL ENERGY IN Ry =       -56437.57341406


------- UO2_6.scf0 --------


            ---------
:ITE118:118. ITERATION
            ---------

:NATO :    2 INDEPENDENT AND    3 TOTAL ATOMS IN UNITCELL
       SUBSTANCE: blebleble                                                   

       LATTICE                      = F   
:POT  : POTENTIAL OPTION    5
:LAT  : LATTICE CONSTANTS= 10.34250 10.34250 10.34250    1.571    1.571    1.571
:VOL  : UNIT CELL VOLUME =     276.57734
       MODE OF CALCULATION IS       = RELA
       NON-SPINPOLARIZED CALCULATION
:IFFT  : FFT-parameters:   80   80   80 Factor: 2.00
       ATOMNUMBER=  1 U  4+      VCOUL-ZERO = -0.45581E+00
       ATOMNUMBER=  2 O  2-      VCOUL-ZERO =  0.84599E+00
:FIT001: LUSE= 13 SIGMA OF V-XC FIT FOR ATOM  1  0.6748678E-04
:FIT001: LUSE= 13 SIGMA OF V-XC FIT FOR ATOM  1  0.6748678E-04
:FIT002: LUSE= 13 SIGMA OF V-XC FIT FOR ATOM  2  0.1287011E-03
:FIT002: LUSE= 13 SIGMA OF V-XC FIT FOR ATOM  2  0.1287011E-03
:DEN  : DENSITY INTEGRAL  =        -20903.53633737   (Ry)
       ELS_POTENTIAL_AT Z=0 and Z=0.5:  -3.41224  -3.41224
       ELS_POTENTIAL_AT Y=0 and Y=0.5:   0.00000   0.00000
:VZERO:v0,v0c,v0x  -4.13833  -3.41224  -0.72609 v5,v5c,v5x  -4.13833  -3.41224  -0.72609
:VZERY:v0,v0c,v0x  -0.86949   0.00000  -0.86949 v5,v5c,v5x  -0.86949   0.00000  -0.86949
:VZERX:v0,v0c,v0x  -0.86949   0.00000  -0.86949 v5,v5c,v5x  -0.86949   0.00000  -0.86949

------- UO2_6.scf1 --------

          ATOMIC SPHERE DEPENDENT PARAMETERS FOR ATOM  U  4+     
:e__0001: OVERALL ENERGY PARAMETER IS    0.7682
          OVERALL BASIS SET ON ATOM IS LAPW
:E0_0001: E( 0)=    0.7682
             APW+lo
:E0_0001: E( 0)=   -2.2116   E(BOTTOM)=   -3.558   E(TOP)=   -0.865  5  6   235
             LOCAL ORBITAL
:E1_0001: E( 1)=   -1.2800   E(BOTTOM)=   -1.824   E(TOP)= -200.000  4 -1   221
             APW+lo
:E1_0001: E( 1)=    1.1682
             LOCAL ORBITAL
:E3_0001: E( 3)=    1.0143   E(BOTTOM)=    0.227   E(TOP)=    1.802  1  2   174
             APW+lo
:E2_0001: E( 2)=    0.7874   E(BOTTOM)=    0.787   E(TOP)= -200.000  3 -1   108
             APW+lo

          ATOMIC SPHERE DEPENDENT PARAMETERS FOR ATOM  O  2-     
:e__0002: OVERALL ENERGY PARAMETER IS    0.7682
          OVERALL BASIS SET ON ATOM IS LAPW
:E0_0002: E( 0)=   -0.2685   E(BOTTOM)=   -1.640   E(TOP)=    1.102  1  2   239
             APW+lo
:E0_0002: E( 0)=    1.1682
             LOCAL ORBITAL
:E1_0002: E( 1)=    0.7682
             APW+lo

       K=   0.00000   0.00000   0.00000            1
:RKM  : MATRIX SIZE  755LOs:  30  RKM= 8.47  WEIGHT= 1.00  PGR:    
       EIGENVALUES ARE:
:EIG00001:      -2.2954952   -0.4786701   -0.4445228   -0.4445228   -0.4445228
:EIG00006:      -0.3759187    0.4373943    0.4373943    0.4373943    0.6681927
:EIG00011:       0.6681927    0.6681927    0.9888707    0.9888707    0.9888707
:EIG00016:       1.0285524    1.0587740    1.0587740    1.0587740    1.1374551
:EIG00021:       1.1643372    1.1643372    1.6730890    1.6730890    1.6730890
:EIG00026:       1.8852941    1.8852941    1.8852941    2.2831561    2.6182787
:EIG00031:       2.6182787    2.6404540    2.6404540    2.6404540    3.0503230
:EIG00036:       3.0503230    3.0503230    3.1762537    3.1762537    3.1762537
:EIG00041:       3.2966394    3.6387364    3.6387364    3.7388463    3.7388463
:EIG00046:       3.7388463    3.7758819    3.7758819    3.7772751    3.7772751
 
:EIG00051:       3.7772751    3.9398717    4.0421281    4.0421281    4.0421281
:EIG00056:       4.0939223    4.1579636    4.1579636    4.1579636    4.2317088
:EIG00061:       4.2317088    4.2317088    4.2640555    4.2640555    4.2640555
:EIG00066:       4.6019450    5.1414023    5.1414023    5.1414023    5.3552087
:EIG00071:       5.3552087    5.4171520    5.4171520    5.4171520    5.5804170
:EIG00076:       6.0210237    6.0210237    6.0504182    6.0504182    6.0504182
:EIG00081:       6.2303238    6.2303238    6.2303238    6.3130830    6.3130830
:EIG00086:       6.3130830    6.6006554    6.6006554    6.6006554    6.6930186
:EIG00091:       6.6930186    6.6936161    6.7791346    6.7791346    6.8116822
:EIG00096:       6.8116822    6.8116822    6.9879965    6.9879965    6.9879965
 
:EIG00101:       7.0315869    7.0470832    7.0470832    7.0470832    7.1978893
:EIG00106:       7.1978893    7.1978893    7.2520680    7.3883561    7.4790158
:EIG00111:       7.4790158    7.4802147    7.4802147    7.4802147    7.4882123
:EIG00116:       7.4882123    7.4882123    7.6252906    7.6252906    7.6252906
:EIG00121:       7.8688281    7.8688281    7.8688281    8.2695064    8.2695064
:EIG00126:       8.2695064    8.3890991    8.3890991    8.3890991    8.4612305
       ********************************************************

:KPT   :      NUMBER OF K-POINTS:   145

------- UO2_6.scfso --------
   0.0   0.0 angle (M,z), angle (M,x) deg
 
        SPIN-ORBIT EIGENVALUES:
     K=   0.00000   0.00000   0.00000            1
      MATRIX SIZE=  260   WEIGHT= 1.00
     EIGENVALUES ARE:
          -2.2954952   -2.2954952   -0.8533067   -0.8533067   -0.4786701
          -0.4786701   -0.3759229   -0.3759229   -0.2791417   -0.2791417
          -0.2791417   -0.2791417    0.4353966    0.4353966    0.4353966
           0.4353966    0.4405375    0.4405375    0.6631242    0.6631242
           0.6704101    0.6704101    0.6704101    0.6704101    0.9612290
           0.9612290    0.9809551    0.9809551    0.9809551    0.9809551
           1.0460099    1.0460099    1.0625477    1.0625477    1.0625477
           1.0625477    1.0773079    1.0773079    1.1374551    1.1374551

           1.1623682    1.1623682    1.1623682    1.1623682    1.6617422
           1.6617422    1.6617422    1.6617422    1.6958944    1.6958944
           1.8221757    1.8221757    1.9138671    1.9138671    1.9138671
           1.9138671    2.2831561    2.2831561    2.6095731    2.6095731
           2.6095731    2.6095731    2.6446558    2.6446558    2.6446558
           2.6446558    2.6495860    2.6495860    2.8753739    2.8753739
           3.1460763    3.1460763    3.1460763    3.1460763    3.1730607
           3.1730607    3.1781892    3.1781892    3.1781892    3.1781892

           3.2972565    3.2972565    3.6339181    3.6339181    3.6339181
           3.6339181    3.7355524    3.7355524    3.7355524    3.7355524
           3.7570875    3.7570875    3.7758818    3.7758818    3.7758818
           3.7758818    3.7772576    3.7772576    3.7772839    3.7772839
           3.7772839    3.7772839    3.9398717    3.9398717    4.0422291
           4.0422291    4.0422291    4.0422291    4.0424356    4.0424356
           4.0939223    4.0939223    4.1579655    4.1579655    4.1579655
           4.1579655    4.1579822    4.1579822    4.2251423    4.2251423

           4.2356196    4.2356196    4.2356196    4.2356196    4.2628453
           4.2628453    4.2657076    4.2657076    4.2657076    4.2657076

       ********************************************************

------- UO2_6.scf2 --------
:GMA  : POTENTIAL AND CHARGE CUT-OFF  12.00 Ry**.5
         Bandranges (emin - emax) and occupancy:
:BAN00018:  18    0.440537    0.662562  1.00000000
:BAN00019:  19    0.543912    0.666420  1.00000000
:BAN00020:  20    0.543912    0.666420  1.00000000
:BAN00021:  21    0.627523    0.695012  1.00000000
:BAN00022:  22    0.627523    0.695012  1.00000000
:BAN00023:  23    0.664846    0.728768  1.00000000
:BAN00024:  24    0.664846    0.728768  1.00000000
:BAN00025:  25    0.911521    0.961229  0.94358671
:BAN00026:  26    0.911521    0.961229  0.94358671
:BAN00027:  27    0.948983    0.980955  0.05641329
:BAN00028:  28    0.948983    0.980955  0.05641329
:BAN00029:  29    0.958524    0.980955  0.00000000
:BAN00030:  30    0.958524    0.980955  0.00000000
:BAN00031:  31    0.980180    1.046086  0.00000000
:BAN00032:  32    0.980180    1.046086  0.00000000
:BAN00033:  33    1.011023    1.062548  0.00000000
        Energy to separate low and high energystates:    0.86152


:NLDA  : NUMBER OF ELECTRONS          =  26.000

:FLDA  : F E R M I - ENERGY           =   1.45341




:POS001: AT.NR.   1 POSITION = 0.00000 0.00000 0.00000  MULTIPLICITY =  1

       LMMAX  5
       LM=   0 0  4 0  4 4  6 0  6 4




:POS002: AT.NR.   2 POSITION = 0.00000 0.00000 0.00000  MULTIPLICITY =  2

       LMMAX  6
       LM=   0 0  4 0  4 4  6 0  6 4 -3 2
:FER DMFT Fermi Energy   0.95123
:EORB          0.019544127
:SUM SUM OF DMFT BAND ENERGIES         -0.067353314

:CHA001: TOTAL CHARGE INSIDE SPHERE   1 =     8.214894
:PCS001: PARTIAL CHARGES SPHERE =  1 S,P,D,F,      D-EG,D-T2G 
:QTL001: 1.8002 4.1903 0.2505 1.9702 0.0000 0.0000 0.0000 0.0586 0.2086 0.0000 0.0000 0.0000
        Q-s-low E-s-low   Q-p-low E-p-low   Q-d-low E-d-low   Q-f-low E-f-low
:EPL001:  1.8000 -2.2063    4.1884 -0.4188    0.2474  0.4898    0.2372  0.6194
        Q-s-hi  E-s-hi    Q-p-hi  E-p-hi    Q-d-hi  E-d-hi    Q-f-hi  E-f-hi 
:EPH001:  0.0002  0.9849    0.0019  0.9699    0.0031  0.9669    1.7330  0.9455

:CHA002: TOTAL CHARGE INSIDE SPHERE   2 =     5.181347
:PCS002: PARTIAL CHARGES SPHERE =  2 S,P,D,F,      D-EG,D-T2G 
:QTL002: 1.5771 3.5904 0.0118 0.0018 0.0000 0.0000 0.0000 0.0041 0.0129 0.0000 0.0000 0.0000
        Q-s-low E-s-low   Q-p-low E-p-low   Q-d-low E-d-low   Q-f-low E-f-low
:EPL002:  1.5754 -0.4005    3.5714  0.5798    0.0094  0.0517    0.0015 -0.0595
        Q-s-hi  E-s-hi    Q-p-hi  E-p-hi    Q-d-hi  E-d-hi    Q-f-hi  E-f-hi 
:EPH002:  0.0016  0.9654    0.0189  0.9667    0.0023  0.9400    0.0003  0.9518

:CHA  : TOTAL CHARGE INSIDE UNIT CELL =      26.000000

:ESUM  : SUM OF EIGENVALUES =          -0.083198446


------- UO2_6.scfc --------

        1.ATOM      U  4+                21 CORE STATES
:1S 001: 1S               -8506.318853304 Ry
:2S 001: 2S               -1587.768132421 Ry
:2PP001: 2P*              -1531.013633680 Ry
:2P 001: 2P               -1249.818127278 Ry
:3S 001: 3S                -399.910436296 Ry
:3PP001: 3P*               -374.137054357 Ry
:3P 001: 3P                -309.353936307 Ry
:3DD001: 3D*               -268.541324553 Ry
:3D 001: 3D                -255.396154521 Ry
:4S 001: 4S                -100.979554360 Ry
:4PP001: 4P*                -89.385993300 Ry
:4P 001: 4P                 -72.476243946 Ry
:4DD001: 4D*                -54.011453208 Ry
:4D 001: 4D                 -50.902874292 Ry
:5S 001: 5S                 -21.572668291 Ry
:5PP001: 5P*                -17.065934926 Ry
:5P 001: 5P                 -13.035742166 Ry
:4FF001: 4F*                -26.616613454 Ry
:4F 001: 4F                 -25.806617855 Ry
:5DD001: 5D*                 -6.446449011 Ry
:5D 001: 5D                  -5.848214633 Ry

        2.ATOM      O  2-                 1 CORE STATES
:1S 002: 1S                 -35.978888399 Ry

------- UO2_6.scfm --------
:CINT001 Core Integral Atom   1   77.964393
:CINT002 Core Integral Atom   2    2.000000
     
       CHARGES OF NEW CHARGE DENSITY
:NTO   : INTERSTITIAL CHARGE =     7.422393
:NTO001: CHARGE SPHERE  1    =    86.179287
:NTO002: CHARGE SPHERE  2    =     7.181347

:NEC01: NUCLEAR AND ELECTRONIC CHARGE    108.00000   107.96437
     
       CHARGES OF OLD CHARGE DENSITY
:OTO   : INTERSTITIAL CHARGE =     7.457937
:OTO001: CHARGE SPHERE  1    =    86.179549
:OTO002: CHARGE SPHERE  2    =     7.181257
:DNEW  1   -0.0003
:DNEW  2    0.0001

:NEC02: NUCLEAR AND ELECTRONIC CHARGE    108.00000   108.00000
     
       CONVERGENCE TEST
:DTO001: DIFFERENCE IN SPHERE  1 =  0.0002855
:DTO002: DIFFERENCE IN SPHERE  2 =  0.0001200

:DIS  :  CHARGE DISTANCE       ( 0.0002855 for atom    1 spin 1)      0.0001752
:BIG check (qbig,qrms,qtot)    0.952D-04   0.136D-03   0.175D-03
 
******************************************************
* MULTISECANT MIXING VER6 RELEASE 6.0 OPTIONS        *
* Standard Mode with controls                        *
* Regularization       1.000E-06                     *
* Trust Region Control Active                        *
* Max Number of Memory Steps    8                    *
******************************************************
 
:PLANE:  INTERSTITIAL TOTAL      2.53351 DISTAN  1.791E-03 % 
:CHARG:  CLM CHARGE   /ATOM    345.91330 DISTAN  1.328E-04 % 
 
 Step History DMIX, Red, Pred, Trust, FRMS, FABS
 28  2.9264E-02  8.5000E-01  1.3390E-02  5.0000E-01
 29  4.5406E-02  1.2134E+00  3.1750E-02  6.0541E-01
 30  6.4928E-02  2.2818E-01  3.1215E-02  8.6571E-01
 31  7.0456E-02  1.9475E-01  1.5264E-01  9.3941E-01
 32  8.4218E-02  8.6253E-01  5.4818E-01  1.1229E+00
 33  9.9638E-02  4.4656E-01  4.3537E-01  1.3285E+00
 34  1.2681E-01  8.4515E-01  6.3536E-01  1.6908E+00
 35  1.5743E-01  1.0000E+00  5.0840E-01  4.4462E+00
  
:NORMS:  Nuclear, Spectral, Froebius, Shanno-Pua   0.1331E+01  0.1517E+01  0.1392E+01  0.2796E+00
:INFO :  Number of Memory Steps    8 Skipping   26
:INFO :  SLambda=    1.5168811  Max    1.5168811

Eigenvalues, unscaled except for SY+YY
   #     SY Real        SY Imag          SS             YY         SY+YY Real      SY+YY Imag
   1   2.057441E+00   0.000000E+00   2.378361E+00   5.472439E+00   7.621988E+00   0.000000E+00
   2   5.406990E-01   1.221781E-01   1.211177E+00   1.705013E+00   3.482382E+00   0.000000E+00
   3   5.406990E-01  -1.221781E-01   4.558015E-01   7.178981E-01   1.566364E+00   0.000000E+00
   4   8.933952E-02   0.000000E+00   7.793393E-02   9.570907E-02   2.210391E-01   0.000000E+00
   5   1.372824E-02   0.000000E+00   6.257361E-03   8.249314E-03   2.503484E-02   0.000000E+00
   6   2.316146E-06   0.000000E+00   3.403208E-04   5.681837E-06   1.066995E-05   0.000000E+00
   7   3.469670E-04   5.196202E-05   8.379149E-07   2.452700E-04   8.149392E-04   0.000000E+00
   8   3.469670E-04  -5.196202E-05   1.203314E-04   4.406888E-04   1.008722E-03   0.000000E+00
 
:INFO :  Singular value   7.656E+00 Weight  1.0000E+00 Projections   1.108E-01  2.832E-04
:INFO :  Singular value   3.484E+00 Weight  1.0000E+00 Projections  -1.659E-01 -1.449E-04
:INFO :  Singular value   1.561E+00 Weight  1.0000E+00 Projections   4.204E-02  1.989E-05
:INFO :  Singular value   2.209E-01 Weight  1.0000E+00 Projections   2.535E-02  6.347E-05
:INFO :  Singular value   2.509E-02 Weight  1.0000E+00 Projections  -2.863E-03 -4.613E-03
:INFO :  Singular value   1.023E-03 Weight  9.9997E-01 Projections  -1.098E-02  4.675E-03
:INFO :  Singular value   8.012E-04 Weight  9.9995E-01 Projections   1.051E-02  3.746E-02
:INFO :  Singular value   1.067E-05 Weight  7.9169E-01 Projections  -8.973E-03 -2.027E-01
 
:DIRM :  MEMORY 8/8 RESCALE  17.94 RED 0.505 PRED 0.508 NEXT 0.296
:INFO :  Blimit    3.073E+00  1.140E+00  1.000E+00  4.560E+00
:DIRP :  |MSR1|= 8.265E-04 |PRATT|= 8.138E-04 ANGLE=  44.7 DEGREES
:DIRQ :  |MSR1|= 9.352E-04 |PRATT|= 9.187E-04 ANGLE=  35.1 DEGREES
:DIR  :  |MSR1|= 1.248E-03 |PRATT|= 1.227E-03 ANGLE=  39.6 DEGREES
:MIX  :   MSE1   REGULARIZATION: 5.47E-06  GREED: 0.200  Newton 1.00  1.02                
     
       CHARGES OF MIXED CHARGE DENSITY
:CTO   : INTERSTITIAL CHARGE =     7.457970
:CTO001: CHARGE SPHERE  1    =    86.179471
:CTO002: CHARGE SPHERE  2    =     7.181279

:NEC03: NUCLEAR AND ELECTRONIC CHARGE    108.00000   108.00000

PW CHANGE     H    K    L       Current     Change     Residue
:PTO001:      0    0    0  9.12596341E-02  1.787E-07  3.519E-07
:PTO002:     -1   -1   -1  2.18707115E-01  1.961E-06 -7.442E-07
:PTO003:      0    0   -2 -3.49027322E-04 -2.566E-07 -3.530E-06
:PTO004:      0   -2   -2  2.95198740E-01 -1.347E-06 -1.063E-06
:PTO005:     -1   -1   -3  1.54247870E-01  3.489E-06  1.595E-07
:PTO006:     -2   -2   -2 -2.08841370E-02  7.173E-07 -4.993E-07
:PTO007:      0    0   -4  4.23717311E-02 -9.930E-07 -1.402E-06
:PTO008:     -1   -3   -3  2.80430969E-02  2.306E-06 -4.322E-07
:PTO009:      0   -2   -4 -5.23209238E-02  2.581E-06  1.388E-06
:PTO010:     -2   -2   -4  3.97977302E-02  1.698E-06  5.968E-07
:PTO011:     -3   -3   -3 -5.40911453E-03  2.123E-06  2.088E-06
:PTO012:     -1   -1   -5 -6.34154683E-03 -3.968E-06 -3.258E-06

:ENE  : ********** TOTAL ENERGY IN Ry =       -56437.57341214

