
------- epsilon_Pu_18.scf0 --------


            ---------
:ITE098: 98. ITERATION
            ---------

:NATO :    1 INDEPENDENT AND    1 TOTAL ATOMS IN UNITCELL
       SUBSTANCE: cubic body-centered  (epsilon Pu)                           

       LATTICE                      = B   
:POT  : POTENTIAL OPTION    5
:LAT  : LATTICE CONSTANTS=  7.59807  7.59807  7.59807    1.571    1.571    1.571
:VOL  : UNIT CELL VOLUME =     219.32091
       MODE OF CALCULATION IS       = RELA
       NON-SPINPOLARIZED CALCULATION
:IFFT  : FFT-parameters:   60   60   60 Factor: 2.00
       ATOMNUMBER=  1 Pu  0+     VCOUL-ZERO = -0.22501E-01
:FIT001: LUSE= 13 SIGMA OF V-XC FIT FOR ATOM  1  0.2715304E-05
:FIT001: LUSE= 13 SIGMA OF V-XC FIT FOR ATOM  1  0.2715304E-05
:DEN  : DENSITY INTEGRAL  =        -21862.73037821   (Ry)
       ELS_POTENTIAL_AT Z=0 and Z=0.5:  -2.26222  -2.26222
       ELS_POTENTIAL_AT Y=0 and Y=0.5:   0.00000   0.00000
:VZERO:v0,v0c,v0x  -3.20008  -2.26222  -0.93786 v5,v5c,v5x  -3.20008  -2.26222  -0.93786
:VZERY:v0,v0c,v0x  -0.78205   0.00000  -0.78205 v5,v5c,v5x  -0.78205   0.00000  -0.78205
:VZERX:v0,v0c,v0x  -0.78205   0.00000  -0.78205 v5,v5c,v5x  -0.78205   0.00000  -0.78205

------- epsilon_Pu_18.scf1 --------

          ATOMIC SPHERE DEPENDENT PARAMETERS FOR ATOM  Pu  0+    
:e__0001: OVERALL ENERGY PARAMETER IS    0.6302
          OVERALL BASIS SET ON ATOM IS LAPW
:E0_0001: E( 0)=    0.6302
             APW+lo
:E0_0001: E( 0)=   -2.5610   E(BOTTOM)=   -3.340   E(TOP)=   -1.782
             LOCAL ORBITAL
:E1_0001: E( 1)=   -1.3800   E(BOTTOM)=   -1.650   E(TOP)= -200.000
             APW+lo
:E1_0001: E( 1)=    0.6302
             LOCAL ORBITAL
:E3_0001: E( 3)=    0.6302   E(BOTTOM)=    0.410   E(TOP)= -200.000
             APW+lo
:E2_0001: E( 2)=    0.6302   E(BOTTOM)=    0.555   E(TOP)= -200.000
             APW+lo

       K=   0.00000   0.00000   0.00000            1
:RKM  : MATRIX SIZE  245LOs:  20  RKM= 8.34  WEIGHT= 1.00  PGR:    
       EIGENVALUES ARE:
:EIG00001:      -2.5224791   -0.4905906   -0.4905906   -0.4905906    0.4659854
:EIG00006:       0.8726235    0.8726235    0.8726235    0.9494083    0.9494083
:EIG00011:       0.9494083    0.9731644    0.9989727    0.9989727    0.9989727
:EIG00016:       1.1975168    1.1975168    1.7538673    1.7538673    1.7538673
:EIG00021:       2.2921863    2.2921863    2.4875381    2.4875381    2.4875381
:EIG00026:       2.6192902    3.1383474    3.1383474    3.1383474    3.4886294
:EIG00031:       3.4886294    3.4886294    3.7298067    3.9007266    3.9007266
:EIG00036:       3.9044369    3.9044369    3.9044369    3.9648534    3.9648534
:EIG00041:       3.9648534    4.1777961    4.1777961    4.2589155    4.2881730
:EIG00046:       4.2881730    4.2881730    4.3444295    4.3444295    4.3444295
 
:EIG00051:       4.9414007    4.9414007    5.1888500    5.1888500    5.1888500
:EIG00056:       5.3521960    5.3521960    5.3521960    5.5170936    5.7119221
:EIG00061:       5.7119221    5.7119221    6.0942219    6.0953418    6.0953418
:EIG00066:       6.2327759    6.2327759    6.2327759    6.5675248    6.5675248
:EIG00071:       6.5675248    6.6360925    6.6360925    6.6360925    6.8672337
:EIG00076:       6.8672337    6.8672337    6.9626482    6.9626482    6.9696225
:EIG00081:       7.1085521    7.1085521    7.1085521    7.2309149    7.2309149
:EIG00086:       7.2309149
       ********************************************************

:KPT   :      NUMBER OF K-POINTS:   286

------- epsilon_Pu_18.scfso --------
   0.0   0.0 angle (M,z), angle (M,x) deg
 
        SPIN-ORBIT EIGENVALUES:
     K=   0.00000   0.00000   0.00000            1
      MATRIX SIZE=  172   WEIGHT= 1.00
     EIGENVALUES ARE:
          -2.5224791   -2.5224791   -0.9444681   -0.9444681   -0.2986108
          -0.2986108   -0.2986108   -0.2986108    0.4659854    0.4659854
           0.8512696    0.8512696    0.8597440    0.8597440    0.8597440
           0.8597440    0.9489492    0.9489492    0.9489492    0.9489492
           0.9836369    0.9836369    0.9840115    0.9840115    0.9852621
           0.9852621    0.9852621    0.9852621    1.0182911    1.0182911
           1.1998621    1.1998621    1.1998621    1.1998621    1.7508307
           1.7508307    1.7562104    1.7562104    1.7562104    1.7562104

           2.2912863    2.2912863    2.2912863    2.2912863    2.3437224
           2.3437224    2.5538342    2.5538342    2.5538342    2.5538342
           2.6192902    2.6192902    3.1199790    3.1199790    3.1199790
           3.1199790    3.1759081    3.1759081    3.3705990    3.3705990
           3.5658502    3.5658502    3.5658502    3.5658502    3.7298067
           3.7298067    3.9011123    3.9011123    3.9011123    3.9011123
           3.9044241    3.9044241    3.9044434    3.9044434    3.9044434
           3.9044434    3.9645823    3.9645823    3.9645823    3.9645823

           3.9670288    3.9670288    4.1777961    4.1777961    4.1777961
           4.1777961    4.2584332    4.2584332    4.2862147    4.2862147
           4.2862147    4.2862147    4.2918998    4.2918998    4.3439073
           4.3439073    4.3454004    4.3454004    4.3454004    4.3454004

       ********************************************************

------- epsilon_Pu_18.scf2 --------
:GMA  : POTENTIAL AND CHARGE CUT-OFF  12.00 Ry**.5
         Bandranges (emin - emax) and occupancy:
:BAN00008:   8   -0.397737   -0.298611  1.00000000
:BAN00009:   9    0.465985    0.838629  1.00000000
:BAN00010:  10    0.465985    0.838629  1.00000000
:BAN00011:  11    0.704184    0.867607  1.00000000
:BAN00012:  12    0.704184    0.867607  1.00000000
:BAN00013:  13    0.820447    0.875703  1.00000000
:BAN00014:  14    0.820447    0.875703  1.00000000
:BAN00015:  15    0.859744    0.878586  0.98240429
:BAN00016:  16    0.859744    0.878586  0.98240429
:BAN00017:  17    0.875131    0.948949  0.01759571
:BAN00018:  18    0.875131    0.948949  0.01759571
:BAN00019:  19    0.897214    0.948949  0.00000000
:BAN00020:  20    0.897214    0.948949  0.00000000
:BAN00021:  21    0.947281    0.983637  0.00000000
:BAN00022:  22    0.947281    0.983637  0.00000000
:BAN00023:  23    0.953129    0.984012  0.00000000
        Energy to separate low and high energystates:    0.41599


:NLDA  : NUMBER OF ELECTRONS          =  16.000

:FLDA  : F E R M I - ENERGY           =   1.37798




:POS001: AT.NR.   1 POSITION = 0.00000 0.00000 0.00000  MULTIPLICITY =  1

       LMMAX  5
       LM=   0 0  4 0  4 4  6 0  6 4
:FER DMFT Fermi Energy   0.82686
:EORB    0.28349688
:SUM SUM OF DMFT BAND ENERGIES   -2.16505913

:CHA001: TOTAL CHARGE INSIDE SPHERE   1 =    11.557198
:PCS001: PARTIAL CHARGES SPHERE =  1 S,P,D,F,      D-EG,D-T2G 
:QTL001: 1.9509 4.5900 0.2743 4.7416 0.0000 0.0000 0.0000 0.1414 0.1384 0.0000 0.0000 0.0000
        Q-s-low E-s-low   Q-p-low E-p-low   Q-d-low E-d-low   Q-f-low E-f-low
:EPL001:  1.8709 -2.5142    4.5059 -0.5890    0.0014 -0.4051    0.0005 -0.4032
        Q-s-hi  E-s-hi    Q-p-hi  E-p-hi    Q-d-hi  E-d-hi    Q-f-hi  E-f-hi 
:EPH001:  0.0800  0.6815    0.0841  0.7370    0.2729  0.7658    4.7411  0.8571

:CHA  : TOTAL CHARGE INSIDE UNIT CELL =      16.000000

:ESUM  : SUM OF EIGENVALUES =          -1.814327008


------- epsilon_Pu_18.scfc --------

        1.ATOM      Pu  0+               21 CORE STATES
:1S 001: 1S               -8966.841378202 Ry
:2S 001: 2S               -1687.509159341 Ry
:2PP001: 2P*              -1628.204419509 Ry
:2P 001: 2P               -1315.051398082 Ry
:3S 001: 3S                -428.038844972 Ry
:3PP001: 3P*               -401.115164615 Ry
:3P 001: 3P                -328.552965109 Ry
:3DD001: 3D*               -286.314322152 Ry
:3D 001: 3D                -271.771623331 Ry
:4S 001: 4S                -109.522650641 Ry
:4PP001: 4P*                -97.334845620 Ry
:4P 001: 4P                 -78.190238745 Ry
:4DD001: 4D*                -58.902778803 Ry
:4D 001: 4D                 -55.408372565 Ry
:5S 001: 5S                 -23.683913811 Ry
:5PP001: 5P*                -18.867211251 Ry
:5P 001: 5P                 -14.182366204 Ry
:4FF001: 4F*                -30.006840885 Ry
:4F 001: 4F                 -29.078893239 Ry
:5DD001: 5D*                 -7.152997495 Ry
:5D 001: 5D                  -6.455970699 Ry

------- epsilon_Pu_18.scfm --------

       DENSITY AT NUCLEUS
        JATOM    VALENCE       SEMI-CORE            CORE           TOTAL
:RTO001:   1    23402.536953        0.000000 45141806.419508 45165208.956461
     
       CHARGES OF NEW CHARGE DENSITY
:NTO  : TOTAL   INTERSTITIAL CHARGE=    4.4428000
:NTO001: TOTAL   CHARGE IN SPHERE  1 =       89.5477270

:NEC01: NUCLEAR AND ELECTRONIC CHARGE     94.00000    93.99053     1.00010
     
       CHARGES OF OLD CHARGE DENSITY
:OTO  : TOTAL   INTERSTITIAL CHARGE=    4.4471028
:OTO001: TOTAL   CHARGE IN SPHERE  1 =       89.5528972

:NEC02: NUCLEAR AND ELECTRONIC CHARGE     94.00000    94.00000     1.00000
     
       CONVERGENCE TEST
:DTO001: TOTAL   DIFFERENCE CHARGE**2 IN SPHERE  1 =  0.0047471

:DIS  :  CHARGE DISTANCE       ( 0.0047471 for atom    1 spin 1)      0.0047471
:BIG check (qbig,qrms,qtot)    0.158D-02   0.336D-02   0.475D-02
 
******************************************************
* MULTISECANT MIXING VER4 OPTIONS                    *
* Unpredicted Step Limit   0.100000                  *
* Plane Wave Dynamic Rescaling                       *
* Dynamic Regularization active                      *
* Upper Cutoff Lambda  1.0E-01 Lower 3.5E-04         *
* SQRT Multiplicity/Degeneracy                       *
* Max Number of Memory Steps    8                    *
******************************************************
 
:PLANE:  INTERSTITIAL TOTAL      1.83478 DISTAN  2.323E-02 % 
:CHARG:  CLM CHARGE   /ATOM    713.23149 DISTAN  1.732E-03 % 
:MIX  :  PRATT  REGULARIZATION: 3.50E-04  GREED: 0.035
     
       CHARGES OF MIXED CHARGE DENSITY
:CTO  : TOTAL   INTERSTITIAL CHARGE=    4.4472838
:CTO001: TOTAL   CHARGE IN SPHERE  1 =       89.5527162

:NEC03: NUCLEAR AND ELECTRONIC CHARGE     94.00000    94.00000     1.00000


:ENE  : ********** TOTAL ENERGY IN Ry =       -59354.72337354


------- epsilon_Pu_18.scf0 --------


            ---------
:ITE099: 99. ITERATION
            ---------

:NATO :    1 INDEPENDENT AND    1 TOTAL ATOMS IN UNITCELL
       SUBSTANCE: cubic body-centered  (epsilon Pu)                           

       LATTICE                      = B   
:POT  : POTENTIAL OPTION    5
:LAT  : LATTICE CONSTANTS=  7.59807  7.59807  7.59807    1.571    1.571    1.571
:VOL  : UNIT CELL VOLUME =     219.32091
       MODE OF CALCULATION IS       = RELA
       NON-SPINPOLARIZED CALCULATION
:IFFT  : FFT-parameters:   60   60   60 Factor: 2.00
       ATOMNUMBER=  1 Pu  0+     VCOUL-ZERO = -0.22520E-01
:FIT001: LUSE= 13 SIGMA OF V-XC FIT FOR ATOM  1  0.2714002E-05
:FIT001: LUSE= 13 SIGMA OF V-XC FIT FOR ATOM  1  0.2714002E-05
:DEN  : DENSITY INTEGRAL  =        -21862.70871201   (Ry)
       ELS_POTENTIAL_AT Z=0 and Z=0.5:  -2.26227  -2.26227
       ELS_POTENTIAL_AT Y=0 and Y=0.5:   0.00000   0.00000
:VZERO:v0,v0c,v0x  -3.20013  -2.26227  -0.93786 v5,v5c,v5x  -3.20013  -2.26227  -0.93786
:VZERY:v0,v0c,v0x  -0.78205   0.00000  -0.78205 v5,v5c,v5x  -0.78205   0.00000  -0.78205
:VZERX:v0,v0c,v0x  -0.78205   0.00000  -0.78205 v5,v5c,v5x  -0.78205   0.00000  -0.78205

------- epsilon_Pu_18.scf1 --------

          ATOMIC SPHERE DEPENDENT PARAMETERS FOR ATOM  Pu  0+    
:e__0001: OVERALL ENERGY PARAMETER IS    0.6302
          OVERALL BASIS SET ON ATOM IS LAPW
:E0_0001: E( 0)=    0.6302
             APW+lo
:E0_0001: E( 0)=   -2.5615   E(BOTTOM)=   -3.340   E(TOP)=   -1.783
             LOCAL ORBITAL
:E1_0001: E( 1)=   -1.3800   E(BOTTOM)=   -1.650   E(TOP)= -200.000
             APW+lo
:E1_0001: E( 1)=    0.6302
             LOCAL ORBITAL
:E3_0001: E( 3)=    0.6302   E(BOTTOM)=    0.410   E(TOP)= -200.000
             APW+lo
:E2_0001: E( 2)=    0.6302   E(BOTTOM)=    0.555   E(TOP)= -200.000
             APW+lo

       K=   0.00000   0.00000   0.00000            1
:RKM  : MATRIX SIZE  245LOs:  20  RKM= 8.34  WEIGHT= 1.00  PGR:    
       EIGENVALUES ARE:
:EIG00001:      -2.5225857   -0.4906653   -0.4906653   -0.4906653    0.4659864
:EIG00006:       0.8725187    0.8725187    0.8725187    0.9492798    0.9492798
:EIG00011:       0.9492798    0.9730337    0.9989544    0.9989544    0.9989544
:EIG00016:       1.1974987    1.1974987    1.7538447    1.7538447    1.7538447
:EIG00021:       2.2921781    2.2921781    2.4875196    2.4875196    2.4875196
:EIG00026:       2.6192917    3.1383119    3.1383119    3.1383119    3.4886030
:EIG00031:       3.4886030    3.4886030    3.7297845    3.9007216    3.9007216
:EIG00036:       3.9044333    3.9044333    3.9044333    3.9648502    3.9648502
:EIG00041:       3.9648502    4.1778058    4.1778058    4.2588531    4.2881595
:EIG00046:       4.2881595    4.2881595    4.3444207    4.3444207    4.3444207
 
:EIG00051:       4.9413881    4.9413881    5.1888478    5.1888478    5.1888478
:EIG00056:       5.3521977    5.3521977    5.3521977    5.5170986    5.7119010
:EIG00061:       5.7119010    5.7119010    6.0941840    6.0953124    6.0953124
:EIG00066:       6.2327605    6.2327605    6.2327605    6.5675187    6.5675187
:EIG00071:       6.5675187    6.6360919    6.6360919    6.6360919    6.8672358
:EIG00076:       6.8672358    6.8672358    6.9626603    6.9626603    6.9696349
:EIG00081:       7.1085195    7.1085195    7.1085195    7.2309061    7.2309061
:EIG00086:       7.2309061
       ********************************************************

:KPT   :      NUMBER OF K-POINTS:   286

------- epsilon_Pu_18.scfso --------
   0.0   0.0 angle (M,z), angle (M,x) deg
 
        SPIN-ORBIT EIGENVALUES:
     K=   0.00000   0.00000   0.00000            1
      MATRIX SIZE=  172   WEIGHT= 1.00
     EIGENVALUES ARE:
          -2.5225857   -2.5225857   -0.9445546   -0.9445546   -0.2986800
          -0.2986800   -0.2986800   -0.2986800    0.4659864    0.4659864
           0.8511597    0.8511597    0.8596323    0.8596323    0.8596323
           0.8596323    0.9488273    0.9488273    0.9488273    0.9488273
           0.9835105    0.9835105    0.9838849    0.9838849    0.9852428
           0.9852428    0.9852428    0.9852428    1.0182737    1.0182737
           1.1998443    1.1998443    1.1998443    1.1998443    1.7508086
           1.7508086    1.7561873    1.7561873    1.7561873    1.7561873

           2.2912780    2.2912780    2.2912780    2.2912780    2.3437029
           2.3437029    2.5538164    2.5538164    2.5538164    2.5538164
           2.6192917    2.6192917    3.1199434    3.1199434    3.1199434
           3.1199434    3.1758732    3.1758732    3.3705746    3.3705746
           3.5658231    3.5658231    3.5658231    3.5658231    3.7297845
           3.7297845    3.9011072    3.9011072    3.9011072    3.9011072
           3.9044205    3.9044205    3.9044398    3.9044398    3.9044398
           3.9044398    3.9645791    3.9645791    3.9645791    3.9645791

           3.9670256    3.9670256    4.1778058    4.1778058    4.1778058
           4.1778058    4.2583713    4.2583713    4.2862016    4.2862016
           4.2862016    4.2862016    4.2918858    4.2918858    4.3438981
           4.3438981    4.3453916    4.3453916    4.3453916    4.3453916

       ********************************************************

------- epsilon_Pu_18.scf2 --------
:GMA  : POTENTIAL AND CHARGE CUT-OFF  12.00 Ry**.5
         Bandranges (emin - emax) and occupancy:
:BAN00008:   8   -0.397797   -0.298680  1.00000000
:BAN00009:   9    0.465986    0.838615  1.00000000
:BAN00010:  10    0.465986    0.838615  1.00000000
:BAN00011:  11    0.704183    0.867524  1.00000000
:BAN00012:  12    0.704183    0.867524  1.00000000
:BAN00013:  13    0.820408    0.875585  1.00000000
:BAN00014:  14    0.820408    0.875585  1.00000000
:BAN00015:  15    0.859632    0.878474  0.98239812
:BAN00016:  16    0.859632    0.878474  0.98239812
:BAN00017:  17    0.875015    0.948827  0.01760188
:BAN00018:  18    0.875015    0.948827  0.01760188
:BAN00019:  19    0.897139    0.948827  0.00000000
:BAN00020:  20    0.897139    0.948827  0.00000000
:BAN00021:  21    0.947180    0.983510  0.00000000
:BAN00022:  22    0.947180    0.983510  0.00000000
:BAN00023:  23    0.953014    0.983885  0.00000000
        Energy to separate low and high energystates:    0.41599


:NLDA  : NUMBER OF ELECTRONS          =  16.000

:FLDA  : F E R M I - ENERGY           =   1.37786




:POS001: AT.NR.   1 POSITION = 0.00000 0.00000 0.00000  MULTIPLICITY =  1

       LMMAX  5
       LM=   0 0  4 0  4 4  6 0  6 4
:FER DMFT Fermi Energy   0.82689
:EORB    0.28255148
:SUM SUM OF DMFT BAND ENERGIES   -2.16542414

:CHA001: TOTAL CHARGE INSIDE SPHERE   1 =    11.557118
:PCS001: PARTIAL CHARGES SPHERE =  1 S,P,D,F,      D-EG,D-T2G 
:QTL001: 1.9509 4.5901 0.2744 4.7413 0.0000 0.0000 0.0000 0.1414 0.1384 0.0000 0.0000 0.0000
        Q-s-low E-s-low   Q-p-low E-p-low   Q-d-low E-d-low   Q-f-low E-f-low
:EPL001:  1.8709 -2.5144    4.5060 -0.5891    0.0014 -0.4051    0.0005 -0.4033
        Q-s-hi  E-s-hi    Q-p-hi  E-p-hi    Q-d-hi  E-d-hi    Q-f-hi  E-f-hi 
:EPH001:  0.0800  0.6815    0.0841  0.7370    0.2730  0.7658    4.7408  0.8570

:CHA  : TOTAL CHARGE INSIDE UNIT CELL =      16.000000

:ESUM  : SUM OF EIGENVALUES =          -1.815652036


------- epsilon_Pu_18.scfc --------

        1.ATOM      Pu  0+               21 CORE STATES
:1S 001: 1S               -8966.841685057 Ry
:2S 001: 2S               -1687.509464568 Ry
:2PP001: 2P*              -1628.204725203 Ry
:2P 001: 2P               -1315.051703282 Ry
:3S 001: 3S                -428.039141233 Ry
:3PP001: 3P*               -401.115462037 Ry
:3P 001: 3P                -328.553259628 Ry
:3DD001: 3D*               -286.314619921 Ry
:3D 001: 3D                -271.771920354 Ry
:4S 001: 4S                -109.522916629 Ry
:4PP001: 4P*                -97.335111999 Ry
:4P 001: 4P                 -78.190499109 Ry
:4DD001: 4D*                -58.903040079 Ry
:4D 001: 4D                 -55.408632137 Ry
:5S 001: 5S                 -23.684134202 Ry
:5PP001: 5P*                -18.867428174 Ry
:5P 001: 5P                 -14.182571474 Ry
:4FF001: 4F*                -30.007103509 Ry
:4F 001: 4F                 -29.079154993 Ry
:5DD001: 5D*                 -7.153190015 Ry
:5D 001: 5D                  -6.456158963 Ry

------- epsilon_Pu_18.scfm --------

       DENSITY AT NUCLEUS
        JATOM    VALENCE       SEMI-CORE            CORE           TOTAL
:RTO001:   1    23402.907718        0.000000 45141806.805586 45165209.713305
     
       CHARGES OF NEW CHARGE DENSITY
:NTO  : TOTAL   INTERSTITIAL CHARGE=    4.4428809
:NTO001: TOTAL   CHARGE IN SPHERE  1 =       89.5476468

:NEC01: NUCLEAR AND ELECTRONIC CHARGE     94.00000    93.99053     1.00010
     
       CHARGES OF OLD CHARGE DENSITY
:OTO  : TOTAL   INTERSTITIAL CHARGE=    4.4472838
:OTO001: TOTAL   CHARGE IN SPHERE  1 =       89.5527162

:NEC02: NUCLEAR AND ELECTRONIC CHARGE     94.00000    94.00000     1.00000
     
       CONVERGENCE TEST
:DTO001: TOTAL   DIFFERENCE CHARGE**2 IN SPHERE  1 =  0.0046427

:DIS  :  CHARGE DISTANCE       ( 0.0046427 for atom    1 spin 1)      0.0046427
:BIG check (qbig,qrms,qtot)    0.155D-02   0.328D-02   0.464D-02
 
******************************************************
* MULTISECANT MIXING VER4 OPTIONS                    *
* Unpredicted Step Limit   0.100000                  *
* Plane Wave Dynamic Rescaling                       *
* Dynamic Regularization active                      *
* Upper Cutoff Lambda  1.0E-01 Lower 3.5E-04         *
* SQRT Multiplicity/Degeneracy                       *
* Max Number of Memory Steps    8                    *
******************************************************
 
:PLANE:  INTERSTITIAL TOTAL      1.83478 DISTAN  2.316E-02 % 
:CHARG:  CLM CHARGE   /ATOM    713.23141 DISTAN  1.684E-03 % 
:INFO :  Dynamic rescale   2.863E+01  1.000E-01
:INFO :  Number of Memory Steps    1 Skipping    0
:INFO :  Bounds         0.355D-01  0.200D+00  0.103D+00  0.355D-01
:DIRM :  MEMORY 1/8 RESCALE  28.63 RED 0.985 PRED 1.000 NEXT 0.970 COND 1.00E+00
:DIRP :  |BROYD|= 2.236E-03 |PRATT|= 4.323E-04 ANGLE=   0.1 DEGREES
:DIRB :  |BROYD|= 3.142E-03 |PRATT|= 6.077E-04 ANGLE=   0.0 DEGREES
:MIX  :  MSR1   REGULARIZATION: 3.50E-04  GREED: 0.036
     
       CHARGES OF MIXED CHARGE DENSITY
:CTO  : TOTAL   INTERSTITIAL CHARGE=    4.4482155
:CTO001: TOTAL   CHARGE IN SPHERE  1 =       89.5517845

:NEC03: NUCLEAR AND ELECTRONIC CHARGE     94.00000    94.00000     1.00000


:ENE  : ********** TOTAL ENERGY IN Ry =       -59354.72338663


------- epsilon_Pu_18.scf0 --------


            ---------
:ITE100:100. ITERATION
            ---------

:NATO :    1 INDEPENDENT AND    1 TOTAL ATOMS IN UNITCELL
       SUBSTANCE: cubic body-centered  (epsilon Pu)                           

       LATTICE                      = B   
:POT  : POTENTIAL OPTION    5
:LAT  : LATTICE CONSTANTS=  7.59807  7.59807  7.59807    1.571    1.571    1.571
:VOL  : UNIT CELL VOLUME =     219.32091
       MODE OF CALCULATION IS       = RELA
       NON-SPINPOLARIZED CALCULATION
:IFFT  : FFT-parameters:   60   60   60 Factor: 2.00
       ATOMNUMBER=  1 Pu  0+     VCOUL-ZERO = -0.22618E-01
:FIT001: LUSE= 13 SIGMA OF V-XC FIT FOR ATOM  1  0.2707922E-05
:FIT001: LUSE= 13 SIGMA OF V-XC FIT FOR ATOM  1  0.2707922E-05
:DEN  : DENSITY INTEGRAL  =        -21862.60020234   (Ry)
       ELS_POTENTIAL_AT Z=0 and Z=0.5:  -2.26249  -2.26249
       ELS_POTENTIAL_AT Y=0 and Y=0.5:   0.00000   0.00000
:VZERO:v0,v0c,v0x  -3.20039  -2.26249  -0.93790 v5,v5c,v5x  -3.20039  -2.26249  -0.93790
:VZERY:v0,v0c,v0x  -0.78210   0.00000  -0.78210 v5,v5c,v5x  -0.78210   0.00000  -0.78210
:VZERX:v0,v0c,v0x  -0.78210   0.00000  -0.78210 v5,v5c,v5x  -0.78210   0.00000  -0.78210

------- epsilon_Pu_18.scf1 --------

          ATOMIC SPHERE DEPENDENT PARAMETERS FOR ATOM  Pu  0+    
:e__0001: OVERALL ENERGY PARAMETER IS    0.6302
          OVERALL BASIS SET ON ATOM IS LAPW
:E0_0001: E( 0)=    0.6302
             APW+lo
:E0_0001: E( 0)=   -2.5620   E(BOTTOM)=   -3.341   E(TOP)=   -1.783
             LOCAL ORBITAL
:E1_0001: E( 1)=   -1.3800   E(BOTTOM)=   -1.652   E(TOP)= -200.000
             APW+lo
:E1_0001: E( 1)=    0.6302
             LOCAL ORBITAL
:E3_0001: E( 3)=    0.6302   E(BOTTOM)=    0.410   E(TOP)= -200.000
             APW+lo
:E2_0001: E( 2)=    0.6302   E(BOTTOM)=    0.555   E(TOP)= -200.000
             APW+lo

       K=   0.00000   0.00000   0.00000            1
:RKM  : MATRIX SIZE  245LOs:  20  RKM= 8.34  WEIGHT= 1.00  PGR:    
       EIGENVALUES ARE:
:EIG00001:      -2.5231293   -0.4910468   -0.4910468   -0.4910468    0.4659924
:EIG00006:       0.8719857    0.8719857    0.8719857    0.9486262    0.9486262
:EIG00011:       0.9486262    0.9723685    0.9988610    0.9988610    0.9988610
:EIG00016:       1.1974063    1.1974063    1.7537311    1.7537311    1.7537311
:EIG00021:       2.2921368    2.2921368    2.4874263    2.4874263    2.4874263
:EIG00026:       2.6193000    3.1381316    3.1381316    3.1381316    3.4884695
:EIG00031:       3.4884695    3.4884695    3.7296713    3.9006968    3.9006968
:EIG00036:       3.9044149    3.9044149    3.9044149    3.9648339    3.9648339
:EIG00041:       3.9648339    4.1778559    4.1778559    4.2585367    4.2880918
:EIG00046:       4.2880918    4.2880918    4.3443770    4.3443770    4.3443770
 
:EIG00051:       4.9413243    4.9413243    5.1888368    5.1888368    5.1888368
:EIG00056:       5.3522068    5.3522068    5.3522068    5.5171241    5.7117942
:EIG00061:       5.7117942    5.7117942    6.0939879    6.0951631    6.0951631
:EIG00066:       6.2326817    6.2326817    6.2326817    6.5674882    6.5674882
:EIG00071:       6.5674882    6.6360890    6.6360890    6.6360890    6.8672470
:EIG00076:       6.8672470    6.8672470    6.9627232    6.9627232    6.9696989
:EIG00081:       7.1083544    7.1083544    7.1083544    7.2308622    7.2308622
:EIG00086:       7.2308622
       ********************************************************

:KPT   :      NUMBER OF K-POINTS:   286

------- epsilon_Pu_18.scfso --------
   0.0   0.0 angle (M,z), angle (M,x) deg
 
        SPIN-ORBIT EIGENVALUES:
     K=   0.00000   0.00000   0.00000            1
      MATRIX SIZE=  172   WEIGHT= 1.00
     EIGENVALUES ARE:
          -2.5231293   -2.5231293   -0.9449961   -0.9449961   -0.2990332
          -0.2990332   -0.2990331   -0.2990331    0.4659924    0.4659924
           0.8506007    0.8506007    0.8590643    0.8590643    0.8590643
           0.8590643    0.9482071    0.9482071    0.9482071    0.9482071
           0.9828675    0.9828675    0.9832406    0.9832406    0.9851448
           0.9851448    0.9851448    0.9851448    1.0181853    1.0181853
           1.1997534    1.1997534    1.1997534    1.1997534    1.7506974
           1.7506974    1.7560714    1.7560714    1.7560714    1.7560714

           2.2912366    2.2912366    2.2912366    2.2912366    2.3436040
           2.3436040    2.5537266    2.5537266    2.5537266    2.5537266
           2.6193000    2.6193000    3.1197626    3.1197626    3.1197626
           3.1197626    3.1756952    3.1756952    3.3704506    3.3704506
           3.5656858    3.5656858    3.5656859    3.5656859    3.7296713
           3.7296713    3.9010824    3.9010824    3.9010824    3.9010824
           3.9044020    3.9044020    3.9044214    3.9044214    3.9044214
           3.9044214    3.9645628    3.9645628    3.9645628    3.9645628

           3.9670095    3.9670095    4.1778559    4.1778559    4.1778559
           4.1778559    4.2580568    4.2580568    4.2861358    4.2861358
           4.2861358    4.2861358    4.2918153    4.2918153    4.3438524
           4.3438524    4.3453478    4.3453478    4.3453478    4.3453478

       ********************************************************

------- epsilon_Pu_18.scf2 --------
:GMA  : POTENTIAL AND CHARGE CUT-OFF  12.00 Ry**.5
         Bandranges (emin - emax) and occupancy:
:BAN00008:   8   -0.398104   -0.299033  1.00000000
:BAN00009:   9    0.465992    0.838541  1.00000000
:BAN00010:  10    0.465992    0.838541  1.00000000
:BAN00011:  11    0.704176    0.867099  1.00000000
:BAN00012:  12    0.704176    0.867099  1.00000000
:BAN00013:  13    0.820213    0.874986  1.00000000
:BAN00014:  14    0.820213    0.874986  1.00000000
:BAN00015:  15    0.859064    0.877906  0.98236296
:BAN00016:  16    0.859064    0.877906  0.98236296
:BAN00017:  17    0.874426    0.948207  0.01763704
:BAN00018:  18    0.874426    0.948207  0.01763704
:BAN00019:  19    0.896755    0.948207  0.00000000
:BAN00020:  20    0.896755    0.948207  0.00000000
:BAN00021:  21    0.946665    0.982868  0.00000000
:BAN00022:  22    0.946665    0.982868  0.00000000
:BAN00023:  23    0.952427    0.983241  0.00000000
        Energy to separate low and high energystates:    0.41599


:NLDA  : NUMBER OF ELECTRONS          =  16.000

:FLDA  : F E R M I - ENERGY           =   1.37727




:POS001: AT.NR.   1 POSITION = 0.00000 0.00000 0.00000  MULTIPLICITY =  1

       LMMAX  5
       LM=   0 0  4 0  4 4  6 0  6 4
:FER DMFT Fermi Energy   0.82676
:EORB    0.27998660
:SUM SUM OF DMFT BAND ENERGIES   -2.16955626

:CHA001: TOTAL CHARGE INSIDE SPHERE   1 =    11.559164
:PCS001: PARTIAL CHARGES SPHERE =  1 S,P,D,F,      D-EG,D-T2G 
:QTL001: 1.9510 4.5905 0.2743 4.7430 0.0000 0.0000 0.0000 0.1414 0.1384 0.0000 0.0000 0.0000
        Q-s-low E-s-low   Q-p-low E-p-low   Q-d-low E-d-low   Q-f-low E-f-low
:EPL001:  1.8709 -2.5149    4.5064 -0.5894    0.0014 -0.4055    0.0005 -0.4036
        Q-s-hi  E-s-hi    Q-p-hi  E-p-hi    Q-d-hi  E-d-hi    Q-f-hi  E-f-hi 
:EPH001:  0.0800  0.6814    0.0840  0.7368    0.2729  0.7656    4.7425  0.8566

:CHA  : TOTAL CHARGE INSIDE UNIT CELL =      16.000000

:ESUM  : SUM OF EIGENVALUES =          -1.822238400


------- epsilon_Pu_18.scfc --------

        1.ATOM      Pu  0+               21 CORE STATES
:1S 001: 1S               -8966.843203623 Ry
:2S 001: 2S               -1687.510978510 Ry
:2PP001: 2P*              -1628.206240586 Ry
:2P 001: 2P               -1315.053217082 Ry
:3S 001: 3S                -428.040616704 Ry
:3PP001: 3P*               -401.116942750 Ry
:3P 001: 3P                -328.554726922 Ry
:3DD001: 3D*               -286.316102212 Ry
:3D 001: 3D                -271.773399263 Ry
:4S 001: 4S                -109.524248191 Ry
:4PP001: 4P*                -97.336445386 Ry
:4P 001: 4P                 -78.191803774 Ry
:4DD001: 4D*                -58.904349087 Ry
:4D 001: 4D                 -55.409933016 Ry
:5S 001: 5S                 -23.685246700 Ry
:5PP001: 5P*                -18.868523655 Ry
:5P 001: 5P                 -14.183609724 Ry
:4FF001: 4F*                -30.008419269 Ry
:4F 001: 4F                 -29.080466596 Ry
:5DD001: 5D*                 -7.154164986 Ry
:5D 001: 5D                  -6.457112751 Ry

------- epsilon_Pu_18.scfm --------

       DENSITY AT NUCLEUS
        JATOM    VALENCE       SEMI-CORE            CORE           TOTAL
:RTO001:   1    23404.862812        0.000000 45141808.643317 45165213.506128
     
       CHARGES OF NEW CHARGE DENSITY
:NTO  : TOTAL   INTERSTITIAL CHARGE=    4.4408349
:NTO001: TOTAL   CHARGE IN SPHERE  1 =       89.5496963

:NEC01: NUCLEAR AND ELECTRONIC CHARGE     94.00000    93.99053     1.00010
     
       CHARGES OF OLD CHARGE DENSITY
:OTO  : TOTAL   INTERSTITIAL CHARGE=    4.4482155
:OTO001: TOTAL   CHARGE IN SPHERE  1 =       89.5517845

:NEC02: NUCLEAR AND ELECTRONIC CHARGE     94.00000    94.00000     1.00000
     
       CONVERGENCE TEST
:DTO001: TOTAL   DIFFERENCE CHARGE**2 IN SPHERE  1 =  0.0018685

:DIS  :  CHARGE DISTANCE       ( 0.0018685 for atom    1 spin 1)      0.0018685
:BIG check (qbig,qrms,qtot)    0.623D-03   0.132D-02   0.187D-02
 
******************************************************
* MULTISECANT MIXING VER4 OPTIONS                    *
* Unpredicted Step Limit   0.100000                  *
* Plane Wave Dynamic Rescaling                       *
* Dynamic Regularization active                      *
* Upper Cutoff Lambda  1.0E-01 Lower 3.5E-04         *
* SQRT Multiplicity/Degeneracy                       *
* Max Number of Memory Steps    8                    *
******************************************************
 
:PLANE:  INTERSTITIAL TOTAL      1.83481 DISTAN  1.629E-02 % 
:CHARG:  CLM CHARGE   /ATOM    713.23102 DISTAN  8.255E-04 % 
:INFO :  Dynamic rescale   2.529E+01  1.000E-01
:INFO :  Number of Memory Steps    2 Skipping    0
:INFO :  Singular value   2.546E+00 Weight   9.901E-01 Projections  -2.517E-03  3.578E-03
:INFO :  Singular value   1.726E-03 Weight   4.597E-05 Projections  -2.543E-03 -5.879E-06
:INFO :  Bounds         0.598D-01  0.200D+00  0.108D+00  0.598D-01
:DIRM :  MEMORY 2/8 RESCALE  25.29 RED 0.594 PRED 0.970 NEXT 0.925 COND 1.28E+00
:DIRP :  |BROYD|= 1.393E-03 |PRATT|= 4.520E-04 ANGLE=  19.2 DEGREES
:DIRB :  |BROYD|= 1.958E-03 |PRATT|= 5.729E-04 ANGLE=  18.5 DEGREES
:MIX  :  MSR1   REGULARIZATION: 2.55E-01  GREED: 0.060
     
       CHARGES OF MIXED CHARGE DENSITY
:CTO  : TOTAL   INTERSTITIAL CHARGE=    4.4487715
:CTO001: TOTAL   CHARGE IN SPHERE  1 =       89.5512285

:NEC03: NUCLEAR AND ELECTRONIC CHARGE     94.00000    94.00000     1.00000


:ENE  : ********** TOTAL ENERGY IN Ry =       -59354.72347792


------- epsilon_Pu_18.scf0 --------


            ---------
:ITE101:101. ITERATION
            ---------

:NATO :    1 INDEPENDENT AND    1 TOTAL ATOMS IN UNITCELL
       SUBSTANCE: cubic body-centered  (epsilon Pu)                           

       LATTICE                      = B   
:POT  : POTENTIAL OPTION    5
:LAT  : LATTICE CONSTANTS=  7.59807  7.59807  7.59807    1.571    1.571    1.571
:VOL  : UNIT CELL VOLUME =     219.32091
       MODE OF CALCULATION IS       = RELA
       NON-SPINPOLARIZED CALCULATION
:IFFT  : FFT-parameters:   60   60   60 Factor: 2.00
       ATOMNUMBER=  1 Pu  0+     VCOUL-ZERO = -0.22679E-01
:FIT001: LUSE= 13 SIGMA OF V-XC FIT FOR ATOM  1  0.2703104E-05
:FIT001: LUSE= 13 SIGMA OF V-XC FIT FOR ATOM  1  0.2703104E-05
:DEN  : DENSITY INTEGRAL  =        -21862.54163089   (Ry)
       ELS_POTENTIAL_AT Z=0 and Z=0.5:  -2.26263  -2.26263
       ELS_POTENTIAL_AT Y=0 and Y=0.5:   0.00000   0.00000
:VZERO:v0,v0c,v0x  -3.20055  -2.26263  -0.93792 v5,v5c,v5x  -3.20055  -2.26263  -0.93792
:VZERY:v0,v0c,v0x  -0.78212   0.00000  -0.78212 v5,v5c,v5x  -0.78212   0.00000  -0.78212
:VZERX:v0,v0c,v0x  -0.78212   0.00000  -0.78212 v5,v5c,v5x  -0.78212   0.00000  -0.78212

------- epsilon_Pu_18.scf1 --------

          ATOMIC SPHERE DEPENDENT PARAMETERS FOR ATOM  Pu  0+    
:e__0001: OVERALL ENERGY PARAMETER IS    0.6302
          OVERALL BASIS SET ON ATOM IS LAPW
:E0_0001: E( 0)=    0.6302
             APW+lo
:E0_0001: E( 0)=   -2.5625   E(BOTTOM)=   -3.341   E(TOP)=   -1.784
             LOCAL ORBITAL
:E1_0001: E( 1)=   -1.3800   E(BOTTOM)=   -1.652   E(TOP)= -200.000
             APW+lo
:E1_0001: E( 1)=    0.6302
             LOCAL ORBITAL
:E3_0001: E( 3)=    0.6302   E(BOTTOM)=    0.405   E(TOP)= -200.000
             APW+lo
:E2_0001: E( 2)=    0.6302   E(BOTTOM)=    0.555   E(TOP)= -200.000
             APW+lo

       K=   0.00000   0.00000   0.00000            1
:RKM  : MATRIX SIZE  245LOs:  20  RKM= 8.34  WEIGHT= 1.00  PGR:    
       EIGENVALUES ARE:
:EIG00001:      -2.5234412   -0.4912669   -0.4912669   -0.4912669    0.4659970
:EIG00006:       0.8716826    0.8716826    0.8716826    0.9482536    0.9482536
:EIG00011:       0.9482536    0.9719919    0.9988072    0.9988072    0.9988072
:EIG00016:       1.1973528    1.1973528    1.7536687    1.7536687    1.7536687
:EIG00021:       2.2921137    2.2921137    2.4873740    2.4873740    2.4873740
:EIG00026:       2.6193058    3.1380285    3.1380285    3.1380285    3.4883946
:EIG00031:       3.4883946    3.4883946    3.7296066    3.9006833    3.9006833
:EIG00036:       3.9044039    3.9044039    3.9044039    3.9648247    3.9648247
:EIG00041:       3.9648247    4.1778850    4.1778850    4.2583582    4.2880544
:EIG00046:       4.2880544    4.2880544    4.3443539    4.3443539    4.3443539
 
:EIG00051:       4.9412869    4.9412869    5.1888311    5.1888311    5.1888311
:EIG00056:       5.3522129    5.3522129    5.3522129    5.5171394    5.7117343
:EIG00061:       5.7117343    5.7117343    6.0938743    6.0950779    6.0950779
:EIG00066:       6.2326357    6.2326357    6.2326357    6.5674710    6.5674710
:EIG00071:       6.5674710    6.6360877    6.6360877    6.6360877    6.8672542
:EIG00076:       6.8672542    6.8672542    6.9627604    6.9627604    6.9697366
:EIG00081:       7.1082607    7.1082607    7.1082607    7.2308385    7.2308385
:EIG00086:       7.2308385
       ********************************************************

:KPT   :      NUMBER OF K-POINTS:   286

------- epsilon_Pu_18.scfso --------
   0.0   0.0 angle (M,z), angle (M,x) deg
 
        SPIN-ORBIT EIGENVALUES:
     K=   0.00000   0.00000   0.00000            1
      MATRIX SIZE=  172   WEIGHT= 1.00
     EIGENVALUES ARE:
          -2.5234412   -2.5234412   -0.9452505   -0.9452505   -0.2992371
          -0.2992371   -0.2992371   -0.2992371    0.4659970    0.4659970
           0.8502830    0.8502830    0.8587412    0.8587412    0.8587412
           0.8587412    0.9478536    0.9478536    0.9478536    0.9478536
           0.9825009    0.9825009    0.9828757    0.9828757    0.9850884
           0.9850884    0.9850884    0.9850884    1.0181345    1.0181345
           1.1997008    1.1997008    1.1997008    1.1997008    1.7506364
           1.7506364    1.7560077    1.7560077    1.7560077    1.7560077

           2.2912135    2.2912135    2.2912135    2.2912135    2.3435484
           2.3435484    2.5536763    2.5536763    2.5536763    2.5536763
           2.6193058    2.6193058    3.1196592    3.1196592    3.1196592
           3.1196592    3.1755935    3.1755935    3.3703812    3.3703812
           3.5656087    3.5656087    3.5656088    3.5656088    3.7296065
           3.7296065    3.9010689    3.9010689    3.9010689    3.9010689
           3.9043910    3.9043910    3.9044104    3.9044104    3.9044104
           3.9044104    3.9645535    3.9645535    3.9645535    3.9645535

           3.9670004    3.9670004    4.1778850    4.1778850    4.1778850
           4.1778850    4.2578795    4.2578795    4.2860995    4.2860995
           4.2860995    4.2860995    4.2917764    4.2917764    4.3438281
           4.3438281    4.3453246    4.3453246    4.3453246    4.3453246

       ********************************************************

------- epsilon_Pu_18.scf2 --------
:GMA  : POTENTIAL AND CHARGE CUT-OFF  12.00 Ry**.5
         Bandranges (emin - emax) and occupancy:
:BAN00008:   8   -0.398281   -0.299237  1.00000000
:BAN00009:   9    0.465997    0.838499  1.00000000
:BAN00010:  10    0.465997    0.838499  1.00000000
:BAN00011:  11    0.704172    0.866857  1.00000000
:BAN00012:  12    0.704172    0.866857  1.00000000
:BAN00013:  13    0.820101    0.874644  1.00000000
:BAN00014:  14    0.820101    0.874644  1.00000000
:BAN00015:  15    0.858741    0.877583  0.98233123
:BAN00016:  16    0.858741    0.877583  0.98233123
:BAN00017:  17    0.874091    0.947854  0.01766877
:BAN00018:  18    0.874091    0.947854  0.01766877
:BAN00019:  19    0.896536    0.947854  0.00000000
:BAN00020:  20    0.896536    0.947854  0.00000000
:BAN00021:  21    0.946373    0.982501  0.00000000
:BAN00022:  22    0.946373    0.982501  0.00000000
:BAN00023:  23    0.952094    0.982876  0.00000000
        Energy to separate low and high energystates:    0.41600


:NLDA  : NUMBER OF ELECTRONS          =  16.000

:FLDA  : F E R M I - ENERGY           =   1.37693




:POS001: AT.NR.   1 POSITION = 0.00000 0.00000 0.00000  MULTIPLICITY =  1

       LMMAX  5
       LM=   0 0  4 0  4 4  6 0  6 4
:FER DMFT Fermi Energy   0.82667
:EORB    0.27871312
:SUM SUM OF DMFT BAND ENERGIES   -2.17209311

:CHA001: TOTAL CHARGE INSIDE SPHERE   1 =    11.560531
:PCS001: PARTIAL CHARGES SPHERE =  1 S,P,D,F,      D-EG,D-T2G 
:QTL001: 1.9510 4.5906 0.2742 4.7443 0.0000 0.0000 0.0000 0.1413 0.1383 0.0000 0.0000 0.0000
        Q-s-low E-s-low   Q-p-low E-p-low   Q-d-low E-d-low   Q-f-low E-f-low
:EPL001:  1.8710 -2.5152    4.5067 -0.5896    0.0014 -0.4057    0.0005 -0.4038
        Q-s-hi  E-s-hi    Q-p-hi  E-p-hi    Q-d-hi  E-d-hi    Q-f-hi  E-f-hi 
:EPH001:  0.0800  0.6814    0.0840  0.7367    0.2728  0.7655    4.7438  0.8563

:CHA  : TOTAL CHARGE INSIDE UNIT CELL =      16.000000

:ESUM  : SUM OF EIGENVALUES =          -1.825991845


------- epsilon_Pu_18.scfc --------

        1.ATOM      Pu  0+               21 CORE STATES
:1S 001: 1S               -8966.843990277 Ry
:2S 001: 2S               -1687.511769515 Ry
:2PP001: 2P*              -1628.207030677 Ry
:2P 001: 2P               -1315.054007994 Ry
:3S 001: 3S                -428.041398252 Ry
:3PP001: 3P*               -401.117726130 Ry
:3P 001: 3P                -328.555504981 Ry
:3DD001: 3D*               -286.316886208 Ry
:3D 001: 3D                -271.774182050 Ry
:4S 001: 4S                -109.524965128 Ry
:4PP001: 4P*                -97.337163097 Ry
:4P 001: 4P                 -78.192508429 Ry
:4DD001: 4D*                -58.905055722 Ry
:4D 001: 4D                 -55.410635976 Ry
:5S 001: 5S                 -23.685862708 Ry
:5PP001: 5P*                -18.869131191 Ry
:5P 001: 5P                 -14.184188681 Ry
:4FF001: 4F*                -30.009129618 Ry
:4F 001: 4F                 -29.081175043 Ry
:5DD001: 5D*                 -7.154711078 Ry
:5D 001: 5D                  -6.457647792 Ry

------- epsilon_Pu_18.scfm --------

       DENSITY AT NUCLEUS
        JATOM    VALENCE       SEMI-CORE            CORE           TOTAL
:RTO001:   1    23405.908056        0.000000 45141809.458890 45165215.366946
     
       CHARGES OF NEW CHARGE DENSITY
:NTO  : TOTAL   INTERSTITIAL CHARGE=    4.4394672
:NTO001: TOTAL   CHARGE IN SPHERE  1 =       89.5510659

:NEC01: NUCLEAR AND ELECTRONIC CHARGE     94.00000    93.99053     1.00010
     
       CHARGES OF OLD CHARGE DENSITY
:OTO  : TOTAL   INTERSTITIAL CHARGE=    4.4487715
:OTO001: TOTAL   CHARGE IN SPHERE  1 =       89.5512285

:NEC02: NUCLEAR AND ELECTRONIC CHARGE     94.00000    94.00000     1.00000
     
       CONVERGENCE TEST
:DTO001: TOTAL   DIFFERENCE CHARGE**2 IN SPHERE  1 =  0.0007424

:DIS  :  CHARGE DISTANCE       ( 0.0007424 for atom    1 spin 1)      0.0007424
:BIG check (qbig,qrms,qtot)    0.247D-03   0.525D-03   0.742D-03
 
******************************************************
* MULTISECANT MIXING VER4 OPTIONS                    *
* Unpredicted Step Limit   0.100000                  *
* Plane Wave Dynamic Rescaling                       *
* Dynamic Regularization active                      *
* Upper Cutoff Lambda  1.0E-01 Lower 3.5E-04         *
* SQRT Multiplicity/Degeneracy                       *
* Max Number of Memory Steps    8                    *
******************************************************
 
:PLANE:  INTERSTITIAL TOTAL      1.83484 DISTAN  1.572E-02 % 
:CHARG:  CLM CHARGE   /ATOM    713.23084 DISTAN  5.216E-04 % 
:INFO :  Dynamic rescale   2.145E+01  1.000E-01
:INFO :  Number of Memory Steps    3 Skipping    0
:INFO :  Singular value   3.798E+00 Weight   1.000E+00 Projections   3.257E-02  3.073E-05
:INFO :  Singular value   8.410E-03 Weight   9.983E-01 Projections   4.594E-02 -8.716E-02
:INFO :  Singular value   1.353E-04 Weight   1.299E-01 Projections  -7.774E-02  4.023E-02
:INFO :  Bounds         0.721D-01  0.200D+00  0.244D+00  0.721D-01
:DIRM :  MEMORY 3/8 RESCALE  21.45 RED 0.829 PRED 0.925 NEXT 0.409 COND 1.18E+00
:DIRP :  |BROYD|= 3.105E-03 |PRATT|= 4.459E-04 ANGLE=  21.0 DEGREES
:DIRB :  |BROYD|= 3.779E-03 |PRATT|= 5.204E-04 ANGLE=  29.8 DEGREES
:MIX  :  MSR1   REGULARIZATION: 3.50E-04  GREED: 0.072
     
       CHARGES OF MIXED CHARGE DENSITY
:CTO  : TOTAL   INTERSTITIAL CHARGE=    4.4481847
:CTO001: TOTAL   CHARGE IN SPHERE  1 =       89.5518153

:NEC03: NUCLEAR AND ELECTRONIC CHARGE     94.00000    94.00000     1.00000


:ENE  : ********** TOTAL ENERGY IN Ry =       -59354.72351016


------- epsilon_Pu_18.scf0 --------


            ---------
:ITE102:102. ITERATION
            ---------

:NATO :    1 INDEPENDENT AND    1 TOTAL ATOMS IN UNITCELL
       SUBSTANCE: cubic body-centered  (epsilon Pu)                           

       LATTICE                      = B   
:POT  : POTENTIAL OPTION    5
:LAT  : LATTICE CONSTANTS=  7.59807  7.59807  7.59807    1.571    1.571    1.571
:VOL  : UNIT CELL VOLUME =     219.32091
       MODE OF CALCULATION IS       = RELA
       NON-SPINPOLARIZED CALCULATION
:IFFT  : FFT-parameters:   60   60   60 Factor: 2.00
       ATOMNUMBER=  1 Pu  0+     VCOUL-ZERO = -0.22643E-01
:FIT001: LUSE= 13 SIGMA OF V-XC FIT FOR ATOM  1  0.2694953E-05
:FIT001: LUSE= 13 SIGMA OF V-XC FIT FOR ATOM  1  0.2694953E-05
:DEN  : DENSITY INTEGRAL  =        -21862.66051068   (Ry)
       ELS_POTENTIAL_AT Z=0 and Z=0.5:  -2.26250  -2.26250
       ELS_POTENTIAL_AT Y=0 and Y=0.5:   0.00000   0.00000
:VZERO:v0,v0c,v0x  -3.20040  -2.26250  -0.93790 v5,v5c,v5x  -3.20040  -2.26250  -0.93790
:VZERY:v0,v0c,v0x  -0.78210   0.00000  -0.78210 v5,v5c,v5x  -0.78210   0.00000  -0.78210
:VZERX:v0,v0c,v0x  -0.78210   0.00000  -0.78210 v5,v5c,v5x  -0.78210   0.00000  -0.78210

------- epsilon_Pu_18.scf1 --------

          ATOMIC SPHERE DEPENDENT PARAMETERS FOR ATOM  Pu  0+    
:e__0001: OVERALL ENERGY PARAMETER IS    0.6302
          OVERALL BASIS SET ON ATOM IS LAPW
:E0_0001: E( 0)=    0.6302
             APW+lo
:E0_0001: E( 0)=   -2.5620   E(BOTTOM)=   -3.341   E(TOP)=   -1.783
             LOCAL ORBITAL
:E1_0001: E( 1)=   -1.3800   E(BOTTOM)=   -1.652   E(TOP)= -200.000
             APW+lo
:E1_0001: E( 1)=    0.6302
             LOCAL ORBITAL
:E3_0001: E( 3)=    0.6302   E(BOTTOM)=    0.410   E(TOP)= -200.000
             APW+lo
:E2_0001: E( 2)=    0.6302   E(BOTTOM)=    0.555   E(TOP)= -200.000
             APW+lo

       K=   0.00000   0.00000   0.00000            1
:RKM  : MATRIX SIZE  245LOs:  20  RKM= 8.34  WEIGHT= 1.00  PGR:    
       EIGENVALUES ARE:
:EIG00001:      -2.5229938   -0.4909632   -0.4909632   -0.4909632    0.4660018
:EIG00006:       0.8721455    0.8721455    0.8721455    0.9488113    0.9488113
:EIG00011:       0.9488113    0.9725838    0.9988832    0.9988832    0.9988832
:EIG00016:       1.1974238    1.1974238    1.7537845    1.7537845    1.7537845
:EIG00021:       2.2921521    2.2921521    2.4874607    2.4874607    2.4874607
:EIG00026:       2.6193065    3.1381798    3.1381798    3.1381798    3.4885183
:EIG00031:       3.4885183    3.4885183    3.7297005    3.9007093    3.9007093
:EIG00036:       3.9044146    3.9044146    3.9044146    3.9648389    3.9648389
:EIG00041:       3.9648389    4.1778467    4.1778467    4.2586443    4.2881213
:EIG00046:       4.2881213    4.2881213    4.3444057    4.3444057    4.3444057
 
:EIG00051:       4.9413326    4.9413326    5.1888450    5.1888450    5.1888450
:EIG00056:       5.3522128    5.3522128    5.3522128    5.5171229    5.7118329
:EIG00061:       5.7118329    5.7118329    6.0940243    6.0952039    6.0952039
:EIG00066:       6.2326929    6.2326929    6.2326929    6.5674977    6.5674977
:EIG00071:       6.5674977    6.6360926    6.6360926    6.6360926    6.8672502
:EIG00076:       6.8672502    6.8672502    6.9627174    6.9627174    6.9696922
:EIG00081:       7.1084037    7.1084037    7.1084037    7.2308858    7.2308858
:EIG00086:       7.2308858
       ********************************************************

:KPT   :      NUMBER OF K-POINTS:   286

------- epsilon_Pu_18.scfso --------
   0.0   0.0 angle (M,z), angle (M,x) deg
 
        SPIN-ORBIT EIGENVALUES:
     K=   0.00000   0.00000   0.00000            1
      MATRIX SIZE=  172   WEIGHT= 1.00
     EIGENVALUES ARE:
          -2.5229938   -2.5229938   -0.9448956   -0.9448956   -0.2989573
          -0.2989573   -0.2989573   -0.2989573    0.4660018    0.4660018
           0.8507707    0.8507707    0.8592334    0.8592334    0.8592334
           0.8592334    0.9483838    0.9483838    0.9483838    0.9483838
           0.9830483    0.9830483    0.9834476    0.9834476    0.9851677
           0.9851677    0.9851677    0.9851677    1.0182067    1.0182067
           1.1997708    1.1997708    1.1997708    1.1997708    1.7507501
           1.7507501    1.7561254    1.7561254    1.7561254    1.7561254

           2.2912519    2.2912519    2.2912519    2.2912519    2.3436389
           2.3436389    2.5537605    2.5537605    2.5537605    2.5537605
           2.6193065    2.6193065    3.1198110    3.1198110    3.1198110
           3.1198110    3.1757426    3.1757426    3.3704975    3.3704975
           3.5657352    3.5657352    3.5657352    3.5657352    3.7297005
           3.7297005    3.9010948    3.9010948    3.9010948    3.9010948
           3.9044018    3.9044018    3.9044211    3.9044211    3.9044211
           3.9044211    3.9645679    3.9645679    3.9645679    3.9645679

           3.9670147    3.9670147    4.1778467    4.1778467    4.1778467
           4.1778467    4.2581638    4.2581638    4.2861647    4.2861647
           4.2861647    4.2861647    4.2918456    4.2918456    4.3438816
           4.3438816    4.3453764    4.3453764    4.3453764    4.3453764

       ********************************************************

------- epsilon_Pu_18.scf2 --------
:GMA  : POTENTIAL AND CHARGE CUT-OFF  12.00 Ry**.5
         Bandranges (emin - emax) and occupancy:
:BAN00008:   8   -0.398038   -0.298957  1.00000000
:BAN00009:   9    0.466002    0.838568  1.00000000
:BAN00010:  10    0.466002    0.838568  1.00000000
:BAN00011:  11    0.704180    0.867227  1.00000000
:BAN00012:  12    0.704180    0.867227  1.00000000
:BAN00013:  13    0.820271    0.875161  1.00000000
:BAN00014:  14    0.820271    0.875161  1.00000000
:BAN00015:  15    0.859233    0.878081  0.98227750
:BAN00016:  16    0.859233    0.878081  0.98227750
:BAN00017:  17    0.874596    0.948384  0.01772250
:BAN00018:  18    0.874596    0.948384  0.01772250
:BAN00019:  19    0.896862    0.948384  0.00000000
:BAN00020:  20    0.896862    0.948384  0.00000000
:BAN00021:  21    0.946822    0.983048  0.00000000
:BAN00022:  22    0.946822    0.983048  0.00000000
:BAN00023:  23    0.952601    0.983448  0.00000000
        Energy to separate low and high energystates:    0.41600


:NLDA  : NUMBER OF ELECTRONS          =  16.000

:FLDA  : F E R M I - ENERGY           =   1.37745




:POS001: AT.NR.   1 POSITION = 0.00000 0.00000 0.00000  MULTIPLICITY =  1

       LMMAX  5
       LM=   0 0  4 0  4 4  6 0  6 4
:FER DMFT Fermi Energy   0.82686
:EORB    0.28025705
:SUM SUM OF DMFT BAND ENERGIES   -2.16805523

:CHA001: TOTAL CHARGE INSIDE SPHERE   1 =    11.558048
:PCS001: PARTIAL CHARGES SPHERE =  1 S,P,D,F,      D-EG,D-T2G 
:QTL001: 1.9509 4.5904 0.2745 4.7418 0.0000 0.0000 0.0000 0.1415 0.1385 0.0000 0.0000 0.0000
        Q-s-low E-s-low   Q-p-low E-p-low   Q-d-low E-d-low   Q-f-low E-f-low
:EPL001:  1.8709 -2.5148    4.5063 -0.5894    0.0014 -0.4054    0.0005 -0.4035
        Q-s-hi  E-s-hi    Q-p-hi  E-p-hi    Q-d-hi  E-d-hi    Q-f-hi  E-f-hi 
:EPH001:  0.0800  0.6814    0.0841  0.7369    0.2731  0.7657    4.7413  0.8567

:CHA  : TOTAL CHARGE INSIDE UNIT CELL =      15.999999

:ESUM  : SUM OF EIGENVALUES =          -1.820521118


------- epsilon_Pu_18.scfc --------

        1.ATOM      Pu  0+               21 CORE STATES
:1S 001: 1S               -8966.842068791 Ry
:2S 001: 2S               -1687.509907668 Ry
:2PP001: 2P*              -1628.205153860 Ry
:2P 001: 2P               -1315.052146166 Ry
:3S 001: 3S                -428.039666174 Ry
:3PP001: 3P*               -401.115980634 Ry
:3P 001: 3P                -328.553788868 Ry
:3DD001: 3D*               -286.315137256 Ry
:3D 001: 3D                -271.772441543 Ry
:4S 001: 4S                -109.523489579 Ry
:4PP001: 4P*                -97.335683958 Ry
:4P 001: 4P                 -78.191079532 Ry
:4DD001: 4D*                -58.903619369 Ry
:4D 001: 4D                 -55.409214022 Ry
:5S 001: 5S                 -23.684763934 Ry
:5PP001: 5P*                -18.868056917 Ry
:5P 001: 5P                 -14.183196107 Ry
:4FF001: 4F*                -30.007686694 Ry
:4F 001: 4F                 -29.079739313 Ry
:5DD001: 5D*                 -7.153798753 Ry
:5D 001: 5D                  -6.456762201 Ry

------- epsilon_Pu_18.scfm --------

       DENSITY AT NUCLEUS
        JATOM    VALENCE       SEMI-CORE            CORE           TOTAL
:RTO001:   1    23404.171065        0.000000 45141806.061155 45165210.232220
     
       CHARGES OF NEW CHARGE DENSITY
:NTO  : TOTAL   INTERSTITIAL CHARGE=    4.4419495
:NTO001: TOTAL   CHARGE IN SPHERE  1 =       89.5485795

:NEC01: NUCLEAR AND ELECTRONIC CHARGE     94.00000    93.99053     1.00010
     
       CHARGES OF OLD CHARGE DENSITY
:OTO  : TOTAL   INTERSTITIAL CHARGE=    4.4481847
:OTO001: TOTAL   CHARGE IN SPHERE  1 =       89.5518153

:NEC02: NUCLEAR AND ELECTRONIC CHARGE     94.00000    94.00000     1.00000
     
       CONVERGENCE TEST
:DTO001: TOTAL   DIFFERENCE CHARGE**2 IN SPHERE  1 =  0.0030244

:DIS  :  CHARGE DISTANCE       ( 0.0030244 for atom    1 spin 1)      0.0030244
:BIG check (qbig,qrms,qtot)    0.101D-02   0.214D-02   0.302D-02
 
******************************************************
* MULTISECANT MIXING VER4 OPTIONS                    *
* Unpredicted Step Limit   0.100000                  *
* Plane Wave Dynamic Rescaling                       *
* Dynamic Regularization active                      *
* Upper Cutoff Lambda  1.0E-01 Lower 3.5E-04         *
* SQRT Multiplicity/Degeneracy                       *
* Max Number of Memory Steps    8                    *
******************************************************
 
:PLANE:  INTERSTITIAL TOTAL      1.83493 DISTAN  1.412E-02 % 
:CHARG:  CLM CHARGE   /ATOM    713.23149 DISTAN  1.052E-03 % 
:INFO :  Dynamic rescale   2.283E+01  1.000E-01
:INFO :  Number of Memory Steps    4 Skipping    0
:INFO :  Singular value   3.637E+00 Weight   1.000E+00 Projections   1.606E-02  5.906E-03
:INFO :  Singular value   2.751E+00 Weight   1.000E+00 Projections  -1.854E-02 -1.286E-03
:INFO :  Singular value   3.570E-03 Weight   9.882E-01 Projections  -8.244E-03 -2.915E-02
:INFO :  Singular value   5.182E-05 Weight   1.728E-02 Projections   1.477E-02  1.123E-03
:INFO :  Bounds         0.571D-01  0.200D+00  0.639D+00  0.571D-01
:DIRM :  MEMORY 4/8 RESCALE  22.83 RED 1.264 PRED 0.409 NEXT 0.157 COND 9.01E-01
:DIRP :  |BROYD|= 3.135E-03 |PRATT|= 3.376E-04 ANGLE=  50.2 DEGREES
:DIRB :  |BROYD|= 3.932E-03 |PRATT|= 5.453E-04 ANGLE=  47.6 DEGREES
:MIX  :  MSR1   REGULARIZATION: 3.91E-04  GREED: 0.057
     
       CHARGES OF MIXED CHARGE DENSITY
:CTO  : TOTAL   INTERSTITIAL CHARGE=    4.4489293
:CTO001: TOTAL   CHARGE IN SPHERE  1 =       89.5510707

:NEC03: NUCLEAR AND ELECTRONIC CHARGE     94.00000    94.00000     1.00000


:ENE  : ********** TOTAL ENERGY IN Ry =       -59354.72345736


------- epsilon_Pu_18.scf0 --------


            ---------
:ITE103:103. ITERATION
            ---------

:NATO :    1 INDEPENDENT AND    1 TOTAL ATOMS IN UNITCELL
       SUBSTANCE: cubic body-centered  (epsilon Pu)                           

       LATTICE                      = B   
:POT  : POTENTIAL OPTION    5
:LAT  : LATTICE CONSTANTS=  7.59807  7.59807  7.59807    1.571    1.571    1.571
:VOL  : UNIT CELL VOLUME =     219.32091
       MODE OF CALCULATION IS       = RELA
       NON-SPINPOLARIZED CALCULATION
:IFFT  : FFT-parameters:   60   60   60 Factor: 2.00
       ATOMNUMBER=  1 Pu  0+     VCOUL-ZERO = -0.22737E-01
:FIT001: LUSE= 13 SIGMA OF V-XC FIT FOR ATOM  1  0.2683291E-05
:FIT001: LUSE= 13 SIGMA OF V-XC FIT FOR ATOM  1  0.2683291E-05
:DEN  : DENSITY INTEGRAL  =        -21862.60498262   (Ry)
       ELS_POTENTIAL_AT Z=0 and Z=0.5:  -2.26269  -2.26269
       ELS_POTENTIAL_AT Y=0 and Y=0.5:   0.00000   0.00000
:VZERO:v0,v0c,v0x  -3.20063  -2.26269  -0.93793 v5,v5c,v5x  -3.20063  -2.26269  -0.93793
:VZERY:v0,v0c,v0x  -0.78213   0.00000  -0.78213 v5,v5c,v5x  -0.78213   0.00000  -0.78213
:VZERX:v0,v0c,v0x  -0.78213   0.00000  -0.78213 v5,v5c,v5x  -0.78213   0.00000  -0.78213

------- epsilon_Pu_18.scf1 --------

          ATOMIC SPHERE DEPENDENT PARAMETERS FOR ATOM  Pu  0+    
:e__0001: OVERALL ENERGY PARAMETER IS    0.6302
          OVERALL BASIS SET ON ATOM IS LAPW
:E0_0001: E( 0)=    0.6302
             APW+lo
:E0_0001: E( 0)=   -2.5620   E(BOTTOM)=   -3.341   E(TOP)=   -1.783
             LOCAL ORBITAL
:E1_0001: E( 1)=   -1.3800   E(BOTTOM)=   -1.652   E(TOP)= -200.000
             APW+lo
:E1_0001: E( 1)=    0.6302
             LOCAL ORBITAL
:E3_0001: E( 3)=    0.6302   E(BOTTOM)=    0.410   E(TOP)= -200.000
             APW+lo
:E2_0001: E( 2)=    0.6302   E(BOTTOM)=    0.555   E(TOP)= -200.000
             APW+lo

       K=   0.00000   0.00000   0.00000            1
:RKM  : MATRIX SIZE  245LOs:  20  RKM= 8.34  WEIGHT= 1.00  PGR:    
       EIGENVALUES ARE:
:EIG00001:      -2.5233624   -0.4912282   -0.4912282   -0.4912282    0.4660122
:EIG00006:       0.8717989    0.8717989    0.8717989    0.9483803    0.9483803
:EIG00011:       0.9483803    0.9721601    0.9988194    0.9988194    0.9988194
:EIG00016:       1.1973583    1.1973583    1.7537216    1.7537216    1.7537216
:EIG00021:       2.2921271    2.2921271    2.4874038    2.4874038    2.4874038
:EIG00026:       2.6193173    3.1380593    3.1380593    3.1380593    3.4884366
:EIG00031:       3.4884366    3.4884366    3.7296244    3.9006963    3.9006963
:EIG00036:       3.9043997    3.9043997    3.9043997    3.9648287    3.9648287
:EIG00041:       3.9648287    4.1778826    4.1778826    4.2584458    4.2880827
:EIG00046:       4.2880827    4.2880827    4.3443862    4.3443862    4.3443862
 
:EIG00051:       4.9412854    4.9412854    5.1888409    5.1888409    5.1888409
:EIG00056:       5.3522238    5.3522238    5.3522238    5.5171432    5.7117675
:EIG00061:       5.7117675    5.7117675    6.0938840    6.0951048    6.0951048
:EIG00066:       6.2326351    6.2326351    6.2326351    6.5674783    6.5674783
:EIG00071:       6.5674783    6.6360925    6.6360925    6.6360925    6.8672614
:EIG00076:       6.8672614    6.8672614    6.9627659    6.9627659    6.9697412
:EIG00081:       7.1082964    7.1082964    7.1082964    7.2308634    7.2308634
:EIG00086:       7.2308634
       ********************************************************

:KPT   :      NUMBER OF K-POINTS:   286

------- epsilon_Pu_18.scfso --------
   0.0   0.0 angle (M,z), angle (M,x) deg
 
        SPIN-ORBIT EIGENVALUES:
     K=   0.00000   0.00000   0.00000            1
      MATRIX SIZE=  172   WEIGHT= 1.00
     EIGENVALUES ARE:
          -2.5233624   -2.5233624   -0.9452002   -0.9452002   -0.2992035
          -0.2992035   -0.2992035   -0.2992035    0.4660122    0.4660122
           0.8504086    0.8504086    0.8588634    0.8588634    0.8588634
           0.8588634    0.9479756    0.9479756    0.9479756    0.9479756
           0.9826237    0.9826237    0.9830363    0.9830363    0.9851006
           0.9851006    0.9851006    0.9851006    1.0181465    1.0181465
           1.1997065    1.1997065    1.1997065    1.1997065    1.7506888
           1.7506888    1.7560610    1.7560610    1.7560610    1.7560610

           2.2912269    2.2912269    2.2912269    2.2912269    2.3435778
           2.3435778    2.5537062    2.5537062    2.5537062    2.5537062
           2.6193173    2.6193173    3.1196902    3.1196902    3.1196902
           3.1196902    3.1756237    3.1756237    3.3704225    3.3704225
           3.5656507    3.5656507    3.5656507    3.5656507    3.7296244
           3.7296244    3.9010817    3.9010817    3.9010817    3.9010817
           3.9043869    3.9043869    3.9044062    3.9044062    3.9044062
           3.9044062    3.9645576    3.9645576    3.9645576    3.9645576

           3.9670046    3.9670046    4.1778826    4.1778826    4.1778826
           4.1778826    4.2579666    4.2579666    4.2861274    4.2861274
           4.2861274    4.2861274    4.2918051    4.2918051    4.3438608
           4.3438608    4.3453569    4.3453569    4.3453569    4.3453569

       ********************************************************

------- epsilon_Pu_18.scf2 --------
:GMA  : POTENTIAL AND CHARGE CUT-OFF  12.00 Ry**.5
         Bandranges (emin - emax) and occupancy:
:BAN00008:   8   -0.398252   -0.299204  1.00000000
:BAN00009:   9    0.466012    0.838523  1.00000000
:BAN00010:  10    0.466012    0.838523  1.00000000
:BAN00011:  11    0.704177    0.866950  1.00000000
:BAN00012:  12    0.704177    0.866950  1.00000000
:BAN00013:  13    0.820144    0.874768  1.00000000
:BAN00014:  14    0.820144    0.874768  1.00000000
:BAN00015:  15    0.858863    0.877714  0.98219966
:BAN00016:  16    0.858863    0.877714  0.98219966
:BAN00017:  17    0.874209    0.947976  0.01780034
:BAN00018:  18    0.874209    0.947976  0.01780034
:BAN00019:  19    0.896609    0.947976  0.00000000
:BAN00020:  20    0.896609    0.947976  0.00000000
:BAN00021:  21    0.946489    0.982624  0.00000000
:BAN00022:  22    0.946489    0.982624  0.00000000
:BAN00023:  23    0.952218    0.983036  0.00000000
        Energy to separate low and high energystates:    0.41601


:NLDA  : NUMBER OF ELECTRONS          =  16.000

:FLDA  : F E R M I - ENERGY           =   1.37706




:POS001: AT.NR.   1 POSITION = 0.00000 0.00000 0.00000  MULTIPLICITY =  1

       LMMAX  5
       LM=   0 0  4 0  4 4  6 0  6 4
:FER DMFT Fermi Energy   0.82676
:EORB    0.27874410
:SUM SUM OF DMFT BAND ENERGIES   -2.17099318

:CHA001: TOTAL CHARGE INSIDE SPHERE   1 =    11.559564
:PCS001: PARTIAL CHARGES SPHERE =  1 S,P,D,F,      D-EG,D-T2G 
:QTL001: 1.9510 4.5906 0.2744 4.7432 0.0000 0.0000 0.0000 0.1414 0.1384 0.0000 0.0000 0.0000
        Q-s-low E-s-low   Q-p-low E-p-low   Q-d-low E-d-low   Q-f-low E-f-low
:EPL001:  1.8709 -2.5151    4.5066 -0.5896    0.0014 -0.4056    0.0005 -0.4037
        Q-s-hi  E-s-hi    Q-p-hi  E-p-hi    Q-d-hi  E-d-hi    Q-f-hi  E-f-hi 
:EPH001:  0.0800  0.6814    0.0840  0.7368    0.2730  0.7656    4.7427  0.8564

:CHA  : TOTAL CHARGE INSIDE UNIT CELL =      16.000000

:ESUM  : SUM OF EIGENVALUES =          -1.824911004


------- epsilon_Pu_18.scfc --------

        1.ATOM      Pu  0+               21 CORE STATES
:1S 001: 1S               -8966.842691197 Ry
:2S 001: 2S               -1687.510561113 Ry
:2PP001: 2P*              -1628.205799867 Ry
:2P 001: 2P               -1315.052799448 Ry
:3S 001: 3S                -428.040352515 Ry
:3PP001: 3P*               -401.116665088 Ry
:3P 001: 3P                -328.554475120 Ry
:3DD001: 3D*               -286.315821520 Ry
:3D 001: 3D                -271.773126891 Ry
:4S 001: 4S                -109.524159804 Ry
:4PP001: 4P*                -97.336354191 Ry
:4P 001: 4P                 -78.191746119 Ry
:4DD001: 4D*                -58.904286641 Ry
:4D 001: 4D                 -55.409880386 Ry
:5S 001: 5S                 -23.685404861 Ry
:5PP001: 5P*                -18.868692795 Ry
:5P 001: 5P                 -14.183814563 Ry
:4FF001: 4F*                -30.008358124 Ry
:4F 001: 4F                 -29.080410170 Ry
:5DD001: 5D*                 -7.154391753 Ry
:5D 001: 5D                  -6.457346548 Ry

------- epsilon_Pu_18.scfm --------

       DENSITY AT NUCLEUS
        JATOM    VALENCE       SEMI-CORE            CORE           TOTAL
:RTO001:   1    23405.398777        0.000000 45141806.166675 45165211.565452
     
       CHARGES OF NEW CHARGE DENSITY
:NTO  : TOTAL   INTERSTITIAL CHARGE=    4.4404342
:NTO001: TOTAL   CHARGE IN SPHERE  1 =       89.5500972

:NEC01: NUCLEAR AND ELECTRONIC CHARGE     94.00000    93.99053     1.00010
     
       CHARGES OF OLD CHARGE DENSITY
:OTO  : TOTAL   INTERSTITIAL CHARGE=    4.4489293
:OTO001: TOTAL   CHARGE IN SPHERE  1 =       89.5510707

:NEC02: NUCLEAR AND ELECTRONIC CHARGE     94.00000    94.00000     1.00000
     
       CONVERGENCE TEST
:DTO001: TOTAL   DIFFERENCE CHARGE**2 IN SPHERE  1 =  0.0009699

:DIS  :  CHARGE DISTANCE       ( 0.0009699 for atom    1 spin 1)      0.0009699
:BIG check (qbig,qrms,qtot)    0.323D-03   0.686D-03   0.970D-03
 
******************************************************
* MULTISECANT MIXING VER4 OPTIONS                    *
* Unpredicted Step Limit   0.100000                  *
* Plane Wave Dynamic Rescaling                       *
* Dynamic Regularization active                      *
* Upper Cutoff Lambda  1.0E-01 Lower 3.5E-04         *
* SQRT Multiplicity/Degeneracy                       *
* Max Number of Memory Steps    8                    *
******************************************************
 
:PLANE:  INTERSTITIAL TOTAL      1.83502 DISTAN  4.756E-03 % 
:CHARG:  CLM CHARGE   /ATOM    713.23143 DISTAN  3.549E-04 % 
:INFO :  Dynamic rescale   2.380E+01  1.000E-01
:INFO :  Number of Memory Steps    5 Skipping    0
:INFO :  Singular value   6.239E+00 Weight   1.000E+00 Projections   9.752E-03  1.107E-03
:INFO :  Singular value   2.189E+00 Weight   1.000E+00 Projections   1.956E-03  1.284E-03
:INFO :  Singular value   4.865E-03 Weight   9.146E-01 Projections  -3.058E-03  1.620E-02
:INFO :  Singular value   7.643E-05 Weight   2.635E-03 Projections   1.486E-03 -3.987E-04
:INFO :  Singular value   2.535E-05 Weight   2.904E-04 Projections  -1.246E-02 -2.079E-05
:INFO :  Bounds         0.114D+00  0.200D+00  0.282D+00  0.114D+00
:DIRM :  MEMORY 5/8 RESCALE  23.80 RED 0.337 PRED 0.157 NEXT 0.355 COND 1.25E+00
:DIRP :  |BROYD|= 3.452E-04 |PRATT|= 2.371E-04 ANGLE=  52.3 DEGREES
:DIRB :  |BROYD|= 3.854E-04 |PRATT|= 3.737E-04 ANGLE=  52.1 DEGREES
:MIX  :  MSR1   REGULARIZATION: 1.49E-03  GREED: 0.114
     
       CHARGES OF MIXED CHARGE DENSITY
:CTO  : TOTAL   INTERSTITIAL CHARGE=    4.4489609
:CTO001: TOTAL   CHARGE IN SPHERE  1 =       89.5510391

:NEC03: NUCLEAR AND ELECTRONIC CHARGE     94.00000    94.00000     1.00000


:ENE  : ********** TOTAL ENERGY IN Ry =       -59354.72348827


------- epsilon_Pu_18.scf0 --------


            ---------
:ITE104:104. ITERATION
            ---------

:NATO :    1 INDEPENDENT AND    1 TOTAL ATOMS IN UNITCELL
       SUBSTANCE: cubic body-centered  (epsilon Pu)                           

       LATTICE                      = B   
:POT  : POTENTIAL OPTION    5
:LAT  : LATTICE CONSTANTS=  7.59807  7.59807  7.59807    1.571    1.571    1.571
:VOL  : UNIT CELL VOLUME =     219.32091
       MODE OF CALCULATION IS       = RELA
       NON-SPINPOLARIZED CALCULATION
:IFFT  : FFT-parameters:   60   60   60 Factor: 2.00
       ATOMNUMBER=  1 Pu  0+     VCOUL-ZERO = -0.22740E-01
:FIT001: LUSE= 13 SIGMA OF V-XC FIT FOR ATOM  1  0.2683199E-05
:FIT001: LUSE= 13 SIGMA OF V-XC FIT FOR ATOM  1  0.2683199E-05
:DEN  : DENSITY INTEGRAL  =        -21862.59629095   (Ry)
       ELS_POTENTIAL_AT Z=0 and Z=0.5:  -2.26271  -2.26271
       ELS_POTENTIAL_AT Y=0 and Y=0.5:   0.00000   0.00000
:VZERO:v0,v0c,v0x  -3.20064  -2.26271  -0.93794 v5,v5c,v5x  -3.20064  -2.26271  -0.93794
:VZERY:v0,v0c,v0x  -0.78214   0.00000  -0.78214 v5,v5c,v5x  -0.78214   0.00000  -0.78214
:VZERX:v0,v0c,v0x  -0.78214   0.00000  -0.78214 v5,v5c,v5x  -0.78214   0.00000  -0.78214

------- epsilon_Pu_18.scf1 --------

          ATOMIC SPHERE DEPENDENT PARAMETERS FOR ATOM  Pu  0+    
:e__0001: OVERALL ENERGY PARAMETER IS    0.6302
          OVERALL BASIS SET ON ATOM IS LAPW
:E0_0001: E( 0)=    0.6302
             APW+lo
:E0_0001: E( 0)=   -2.5620   E(BOTTOM)=   -3.341   E(TOP)=   -1.783
             LOCAL ORBITAL
:E1_0001: E( 1)=   -1.3800   E(BOTTOM)=   -1.652   E(TOP)= -200.000
             APW+lo
:E1_0001: E( 1)=    0.6302
             LOCAL ORBITAL
:E3_0001: E( 3)=    0.6302   E(BOTTOM)=    0.410   E(TOP)= -200.000
             APW+lo
:E2_0001: E( 2)=    0.6302   E(BOTTOM)=    0.555   E(TOP)= -200.000
             APW+lo

       K=   0.00000   0.00000   0.00000            1
:RKM  : MATRIX SIZE  245LOs:  20  RKM= 8.34  WEIGHT= 1.00  PGR:    
       EIGENVALUES ARE:
:EIG00001:      -2.5233868   -0.4912446   -0.4912446   -0.4912446    0.4660122
:EIG00006:       0.8717734    0.8717734    0.8717734    0.9483489    0.9483489
:EIG00011:       0.9483489    0.9721279    0.9988157    0.9988157    0.9988157
:EIG00016:       1.1973545    1.1973545    1.7537152    1.7537152    1.7537152
:EIG00021:       2.2921252    2.2921252    2.4873991    2.4873991    2.4873991
:EIG00026:       2.6193176    3.1380511    3.1380511    3.1380511    3.4884300
:EIG00031:       3.4884300    3.4884300    3.7296192    3.9006950    3.9006950
:EIG00036:       3.9043997    3.9043997    3.9043997    3.9648286    3.9648286
:EIG00041:       3.9648286    4.1778849    4.1778849    4.2584303    4.2880790
:EIG00046:       4.2880790    4.2880790    4.3443836    4.3443836    4.3443836
 
:EIG00051:       4.9412834    4.9412834    5.1888405    5.1888405    5.1888405
:EIG00056:       5.3522242    5.3522242    5.3522242    5.5171444    5.7117622
:EIG00061:       5.7117622    5.7117622    6.0938762    6.0950981    6.0950981
:EIG00066:       6.2326324    6.2326324    6.2326324    6.5674772    6.5674772
:EIG00071:       6.5674772    6.6360927    6.6360927    6.6360927    6.8672620
:EIG00076:       6.8672620    6.8672620    6.9627685    6.9627685    6.9697442
:EIG00081:       7.1082886    7.1082886    7.1082886    7.2308608    7.2308608
:EIG00086:       7.2308608
       ********************************************************

:KPT   :      NUMBER OF K-POINTS:   286

------- epsilon_Pu_18.scfso --------
   0.0   0.0 angle (M,z), angle (M,x) deg
 
        SPIN-ORBIT EIGENVALUES:
     K=   0.00000   0.00000   0.00000            1
      MATRIX SIZE=  172   WEIGHT= 1.00
     EIGENVALUES ARE:
          -2.5233868   -2.5233868   -0.9452194   -0.9452194   -0.2992187
          -0.2992187   -0.2992187   -0.2992187    0.4660122    0.4660122
           0.8503817    0.8503817    0.8588361    0.8588361    0.8588361
           0.8588361    0.9479458    0.9479458    0.9479458    0.9479458
           0.9825928    0.9825928    0.9830053    0.9830053    0.9850967
           0.9850967    0.9850967    0.9850967    1.0181429    1.0181429
           1.1997027    1.1997027    1.1997027    1.1997027    1.7506826
           1.7506826    1.7560545    1.7560545    1.7560545    1.7560545

           2.2912249    2.2912249    2.2912249    2.2912249    2.3435729
           2.3435729    2.5537015    2.5537015    2.5537015    2.5537015
           2.6193176    2.6193176    3.1196820    3.1196820    3.1196820
           3.1196820    3.1756156    3.1756156    3.3704163    3.3704163
           3.5656440    3.5656440    3.5656440    3.5656440    3.7296192
           3.7296192    3.9010804    3.9010804    3.9010804    3.9010804
           3.9043868    3.9043868    3.9044061    3.9044061    3.9044061
           3.9044061    3.9645575    3.9645575    3.9645575    3.9645575

           3.9670045    3.9670045    4.1778849    4.1778849    4.1778849
           4.1778849    4.2579512    4.2579512    4.2861239    4.2861239
           4.2861239    4.2861239    4.2918014    4.2918014    4.3438581
           4.3438581    4.3453543    4.3453543    4.3453543    4.3453543

       ********************************************************

------- epsilon_Pu_18.scf2 --------
:GMA  : POTENTIAL AND CHARGE CUT-OFF  12.00 Ry**.5
         Bandranges (emin - emax) and occupancy:
:BAN00008:   8   -0.398265   -0.299219  1.00000000
:BAN00009:   9    0.466012    0.838520  1.00000000
:BAN00010:  10    0.466012    0.838520  1.00000000
:BAN00011:  11    0.704177    0.866930  1.00000000
:BAN00012:  12    0.704177    0.866930  1.00000000
:BAN00013:  13    0.820134    0.874739  1.00000000
:BAN00014:  14    0.820134    0.874739  1.00000000
:BAN00015:  15    0.858836    0.877687  0.98219816
:BAN00016:  16    0.858836    0.877687  0.98219816
:BAN00017:  17    0.874180    0.947946  0.01780184
:BAN00018:  18    0.874180    0.947946  0.01780184
:BAN00019:  19    0.896591    0.947946  0.00000000
:BAN00020:  20    0.896591    0.947946  0.00000000
:BAN00021:  21    0.946464    0.982593  0.00000000
:BAN00022:  22    0.946464    0.982593  0.00000000
:BAN00023:  23    0.952190    0.983005  0.00000000
        Energy to separate low and high energystates:    0.41601


:NLDA  : NUMBER OF ELECTRONS          =  16.000

:FLDA  : F E R M I - ENERGY           =   1.37703




:POS001: AT.NR.   1 POSITION = 0.00000 0.00000 0.00000  MULTIPLICITY =  1

       LMMAX  5
       LM=   0 0  4 0  4 4  6 0  6 4
:FER DMFT Fermi Energy   0.82677
:EORB    0.27854300
:SUM SUM OF DMFT BAND ENERGIES   -2.17109757

:CHA001: TOTAL CHARGE INSIDE SPHERE   1 =    11.559577
:PCS001: PARTIAL CHARGES SPHERE =  1 S,P,D,F,      D-EG,D-T2G 
:QTL001: 1.9510 4.5906 0.2744 4.7432 0.0000 0.0000 0.0000 0.1414 0.1384 0.0000 0.0000 0.0000
        Q-s-low E-s-low   Q-p-low E-p-low   Q-d-low E-d-low   Q-f-low E-f-low
:EPL001:  1.8709 -2.5152    4.5066 -0.5896    0.0014 -0.4056    0.0005 -0.4037
        Q-s-hi  E-s-hi    Q-p-hi  E-p-hi    Q-d-hi  E-d-hi    Q-f-hi  E-f-hi 
:EPH001:  0.0800  0.6814    0.0840  0.7368    0.2730  0.7656    4.7427  0.8564

:CHA  : TOTAL CHARGE INSIDE UNIT CELL =      16.000000

:ESUM  : SUM OF EIGENVALUES =          -1.825218589


------- epsilon_Pu_18.scfc --------

        1.ATOM      Pu  0+               21 CORE STATES
:1S 001: 1S               -8966.842857831 Ry
:2S 001: 2S               -1687.510720434 Ry
:2PP001: 2P*              -1628.205961136 Ry
:2P 001: 2P               -1315.052958753 Ry
:3S 001: 3S                -428.040493041 Ry
:3PP001: 3P*               -401.116807543 Ry
:3P 001: 3P                -328.554613341 Ry
:3DD001: 3D*               -286.315964587 Ry
:3D 001: 3D                -271.773268733 Ry
:4S 001: 4S                -109.524264668 Ry
:4PP001: 4P*                -97.336459586 Ry
:4P 001: 4P                 -78.191845140 Ry
:4DD001: 4D*                -58.904386799 Ry
:4D 001: 4D                 -55.409978769 Ry
:5S 001: 5S                 -23.685471243 Ry
:5PP001: 5P*                -18.868757371 Ry
:5P 001: 5P                 -14.183873092 Ry
:4FF001: 4F*                -30.008459418 Ry
:4F 001: 4F                 -29.080510571 Ry
:5DD001: 5D*                 -7.154444857 Ry
:5D 001: 5D                  -6.457397839 Ry

------- epsilon_Pu_18.scfm --------

       DENSITY AT NUCLEUS
        JATOM    VALENCE       SEMI-CORE            CORE           TOTAL
:RTO001:   1    23405.512140        0.000000 45141806.539257 45165212.051397
     
       CHARGES OF NEW CHARGE DENSITY
:NTO  : TOTAL   INTERSTITIAL CHARGE=    4.4404213
:NTO001: TOTAL   CHARGE IN SPHERE  1 =       89.5501103

:NEC01: NUCLEAR AND ELECTRONIC CHARGE     94.00000    93.99053     1.00010
     
       CHARGES OF OLD CHARGE DENSITY
:OTO  : TOTAL   INTERSTITIAL CHARGE=    4.4489609
:OTO001: TOTAL   CHARGE IN SPHERE  1 =       89.5510391

:NEC02: NUCLEAR AND ELECTRONIC CHARGE     94.00000    94.00000     1.00000
     
       CONVERGENCE TEST
:DTO001: TOTAL   DIFFERENCE CHARGE**2 IN SPHERE  1 =  0.0009118

:DIS  :  CHARGE DISTANCE       ( 0.0009118 for atom    1 spin 1)      0.0009118
:BIG check (qbig,qrms,qtot)    0.304D-03   0.645D-03   0.912D-03
 
******************************************************
* MULTISECANT MIXING VER4 OPTIONS                    *
* Unpredicted Step Limit   0.100000                  *
* Plane Wave Dynamic Rescaling                       *
* Dynamic Regularization active                      *
* Upper Cutoff Lambda  1.0E-01 Lower 3.5E-04         *
* SQRT Multiplicity/Degeneracy                       *
* Max Number of Memory Steps    8                    *
******************************************************
 
:PLANE:  INTERSTITIAL TOTAL      1.83504 DISTAN  4.357E-03 % 
:CHARG:  CLM CHARGE   /ATOM    713.23135 DISTAN  3.216E-04 % 
:INFO :  Dynamic rescale   2.447E+01  1.000E-01
:INFO :  Number of Memory Steps    6 Skipping    0
:INFO :  Singular value   7.257E+00 Weight   1.000E+00 Projections   1.055E-02  1.001E-03
:INFO :  Singular value   2.127E+00 Weight   1.000E+00 Projections   1.889E-03  1.282E-03
:INFO :  Singular value   8.981E-01 Weight   1.000E+00 Projections  -3.146E-03 -9.852E-04
:INFO :  Singular value   4.515E-03 Weight   9.940E-01 Projections   1.776E-03 -1.682E-02
:INFO :  Singular value   2.828E-05 Weight   6.487E-03 Projections  -1.259E-02  2.903E-06
:INFO :  Singular value   1.696E-05 Weight   2.344E-03 Projections  -5.398E-04  1.588E-04
:INFO :  Bounds         0.125D+00  0.200D+00  0.926D+00  0.125D+00
:DIRM :  MEMORY 6/8 RESCALE  24.47 RED 0.910 PRED 0.355 NEXT 0.108 COND 1.21E+00
:DIRP :  |BROYD|= 5.511E-04 |PRATT|= 2.453E-04 ANGLE=  61.8 DEGREES
:DIRB :  |BROYD|= 6.884E-04 |PRATT|= 3.780E-04 ANGLE=  60.3 DEGREES
:MIX  :  MSR1   REGULARIZATION: 3.50E-04  GREED: 0.125
     
       CHARGES OF MIXED CHARGE DENSITY
:CTO  : TOTAL   INTERSTITIAL CHARGE=    4.4489676
:CTO001: TOTAL   CHARGE IN SPHERE  1 =       89.5510324

:NEC03: NUCLEAR AND ELECTRONIC CHARGE     94.00000    94.00000     1.00000


:ENE  : ********** TOTAL ENERGY IN Ry =       -59354.72349062

