
:LABEL1: Calculations in /home/ykent/GWIEN/example/Pr/aU/V22/case
:LABEL2: on didymium-2.cmpgroup.ameslab.gov at Fri Jul 10 13:27:54 CDT 2020
:LABEL3: using WIEN2k_19.1 (Release 25/6/2019) in /home/ykent/opt/src/WIEN2k_19.1
:LABEL4: using the command: run_lapw -cc 0.0001
 Flat Integration
 New Mode for Coulomb Integral
 Consistent 3/8+Simpson combinations
 Extension of core to zero
 LDM version in phi
 Fifth-order quadrature in outwin


            ---------
:ITE001:  1. ITERATION
            ---------

:NATO :    1 INDEPENDENT AND    2 TOTAL ATOMS IN UNITCELL
       SUBSTANCE: aU                                                          

       LATTICE                      = CXY 
:POT  : POTENTIAL OPTION EX_LDA EC_LDA VX_LDA VC_LDA
:LAT  : LATTICE CONSTANTS=  6.76640 13.73073 11.85402    1.571    1.571    1.571
:VOL  : UNIT CELL VOLUME =     550.66398
       MODE OF CALCULATION IS       = RELA
       NON-SPINPOLARIZED CALCULATION
:IFFT  : FFT-parameters:   54  108   96 Factor: 2.00


   CONVERGENCE PARAMETER FOR PSEUDOCHARGE: NCON=  9
   MAXIMAL VALUE OF RMT(JATOM)*ABSK(NKK) : RK  =27.59515


:VKCOUL :  VK-COUL convergence: 0.102E-06
       ATOMNUMBER=  1 Pr1        VCOUL-ZERO = -0.55833E-01
:EFG001:                        EFG         =    -0.02035   *10**21  V / m**2
                               V20  TOT/SRF=    -0.01762    -0.02323
                               V22  TOT/SRF=     0.00331     0.00413
                               V22M TOT/SRF=     0.00000     0.00000
                               V21  TOT/SRF=     0.00000     0.00000
                               V21M TOT/SRF=     0.00000     0.00000

              0.01349    0.00000    0.00000        0.01349    0.00000    0.00000
              0.00000    0.00686    0.00000        0.00000    0.00686    0.00000
              0.00000    0.00000   -0.02035        0.00000    0.00000   -0.02035

         MAIN DIRECTIONS OF THE EFG   1.0000  0.0000  0.0000
                                      0.0000  1.0000  0.0000
                                      0.0000  0.0000  1.0000
:ANG001:  ANGLE WITH OLD X-AXIS =         0.0

:ETA001:                         ASYMM. ETA =     0.32565


     HELLMANN-FEYNMAN-FORCE IN mRy/a.u. = |F|  Fx       Fy             Fz
:FHF001:   1.ATOM    233.525718918551      0.000000000000      0.000000000000   -233.525718918551

:FIT001: LUSE= 13 SIGMA OF V-XC FIT FOR ATOM  1  0.1506705E-05
:FIT001: LUSE= 13 SIGMA OF V-XC FIT FOR ATOM  1  0.1506705E-05
:DEN  : DENSITY INTEGRAL  =        -14136.37643391   (Ry)
       ELS_POTENTIAL_AT Z=0 and Z=0.5:   0.64484   0.64484
       ELS_POTENTIAL_AT Y=0 and Y=0.5:   0.07424   0.07424
:VZERO:v0,v0c,v0x   0.10706   0.64484  -0.53779 v5,v5c,v5x   0.10706   0.64484  -0.53779
:VZERY:v0,v0c,v0x  -0.64753   0.07424  -0.72177 v5,v5c,v5x  -0.64753   0.07424  -0.72177
:VZERX:v0,v0c,v0x  -1.05132  -0.35918  -0.69214 v5,v5c,v5x  -1.05132  -0.35918  -0.69214
:LMAX-WF:   10   Non-Spherical LMAX:   4

          ATOMIC SPHERE DEPENDENT PARAMETERS FOR ATOM  Pr1       
:e__0001: OVERALL ENERGY PARAMETER IS    0.3000
          OVERALL BASIS SET ON ATOM IS LAPW
:E0_0001: E( 0)=    0.3000
             APW+lo
:E0_0001: E( 0)=   -2.1574   E(BOTTOM)=   -2.794   E(TOP)=   -1.521  4  5   166
             LOCAL ORBITAL
:E1_0001: E( 1)=    0.7000
             APW+lo
:E1_0001: E( 1)=   -0.6880   E(BOTTOM)=   -1.646   E(TOP)=    0.270  3  4   197
             LOCAL ORBITAL
:E3_0001: E( 3)=    0.5006   E(BOTTOM)=    0.292   E(TOP)=    0.710  0  1   119
             APW+lo
:E2_0001: E( 2)=    0.3000   E(BOTTOM)=    0.094   E(TOP)= -200.000  2 -1    99
             APW+lo

       K=   0.06250   0.00000   0.06250            1
:RKM  : MATRIX SIZE   509LOs:  40  RKM= 8.50  WEIGHT= 4.00  PGR:    
       EIGENVALUES ARE:
:EIG00001:      -2.1226109   -2.1142201   -0.8346243   -0.7810291   -0.7692345
:EIG00006:      -0.7656796   -0.7615086   -0.7608338    0.2869761    0.4334298
:EIG00011:       0.5156099    0.5165833    0.5169598    0.5204879    0.5214990
:EIG00016:       0.5299030    0.5332090    0.5338340    0.5363259    0.5380994
:EIG00021:       0.5412658    0.5438851    0.5448796    0.5472246    0.5849713
:EIG00026:       0.5971278    0.6553847    0.6819645    0.6896451    0.7318327
:EIG00031:       0.7467398    0.8132920    0.8568858    0.8923289    1.1357642
:EIG00036:       1.1858199    1.2742874    1.2771881    1.4172996    1.4688534
:EIG00041:       1.5026710    1.6041113    1.6633541    1.6843093    1.7570668
:EIG00046:       1.8323745    1.8394302    1.8729244    1.9416440
 
       ********************************************************

:KPT   :      NUMBER OF K-POINTS:   288
:GAP (global)   :    0.0    Ry =     0.0   eV (metal)
         Bandranges (emin - emax) and occupancy:
:BAN00005:   5   -0.816460   -0.769234  2.00000000
:BAN00006:   6   -0.805405   -0.763195  2.00000000
:BAN00007:   7   -0.791176   -0.761336  2.00000000
:BAN00008:   8   -0.773096   -0.758532  2.00000000
:BAN00009:   9    0.282722    0.491200  2.00000000
:BAN00010:  10    0.387000    0.503971  2.00000000
:BAN00011:  11    0.474192    0.515610  2.00000000
:BAN00012:  12    0.503957    0.520376  2.00000000
:BAN00013:  13    0.512656    0.526819  1.53490633
:BAN00014:  14    0.516439    0.530535  0.45938737
:BAN00015:  15    0.520488    0.533124  0.00570629
:BAN00016:  16    0.524569    0.533523  0.00000000
:BAN00017:  17    0.527361    0.534742  0.00000000
:BAN00018:  18    0.528986    0.535584  0.00000000
:BAN00019:  19    0.531595    0.538561  0.00000000
:BAN00020:  20    0.532202    0.541748  0.00000000
        Energy to separate low and high energystates:    0.23272


:NOE  : NUMBER OF ELECTRONS          =   26.000

:FER  : F E R M I - ENERGY(TETRAH.M.)=   0.5206865410
:GMA  : POTENTIAL AND CHARGE CUT-OFF  12.00 Ry**.5

:POS001: ATOM   -1 X,Y,Z = 0.00000 0.89750 0.25000  MULT= 2  ZZ= 59.000  Pr1       

       LMMAX 16
       LM=   0 0  1 0  2 0  2 2  3 0  3 2  4 0  4 2  4 4  5 0  5 2  5 4  6 0  6 2  6 4  6 6

:CHA001: TOTAL VALENCE CHARGE INSIDE SPHERE   1 =   9.5098    (RMT=  2.3000 )
:PCS001: PARTIAL CHARGES SPHERE =  1 S,P,D,F,PX,PY,PZ,D-Z2,D-X2Y2,D-XY,D-XZ,D-YZ 
:QTL001: 1.9384 5.0217 0.4408 2.1087 1.6712 1.6718 1.6788 0.0794 0.0833 0.0988 0.0844 0.0950
        Q-s-low E-s-low   Q-p-low E-p-low   Q-d-low E-d-low   Q-f-low E-f-low
:EPL001:  1.8696 -2.1145    4.9643 -0.7906    0.0008 -0.8141    0.0002 -0.8237
        Q-s-hi  E-s-hi    Q-p-hi  E-p-hi    Q-d-hi  E-d-hi    Q-f-hi  E-f-hi 
:EPH001:  0.0688  0.4209    0.0574  0.4584    0.4401  0.4793    2.1085  0.5105

                      VXX         VYY         VZZ       UP TO R
:VZZ001:            -2.56112     4.31620    -1.75508       2.300

:CHA  : TOTAL VALENCE CHARGE INSIDE UNIT CELL =      26.000000

:SUM  : SUM OF EIGENVALUES =         -13.116871589


        1.ATOM      Pr1                  14 CORE STATES
       CORE-FORCE in mRy/a.u. = |F|      Fx             Fy             Fz
:FCO001:   1.ATOM    190.731263263581      0.000000000000      0.000000000000    190.731263263581

:1S 001: 1S               -3067.053406693 Ry
:2S 001: 2S                -492.819045732 Ry
:2PP001: 2P*               -465.916692675 Ry
:2P 001: 2P                -430.519884879 Ry
:3S 001: 3S                -105.916335993 Ry
:3PP001: 3P*                -94.453770817 Ry
:3P 001: 3P                 -87.446354825 Ry
:3DD001: 3D*                -67.372772392 Ry
:3D 001: 3D                 -65.861339095 Ry
:4S 001: 4S                 -20.600614091 Ry
:4PP001: 4P*                -16.307539890 Ry
:4P 001: 4P                 -14.780427379 Ry
:4DD001: 4D*                 -7.713944996 Ry
:4D 001: 4D                  -7.444646036 Ry
:CINT001 Core Integral Atom   1   45.998484

       DENSITY AT NUCLEUS
        JATOM        VALENCE       SEMI-CORE          CORE           TOTAL
:RTO001:   1      646.351354        0.000000   656821.141720   657467.493074
     
       CHARGES OF NEW CHARGE DENSITY
:NTO   : INTERSTITIAL CHARGE =     6.980378
:NPC   : PW Pseudocharge     =    16.812474
:NTO001: CHARGE SPHERE  1    =    55.508295

:NEC01: NUCLEAR AND ELECTRONIC CHARGE    118.00000   117.99697
     
       CHARGES OF OLD CHARGE DENSITY
:OTO   : INTERSTITIAL CHARGE =     7.035763
:OPC   : PW Pseudocharge     =    15.655204
:OTO001: CHARGE SPHERE  1    =    55.482748

:NEC02: NUCLEAR AND ELECTRONIC CHARGE    118.00000   118.00126
     
       CONVERGENCE TEST
:DTO001: DIFFERENCE IN SPHERE  1 =  0.1202618

:DIS  :  CHARGE DISTANCE       ( 0.1202618 for atom    1 spin 1)      0.1202618
 PW Mixed is          560
 
******************************************************
* MULTISECANT MIXING VER9 RELEASE 10.4.0              *
* Standard Mode with controls                        *
* Fixed density scale                                *
* Regularization       1.000E-04                     *
* Trust Upper Limit    5.000E+00                     *
* Max Number of Memory Steps    8                    *
******************************************************
 
:PWTMP   4.4873E+02  1.9467E+02  5.5066E+02
:PLANE:  PW TOTAL      3.9130 DISTAN   4.71E-01  1.20E+01 %
:CHARG:  CLM/ATOM   1382.0504 DISTAN   7.10E-01  5.14E-02 %
 
Step History
        DMIX         DMIXT        Red     Pred      Trust     Lambda    MagRel    MagAbs     Beta
  1   3.5000E-02   3.5000E-02 -1.00E+00  1.00E+00 -1.00E+01  1.00E+00  3.50E-02  3.50E-02  1.00E+00
:INFO :  Note, Pratt in use
:TRUST:  Step 3.75E-02  Charge 7.50E-02 (e) CTO  2.50E-01 (e) PW  3.50E-01 (e)
:DIRM :  MEMORY  0/ 8 SCALE   1.000
Performing Pseudo Compensation
Final Pseudo Compensation Rescaling     1.00000E+00
:MIX  :   PRATT  REGULARIZATION:  1.00E-04 GREED: 0.02500                  
     
       CHARGES OF MIXED CHARGE DENSITY
:CTO   : INTERSTITIAL CHARGE =     7.033227
:CPC   : PW Pseudocharge     =    16.519340
:CTO001: CHARGE SPHERE  1    =    55.483386

:NEC03: NUCLEAR AND ELECTRONIC CHARGE    118.00000   118.00000

PW CHANGE     H    K    L      Current       Change    Residue
:PTO001:      0    0    0  4.27712141E-02  1.572E-03  2.027E-03
:PTO003:      0    2    0  1.23866721E-02  7.725E-04  1.619E-03
:PTO004:     -1    1    0  6.18504658E-02  4.166E-03  5.759E-03
:PTO005:      0    2   -1 -7.23266828E-02 -4.944E-03 -6.215E-03
:PTO006:      0    0   -2 -3.75418288E-02 -2.566E-03 -2.974E-03
:PTO007:     -1    1   -1 -7.95931895E-02 -5.906E-03 -6.746E-03
:PTO008:      0    2   -2 -1.35100748E-02 -1.229E-03 -1.572E-03
:PTO009:     -1    1   -2 -6.88562326E-02 -6.757E-03 -9.314E-03
:PTO011:     -1    3    0 -1.15264703E-02 -1.334E-03 -1.533E-03
:PTO012:     -1    3   -1 -5.29467312E-02 -6.726E-03 -9.432E-03
:PTO013:      0    4    0 -1.01151452E-02 -1.415E-03 -1.670E-03
:PTO014:      0    2   -3  2.28302137E-02  3.216E-03  4.134E-03

:ENE  : ********** TOTAL ENERGY IN Ry =       -36944.10182640

       TOTAL FORCE IN mRy/a.u. = |F|     Fx             Fy             Fz     with/without FOR in case.in2
:FOR001:   1.ATOM         42.794          0.000          0.000        -42.794 partial forces
       TOTAL FORCE WITH RESPECT TO GLOBAL CARTESIAN COORDINATES:
:FCA001:   1.ATOM                         0.000        -42.794          0.000 partial forces
       TOTAL FORCE WITH RESPECT TO THE GLOBAL COORDINATE SYSTEM:
:FGL001:   1.ATOM                 0.000000000   -42.794455655     0.000000000 partial forces
 Flat Integration
 New Mode for Coulomb Integral
 Consistent 3/8+Simpson combinations
 Extension of core to zero
 LDM version in phi
 Fifth-order quadrature in outwin


            ---------
:ITE002:  2. ITERATION
            ---------

:NATO :    1 INDEPENDENT AND    2 TOTAL ATOMS IN UNITCELL
       SUBSTANCE: aU                                                          

       LATTICE                      = CXY 
:POT  : POTENTIAL OPTION EX_LDA EC_LDA VX_LDA VC_LDA
:LAT  : LATTICE CONSTANTS=  6.76640 13.73073 11.85402    1.571    1.571    1.571
:VOL  : UNIT CELL VOLUME =     550.66398
       MODE OF CALCULATION IS       = RELA
       NON-SPINPOLARIZED CALCULATION
:IFFT  : FFT-parameters:   54  108   96 Factor: 2.00


   CONVERGENCE PARAMETER FOR PSEUDOCHARGE: NCON=  9
   MAXIMAL VALUE OF RMT(JATOM)*ABSK(NKK) : RK  =27.59515


:VKCOUL :  VK-COUL convergence: 0.629E-07
       ATOMNUMBER=  1 Pr1        VCOUL-ZERO = -0.53434E-01
:EFG001:                        EFG         =     0.11497   *10**21  V / m**2
                               V20  TOT/SRF=    -0.05542    -0.02249
                               V22  TOT/SRF=    -0.08297     0.00343
                               V22M TOT/SRF=     0.00000     0.00000
                               V21  TOT/SRF=     0.00000     0.00000
                               V21M TOT/SRF=     0.00000     0.00000

             -0.05097    0.00000    0.00000       -0.05097    0.00000    0.00000
              0.00000    0.11497    0.00000        0.00000    0.11497    0.00000
              0.00000    0.00000   -0.06399        0.00000    0.00000   -0.06399

         MAIN DIRECTIONS OF THE EFG   1.0000  0.0000  0.0000
                                      0.0000  1.0000  0.0000
                                      0.0000  0.0000  1.0000
:ANG001:  ANGLE WITH OLD X-AXIS =         0.0

:ETA001:                         ASYMM. ETA =     0.11328


     HELLMANN-FEYNMAN-FORCE IN mRy/a.u. = |F|  Fx       Fy             Fz
:FHF001:   1.ATOM    240.134590319172      0.000000000000      0.000000000000   -240.134590319172

:FIT001: LUSE= 13 SIGMA OF V-XC FIT FOR ATOM  1  0.1447211E-05
:FIT001: LUSE= 13 SIGMA OF V-XC FIT FOR ATOM  1  0.1447211E-05
:DEN  : DENSITY INTEGRAL  =        -14136.75659938   (Ry)
       ELS_POTENTIAL_AT Z=0 and Z=0.5:   0.64725   0.64725
       ELS_POTENTIAL_AT Y=0 and Y=0.5:   0.07727   0.07727
:VZERO:v0,v0c,v0x   0.10939   0.64725  -0.53786 v5,v5c,v5x   0.10939   0.64725  -0.53786
:VZERY:v0,v0c,v0x  -0.64523   0.07727  -0.72251 v5,v5c,v5x  -0.64523   0.07727  -0.72251
:VZERX:v0,v0c,v0x  -1.05997  -0.36345  -0.69652 v5,v5c,v5x  -1.05997  -0.36345  -0.69652
:LMAX-WF:   10   Non-Spherical LMAX:   4

          ATOMIC SPHERE DEPENDENT PARAMETERS FOR ATOM  Pr1       
:e__0001: OVERALL ENERGY PARAMETER IS    0.3138
          OVERALL BASIS SET ON ATOM IS LAPW
:E0_0001: E( 0)=    0.3138
             APW+lo
:E0_0001: E( 0)=   -2.1546   E(BOTTOM)=   -2.791   E(TOP)=   -1.518  4  5   165
             LOCAL ORBITAL
:E1_0001: E( 1)=    0.7138
             APW+lo
:E1_0001: E( 1)=   -0.6853   E(BOTTOM)=   -1.644   E(TOP)=    0.273  3  4   196
             LOCAL ORBITAL
:E3_0001: E( 3)=    0.5037   E(BOTTOM)=    0.295   E(TOP)=    0.713  0  1   121
             APW+lo
:E2_0001: E( 2)=    0.3138   E(BOTTOM)=    0.097   E(TOP)= -200.000  2 -1    93
             APW+lo

       K=   0.06250   0.00000   0.06250            1
:RKM  : MATRIX SIZE   509LOs:  40  RKM= 8.50  WEIGHT= 4.00  PGR:    
       EIGENVALUES ARE:
:EIG00001:      -2.1198830   -2.1114960   -0.8317146   -0.7786285   -0.7668317
:EIG00006:      -0.7631175   -0.7585977   -0.7582810    0.2892857    0.4357376
:EIG00011:       0.5186512    0.5198501    0.5202400    0.5232576    0.5245402
:EIG00016:       0.5331206    0.5365245    0.5369328    0.5394280    0.5411771
:EIG00021:       0.5444542    0.5467796    0.5475954    0.5505461    0.5875044
:EIG00026:       0.5995111    0.6578685    0.6843246    0.6922265    0.7341185
:EIG00031:       0.7490463    0.8158470    0.8594075    0.8948766    1.1382680
:EIG00036:       1.1880863    1.2765244    1.2794826    1.4195870    1.4713213
:EIG00041:       1.5050970    1.6065695    1.6655937    1.6867460    1.7594135
:EIG00046:       1.8347393    1.8417734    1.8751936    1.9439670
 
       ********************************************************

:KPT   :      NUMBER OF K-POINTS:   288
:GAP (global)   :    0.0    Ry =     0.0   eV (metal)
         Bandranges (emin - emax) and occupancy:
:BAN00005:   5   -0.813932   -0.766832  2.00000000
:BAN00006:   6   -0.802804   -0.760634  2.00000000
:BAN00007:   7   -0.788757   -0.758598  2.00000000
:BAN00008:   8   -0.770521   -0.755978  2.00000000
:BAN00009:   9    0.285030    0.493821  2.00000000
:BAN00010:  10    0.389302    0.506815  2.00000000
:BAN00011:  11    0.476691    0.518651  2.00000000
:BAN00012:  12    0.506766    0.523484  2.00000000
:BAN00013:  13    0.515405    0.530047  1.53418914
:BAN00014:  14    0.519621    0.533644  0.46578380
:BAN00015:  15    0.523817    0.536163  0.00002705
:BAN00016:  16    0.527785    0.536544  0.00000000
:BAN00017:  17    0.530585    0.537819  0.00000000
:BAN00018:  18    0.532191    0.538786  0.00000000
:BAN00019:  19    0.534556    0.541684  0.00000000
:BAN00020:  20    0.535094    0.544937  0.00000000
        Energy to separate low and high energystates:    0.23503


:NOE  : NUMBER OF ELECTRONS          =   26.000

:FER  : F E R M I - ENERGY(TETRAH.M.)=   0.5237793074
:GMA  : POTENTIAL AND CHARGE CUT-OFF  12.00 Ry**.5

:POS001: ATOM   -1 X,Y,Z = 0.00000 0.89750 0.25000  MULT= 2  ZZ= 59.000  Pr1       

       LMMAX 16
       LM=   0 0  1 0  2 0  2 2  3 0  3 2  4 0  4 2  4 4  5 0  5 2  5 4  6 0  6 2  6 4  6 6

:CHA001: TOTAL VALENCE CHARGE INSIDE SPHERE   1 =   9.4966    (RMT=  2.3000 )
:PCS001: PARTIAL CHARGES SPHERE =  1 S,P,D,F,PX,PY,PZ,D-Z2,D-X2Y2,D-XY,D-XZ,D-YZ 
:QTL001: 1.9384 5.0220 0.4441 2.0919 1.6712 1.6719 1.6790 0.0803 0.0835 0.0993 0.0849 0.0961
        Q-s-low E-s-low   Q-p-low E-p-low   Q-d-low E-d-low   Q-f-low E-f-low
:EPL001:  1.8696 -2.1118    4.9640 -0.7880    0.0008 -0.8109    0.0002 -0.8206
        Q-s-hi  E-s-hi    Q-p-hi  E-p-hi    Q-d-hi  E-d-hi    Q-f-hi  E-f-hi 
:EPH001:  0.0688  0.4234    0.0580  0.4612    0.4434  0.4821    2.0917  0.5135

                      VXX         VYY         VZZ       UP TO R
:VZZ001:            -0.69173     3.62813    -2.93640       2.300

:CHA  : TOTAL VALENCE CHARGE INSIDE UNIT CELL =      26.000000

:SUM  : SUM OF EIGENVALUES =         -13.047358287


        1.ATOM      Pr1                  14 CORE STATES
       CORE-FORCE in mRy/a.u. = |F|      Fx             Fy             Fz
:FCO001:   1.ATOM    203.230599807128      0.000000000000      0.000000000000    203.230599807128

:1S 001: 1S               -3067.050677383 Ry
:2S 001: 2S                -492.815868106 Ry
:2PP001: 2P*               -465.913581576 Ry
:2P 001: 2P                -430.516745793 Ry
:3S 001: 3S                -105.912774664 Ry
:3PP001: 3P*                -94.450228538 Ry
:3P 001: 3P                 -87.442797263 Ry
:3DD001: 3D*                -67.369250661 Ry
:3D 001: 3D                 -65.857811430 Ry
:4S 001: 4S                 -20.597131516 Ry
:4PP001: 4P*                -16.304080266 Ry
:4P 001: 4P                 -14.776997711 Ry
:4DD001: 4D*                 -7.710572678 Ry
:4D 001: 4D                  -7.441284085 Ry
:CINT001 Core Integral Atom   1   45.998484

       DENSITY AT NUCLEUS
        JATOM        VALENCE       SEMI-CORE          CORE           TOTAL
:RTO001:   1      646.328713        0.000000   656821.198239   657467.526952
     
       CHARGES OF NEW CHARGE DENSITY
:NTO   : INTERSTITIAL CHARGE =     7.006860
:NPC   : PW Pseudocharge     =    16.816256
:NTO001: CHARGE SPHERE  1    =    55.495053

:NEC01: NUCLEAR AND ELECTRONIC CHARGE    118.00000   117.99697
     
       CHARGES OF OLD CHARGE DENSITY
:OTO   : INTERSTITIAL CHARGE =     7.033227
:OPC   : PW Pseudocharge     =    16.519340
:OTO001: CHARGE SPHERE  1    =    55.483386

:NEC02: NUCLEAR AND ELECTRONIC CHARGE    118.00000   118.00000
     
       CONVERGENCE TEST
:DTO001: DIFFERENCE IN SPHERE  1 =  0.1092900

:DIS  :  CHARGE DISTANCE       ( 0.1092900 for atom    1 spin 1)      0.1092900
 PW Mixed is          560
 
******************************************************
* MULTISECANT MIXING VER9 RELEASE 10.4.0              *
* Slow Mode, cautious                                *
* Fixed density scale                                *
* Regularization       1.000E-04                     *
* Step Trust Radius    0.75000                       *
* Trust Upper Limit    2.000E+00                     *
* Max Number of Memory Steps   12                    *
******************************************************
 
:PWTMP   4.4873E+02  1.9467E+02  5.5066E+02
:PLANE:  PW TOTAL      4.2271 DISTAN   1.13E-01  2.68E+00 %
:CHARG:  CLM/ATOM   1382.0474 DISTAN   6.74E-01  4.88E-02 %
 
Step History
        DMIX         DMIXT        Red     Pred      Trust     Lambda    MagRel    MagAbs     Beta
  1   3.5000E-02   3.5000E-02 -1.00E+00  1.00E+00 -1.00E+01  1.00E+00  3.50E-02  3.50E-02  1.00E+00
  2   2.5000E-02   2.5000E-02 -1.00E+00  1.00E+00 -1.00E+01  1.00E+00  2.50E-02  2.13E-02  1.00E+00
:JACOBIANS    4.773E-01   2.731E-03
  
:TRUST:  Step 2.83E-02  Charge 7.50E-02 (e) CTO  2.50E-01 (e) PW  3.50E-01 (e)
:DIRM :  MEMORY  1/12 SCALE   1.000
:MIX  :   PRATT  REGULARIZATION:  1.00E-04 GREED: 0.02827  Expand 1.13  0.0283                
     
       CHARGES OF MIXED CHARGE DENSITY
:CTO   : INTERSTITIAL CHARGE =     7.032804
:CPC   : PW Pseudocharge     =    16.806668
:CTO001: CHARGE SPHERE  1    =    55.483598

:NEC03: NUCLEAR AND ELECTRONIC CHARGE    118.00000   118.00000

PW CHANGE     H    K    L      Current       Change    Residue
:PTO001:      0    0    0  4.32922294E-02  5.210E-04  5.100E-04
:PTO003:      0    2    0  1.26427106E-02  2.560E-04  7.864E-04
:PTO004:     -1    1    0  6.32312970E-02  1.381E-03  1.532E-03
:PTO005:      0    2   -1 -7.39654265E-02 -1.639E-03 -1.258E-03
:PTO006:      0    0   -2 -3.83921184E-02 -8.503E-04 -4.399E-04
:PTO007:     -1    1   -1 -8.15505783E-02 -1.957E-03 -8.575E-04
:PTO008:      0    2   -2 -1.39174439E-02 -4.074E-04 -3.296E-04
:PTO009:     -1    1   -2 -7.10956943E-02 -2.239E-03 -2.581E-03
:PTO011:     -1    3    0 -1.19687153E-02 -4.422E-04 -2.346E-04
:PTO012:     -1    3   -1 -5.51758393E-02 -2.229E-03 -2.646E-03
:PTO013:      0    4    0 -1.05840073E-02 -4.689E-04 -2.499E-04
:PTO014:      0    2   -3  2.38962143E-02  1.066E-03  9.333E-04

:ENE  : ********** TOTAL ENERGY IN Ry =       -36944.10138489

       TOTAL FORCE IN mRy/a.u. = |F|     Fx             Fy             Fz     with/without FOR in case.in2
:FOR001:   1.ATOM         36.904          0.000          0.000        -36.904 partial forces
       TOTAL FORCE WITH RESPECT TO GLOBAL CARTESIAN COORDINATES:
:FCA001:   1.ATOM                         0.000        -36.904          0.000 partial forces
       TOTAL FORCE WITH RESPECT TO THE GLOBAL COORDINATE SYSTEM:
:FGL001:   1.ATOM                 0.000000000   -36.903990512     0.000000000 partial forces
 Flat Integration
 New Mode for Coulomb Integral
 Consistent 3/8+Simpson combinations
 Extension of core to zero
 LDM version in phi
 Fifth-order quadrature in outwin


            ---------
:ITE003:  3. ITERATION
            ---------

:NATO :    1 INDEPENDENT AND    2 TOTAL ATOMS IN UNITCELL
       SUBSTANCE: aU                                                          

       LATTICE                      = CXY 
:POT  : POTENTIAL OPTION EX_LDA EC_LDA VX_LDA VC_LDA
:LAT  : LATTICE CONSTANTS=  6.76640 13.73073 11.85402    1.571    1.571    1.571
:VOL  : UNIT CELL VOLUME =     550.66398
       MODE OF CALCULATION IS       = RELA
       NON-SPINPOLARIZED CALCULATION
:IFFT  : FFT-parameters:   54  108   96 Factor: 2.00


   CONVERGENCE PARAMETER FOR PSEUDOCHARGE: NCON=  9
   MAXIMAL VALUE OF RMT(JATOM)*ABSK(NKK) : RK  =27.59515


:VKCOUL :  VK-COUL convergence: 0.644E-07
       ATOMNUMBER=  1 Pr1        VCOUL-ZERO = -0.52648E-01
:EFG001:                        EFG         =     0.15079   *10**21  V / m**2
                               V20  TOT/SRF=    -0.06795    -0.02225
                               V22  TOT/SRF=    -0.11156     0.00320
                               V22M TOT/SRF=     0.00000     0.00000
                               V21  TOT/SRF=     0.00000     0.00000
                               V21M TOT/SRF=     0.00000     0.00000

             -0.07233    0.00000    0.00000       -0.07233    0.00000    0.00000
              0.00000    0.15079    0.00000        0.00000    0.15079    0.00000
              0.00000    0.00000   -0.07846        0.00000    0.00000   -0.07846

         MAIN DIRECTIONS OF THE EFG   1.0000  0.0000  0.0000
                                      0.0000  1.0000  0.0000
                                      0.0000  0.0000  1.0000
:ANG001:  ANGLE WITH OLD X-AXIS =         0.0

:ETA001:                         ASYMM. ETA =     0.04063


     HELLMANN-FEYNMAN-FORCE IN mRy/a.u. = |F|  Fx       Fy             Fz
:FHF001:   1.ATOM    242.314068379336      0.000000000000      0.000000000000   -242.314068379336

:FIT001: LUSE= 13 SIGMA OF V-XC FIT FOR ATOM  1  0.1447547E-05
:FIT001: LUSE= 13 SIGMA OF V-XC FIT FOR ATOM  1  0.1447547E-05
:DEN  : DENSITY INTEGRAL  =        -14136.88189804   (Ry)
       ELS_POTENTIAL_AT Z=0 and Z=0.5:   0.64808   0.64808
       ELS_POTENTIAL_AT Y=0 and Y=0.5:   0.07828   0.07828
:VZERO:v0,v0c,v0x   0.11021   0.64808  -0.53787 v5,v5c,v5x   0.11021   0.64808  -0.53787
:VZERY:v0,v0c,v0x  -0.64448   0.07828  -0.72276 v5,v5c,v5x  -0.64448   0.07828  -0.72276
:VZERX:v0,v0c,v0x  -1.06281  -0.36489  -0.69791 v5,v5c,v5x  -1.06281  -0.36489  -0.69791
:LMAX-WF:   10   Non-Spherical LMAX:   4

          ATOMIC SPHERE DEPENDENT PARAMETERS FOR ATOM  Pr1       
:e__0001: OVERALL ENERGY PARAMETER IS    0.3204
          OVERALL BASIS SET ON ATOM IS LAPW
:E0_0001: E( 0)=    0.3204
             APW+lo
:E0_0001: E( 0)=   -2.1537   E(BOTTOM)=   -2.790   E(TOP)=   -1.517  4  5   165
             LOCAL ORBITAL
:E1_0001: E( 1)=    0.7204
             APW+lo
:E1_0001: E( 1)=   -0.6844   E(BOTTOM)=   -1.643   E(TOP)=    0.274  3  4   193
             LOCAL ORBITAL
:E3_0001: E( 3)=    0.5047   E(BOTTOM)=    0.296   E(TOP)=    0.714  0  1   124
             APW+lo
:E2_0001: E( 2)=    0.3204   E(BOTTOM)=    0.098   E(TOP)= -200.000  2 -1   100
             APW+lo

       K=   0.06250   0.00000   0.06250            1
:RKM  : MATRIX SIZE   509LOs:  40  RKM= 8.50  WEIGHT= 4.00  PGR:    
       EIGENVALUES ARE:
:EIG00001:      -2.1189832   -2.1105977   -0.8307495   -0.7778332   -0.7660358
:EIG00006:      -0.7622695   -0.7576341   -0.7574360    0.2900737    0.4365212
:EIG00011:       0.5196488    0.5209244    0.5213214    0.5241749    0.5255505
:EIG00016:       0.5341820    0.5376144    0.5379538    0.5404532    0.5421911
:EIG00021:       0.5454889    0.5477491    0.5484895    0.5516411    0.5883519
:EIG00026:       0.6003129    0.6587101    0.6851192    0.6930936    0.7348888
:EIG00031:       0.7498226    0.8167045    0.8602525    0.8957287    1.1391077
:EIG00036:       1.1888597    1.2772881    1.2802667    1.4203676    1.4721621
:EIG00041:       1.5059201    1.6074030    1.6663515    1.6875704    1.7601995
:EIG00046:       1.8355381    1.8425682    1.8759601    1.9447503    2.0176677
 
       ********************************************************

:KPT   :      NUMBER OF K-POINTS:   288
:GAP (global)   :    0.0    Ry =     0.0   eV (metal)
         Bandranges (emin - emax) and occupancy:
:BAN00004:   4   -0.819665   -0.777833  2.00000000
:BAN00005:   5   -0.813094   -0.766036  2.00000000
:BAN00006:   6   -0.801942   -0.759786  2.00000000
:BAN00007:   7   -0.787954   -0.757634  2.00000000
:BAN00008:   8   -0.769657   -0.755133  2.00000000
:BAN00009:   9    0.285818    0.494701  2.00000000
:BAN00010:  10    0.390086    0.507761  2.00000000
:BAN00011:  11    0.477534    0.519649  2.00000000
:BAN00012:  12    0.507702    0.524466  2.00000000
:BAN00013:  13    0.516307    0.531110  1.53340884
:BAN00014:  14    0.520672    0.534694  0.46659116
:BAN00015:  15    0.524875    0.537153  0.00000000
:BAN00016:  16    0.528810    0.537530  0.00000000
:BAN00017:  17    0.531650    0.538818  0.00000000
:BAN00018:  18    0.533247    0.539838  0.00000000
:BAN00019:  19    0.535535    0.542715  0.00000000
        Energy to separate low and high energystates:    0.23582


:NOE  : NUMBER OF ELECTRONS          =   26.000

:FER  : F E R M I - ENERGY(TETRAH.M.)=   0.5247950371
:GMA  : POTENTIAL AND CHARGE CUT-OFF  12.00 Ry**.5

:POS001: ATOM   -1 X,Y,Z = 0.00000 0.89750 0.25000  MULT= 2  ZZ= 59.000  Pr1       

       LMMAX 16
       LM=   0 0  1 0  2 0  2 2  3 0  3 2  4 0  4 2  4 4  5 0  5 2  5 4  6 0  6 2  6 4  6 6

:CHA001: TOTAL VALENCE CHARGE INSIDE SPHERE   1 =   9.4926    (RMT=  2.3000 )
:PCS001: PARTIAL CHARGES SPHERE =  1 S,P,D,F,PX,PY,PZ,D-Z2,D-X2Y2,D-XY,D-XZ,D-YZ 
:QTL001: 1.9385 5.0221 0.4451 2.0868 1.6711 1.6719 1.6790 0.0805 0.0835 0.0995 0.0851 0.0965
        Q-s-low E-s-low   Q-p-low E-p-low   Q-d-low E-d-low   Q-f-low E-f-low
:EPL001:  1.8696 -2.1109    4.9639 -0.7871    0.0008 -0.8098    0.0002 -0.8196
        Q-s-hi  E-s-hi    Q-p-hi  E-p-hi    Q-d-hi  E-d-hi    Q-f-hi  E-f-hi 
:EPH001:  0.0689  0.4242    0.0581  0.4622    0.4444  0.4830    2.0866  0.5145

                      VXX         VYY         VZZ       UP TO R
:VZZ001:            -0.08712     3.40706    -3.31994       2.300

:CHA  : TOTAL VALENCE CHARGE INSIDE UNIT CELL =      26.000000

:SUM  : SUM OF EIGENVALUES =         -13.024277386


        1.ATOM      Pr1                  14 CORE STATES
       CORE-FORCE in mRy/a.u. = |F|      Fx             Fy             Fz
:FCO001:   1.ATOM    207.364718001483      0.000000000000      0.000000000000    207.364718001483

:1S 001: 1S               -3067.049781105 Ry
:2S 001: 2S                -492.814823243 Ry
:2PP001: 2P*               -465.912558762 Ry
:2P 001: 2P                -430.515713703 Ry
:3S 001: 3S                -105.911602628 Ry
:3PP001: 3P*                -94.449062816 Ry
:3P 001: 3P                 -87.441626475 Ry
:3DD001: 3D*                -67.368091749 Ry
:3D 001: 3D                 -65.856650552 Ry
:4S 001: 4S                 -20.595985569 Ry
:4PP001: 4P*                -16.302941925 Ry
:4P 001: 4P                 -14.775869299 Ry
:4DD001: 4D*                 -7.709463273 Ry
:4D 001: 4D                  -7.440178116 Ry
:CINT001 Core Integral Atom   1   45.998483

       DENSITY AT NUCLEUS
        JATOM        VALENCE       SEMI-CORE          CORE           TOTAL
:RTO001:   1      646.320966        0.000000   656821.216973   657467.537939
     
       CHARGES OF NEW CHARGE DENSITY
:NTO   : INTERSTITIAL CHARGE =     7.014827
:NPC   : PW Pseudocharge     =    16.817433
:NTO001: CHARGE SPHERE  1    =    55.491069

:NEC01: NUCLEAR AND ELECTRONIC CHARGE    118.00000   117.99697
     
       CHARGES OF OLD CHARGE DENSITY
:OTO   : INTERSTITIAL CHARGE =     7.032804
:OPC   : PW Pseudocharge     =    16.806668
:OTO001: CHARGE SPHERE  1    =    55.483598

:NEC02: NUCLEAR AND ELECTRONIC CHARGE    118.00000   118.00000
     
       CONVERGENCE TEST
:DTO001: DIFFERENCE IN SPHERE  1 =  0.1065476

:DIS  :  CHARGE DISTANCE       ( 0.1065476 for atom    1 spin 1)      0.1065476
 PW Mixed is          560
 
******************************************************
* MULTISECANT MIXING VER9 RELEASE 10.4.0              *
* Slow Mode, cautious                                *
* Fixed density scale                                *
* Regularization       1.000E-04                     *
* Step Trust Radius    0.75000                       *
* Trust Upper Limit    2.000E+00                     *
* Max Number of Memory Steps   12                    *
******************************************************
 
:PWTMP   4.4873E+02  1.9467E+02  5.5066E+02
:PLANE:  PW TOTAL      4.3338 DISTAN   9.60E-02  2.22E+00 %
:CHARG:  CLM/ATOM   1382.0464 DISTAN   6.63E-01  4.80E-02 %
 
Step History
        DMIX         DMIXT        Red     Pred      Trust     Lambda    MagRel    MagAbs     Beta
  1   3.5000E-02   3.5000E-02 -1.00E+00  1.00E+00 -1.00E+01  1.00E+00  3.50E-02  3.50E-02  1.00E+00
  2   2.5000E-02   2.5000E-02  8.02E-01  1.00E+00 -1.00E+01  1.00E+00  2.50E-02  2.13E-02  1.00E+00
  3   2.8271E-02   2.8271E-02 -1.00E+00  1.00E+00 -1.00E+01  1.00E+00  2.83E-02  1.93E-02  1.00E+00
:JACOBIANS    7.175E-01   3.821E-03
  
:NORMS:  1/Froebius, Min, Max, Used   0.9790E+00  0.4888E+00  0.9790E+00  0.9790E+00
:INFO :  Number of Memory Steps    2 Skipping    0
:INFO :  SLambda=    0.1588647412  Max    0.1588647412
:PREDicted Charge, CTotal, PW Trust    2.208E-04   4.415E-04   1.058E-01
:PREDicted DMix, Beta, BLim   3.0071E-02  9.9736E-01  2.3018E-01

Eigenvalues, unscaled except for SY+YY
   #     SY Real        SY Imag          SS             YY         SY+YY Real      SY+YY Imag
   1  -3.996803E-15   0.000000E+00   1.916921E+00   1.999947E+00   5.359771E-05   0.000000E+00
   2   1.922785E+00   0.000000E+00   1.110223E-16   5.347870E-05   2.305409E+00   0.000000E+00
 
:INFO :  Singular value  2.305E+00 Weight  1.000E+00 Projection  2.299E-04
:INFO :  Singular value  5.360E-05 Weight  6.701E-02 Projection  2.601E+00
:RANK :  ACTIVE   1.07/2  =  53.35 % ; YY RANK   1.07/2  =  53.34 %
 
:DLIM :  Beta Active  9.980E-01
:BLIM :  VZERO Control Off
:TRUST:  Step 1.85E-01  Charge 7.50E-02 (e) CTO  2.50E-01 (e) PW  3.50E-01 (e)
:DIRM :  MEMORY  2/12 SCALE   1.000 RED  0.98 PRED  1.00 NEXT  0.99 BETA  1.00
:TRAVE:  Charge 3.49E-04 (e) CTO  6.98E-04 (e) PW  1.39E-03 (e)
:DIRP :  |MSR1|= 2.444E-03 |PRATT|= 9.602E-02 ANGLE=  40.1 DEGREES
:DIRQ :  |MSR1|= 1.948E-02 |PRATT|= 6.630E-01 ANGLE=   1.5 DEGREES
:DIRT :  |MSR1|= 1.963E-02 |PRATT|= 6.699E-01 ANGLE=   5.6 DEGREES
:MIX  :   MSD1   REGULARIZATION:  2.00E-04 GREED: 0.02960  Newton 1.00  0.0293                
     
       CHARGES OF MIXED CHARGE DENSITY
:CTO   : INTERSTITIAL CHARGE =     7.032106
:CPC   : PW Pseudocharge     =    16.811302
:CTO001: CHARGE SPHERE  1    =    55.483947

:NEC03: NUCLEAR AND ELECTRONIC CHARGE    118.00000   118.00000

PW CHANGE     H    K    L      Current       Change    Residue
:PTO001:      0    0    0  4.32993775E-02  7.148E-06  5.622E-06
:PTO003:      0    2    0  1.26617674E-02  1.906E-05  5.111E-04
:PTO004:     -1    1    0  6.32552273E-02  2.393E-05  1.317E-04
:PTO005:      0    2   -1 -7.39779980E-02 -1.257E-05  3.837E-04
:PTO006:      0    0   -2 -3.83925106E-02 -3.922E-07  4.000E-04
:PTO007:     -1    1   -1 -8.15463938E-02  4.184E-06  1.094E-03
:PTO008:      0    2   -2 -1.39208573E-02 -3.413E-06  8.229E-05
:PTO009:     -1    1   -2 -7.11382219E-02 -4.253E-05 -3.494E-04
:PTO011:     -1    3    0 -1.19690125E-02 -2.972E-07  1.965E-04
:PTO012:     -1    3   -1 -5.52199543E-02 -4.411E-05 -3.984E-04
:PTO013:      0    4    0 -1.05842576E-02 -2.503E-07  2.207E-04
:PTO014:      0    2   -3  2.39078738E-02  1.166E-05 -1.271E-04

:ENE  : ********** TOTAL ENERGY IN Ry =       -36944.10125963

       TOTAL FORCE IN mRy/a.u. = |F|     Fx             Fy             Fz     with/without FOR in case.in2
:FOR001:   1.ATOM         34.949          0.000          0.000        -34.949 partial forces
       TOTAL FORCE WITH RESPECT TO GLOBAL CARTESIAN COORDINATES:
:FCA001:   1.ATOM                         0.000        -34.949          0.000 partial forces
       TOTAL FORCE WITH RESPECT TO THE GLOBAL COORDINATE SYSTEM:
:FGL001:   1.ATOM                 0.000000000   -34.949350378     0.000000000 partial forces
 Flat Integration
 New Mode for Coulomb Integral
 Consistent 3/8+Simpson combinations
 Extension of core to zero
 LDM version in phi
 Fifth-order quadrature in outwin


            ---------
:ITE004:  4. ITERATION
            ---------

:NATO :    1 INDEPENDENT AND    2 TOTAL ATOMS IN UNITCELL
       SUBSTANCE: aU                                                          

       LATTICE                      = CXY 
:POT  : POTENTIAL OPTION EX_LDA EC_LDA VX_LDA VC_LDA
:LAT  : LATTICE CONSTANTS=  6.76640 13.73073 11.85402    1.571    1.571    1.571
:VOL  : UNIT CELL VOLUME =     550.66398
       MODE OF CALCULATION IS       = RELA
       NON-SPINPOLARIZED CALCULATION
:IFFT  : FFT-parameters:   54  108   96 Factor: 2.00


   CONVERGENCE PARAMETER FOR PSEUDOCHARGE: NCON=  9
   MAXIMAL VALUE OF RMT(JATOM)*ABSK(NKK) : RK  =27.59515


:VKCOUL :  VK-COUL convergence: 0.668E-07
       ATOMNUMBER=  1 Pr1        VCOUL-ZERO = -0.52658E-01
:EFG001:                        EFG         =     0.25017   *10**21  V / m**2
                               V20  TOT/SRF=    -0.14954    -0.02159
                               V22  TOT/SRF=    -0.16383     0.00265
                               V22M TOT/SRF=     0.00000     0.00000
                               V21  TOT/SRF=     0.00000     0.00000
                               V21M TOT/SRF=     0.00000     0.00000

             -0.07749    0.00000    0.00000       -0.07749    0.00000    0.00000
              0.00000    0.25017    0.00000        0.00000    0.25017    0.00000
              0.00000    0.00000   -0.17268        0.00000    0.00000   -0.17268

         MAIN DIRECTIONS OF THE EFG   1.0000  0.0000  0.0000
                                      0.0000  1.0000  0.0000
                                      0.0000  0.0000  1.0000
:ANG001:  ANGLE WITH OLD X-AXIS =         0.0

:ETA001:                         ASYMM. ETA =     0.38048


     HELLMANN-FEYNMAN-FORCE IN mRy/a.u. = |F|  Fx       Fy             Fz
:FHF001:   1.ATOM    252.737769038397      0.000000000000      0.000000000000   -252.737769038397

:FIT001: LUSE= 13 SIGMA OF V-XC FIT FOR ATOM  1  0.1538394E-05
:FIT001: LUSE= 13 SIGMA OF V-XC FIT FOR ATOM  1  0.1538394E-05
:DEN  : DENSITY INTEGRAL  =        -14136.92009437   (Ry)
       ELS_POTENTIAL_AT Z=0 and Z=0.5:   0.64832   0.64832
       ELS_POTENTIAL_AT Y=0 and Y=0.5:   0.07897   0.07897
:VZERO:v0,v0c,v0x   0.11037   0.64832  -0.53796 v5,v5c,v5x   0.11037   0.64832  -0.53796
:VZERY:v0,v0c,v0x  -0.64392   0.07897  -0.72290 v5,v5c,v5x  -0.64392   0.07897  -0.72290
:VZERX:v0,v0c,v0x  -1.06289  -0.36490  -0.69799 v5,v5c,v5x  -1.06289  -0.36490  -0.69799
:LMAX-WF:   10   Non-Spherical LMAX:   4

          ATOMIC SPHERE DEPENDENT PARAMETERS FOR ATOM  Pr1       
:e__0001: OVERALL ENERGY PARAMETER IS    0.3233
          OVERALL BASIS SET ON ATOM IS LAPW
:E0_0001: E( 0)=    0.3233
             APW+lo
:E0_0001: E( 0)=   -2.1536   E(BOTTOM)=   -2.790   E(TOP)=   -1.517  4  5   169
             LOCAL ORBITAL
:E1_0001: E( 1)=    0.7233
             APW+lo
:E1_0001: E( 1)=   -0.6843   E(BOTTOM)=   -1.643   E(TOP)=    0.274  3  4   197
             LOCAL ORBITAL
:E3_0001: E( 3)=    0.5051   E(BOTTOM)=    0.296   E(TOP)=    0.714  0  1   122
             APW+lo
:E2_0001: E( 2)=    0.3233   E(BOTTOM)=    0.098   E(TOP)= -200.000  2 -1    97
             APW+lo

       K=   0.06250   0.00000   0.06250            1
:RKM  : MATRIX SIZE   509LOs:  40  RKM= 8.50  WEIGHT= 4.00  PGR:    
       EIGENVALUES ARE:
:EIG00001:      -2.1188347   -2.1104558   -0.8304019   -0.7779167   -0.7661177
:EIG00006:      -0.7622005   -0.7573767   -0.7573145    0.2901202    0.4365269
:EIG00011:       0.5200334    0.5214450    0.5218464    0.5243341    0.5259254
:EIG00016:       0.5346586    0.5381372    0.5383152    0.5408218    0.5425254
:EIG00021:       0.5458274    0.5480698    0.5485633    0.5521765    0.5884523
:EIG00026:       0.6003542    0.6588378    0.6851232    0.6932932    0.7348388
:EIG00031:       0.7497861    0.8168677    0.8603689    0.8958593    1.1392250
:EIG00036:       1.1888481    1.2772549    1.2802788    1.4203758    1.4723553
:EIG00041:       1.5060519    1.6075639    1.6662939    1.6877123    1.7602408
:EIG00046:       1.8356178    1.8426383    1.8759368    1.9448048    2.0178045
 
       ********************************************************

:KPT   :      NUMBER OF K-POINTS:   288
:GAP (global)   :    0.0    Ry =     0.0   eV (metal)
         Bandranges (emin - emax) and occupancy:
:BAN00004:   4   -0.819606   -0.777917  2.00000000
:BAN00005:   5   -0.813039   -0.766118  2.00000000
:BAN00006:   6   -0.801857   -0.759718  2.00000000
:BAN00007:   7   -0.788011   -0.757377  2.00000000
:BAN00008:   8   -0.769525   -0.755073  2.00000000
:BAN00009:   9    0.285864    0.494933  2.00000000
:BAN00010:  10    0.390112    0.508076  2.00000000
:BAN00011:  11    0.477680    0.520033  2.00000000
:BAN00012:  12    0.507997    0.524746  2.00000000
:BAN00013:  13    0.516463    0.531587  1.53202146
:BAN00014:  14    0.521154    0.535145  0.46797853
:BAN00015:  15    0.525375    0.537435  0.00000000
:BAN00016:  16    0.529083    0.537838  0.00000000
:BAN00017:  17    0.532154    0.539158  0.00000000
:BAN00018:  18    0.533608    0.540272  0.00000000
:BAN00019:  19    0.535825    0.543094  0.00000000
        Energy to separate low and high energystates:    0.23586


:NOE  : NUMBER OF ELECTRONS          =   26.000

:FER  : F E R M I - ENERGY(TETRAH.M.)=   0.5251744957
:GMA  : POTENTIAL AND CHARGE CUT-OFF  12.00 Ry**.5

:POS001: ATOM   -1 X,Y,Z = 0.00000 0.89750 0.25000  MULT= 2  ZZ= 59.000  Pr1       

       LMMAX 16
       LM=   0 0  1 0  2 0  2 2  3 0  3 2  4 0  4 2  4 4  5 0  5 2  5 4  6 0  6 2  6 4  6 6

:CHA001: TOTAL VALENCE CHARGE INSIDE SPHERE   1 =   9.4864    (RMT=  2.3000 )
:PCS001: PARTIAL CHARGES SPHERE =  1 S,P,D,F,PX,PY,PZ,D-Z2,D-X2Y2,D-XY,D-XZ,D-YZ 
:QTL001: 1.9385 5.0223 0.4465 2.0790 1.6712 1.6720 1.6792 0.0810 0.0834 0.0997 0.0853 0.0971
        Q-s-low E-s-low   Q-p-low E-p-low   Q-d-low E-d-low   Q-f-low E-f-low
:EPL001:  1.8696 -2.1107    4.9639 -0.7870    0.0008 -0.8093    0.0002 -0.8190
        Q-s-hi  E-s-hi    Q-p-hi  E-p-hi    Q-d-hi  E-d-hi    Q-f-hi  E-f-hi 
:EPH001:  0.0689  0.4243    0.0584  0.4626    0.4457  0.4832    2.0788  0.5149

                      VXX         VYY         VZZ       UP TO R
:VZZ001:             1.24581     2.98028    -4.22608       2.300

:CHA  : TOTAL VALENCE CHARGE INSIDE UNIT CELL =      26.000000

:SUM  : SUM OF EIGENVALUES =         -13.020192112


        1.ATOM      Pr1                  14 CORE STATES
       CORE-FORCE in mRy/a.u. = |F|      Fx             Fy             Fz
:FCO001:   1.ATOM    223.686503266713      0.000000000000      0.000000000000    223.686503266713

:1S 001: 1S               -3067.050256896 Ry
:2S 001: 2S                -492.814784769 Ry
:2PP001: 2P*               -465.912596636 Ry
:2P 001: 2P                -430.515719433 Ry
:3S 001: 3S                -105.911101018 Ry
:3PP001: 3P*                -94.448585056 Ry
:3P 001: 3P                 -87.441127677 Ry
:3DD001: 3D*                -67.367640695 Ry
:3D 001: 3D                 -65.856191799 Ry
:4S 001: 4S                 -20.595398420 Ry
:4PP001: 4P*                -16.302370284 Ry
:4P 001: 4P                 -14.775315199 Ry
:4DD001: 4D*                 -7.708945220 Ry
:4D 001: 4D                  -7.439666214 Ry
:CINT001 Core Integral Atom   1   45.998483

       DENSITY AT NUCLEUS
        JATOM        VALENCE       SEMI-CORE          CORE           TOTAL
:RTO001:   1      646.303974        0.000000   656821.318343   657467.622316
     
       CHARGES OF NEW CHARGE DENSITY
:NTO   : INTERSTITIAL CHARGE =     7.027158
:NPC   : PW Pseudocharge     =    16.819339
:NTO001: CHARGE SPHERE  1    =    55.484903

:NEC01: NUCLEAR AND ELECTRONIC CHARGE    118.00000   117.99697
     
       CHARGES OF OLD CHARGE DENSITY
:OTO   : INTERSTITIAL CHARGE =     7.032106
:OPC   : PW Pseudocharge     =    16.811302
:OTO001: CHARGE SPHERE  1    =    55.483947

:NEC02: NUCLEAR AND ELECTRONIC CHARGE    118.00000   118.00000
     
       CONVERGENCE TEST
:DTO001: DIFFERENCE IN SPHERE  1 =  0.1011038

:DIS  :  CHARGE DISTANCE       ( 0.1011038 for atom    1 spin 1)      0.1011038
 PW Mixed is          560
 
******************************************************
* MULTISECANT MIXING VER9 RELEASE 10.4.0              *
* Slow Mode, cautious                                *
* Fixed density scale                                *
* Regularization       1.000E-04                     *
* Step Trust Radius    0.75000                       *
* Trust Upper Limit    2.000E+00                     *
* Max Number of Memory Steps   12                    *
******************************************************
 
:PWTMP   4.4873E+02  1.9467E+02  5.5066E+02
:PLANE:  PW TOTAL      4.3347 DISTAN   9.36E-02  2.16E+00 %
:CHARG:  CLM/ATOM   1382.0429 DISTAN   6.34E-01  4.59E-02 %
 
Step History
        DMIX         DMIXT        Red     Pred      Trust     Lambda    MagRel    MagAbs     Beta
  1   3.5000E-02   3.5000E-02 -1.00E+00  1.00E+00 -1.00E+01  1.00E+00  3.50E-02  3.50E-02  1.00E+00
  2   2.5000E-02   2.5000E-02  8.02E-01  1.00E+00 -1.00E+01  1.00E+00  2.50E-02  2.13E-02  1.00E+00
  3   2.8271E-02   2.8271E-02  9.80E-01  1.00E+00 -1.00E+01  1.59E-01  2.83E-02  1.93E-02  1.00E+00
  4   2.9603E-02   2.9603E-02 -1.00E+00  9.88E-01  1.85E-01  1.00E+00  2.93E-02  1.96E-02  9.98E-01
:JACOBIANS    8.586E-01   8.880E-02
  
:NORMS:  1/Froebius, Min, Max, Used   0.7569E+00  0.4210E+00  0.9994E+00  0.8427E+00
:INFO :  Number of Memory Steps    3 Skipping    0
:INFO :  SLambda=    1.4193197698  Max    1.4193197698
:PREDicted Charge, CTotal, PW Trust    3.053E-03   6.107E-03   4.162E-02
:PREDicted DMix, Beta, BLim   1.9248E-01  4.5105E+00  2.8624E-01

Eigenvalues, unscaled except for SY+YY
   #     SY Real        SY Imag          SS             YY         SY+YY Real      SY+YY Imag
   1   1.641616E+00   0.000000E+00   1.613083E+00   2.271482E+00   4.459807E+00   0.000000E+00
   2  -5.745185E-15   0.000000E+00   1.056308E-01   7.284823E-01   3.893300E-05   0.000000E+00
   3   1.725914E-01   0.000000E+00  -5.973478E-17   3.521141E-05   1.115094E+00   0.000000E+00
 
:INFO :  Singular value  4.460E+00 Weight  1.000E+00 Projection -6.265E-02
:INFO :  Singular value  1.115E+00 Weight  1.000E+00 Projection -4.801E-01
:INFO :  Singular value  3.893E-05 Weight  2.854E-02 Projection -2.303E+00
:RANK :  ACTIVE   2.03/3  =  67.62 % ; YY RANK   2.02/3  =  67.45 %
 
:BLIM :  VZERO Control Off
:TRUST:  Step 1.85E-01  Charge 7.50E-02 (e) CTO  2.50E-01 (e) PW  3.50E-01 (e)
:DTRUS:  Lambda    1.688E+00 Increment    7.276E-12 Iterations   110 DMIX    4.536E-02
:INFOA:  Angle SubSpace to MSR1     14.42
:DIRM :  MEMORY  3/12 SCALE   1.000 RED  0.96 PRED  0.99 NEXT  0.88 
:INFO :  Limited by Atoms F by Step T

:TRAVE:  Charge 2.97E-04 (e) CTO  5.93E-04 (e) PW  1.32E-03 (e)
:DIRP :  |MSR1|= 1.760E-02 |PRATT|= 9.359E-02 ANGLE=   1.8 DEGREES
:DIRQ :  |MSR1|= 1.175E-01 |PRATT|= 6.338E-01 ANGLE=   4.1 DEGREES
:DIRT :  |MSR1|= 1.188E-01 |PRATT|= 6.407E-01 ANGLE=   4.1 DEGREES
:MIX  :   MSE1   REGULARIZATION:  2.27E-04 GREED: 0.07401  LMStep 0.62  0.1854 Step           
     
       CHARGES OF MIXED CHARGE DENSITY
:CTO   : INTERSTITIAL CHARGE =     7.032594
:CPC   : PW Pseudocharge     =    16.814351
:CTO001: CHARGE SPHERE  1    =    55.483703

:NEC03: NUCLEAR AND ELECTRONIC CHARGE    118.00000   118.00000

PW CHANGE     H    K    L      Current       Change    Residue
:PTO001:      0    0    0  4.33058010E-02  6.423E-06  2.431E-05
:PTO003:      0    2    0  1.27348175E-02  7.305E-05  4.361E-04
:PTO004:     -1    1    0  6.32576850E-02  2.458E-06  5.926E-05
:PTO005:      0    2   -1 -7.39046121E-02  7.339E-05  3.969E-04
:PTO006:      0    0   -2 -3.83262420E-02  6.627E-05  3.751E-04
:PTO007:     -1    1   -1 -8.13513571E-02  1.950E-04  1.060E-03
:PTO008:      0    2   -2 -1.38982501E-02  2.261E-05  1.016E-04
:PTO009:     -1    1   -2 -7.12062530E-02 -6.803E-05 -3.327E-04
:PTO011:     -1    3    0 -1.19429917E-02  2.602E-05  1.638E-04
:PTO012:     -1    3   -1 -5.52719174E-02 -5.196E-05 -3.113E-04
:PTO013:      0    4    0 -1.05420949E-02  4.216E-05  2.220E-04
:PTO014:      0    2   -3  2.38875062E-02 -2.037E-05 -1.245E-04

:ENE  : ********** TOTAL ENERGY IN Ry =       -36944.10094075

       TOTAL FORCE IN mRy/a.u. = |F|     Fx             Fy             Fz     with/without FOR in case.in2
:FOR001:   1.ATOM         29.051          0.000          0.000        -29.051 partial forces
       TOTAL FORCE WITH RESPECT TO GLOBAL CARTESIAN COORDINATES:
:FCA001:   1.ATOM                         0.000        -29.051          0.000 partial forces
       TOTAL FORCE WITH RESPECT TO THE GLOBAL COORDINATE SYSTEM:
:FGL001:   1.ATOM                 0.000000000   -29.051265772     0.000000000 partial forces
 Flat Integration
 New Mode for Coulomb Integral
 Consistent 3/8+Simpson combinations
 Extension of core to zero
 LDM version in phi
 Fifth-order quadrature in outwin


            ---------
:ITE005:  5. ITERATION
            ---------

:NATO :    1 INDEPENDENT AND    2 TOTAL ATOMS IN UNITCELL
       SUBSTANCE: aU                                                          

       LATTICE                      = CXY 
:POT  : POTENTIAL OPTION EX_LDA EC_LDA VX_LDA VC_LDA
:LAT  : LATTICE CONSTANTS=  6.76640 13.73073 11.85402    1.571    1.571    1.571
:VOL  : UNIT CELL VOLUME =     550.66398
       MODE OF CALCULATION IS       = RELA
       NON-SPINPOLARIZED CALCULATION
:IFFT  : FFT-parameters:   54  108   96 Factor: 2.00


   CONVERGENCE PARAMETER FOR PSEUDOCHARGE: NCON=  9
   MAXIMAL VALUE OF RMT(JATOM)*ABSK(NKK) : RK  =27.59515


:VKCOUL :  VK-COUL convergence: 0.817E-07
       ATOMNUMBER=  1 Pr1        VCOUL-ZERO = -0.53108E-01
:EFG001:                        EFG         =    -1.11190   *10**21  V / m**2
                               V20  TOT/SRF=    -0.96293    -0.01904
                               V22  TOT/SRF=    -0.14370     0.00111
                               V22M TOT/SRF=     0.00000     0.00000
                               V21  TOT/SRF=     0.00000     0.00000
                               V21M TOT/SRF=     0.00000     0.00000

              0.41225    0.00000    0.00000        0.41225    0.00000    0.00000
              0.00000    0.69965    0.00000        0.00000    0.69965    0.00000
              0.00000    0.00000   -1.11190        0.00000    0.00000   -1.11190

         MAIN DIRECTIONS OF THE EFG   1.0000  0.0000  0.0000
                                      0.0000  1.0000  0.0000
                                      0.0000  0.0000  1.0000
:ANG001:  ANGLE WITH OLD X-AXIS =         0.0

:ETA001:                         ASYMM. ETA =     0.25848


     HELLMANN-FEYNMAN-FORCE IN mRy/a.u. = |F|  Fx       Fy             Fz
:FHF001:   1.ATOM    345.523341729106      0.000000000000      0.000000000000   -345.523341729106

:FIT001: LUSE= 13 SIGMA OF V-XC FIT FOR ATOM  1  0.5704545E-05
:FIT001: LUSE= 13 SIGMA OF V-XC FIT FOR ATOM  1  0.5704545E-05
:DEN  : DENSITY INTEGRAL  =        -14136.66561127   (Ry)
       ELS_POTENTIAL_AT Z=0 and Z=0.5:   0.64976   0.64976
       ELS_POTENTIAL_AT Y=0 and Y=0.5:   0.08242   0.08242
:VZERO:v0,v0c,v0x   0.11120   0.64976  -0.53856 v5,v5c,v5x   0.11120   0.64976  -0.53856
:VZERY:v0,v0c,v0x  -0.64125   0.08242  -0.72367 v5,v5c,v5x  -0.64125   0.08242  -0.72367
:VZERX:v0,v0c,v0x  -1.06346  -0.36501  -0.69844 v5,v5c,v5x  -1.06346  -0.36501  -0.69844
:LMAX-WF:   10   Non-Spherical LMAX:   4

          ATOMIC SPHERE DEPENDENT PARAMETERS FOR ATOM  Pr1       
:e__0001: OVERALL ENERGY PARAMETER IS    0.3246
          OVERALL BASIS SET ON ATOM IS LAPW
:E0_0001: E( 0)=    0.3246
             APW+lo
:E0_0001: E( 0)=   -2.1546   E(BOTTOM)=   -2.791   E(TOP)=   -1.518  4  5   172
             LOCAL ORBITAL
:E1_0001: E( 1)=    0.7246
             APW+lo
:E1_0001: E( 1)=   -0.6853   E(BOTTOM)=   -1.644   E(TOP)=    0.273  3  4   196
             LOCAL ORBITAL
:E3_0001: E( 3)=    0.5043   E(BOTTOM)=    0.295   E(TOP)=    0.714  0  1   125
             APW+lo
:E2_0001: E( 2)=    0.3246   E(BOTTOM)=    0.097   E(TOP)= -200.000  2 -1    97
             APW+lo

       K=   0.06250   0.00000   0.06250            1
:RKM  : MATRIX SIZE   509LOs:  40  RKM= 8.50  WEIGHT= 4.00  PGR:    
       EIGENVALUES ARE:
:EIG00001:      -2.1197395   -2.1114069   -0.8304275   -0.7793178   -0.7675092
:EIG00006:      -0.7629553   -0.7581799   -0.7576424    0.2902982    0.4363120
:EIG00011:       0.5199195    0.5212602    0.5216322    0.5233832    0.5255275
:EIG00016:       0.5342739    0.5374521    0.5376160    0.5399688    0.5415151
:EIG00021:       0.5445332    0.5471570    0.5477385    0.5518186    0.5880757
:EIG00026:       0.6002486    0.6588414    0.6846959    0.6936287    0.7342816
:EIG00031:       0.7492638    0.8169286    0.8601355    0.8956503    1.1390743
:EIG00036:       1.1886653    1.2769986    1.2801176    1.4202379    1.4731160
:EIG00041:       1.5064934    1.6081052    1.6657512    1.6881402    1.7600308
:EIG00046:       1.8357750    1.8427778    1.8756204    1.9448537    2.0180751
 
       ********************************************************

:KPT   :      NUMBER OF K-POINTS:   288
:GAP (global)   :    0.0    Ry =     0.0   eV (metal)
         Bandranges (emin - emax) and occupancy:
:BAN00004:   4   -0.820331   -0.779318  2.00000000
:BAN00005:   5   -0.813761   -0.767509  2.00000000
:BAN00006:   6   -0.802720   -0.760478  2.00000000
:BAN00007:   7   -0.789253   -0.757846  2.00000000
:BAN00008:   8   -0.770175   -0.755879  2.00000000
:BAN00009:   9    0.286041    0.495406  2.00000000
:BAN00010:  10    0.390128    0.508157  2.00000000
:BAN00011:  11    0.477375    0.519919  2.00000000
:BAN00012:  12    0.508063    0.524094  2.00000000
:BAN00013:  13    0.515478    0.531236  1.51915442
:BAN00014:  14    0.521058    0.534788  0.48084558
:BAN00015:  15    0.524972    0.536338  0.00000000
:BAN00016:  16    0.528090    0.537201  0.00000000
:BAN00017:  17    0.531658    0.538660  0.00000000
:BAN00018:  18    0.532790    0.539580  0.00000000
:BAN00019:  19    0.535074    0.542224  0.00000000
        Energy to separate low and high energystates:    0.23604


:NOE  : NUMBER OF ELECTRONS          =   26.000

:FER  : F E R M I - ENERGY(TETRAH.M.)=   0.5245915794
:GMA  : POTENTIAL AND CHARGE CUT-OFF  12.00 Ry**.5

:POS001: ATOM   -1 X,Y,Z = 0.00000 0.89750 0.25000  MULT= 2  ZZ= 59.000  Pr1       

       LMMAX 16
       LM=   0 0  1 0  2 0  2 2  3 0  3 2  4 0  4 2  4 4  5 0  5 2  5 4  6 0  6 2  6 4  6 6

:CHA001: TOTAL VALENCE CHARGE INSIDE SPHERE   1 =   9.4948    (RMT=  2.3000 )
:PCS001: PARTIAL CHARGES SPHERE =  1 S,P,D,F,PX,PY,PZ,D-Z2,D-X2Y2,D-XY,D-XZ,D-YZ 
:QTL001: 1.9383 5.0231 0.4425 2.0907 1.6714 1.6722 1.6795 0.0807 0.0804 0.0997 0.0842 0.0974
        Q-s-low E-s-low   Q-p-low E-p-low   Q-d-low E-d-low   Q-f-low E-f-low
:EPL001:  1.8697 -2.1117    4.9649 -0.7878    0.0007 -0.8082    0.0002 -0.8175
        Q-s-hi  E-s-hi    Q-p-hi  E-p-hi    Q-d-hi  E-d-hi    Q-f-hi  E-f-hi 
:EPH001:  0.0687  0.4242    0.0583  0.4625    0.4417  0.4829    2.0905  0.5145

                      VXX         VYY         VZZ       UP TO R
:VZZ001:             4.28957     2.46357    -6.75314       2.300

:CHA  : TOTAL VALENCE CHARGE INSIDE UNIT CELL =      26.000000

:SUM  : SUM OF EIGENVALUES =         -13.034621210


        1.ATOM      Pr1                  14 CORE STATES
       CORE-FORCE in mRy/a.u. = |F|      Fx             Fy             Fz
:FCO001:   1.ATOM    344.286160149452      0.000000000000      0.000000000000    344.286160149452

:1S 001: 1S               -3067.058695601 Ry
:2S 001: 2S                -492.820060739 Ry
:2PP001: 2P*               -465.918341411 Ry
:2P 001: 2P                -430.521266535 Ry
:3S 001: 3S                -105.913396425 Ry
:3PP001: 3P*                -94.451038918 Ry
:3P 001: 3P                 -87.443431123 Ry
:3DD001: 3D*                -67.370277109 Ry
:3D 001: 3D                 -65.858775591 Ry
:4S 001: 4S                 -20.596103200 Ry
:4PP001: 4P*                -16.303104890 Ry
:4P 001: 4P                 -14.776055847 Ry
:4DD001: 4D*                 -7.709727321 Ry
:4D 001: 4D                  -7.440451370 Ry
:CINT001 Core Integral Atom   1   45.998483

       DENSITY AT NUCLEUS
        JATOM        VALENCE       SEMI-CORE          CORE           TOTAL
:RTO001:   1      646.247892        0.000000   656822.162621   657468.410513
     
       CHARGES OF NEW CHARGE DENSITY
:NTO   : INTERSTITIAL CHARGE =     7.010478
:NPC   : PW Pseudocharge     =    16.813449
:NTO001: CHARGE SPHERE  1    =    55.493244

:NEC01: NUCLEAR AND ELECTRONIC CHARGE    118.00000   117.99697
     
       CHARGES OF OLD CHARGE DENSITY
:OTO   : INTERSTITIAL CHARGE =     7.032594
:OPC   : PW Pseudocharge     =    16.814351
:OTO001: CHARGE SPHERE  1    =    55.483703

:NEC02: NUCLEAR AND ELECTRONIC CHARGE    118.00000   118.00000
     
       CONVERGENCE TEST
:DTO001: DIFFERENCE IN SPHERE  1 =  0.0830233

:DIS  :  CHARGE DISTANCE       ( 0.0830233 for atom    1 spin 1)      0.0830233
 PW Mixed is          560
 
******************************************************
* MULTISECANT MIXING VER9 RELEASE 10.4.0              *
* Standard Mode with controls                        *
* Fixed density scale                                *
* Regularization       1.000E-04                     *
* Trust Upper Limit    5.000E+00                     *
* Max Number of Memory Steps    8                    *
******************************************************
 
:PWTMP   4.4873E+02  1.9467E+02  5.5066E+02
:PLANE:  PW TOTAL      4.3311 DISTAN   7.40E-02  1.71E+00 %
:CHARG:  CLM/ATOM   1382.0206 DISTAN   5.03E-01  3.64E-02 %
 
Step History
        DMIX         DMIXT        Red     Pred      Trust     Lambda    MagRel    MagAbs     Beta
  1   3.5000E-02   3.5000E-02 -1.00E+00  1.00E+00 -1.00E+01  1.00E+00  3.50E-02  3.50E-02  1.00E+00
  2   2.5000E-02   2.5000E-02  8.02E-01  1.00E+00 -1.00E+01  1.00E+00  2.50E-02  2.13E-02  1.00E+00
  3   2.8271E-02   2.8271E-02  9.80E-01  1.00E+00 -1.00E+01  1.59E-01  2.83E-02  1.93E-02  1.00E+00
  4   2.9603E-02   2.9603E-02  9.56E-01  9.88E-01  1.85E-01  1.42E+00  2.93E-02  1.96E-02  9.98E-01
  5   7.4007E-02   4.5363E-02 -1.00E+00  8.80E-01  1.85E-01  1.00E+00  1.85E-01  1.19E-01  1.00E+00
:JACOBIANS    9.336E-01   3.687E-01
  
:NORMS:  1/Froebius, Min, Max, Used   0.6640E+00  0.3761E+00  0.9995E+00  0.6789E+00
:INFO :  Number of Memory Steps    4 Skipping    0
:INFO :  SLambda=    0.9137744735  Max    0.9137744735
:PREDicted Charge, CTotal, PW Trust    4.803E-03   9.605E-03   5.484E-03
:PREDicted DMix, Beta, BLim   3.2514E-01  2.9447E+00  6.8595E-01

Eigenvalues, unscaled except for SY+YY
   #     SY Real        SY Imag          SS             YY         SY+YY Real      SY+YY Imag
   1   1.409417E+00   0.000000E+00   1.238976E+00   3.355835E+00   4.610756E+00   0.000000E+00
   2   5.593815E-01   0.000000E+00   5.245676E-01   6.360784E-01   1.179358E+00   0.000000E+00
   3  -6.869912E-17   0.000000E+00   1.061364E-04   8.081283E-03   4.853703E-06   0.000000E+00
   4   1.082272E-03   0.000000E+00  -3.067340E-18   5.333966E-06   9.908777E-03   0.000000E+00
 
:INFO :  Singular value  4.611E+00 Weight  1.000E+00 Projection -1.733E-01
:INFO :  Singular value  1.179E+00 Weight  1.000E+00 Projection -2.355E-01
:INFO :  Singular value  9.909E-03 Weight  9.989E-01 Projection -3.377E+00
:INFO :  Singular value  4.854E-06 Weight  2.091E-04 Projection -1.354E-02
:RANK :  ACTIVE   3.00/4  =  74.98 % ; YY RANK   3.00/4  =  74.96 %
 
:BLIM :  VZERO Control Off
:TRUST:  Step 4.36E-01  Charge 7.50E-02 (e) CTO  2.50E-01 (e) PW  3.50E-01 (e)
:DTRUS:  Lambda    1.704E+00 Increment    7.276E-12 Iterations   109 DMIX    1.574E-01
:INFOA:  Angle SubSpace to MSR1      4.11
:DIRM :  MEMORY  4/8  SCALE   1.000 RED  0.79 PRED  0.88 NEXT  0.71 
:INFO :  Limited by Atoms F by Step T

:TRAVE:  Charge 6.96E-03 (e) CTO  1.39E-02 (e) PW  6.34E-03 (e)
:DIRP :  |MSR1|= 3.335E-02 |PRATT|= 7.396E-02 ANGLE=   6.3 DEGREES
:DIRQ :  |MSR1|= 2.191E-01 |PRATT|= 5.032E-01 ANGLE=   6.5 DEGREES
:DIRT :  |MSR1|= 2.216E-01 |PRATT|= 5.086E-01 ANGLE=   6.5 DEGREES
:MIX  :   MSD1   REGULARIZATION:  3.36E-04 GREED: 0.18502  LMStep 0.64  0.4356 Step           
     
       CHARGES OF MIXED CHARGE DENSITY
:CTO   : INTERSTITIAL CHARGE =     7.005358
:CPC   : PW Pseudocharge     =    16.809438
:CTO001: CHARGE SPHERE  1    =    55.497321

:NEC03: NUCLEAR AND ELECTRONIC CHARGE    118.00000   118.00000

PW CHANGE     H    K    L      Current       Change    Residue
:PTO001:      0    0    0  4.32474190E-02 -5.838E-05 -2.307E-05
:PTO003:      0    2    0  1.27260770E-02 -8.740E-06  9.645E-05
:PTO004:     -1    1    0  6.31544901E-02 -1.032E-04 -1.332E-04
:PTO005:      0    2   -1 -7.37687932E-02  1.358E-04  2.933E-04
:PTO006:      0    0   -2 -3.82112791E-02  1.150E-04  2.421E-04
:PTO007:     -1    1   -1 -8.10874359E-02  2.639E-04  6.568E-04
:PTO008:      0    2   -2 -1.37896984E-02  1.086E-04  1.803E-04
:PTO009:     -1    1   -2 -7.13524325E-02 -1.462E-04 -3.638E-04
:PTO011:     -1    3    0 -1.19743015E-02 -3.131E-05 -2.054E-05
:PTO012:     -1    3   -1 -5.52822087E-02 -1.029E-05 -1.175E-04
:PTO013:      0    4    0 -1.04751396E-02  6.696E-05  1.586E-04
:PTO014:      0    2   -3  2.38436187E-02 -4.389E-05 -7.051E-05

:ENE  : ********** TOTAL ENERGY IN Ry =       -36944.09998423

       TOTAL FORCE IN mRy/a.u. = |F|     Fx             Fy             Fz     with/without FOR in case.in2
:FOR001:   1.ATOM          1.237          0.000          0.000         -1.237 partial forces
       TOTAL FORCE WITH RESPECT TO GLOBAL CARTESIAN COORDINATES:
:FCA001:   1.ATOM                         0.000         -1.237          0.000 partial forces
       TOTAL FORCE WITH RESPECT TO THE GLOBAL COORDINATE SYSTEM:
:FGL001:   1.ATOM                 0.000000000    -1.237181580     0.000000000 partial forces
 Flat Integration
 New Mode for Coulomb Integral
 Consistent 3/8+Simpson combinations
 Extension of core to zero
 LDM version in phi
 Fifth-order quadrature in outwin


            ---------
:ITE006:  6. ITERATION
            ---------

:NATO :    1 INDEPENDENT AND    2 TOTAL ATOMS IN UNITCELL
       SUBSTANCE: aU                                                          

       LATTICE                      = CXY 
:POT  : POTENTIAL OPTION EX_LDA EC_LDA VX_LDA VC_LDA
:LAT  : LATTICE CONSTANTS=  6.76640 13.73073 11.85402    1.571    1.571    1.571
:VOL  : UNIT CELL VOLUME =     550.66398
       MODE OF CALCULATION IS       = RELA
       NON-SPINPOLARIZED CALCULATION
:IFFT  : FFT-parameters:   54  108   96 Factor: 2.00


   CONVERGENCE PARAMETER FOR PSEUDOCHARGE: NCON=  9
   MAXIMAL VALUE OF RMT(JATOM)*ABSK(NKK) : RK  =27.59515


:VKCOUL :  VK-COUL convergence: 0.107E-06
       ATOMNUMBER=  1 Pr1        VCOUL-ZERO = -0.53192E-01
:EFG001:                        EFG         =    -3.74228   *10**21  V / m**2
                               V20  TOT/SRF=    -3.24091    -0.01898
                               V22  TOT/SRF=     0.19457     0.00166
                               V22M TOT/SRF=     0.00000     0.00000
                               V21  TOT/SRF=     0.00000     0.00000
                               V21M TOT/SRF=     0.00000     0.00000

              2.06571    0.00000    0.00000        2.06571    0.00000    0.00000
              0.00000    1.67657    0.00000        0.00000    1.67657    0.00000
              0.00000    0.00000   -3.74228        0.00000    0.00000   -3.74228

         MAIN DIRECTIONS OF THE EFG   1.0000  0.0000  0.0000
                                      0.0000  1.0000  0.0000
                                      0.0000  0.0000  1.0000
:ANG001:  ANGLE WITH OLD X-AXIS =         0.0

:ETA001:                         ASYMM. ETA =     0.10398


     HELLMANN-FEYNMAN-FORCE IN mRy/a.u. = |F|  Fx       Fy             Fz
:FHF001:   1.ATOM    719.144039932946      0.000000000000      0.000000000000   -719.144039932946

:FIT001: LUSE= 13 SIGMA OF V-XC FIT FOR ATOM  1  0.2281993E-04
:FIT001: LUSE= 13 SIGMA OF V-XC FIT FOR ATOM  1  0.2281993E-04
:DEN  : DENSITY INTEGRAL  =        -14139.05787665   (Ry)
       ELS_POTENTIAL_AT Z=0 and Z=0.5:   0.64961   0.64961
       ELS_POTENTIAL_AT Y=0 and Y=0.5:   0.08427   0.08427
:VZERO:v0,v0c,v0x   0.11096   0.64961  -0.53865 v5,v5c,v5x   0.11096   0.64961  -0.53865
:VZERY:v0,v0c,v0x  -0.63928   0.08427  -0.72355 v5,v5c,v5x  -0.63928   0.08427  -0.72355
:VZERX:v0,v0c,v0x  -1.06315  -0.36466  -0.69849 v5,v5c,v5x  -1.06315  -0.36466  -0.69849
:LMAX-WF:   10   Non-Spherical LMAX:   4

          ATOMIC SPHERE DEPENDENT PARAMETERS FOR ATOM  Pr1       
:e__0001: OVERALL ENERGY PARAMETER IS    0.3246
          OVERALL BASIS SET ON ATOM IS LAPW
:E0_0001: E( 0)=    0.3246
             APW+lo
:E0_0001: E( 0)=   -2.1463   E(BOTTOM)=   -2.785   E(TOP)=   -1.508  4  5   166
             LOCAL ORBITAL
:E1_0001: E( 1)=    0.7246
             APW+lo
:E1_0001: E( 1)=   -0.6781   E(BOTTOM)=   -1.639   E(TOP)=    0.283  3  4   197
             LOCAL ORBITAL
:E3_0001: E( 3)=    0.5205   E(BOTTOM)=    0.309   E(TOP)=    0.732  0  1   117
             APW+lo
:E2_0001: E( 2)=    0.3246   E(BOTTOM)=    0.101   E(TOP)= -200.000  2 -1    97
             APW+lo

       K=   0.06250   0.00000   0.06250            1
:RKM  : MATRIX SIZE   509LOs:  40  RKM= 8.50  WEIGHT= 4.00  PGR:    
       EIGENVALUES ARE:
:EIG00001:      -2.1119064   -2.1035049   -0.8254777   -0.7730157   -0.7610838
:EIG00006:      -0.7569310   -0.7522381   -0.7521225    0.2909277    0.4372776
:EIG00011:       0.5344594    0.5351822    0.5367573    0.5383546    0.5405482
:EIG00016:       0.5493111    0.5525248    0.5527409    0.5549881    0.5571706
:EIG00021:       0.5600779    0.5634639    0.5637087    0.5680711    0.5932872
:EIG00026:       0.6041016    0.6617678    0.6872218    0.6962839    0.7367567
:EIG00031:       0.7519617    0.8193268    0.8629068    0.8987466    1.1417796
:EIG00036:       1.1902831    1.2783325    1.2813819    1.4212166    1.4741172
:EIG00041:       1.5083914    1.6099065    1.6673007    1.6898699    1.7621624
:EIG00046:       1.8375282    1.8435393    1.8774334    1.9460132    2.0205653
 
       ********************************************************

:KPT   :      NUMBER OF K-POINTS:   288
:GAP (global)   :    0.0    Ry =     0.0   eV (metal)
         Bandranges (emin - emax) and occupancy:
:BAN00004:   4   -0.814806   -0.773016  2.00000000
:BAN00005:   5   -0.808166   -0.761084  2.00000000
:BAN00006:   6   -0.797027   -0.754427  2.00000000
:BAN00007:   7   -0.783159   -0.752238  2.00000000
:BAN00008:   8   -0.764401   -0.749804  2.00000000
:BAN00009:   9    0.286660    0.499342  2.00000000
:BAN00010:  10    0.390866    0.515102  2.00000000
:BAN00011:  11    0.479549    0.534459  2.00000000
:BAN00012:  12    0.515210    0.537323  2.00000000
:BAN00013:  13    0.526752    0.546791  1.55818363
:BAN00014:  14    0.534205    0.550440  0.44181637
:BAN00015:  15    0.540035    0.551860  0.00000000
:BAN00016:  16    0.543084    0.552925  0.00000000
:BAN00017:  17    0.546350    0.554080  0.00000000
:BAN00018:  18    0.548188    0.554755  0.00000000
:BAN00019:  19    0.550684    0.556929  0.00000000
        Energy to separate low and high energystates:    0.23666


:NOE  : NUMBER OF ELECTRONS          =   26.000

:FER  : F E R M I - ENERGY(TETRAH.M.)=   0.5387841769
:GMA  : POTENTIAL AND CHARGE CUT-OFF  12.00 Ry**.5

:POS001: ATOM   -1 X,Y,Z = 0.00000 0.89750 0.25000  MULT= 2  ZZ= 59.000  Pr1       

       LMMAX 16
       LM=   0 0  1 0  2 0  2 2  3 0  3 2  4 0  4 2  4 4  5 0  5 2  5 4  6 0  6 2  6 4  6 6

:CHA001: TOTAL VALENCE CHARGE INSIDE SPHERE   1 =   9.2799    (RMT=  2.3000 )
:PCS001: PARTIAL CHARGES SPHERE =  1 S,P,D,F,PX,PY,PZ,D-Z2,D-X2Y2,D-XY,D-XZ,D-YZ 
:QTL001: 1.9391 5.0259 0.5088 1.8059 1.6718 1.6729 1.6812 0.0951 0.0975 0.1084 0.0968 0.1111
        Q-s-low E-s-low   Q-p-low E-p-low   Q-d-low E-d-low   Q-f-low E-f-low
:EPL001:  1.8689 -2.1038    4.9590 -0.7820    0.0007 -0.8026    0.0002 -0.8100
        Q-s-hi  E-s-hi    Q-p-hi  E-p-hi    Q-d-hi  E-d-hi    Q-f-hi  E-f-hi 
:EPH001:  0.0703  0.4276    0.0669  0.4720    0.5081  0.4917    1.8057  0.5270

                      VXX         VYY         VZZ       UP TO R
:VZZ001:             3.13626     2.86880    -6.00505       2.300

:CHA  : TOTAL VALENCE CHARGE INSIDE UNIT CELL =      26.000000

:SUM  : SUM OF EIGENVALUES =         -12.863522567


        1.ATOM      Pr1                  14 CORE STATES
       CORE-FORCE in mRy/a.u. = |F|      Fx             Fy             Fz
:FCO001:   1.ATOM    712.033721172831      0.000000000000      0.000000000000    712.033721172831

:1S 001: 1S               -3067.040900965 Ry
:2S 001: 2S                -492.796750820 Ry
:2PP001: 2P*               -465.895826431 Ry
:2P 001: 2P                -430.498413523 Ry
:3S 001: 3S                -105.885874076 Ry
:3PP001: 3P*                -94.423712897 Ry
:3P 001: 3P                 -87.415975950 Ry
:3DD001: 3D*                -67.343141633 Ry
:3D 001: 3D                 -65.831583286 Ry
:4S 001: 4S                 -20.572324100 Ry
:4PP001: 4P*                -16.279783068 Ry
:4P 001: 4P                 -14.753373854 Ry
:4DD001: 4D*                 -7.688236168 Ry
:4D 001: 4D                  -7.419180959 Ry
:CINT001 Core Integral Atom   1   45.998467

       DENSITY AT NUCLEUS
        JATOM        VALENCE       SEMI-CORE          CORE           TOTAL
:RTO001:   1      645.743119        0.000000   656822.269568   657468.012687
     
       CHARGES OF NEW CHARGE DENSITY
:NTO   : INTERSTITIAL CHARGE =     7.440116
:NPC   : PW Pseudocharge     =    16.920971
:NTO001: CHARGE SPHERE  1    =    55.278409

:NEC01: NUCLEAR AND ELECTRONIC CHARGE    118.00000   117.99693
     
       CHARGES OF OLD CHARGE DENSITY
:OTO   : INTERSTITIAL CHARGE =     7.005358
:OPC   : PW Pseudocharge     =    16.809438
:OTO001: CHARGE SPHERE  1    =    55.497321

:NEC02: NUCLEAR AND ELECTRONIC CHARGE    118.00000   118.00000
     
       CONVERGENCE TEST
:DTO001: DIFFERENCE IN SPHERE  1 =  0.3494084

:DIS  :  CHARGE DISTANCE       ( 0.3494084 for atom    1 spin 1)      0.3494084
 PW Mixed is          560
 
******************************************************
* MULTISECANT MIXING VER9 RELEASE 10.4.0              *
* Standard Mode with controls                        *
* Fixed density scale                                *
* Regularization       1.000E-04                     *
* Trust Upper Limit    5.000E+00                     *
* Max Number of Memory Steps    8                    *
******************************************************
 
:PWTMP   4.4873E+02  1.9467E+02  5.5066E+02
:PLANE:  PW TOTAL      4.3214 DISTAN   6.62E-02  1.53E+00 %
:CHARG:  CLM/ATOM   1381.9833 DISTAN   5.44E-01  3.93E-02 %
 
Step History
        DMIX         DMIXT        Red     Pred      Trust     Lambda    MagRel    MagAbs     Beta
  1   3.5000E-02   3.5000E-02 -1.00E+00  1.00E+00 -1.00E+01  1.00E+00  3.50E-02  3.50E-02  1.00E+00
  2   2.5000E-02   2.5000E-02  8.02E-01  1.00E+00 -1.00E+01  1.00E+00  2.50E-02  2.13E-02  1.00E+00
  3   2.8271E-02   2.8271E-02  9.80E-01  1.00E+00 -1.00E+01  1.59E-01  2.83E-02  1.93E-02  1.00E+00
  4   2.9603E-02   2.9603E-02  9.56E-01  9.88E-01  1.85E-01  1.42E+00  2.93E-02  1.96E-02  9.98E-01
  5   7.4007E-02   4.5363E-02  7.94E-01  8.80E-01  1.85E-01  9.14E-01  1.85E-01  1.19E-01  1.00E+00
  6   1.8502E-01   1.5743E-01 -1.00E+00  7.15E-01  4.36E-01  1.00E+00  4.36E-01  2.22E-01  1.00E+00
:JACOBIANS    9.689E-01   5.854E-01
  
:NORMS:  1/Froebius, Min, Max, Used   0.5239E+00  0.3525E+00  0.9995E+00  0.5300E+00
:INFO :  Number of Memory Steps    5 Skipping    0
:INFO :  SLambda=    1.3706617102  Max    1.3706617102
:PREDicted Charge, CTotal, PW Trust    4.456E-03   8.912E-03   1.016E-02
:PREDicted DMix, Beta, BLim   1.2180E-01  1.3521E+00  7.5587E-01

Eigenvalues, unscaled except for SY+YY
   #     SY Real        SY Imag          SS             YY         SY+YY Real      SY+YY Imag
   1   1.525848E+00   0.000000E+00   1.127674E+00   4.612066E+00   6.689453E+00   0.000000E+00
   2   2.568357E-01   0.000000E+00   2.433179E-01   3.140241E-01   6.666290E-01   0.000000E+00
   3   1.039474E-02   0.000000E+00   1.313707E-03   7.308995E-02   1.006199E-01   0.000000E+00
   4  -2.768093E-16   0.000000E+00   7.332152E-06   8.189541E-04   8.639405E-07   0.000000E+00
   5   9.896868E-05   0.000000E+00  -2.845517E-17   9.502811E-07   1.137607E-03   0.000000E+00
 
:INFO :  Singular value  6.690E+00 Weight  1.000E+00 Projection  5.428E-02
:INFO :  Singular value  6.667E-01 Weight  1.000E+00 Projection  7.857E-02
:INFO :  Singular value  1.006E-01 Weight  1.000E+00 Projection  1.283E+00
:INFO :  Singular value  1.138E-03 Weight  8.589E-01 Projection -1.007E+01
:INFO :  Singular value  8.639E-07 Weight  3.508E-06 Projection -5.873E-04
:RANK :  ACTIVE   3.86/5  =  77.18 % ; YY RANK   3.76/5  =  75.18 %
 
:BLIM :  VZERO Control Off
:TRUST:  Step 5.33E-01  Charge 6.82E-02 (e) CTO  2.27E-01 (e) PW  3.18E-01 (e)
:DIRM :  MEMORY  5/8  SCALE   1.000 RED  1.08 PRED  0.71 NEXT  0.36 
:TRAVE:  Charge 1.02E-02 (e) CTO  2.03E-02 (e) PW  5.73E-03 (e)
:DIRP :  |MSR1|= 3.170E-02 |PRATT|= 6.618E-02 ANGLE=  49.2 DEGREES
:DIRQ :  |MSR1|= 1.635E-01 |PRATT|= 5.437E-01 ANGLE=  57.7 DEGREES
:DIRT :  |MSR1|= 1.666E-01 |PRATT|= 5.477E-01 ANGLE=  57.6 DEGREES
:MIX  :   MSE1   REGULARIZATION:  4.61E-04 GREED: 0.12007  Newton 1.00  0.3041                
     
       CHARGES OF MIXED CHARGE DENSITY
:CTO   : INTERSTITIAL CHARGE =     7.032065
:CPC   : PW Pseudocharge     =    16.797230
:CTO001: CHARGE SPHERE  1    =    55.483968

:NEC03: NUCLEAR AND ELECTRONIC CHARGE    118.00000   118.00000

PW CHANGE     H    K    L      Current       Change    Residue
:PTO001:      0    0    0  4.32737481E-02  2.633E-05  1.010E-03
:PTO003:      0    2    0  1.27692191E-02  4.314E-05 -5.098E-06
:PTO004:     -1    1    0  6.30311372E-02 -1.234E-04  7.258E-05
:PTO005:      0    2   -1 -7.35429870E-02  2.258E-04  6.727E-05
:PTO006:      0    0   -2 -3.80584890E-02  1.528E-04  1.100E-04
:PTO007:     -1    1   -1 -8.06795424E-02  4.079E-04  3.936E-04
:PTO008:      0    2   -2 -1.37096141E-02  8.008E-05  1.145E-04
:PTO009:     -1    1   -2 -7.12729378E-02  7.949E-05 -3.924E-05
:PTO011:     -1    3    0 -1.19313199E-02  4.298E-05 -1.286E-04
:PTO012:     -1    3   -1 -5.51601011E-02  1.221E-04 -8.407E-05
:PTO013:      0    4    0 -1.03815365E-02  9.360E-05  7.330E-05
:PTO014:      0    2   -3  2.37309263E-02 -1.127E-04 -7.341E-05

:ENE  : ********** TOTAL ENERGY IN Ry =       -36944.10438861

       TOTAL FORCE IN mRy/a.u. = |F|     Fx             Fy             Fz     with/without FOR in case.in2
:FOR001:   1.ATOM          7.110          0.000          0.000         -7.110 partial forces
       TOTAL FORCE WITH RESPECT TO GLOBAL CARTESIAN COORDINATES:
:FCA001:   1.ATOM                         0.000         -7.110          0.000 partial forces
       TOTAL FORCE WITH RESPECT TO THE GLOBAL COORDINATE SYSTEM:
:FGL001:   1.ATOM                 0.000000000    -7.110318760     0.000000000 partial forces
 Flat Integration
 New Mode for Coulomb Integral
 Consistent 3/8+Simpson combinations
 Extension of core to zero
 LDM version in phi
 Fifth-order quadrature in outwin


            ---------
:ITE007:  7. ITERATION
            ---------

:NATO :    1 INDEPENDENT AND    2 TOTAL ATOMS IN UNITCELL
       SUBSTANCE: aU                                                          

       LATTICE                      = CXY 
:POT  : POTENTIAL OPTION EX_LDA EC_LDA VX_LDA VC_LDA
:LAT  : LATTICE CONSTANTS=  6.76640 13.73073 11.85402    1.571    1.571    1.571
:VOL  : UNIT CELL VOLUME =     550.66398
       MODE OF CALCULATION IS       = RELA
       NON-SPINPOLARIZED CALCULATION
:IFFT  : FFT-parameters:   54  108   96 Factor: 2.00


   CONVERGENCE PARAMETER FOR PSEUDOCHARGE: NCON=  9
   MAXIMAL VALUE OF RMT(JATOM)*ABSK(NKK) : RK  =27.59515


:VKCOUL :  VK-COUL convergence: 0.128E-06
       ATOMNUMBER=  1 Pr1        VCOUL-ZERO = -0.55187E-01
:EFG001:                        EFG         =    -5.35216   *10**21  V / m**2
                               V20  TOT/SRF=    -4.63511    -0.01674
                               V22  TOT/SRF=     0.39930     0.00065
                               V22M TOT/SRF=     0.00000     0.00000
                               V21  TOT/SRF=     0.00000     0.00000
                               V21M TOT/SRF=     0.00000     0.00000

              3.07538    0.00000    0.00000        3.07538    0.00000    0.00000
              0.00000    2.27678    0.00000        0.00000    2.27678    0.00000
              0.00000    0.00000   -5.35216        0.00000    0.00000   -5.35216

         MAIN DIRECTIONS OF THE EFG   1.0000  0.0000  0.0000
                                      0.0000  1.0000  0.0000
                                      0.0000  0.0000  1.0000
:ANG001:  ANGLE WITH OLD X-AXIS =         0.0

:ETA001:                         ASYMM. ETA =     0.14921


     HELLMANN-FEYNMAN-FORCE IN mRy/a.u. = |F|  Fx       Fy             Fz
:FHF001:   1.ATOM    901.004292880178      0.000000000000      0.000000000000   -901.004292880178

:FIT001: LUSE= 13 SIGMA OF V-XC FIT FOR ATOM  1  0.4416879E-04
:FIT001: LUSE= 13 SIGMA OF V-XC FIT FOR ATOM  1  0.4416879E-04
:DEN  : DENSITY INTEGRAL  =        -14136.00575427   (Ry)
       ELS_POTENTIAL_AT Z=0 and Z=0.5:   0.65331   0.65331
       ELS_POTENTIAL_AT Y=0 and Y=0.5:   0.08740   0.08740
:VZERO:v0,v0c,v0x   0.11314   0.65331  -0.54017 v5,v5c,v5x   0.11314   0.65331  -0.54017
:VZERY:v0,v0c,v0x  -0.63743   0.08740  -0.72483 v5,v5c,v5x  -0.63743   0.08740  -0.72483
:VZERX:v0,v0c,v0x  -1.06499  -0.36540  -0.69959 v5,v5c,v5x  -1.06499  -0.36540  -0.69959
:LMAX-WF:   10   Non-Spherical LMAX:   4

          ATOMIC SPHERE DEPENDENT PARAMETERS FOR ATOM  Pr1       
:e__0001: OVERALL ENERGY PARAMETER IS    0.3341
          OVERALL BASIS SET ON ATOM IS LAPW
:E0_0001: E( 0)=    0.3341
             APW+lo
:E0_0001: E( 0)=   -2.1577   E(BOTTOM)=   -2.794   E(TOP)=   -1.521  4  5   166
             LOCAL ORBITAL
:E1_0001: E( 1)=    0.7341
             APW+lo
:E1_0001: E( 1)=   -0.6884   E(BOTTOM)=   -1.647   E(TOP)=    0.270  3  4   190
             LOCAL ORBITAL
:E3_0001: E( 3)=    0.5026   E(BOTTOM)=    0.293   E(TOP)=    0.712  0  1   129
             APW+lo
:E2_0001: E( 2)=    0.3341   E(BOTTOM)=    0.094   E(TOP)= -200.000  2 -1   102
             APW+lo

       K=   0.06250   0.00000   0.06250            1
:RKM  : MATRIX SIZE   509LOs:  40  RKM= 8.50  WEIGHT= 4.00  PGR:    
       EIGENVALUES ARE:
:EIG00001:      -2.1225877   -2.1143341   -0.8327769   -0.7818578   -0.7700379
:EIG00006:      -0.7653499   -0.7606895   -0.7606398    0.2909342    0.4359381
:EIG00011:       0.5200664    0.5201233    0.5206953    0.5222095    0.5248716
:EIG00016:       0.5323594    0.5350716    0.5351368    0.5372801    0.5397076
:EIG00021:       0.5418427    0.5463265    0.5470923    0.5505039    0.5871333
:EIG00026:       0.6003722    0.6586457    0.6839778    0.6936916    0.7334229
:EIG00031:       0.7483948    0.8160397    0.8588120    0.8944008    1.1381615
:EIG00036:       1.1887992    1.2768528    1.2801846    1.4203325    1.4742325
:EIG00041:       1.5076035    1.6091376    1.6651480    1.6888195    1.7593825
:EIG00046:       1.8362279    1.8427852    1.8755111    1.9447126    2.0184757
 
       ********************************************************

:KPT   :      NUMBER OF K-POINTS:   288
:GAP (global)   :    0.0    Ry =     0.0   eV (metal)
         Bandranges (emin - emax) and occupancy:
:BAN00004:   4   -0.822538   -0.781858  2.00000000
:BAN00005:   5   -0.815994   -0.770038  2.00000000
:BAN00006:   6   -0.805196   -0.762881  2.00000000
:BAN00007:   7   -0.791661   -0.760690  2.00000000
:BAN00008:   8   -0.772767   -0.758352  2.00000000
:BAN00009:   9    0.286678    0.496093  2.00000000
:BAN00010:  10    0.390359    0.507705  2.00000000
:BAN00011:  11    0.476540    0.520066  2.00000000
:BAN00012:  12    0.507732    0.522875  2.00000000
:BAN00013:  13    0.513686    0.530104  1.47749471
:BAN00014:  14    0.519274    0.533199  0.52250528
:BAN00015:  15    0.524185    0.534249  0.00000000
:BAN00016:  16    0.527164    0.535709  0.00000000
:BAN00017:  17    0.529924    0.537623  0.00000000
:BAN00018:  18    0.531446    0.538187  0.00000000
:BAN00019:  19    0.533848    0.539919  0.00000000
        Energy to separate low and high energystates:    0.23668


:NOE  : NUMBER OF ELECTRONS          =   26.000

:FER  : F E R M I - ENERGY(TETRAH.M.)=   0.5232006840
:GMA  : POTENTIAL AND CHARGE CUT-OFF  12.00 Ry**.5

:POS001: ATOM   -1 X,Y,Z = 0.00000 0.89750 0.25000  MULT= 2  ZZ= 59.000  Pr1       

       LMMAX 16
       LM=   0 0  1 0  2 0  2 2  3 0  3 2  4 0  4 2  4 4  5 0  5 2  5 4  6 0  6 2  6 4  6 6

[...]

:DIS  :  CHARGE DISTANCE       ( 0.0004299 for atom    1 spin 1)      0.0004299
 PW Mixed is          560
 
******************************************************
* MULTISECANT MIXING VER9 RELEASE 10.4.0              *
* Standard Mode with controls                        *
* Fixed density scale                                *
* Regularization       1.000E-04                     *
* Trust Upper Limit    5.000E+00                     *
* Max Number of Memory Steps    8                    *
******************************************************
 
:PWTMP   4.4873E+02  1.9467E+02  5.5066E+02
:PLANE:  PW TOTAL      4.3177 DISTAN   1.42E-04  3.29E-03 %
:CHARG:  CLM/ATOM   1381.9383 DISTAN   1.75E-03  1.27E-04 %
 
Step History
        DMIX         DMIXT        Red     Pred      Trust     Lambda    MagRel    MagAbs     Beta
  5   7.4007E-02   4.5363E-02  7.94E-01  8.80E-01  1.85E-01  9.14E-01  1.85E-01  1.19E-01  1.00E+00
  6   1.8502E-01   1.5743E-01  1.08E+00  7.15E-01  4.36E-01  1.37E+00  4.36E-01  2.22E-01  1.00E+00
  7   1.2007E-01   1.2007E-01  2.96E-01  3.60E-01  5.33E-01  6.16E-01  3.04E-01  1.67E-01  1.00E+00
  8   9.7257E-02   9.7257E-02  6.64E-01  8.66E-01  8.74E-01  5.60E-01  2.56E-01  4.15E-02  1.00E+00
  9   2.4301E-01   2.4301E-01  7.39E-01  6.17E-01  1.16E+00  1.00E+00  5.92E-01  6.37E-02  1.00E+00
 10   1.7635E-01   1.7635E-01  2.56E-01  3.16E-01  1.55E+00  1.50E+00  1.20E-01  9.58E-03  9.47E-01
 11   2.3827E-01   2.3827E-01  3.65E-01  2.67E-01  2.07E+00  2.10E+00  3.59E-01  7.31E-03  1.00E+00
 12   1.4064E-01   1.4064E-01  4.21E-01  4.61E-01  2.76E+00  2.28E+00  1.27E-01  9.41E-04  1.00E+00
 13   3.3232E-01   3.3232E-01 -1.00E+00  4.90E-01  3.68E+00  1.00E+00  7.30E-01  2.28E-03  1.00E+00
:JACOBIANS    7.897E-01   2.525E+00
  
:NORMS:  1/Froebius, Min, Max, Used   0.6124E+00  0.4486E+00  0.9693E+00  0.8369E+00
:INFO :  Number of Memory Steps    8 Skipping    4
:INFO :  SLambda=    1.5904075451  Max    1.5904075451
:PREDicted Charge, CTotal, PW Trust    4.120E-04   8.240E-04   4.626E-05
:PREDicted DMix, Beta, BLim   2.0602E-01  8.3639E-01  1.4661E+00

Eigenvalues, unscaled except for SY+YY
   #     SY Real        SY Imag          SS             YY         SY+YY Real      SY+YY Imag
   1   2.319114E+00   0.000000E+00   2.178035E+00   3.109556E+00   6.569619E+00   0.000000E+00
   2   7.376084E-01   0.000000E+00   5.206862E-01   1.971267E+00   3.056580E+00   0.000000E+00
   3   5.246340E-01   0.000000E+00   2.532648E-01   1.501488E+00   2.287970E+00   0.000000E+00
   4   1.397671E-01   0.000000E+00   3.405952E-02   7.373962E-01   1.059257E+00   0.000000E+00
   5   9.215384E-02   0.000000E+00   9.681543E-03   4.500978E-01   8.374161E-01   0.000000E+00
   6   2.970254E-02   0.000000E+00   2.781435E-03   1.907044E-01   2.593267E-01   0.000000E+00
   7   1.322079E-03   0.000000E+00   1.126632E-03   3.766380E-02   3.970348E-03   0.000000E+00
   8   4.934241E-03   0.000000E+00   5.949366E-04   1.826917E-03   4.771379E-02   0.000000E+00
 
:INFO :  Singular value  6.575E+00 Weight  1.000E+00 Projection -4.467E-04
:INFO :  Singular value  3.067E+00 Weight  1.000E+00 Projection  5.619E-04
:INFO :  Singular value  2.287E+00 Weight  1.000E+00 Projection -3.266E-04
:INFO :  Singular value  1.064E+00 Weight  1.000E+00 Projection -1.051E-03
:INFO :  Singular value  8.324E-01 Weight  1.000E+00 Projection  9.184E-04
:INFO :  Singular value  2.587E-01 Weight  1.000E+00 Projection  4.115E-04
:INFO :  Singular value  4.770E-02 Weight  1.000E+00 Projection  7.568E-04
:INFO :  Singular value  3.970E-03 Weight  9.939E-01 Projection  1.325E-04
:RANK :  ACTIVE   7.99/8  =  99.92 % ; YY RANK   7.97/8  =  99.65 %
 
:DLIM :  Beta Active  8.773E-01
:BLIM :  VZERO Control Off
:TRUST:  Step 4.91E+00  Charge 1.43E-02 (e) CTO  4.77E-02 (e) PW  6.67E-02 (e)
:DIRM :  MEMORY  8/8  SCALE   1.000 RED  0.56 PRED  0.49 NEXT  0.40 BETA  0.88
:TRAVE:  Charge 2.80E-04 (e) CTO  5.60E-04 (e) PW  2.66E-04 (e)
:DIRP :  |MSR1|= 8.047E-05 |PRATT|= 1.420E-04 ANGLE= 102.4 DEGREES
:DIRQ :  |MSR1|= 9.178E-04 |PRATT|= 1.754E-03 ANGLE=  43.9 DEGREES
:DIRT :  |MSR1|= 9.213E-04 |PRATT|= 1.760E-03 ANGLE=  44.4 DEGREES
:MIX  :   MSE1   REGULARIZATION:  3.11E-04 GREED: 0.22956  Newton 1.00  0.5235                
     
       CHARGES OF MIXED CHARGE DENSITY
:CTO   : INTERSTITIAL CHARGE =     7.021830
:CPC   : PW Pseudocharge     =    16.834952
:CTO001: CHARGE SPHERE  1    =    55.489085

:NEC03: NUCLEAR AND ELECTRONIC CHARGE    118.00000   118.00000

PW CHANGE     H    K    L      Current       Change    Residue
:PTO001:      0    0    0  4.33236657E-02  1.060E-08  4.753E-07
:PTO003:      0    2    0  1.26829696E-02  8.106E-08 -4.566E-07
:PTO004:     -1    1    0  6.30683875E-02  4.633E-07  2.664E-08
:PTO005:      0    2   -1 -7.37060022E-02 -2.823E-07  1.529E-06
:PTO006:      0    0   -2 -3.81181431E-02 -4.415E-07  3.932E-07
:PTO007:     -1    1   -1 -8.09264363E-02 -1.021E-06  2.460E-07
:PTO008:      0    2   -2 -1.36759328E-02 -4.051E-07  5.071E-07
:PTO009:     -1    1   -2 -7.16309522E-02  6.551E-07  1.842E-06
:PTO011:     -1    3    0 -1.21192833E-02 -4.655E-07 -9.950E-07
:PTO012:     -1    3   -1 -5.53909159E-02  2.518E-07  2.052E-06
:PTO013:      0    4    0 -1.04214390E-02 -8.656E-08  6.846E-07
:PTO014:      0    2   -3  2.38011037E-02 -9.855E-08 -1.395E-06

:ENE  : ********** TOTAL ENERGY IN Ry =       -36944.09965842

       TOTAL FORCE IN mRy/a.u. = |F|     Fx             Fy             Fz     with/without FOR in case.in2
:FOR001:   1.ATOM         30.690          0.000          0.000        -30.690 partial forces
       TOTAL FORCE WITH RESPECT TO GLOBAL CARTESIAN COORDINATES:
:FCA001:   1.ATOM                         0.000        -30.690          0.000 partial forces
       TOTAL FORCE WITH RESPECT TO THE GLOBAL COORDINATE SYSTEM:
:FGL001:   1.ATOM                 0.000000000   -30.689974344     0.000000000 partial forces
 Flat Integration
 New Mode for Coulomb Integral
 Consistent 3/8+Simpson combinations
 Extension of core to zero
 LDM version in phi
 Fifth-order quadrature in outwin


            ---------
:ITE014: 14. ITERATION
            ---------

:NATO :    1 INDEPENDENT AND    2 TOTAL ATOMS IN UNITCELL
       SUBSTANCE: aU                                                          

       LATTICE                      = CXY 
:POT  : POTENTIAL OPTION EX_LDA EC_LDA VX_LDA VC_LDA
:LAT  : LATTICE CONSTANTS=  6.76640 13.73073 11.85402    1.571    1.571    1.571
:VOL  : UNIT CELL VOLUME =     550.66398
       MODE OF CALCULATION IS       = RELA
       NON-SPINPOLARIZED CALCULATION
:IFFT  : FFT-parameters:   54  108   96 Factor: 2.00


   CONVERGENCE PARAMETER FOR PSEUDOCHARGE: NCON=  9
   MAXIMAL VALUE OF RMT(JATOM)*ABSK(NKK) : RK  =27.59515


:VKCOUL :  VK-COUL convergence: 0.144E-06
       ATOMNUMBER=  1 Pr1        VCOUL-ZERO = -0.55543E-01
:EFG001:                        EFG         =    -6.47578   *10**21  V / m**2
                               V20  TOT/SRF=    -5.60819    -0.01724
                               V22  TOT/SRF=     0.23526     0.00168
                               V22M TOT/SRF=     0.00000     0.00000
                               V21  TOT/SRF=     0.00000     0.00000
                               V21M TOT/SRF=     0.00000     0.00000

              3.47315    0.00000    0.00000        3.47315    0.00000    0.00000
              0.00000    3.00263    0.00000        0.00000    3.00263    0.00000
              0.00000    0.00000   -6.47578        0.00000    0.00000   -6.47578

         MAIN DIRECTIONS OF THE EFG   1.0000  0.0000  0.0000
                                      0.0000  1.0000  0.0000
                                      0.0000  0.0000  1.0000
:ANG001:  ANGLE WITH OLD X-AXIS =         0.0

:ETA001:                         ASYMM. ETA =     0.07266


     HELLMANN-FEYNMAN-FORCE IN mRy/a.u. = |F|  Fx       Fy             Fz
:FHF001:   1.ATOM   1137.226929977380      0.000000000000      0.000000000000  -1137.226929977380

:FIT001: LUSE= 13 SIGMA OF V-XC FIT FOR ATOM  1  0.5881675E-04
:FIT001: LUSE= 13 SIGMA OF V-XC FIT FOR ATOM  1  0.5881675E-04
:DEN  : DENSITY INTEGRAL  =        -14136.30413179   (Ry)
       ELS_POTENTIAL_AT Z=0 and Z=0.5:   0.65353   0.65353
       ELS_POTENTIAL_AT Y=0 and Y=0.5:   0.08425   0.08425
:VZERO:v0,v0c,v0x   0.11350   0.65353  -0.54004 v5,v5c,v5x   0.11350   0.65353  -0.54004
:VZERY:v0,v0c,v0x  -0.63992   0.08425  -0.72417 v5,v5c,v5x  -0.63992   0.08425  -0.72417
:VZERX:v0,v0c,v0x  -1.06564  -0.36588  -0.69976 v5,v5c,v5x  -1.06564  -0.36588  -0.69976
:LMAX-WF:   10   Non-Spherical LMAX:   4

          ATOMIC SPHERE DEPENDENT PARAMETERS FOR ATOM  Pr1       
:e__0001: OVERALL ENERGY PARAMETER IS    0.3252
          OVERALL BASIS SET ON ATOM IS LAPW
:E0_0001: E( 0)=    0.3252
             APW+lo
:E0_0001: E( 0)=   -2.1565   E(BOTTOM)=   -2.793   E(TOP)=   -1.520  4  5   162
             LOCAL ORBITAL
:E1_0001: E( 1)=    0.7252
             APW+lo
:E1_0001: E( 1)=   -0.6874   E(BOTTOM)=   -1.646   E(TOP)=    0.271  3  4   195
             LOCAL ORBITAL
:E3_0001: E( 3)=    0.5048   E(BOTTOM)=    0.295   E(TOP)=    0.715  0  1   119
             APW+lo
:E2_0001: E( 2)=    0.3252   E(BOTTOM)=    0.094   E(TOP)= -200.000  2 -1    95
             APW+lo

       K=   0.06250   0.00000   0.06250            1
:RKM  : MATRIX SIZE   509LOs:  40  RKM= 8.50  WEIGHT= 4.00  PGR:    
       EIGENVALUES ARE:
:EIG00001:      -2.1215219   -2.1132315   -0.8321508   -0.7810714   -0.7693113
:EIG00006:      -0.7646229   -0.7598761   -0.7598294    0.2913263    0.4364755
:EIG00011:       0.5213881    0.5221749    0.5225574    0.5242854    0.5264441
:EIG00016:       0.5347808    0.5375264    0.5376633    0.5399325    0.5420676
:EIG00021:       0.5443787    0.5481338    0.5489512    0.5525098    0.5880148
:EIG00026:       0.6007390    0.6594133    0.6844633    0.6938475    0.7339844
:EIG00031:       0.7488995    0.8164526    0.8594185    0.8947618    1.1387109
:EIG00036:       1.1892725    1.2771548    1.2807903    1.4211754    1.4739761
:EIG00041:       1.5079151    1.6094510    1.6662716    1.6890703    1.7596304
:EIG00046:       1.8368118    1.8429247    1.8763321    1.9448855    2.0189246
 
       ********************************************************

:KPT   :      NUMBER OF K-POINTS:   288
:GAP (global)   :    0.0    Ry =     0.0   eV (metal)
         Bandranges (emin - emax) and occupancy:
:BAN00004:   4   -0.821823   -0.781071  2.00000000
:BAN00005:   5   -0.815273   -0.769311  2.00000000
:BAN00006:   6   -0.804448   -0.762153  2.00000000
:BAN00007:   7   -0.790956   -0.759876  2.00000000
:BAN00008:   8   -0.772025   -0.757585  2.00000000
:BAN00009:   9    0.287070    0.496240  2.00000000
:BAN00010:  10    0.390812    0.508753  2.00000000
:BAN00011:  11    0.477343    0.521388  2.00000000
:BAN00012:  12    0.508691    0.524581  2.00000000
:BAN00013:  13    0.515572    0.532099  1.50717417
:BAN00014:  14    0.521432    0.535615  0.49282583
:BAN00015:  15    0.525896    0.536310  0.00000000
:BAN00016:  16    0.528869    0.538035  0.00000000
:BAN00017:  17    0.531957    0.539518  0.00000000
:BAN00018:  18    0.533347    0.539973  0.00000000
:BAN00019:  19    0.535812    0.542467  0.00000000
        Energy to separate low and high energystates:    0.23707


:NOE  : NUMBER OF ELECTRONS          =   26.000

:FER  : F E R M I - ENERGY(TETRAH.M.)=   0.5252089763
:GMA  : POTENTIAL AND CHARGE CUT-OFF  12.00 Ry**.5

:POS001: ATOM   -1 X,Y,Z = 0.00000 0.89750 0.25000  MULT= 2  ZZ= 59.000  Pr1       

       LMMAX 16
       LM=   0 0  1 0  2 0  2 2  3 0  3 2  4 0  4 2  4 4  5 0  5 2  5 4  6 0  6 2  6 4  6 6

:CHA001: TOTAL VALENCE CHARGE INSIDE SPHERE   1 =   9.4906    (RMT=  2.3000 )
:PCS001: PARTIAL CHARGES SPHERE =  1 S,P,D,F,PX,PY,PZ,D-Z2,D-X2Y2,D-XY,D-XZ,D-YZ 
:QTL001: 1.9382 5.0251 0.4459 2.0813 1.6722 1.6727 1.6802 0.0816 0.0803 0.1007 0.0846 0.0987
        Q-s-low E-s-low   Q-p-low E-p-low   Q-d-low E-d-low   Q-f-low E-f-low
:EPL001:  1.8697 -2.1135    4.9668 -0.7895    0.0007 -0.8091    0.0002 -0.8170
        Q-s-hi  E-s-hi    Q-p-hi  E-p-hi    Q-d-hi  E-d-hi    Q-f-hi  E-f-hi 
:EPH001:  0.0685  0.4248    0.0583  0.4634    0.4452  0.4835    2.0811  0.5153

                      VXX         VYY         VZZ       UP TO R
:VZZ001:             3.47084     3.00026    -6.47109       2.300

:CHA  : TOTAL VALENCE CHARGE INSIDE UNIT CELL =      26.000000

:SUM  : SUM OF EIGENVALUES =         -13.056665206


        1.ATOM      Pr1                  14 CORE STATES
       CORE-FORCE in mRy/a.u. = |F|      Fx             Fy             Fz
:FCO001:   1.ATOM   1106.671154188964      0.000000000000      0.000000000000   1106.671154188964

:1S 001: 1S               -3067.081750864 Ry
:2S 001: 2S                -492.832012712 Ry
:2PP001: 2P*               -465.931825891 Ry
:2P 001: 2P                -430.534085907 Ry
:3S 001: 3S                -105.915807150 Ry
:3PP001: 3P*                -94.453959711 Ry
:3P 001: 3P                 -87.445863306 Ry
:3DD001: 3D*                -67.373747192 Ry
:3D 001: 3D                 -65.862077611 Ry
:4S 001: 4S                 -20.593812054 Ry
:4PP001: 4P*                -16.300987891 Ry
:4P 001: 4P                 -14.774066635 Ry
:4DD001: 4D*                 -7.708095442 Ry
:4D 001: 4D                  -7.438869755 Ry
:CINT001 Core Integral Atom   1   45.998480

       DENSITY AT NUCLEUS
        JATOM        VALENCE       SEMI-CORE          CORE           TOTAL
:RTO001:   1      646.018907        0.000000   656824.880235   657470.899142
     
       CHARGES OF NEW CHARGE DENSITY
:NTO   : INTERSTITIAL CHARGE =     7.018835
:NPC   : PW Pseudocharge     =    16.827514
:NTO001: CHARGE SPHERE  1    =    55.489062

:NEC01: NUCLEAR AND ELECTRONIC CHARGE    118.00000   117.99696
     
       CHARGES OF OLD CHARGE DENSITY
:OTO   : INTERSTITIAL CHARGE =     7.021830
:OPC   : PW Pseudocharge     =    16.834952
:OTO001: CHARGE SPHERE  1    =    55.489085

:NEC02: NUCLEAR AND ELECTRONIC CHARGE    118.00000   118.00000
     
       CONVERGENCE TEST
:DTO001: DIFFERENCE IN SPHERE  1 =  0.0000852

:DIS  :  CHARGE DISTANCE       ( 0.0000852 for atom    1 spin 1)      0.0000852
 PW Mixed is          560
 
******************************************************
* MULTISECANT MIXING VER9 RELEASE 10.4.0              *
* Standard Mode with controls                        *
* Fixed density scale                                *
* Regularization       1.000E-04                     *
* Trust Upper Limit    5.000E+00                     *
* Max Number of Memory Steps    8                    *
******************************************************
 
:PWTMP   4.4873E+02  1.9467E+02  5.5066E+02
:PLANE:  PW TOTAL      4.3177 DISTAN   1.77E-04  4.10E-03 %
:CHARG:  CLM/ATOM   1381.9385 DISTAN   5.17E-04  3.74E-05 %
 
Step History
        DMIX         DMIXT        Red     Pred      Trust     Lambda    MagRel    MagAbs     Beta
  6   1.8502E-01   1.5743E-01  1.08E+00  7.15E-01  4.36E-01  1.37E+00  4.36E-01  2.22E-01  1.00E+00
  7   1.2007E-01   1.2007E-01  2.96E-01  3.60E-01  5.33E-01  6.16E-01  3.04E-01  1.67E-01  1.00E+00
  8   9.7257E-02   9.7257E-02  6.64E-01  8.66E-01  8.74E-01  5.60E-01  2.56E-01  4.15E-02  1.00E+00
  9   2.4301E-01   2.4301E-01  7.39E-01  6.17E-01  1.16E+00  1.00E+00  5.92E-01  6.37E-02  1.00E+00
 10   1.7635E-01   1.7635E-01  2.56E-01  3.16E-01  1.55E+00  1.50E+00  1.20E-01  9.58E-03  9.47E-01
 11   2.3827E-01   2.3827E-01  3.65E-01  2.67E-01  2.07E+00  2.10E+00  3.59E-01  7.31E-03  1.00E+00
 12   1.4064E-01   1.4064E-01  4.21E-01  4.61E-01  2.76E+00  2.28E+00  1.27E-01  9.41E-04  1.00E+00
 13   3.3232E-01   3.3232E-01  5.63E-01  4.90E-01  3.68E+00  1.59E+00  7.30E-01  2.28E-03  1.00E+00
 14   2.2956E-01   2.2956E-01 -1.00E+00  3.96E-01  4.91E+00  1.00E+00  5.23E-01  9.21E-04  8.77E-01
:JACOBIANS    5.435E-01   2.815E+00
  
:NORMS:  1/Froebius, Min, Max, Used   0.5580E+00  0.4255E+00  0.9778E+00  0.7350E+00
:INFO :  Number of Memory Steps    8 Skipping    5
:INFO :  SLambda=    2.2220549337  Max    2.2220549337
:PREDicted Charge, CTotal, PW Trust    4.250E-05   8.500E-05   1.301E-04
:PREDicted DMix, Beta, BLim   1.6489E-01  9.5958E-01  4.7643E-01

Eigenvalues, unscaled except for SY+YY
   #     SY Real        SY Imag          SS             YY         SY+YY Real      SY+YY Imag
   1   1.721744E+00   0.000000E+00   1.489326E+00   2.757173E+00   6.373280E+00   0.000000E+00
   2   1.067882E+00   0.000000E+00   7.801468E-01   2.675214E+00   4.774394E+00   0.000000E+00
   3   3.300032E-01   0.000000E+00   1.685142E-01   1.311177E+00   1.995506E+00   0.000000E+00
   4   1.804963E-01   0.000000E+00   3.613197E-02   6.012384E-01   1.213039E+00   0.000000E+00
   5   9.195026E-02   0.000000E+00   1.094810E-02   4.999263E-01   1.008590E+00   0.000000E+00
   6   1.995692E-02   0.000000E+00   3.981010E-03   1.127862E-01   1.717113E-01   0.000000E+00
   7   4.736086E-03   0.000000E+00   1.232623E-03   3.867809E-02   5.191482E-02   0.000000E+00
   8   2.193657E-03   0.000000E+00   6.848385E-04   3.807513E-03   8.687485E-03   0.000000E+00
 
:INFO :  Singular value  6.381E+00 Weight  1.000E+00 Projection -1.173E-05
:INFO :  Singular value  4.793E+00 Weight  1.000E+00 Projection -1.433E-04
:INFO :  Singular value  1.997E+00 Weight  1.000E+00 Projection  5.180E-05
:INFO :  Singular value  1.214E+00 Weight  1.000E+00 Projection -9.806E-05
:INFO :  Singular value  1.005E+00 Weight  1.000E+00 Projection -1.114E-04
:INFO :  Singular value  1.714E-01 Weight  1.000E+00 Projection -6.178E-05
:INFO :  Singular value  5.194E-02 Weight  1.000E+00 Projection  4.816E-04
:INFO :  Singular value  8.673E-03 Weight  9.990E-01 Projection  3.427E-03
:RANK :  ACTIVE   8.00/8  =  99.99 % ; YY RANK   7.99/8  =  99.93 %
 
:DLIM :  Beta Active  9.390E-01
:BLIM :  VZERO Control Off
:TRUST:  Step 6.55E+00  Charge 1.14E-02 (e) CTO  3.81E-02 (e) PW  5.34E-02 (e)
:DIRM :  MEMORY  8/8  SCALE   1.000 RED  0.31 PRED  0.40 NEXT  0.69 BETA  0.94
:TRAVE:  Charge 1.49E-04 (e) CTO  2.97E-04 (e) PW  1.60E-04 (e)
:DIRP :  |MSR1|= 5.770E-05 |PRATT|= 1.769E-04 ANGLE= 106.8 DEGREES
:DIRQ :  |MSR1|= 1.523E-04 |PRATT|= 5.172E-04 ANGLE=  29.2 DEGREES
:DIRT :  |MSR1|= 1.628E-04 |PRATT|= 5.466E-04 ANGLE=  42.4 DEGREES
:MIX  :   MSE1   REGULARIZATION:  2.76E-04 GREED: 0.20311  Newton 1.00  0.2979                
     
       CHARGES OF MIXED CHARGE DENSITY
:CTO   : INTERSTITIAL CHARGE =     7.021795
:CPC   : PW Pseudocharge     =    16.835139
:CTO001: CHARGE SPHERE  1    =    55.489102

:NEC03: NUCLEAR AND ELECTRONIC CHARGE    118.00000   118.00000

PW CHANGE     H    K    L      Current       Change    Residue
:PTO001:      0    0    0  4.33239424E-02  2.767E-07 -1.813E-07
:PTO003:      0    2    0  1.26829999E-02  3.030E-08 -5.155E-07
:PTO004:     -1    1    0  6.30690473E-02  6.598E-07 -1.057E-06
:PTO005:      0    2   -1 -7.37067590E-02 -7.567E-07  1.679E-06
:PTO006:      0    0   -2 -3.81185656E-02 -4.225E-07  8.124E-07
:PTO007:     -1    1   -1 -8.09274480E-02 -1.012E-06  1.976E-06
:PTO008:      0    2   -2 -1.36760369E-02 -1.041E-07  8.067E-07
:PTO009:     -1    1   -2 -7.16322839E-02 -1.332E-06  1.321E-06
:PTO011:     -1    3    0 -1.21199488E-02 -6.655E-07 -4.667E-07
:PTO012:     -1    3   -1 -5.53920808E-02 -1.165E-06  1.694E-06
:PTO013:      0    4    0 -1.04215765E-02 -1.375E-07  6.969E-07
:PTO014:      0    2   -3  2.38015209E-02  4.172E-07 -1.051E-06

:ENE  : ********** TOTAL ENERGY IN Ry =       -36944.09965834

       TOTAL FORCE IN mRy/a.u. = |F|     Fx             Fy             Fz     with/without FOR in case.in2
:FOR001:   1.ATOM         30.556          0.000          0.000        -30.556 partial forces
       TOTAL FORCE WITH RESPECT TO GLOBAL CARTESIAN COORDINATES:
:FCA001:   1.ATOM                         0.000        -30.556          0.000 partial forces
       TOTAL FORCE WITH RESPECT TO THE GLOBAL COORDINATE SYSTEM:
:FGL001:   1.ATOM                 0.000000000   -30.555775788     0.000000000 partial forces
