
:LABEL1: Calculations in /home/ykent/GWIEN/example/Pr/aU/V13/case
:LABEL2: on didymium-2.cmpgroup.ameslab.gov at Fri Jul 10 14:12:04 CDT 2020
:LABEL3: using WIEN2k_19.1 (Release 25/6/2019) in /home/ykent/opt/src/WIEN2k_19.1
:LABEL4: using the command: run_lapw -so -i 70 -cc 0.0001

:LABEL1: Calculations in /home/ykent/GWIEN/example/Pr/aU/V13/case
:LABEL2: on didymium-2.cmpgroup.ameslab.gov at Fri Jul 10 14:18:54 CDT 2020
:LABEL3: using WIEN2k_19.1 (Release 25/6/2019) in /home/ykent/opt/src/WIEN2k_19.1
:LABEL4: using the command: run_lapw -so -i 70 -cc 0.0001
 Flat Integration
 New Mode for Coulomb Integral
 Consistent 3/8+Simpson combinations
 Extension of core to zero
 LDM version in phi
 Fifth-order quadrature in outwin


            ---------
:ITE014: 14. ITERATION
            ---------

:NATO :    1 INDEPENDENT AND    2 TOTAL ATOMS IN UNITCELL
       SUBSTANCE: aU                                                          

       LATTICE                      = CXY 
:POT  : POTENTIAL OPTION EX_LDA EC_LDA VX_LDA VC_LDA
:LAT  : LATTICE CONSTANTS=  6.10723 12.39312 10.69923    1.571    1.571    1.571
:VOL  : UNIT CELL VOLUME =     404.89996
       MODE OF CALCULATION IS       = RELA
       NON-SPINPOLARIZED CALCULATION
:IFFT  : FFT-parameters:   48   96   90 Factor: 2.00


   CONVERGENCE PARAMETER FOR PSEUDOCHARGE: NCON=  9
   MAXIMAL VALUE OF RMT(JATOM)*ABSK(NKK) : RK  =27.59658


:VKCOUL :  VK-COUL convergence: 0.260E-06
       ATOMNUMBER=  1 Pr1        VCOUL-ZERO =  0.22688E+00
:EFG001:                        EFG         =    -9.23333   *10**21  V / m**2
                               V20  TOT/SRF=    -7.99630    -0.03833
                               V22  TOT/SRF=    -0.94635    -0.00304
                               V22M TOT/SRF=     0.00000     0.00000
                               V21  TOT/SRF=     0.00000     0.00000
                               V21M TOT/SRF=     0.00000     0.00000

              3.67032    0.00000    0.00000        3.67032    0.00000    0.00000
              0.00000    5.56301    0.00000        0.00000    5.56301    0.00000
              0.00000    0.00000   -9.23333        0.00000    0.00000   -9.23333

         MAIN DIRECTIONS OF THE EFG   1.0000  0.0000  0.0000
                                      0.0000  1.0000  0.0000
                                      0.0000  0.0000  1.0000
:ANG001:  ANGLE WITH OLD X-AXIS =         0.0

:ETA001:                         ASYMM. ETA =     0.20498


     HELLMANN-FEYNMAN-FORCE IN mRy/a.u. = |F|  Fx       Fy             Fz
:FHF001:   1.ATOM   1567.029079953915      0.000000000000      0.000000000000  -1567.029079953915

:FIT001: LUSE= 13 SIGMA OF V-XC FIT FOR ATOM  1  0.5762065E-04
:FIT001: LUSE= 13 SIGMA OF V-XC FIT FOR ATOM  1  0.5762065E-04
:DEN  : DENSITY INTEGRAL  =        -14164.65390296   (Ry)
       ELS_POTENTIAL_AT Z=0 and Z=0.5:   0.80240   0.80240
       ELS_POTENTIAL_AT Y=0 and Y=0.5:   0.05380   0.05380
:VZERO:v0,v0c,v0x   0.18013   0.80240  -0.62227 v5,v5c,v5x   0.18013   0.80240  -0.62227
:VZERY:v0,v0c,v0x  -0.77581   0.05380  -0.82962 v5,v5c,v5x  -0.77581   0.05380  -0.82962
:VZERX:v0,v0c,v0x  -1.17395  -0.38614  -0.78782 v5,v5c,v5x  -1.17395  -0.38614  -0.78782
:LMAX-WF:   10   Non-Spherical LMAX:   4

          ATOMIC SPHERE DEPENDENT PARAMETERS FOR ATOM  Pr1       
:e__0001: OVERALL ENERGY PARAMETER IS    0.5645
          OVERALL BASIS SET ON ATOM IS LAPW
:E0_0001: E( 0)=    0.5645
             APW+lo
:E0_0001: E( 0)=   -1.8879   E(BOTTOM)=   -2.523   E(TOP)=   -1.253  4  5   191
             LOCAL ORBITAL
:E1_0001: E( 1)=    0.9645
             APW+lo
:E1_0001: E( 1)=   -0.4173   E(BOTTOM)=   -1.374   E(TOP)=    0.540  3  4   197
             LOCAL ORBITAL
:E3_0001: E( 3)=    0.7566   E(BOTTOM)=    0.551   E(TOP)=    0.962  0  1   123
             APW+lo
:E2_0001: E( 2)=    0.5645   E(BOTTOM)=    0.366   E(TOP)= -200.000  2 -1    79
             APW+lo

       K=   0.06250   0.00000   0.06250            1
:RKM  : MATRIX SIZE   385LOs:  40  RKM= 8.49  WEIGHT= 4.00  PGR:    
       EIGENVALUES ARE:
:EIG00001:      -1.8715301   -1.8460050   -0.6202709   -0.5053291   -0.4791181
:EIG00006:      -0.4689250   -0.4579515   -0.4578288    0.5435326    0.6566545
:EIG00011:       0.7540558    0.7570179    0.7571109    0.7608174    0.7674415
:EIG00016:       0.7812660    0.7868063    0.7871486    0.7910223    0.7938807
:EIG00021:       0.7997087    0.8033971    0.8036954    0.8130305    0.8418674
:EIG00026:       0.8601054    0.9516626    0.9601810    1.0129908    1.0383289
:EIG00031:       1.0483682    1.1677218    1.2068499    1.2651166    1.5696088
:EIG00036:       1.6072763    1.6548546    1.6909289    1.8439011    1.9027827
:EIG00041:       2.0124551    2.1063977    2.2099514    2.2274602    2.3598299
:EIG00046:       2.3806432    2.3995460    2.5076468    2.5402508    2.6584824
 
:EIG00051:       2.7128045    2.7762344    2.7954850    2.8973617    2.9437127
:EIG00056:       2.9951614    3.0178707    3.1064022    3.1720355    3.2667497
:EIG00061:       3.2963823    3.3639877    3.4869527    3.5022925    3.5455325
:EIG00066:       3.6776631    3.7132416    3.8033343    3.8053001    3.8249796
:EIG00071:       3.8288056    3.8873354    3.9295983    4.0272086    4.0388781
:EIG00076:       4.0914757    4.0941403    4.1537226    4.1815670    4.2031563
:EIG00081:       4.2212626    4.2670420    4.2766776    4.3620905    4.3900394
:EIG00086:       4.4384715    4.5009242    4.5497216    4.5870105    4.5937321
:EIG00091:       4.6268487    4.6763697    4.6950057    4.7291751    4.7389906
:EIG00096:       4.7642742    4.8261382    4.8365747    4.8739803    4.9321085
 
:EIG00101:       5.0233305    5.1406778    5.1734334    5.2568477    5.2587122
:EIG00106:       5.2845431    5.3362021    5.3929325    5.4176476    5.4288178
:EIG00111:       5.5355118    5.5818564    5.6578708    5.7357043    5.7426225
:EIG00116:       5.7841931    5.8385834    5.8466013    5.9169607    5.9510627
:EIG00121:       5.9957769    6.0115409    6.0952857    6.1068241    6.1667962
:EIG00126:       6.2551320    6.3255216    6.3326109    6.3386101    6.4228388
:EIG00131:       6.4566982    6.5054900    6.5066041    6.5360227    6.5966007
:EIG00136:       6.6656919    6.6924054    6.7163526    6.7534748    6.7759187
:EIG00141:       6.8194988    6.8549946    6.8940599    6.8970668    6.9625225
:EIG00146:       6.9726367    6.9964713    7.0688287    7.1089492    7.1184859
 
:EIG00151:       7.1659725    7.1991906    7.2414073    7.3512932    7.4036550
:EIG00156:       7.5049612    7.5764368    7.5902836    7.5922988    7.7020726
:EIG00161:       7.7640449    7.8352293    7.8700556    7.8852795    7.9402322
:EIG00166:       7.9442611    7.9470370    7.9669533    8.0512597    8.1327899
:EIG00171:       8.1435464    8.1717339    8.2043047    8.2368147
       ********************************************************

:KPT   :      NUMBER OF K-POINTS:   288
   0.0   0.0 angle (M,z), angle (M,x) deg
 
        SPIN-ORBIT EIGENVALUES:
     K=   0.06250   0.00000   0.06250            1
      MATRIX SIZE=  348   WEIGHT= 4.00
     EIGENVALUES ARE:
          -1.8715304   -1.8715304   -1.8460052   -1.8460052   -0.6894400
          -0.6894400   -0.6192230   -0.6192230   -0.4972633   -0.4972633
          -0.4078544   -0.4078544   -0.4042738   -0.4042738   -0.3913093
          -0.3913093    0.5435950    0.5435950    0.6565276    0.6565277
           0.7496792    0.7496792    0.7527560    0.7527560    0.7535221
           0.7535221    0.7570490    0.7570490    0.7626296    0.7626296
           0.7704116    0.7704116    0.7833781    0.7833781    0.7918495
           0.7918495    0.7972468    0.7972468    0.7981810    0.7981810

           0.8037104    0.8037105    0.8073579    0.8073579    0.8084629
           0.8084629    0.8172543    0.8172543    0.8429636    0.8429636
           0.8602100    0.8602100    0.9489130    0.9489130    0.9626638
           0.9626638    1.0133433    1.0133433    1.0383532    1.0383533
           1.0487628    1.0487628    1.1676136    1.1676136    1.2071203
           1.2071203    1.2652438    1.2652438    1.5698584    1.5698584
           1.6073148    1.6073148    1.6548263    1.6548263    1.6909794
           1.6909794    1.8436055    1.8436055    1.9022707    1.9022707

           2.0124838    2.0124838    2.1055003    2.1055003    2.2084658
           2.2084658    2.2283092    2.2283092    2.3601248    2.3601248
           2.3805588    2.3805588    2.3984217    2.3984217    2.5066366
           2.5066366    2.5416159    2.5416159    2.6584641    2.6584641
           2.7121667    2.7121667    2.7732509    2.7732509    2.7974010
           2.7974010    2.8972467    2.8972467    2.9446072    2.9446072
           2.9954606    2.9954606    3.0172403    3.0172403    3.1069700
           3.1069700    3.1728278    3.1728278    3.2666325    3.2666325

           3.2965739    3.2965739    3.3683799    3.3683799    3.4868087
           3.4868087    3.5023683    3.5023683    3.5457772    3.5457772
           3.6777109    3.6777109    3.7133829    3.7133829    3.8025197
           3.8025197    3.8059254    3.8059254    3.8250366    3.8250366
           3.8290486    3.8290486    3.8870340    3.8870340    3.9296782
           3.9296782    4.0258177    4.0258177    4.0404527    4.0404527
           4.0916516    4.0916516    4.0961978    4.0961978    4.1538415
           4.1538415    4.1820994    4.1820994    4.2032077    4.2032077

           4.2214559    4.2214559    4.2671131    4.2671131    4.2772507
           4.2772507    4.3621690    4.3621690    4.3901388    4.3901388
           4.4386749    4.4386749
       ********************************************************
:GAP (global)   :    0.0    Ry =     0.0   eV (metal)
:GAP (this spin):    0.0    Ry =     0.0   eV (metal)
         Bandranges (emin - emax) and occupancy:
:BAN00018:  18    0.537365    0.721098  1.00000000
:BAN00019:  19    0.642769    0.736835  1.00000000
:BAN00020:  20    0.642769    0.736835  1.00000000
:BAN00021:  21    0.676481    0.757253  1.00000000
:BAN00022:  22    0.676481    0.757253  1.00000000
:BAN00023:  23    0.728156    0.760790  0.99872540
:BAN00024:  24    0.728156    0.760790  0.99872540
:BAN00025:  25    0.739955    0.769389  0.74332637
:BAN00026:  26    0.739955    0.769389  0.74332622
:BAN00027:  27    0.755212    0.771062  0.25794844
:BAN00028:  28    0.755212    0.771062  0.25794817
:BAN00029:  29    0.761463    0.774528  0.00000000
:BAN00030:  30    0.761463    0.774528  0.00000000
:BAN00031:  31    0.766058    0.782782  0.00000000
:BAN00032:  32    0.766058    0.782782  0.00000000
:BAN00033:  33    0.773323    0.790682  0.00000000
        Energy to separate low and high energystates:    0.48736


:NOE  : NUMBER OF ELECTRONS          =   26.000

:FER  : F E R M I - ENERGY(TETRAH.M.)=   0.7600815241
:GMA  : POTENTIAL AND CHARGE CUT-OFF  12.00 Ry**.5

:POS001: ATOM   -1 X,Y,Z = 0.00000 0.89750 0.25000  MULT= 2  ZZ= 59.000  Pr1       

       LMMAX 16
       LM=   0 0  1 0  2 0  2 2  3 0  3 2  4 0  4 2  4 4  5 0  5 2  5 4  6 0  6 2  6 4  6 6

:CHA001: TOTAL VALENCE CHARGE INSIDE SPHERE   1 =   9.6365    (RMT=  2.3000 )
:PCS001: PARTIAL CHARGES SPHERE =  1 S,P,D,F,PX,PY,PZ,D-Z2,D-X2Y2,D-XY,D-XZ,D-YZ 
:QTL001: 1.9412 4.9980 0.5881 2.1087 1.6636 1.6623 1.6721 0.1109 0.1045 0.1263 0.1175 0.1289
        Q-s-low E-s-low   Q-p-low E-p-low   Q-d-low E-d-low   Q-f-low E-f-low
:EPL001:  1.8691 -1.8454    4.9286 -0.5317    0.0041 -0.5346    0.0012 -0.5481
        Q-s-hi  E-s-hi    Q-p-hi  E-p-hi    Q-d-hi  E-d-hi    Q-f-hi  E-f-hi 
:EPH001:  0.0720  0.6688    0.0694  0.7029    0.5840  0.7030    2.1075  0.7429

                      VXX         VYY         VZZ       UP TO R
:VZZ001:             3.33347     4.75383    -8.08730       2.300

:CHA  : TOTAL VALENCE CHARGE INSIDE UNIT CELL =      26.000000

:SUM  : SUM OF EIGENVALUES =          -6.591764717


        1.ATOM      Pr1                  14 CORE STATES
       CORE-FORCE in mRy/a.u. = |F|      Fx             Fy             Fz
:FCO001:   1.ATOM   1545.639883885598      0.000000000000      0.000000000000   1545.639883885598

:1S 001: 1S               -3066.839572752 Ry
:2S 001: 2S                -492.593343715 Ry
:2PP001: 2P*               -465.692136966 Ry
:2P 001: 2P                -430.294767595 Ry
:3S 001: 3S                -105.686649764 Ry
:3PP001: 3P*                -94.224376994 Ry
:3P 001: 3P                 -87.216571310 Ry
:3DD001: 3D*                -67.143232498 Ry
:3D 001: 3D                 -65.631705368 Ry
:4S 001: 4S                 -20.357636464 Ry
:4PP001: 4P*                -16.063865219 Ry
:4P 001: 4P                 -14.535660064 Ry
:4DD001: 4D*                 -7.467032312 Ry
:4D 001: 4D                  -7.197346925 Ry
:CINT001 Core Integral Atom   1   45.998504

       DENSITY AT NUCLEUS
        JATOM        VALENCE       SEMI-CORE          CORE           TOTAL
:RTO001:   1      649.039814        0.000000   656825.702057   657474.741872
     
       CHARGES OF NEW CHARGE DENSITY
:NTO   : INTERSTITIAL CHARGE =     6.727078
:NPC   : PW Pseudocharge     =    17.081758
:NTO001: CHARGE SPHERE  1    =    55.634965

:NEC01: NUCLEAR AND ELECTRONIC CHARGE    118.00000   117.99701
     
       CHARGES OF OLD CHARGE DENSITY
:OTO   : INTERSTITIAL CHARGE =     6.853776
:OPC   : PW Pseudocharge     =    17.144862
:OTO001: CHARGE SPHERE  1    =    55.573112

:NEC02: NUCLEAR AND ELECTRONIC CHARGE    118.00000   118.00000
     
       CONVERGENCE TEST
:DTO001: DIFFERENCE IN SPHERE  1 =  0.1138232

:DIS  :  CHARGE DISTANCE       ( 0.1138232 for atom    1 spin 1)      0.1138232
 PW Mixed is          421
 
******************************************************
* MULTISECANT MIXING VER9 RELEASE 10.4.0              *
* Standard Mode with controls                        *
* Fixed density scale                                *
* Regularization       1.000E-04                     *
* Trust Upper Limit    5.000E+00                     *
* Max Number of Memory Steps    8                    *
******************************************************
 
:PWTMP   3.0297E+02  1.9467E+02  4.0490E+02
:PLANE:  PW TOTAL      5.1119 DISTAN   2.26E-02  4.43E-01 %
:CHARG:  CLM/ATOM   1381.9547 DISTAN   1.70E-01  1.23E-02 %
 
Step History
        DMIX         DMIXT        Red     Pred      Trust     Lambda    MagRel    MagAbs     Beta
  1   3.5000E-02   3.5000E-02 -1.00E+00  1.00E+00 -1.00E+01  1.00E+00  3.50E-02  3.50E-02  1.00E+00
:INFO :  Note, Pratt in use
:TRUST:  Step 3.75E-02  Charge 7.50E-02 (e) CTO  2.50E-01 (e) PW  3.50E-01 (e)
:DIRM :  MEMORY  0/ 8 SCALE   1.000
Performing Pseudo Compensation
Final Pseudo Compensation Rescaling     1.00000E+00
:MIX  :   PRATT  REGULARIZATION:  1.00E-04 GREED: 0.02500                  
     
       CHARGES OF MIXED CHARGE DENSITY
:CTO   : INTERSTITIAL CHARGE =     6.850684
:CPC   : PW Pseudocharge     =    17.129398
:CTO001: CHARGE SPHERE  1    =    55.574658

:NEC03: NUCLEAR AND ELECTRONIC CHARGE    118.00000   118.00000

PW CHANGE     H    K    L      Current       Change    Residue
:PTO001:      0    0    0  5.92247080E-02 -4.583E-05 -4.426E-04
:PTO003:      0    2    0  1.55525287E-02 -1.254E-05  1.715E-05
:PTO004:     -1    1    0  7.55734211E-02 -6.850E-05 -1.039E-04
:PTO005:      0    2   -1 -8.73765519E-02  7.775E-05  2.148E-05
:PTO006:      0    0   -2 -4.52724858E-02  4.103E-05  3.755E-05
:PTO007:     -1    1   -1 -9.35588909E-02  8.692E-05  7.194E-05
:PTO008:      0    2   -2 -1.47095695E-02  1.491E-05  4.078E-05
:PTO009:     -1    1   -2 -7.49798903E-02  6.919E-05  2.170E-05
:PTO011:     -1    3    0 -1.19114500E-02  1.155E-05  4.954E-05
:PTO012:     -1    3   -1 -5.22886164E-02  4.412E-05  2.120E-05
:PTO013:      0    4    0 -9.35767662E-03  7.370E-06  6.127E-07
:PTO014:      0    2   -3  2.15702267E-02 -1.706E-05 -2.359E-05

:ENE  : ********** TOTAL ENERGY IN Ry =       -36944.28273292

       TOTAL FORCE IN mRy/a.u. = |F|     Fx             Fy             Fz     with/without FOR in case.in2
:FOR001:   1.ATOM         21.389          0.000          0.000        -21.389 partial forces
       TOTAL FORCE WITH RESPECT TO GLOBAL CARTESIAN COORDINATES:
:FCA001:   1.ATOM                         0.000        -21.389          0.000 partial forces
       TOTAL FORCE WITH RESPECT TO THE GLOBAL COORDINATE SYSTEM:
:FGL001:   1.ATOM                 0.000000000   -21.389196068     0.000000000 partial forces
 Flat Integration
 New Mode for Coulomb Integral
 Consistent 3/8+Simpson combinations
 Extension of core to zero
 LDM version in phi
 Fifth-order quadrature in outwin


            ---------
:ITE015: 15. ITERATION
            ---------

:NATO :    1 INDEPENDENT AND    2 TOTAL ATOMS IN UNITCELL
       SUBSTANCE: aU                                                          

       LATTICE                      = CXY 
:POT  : POTENTIAL OPTION EX_LDA EC_LDA VX_LDA VC_LDA
:LAT  : LATTICE CONSTANTS=  6.10723 12.39312 10.69923    1.571    1.571    1.571
:VOL  : UNIT CELL VOLUME =     404.89996
       MODE OF CALCULATION IS       = RELA
       NON-SPINPOLARIZED CALCULATION
:IFFT  : FFT-parameters:   48   96   90 Factor: 2.00


   CONVERGENCE PARAMETER FOR PSEUDOCHARGE: NCON=  9
   MAXIMAL VALUE OF RMT(JATOM)*ABSK(NKK) : RK  =27.59658


:VKCOUL :  VK-COUL convergence: 0.259E-06
       ATOMNUMBER=  1 Pr1        VCOUL-ZERO =  0.22667E+00
:EFG001:                        EFG         =    -9.20574   *10**21  V / m**2
                               V20  TOT/SRF=    -7.97241    -0.03822
                               V22  TOT/SRF=    -0.94042    -0.00299
                               V22M TOT/SRF=     0.00000     0.00000
                               V21  TOT/SRF=     0.00000     0.00000
                               V21M TOT/SRF=     0.00000     0.00000

              3.66245    0.00000    0.00000        3.66245    0.00000    0.00000
              0.00000    5.54329    0.00000        0.00000    5.54329    0.00000
              0.00000    0.00000   -9.20574        0.00000    0.00000   -9.20574

         MAIN DIRECTIONS OF THE EFG   1.0000  0.0000  0.0000
                                      0.0000  1.0000  0.0000
                                      0.0000  0.0000  1.0000
:ANG001:  ANGLE WITH OLD X-AXIS =         0.0

:ETA001:                         ASYMM. ETA =     0.20431


     HELLMANN-FEYNMAN-FORCE IN mRy/a.u. = |F|  Fx       Fy             Fz
:FHF001:   1.ATOM   1566.195347451517      0.000000000000      0.000000000000  -1566.195347451517

:FIT001: LUSE= 13 SIGMA OF V-XC FIT FOR ATOM  1  0.5744311E-04
:FIT001: LUSE= 13 SIGMA OF V-XC FIT FOR ATOM  1  0.5744311E-04
:DEN  : DENSITY INTEGRAL  =        -14164.96644407   (Ry)
       ELS_POTENTIAL_AT Z=0 and Z=0.5:   0.80189   0.80189
       ELS_POTENTIAL_AT Y=0 and Y=0.5:   0.05375   0.05375
:VZERO:v0,v0c,v0x   0.17973   0.80189  -0.62217 v5,v5c,v5x   0.17973   0.80189  -0.62217
:VZERY:v0,v0c,v0x  -0.77571   0.05375  -0.82945 v5,v5c,v5x  -0.77571   0.05375  -0.82945
:VZERX:v0,v0c,v0x  -1.17350  -0.38585  -0.78765 v5,v5c,v5x  -1.17350  -0.38585  -0.78765
:LMAX-WF:   10   Non-Spherical LMAX:   4

          ATOMIC SPHERE DEPENDENT PARAMETERS FOR ATOM  Pr1       
:e__0001: OVERALL ENERGY PARAMETER IS    0.5616
          OVERALL BASIS SET ON ATOM IS LAPW
:E0_0001: E( 0)=    0.5616
             APW+lo
:E0_0001: E( 0)=   -1.8870   E(BOTTOM)=   -2.522   E(TOP)=   -1.252  4  5   194
             LOCAL ORBITAL
:E1_0001: E( 1)=    0.9616
             APW+lo
:E1_0001: E( 1)=   -0.4166   E(BOTTOM)=   -1.374   E(TOP)=    0.541  3  4   198
             LOCAL ORBITAL
:E3_0001: E( 3)=    0.7585   E(BOTTOM)=    0.553   E(TOP)=    0.964  0  1   122
             APW+lo
:E2_0001: E( 2)=    0.5616   E(BOTTOM)=    0.366   E(TOP)= -200.000  2 -1    82
             APW+lo

       K=   0.06250   0.00000   0.06250            1
:RKM  : MATRIX SIZE   385LOs:  40  RKM= 8.49  WEIGHT= 4.00  PGR:    
       EIGENVALUES ARE:
:EIG00001:      -1.8706947   -1.8451384   -0.6198040   -0.5047603   -0.4785232
:EIG00006:      -0.4682695   -0.4572840   -0.4571933    0.5433540    0.6565611
:EIG00011:       0.7554739    0.7585864    0.7587032    0.7623605    0.7689747
:EIG00016:       0.7830436    0.7886017    0.7889588    0.7928288    0.7956186
:EIG00021:       0.8015593    0.8051294    0.8053705    0.8148626    0.8425722
:EIG00026:       0.8604863    0.9519284    0.9602731    1.0131020    1.0384306
:EIG00031:       1.0485081    1.1678605    1.2070710    1.2653662    1.5696012
:EIG00036:       1.6073268    1.6547931    1.6910362    1.8437968    1.9026813
:EIG00041:       2.0124181    2.1063459    2.2099122    2.2274637    2.3598748
:EIG00046:       2.3806132    2.3994041    2.5076058    2.5401543    2.6584127
 
:EIG00051:       2.7127697    2.7762621    2.7954314    2.8974002    2.9437819
:EIG00056:       2.9950709    3.0177908    3.1066414    3.1720092    3.2667767
:EIG00061:       3.2962831    3.3640935    3.4870093    3.5020867    3.5453906
:EIG00066:       3.6776760    3.7130802    3.8031296    3.8052407    3.8248467
:EIG00071:       3.8287579    3.8872550    3.9294723    4.0270649    4.0387292
:EIG00076:       4.0912836    4.0940961    4.1535976    4.1813970    4.2029725
:EIG00081:       4.2211523    4.2668809    4.2764858    4.3619193    4.3897879
:EIG00086:       4.4383984    4.5006218    4.5495215    4.5869482    4.5935992
:EIG00091:       4.6266364    4.6761207    4.6949353    4.7290761    4.7389924
:EIG00096:       4.7640358    4.8259064    4.8363571    4.8738787    4.9319052
 
:EIG00101:       5.0232092    5.1405059    5.1733107    5.2566384    5.2584852
:EIG00106:       5.2844144    5.3359864    5.3927172    5.4175310    5.4285838
:EIG00111:       5.5353160    5.5816180    5.6579326    5.7356795    5.7424715
:EIG00116:       5.7839785    5.8384568    5.8465198    5.9169774    5.9510023
:EIG00121:       5.9957940    6.0113842    6.0952768    6.1066513    6.1667031
:EIG00126:       6.2549656    6.3254133    6.3324477    6.3385458    6.4226778
:EIG00131:       6.4566488    6.5053488    6.5064117    6.5360178    6.5965836
:EIG00136:       6.6654958    6.6923051    6.7161235    6.7532765    6.7757907
:EIG00141:       6.8193839    6.8547588    6.8940145    6.8968824    6.9624436
:EIG00146:       6.9724434    6.9963559    7.0686832    7.1087224    7.1187784
 
:EIG00151:       7.1657236    7.1990718    7.2411740    7.3512792    7.4034858
:EIG00156:       7.5049060    7.5762705    7.5900958    7.5921601    7.7019195
:EIG00161:       7.7638839    7.8350704    7.8700012    7.8851567    7.9401911
:EIG00166:       7.9441453    7.9469914    7.9668819    8.0511656    8.1328175
:EIG00171:       8.1435258    8.1717105    8.2042332    8.2368145
       ********************************************************

:KPT   :      NUMBER OF K-POINTS:   288
   0.0   0.0 angle (M,z), angle (M,x) deg
 
        SPIN-ORBIT EIGENVALUES:
     K=   0.06250   0.00000   0.06250            1
      MATRIX SIZE=  348   WEIGHT= 4.00
     EIGENVALUES ARE:
          -1.8706950   -1.8706950   -1.8451386   -1.8451386   -0.6888704
          -0.6888704   -0.6185428   -0.6185428   -0.4967392   -0.4967392
          -0.4072473   -0.4072473   -0.4036767   -0.4036767   -0.3906950
          -0.3906950    0.5434165    0.5434165    0.6564363    0.6564363
           0.7511764    0.7511764    0.7543691    0.7543691    0.7551283
           0.7551283    0.7586479    0.7586479    0.7642442    0.7642442
           0.7722302    0.7722302    0.7849760    0.7849760    0.7935987
           0.7935987    0.7990218    0.7990218    0.7999280    0.7999280

           0.8054263    0.8054264    0.8090215    0.8090216    0.8102042
           0.8102042    0.8190773    0.8190773    0.8437318    0.8437318
           0.8606227    0.8606227    0.9491741    0.9491741    0.9627741
           0.9627741    1.0134547    1.0134547    1.0384587    1.0384588
           1.0489001    1.0489001    1.1677532    1.1677532    1.2073408
           1.2073408    1.2654930    1.2654931    1.5698512    1.5698512
           1.6073653    1.6073653    1.6547651    1.6547651    1.6910864
           1.6910864    1.8435016    1.8435016    1.9021693    1.9021693

           2.0124470    2.0124470    2.1054493    2.1054493    2.2084316
           2.2084316    2.2283074    2.2283074    2.3601687    2.3601687
           2.3805284    2.3805284    2.3982826    2.3982826    2.5065920
           2.5065920    2.5415239    2.5415239    2.6583955    2.6583955
           2.7121311    2.7121311    2.7732698    2.7732698    2.7973559
           2.7973559    2.8972845    2.8972845    2.9446710    2.9446710
           2.9953704    2.9953704    3.0171637    3.0171637    3.1072063
           3.1072063    3.1728029    3.1728029    3.2666618    3.2666618

           3.2964765    3.2964765    3.3684808    3.3684808    3.4868647
           3.4868647    3.5021629    3.5021629    3.5456357    3.5456357
           3.6777236    3.6777236    3.7132217    3.7132217    3.8023380
           3.8023380    3.8058439    3.8058439    3.8249100    3.8249100
           3.8289935    3.8289935    3.8869518    3.8869518    3.9295522
           3.9295522    4.0256730    4.0256730    4.0403060    4.0403060
           4.0915184    4.0915184    4.0960944    4.0960944    4.1537163
           4.1537163    4.1819299    4.1819299    4.2030243    4.2030243

           4.2213444    4.2213444    4.2669520    4.2669520    4.2770594
           4.2770594    4.3619979    4.3619979    4.3898874    4.3898874
           4.4386014    4.4386014
       ********************************************************
:GAP (global)   :    0.0    Ry =     0.0   eV (metal)
:GAP (this spin):    0.0    Ry =     0.0   eV (metal)
         Bandranges (emin - emax) and occupancy:
:BAN00018:  18    0.537184    0.721819  1.00000000
:BAN00019:  19    0.642650    0.737806  1.00000000
:BAN00020:  20    0.642650    0.737806  1.00000000
:BAN00021:  21    0.676483    0.758869  1.00000000
:BAN00022:  22    0.676483    0.758869  1.00000000
:BAN00023:  23    0.728686    0.762399  0.99867755
:BAN00024:  24    0.728686    0.762399  0.99867755
:BAN00025:  25    0.741009    0.771168  0.74441928
:BAN00026:  26    0.741009    0.771168  0.74441913
:BAN00027:  27    0.756498    0.772873  0.25690333
:BAN00028:  28    0.756498    0.772873  0.25690315
:BAN00029:  29    0.763155    0.776009  0.00000000
:BAN00030:  30    0.763155    0.776009  0.00000000
:BAN00031:  31    0.767732    0.784325  0.00000000
:BAN00032:  32    0.767732    0.784325  0.00000000
:BAN00033:  33    0.775062    0.792215  0.00000000
        Energy to separate low and high energystates:    0.48718


:NOE  : NUMBER OF ELECTRONS          =   26.000

:FER  : F E R M I - ENERGY(TETRAH.M.)=   0.7616663440
:GMA  : POTENTIAL AND CHARGE CUT-OFF  12.00 Ry**.5

:POS001: ATOM   -1 X,Y,Z = 0.00000 0.89750 0.25000  MULT= 2  ZZ= 59.000  Pr1       

       LMMAX 16
       LM=   0 0  1 0  2 0  2 2  3 0  3 2  4 0  4 2  4 4  5 0  5 2  5 4  6 0  6 2  6 4  6 6

:CHA001: TOTAL VALENCE CHARGE INSIDE SPHERE   1 =   9.6160    (RMT=  2.3000 )
:PCS001: PARTIAL CHARGES SPHERE =  1 S,P,D,F,PX,PY,PZ,D-Z2,D-X2Y2,D-XY,D-XZ,D-YZ 
:QTL001: 1.9414 4.9982 0.5952 2.0806 1.6636 1.6623 1.6723 0.1124 0.1061 0.1273 0.1189 0.1303
        Q-s-low E-s-low   Q-p-low E-p-low   Q-d-low E-d-low   Q-f-low E-f-low
:EPL001:  1.8690 -1.8445    4.9277 -0.5311    0.0041 -0.5341    0.0012 -0.5476
        Q-s-hi  E-s-hi    Q-p-hi  E-p-hi    Q-d-hi  E-d-hi    Q-f-hi  E-f-hi 
:EPH001:  0.0724  0.6692    0.0705  0.7038    0.5911  0.7038    2.0794  0.7443

                      VXX         VYY         VZZ       UP TO R
:VZZ001:             3.46685     4.90077    -8.36761       2.300

:CHA  : TOTAL VALENCE CHARGE INSIDE UNIT CELL =      26.000000

:SUM  : SUM OF EIGENVALUES =          -6.574447402


        1.ATOM      Pr1                  14 CORE STATES
       CORE-FORCE in mRy/a.u. = |F|      Fx             Fy             Fz
:FCO001:   1.ATOM   1544.941785765361      0.000000000000      0.000000000000   1544.941785765361

:1S 001: 1S               -3066.835918845 Ry
:2S 001: 2S                -492.589679303 Ry
:2PP001: 2P*               -465.688474759 Ry
:2P 001: 2P                -430.291104661 Ry
:3S 001: 3S                -105.683068656 Ry
:3PP001: 3P*                -94.220787854 Ry
:3P 001: 3P                 -87.212997251 Ry
:3DD001: 3D*                -67.139631103 Ry
:3D 001: 3D                 -65.628107667 Ry
:4S 001: 4S                 -20.354858580 Ry
:4PP001: 4P*                -16.061137858 Ry
:4P 001: 4P                 -14.533010931 Ry
:4DD001: 4D*                 -7.464521762 Ry
:4D 001: 4D                  -7.194863080 Ry
:CINT001 Core Integral Atom   1   45.998502

       DENSITY AT NUCLEUS
        JATOM        VALENCE       SEMI-CORE          CORE           TOTAL
:RTO001:   1      649.062392        0.000000   656825.536793   657474.599185
     
       CHARGES OF NEW CHARGE DENSITY
:NTO   : INTERSTITIAL CHARGE =     6.768069
:NPC   : PW Pseudocharge     =    17.094799
:NTO001: CHARGE SPHERE  1    =    55.614467

:NEC01: NUCLEAR AND ELECTRONIC CHARGE    118.00000   117.99700
     
       CHARGES OF OLD CHARGE DENSITY
:OTO   : INTERSTITIAL CHARGE =     6.850684
:OPC   : PW Pseudocharge     =    17.129398
:OTO001: CHARGE SPHERE  1    =    55.574658

:NEC02: NUCLEAR AND ELECTRONIC CHARGE    118.00000   118.00000
     
       CONVERGENCE TEST
:DTO001: DIFFERENCE IN SPHERE  1 =  0.0760299

:DIS  :  CHARGE DISTANCE       ( 0.0760299 for atom    1 spin 1)      0.0760299
 PW Mixed is          421
 
******************************************************
* MULTISECANT MIXING VER9 RELEASE 10.4.0              *
* Slow Mode, cautious                                *
* Fixed density scale                                *
* Regularization       1.000E-04                     *
* Step Trust Radius    0.75000                       *
* Trust Upper Limit    2.000E+00                     *
* Max Number of Memory Steps   12                    *
******************************************************
 
:PWTMP   3.0297E+02  1.9467E+02  4.0490E+02
:PLANE:  PW TOTAL      5.1075 DISTAN   1.36E-02  2.67E-01 %
:CHARG:  CLM/ATOM   1381.9549 DISTAN   1.18E-01  8.57E-03 %
 
Step History
        DMIX         DMIXT        Red     Pred      Trust     Lambda    MagRel    MagAbs     Beta
  1   3.5000E-02   3.5000E-02 -1.00E+00  1.00E+00 -1.00E+01  1.00E+00  3.50E-02  3.50E-02  1.00E+00
  2   2.5000E-02   2.5000E-02 -1.00E+00  1.00E+00 -1.00E+01  1.00E+00  2.50E-02  4.28E-03  1.00E+00
:JACOBIANS    5.714E-03   3.665E-02
  
:TRUST:  Step 2.77E-02  Charge 7.50E-02 (e) CTO  2.50E-01 (e) PW  3.50E-01 (e)
:DIRM :  MEMORY  1/12 SCALE   1.000
:MIX  :   PRATT  REGULARIZATION:  1.00E-04 GREED: 0.02774  Expand 1.11  0.0277                
     
       CHARGES OF MIXED CHARGE DENSITY
:CTO   : INTERSTITIAL CHARGE =     6.844513
:CPC   : PW Pseudocharge     =    17.098544
:CTO001: CHARGE SPHERE  1    =    55.577743

:NEC03: NUCLEAR AND ELECTRONIC CHARGE    118.00000   118.00000

PW CHANGE     H    K    L      Current       Change    Residue
:PTO001:      0    0    0  5.91332670E-02 -9.144E-05 -2.634E-04
:PTO003:      0    2    0  1.55275073E-02 -2.502E-05  1.794E-05
:PTO004:     -1    1    0  7.54367467E-02 -1.367E-04 -2.827E-05
:PTO005:      0    2   -1 -8.72214286E-02  1.551E-04 -4.696E-05
:PTO006:      0    0   -2 -4.51906245E-02  8.186E-05 -3.128E-06
:PTO007:     -1    1   -1 -9.33854631E-02  1.734E-04 -8.395E-07
:PTO008:      0    2   -2 -1.46798242E-02  2.975E-05  2.294E-05
:PTO009:     -1    1   -2 -7.48418329E-02  1.381E-04 -3.452E-05
:PTO011:     -1    3    0 -1.18884131E-02  2.304E-05  3.089E-05
:PTO012:     -1    3   -1 -5.22005804E-02  8.804E-05 -1.365E-05
:PTO013:      0    4    0 -9.34297286E-03  1.470E-05 -2.365E-06
:PTO014:      0    2   -3  2.15361822E-02 -3.404E-05 -4.612E-06

:ENE  : ********** TOTAL ENERGY IN Ry =       -36944.28236952

       TOTAL FORCE IN mRy/a.u. = |F|     Fx             Fy             Fz     with/without FOR in case.in2
:FOR001:   1.ATOM         21.254          0.000          0.000        -21.254 partial forces
       TOTAL FORCE WITH RESPECT TO GLOBAL CARTESIAN COORDINATES:
:FCA001:   1.ATOM                         0.000        -21.254          0.000 partial forces
       TOTAL FORCE WITH RESPECT TO THE GLOBAL COORDINATE SYSTEM:
:FGL001:   1.ATOM                 0.000000000   -21.253561686     0.000000000 partial forces
 Flat Integration
 New Mode for Coulomb Integral
 Consistent 3/8+Simpson combinations
 Extension of core to zero
 LDM version in phi
 Fifth-order quadrature in outwin


            ---------
:ITE016: 16. ITERATION
            ---------

:NATO :    1 INDEPENDENT AND    2 TOTAL ATOMS IN UNITCELL
       SUBSTANCE: aU                                                          

       LATTICE                      = CXY 
:POT  : POTENTIAL OPTION EX_LDA EC_LDA VX_LDA VC_LDA
:LAT  : LATTICE CONSTANTS=  6.10723 12.39312 10.69923    1.571    1.571    1.571
:VOL  : UNIT CELL VOLUME =     404.89996
       MODE OF CALCULATION IS       = RELA
       NON-SPINPOLARIZED CALCULATION
:IFFT  : FFT-parameters:   48   96   90 Factor: 2.00


   CONVERGENCE PARAMETER FOR PSEUDOCHARGE: NCON=  9
   MAXIMAL VALUE OF RMT(JATOM)*ABSK(NKK) : RK  =27.59658


:VKCOUL :  VK-COUL convergence: 0.258E-06
       ATOMNUMBER=  1 Pr1        VCOUL-ZERO =  0.22627E+00
:EFG001:                        EFG         =    -9.15070   *10**21  V / m**2
                               V20  TOT/SRF=    -7.92474    -0.03801
                               V22  TOT/SRF=    -0.92860    -0.00290
                               V22M TOT/SRF=     0.00000     0.00000
                               V21  TOT/SRF=     0.00000     0.00000
                               V21M TOT/SRF=     0.00000     0.00000

              3.64675    0.00000    0.00000        3.64675    0.00000    0.00000
              0.00000    5.50394    0.00000        0.00000    5.50394    0.00000
              0.00000    0.00000   -9.15070        0.00000    0.00000   -9.15070

         MAIN DIRECTIONS OF THE EFG   1.0000  0.0000  0.0000
                                      0.0000  1.0000  0.0000
                                      0.0000  0.0000  1.0000
:ANG001:  ANGLE WITH OLD X-AXIS =         0.0

:ETA001:                         ASYMM. ETA =     0.20296


     HELLMANN-FEYNMAN-FORCE IN mRy/a.u. = |F|  Fx       Fy             Fz
:FHF001:   1.ATOM   1564.531886766492      0.000000000000      0.000000000000  -1564.531886766492

:FIT001: LUSE= 13 SIGMA OF V-XC FIT FOR ATOM  1  0.5708952E-04
:FIT001: LUSE= 13 SIGMA OF V-XC FIT FOR ATOM  1  0.5708952E-04
:DEN  : DENSITY INTEGRAL  =        -14165.59005626   (Ry)
       ELS_POTENTIAL_AT Z=0 and Z=0.5:   0.80088   0.80088
       ELS_POTENTIAL_AT Y=0 and Y=0.5:   0.05363   0.05363
:VZERO:v0,v0c,v0x   0.17892   0.80088  -0.62196 v5,v5c,v5x   0.17892   0.80088  -0.62196
:VZERY:v0,v0c,v0x  -0.77549   0.05363  -0.82912 v5,v5c,v5x  -0.77549   0.05363  -0.82912
:VZERX:v0,v0c,v0x  -1.17260  -0.38527  -0.78733 v5,v5c,v5x  -1.17260  -0.38527  -0.78733
:LMAX-WF:   10   Non-Spherical LMAX:   4

          ATOMIC SPHERE DEPENDENT PARAMETERS FOR ATOM  Pr1       
:e__0001: OVERALL ENERGY PARAMETER IS    0.5616
          OVERALL BASIS SET ON ATOM IS LAPW
:E0_0001: E( 0)=    0.5616
             APW+lo
:E0_0001: E( 0)=   -1.8851   E(BOTTOM)=   -2.521   E(TOP)=   -1.250  4  5   197
             LOCAL ORBITAL
:E1_0001: E( 1)=    0.9616
             APW+lo
:E1_0001: E( 1)=   -0.4150   E(BOTTOM)=   -1.373   E(TOP)=    0.543  3  4   200
             LOCAL ORBITAL
:E3_0001: E( 3)=    0.7622   E(BOTTOM)=    0.556   E(TOP)=    0.969  0  1   122
             APW+lo
:E2_0001: E( 2)=    0.5616   E(BOTTOM)=    0.367   E(TOP)= -200.000  2 -1    78
             APW+lo

       K=   0.06250   0.00000   0.06250            1
:RKM  : MATRIX SIZE   385LOs:  40  RKM= 8.49  WEIGHT= 4.00  PGR:    
       EIGENVALUES ARE:
:EIG00001:      -1.8690285   -1.8434099   -0.6188736   -0.5036263   -0.4773368
:EIG00006:      -0.4669623   -0.4559530   -0.4559259    0.5429979    0.6563702
:EIG00011:       0.7582585    0.7617014    0.7618731    0.7654180    0.7720204
:EIG00016:       0.7865847    0.7921787    0.7925656    0.7964256    0.7990796
:EIG00021:       0.8052465    0.8085589    0.8086713    0.8185189    0.8440508
:EIG00026:       0.8612974    0.9524747    0.9604599    1.0133262    1.0386352
:EIG00031:       1.0487890    1.1681366    1.2075104    1.2658602    1.5695893
:EIG00036:       1.6074260    1.6546716    1.6912423    1.8435883    1.9024767
:EIG00041:       2.0123419    2.1062362    2.2098168    2.2274567    2.3599136
:EIG00046:       2.3805283    2.3991048    2.5075045    2.5399283    2.6582426
 
:EIG00051:       2.7126575    2.7762812    2.7952806    2.8974081    2.9438609
:EIG00056:       2.9948431    3.0176126    3.1069795    3.1719167    3.2668027
:EIG00061:       3.2959976    3.3642254    3.4869996    3.5016288    3.5450526
:EIG00066:       3.6775816    3.7126873    3.8026976    3.8050609    3.8245386
:EIG00071:       3.8285943    3.8870278    3.9291681    4.0267507    4.0383839
:EIG00076:       4.0908652    4.0939067    4.1532481    4.1810231    4.2025704
:EIG00081:       4.2208623    4.2664983    4.2760665    4.3615130    4.3892336
:EIG00086:       4.4381995    4.4999876    4.5490816    4.5866644    4.5932904
:EIG00091:       4.6261453    4.6755816    4.6946601    4.7287754    4.7388369
:EIG00096:       4.7635166    4.8254037    4.8358605    4.8735657    4.9314341
 
:EIG00101:       5.0228664    5.1400540    5.1729847    5.2561383    5.2579516
:EIG00106:       5.2840458    5.3354722    5.3922094    5.4171848    5.4280579
:EIG00111:       5.5348251    5.5810850    5.6578002    5.7354157    5.7420373
:EIG00116:       5.7834600    5.8380957    5.8462015    5.9167398    5.9506498
:EIG00121:       5.9955713    6.0108987    6.0949710    6.1061984    6.1663452
:EIG00126:       6.2544851    6.3250342    6.3319971    6.3382404    6.4222439
:EIG00131:       6.4563099    6.5049148    6.5059320    6.5357659    6.5962987
:EIG00136:       6.6649837    6.6918728    6.7155810    6.7527697    6.7753567
:EIG00141:       6.8189724    6.8541646    6.8936238    6.8964199    6.9620171
:EIG00146:       6.9719175    6.9959052    7.0682043    7.1081483    7.1187141
 
:EIG00151:       7.1651287    7.1986007    7.2405920    7.3509821    7.4029906
:EIG00156:       7.5045663    7.5757673    7.5895558    7.5917043    7.7014329
:EIG00161:       7.7633854    7.8346054    7.8696753    7.8846965    7.9398606
:EIG00166:       7.9436737    7.9466175    7.9665286    8.0507370    8.1324892
:EIG00171:       8.1431208    8.1713154    8.2038069    8.2364574
       ********************************************************

:KPT   :      NUMBER OF K-POINTS:   288
   0.0   0.0 angle (M,z), angle (M,x) deg
 
        SPIN-ORBIT EIGENVALUES:
     K=   0.06250   0.00000   0.06250            1
      MATRIX SIZE=  348   WEIGHT= 4.00
     EIGENVALUES ARE:
          -1.8690288   -1.8690288   -1.8434101   -1.8434101   -0.6877362
          -0.6877362   -0.6171873   -0.6171873   -0.4956943   -0.4956943
          -0.4060368   -0.4060368   -0.4024860   -0.4024860   -0.3894700
          -0.3894700    0.5430606    0.5430606    0.6562489    0.6562489
           0.7541255    0.7541255    0.7575759    0.7575759    0.7583228
           0.7583228    0.7618182    0.7618182    0.7674463    0.7674463
           0.7758542    0.7758542    0.7881509    0.7881509    0.7970785
           0.7970785    0.8025546    0.8025546    0.8034055    0.8034055

           0.8088239    0.8088239    0.8123039    0.8123039    0.8136699
           0.8136699    0.8227144    0.8227144    0.8453424    0.8453424
           0.8615035    0.8615035    0.9497077    0.9497077    0.9630013
           0.9630013    1.0136797    1.0136797    1.0386706    1.0386707
           1.0491758    1.0491758    1.1680305    1.1680305    1.2077789
           1.2077789    1.2659861    1.2659861    1.5698402    1.5698402
           1.6074643    1.6074643    1.6546442    1.6546442    1.6912917
           1.6912917    1.8432940    1.8432940    1.9019646    1.9019646

           2.0123710    2.0123710    2.1053411    2.1053411    2.2083462
           2.2083462    2.2282892    2.2282892    2.3602059    2.3602059
           2.3804425    2.3804425    2.3979880    2.3979880    2.5064830
           2.5064830    2.5413066    2.5413066    2.6582269    2.6582269
           2.7120183    2.7120183    2.7732679    2.7732679    2.7972241
           2.7972241    2.8972911    2.8972911    2.9447407    2.9447407
           2.9951437    2.9951437    3.0169901    3.0169901    3.1075391
           3.1075391    3.1727133    3.1727133    3.2666894    3.2666894

           3.2961955    3.2961955    3.3686055    3.3686055    3.4868539
           3.4868539    3.5017057    3.5017057    3.5452986    3.5452986
           3.6776286    3.6776286    3.7128295    3.7128295    3.8019423
           3.8019423    3.8056286    3.8056286    3.8246135    3.8246135
           3.8288171    3.8288171    3.8867211    3.8867211    3.9292480
           3.9292480    4.0253546    4.0253546    4.0399668    4.0399668
           4.0911831    4.0911831    4.0958217    4.0958217    4.1533669
           4.1533669    4.1815571    4.1815571    4.2026231    4.2026231

           4.2210525    4.2210525    4.2665698    4.2665698    4.2766408
           4.2766409    4.3615918    4.3615918    4.3893334    4.3893334
           4.4384020    4.4384020    4.4999995    4.4999995
       ********************************************************
:GAP (global)   :    0.0    Ry =     0.0   eV (metal)
:GAP (this spin):    0.0    Ry =     0.0   eV (metal)
         Bandranges (emin - emax) and occupancy:
:BAN00018:  18    0.536823    0.723189  1.00000000
:BAN00019:  19    0.642412    0.739677  1.00000000
:BAN00020:  20    0.642412    0.739677  1.00000000
:BAN00021:  21    0.676473    0.762074  1.00000000
:BAN00022:  22    0.676473    0.762074  1.00000000
:BAN00023:  23    0.729700    0.765567  0.99867078
:BAN00024:  24    0.729700    0.765567  0.99867078
:BAN00025:  25    0.743067    0.774711  0.74545254
:BAN00026:  26    0.743067    0.774711  0.74545236
:BAN00027:  27    0.759042    0.776478  0.25587687
:BAN00028:  28    0.759042    0.776478  0.25587667
:BAN00029:  29    0.766532    0.779015  0.00000000
:BAN00030:  30    0.766532    0.779015  0.00000000
:BAN00031:  31    0.770976    0.787385  0.00000000
:BAN00032:  32    0.770976    0.787385  0.00000000
:BAN00033:  33    0.778521    0.795203  0.00000000
        Energy to separate low and high energystates:    0.48682


:NOE  : NUMBER OF ELECTRONS          =   26.000

:FER  : F E R M I - ENERGY(TETRAH.M.)=   0.7648246501
:GMA  : POTENTIAL AND CHARGE CUT-OFF  12.00 Ry**.5

:POS001: ATOM   -1 X,Y,Z = 0.00000 0.89750 0.25000  MULT= 2  ZZ= 59.000  Pr1       

       LMMAX 16
       LM=   0 0  1 0  2 0  2 2  3 0  3 2  4 0  4 2  4 4  5 0  5 2  5 4  6 0  6 2  6 4  6 6

:CHA001: TOTAL VALENCE CHARGE INSIDE SPHERE   1 =   9.5758    (RMT=  2.3000 )
:PCS001: PARTIAL CHARGES SPHERE =  1 S,P,D,F,PX,PY,PZ,D-Z2,D-X2Y2,D-XY,D-XZ,D-YZ 
:QTL001: 1.9419 4.9987 0.6092 2.0254 1.6636 1.6624 1.6727 0.1155 0.1094 0.1293 0.1218 0.1332
        Q-s-low E-s-low   Q-p-low E-p-low   Q-d-low E-d-low   Q-f-low E-f-low
:EPL001:  1.8688 -1.8428    4.9258 -0.5300    0.0041 -0.5329    0.0012 -0.5465
        Q-s-hi  E-s-hi    Q-p-hi  E-p-hi    Q-d-hi  E-d-hi    Q-f-hi  E-f-hi 
:EPH001:  0.0731  0.6698    0.0729  0.7054    0.6050  0.7053    2.0242  0.7469

                      VXX         VYY         VZZ       UP TO R
:VZZ001:             3.73591     5.18202    -8.91793       2.300

:CHA  : TOTAL VALENCE CHARGE INSIDE UNIT CELL =      26.000000

:SUM  : SUM OF EIGENVALUES =          -6.540276915


        1.ATOM      Pr1                  14 CORE STATES
       CORE-FORCE in mRy/a.u. = |F|      Fx             Fy             Fz
:FCO001:   1.ATOM   1543.548910402450      0.000000000000      0.000000000000   1543.548910402450

:1S 001: 1S               -3066.828628580 Ry
:2S 001: 2S                -492.582368077 Ry
:2PP001: 2P*               -465.681167933 Ry
:2P 001: 2P                -430.283796387 Ry
:3S 001: 3S                -105.675923640 Ry
:3PP001: 3P*                -94.213626811 Ry
:3P 001: 3P                 -87.205866298 Ry
:3DD001: 3D*                -67.132445610 Ry
:3D 001: 3D                 -65.620929546 Ry
:4S 001: 4S                 -20.349316222 Ry
:4PP001: 4P*                -16.055696330 Ry
:4P 001: 4P                 -14.527725501 Ry
:4DD001: 4D*                 -7.459512959 Ry
:4D 001: 4D                  -7.189907571 Ry
:CINT001 Core Integral Atom   1   45.998498

       DENSITY AT NUCLEUS
        JATOM        VALENCE       SEMI-CORE          CORE           TOTAL
:RTO001:   1      649.093036        0.000000   656825.207034   657474.300070
     
       CHARGES OF NEW CHARGE DENSITY
:NTO   : INTERSTITIAL CHARGE =     6.848419
:NPC   : PW Pseudocharge     =    17.120380
:NTO001: CHARGE SPHERE  1    =    55.574288

:NEC01: NUCLEAR AND ELECTRONIC CHARGE    118.00000   117.99700
     
       CHARGES OF OLD CHARGE DENSITY
:OTO   : INTERSTITIAL CHARGE =     6.844513
:OPC   : PW Pseudocharge     =    17.098544
:OTO001: CHARGE SPHERE  1    =    55.577743

:NEC02: NUCLEAR AND ELECTRONIC CHARGE    118.00000   118.00000
     
       CONVERGENCE TEST
:DTO001: DIFFERENCE IN SPHERE  1 =  0.0083043

:DIS  :  CHARGE DISTANCE       ( 0.0083043 for atom    1 spin 1)      0.0083043
 PW Mixed is          421
 
******************************************************
* MULTISECANT MIXING VER9 RELEASE 10.4.0              *
* Slow Mode, cautious                                *
* Fixed density scale                                *
* Regularization       1.000E-04                     *
* Step Trust Radius    0.75000                       *
* Trust Upper Limit    2.000E+00                     *
* Max Number of Memory Steps   12                    *
******************************************************
 
:PWTMP   3.0297E+02  1.9467E+02  4.0490E+02
:PLANE:  PW TOTAL      5.0988 DISTAN   9.45E-03  1.85E-01 %
:CHARG:  CLM/ATOM   1381.9554 DISTAN   4.58E-02  3.31E-03 %
 
Step History
        DMIX         DMIXT        Red     Pred      Trust     Lambda    MagRel    MagAbs     Beta
  1   3.5000E-02   3.5000E-02 -1.00E+00  1.00E+00 -1.00E+01  1.00E+00  3.50E-02  3.50E-02  1.00E+00
  2   2.5000E-02   2.5000E-02  6.97E-01  1.00E+00 -1.00E+01  1.00E+00  2.50E-02  4.28E-03  1.00E+00
  3   2.7740E-02   2.7740E-02 -1.00E+00  1.00E+00 -1.00E+01  1.00E+00  2.77E-02  3.31E-03  1.00E+00
:JACOBIANS    8.690E-03   5.548E-02
  
:NORMS:  1/Froebius, Min, Max, Used   0.1142E+00  0.5776E-01  0.1155E+00  0.1142E+00
:INFO :  Number of Memory Steps    2 Skipping    0
:INFO :  SLambda=    3.0000000000  Max    3.0000000000
:PREDicted Charge, CTotal, PW Trust    3.236E-03   6.473E-03   1.867E-02
:PREDicted DMix, Beta, BLim   6.4640E-02  8.5947E-01  3.5449E-01

Eigenvalues, unscaled except for SY+YY
   #     SY Real        SY Imag          SS             YY         SY+YY Real      SY+YY Imag
   1   3.747003E-16   0.000000E+00   2.608371E-02   1.999996E+00   4.349804E-06   0.000000E+00
   2   1.715920E-01   0.000000E+00  -1.734723E-18   4.061751E-06   2.514772E+00   0.000000E+00
 
:INFO :  Singular value  2.515E+00 Weight  1.000E+00 Projection -1.770E-03
:INFO :  Singular value  4.350E-06 Weight  4.728E-04 Projection  3.030E-03
:RANK :  ACTIVE   1.00/2  =  50.02 % ; YY RANK   1.00/2  =  50.02 %
 
:DLIM :  Beta Active  8.946E-01
:BLIM :  VZERO Control Off
:TRUST:  Step 3.54E-01  Charge 7.50E-02 (e) CTO  2.50E-01 (e) PW  3.50E-01 (e)
:DIRM :  MEMORY  2/12 SCALE   1.000 RED  0.39 PRED  1.00 NEXT  1.00 BETA  0.89
:TRAVE:  Charge 1.44E-04 (e) CTO  2.89E-04 (e) PW  5.20E-04 (e)
:DIRP :  |MSR1|= 2.860E-04 |PRATT|= 9.450E-03 ANGLE=  11.4 DEGREES
:DIRQ :  |MSR1|= 2.193E-03 |PRATT|= 4.580E-02 ANGLE=   1.3 DEGREES
:DIRT :  |MSR1|= 2.211E-03 |PRATT|= 4.677E-02 ANGLE=   4.8 DEGREES
:MIX  :   MSE1   REGULARIZATION:  2.00E-04 GREED: 0.04676  Newton 1.00  0.0473                
     
       CHARGES OF MIXED CHARGE DENSITY
:CTO   : INTERSTITIAL CHARGE =     6.844802
:CPC   : PW Pseudocharge     =    17.099336
:CTO001: CHARGE SPHERE  1    =    55.577599

:NEC03: NUCLEAR AND ELECTRONIC CHARGE    118.00000   118.00000

PW CHANGE     H    K    L      Current       Change    Residue
:PTO001:      0    0    0  5.91359358E-02  2.669E-06  8.955E-05
:PTO003:      0    2    0  1.55279422E-02  4.350E-07  2.037E-05
:PTO004:     -1    1    0  7.54397181E-02  2.971E-06  1.209E-04
:PTO005:      0    2   -1 -8.72269803E-02 -5.552E-06 -1.845E-04
:PTO006:      0    0   -2 -4.51929545E-02 -2.330E-06 -8.434E-05
:PTO007:     -1    1   -1 -9.33889143E-02 -3.451E-06 -1.475E-04
:PTO008:      0    2   -2 -1.46798079E-02  1.625E-08 -1.207E-05
:PTO009:     -1    1   -2 -7.48459211E-02 -4.088E-06 -1.462E-04
:PTO011:     -1    3    0 -1.18882324E-02  1.806E-07 -5.535E-06
:PTO012:     -1    3   -1 -5.22027162E-02 -2.136E-06 -8.321E-05
:PTO013:      0    4    0 -9.34308763E-03 -1.148E-07 -8.840E-06
:PTO014:      0    2   -3  2.15370406E-02  8.584E-07  3.263E-05

:ENE  : ********** TOTAL ENERGY IN Ry =       -36944.28206299

       TOTAL FORCE IN mRy/a.u. = |F|     Fx             Fy             Fz     with/without FOR in case.in2
:FOR001:   1.ATOM         20.983          0.000          0.000        -20.983 partial forces
       TOTAL FORCE WITH RESPECT TO GLOBAL CARTESIAN COORDINATES:
:FCA001:   1.ATOM                         0.000        -20.983          0.000 partial forces
       TOTAL FORCE WITH RESPECT TO THE GLOBAL COORDINATE SYSTEM:
:FGL001:   1.ATOM                 0.000000000   -20.982976364     0.000000000 partial forces
 Flat Integration
 New Mode for Coulomb Integral
 Consistent 3/8+Simpson combinations
 Extension of core to zero
 LDM version in phi
 Fifth-order quadrature in outwin


            ---------
:ITE017: 17. ITERATION
            ---------

:NATO :    1 INDEPENDENT AND    2 TOTAL ATOMS IN UNITCELL
       SUBSTANCE: aU                                                          

       LATTICE                      = CXY 
:POT  : POTENTIAL OPTION EX_LDA EC_LDA VX_LDA VC_LDA
:LAT  : LATTICE CONSTANTS=  6.10723 12.39312 10.69923    1.571    1.571    1.571
:VOL  : UNIT CELL VOLUME =     404.89996
       MODE OF CALCULATION IS       = RELA
       NON-SPINPOLARIZED CALCULATION
:IFFT  : FFT-parameters:   48   96   90 Factor: 2.00


   CONVERGENCE PARAMETER FOR PSEUDOCHARGE: NCON=  9
   MAXIMAL VALUE OF RMT(JATOM)*ABSK(NKK) : RK  =27.59658


:VKCOUL :  VK-COUL convergence: 0.257E-06
       ATOMNUMBER=  1 Pr1        VCOUL-ZERO =  0.22628E+00
:EFG001:                        EFG         =    -9.14140   *10**21  V / m**2
                               V20  TOT/SRF=    -7.91668    -0.03798
                               V22  TOT/SRF=    -0.91873    -0.00283
                               V22M TOT/SRF=     0.00000     0.00000
                               V21  TOT/SRF=     0.00000     0.00000
                               V21M TOT/SRF=     0.00000     0.00000

              3.65197    0.00000    0.00000        3.65197    0.00000    0.00000
              0.00000    5.48942    0.00000        0.00000    5.48942    0.00000
              0.00000    0.00000   -9.14140        0.00000    0.00000   -9.14140

         MAIN DIRECTIONS OF THE EFG   1.0000  0.0000  0.0000
                                      0.0000  1.0000  0.0000
                                      0.0000  0.0000  1.0000
:ANG001:  ANGLE WITH OLD X-AXIS =         0.0

:ETA001:                         ASYMM. ETA =     0.20100


     HELLMANN-FEYNMAN-FORCE IN mRy/a.u. = |F|  Fx       Fy             Fz
:FHF001:   1.ATOM   1563.856077937663      0.000000000000      0.000000000000  -1563.856077937663

:FIT001: LUSE= 13 SIGMA OF V-XC FIT FOR ATOM  1  0.5683367E-04
:FIT001: LUSE= 13 SIGMA OF V-XC FIT FOR ATOM  1  0.5683367E-04
:DEN  : DENSITY INTEGRAL  =        -14165.58925018   (Ry)
       ELS_POTENTIAL_AT Z=0 and Z=0.5:   0.80091   0.80091
       ELS_POTENTIAL_AT Y=0 and Y=0.5:   0.05363   0.05363
:VZERO:v0,v0c,v0x   0.17894   0.80091  -0.62197 v5,v5c,v5x   0.17894   0.80091  -0.62197
:VZERY:v0,v0c,v0x  -0.77551   0.05363  -0.82914 v5,v5c,v5x  -0.77551   0.05363  -0.82914
:VZERX:v0,v0c,v0x  -1.17263  -0.38530  -0.78734 v5,v5c,v5x  -1.17263  -0.38530  -0.78734
:LMAX-WF:   10   Non-Spherical LMAX:   4

          ATOMIC SPHERE DEPENDENT PARAMETERS FOR ATOM  Pr1       
:e__0001: OVERALL ENERGY PARAMETER IS    0.5638
          OVERALL BASIS SET ON ATOM IS LAPW
:E0_0001: E( 0)=    0.5638
             APW+lo
:E0_0001: E( 0)=   -1.8851   E(BOTTOM)=   -2.521   E(TOP)=   -1.250  4  5   196
             LOCAL ORBITAL
:E1_0001: E( 1)=    0.9638
             APW+lo
:E1_0001: E( 1)=   -0.4150   E(BOTTOM)=   -1.373   E(TOP)=    0.543  3  4   197
             LOCAL ORBITAL
:E3_0001: E( 3)=    0.7622   E(BOTTOM)=    0.556   E(TOP)=    0.969  0  1   124
             APW+lo
:E2_0001: E( 2)=    0.5638   E(BOTTOM)=    0.367   E(TOP)= -200.000  2 -1    82
             APW+lo

       K=   0.06250   0.00000   0.06250            1
:RKM  : MATRIX SIZE   385LOs:  40  RKM= 8.49  WEIGHT= 4.00  PGR:    
       EIGENVALUES ARE:
:EIG00001:      -1.8690185   -1.8433993   -0.6188771   -0.5036218   -0.4773323
:EIG00006:      -0.4669357   -0.4559301   -0.4559257    0.5430205    0.6563847
:EIG00011:       0.7582943    0.7617434    0.7618739    0.7654528    0.7720260
:EIG00016:       0.7866273    0.7922147    0.7926039    0.7964612    0.7990920
:EIG00021:       0.8052809    0.8086025    0.8087158    0.8185218    0.8440780
:EIG00026:       0.8613246    0.9524852    0.9604681    1.0133424    1.0386515
:EIG00031:       1.0488077    1.1681522    1.2075245    1.2658631    1.5696175
:EIG00036:       1.6074451    1.6546894    1.6912601    1.8436197    1.9024978
:EIG00041:       2.0123575    2.1062549    2.2098363    2.2274714    2.3599101
:EIG00046:       2.3805416    2.3991195    2.5075182    2.5399359    2.6582549
 
:EIG00051:       2.7126610    2.7762751    2.7952836    2.8973987    2.9438582
:EIG00056:       2.9948432    3.0176233    3.1069464    3.1719250    3.2668097
:EIG00061:       3.2959861    3.3642108    3.4869756    3.5016274    3.5450490
:EIG00066:       3.6775571    3.7126759    3.8027078    3.8050628    3.8245433
:EIG00071:       3.8285923    3.8870221    3.9291706    4.0267597    4.0383888
:EIG00076:       4.0908752    4.0938927    4.1532305    4.1810289    4.2025763
:EIG00081:       4.2208579    4.2664972    4.2760704    4.3615069    4.3892349
:EIG00086:       4.4381975    4.4999998    4.5490892    4.5866292    4.5932938
:EIG00091:       4.6261406    4.6755859    4.6946309    4.7287539    4.7388013
:EIG00096:       4.7635203    4.8254045    4.8358560    4.8735460    4.9314307
 
:EIG00101:       5.0228468    5.1400331    5.1729715    5.2561273    5.2579431
:EIG00106:       5.2840272    5.3354628    5.3922004    5.4171628    5.4280571
:EIG00111:       5.5348083    5.5810858    5.6577274    5.7353610    5.7420100
:EIG00116:       5.7834444    5.8380736    5.8461640    5.9166629    5.9505879
:EIG00121:       5.9954985    6.0108567    6.0948892    6.1061779    6.1663005
:EIG00126:       6.2544534    6.3249963    6.3319678    6.3381926    6.4222226
:EIG00131:       6.4562460    6.5048790    6.5059146    6.5356931    6.5962299
:EIG00136:       6.6649616    6.6918093    6.7155694    6.7527491    6.7753141
:EIG00141:       6.8189258    6.8541443    6.8935364    6.8964019    6.9619399
:EIG00146:       6.9718883    6.9958436    7.0681523    7.1081237    7.1185020
 
:EIG00151:       7.1651148    7.1985374    7.2405692    7.3509075    7.4029547
:EIG00156:       7.5045042    7.5757243    7.5895121    7.5916603    7.7013908
:EIG00161:       7.7633412    7.8345703    7.8696178    7.8846379    7.9397933
:EIG00166:       7.9436079    7.9465347    7.9664719    8.0506683    8.1323724
:EIG00171:       8.1430120    8.1712118    8.2037224    8.2363485
       ********************************************************

:KPT   :      NUMBER OF K-POINTS:   288
   0.0   0.0 angle (M,z), angle (M,x) deg
 
        SPIN-ORBIT EIGENVALUES:
     K=   0.06250   0.00000   0.06250            1
      MATRIX SIZE=  348   WEIGHT= 4.00
     EIGENVALUES ARE:
          -1.8690188   -1.8690188   -1.8433996   -1.8433996   -0.6877342
          -0.6877342   -0.6171784   -0.6171784   -0.4956886   -0.4956886
          -0.4060186   -0.4060186   -0.4024723   -0.4024723   -0.3894644
          -0.3894644    0.5430832    0.5430832    0.6562634    0.6562634
           0.7541617    0.7541617    0.7576004    0.7576004    0.7583452
           0.7583452    0.7618485    0.7618485    0.7674591    0.7674591
           0.7758923    0.7758923    0.7881794    0.7881795    0.7971172
           0.7971172    0.8025871    0.8025871    0.8034296    0.8034296

           0.8088599    0.8088599    0.8123417    0.8123418    0.8137088
           0.8137088    0.8227214    0.8227214    0.8453705    0.8453705
           0.8615311    0.8615311    0.9497170    0.9497170    0.9630105
           0.9630105    1.0136958    1.0136958    1.0386870    1.0386871
           1.0491944    1.0491944    1.1680460    1.1680460    1.2077929
           1.2077929    1.2659891    1.2659891    1.5698683    1.5698683
           1.6074834    1.6074834    1.6546620    1.6546620    1.6913096
           1.6913096    1.8433253    1.8433253    1.9019856    1.9019856

           2.0123865    2.0123865    2.1053597    2.1053597    2.2083651
           2.2083651    2.2283043    2.2283043    2.3602027    2.3602027
           2.3804558    2.3804558    2.3980025    2.3980025    2.5064964
           2.5064964    2.5413141    2.5413141    2.6582389    2.6582389
           2.7120222    2.7120222    2.7732627    2.7732627    2.7972261
           2.7972261    2.8972815    2.8972815    2.9447384    2.9447384
           2.9951439    2.9951439    3.0170001    3.0170001    3.1075062
           3.1075062    3.1727217    3.1727217    3.2666952    3.2666952

           3.2961841    3.2961841    3.3685920    3.3685920    3.4868298
           3.4868298    3.5017043    3.5017043    3.5452951    3.5452951
           3.6776042    3.6776042    3.7128182    3.7128182    3.8019512
           3.8019512    3.8056316    3.8056316    3.8246180    3.8246180
           3.8288154    3.8288154    3.8867153    3.8867153    3.9292506
           3.9292506    4.0253631    4.0253631    4.0399720    4.0399720
           4.0911828    4.0911828    4.0958181    4.0958181    4.1533495
           4.1533495    4.1815628    4.1815628    4.2026291    4.2026291

           4.2210483    4.2210483    4.2665687    4.2665687    4.2766448
           4.2766448    4.3615857    4.3615857    4.3893348    4.3893348
           4.4384001    4.4384001
       ********************************************************
:GAP (global)   :    0.0    Ry =     0.0   eV (metal)
:GAP (this spin):    0.0    Ry =     0.0   eV (metal)
         Bandranges (emin - emax) and occupancy:
:BAN00018:  18    0.536846    0.723216  1.00000000
:BAN00019:  19    0.642430    0.739697  1.00000000
:BAN00020:  20    0.642430    0.739697  1.00000000
:BAN00021:  21    0.676494    0.762086  1.00000000
:BAN00022:  22    0.676494    0.762086  1.00000000
:BAN00023:  23    0.729718    0.765603  0.99865371
:BAN00024:  24    0.729718    0.765603  0.99865370
:BAN00025:  25    0.743101    0.774732  0.74540003
:BAN00026:  26    0.743101    0.774732  0.74539987
:BAN00027:  27    0.759068    0.776510  0.25594653
:BAN00028:  28    0.759068    0.776510  0.25594616
:BAN00029:  29    0.766559    0.779054  0.00000000
:BAN00030:  30    0.766559    0.779054  0.00000000
:BAN00031:  31    0.770995    0.787414  0.00000000
:BAN00032:  32    0.770995    0.787414  0.00000000
:BAN00033:  33    0.778556    0.795229  0.00000000
        Energy to separate low and high energystates:    0.48685


:NOE  : NUMBER OF ELECTRONS          =   26.000

:FER  : F E R M I - ENERGY(TETRAH.M.)=   0.7648506180
:GMA  : POTENTIAL AND CHARGE CUT-OFF  12.00 Ry**.5

:POS001: ATOM   -1 X,Y,Z = 0.00000 0.89750 0.25000  MULT= 2  ZZ= 59.000  Pr1       

       LMMAX 16
       LM=   0 0  1 0  2 0  2 2  3 0  3 2  4 0  4 2  4 4  5 0  5 2  5 4  6 0  6 2  6 4  6 6

:CHA001: TOTAL VALENCE CHARGE INSIDE SPHERE   1 =   9.5757    (RMT=  2.3000 )
:PCS001: PARTIAL CHARGES SPHERE =  1 S,P,D,F,PX,PY,PZ,D-Z2,D-X2Y2,D-XY,D-XZ,D-YZ 
:QTL001: 1.9419 4.9987 0.6092 2.0252 1.6636 1.6624 1.6727 0.1155 0.1094 0.1293 0.1218 0.1332
        Q-s-low E-s-low   Q-p-low E-p-low   Q-d-low E-d-low   Q-f-low E-f-low
:EPL001:  1.8688 -1.8428    4.9258 -0.5300    0.0041 -0.5329    0.0012 -0.5465
        Q-s-hi  E-s-hi    Q-p-hi  E-p-hi    Q-d-hi  E-d-hi    Q-f-hi  E-f-hi 
:EPH001:  0.0731  0.6698    0.0729  0.7054    0.6051  0.7053    2.0240  0.7469

                      VXX         VYY         VZZ       UP TO R
:VZZ001:             3.69538     5.24470    -8.94008       2.300

:CHA  : TOTAL VALENCE CHARGE INSIDE UNIT CELL =      26.000000

:SUM  : SUM OF EIGENVALUES =          -6.539902727


        1.ATOM      Pr1                  14 CORE STATES
       CORE-FORCE in mRy/a.u. = |F|      Fx             Fy             Fz
:FCO001:   1.ATOM   1542.737899732355      0.000000000000      0.000000000000   1542.737899732355

:1S 001: 1S               -3066.828769278 Ry
:2S 001: 2S                -492.582460899 Ry
:2PP001: 2P*               -465.681271311 Ry
:2P 001: 2P                -430.283895812 Ry
:3S 001: 3S                -105.675929502 Ry
:3PP001: 3P*                -94.213637268 Ry
:3P 001: 3P                 -87.205872455 Ry
:3DD001: 3D*                -67.132463714 Ry
:3D 001: 3D                 -65.620946062 Ry
:4S 001: 4S                 -20.349274615 Ry
:4PP001: 4P*                -16.055655649 Ry
:4P 001: 4P                 -14.527684862 Ry
:4DD001: 4D*                 -7.459474872 Ry
:4D 001: 4D                  -7.189869651 Ry
:CINT001 Core Integral Atom   1   45.998498

       DENSITY AT NUCLEUS
        JATOM        VALENCE       SEMI-CORE          CORE           TOTAL
:RTO001:   1      649.092283        0.000000   656825.224533   657474.316816
     
       CHARGES OF NEW CHARGE DENSITY
:NTO   : INTERSTITIAL CHARGE =     6.848631
:NPC   : PW Pseudocharge     =    17.120528
:NTO001: CHARGE SPHERE  1    =    55.574182

:NEC01: NUCLEAR AND ELECTRONIC CHARGE    118.00000   117.99700
     
       CHARGES OF OLD CHARGE DENSITY
:OTO   : INTERSTITIAL CHARGE =     6.844802
:OPC   : PW Pseudocharge     =    17.099336
:OTO001: CHARGE SPHERE  1    =    55.577599

:NEC02: NUCLEAR AND ELECTRONIC CHARGE    118.00000   118.00000
     
       CONVERGENCE TEST
:DTO001: DIFFERENCE IN SPHERE  1 =  0.0077785

:DIS  :  CHARGE DISTANCE       ( 0.0077785 for atom    1 spin 1)      0.0077785
 PW Mixed is          421
 
******************************************************
* MULTISECANT MIXING VER9 RELEASE 10.4.0              *
* Standard Mode with controls                        *
* Fixed density scale                                *
* Regularization       1.000E-04                     *
* Trust Upper Limit    5.000E+00                     *
* Max Number of Memory Steps    8                    *
******************************************************
 
:PWTMP   3.0297E+02  1.9467E+02  4.0490E+02
:PLANE:  PW TOTAL      5.0991 DISTAN   9.20E-03  1.80E-01 %
:CHARG:  CLM/ATOM   1381.9551 DISTAN   4.30E-02  3.11E-03 %
 
Step History
        DMIX         DMIXT        Red     Pred      Trust     Lambda    MagRel    MagAbs     Beta
  1   3.5000E-02   3.5000E-02 -1.00E+00  1.00E+00 -1.00E+01  1.00E+00  3.50E-02  3.50E-02  1.00E+00
  2   2.5000E-02   2.5000E-02  6.97E-01  1.00E+00 -1.00E+01  1.00E+00  2.50E-02  4.28E-03  1.00E+00
  3   2.7740E-02   2.7740E-02  3.92E-01  1.00E+00 -1.00E+01  3.00E+00  2.77E-02  3.31E-03  1.00E+00
  4   4.6755E-02   4.6755E-02 -1.00E+00  9.99E-01  3.54E-01  1.00E+00  4.73E-02  2.21E-03  8.95E-01
:JACOBIANS    1.442E-02   2.994E-01
  
:NORMS:  1/Froebius, Min, Max, Used   0.3566E+00  0.1910E+00  0.4653E+00  0.4147E+00
:INFO :  Number of Memory Steps    3 Skipping    0
:INFO :  SLambda=    1.2641979639  Max    1.2641979639
:PREDicted Charge, CTotal, PW Trust    2.048E-03   4.096E-03   7.778E-03
:PREDicted DMix, Beta, BLim   4.6974E-01  6.4659E+00  5.9659E-01

Eigenvalues, unscaled except for SY+YY
   #     SY Real        SY Imag          SS             YY         SY+YY Real      SY+YY Imag
   1   9.714451E-16   0.000000E+00   3.564293E-01   2.072387E+00   4.032214E-06   0.000000E+00
   2   1.604681E-01   0.000000E+00   2.496575E-02   9.276086E-01   2.386247E+00   0.000000E+00
   3   4.825543E-01   0.000000E+00  -1.685412E-17   3.957301E-06   1.426657E+00   0.000000E+00
 
:INFO :  Singular value  2.387E+00 Weight  1.000E+00 Projection -1.341E-02
:INFO :  Singular value  1.426E+00 Weight  1.000E+00 Projection -4.030E-02
:INFO :  Singular value  4.032E-06 Weight  3.784E-04 Projection  1.232E-03
:RANK :  ACTIVE   2.00/3  =  66.68 % ; YY RANK   2.00/3  =  66.68 %
 
:BLIM :  VZERO Control Off
:TRUST:  Step 4.76E-01  Charge 7.50E-02 (e) CTO  2.50E-01 (e) PW  3.50E-01 (e)
:DTRUS:  Lambda    9.573E-02 Increment    7.276E-12 Iterations    93 DMIX    1.112E-01
:INFOA:  Angle SubSpace to MSR1      1.46
:DIRM :  MEMORY  3/8  SCALE   1.000 RED  0.94 PRED  1.00 NEXT  0.66 
:INFO :  Limited by Atoms F by Step T

:TRAVE:  Charge 8.06E-04 (e) CTO  1.61E-03 (e) PW  3.46E-03 (e)
:DIRP :  |MSR1|= 3.480E-03 |PRATT|= 9.198E-03 ANGLE=   5.4 DEGREES
:DIRQ :  |MSR1|= 2.060E-02 |PRATT|= 4.296E-02 ANGLE=   5.7 DEGREES
:DIRT :  |MSR1|= 2.089E-02 |PRATT|= 4.393E-02 ANGLE=   6.2 DEGREES
:MIX  :   MSE1   REGULARIZATION:  2.07E-04 GREED: 0.11689  LMStep 0.79  0.4755 Step           
     
       CHARGES OF MIXED CHARGE DENSITY
:CTO   : INTERSTITIAL CHARGE =     6.847735
:CPC   : PW Pseudocharge     =    17.109716
:CTO001: CHARGE SPHERE  1    =    55.576132

:NEC03: NUCLEAR AND ELECTRONIC CHARGE    118.00000   118.00000

PW CHANGE     H    K    L      Current       Change    Residue
:PTO001:      0    0    0  5.91688175E-02  3.288E-05  8.777E-05
:PTO003:      0    2    0  1.55361166E-02  8.174E-06  2.108E-05
:PTO004:     -1    1    0  7.54840030E-02  4.428E-05  1.205E-04
:PTO005:      0    2   -1 -8.72932112E-02 -6.623E-05 -1.777E-04
:PTO006:      0    0   -2 -4.52218968E-02 -2.894E-05 -8.134E-05
:PTO007:     -1    1   -1 -9.34398117E-02 -5.090E-05 -1.455E-04
:PTO008:      0    2   -2 -1.46818299E-02 -2.022E-06 -1.186E-05
:PTO009:     -1    1   -2 -7.48973225E-02 -5.140E-05 -1.416E-04
:PTO011:     -1    3    0 -1.18875298E-02  7.026E-07 -5.157E-06
:PTO012:     -1    3   -1 -5.22315369E-02 -2.882E-05 -8.120E-05
:PTO013:      0    4    0 -9.34504792E-03 -1.960E-06 -8.367E-06
:PTO014:      0    2   -3  2.15470610E-02  1.002E-05  3.084E-05

:ENE  : ********** TOTAL ENERGY IN Ry =       -36944.28206927

       TOTAL FORCE IN mRy/a.u. = |F|     Fx             Fy             Fz     with/without FOR in case.in2
:FOR001:   1.ATOM         21.118          0.000          0.000        -21.118 partial forces
       TOTAL FORCE WITH RESPECT TO GLOBAL CARTESIAN COORDINATES:
:FCA001:   1.ATOM                         0.000        -21.118          0.000 partial forces
       TOTAL FORCE WITH RESPECT TO THE GLOBAL COORDINATE SYSTEM:
:FGL001:   1.ATOM                 0.000000000   -21.118178205     0.000000000 partial forces
 Flat Integration
 New Mode for Coulomb Integral
 Consistent 3/8+Simpson combinations
 Extension of core to zero
 LDM version in phi
 Fifth-order quadrature in outwin


            ---------
:ITE018: 18. ITERATION
            ---------

:NATO :    1 INDEPENDENT AND    2 TOTAL ATOMS IN UNITCELL
       SUBSTANCE: aU                                                          

       LATTICE                      = CXY 
:POT  : POTENTIAL OPTION EX_LDA EC_LDA VX_LDA VC_LDA
:LAT  : LATTICE CONSTANTS=  6.10723 12.39312 10.69923    1.571    1.571    1.571
:VOL  : UNIT CELL VOLUME =     404.89996
       MODE OF CALCULATION IS       = RELA
       NON-SPINPOLARIZED CALCULATION
:IFFT  : FFT-parameters:   48   96   90 Factor: 2.00


   CONVERGENCE PARAMETER FOR PSEUDOCHARGE: NCON=  9
   MAXIMAL VALUE OF RMT(JATOM)*ABSK(NKK) : RK  =27.59658


:VKCOUL :  VK-COUL convergence: 0.249E-06
       ATOMNUMBER=  1 Pr1        VCOUL-ZERO =  0.22642E+00
:EFG001:                        EFG         =    -9.08010   *10**21  V / m**2
                               V20  TOT/SRF=    -7.86360    -0.03781
                               V22  TOT/SRF=    -0.89341    -0.00262
                               V22M TOT/SRF=     0.00000     0.00000
                               V21  TOT/SRF=     0.00000     0.00000
                               V21M TOT/SRF=     0.00000     0.00000

              3.64664    0.00000    0.00000        3.64664    0.00000    0.00000
              0.00000    5.43346    0.00000        0.00000    5.43346    0.00000
              0.00000    0.00000   -9.08010        0.00000    0.00000   -9.08010

         MAIN DIRECTIONS OF THE EFG   1.0000  0.0000  0.0000
                                      0.0000  1.0000  0.0000
                                      0.0000  0.0000  1.0000
:ANG001:  ANGLE WITH OLD X-AXIS =         0.0

:ETA001:                         ASYMM. ETA =     0.19678


     HELLMANN-FEYNMAN-FORCE IN mRy/a.u. = |F|  Fx       Fy             Fz
:FHF001:   1.ATOM   1556.203754403453      0.000000000000      0.000000000000  -1556.203754403453

:FIT001: LUSE= 13 SIGMA OF V-XC FIT FOR ATOM  1  0.5444283E-04
:FIT001: LUSE= 13 SIGMA OF V-XC FIT FOR ATOM  1  0.5444283E-04
:DEN  : DENSITY INTEGRAL  =        -14165.56970796   (Ry)
       ELS_POTENTIAL_AT Z=0 and Z=0.5:   0.80129   0.80129
       ELS_POTENTIAL_AT Y=0 and Y=0.5:   0.05368   0.05368
:VZERO:v0,v0c,v0x   0.17921   0.80129  -0.62207 v5,v5c,v5x   0.17921   0.80129  -0.62207
:VZERY:v0,v0c,v0x  -0.77562   0.05368  -0.82930 v5,v5c,v5x  -0.77562   0.05368  -0.82930
:VZERX:v0,v0c,v0x  -1.17299  -0.38553  -0.78746 v5,v5c,v5x  -1.17299  -0.38553  -0.78746
:LMAX-WF:   10   Non-Spherical LMAX:   4

          ATOMIC SPHERE DEPENDENT PARAMETERS FOR ATOM  Pr1       
:e__0001: OVERALL ENERGY PARAMETER IS    0.5645
          OVERALL BASIS SET ON ATOM IS LAPW
:E0_0001: E( 0)=    0.5645
             APW+lo
:E0_0001: E( 0)=   -1.8850   E(BOTTOM)=   -2.521   E(TOP)=   -1.249  4  5   195
             LOCAL ORBITAL
:E1_0001: E( 1)=    0.9645
             APW+lo
:E1_0001: E( 1)=   -0.4149   E(BOTTOM)=   -1.373   E(TOP)=    0.543  3  4   199
             LOCAL ORBITAL
:E3_0001: E( 3)=    0.7624   E(BOTTOM)=    0.556   E(TOP)=    0.969  0  1   122
             APW+lo
:E2_0001: E( 2)=    0.5645   E(BOTTOM)=    0.367   E(TOP)= -200.000  2 -1    82
             APW+lo

       K=   0.06250   0.00000   0.06250            1
:RKM  : MATRIX SIZE   385LOs:  40  RKM= 8.49  WEIGHT= 4.00  PGR:    
       EIGENVALUES ARE:
:EIG00001:      -1.8689307   -1.8433121   -0.6188112   -0.5035256   -0.4772374
:EIG00006:      -0.4668187   -0.4558804   -0.4558075    0.5432769    0.6565837
:EIG00011:       0.7585005    0.7619914    0.7620079    0.7656852    0.7721835
:EIG00016:       0.7869032    0.7924935    0.7928767    0.7967172    0.7992735
:EIG00021:       0.8055472    0.8088625    0.8089513    0.8186758    0.8442610
:EIG00026:       0.8615132    0.9526581    0.9606176    1.0135255    1.0388384
:EIG00031:       1.0489858    1.1683403    1.2076942    1.2659850    1.5698988
:EIG00036:       1.6076617    1.6549385    1.6914734    1.8439373    1.9027611
:EIG00041:       2.0125798    2.1064982    2.2100937    2.2276956    2.3601151
:EIG00046:       2.3807809    2.3993589    2.5077503    2.5401645    2.6585002
 
:EIG00051:       2.7128634    2.7764338    2.7954878    2.8975879    2.9440422
:EIG00056:       2.9950316    3.0178348    3.1070873    3.1721509    3.2670007
:EIG00061:       3.2962196    3.3643848    3.4871609    3.5018437    3.5452511
:EIG00066:       3.6777532    3.7128807    3.8029329    3.8052819    3.8247650
:EIG00071:       3.8288116    3.8872151    3.9293928    4.0269732    4.0386283
:EIG00076:       4.0911174    4.0941110    4.1534386    4.1812421    4.2027926
:EIG00081:       4.2210626    4.2667267    4.2762791    4.3617117    4.3894727
:EIG00086:       4.4383761    4.5002717    4.5493283    4.5868401    4.5935161
:EIG00091:       4.6263725    4.6758175    4.6948263    4.7289417    4.7390026
:EIG00096:       4.7637536    4.8256151    4.8360757    4.8737568    4.9316547
 
:EIG00101:       5.0230458    5.1402446    5.1731685    5.2563500    5.2581778
:EIG00106:       5.2842510    5.3356953    5.3924253    5.4173629    5.4282884
:EIG00111:       5.5350378    5.5813264    5.6579167    5.7355627    5.7422264
:EIG00116:       5.7836505    5.8382783    5.8463658    5.9168536    5.9507898
:EIG00121:       5.9956770    6.0110784    6.0950903    6.1063901    6.1664890
:EIG00126:       6.2546874    6.3252141    6.3321599    6.3383794    6.4224381
:EIG00131:       6.4564619    6.5050892    6.5061153    6.5358582    6.5964303
:EIG00136:       6.6651895    6.6920157    6.7157939    6.7529621    6.7755333
:EIG00141:       6.8191239    6.8543923    6.8937275    6.8965920    6.9621400
:EIG00146:       6.9721148    6.9960329    7.0683420    7.1083423    7.1186274
 
:EIG00151:       7.1653524    7.1987499    7.2407898    7.3511211    7.4031785
:EIG00156:       7.5047111    7.5759365    7.5897113    7.5918712    7.7016092
:EIG00161:       7.7635445    7.8347721    7.8698141    7.8848439    7.9399860
:EIG00166:       7.9438142    7.9467294    7.9666608    8.0508570    8.1325483
:EIG00171:       8.1432054    8.1714014    8.2039030    8.2365117
       ********************************************************

:KPT   :      NUMBER OF K-POINTS:   288
   0.0   0.0 angle (M,z), angle (M,x) deg
 
        SPIN-ORBIT EIGENVALUES:
     K=   0.06250   0.00000   0.06250            1
      MATRIX SIZE=  348   WEIGHT= 4.00
     EIGENVALUES ARE:
          -1.8689310   -1.8689310   -1.8433123   -1.8433123   -0.6876581
          -0.6876581   -0.6170920   -0.6170920   -0.4955959   -0.4955959
          -0.4059097   -0.4059097   -0.4023680   -0.4023680   -0.3893904
          -0.3893904    0.5433397    0.5433397    0.6564623    0.6564623
           0.7543744    0.7543744    0.7577995    0.7577995    0.7585430
           0.7585430    0.7620710    0.7620710    0.7676409    0.7676409
           0.7761537    0.7761537    0.7884210    0.7884210    0.7973893
           0.7973893    0.8028298    0.8028298    0.8036447    0.8036447

           0.8091017    0.8091017    0.8125848    0.8125848    0.8139627
           0.8139627    0.8228895    0.8228895    0.8455573    0.8455573
           0.8617209    0.8617209    0.9498821    0.9498821    0.9631675
           0.9631675    1.0138787    1.0138787    1.0388735    1.0388736
           1.0493730    1.0493730    1.1682339    1.1682339    1.2079628
           1.2079628    1.2661112    1.2661112    1.5701494    1.5701494
           1.6077000    1.6077000    1.6549112    1.6549112    1.6915229
           1.6915229    1.8436427    1.8436427    1.9022490    1.9022490

           2.0126089    2.0126089    2.1056028    2.1056028    2.2086190
           2.2086190    2.2285319    2.2285319    2.3604077    2.3604077
           2.3806949    2.3806949    2.3982418    2.3982418    2.5067280
           2.5067280    2.5415430    2.5415430    2.6584834    2.6584834
           2.7122248    2.7122248    2.7734284    2.7734284    2.7974245
           2.7974245    2.8974706    2.8974706    2.9449228    2.9449228
           2.9953329    2.9953329    3.0172103    3.0172103    3.1076477
           3.1076477    3.1729471    3.1729471    3.2668859    3.2668860

           3.2964170    3.2964170    3.3687671    3.3687671    3.4870152
           3.4870152    3.5019206    3.5019206    3.5454971    3.5454971
           3.6778004    3.6778004    3.7130229    3.7130229    3.8021756
           3.8021756    3.8058516    3.8058516    3.8248397    3.8248397
           3.8290346    3.8290346    3.8869084    3.8869084    3.9294728
           3.9294728    4.0255797    4.0255797    4.0402079    4.0402079
           4.0914154    4.0914154    4.0960458    4.0960458    4.1535577
           4.1535577    4.1817761    4.1817761    4.2028454    4.2028454

           4.2212531    4.2212531    4.2667980    4.2667980    4.2768537
           4.2768537    4.3617905    4.3617905    4.3895725    4.3895725
           4.4385788    4.4385788
       ********************************************************
:GAP (global)   :    0.0    Ry =     0.0   eV (metal)
:GAP (this spin):    0.0    Ry =     0.0   eV (metal)
         Bandranges (emin - emax) and occupancy:
:BAN00018:  18    0.537103    0.723455  1.00000000
:BAN00019:  19    0.642649    0.739920  1.00000000
:BAN00020:  20    0.642649    0.739920  1.00000000
:BAN00021:  21    0.676710    0.762248  1.00000000
:BAN00022:  22    0.676710    0.762248  1.00000000
:BAN00023:  23    0.729913    0.765834  0.99863798
:BAN00024:  24    0.729913    0.765834  0.99863798
:BAN00025:  25    0.743339    0.774920  0.74582084
:BAN00026:  26    0.743339    0.774920  0.74582061
:BAN00027:  27    0.759296    0.776742  0.25554141
:BAN00028:  28    0.759296    0.776742  0.25554118
:BAN00029:  29    0.766783    0.779322  0.00000000
:BAN00030:  30    0.766783    0.779322  0.00000000
:BAN00031:  31    0.771206    0.787635  0.00000000
:BAN00032:  32    0.771206    0.787635  0.00000000
:BAN00033:  33    0.778784    0.795453  0.00000000
        Energy to separate low and high energystates:    0.48710


:NOE  : NUMBER OF ELECTRONS          =   26.000

:FER  : F E R M I - ENERGY(TETRAH.M.)=   0.7650651771
:GMA  : POTENTIAL AND CHARGE CUT-OFF  12.00 Ry**.5

:POS001: ATOM   -1 X,Y,Z = 0.00000 0.89750 0.25000  MULT= 2  ZZ= 59.000  Pr1       

       LMMAX 16
       LM=   0 0  1 0  2 0  2 2  3 0  3 2  4 0  4 2  4 4  5 0  5 2  5 4  6 0  6 2  6 4  6 6

:CHA001: TOTAL VALENCE CHARGE INSIDE SPHERE   1 =   9.5757    (RMT=  2.3000 )
:PCS001: PARTIAL CHARGES SPHERE =  1 S,P,D,F,PX,PY,PZ,D-Z2,D-X2Y2,D-XY,D-XZ,D-YZ 
:QTL001: 1.9420 4.9988 0.6095 2.0249 1.6636 1.6625 1.6727 0.1156 0.1095 0.1293 0.1219 0.1332
        Q-s-low E-s-low   Q-p-low E-p-low   Q-d-low E-d-low   Q-f-low E-f-low
:EPL001:  1.8688 -1.8427    4.9259 -0.5299    0.0041 -0.5328    0.0012 -0.5464
        Q-s-hi  E-s-hi    Q-p-hi  E-p-hi    Q-d-hi  E-d-hi    Q-f-hi  E-f-hi 
:EPH001:  0.0731  0.6701    0.0729  0.7056    0.6054  0.7055    2.0237  0.7472

                      VXX         VYY         VZZ       UP TO R
:VZZ001:             3.57992     5.37997    -8.95989       2.300

:CHA  : TOTAL VALENCE CHARGE INSIDE UNIT CELL =      26.000000

:SUM  : SUM OF EIGENVALUES =          -6.536256595


        1.ATOM      Pr1                  14 CORE STATES
       CORE-FORCE in mRy/a.u. = |F|      Fx             Fy             Fz
:FCO001:   1.ATOM   1534.230114675885      0.000000000000      0.000000000000   1534.230114675885

:1S 001: 1S               -3066.830231462 Ry
:2S 001: 2S                -492.583482150 Ry
:2PP001: 2P*               -465.682389924 Ry
:2P 001: 2P                -430.284977957 Ry
:3S 001: 3S                -105.676138837 Ry
:3PP001: 3P*                -94.213889770 Ry
:3P 001: 3P                 -87.206084049 Ry
:3DD001: 3D*                -67.132788186 Ry
:3D 001: 3D                 -65.621255552 Ry
:4S 001: 4S                 -20.348992986 Ry
:4PP001: 4P*                -16.055379897 Ry
:4P 001: 4P                 -14.527405116 Ry
:4DD001: 4D*                 -7.459211668 Ry
:4D 001: 4D                  -7.189606565 Ry
:CINT001 Core Integral Atom   1   45.998498

       DENSITY AT NUCLEUS
        JATOM        VALENCE       SEMI-CORE          CORE           TOTAL
:RTO001:   1      649.086305        0.000000   656825.396245   657474.482550
     
       CHARGES OF NEW CHARGE DENSITY
:NTO   : INTERSTITIAL CHARGE =     6.848534
:NPC   : PW Pseudocharge     =    17.121315
:NTO001: CHARGE SPHERE  1    =    55.574231

:NEC01: NUCLEAR AND ELECTRONIC CHARGE    118.00000   117.99699
     
[...]
:PTO005:      0    2   -1 -8.74069194E-02 -2.359E-06 -2.413E-06
:PTO006:      0    0   -2 -4.52774013E-02 -1.300E-06 -1.325E-06
:PTO007:     -1    1   -1 -9.35471812E-02 -2.907E-06 -3.022E-06
:PTO008:      0    2   -2 -1.46929749E-02 -4.874E-07 -5.214E-07
:PTO009:     -1    1   -2 -7.49811551E-02 -1.742E-06 -1.462E-06
:PTO011:     -1    3    0 -1.18924011E-02 -3.099E-07 -3.933E-07
:PTO012:     -1    3   -1 -5.22846334E-02 -1.133E-06 -1.002E-06
:PTO013:      0    4    0 -9.35109446E-03 -1.967E-07 -1.928E-07
:PTO014:      0    2   -3  2.15685774E-02  5.041E-07  5.171E-07

:ENE  : ********** TOTAL ENERGY IN Ry =       -36944.28206772

       TOTAL FORCE IN mRy/a.u. = |F|     Fx             Fy             Fz     with/without FOR in case.in2
:FOR001:   1.ATOM         22.344          0.000          0.000        -22.344 partial forces
       TOTAL FORCE WITH RESPECT TO GLOBAL CARTESIAN COORDINATES:
:FCA001:   1.ATOM                         0.000        -22.344          0.000 partial forces
       TOTAL FORCE WITH RESPECT TO THE GLOBAL COORDINATE SYSTEM:
:FGL001:   1.ATOM                 0.000000000   -22.344146204     0.000000000 partial forces
 Flat Integration
 New Mode for Coulomb Integral
 Consistent 3/8+Simpson combinations
 Extension of core to zero
 LDM version in phi
 Fifth-order quadrature in outwin


            ---------
:ITE023: 23. ITERATION
            ---------

:NATO :    1 INDEPENDENT AND    2 TOTAL ATOMS IN UNITCELL
       SUBSTANCE: aU                                                          

       LATTICE                      = CXY 
:POT  : POTENTIAL OPTION EX_LDA EC_LDA VX_LDA VC_LDA
:LAT  : LATTICE CONSTANTS=  6.10723 12.39312 10.69923    1.571    1.571    1.571
:VOL  : UNIT CELL VOLUME =     404.89996
       MODE OF CALCULATION IS       = RELA
       NON-SPINPOLARIZED CALCULATION
:IFFT  : FFT-parameters:   48   96   90 Factor: 2.00


   CONVERGENCE PARAMETER FOR PSEUDOCHARGE: NCON=  9
   MAXIMAL VALUE OF RMT(JATOM)*ABSK(NKK) : RK  =27.59658


:VKCOUL :  VK-COUL convergence: 0.241E-06
       ATOMNUMBER=  1 Pr1        VCOUL-ZERO =  0.22674E+00
:EFG001:                        EFG         =    -8.99913   *10**21  V / m**2
                               V20  TOT/SRF=    -7.79348    -0.03763
                               V22  TOT/SRF=    -0.88151    -0.00257
                               V22M TOT/SRF=     0.00000     0.00000
                               V21  TOT/SRF=     0.00000     0.00000
                               V21M TOT/SRF=     0.00000     0.00000

              3.61806    0.00000    0.00000        3.61806    0.00000    0.00000
              0.00000    5.38108    0.00000        0.00000    5.38108    0.00000
              0.00000    0.00000   -8.99913        0.00000    0.00000   -8.99913

         MAIN DIRECTIONS OF THE EFG   1.0000  0.0000  0.0000
                                      0.0000  1.0000  0.0000
                                      0.0000  0.0000  1.0000
:ANG001:  ANGLE WITH OLD X-AXIS =         0.0

:ETA001:                         ASYMM. ETA =     0.19591


     HELLMANN-FEYNMAN-FORCE IN mRy/a.u. = |F|  Fx       Fy             Fz
:FHF001:   1.ATOM   1549.846103993896      0.000000000000      0.000000000000  -1549.846103993896

:FIT001: LUSE= 13 SIGMA OF V-XC FIT FOR ATOM  1  0.5212058E-04
:FIT001: LUSE= 13 SIGMA OF V-XC FIT FOR ATOM  1  0.5212058E-04
:DEN  : DENSITY INTEGRAL  =        -14165.57296511   (Ry)
       ELS_POTENTIAL_AT Z=0 and Z=0.5:   0.80178   0.80178
       ELS_POTENTIAL_AT Y=0 and Y=0.5:   0.05391   0.05391
:VZERO:v0,v0c,v0x   0.17962   0.80178  -0.62216 v5,v5c,v5x   0.17962   0.80178  -0.62216
:VZERY:v0,v0c,v0x  -0.77563   0.05391  -0.82954 v5,v5c,v5x  -0.77563   0.05391  -0.82954
:VZERX:v0,v0c,v0x  -1.17349  -0.38586  -0.78763 v5,v5c,v5x  -1.17349  -0.38586  -0.78763
:LMAX-WF:   10   Non-Spherical LMAX:   4

          ATOMIC SPHERE DEPENDENT PARAMETERS FOR ATOM  Pr1       
:e__0001: OVERALL ENERGY PARAMETER IS    0.5654
          OVERALL BASIS SET ON ATOM IS LAPW
:E0_0001: E( 0)=    0.5654
             APW+lo
:E0_0001: E( 0)=   -1.8848   E(BOTTOM)=   -2.520   E(TOP)=   -1.249  4  5   197
             LOCAL ORBITAL
:E1_0001: E( 1)=    0.9654
             APW+lo
:E1_0001: E( 1)=   -0.4147   E(BOTTOM)=   -1.373   E(TOP)=    0.543  3  4   203
             LOCAL ORBITAL
:E3_0001: E( 3)=    0.7627   E(BOTTOM)=    0.556   E(TOP)=    0.969  0  1   117
             APW+lo
:E2_0001: E( 2)=    0.5654   E(BOTTOM)=    0.368   E(TOP)= -200.000  2 -1    80
             APW+lo

       K=   0.06250   0.00000   0.06250            1
:RKM  : MATRIX SIZE   385LOs:  40  RKM= 8.49  WEIGHT= 4.00  PGR:    
       EIGENVALUES ARE:
:EIG00001:      -1.8686967   -1.8430813   -0.6185471   -0.5032798   -0.4769926
:EIG00006:      -0.4665919   -0.4556365   -0.4555827    0.5436572    0.6569268
:EIG00011:       0.7587895    0.7622901    0.7623060    0.7659970    0.7724961
:EIG00016:       0.7872179    0.7928104    0.7931924    0.7970320    0.7995634
:EIG00021:       0.8058604    0.8091589    0.8092490    0.8189872    0.8445540
:EIG00026:       0.8618184    0.9529767    0.9609219    1.0138440    1.0391619
:EIG00031:       1.0492869    1.1686678    1.2079978    1.2662723    1.5702870
:EIG00036:       1.6080123    1.6553120    1.6918170    1.8443482    1.9031635
:EIG00041:       2.0129368    2.1068665    2.2104527    2.2280557    2.3604649
:EIG00046:       2.3811352    2.3997417    2.5081034    2.5405396    2.6588588
 
:EIG00051:       2.7131902    2.7767621    2.7958202    2.8979252    2.9443526
:EIG00056:       2.9953580    3.0181748    3.1073754    3.1724890    3.2673267
:EIG00061:       3.2965765    3.3647031    3.4874770    3.5022047    3.5455897
:EIG00066:       3.6780786    3.7132375    3.8032952    3.8056200    3.8251160
:EIG00071:       3.8291546    3.8875423    3.9297349    4.0273255    4.0389907
:EIG00076:       4.0914970    4.0944480    4.1537791    4.1816009    4.2031482
:EIG00081:       4.2213909    4.2670729    4.2766318    4.3620583    4.3898350
:EIG00086:       4.4387094    4.5006697    4.5496903    4.5871728    4.5938799
:EIG00091:       4.6267410    4.6761824    4.6951621    4.7292822    4.7393355
:EIG00096:       4.7641246    4.8259737    4.8364334    4.8741021    4.9320143
 
:EIG00101:       5.0233947    5.1405958    5.1735142    5.2567156    5.2585420
:EIG00106:       5.2846026    5.3360594    5.3927890    5.4177062    5.4286523
:EIG00111:       5.5354042    5.5816927    5.6582399    5.7358894    5.7425680
:EIG00116:       5.7839996    5.8386187    5.8466992    5.9171685    5.9511242
:EIG00121:       5.9960027    6.0114368    6.0954270    6.1067493    6.1668220
:EIG00126:       6.2550511    6.3255688    6.3325040    6.3387089    6.4227924
:EIG00131:       6.4568031    6.5054365    6.5064654    6.5361723    6.5967549
:EIG00136:       6.6655550    6.6923598    6.7161554    6.7533041    6.7758836
:EIG00141:       6.8194627    6.8547558    6.8940519    6.8969368    6.9624728
:EIG00146:       6.9724783    6.9963600    7.0686881    7.1086927    7.1188834
 
:EIG00151:       7.1657155    7.1990940    7.2411484    7.3514714    7.4035396
:EIG00156:       7.5050509    7.5762847    7.5900555    7.5922159    7.7019511
:EIG00161:       7.7638791    7.8351177    7.8701431    7.8851878    7.9403083
:EIG00166:       7.9441555    7.9470591    7.9669888    8.0511907    8.1328609
:EIG00171:       8.1435274    8.1717214    8.2042257    8.2368127
       ********************************************************

:KPT   :      NUMBER OF K-POINTS:   288
   0.0   0.0 angle (M,z), angle (M,x) deg
 
        SPIN-ORBIT EIGENVALUES:
     K=   0.06250   0.00000   0.06250            1
      MATRIX SIZE=  348   WEIGHT= 4.00
     EIGENVALUES ARE:
          -1.8686970   -1.8686970   -1.8430815   -1.8430815   -0.6874070
          -0.6874070   -0.6168562   -0.6168562   -0.4953450   -0.4953450
          -0.4056757   -0.4056757   -0.4021294   -0.4021294   -0.3891501
          -0.3891501    0.5437199    0.5437199    0.6568054    0.6568054
           0.7546678    0.7546678    0.7580957    0.7580957    0.7588414
           0.7588414    0.7623824    0.7623824    0.7679524    0.7679524
           0.7764681    0.7764681    0.7887317    0.7887318    0.7977016
           0.7977016    0.8031359    0.8031359    0.8039498    0.8039498

           0.8094088    0.8094088    0.8128839    0.8128840    0.8142675
           0.8142675    0.8232004    0.8232004    0.8458504    0.8458504
           0.8620256    0.8620256    0.9501951    0.9501952    0.9634768
           0.9634768    1.0141973    1.0141973    1.0391957    1.0391958
           1.0496751    1.0496751    1.1685612    1.1685612    1.2082666
           1.2082666    1.2663985    1.2663985    1.5705375    1.5705375
           1.6080507    1.6080507    1.6552847    1.6552847    1.6918665
           1.6918665    1.8440536    1.8440536    1.9026513    1.9026513

           2.0129660    2.0129660    2.1059708    2.1059708    2.2089779
           2.2089779    2.2288920    2.2288920    2.3607577    2.3607577
           2.3810493    2.3810493    2.3986238    2.3986238    2.5070826
           2.5070826    2.5419167    2.5419167    2.6588417    2.6588417
           2.7125522    2.7125522    2.7737573    2.7737573    2.7977566
           2.7977566    2.8978077    2.8978077    2.9452339    2.9452339
           2.9956595    2.9956595    3.0175496    3.0175496    3.1079363
           3.1079363    3.1732850    3.1732850    3.2672118    3.2672118

           3.2967733    3.2967733    3.3690859    3.3690859    3.4873313
           3.4873313    3.5022815    3.5022815    3.5458356    3.5458356
           3.6781258    3.6781258    3.7133797    3.7133797    3.8025347
           3.8025347    3.8061931    3.8061931    3.8251904    3.8251904
           3.8293779    3.8293779    3.8872358    3.8872358    3.9298148
           3.9298148    4.0259333    4.0259333    4.0405689    4.0405689
           4.0917787    4.0917787    4.0963986    4.0963986    4.1538982
           4.1538982    4.1821348    4.1821348    4.2032009    4.2032009

           4.2215816    4.2215816    4.2671442    4.2671442    4.2772062
           4.2772062    4.3621372    4.3621372    4.3899348    4.3899348
           4.4389122    4.4389122
       ********************************************************
:GAP (global)   :    0.0    Ry =     0.0   eV (metal)
:GAP (this spin):    0.0    Ry =     0.0   eV (metal)
         Bandranges (emin - emax) and occupancy:
:BAN00018:  18    0.537485    0.723797  1.00000000
:BAN00019:  19    0.643007    0.740250  1.00000000
:BAN00020:  20    0.643007    0.740250  1.00000000
:BAN00021:  21    0.677051    0.762555  1.00000000
:BAN00022:  22    0.677051    0.762555  1.00000000
:BAN00023:  23    0.730241    0.766143  0.99863021
:BAN00024:  24    0.730241    0.766143  0.99863020
:BAN00025:  25    0.743650    0.775220  0.74576020
:BAN00026:  26    0.743650    0.775220  0.74576000
:BAN00027:  27    0.759611    0.777041  0.25560983
:BAN00028:  28    0.759611    0.777041  0.25560956
:BAN00029:  29    0.767087    0.779634  0.00000000
:BAN00030:  30    0.767087    0.779634  0.00000000
:BAN00031:  31    0.771515    0.787941  0.00000000
:BAN00032:  32    0.771515    0.787941  0.00000000
:BAN00033:  33    0.779090    0.795769  0.00000000
        Energy to separate low and high energystates:    0.48748


:NOE  : NUMBER OF ELECTRONS          =   26.000

:FER  : F E R M I - ENERGY(TETRAH.M.)=   0.7653714085
:GMA  : POTENTIAL AND CHARGE CUT-OFF  12.00 Ry**.5

:POS001: ATOM   -1 X,Y,Z = 0.00000 0.89750 0.25000  MULT= 2  ZZ= 59.000  Pr1       

       LMMAX 16
       LM=   0 0  1 0  2 0  2 2  3 0  3 2  4 0  4 2  4 4  5 0  5 2  5 4  6 0  6 2  6 4  6 6

:CHA001: TOTAL VALENCE CHARGE INSIDE SPHERE   1 =   9.5763    (RMT=  2.3000 )
:PCS001: PARTIAL CHARGES SPHERE =  1 S,P,D,F,PX,PY,PZ,D-Z2,D-X2Y2,D-XY,D-XZ,D-YZ 
:QTL001: 1.9419 4.9989 0.6095 2.0254 1.6636 1.6625 1.6727 0.1156 0.1095 0.1293 0.1219 0.1332
        Q-s-low E-s-low   Q-p-low E-p-low   Q-d-low E-d-low   Q-f-low E-f-low
:EPL001:  1.8688 -1.8425    4.9260 -0.5296    0.0041 -0.5326    0.0012 -0.5462
        Q-s-hi  E-s-hi    Q-p-hi  E-p-hi    Q-d-hi  E-d-hi    Q-f-hi  E-f-hi 
:EPH001:  0.0731  0.6704    0.0728  0.7060    0.6054  0.7059    2.0242  0.7475

                      VXX         VYY         VZZ       UP TO R
:VZZ001:             3.59600     5.35825    -8.95425       2.300

:CHA  : TOTAL VALENCE CHARGE INSIDE UNIT CELL =      26.000000

:SUM  : SUM OF EIGENVALUES =          -6.529078455


        1.ATOM      Pr1                  14 CORE STATES
       CORE-FORCE in mRy/a.u. = |F|      Fx             Fy             Fz
:FCO001:   1.ATOM   1527.461768542311      0.000000000000      0.000000000000   1527.461768542311

:1S 001: 1S               -3066.830970053 Ry
:2S 001: 2S                -492.584001185 Ry
:2PP001: 2P*               -465.682958717 Ry
:2P 001: 2P                -430.285528103 Ry
:3S 001: 3S                -105.676197712 Ry
:3PP001: 3P*                -94.213973934 Ry
:3P 001: 3P                 -87.206143055 Ry
:3DD001: 3D*                -67.132916099 Ry
:3D 001: 3D                 -65.621374565 Ry
:4S 001: 4S                 -20.348680744 Ry
:4PP001: 4P*                -16.055068875 Ry
:4P 001: 4P                 -14.527087068 Ry
:4DD001: 4D*                 -7.458900201 Ry
:4D 001: 4D                  -7.189294032 Ry
:CINT001 Core Integral Atom   1   45.998498

       DENSITY AT NUCLEUS
        JATOM        VALENCE       SEMI-CORE          CORE           TOTAL
:RTO001:   1      649.081098        0.000000   656825.502422   657474.583520
     
       CHARGES OF NEW CHARGE DENSITY
:NTO   : INTERSTITIAL CHARGE =     6.847405
:NPC   : PW Pseudocharge     =    17.121484
:NTO001: CHARGE SPHERE  1    =    55.574795

:NEC01: NUCLEAR AND ELECTRONIC CHARGE    118.00000   117.99699
     
       CHARGES OF OLD CHARGE DENSITY
:OTO   : INTERSTITIAL CHARGE =     6.850377
:OPC   : PW Pseudocharge     =    17.128997
:OTO001: CHARGE SPHERE  1    =    55.574812

:NEC02: NUCLEAR AND ELECTRONIC CHARGE    118.00000   118.00000
     
       CONVERGENCE TEST
:DTO001: DIFFERENCE IN SPHERE  1 =  0.0000413

:DIS  :  CHARGE DISTANCE       ( 0.0000413 for atom    1 spin 1)      0.0000413
 PW Mixed is          421
 
******************************************************
* MULTISECANT MIXING VER9 RELEASE 10.4.0              *
* Standard Mode with controls                        *
* Fixed density scale                                *
* Regularization       1.000E-04                     *
* Trust Upper Limit    5.000E+00                     *
* Max Number of Memory Steps    8                    *
******************************************************
 
:PWTMP   3.0297E+02  1.9467E+02  4.0490E+02
:PLANE:  PW TOTAL      5.1078 DISTAN   9.63E-06  1.89E-04 %
:CHARG:  CLM/ATOM   1381.9517 DISTAN   7.15E-05  5.18E-06 %
 
Step History
        DMIX         DMIXT        Red     Pred      Trust     Lambda    MagRel    MagAbs     Beta
  2   2.5000E-02   2.5000E-02  6.97E-01  1.00E+00 -1.00E+01  1.00E+00  2.50E-02  4.28E-03  1.00E+00
  3   2.7740E-02   2.7740E-02  3.92E-01  1.00E+00 -1.00E+01  3.00E+00  2.77E-02  3.31E-03  1.00E+00
  4   4.6755E-02   4.6755E-02  9.39E-01  9.99E-01  3.54E-01  1.26E+00  4.73E-02  2.21E-03  8.95E-01
  5   1.1689E-01   1.1121E-01  4.89E-01  6.59E-01  4.76E-01  1.03E+00  4.76E-01  2.09E-02  1.00E+00
  6   2.2039E-01   2.2039E-01  2.11E-01  3.34E-01  9.11E-01  1.28E+00  9.11E-01  1.96E-02  1.00E+00
  7   1.7021E-01   1.7021E-01  5.39E-01  8.27E-01  1.97E+00  1.54E+00  3.39E-01  1.53E-03  1.00E+00
  8   3.2379E-01   3.2379E-01  3.09E-01  3.15E-01  2.63E+00  1.68E+00  6.43E-01  1.57E-03  1.00E+00
  9   2.4245E-01   2.4245E-01  5.11E-01  5.72E-01  5.03E+00  1.84E+00  2.01E-01  1.52E-04  1.00E+00
 10   3.5000E-01   3.5000E-01 -1.00E+00  2.88E-01  6.71E+00  1.00E+00  4.78E-01  1.84E-04  1.00E+00
:JACOBIANS    4.095E-01   2.261E+00
  
:NORMS:  1/Froebius, Min, Max, Used   0.7398E+00  0.4498E+00  0.9846E+00  0.9615E+00
:INFO :  Number of Memory Steps    8 Skipping    1
:INFO :  SLambda=    1.6821518822  Max    1.6821518822
:PREDicted Charge, CTotal, PW Trust    6.084E-06   1.217E-05   2.280E-04
:PREDicted DMix, Beta, BLim   3.1828E-01  1.0610E+00  8.4840E+00

Eigenvalues, unscaled except for SY+YY
   #     SY Real        SY Imag          SS             YY         SY+YY Real      SY+YY Imag
   1   3.083455E+00   0.000000E+00   3.010804E+00   3.256972E+00   8.389509E+00   0.000000E+00
   2   1.502205E+00   0.000000E+00   1.086531E+00   2.815179E+00   5.261090E+00   0.000000E+00
   3   4.899081E-01   0.000000E+00   2.643315E-01   1.278970E+00   2.140732E+00   0.000000E+00
   4   6.979616E-02   0.000000E+00   1.160058E-02   4.084278E-01   5.397594E-01   0.000000E+00
   5   3.716902E-02   0.000000E+00   4.958764E-03   2.176136E-01   3.637417E-01   0.000000E+00
   6   3.680411E-03   0.000000E+00   6.132902E-04   2.196078E-02   2.829176E-02   0.000000E+00
   7   3.214906E-04   0.000000E+00   1.207259E-04   8.755973E-04   1.415832E-03   0.000000E+00
   8   9.233552E-09   0.000000E+00   5.003205E-09   2.095716E-08   3.636037E-08   0.000000E+00
 
:INFO :  Singular value  8.391E+00 Weight  1.000E+00 Projection -2.729E-06
:INFO :  Singular value  5.264E+00 Weight  1.000E+00 Projection  1.784E-05
:INFO :  Singular value  2.142E+00 Weight  1.000E+00 Projection  3.966E-05
:INFO :  Singular value  5.397E-01 Weight  1.000E+00 Projection  2.918E-05
:INFO :  Singular value  3.633E-01 Weight  1.000E+00 Projection -2.027E-06
:INFO :  Singular value  2.829E-02 Weight  9.999E-01 Projection  1.123E-04
:INFO :  Singular value  1.416E-03 Weight  9.497E-01 Projection -2.898E-04
:INFO :  Singular value  3.636E-08 Weight  1.246E-08 Projection -1.896E-09
:RANK :  ACTIVE   6.95/8  =  86.87 % ; YY RANK   6.88/8  =  85.98 %
 
:BLIM :  VZERO Control Off
:TRUST:  Step 8.94E+00  Charge 3.07E-02 (e) CTO  1.02E-01 (e) PW  1.43E-01 (e)
:DIRM :  MEMORY  8/8  SCALE   1.000 RED  0.19 PRED  0.29 NEXT  0.38 
:TRAVE:  Charge 3.77E-05 (e) CTO  7.54E-05 (e) PW  3.77E-04 (e)
:DIRP :  |MSR1|= 7.134E-06 |PRATT|= 9.631E-06 ANGLE=  72.7 DEGREES
:DIRQ :  |MSR1|= 2.036E-05 |PRATT|= 7.153E-05 ANGLE=  35.5 DEGREES
:DIRT :  |MSR1|= 2.157E-05 |PRATT|= 7.218E-05 ANGLE=  39.3 DEGREES
:MIX  :   MSE1   REGULARIZATION:  3.26E-04 GREED: 0.30716  Newton 1.00  0.2989                
     
       CHARGES OF MIXED CHARGE DENSITY
:CTO   : INTERSTITIAL CHARGE =     6.850376
:CPC   : PW Pseudocharge     =    17.129019
:CTO001: CHARGE SPHERE  1    =    55.574812

:NEC03: NUCLEAR AND ELECTRONIC CHARGE    118.00000   118.00000

PW CHANGE     H    K    L      Current       Change    Residue
:PTO001:      0    0    0  5.92230120E-02  5.364E-08  8.816E-08
:PTO003:      0    2    0  1.55557498E-02  1.476E-08 -3.733E-08
:PTO004:     -1    1    0  7.55739020E-02  1.344E-07  2.285E-08
:PTO005:      0    2   -1 -8.74070184E-02 -9.902E-08  1.046E-07
:PTO006:      0    0   -2 -4.52774808E-02 -7.945E-08 -2.690E-08
:PTO007:     -1    1   -1 -9.35473484E-02 -1.672E-07 -1.590E-08
:PTO008:      0    2   -2 -1.46930218E-02 -4.690E-08 -4.626E-08
:PTO009:     -1    1   -2 -7.49812064E-02 -5.137E-08  1.684E-07
:PTO011:     -1    3    0 -1.18923980E-02  3.090E-09  4.998E-08
:PTO012:     -1    3   -1 -5.22846411E-02 -7.713E-09  1.900E-07
:PTO013:      0    4    0 -9.35109418E-03  2.867E-10  3.864E-08
:PTO014:      0    2   -3  2.15686011E-02  2.370E-08 -5.924E-09

:ENE  : ********** TOTAL ENERGY IN Ry =       -36944.28206782

       TOTAL FORCE IN mRy/a.u. = |F|     Fx             Fy             Fz     with/without FOR in case.in2
:FOR001:   1.ATOM         22.384          0.000          0.000        -22.384 partial forces
       TOTAL FORCE WITH RESPECT TO GLOBAL CARTESIAN COORDINATES:
:FCA001:   1.ATOM                         0.000        -22.384          0.000 partial forces
       TOTAL FORCE WITH RESPECT TO THE GLOBAL COORDINATE SYSTEM:
:FGL001:   1.ATOM                 0.000000000   -22.384335452     0.000000000 partial forces
