
------- case.scf0 --------
 Flat Integration
 New Mode for Coulomb Integral
 Consistent 3/8+Simpson combinations
 Extension of core to zero
 LDM version in phi
 Fifth-order quadrature in outwin


            ---------
:ITE022: 22. ITERATION
            ---------

:NATO :    1 INDEPENDENT AND    1 TOTAL ATOMS IN UNITCELL
       SUBSTANCE: blebleble                                                   

       LATTICE                      = F   
:POT  : POTENTIAL OPTION EX_LDA EC_LDA VX_LDA VC_LDA
:LAT  : LATTICE CONSTANTS=  9.61244  9.61244  9.61244    1.571    1.571    1.571
:VOL  : UNIT CELL VOLUME =     222.04511
       MODE OF CALCULATION IS       = RELA
       NON-SPINPOLARIZED CALCULATION
:IFFT  : FFT-parameters:   80   80   80 Factor: 2.00


   CONVERGENCE PARAMETER FOR PSEUDOCHARGE: NCON=  9
   MAXIMAL VALUE OF RMT(JATOM)*ABSK(NKK) : RK  =29.95407


:VKCOUL :  VK-COUL convergence: 0.960E-07
       ATOMNUMBER=  1 Pr         VCOUL-ZERO =  0.31150E+00
:FIT001: LUSE= 13 SIGMA OF V-XC FIT FOR ATOM  1  0.4506204E-04
:FIT001: LUSE= 13 SIGMA OF V-XC FIT FOR ATOM  1  0.4506204E-04
:DEN  : DENSITY INTEGRAL  =         -7075.26612945   (Ry)
       ELS_POTENTIAL_AT Z=0 and Z=0.5:  -2.56331  -2.56331
       ELS_POTENTIAL_AT Y=0 and Y=0.5:   0.00000   0.00000
:VZERO:v0,v0c,v0x  -3.55734  -2.56331  -0.99403 v5,v5c,v5x  -3.55734  -2.56331  -0.99403
:VZERY:v0,v0c,v0x  -0.73650   0.00000  -0.73650 v5,v5c,v5x  -0.73650   0.00000  -0.73650
:VZERX:v0,v0c,v0x  -0.73650   0.00000  -0.73650 v5,v5c,v5x  -0.73650   0.00000  -0.73650

------- case.scf1 --------
:LMAX-WF:   10   Non-Spherical LMAX:   4

          ATOMIC SPHERE DEPENDENT PARAMETERS FOR ATOM  Pr        
:e__0001: OVERALL ENERGY PARAMETER IS    0.4403
          OVERALL BASIS SET ON ATOM IS LAPW
:E0_0001: E( 0)=    0.4403
             APW+lo
:E0_0001: E( 0)=   -2.0268   E(BOTTOM)=   -2.408   E(TOP)=   -1.646  4  5   177
             LOCAL ORBITAL
:E1_0001: E( 1)=    0.8403
             APW+lo
:E1_0001: E( 1)=   -0.6386   E(BOTTOM)=   -1.285   E(TOP)=    0.008  3  4   177
             LOCAL ORBITAL
:E3_0001: E( 3)=    0.6397   E(BOTTOM)=    0.499   E(TOP)=    0.781  0  1   117
             APW+lo
:E2_0001: E( 2)=    0.4403   E(BOTTOM)=    0.289   E(TOP)= -200.000  2 -1    86
             APW+lo

       K=   0.00000   0.00000   0.00000            1
:RKM  : MATRIX SIZE   189LOs:  20  RKM= 8.49  WEIGHT= 1.00  PGR:    
       EIGENVALUES ARE:
:EIG00001:      -1.9927164   -0.6112378   -0.6112378   -0.6112378    0.3899394
:EIG00006:       0.6296166    0.6516725    0.6516725    0.6516725    0.6806485
:EIG00011:       0.6806485    0.6806485    0.7752651    0.7752651    0.7752651
:EIG00016:       0.9658732    0.9658732    1.3756838    1.6197961    1.6197961
:EIG00021:       1.6197961    1.7214668    2.4960258    2.4960258    2.4960258
:EIG00026:       2.6063026    2.6063026    2.6063026    2.7800141    2.7800141
:EIG00031:       3.2083624    3.3607228    3.3607228    3.3607228    3.8212465
:EIG00036:       3.8212465    4.0555942    4.0555942    4.0555942    4.1165076
:EIG00041:       4.1165076    4.1165076    4.1928202    4.1928202    4.1928202
:EIG00046:       4.5043291    4.5043291    4.5043291    4.5850994    4.6097356
 
:EIG00051:       4.6097356    4.7579908    4.7579908    4.7579908    4.7733527
:EIG00056:       4.7733527    4.7733527    4.8812169    4.8852040    4.9869496
:EIG00061:       4.9869496    4.9869496    5.2125649    5.2125649    5.2125649
:EIG00066:       5.5761772    6.4886636    6.5105564    6.5105564    6.9234348
:EIG00071:       6.9234348    6.9234348    7.4804606    7.4804606    7.6454945
:EIG00076:       7.6454945    7.6454945    7.6931456    7.6931456    7.6931456
:EIG00081:       7.8940579    7.8940579    7.8940579    7.9025433    7.9025433
:EIG00086:       8.0428616    8.0428616    8.0428616    8.1173876    8.1173876
:EIG00091:       8.1173876    8.1324383    8.1324383    8.1324383
       ********************************************************

:KPT   :      NUMBER OF K-POINTS:   165

------- case.scfso --------
   0.0   0.0 angle (M,z), angle (M,x) deg
 
        SPIN-ORBIT EIGENVALUES:
     K=   0.00000   0.00000   0.00000            1
      MATRIX SIZE=  188   WEIGHT= 1.00
     EIGENVALUES ARE:
          -1.9927164   -1.9927164   -0.7602428   -0.7602428   -0.5413336
          -0.5413336   -0.5413336   -0.5413336    0.3899394    0.3899394
           0.6259775    0.6259775    0.6413591    0.6413591    0.6413591
           0.6413591    0.6632782    0.6632782    0.6799972    0.6799972
           0.6872092    0.6872092    0.6872092    0.6872092    0.7713948
           0.7713948    0.7713948    0.7713948    0.7818988    0.7818988
           0.9662373    0.9662373    0.9662373    0.9662373    1.3757431
           1.3757431    1.6152455    1.6152455    1.6219170    1.6219170

           1.6219170    1.6219170    1.7214668    1.7214668    2.4908964
           2.4908964    2.4908964    2.4908964    2.5057747    2.5057747
           2.5295511    2.5295511    2.6454815    2.6454815    2.6454815
           2.6454815    2.7803071    2.7803071    2.7803071    2.7803071
           3.2083624    3.2083624    3.3603048    3.3603048    3.3609439
           3.3609439    3.3609439    3.3609439    3.8212115    3.8212115
           3.8212115    3.8212115    4.0541723    4.0541723    4.0541723
           4.0541723    4.0587324    4.0587324    4.0809759    4.0809759

           4.1360760    4.1360760    4.1360761    4.1360761    4.1928101
           4.1928101    4.1928252    4.1928252    4.1928252    4.1928252

       ********************************************************

------- case.scf2 --------
:GMA  : POTENTIAL AND CHARGE CUT-OFF  12.00 Ry**.5




:POS001: at.nr.   1 position = 0.00000 0.00000 0.50000  multiplicity =  1

       lmmax  5
       lm=   0 0  4 0  4 4  6 0  6 4
:FER gutzwiller fermi energy   0.65474
:EORB         -0.074677854
:SUM sum of gutz band energies         -4.870372062

:CHA001: total charge inside sphere   1 =    10.181624
:PCS001: partial charges sphere =  1 s,p,d,f,      d-eg,d-t2g 
:QTL001: 2.0345 5.3507 0.7152 2.0807 0.0000 0.0000 0.0000 0.2589 0.4563 0.0000 0.0000 0.0000

:CHA  : total charge inside unit cell =       6.499997

------- case.scfc --------

        1.ATOM      Pr                   14 CORE STATES
:1S 001: 1S               -3066.958574091 Ry
:2S 001: 2S                -492.711385434 Ry
:2PP001: 2P*               -465.810543521 Ry
:2P 001: 2P                -430.413047325 Ry
:3S 001: 3S                -105.801103631 Ry
:3PP001: 3P*                -94.338985680 Ry
:3P 001: 3P                 -87.331084414 Ry
:3DD001: 3D*                -67.258209969 Ry
:3D 001: 3D                 -65.746631160 Ry
:4S 001: 4S                 -20.475555020 Ry
:4PP001: 4P*                -16.182194128 Ry
:4P 001: 4P                 -14.654552633 Ry
:4DD001: 4D*                 -7.587075962 Ry
:4D 001: 4D                  -7.317591040 Ry

------- case.scfm --------
:CINT001 Core Integral Atom   1   45.999519

       DENSITY AT NUCLEUS
        JATOM        VALENCE       SEMI-CORE          CORE           TOTAL
:RTO001:   1      652.995391        0.000000   656825.163522   657478.158913
 :WARNING: K-list has changed
     
       CHARGES OF NEW CHARGE DENSITY
:NTO   : INTERSTITIAL CHARGE =     2.818503
:NPC   : PW Pseudocharge     =     7.679120
:NTO001: CHARGE SPHERE  1    =    56.181142

:NEC01: NUCLEAR AND ELECTRONIC CHARGE     59.00000    58.99965
     
       CHARGES OF OLD CHARGE DENSITY
:OTO   : INTERSTITIAL CHARGE =     2.870527
:OPC   : PW Pseudocharge     =     7.691272
:OTO001: CHARGE SPHERE  1    =    56.129473

:NEC02: NUCLEAR AND ELECTRONIC CHARGE     59.00000    59.00000
     
       CONVERGENCE TEST
:DTO001: DIFFERENCE IN SPHERE  1 =  0.0937640

:DIS  :  CHARGE DISTANCE       ( 0.0937640 for atom    1 spin 1)      0.0937640
 PW Mixed is           53
 
******************************************************
* MULTISECANT MIXING VER9 RELEASE 10.4.0              *
* Standard Mode with controls                        *
* Fixed density scale                                *
* Regularization       1.000E-04                     *
* Trust Upper Limit    5.000E+00                     *
* Max Number of Memory Steps    8                    *
******************************************************
 
:PWTMP   1.5660E+02  1.2500E+02  2.2205E+02
:PLANE:  PW TOTAL      3.1626 DISTAN   1.75E-02  5.54E-01 %
:CHARG:  CLM/ATOM    977.1890 DISTAN   4.17E-01  4.26E-02 %
 
Step History
        DMIX         DMIXT        Red     Pred      Trust     Lambda    MagRel    MagAbs     Beta
  1   3.5000E-02   3.5000E-02 -1.00E+00  1.00E+00 -1.00E+01  1.00E+00  3.50E-02  3.50E-02  1.00E+00
:INFO :  Note, Pratt in use
:TRUST:  Step 3.75E-02  Charge 7.50E-02 (e) CTO  2.50E-01 (e) PW  3.50E-01 (e)
:DIRM :  MEMORY  0/ 8 SCALE   1.000
Performing Pseudo Compensation
Final Pseudo Compensation Rescaling     1.00000E+00
:MIX  :   PRATT  REGULARIZATION:  1.00E-04 GREED: 0.02500                  
     
       CHARGES OF MIXED CHARGE DENSITY
:CTO   : INTERSTITIAL CHARGE =     2.869235
:CPC   : PW Pseudocharge     =     7.687812
:CTO001: CHARGE SPHERE  1    =    56.130765

:NEC03: NUCLEAR AND ELECTRONIC CHARGE     59.00000    59.00000

PW CHANGE     H    K    L      Current       Change    Residue
:PTO001:      0    0    0  4.75446037E-02 -2.140E-05 -2.831E-04
:PTO002:     -1   -1   -1 -1.40351151E-01  6.021E-05 -5.684E-05
:PTO003:      0    0   -2  8.17468112E-02 -2.843E-05  3.553E-04
:PTO004:      0   -2   -2  6.54699530E-02 -4.339E-05 -4.217E-04
:PTO005:     -1   -1   -3 -5.62087405E-02  4.120E-05 -4.607E-05
:PTO006:     -2   -2   -2  1.36551618E-02 -4.898E-06  3.228E-04
:PTO007:      0    0   -4  1.14132336E-03 -4.898E-06  1.697E-04
:PTO008:     -1   -3   -3  2.39503050E-03  5.215E-05  4.856E-04
:PTO009:      0   -2   -4 -4.74124369E-03 -5.552E-05 -5.693E-04
:PTO010:     -2   -2   -4 -8.31780805E-03 -4.198E-05  1.148E-04
:PTO011:     -3   -3   -3  2.91540573E-03  8.155E-06 -2.724E-04
:PTO012:     -1   -1   -5  8.58619474E-03  4.119E-05 -1.481E-04

:ENE  : ********** TOTAL ENERGY IN Ry =       -18472.12907679


------- case.scf0 --------
 Flat Integration
 New Mode for Coulomb Integral
 Consistent 3/8+Simpson combinations
 Extension of core to zero
 LDM version in phi
 Fifth-order quadrature in outwin


            ---------
:ITE023: 23. ITERATION
            ---------

:NATO :    1 INDEPENDENT AND    1 TOTAL ATOMS IN UNITCELL
       SUBSTANCE: blebleble                                                   

       LATTICE                      = F   
:POT  : POTENTIAL OPTION EX_LDA EC_LDA VX_LDA VC_LDA
:LAT  : LATTICE CONSTANTS=  9.61244  9.61244  9.61244    1.571    1.571    1.571
:VOL  : UNIT CELL VOLUME =     222.04511
       MODE OF CALCULATION IS       = RELA
       NON-SPINPOLARIZED CALCULATION
:IFFT  : FFT-parameters:   80   80   80 Factor: 2.00


   CONVERGENCE PARAMETER FOR PSEUDOCHARGE: NCON=  9
   MAXIMAL VALUE OF RMT(JATOM)*ABSK(NKK) : RK  =29.95407


:VKCOUL :  VK-COUL convergence: 0.102E-06
       ATOMNUMBER=  1 Pr         VCOUL-ZERO =  0.31135E+00
:FIT001: LUSE= 13 SIGMA OF V-XC FIT FOR ATOM  1  0.4407481E-04
:FIT001: LUSE= 13 SIGMA OF V-XC FIT FOR ATOM  1  0.4407481E-04
:DEN  : DENSITY INTEGRAL  =         -7075.40447611   (Ry)
       ELS_POTENTIAL_AT Z=0 and Z=0.5:  -2.56205  -2.56205
       ELS_POTENTIAL_AT Y=0 and Y=0.5:   0.00000   0.00000
:VZERO:v0,v0c,v0x  -3.55602  -2.56205  -0.99397 v5,v5c,v5x  -3.55602  -2.56205  -0.99397
:VZERY:v0,v0c,v0x  -0.73639   0.00000  -0.73639 v5,v5c,v5x  -0.73639   0.00000  -0.73639
:VZERX:v0,v0c,v0x  -0.73639   0.00000  -0.73639 v5,v5c,v5x  -0.73639   0.00000  -0.73639

------- case.scf1 --------
:LMAX-WF:   10   Non-Spherical LMAX:   4

          ATOMIC SPHERE DEPENDENT PARAMETERS FOR ATOM  Pr        
:e__0001: OVERALL ENERGY PARAMETER IS    0.4403
          OVERALL BASIS SET ON ATOM IS LAPW
:E0_0001: E( 0)=    0.4403
             APW+lo
:E0_0001: E( 0)=   -2.0260   E(BOTTOM)=   -2.407   E(TOP)=   -1.645  4  5   173
             LOCAL ORBITAL
:E1_0001: E( 1)=    0.8403
             APW+lo
:E1_0001: E( 1)=   -0.6379   E(BOTTOM)=   -1.285   E(TOP)=    0.009  3  4   176
             LOCAL ORBITAL
:E3_0001: E( 3)=    0.6413   E(BOTTOM)=    0.500   E(TOP)=    0.783  0  1   115
             APW+lo
:E2_0001: E( 2)=    0.4403   E(BOTTOM)=    0.290   E(TOP)= -200.000  2 -1    87
             APW+lo

       K=   0.00000   0.00000   0.00000            1
:RKM  : MATRIX SIZE   189LOs:  20  RKM= 8.49  WEIGHT= 1.00  PGR:    
       EIGENVALUES ARE:
:EIG00001:      -1.9919201   -0.6106206   -0.6106206   -0.6106206    0.3898610
:EIG00006:       0.6310330    0.6532070    0.6532070    0.6532070    0.6823104
:EIG00011:       0.6823104    0.6823104    0.7753556    0.7753556    0.7753556
:EIG00016:       0.9660689    0.9660689    1.3757817    1.6197881    1.6197881
:EIG00021:       1.6197881    1.7212187    2.4962127    2.4962127    2.4962127
:EIG00026:       2.6064202    2.6064202    2.6064202    2.7800650    2.7800650
:EIG00031:       3.2083572    3.3606300    3.3606300    3.3606300    3.8213122
:EIG00036:       3.8213122    4.0556050    4.0556050    4.0556050    4.1164295
:EIG00041:       4.1164295    4.1164295    4.1927747    4.1927747    4.1927747
:EIG00046:       4.5041593    4.5041593    4.5041593    4.5850854    4.6095396
 
:EIG00051:       4.6095396    4.7578014    4.7578014    4.7578014    4.7731699
:EIG00056:       4.7731699    4.7731699    4.8811776    4.8849505    4.9867258
:EIG00061:       4.9867258    4.9867258    5.2123402    5.2123402    5.2123402
:EIG00066:       5.5759247    6.4885767    6.5104772    6.5104772    6.9232948
:EIG00071:       6.9232948    6.9232948    7.4805744    7.4805744    7.6455202
:EIG00076:       7.6455202    7.6455202    7.6931854    7.6931854    7.6931854
:EIG00081:       7.8939220    7.8939220    7.8939220    7.9023905    7.9023905
:EIG00086:       8.0427657    8.0427657    8.0427657    8.1173464    8.1173464
:EIG00091:       8.1173464    8.1323229    8.1323229    8.1323229
       ********************************************************

:KPT   :      NUMBER OF K-POINTS:   165

------- case.scfso --------
   0.0   0.0 angle (M,z), angle (M,x) deg
 
        SPIN-ORBIT EIGENVALUES:
     K=   0.00000   0.00000   0.00000            1
      MATRIX SIZE=  188   WEIGHT= 1.00
     EIGENVALUES ARE:
          -1.9919201   -1.9919201   -0.7595829   -0.7595829   -0.5407370
          -0.5407370   -0.5407370   -0.5407370    0.3898610    0.3898610
           0.6274167    0.6274167    0.6429162    0.6429162    0.6429162
           0.6429162    0.6648019    0.6648019    0.6816380    0.6816380
           0.6888526    0.6888526    0.6888526    0.6888526    0.7714883
           0.7714883    0.7714883    0.7714883    0.7819851    0.7819851
           0.9664323    0.9664323    0.9664323    0.9664323    1.3758413
           1.3758413    1.6152435    1.6152435    1.6219062    1.6219062

           1.6219062    1.6219062    1.7212187    1.7212187    2.4910837
           2.4910837    2.4910837    2.4910837    2.5059606    2.5059606
           2.5296738    2.5296738    2.6455956    2.6455956    2.6455956
           2.6455956    2.7803579    2.7803579    2.7803579    2.7803579
           3.2083572    3.2083572    3.3602115    3.3602115    3.3608513
           3.3608513    3.3608513    3.3608513    3.8212772    3.8212772
           3.8212772    3.8212772    4.0541827    4.0541827    4.0541827
           4.0541827    4.0587441    4.0587441    4.0808879    4.0808879

           4.1360035    4.1360035    4.1360035    4.1360035    4.1927646
           4.1927646    4.1927798    4.1927798    4.1927798    4.1927798

       ********************************************************

------- case.scf2 --------
:GMA  : POTENTIAL AND CHARGE CUT-OFF  12.00 Ry**.5




:POS001: at.nr.   1 position = 0.00000 0.00000 0.50000  multiplicity =  1

       lmmax  5
       lm=   0 0  4 0  4 4  6 0  6 4
:FER gutzwiller fermi energy   0.65509
:EORB         -0.072153377
:SUM sum of gutz band energies         -4.864410201

:CHA001: total charge inside sphere   1 =    10.177183
:PCS001: partial charges sphere =  1 s,p,d,f,      d-eg,d-t2g 
:QTL001: 2.0345 5.3504 0.7168 2.0750 0.0000 0.0000 0.0000 0.2594 0.4574 0.0000 0.0000 0.0000

:CHA  : total charge inside unit cell =       6.500001

------- case.scfc --------

        1.ATOM      Pr                   14 CORE STATES
:1S 001: 1S               -3066.955243051 Ry
:2S 001: 2S                -492.708084229 Ry
:2PP001: 2P*               -465.807234838 Ry
:2P 001: 2P                -430.409741481 Ry
:3S 001: 3S                -105.797960866 Ry
:3PP001: 3P*                -94.335831345 Ry
:3P 001: 3P                 -87.327947662 Ry
:3DD001: 3D*                -67.255036852 Ry
:3D 001: 3D                 -65.743462878 Ry
:4S 001: 4S                 -20.473163968 Ry
:4PP001: 4P*                -16.179845577 Ry
:4P 001: 4P                 -14.652271529 Ry
:4DD001: 4D*                 -7.584910488 Ry
:4D 001: 4D                  -7.315448292 Ry

------- case.scfm --------
:CINT001 Core Integral Atom   1   45.999518

       DENSITY AT NUCLEUS
        JATOM        VALENCE       SEMI-CORE          CORE           TOTAL
:RTO001:   1      652.876232        0.000000   656825.003851   657477.880083
     
       CHARGES OF NEW CHARGE DENSITY
:NTO   : INTERSTITIAL CHARGE =     2.822998
:NPC   : PW Pseudocharge     =     7.681200
:NTO001: CHARGE SPHERE  1    =    56.176701

:NEC01: NUCLEAR AND ELECTRONIC CHARGE     59.00000    58.99970
     
       CHARGES OF OLD CHARGE DENSITY
:OTO   : INTERSTITIAL CHARGE =     2.869235
:OPC   : PW Pseudocharge     =     7.687812
:OTO001: CHARGE SPHERE  1    =    56.130765

:NEC02: NUCLEAR AND ELECTRONIC CHARGE     59.00000    59.00000
     
       CONVERGENCE TEST
:DTO001: DIFFERENCE IN SPHERE  1 =  0.0826053

:DIS  :  CHARGE DISTANCE       ( 0.0826053 for atom    1 spin 1)      0.0826053
 PW Mixed is           53
 
******************************************************
* MULTISECANT MIXING VER9 RELEASE 10.4.0              *
* Slow Mode, cautious                                *
* Fixed density scale                                *
* Regularization       1.000E-04                     *
* Step Trust Radius    0.75000                       *
* Trust Upper Limit    2.000E+00                     *
* Max Number of Memory Steps   12                    *
******************************************************
 
:PWTMP   1.5660E+02  1.2500E+02  2.2205E+02
:PLANE:  PW TOTAL      3.1612 DISTAN   1.62E-02  5.12E-01 %
:CHARG:  CLM/ATOM    977.1893 DISTAN   4.06E-01  4.15E-02 %
 
Step History
        DMIX         DMIXT        Red     Pred      Trust     Lambda    MagRel    MagAbs     Beta
  1   3.5000E-02   3.5000E-02 -1.00E+00  1.00E+00 -1.00E+01  1.00E+00  3.50E-02  3.50E-02  1.00E+00
  2   2.5000E-02   2.5000E-02 -1.00E+00  1.00E+00 -1.00E+01  1.00E+00  2.50E-02  1.04E-02  1.00E+00
:JACOBIANS    9.280E-03   2.754E-01
  
:TRUST:  Step 3.27E-02  Charge 7.50E-02 (e) CTO  2.50E-01 (e) PW  3.50E-01 (e)
:DIRM :  MEMORY  1/12 SCALE   1.000
:MIX  :   PRATT  REGULARIZATION:  1.00E-04 GREED: 0.03270  Expand 1.31  0.0327                
     
       CHARGES OF MIXED CHARGE DENSITY
:CTO   : INTERSTITIAL CHARGE =     2.841918
:CPC   : PW Pseudocharge     =     7.614638
:CTO001: CHARGE SPHERE  1    =    56.158082

:NEC03: NUCLEAR AND ELECTRONIC CHARGE     59.00000    59.00000

PW CHANGE     H    K    L      Current       Change    Residue
:PTO001:      0    0    0  4.70920354E-02 -4.526E-04 -2.330E-04
:PTO002:     -1   -1   -1 -1.39077856E-01  1.273E-03 -1.164E-04
:PTO003:      0    0   -2  8.11455335E-02 -6.013E-04  3.796E-04
:PTO004:      0   -2   -2  6.45524014E-02 -9.176E-04 -3.822E-04
:PTO005:     -1   -1   -3 -5.53374212E-02  8.713E-04 -7.066E-05
:PTO006:     -2   -2   -2  1.35515814E-02 -1.036E-04  3.242E-04
:PTO007:      0    0   -4  1.03774928E-03 -1.036E-04  1.715E-04
:PTO008:     -1   -3   -3  3.49785018E-03  1.103E-03  4.372E-04
:PTO009:      0   -2   -4 -5.91533292E-03 -1.174E-03 -5.191E-04
:PTO010:     -2   -2   -4 -9.20566154E-03 -8.879E-04  1.565E-04
:PTO011:     -3   -3   -3  3.08786135E-03  1.725E-04 -2.816E-04
:PTO012:     -1   -1   -5  9.45722134E-03  8.710E-04 -1.883E-04

:ENE  : ********** TOTAL ENERGY IN Ry =       -18472.12886650


------- case.scf0 --------
 Flat Integration
 New Mode for Coulomb Integral
 Consistent 3/8+Simpson combinations
 Extension of core to zero
 LDM version in phi
 Fifth-order quadrature in outwin


            ---------
:ITE024: 24. ITERATION
            ---------

:NATO :    1 INDEPENDENT AND    1 TOTAL ATOMS IN UNITCELL
       SUBSTANCE: blebleble                                                   

       LATTICE                      = F   
:POT  : POTENTIAL OPTION EX_LDA EC_LDA VX_LDA VC_LDA
:LAT  : LATTICE CONSTANTS=  9.61244  9.61244  9.61244    1.571    1.571    1.571
:VOL  : UNIT CELL VOLUME =     222.04511
       MODE OF CALCULATION IS       = RELA
       NON-SPINPOLARIZED CALCULATION
:IFFT  : FFT-parameters:   80   80   80 Factor: 2.00


   CONVERGENCE PARAMETER FOR PSEUDOCHARGE: NCON=  9
   MAXIMAL VALUE OF RMT(JATOM)*ABSK(NKK) : RK  =29.95407


:VKCOUL :  VK-COUL convergence: 0.702E-07
       ATOMNUMBER=  1 Pr         VCOUL-ZERO =  0.30812E+00
:FIT001: LUSE= 13 SIGMA OF V-XC FIT FOR ATOM  1  0.2626471E-04
:FIT001: LUSE= 13 SIGMA OF V-XC FIT FOR ATOM  1  0.2626471E-04
:DEN  : DENSITY INTEGRAL  =         -7078.33133705   (Ry)
       ELS_POTENTIAL_AT Z=0 and Z=0.5:  -2.53545  -2.53545
       ELS_POTENTIAL_AT Y=0 and Y=0.5:   0.00000   0.00000
:VZERO:v0,v0c,v0x  -3.52815  -2.53545  -0.99270 v5,v5c,v5x  -3.52815  -2.53545  -0.99270
:VZERY:v0,v0c,v0x  -0.73408   0.00000  -0.73408 v5,v5c,v5x  -0.73408   0.00000  -0.73408
:VZERX:v0,v0c,v0x  -0.73408   0.00000  -0.73408 v5,v5c,v5x  -0.73408   0.00000  -0.73408

------- case.scf1 --------
:LMAX-WF:   10   Non-Spherical LMAX:   4

          ATOMIC SPHERE DEPENDENT PARAMETERS FOR ATOM  Pr        
:e__0001: OVERALL ENERGY PARAMETER IS    0.4403
          OVERALL BASIS SET ON ATOM IS LAPW
:E0_0001: E( 0)=    0.4403
             APW+lo
:E0_0001: E( 0)=   -2.0086   E(BOTTOM)=   -2.393   E(TOP)=   -1.624  4  5   179
             LOCAL ORBITAL
:E1_0001: E( 1)=    0.8403
             APW+lo
:E1_0001: E( 1)=   -0.6236   E(BOTTOM)=   -1.275   E(TOP)=    0.028  3  4   178
             LOCAL ORBITAL
:E3_0001: E( 3)=    0.6750   E(BOTTOM)=    0.529   E(TOP)=    0.821  0  1   121
             APW+lo
:E2_0001: E( 2)=    0.4403   E(BOTTOM)=    0.296   E(TOP)= -200.000  2 -1    86
             APW+lo

       K=   0.00000   0.00000   0.00000            1
:RKM  : MATRIX SIZE   189LOs:  20  RKM= 8.49  WEIGHT= 1.00  PGR:    
       EIGENVALUES ARE:
:EIG00001:      -1.9751091   -0.5975947   -0.5975947   -0.5975947    0.3882220
:EIG00006:       0.6606075    0.6854300    0.6854300    0.6854300    0.7173598
:EIG00011:       0.7173598    0.7173598    0.7772372    0.7772372    0.7772372
:EIG00016:       0.9701728    0.9701728    1.3782063    1.6197928    1.6197928
:EIG00021:       1.6197928    1.7159839    2.5001762    2.5001762    2.5001762
:EIG00026:       2.6089245    2.6089245    2.6089245    2.7811386    2.7811386
:EIG00031:       3.2082496    3.3587651    3.3587651    3.3587651    3.8227200
:EIG00036:       3.8227200    4.0558516    4.0558516    4.0558516    4.1148010
:EIG00041:       4.1148010    4.1148010    4.1918126    4.1918126    4.1918126
:EIG00046:       4.5005754    4.5005754    4.5005754    4.5847929    4.6054028
 
:EIG00051:       4.6054028    4.7538494    4.7538494    4.7538494    4.7693403
:EIG00056:       4.7693403    4.7693403    4.8796347    4.8803723    4.9820080
:EIG00061:       4.9820080    4.9820080    5.2076547    5.2076547    5.2076547
:EIG00066:       5.5706945    6.4867475    6.5088090    6.5088090    6.9203568
:EIG00071:       6.9203568    6.9203568    7.4829737    7.4829737    7.6460504
:EIG00076:       7.6460504    7.6460504    7.6940179    7.6940179    7.6940179
:EIG00081:       7.8910508    7.8910508    7.8910508    7.8991667    7.8991667
:EIG00086:       8.0407610    8.0407610    8.0407610    8.1164716    8.1164716
:EIG00091:       8.1164716    8.1298874    8.1298874    8.1298874
       ********************************************************

:KPT   :      NUMBER OF K-POINTS:   165

------- case.scfso --------
   0.0   0.0 angle (M,z), angle (M,x) deg
 
        SPIN-ORBIT EIGENVALUES:
     K=   0.00000   0.00000   0.00000            1
      MATRIX SIZE=  188   WEIGHT= 1.00
     EIGENVALUES ARE:
          -1.9751091   -1.9751091   -0.7456540   -0.7456540   -0.5281466
          -0.5281466   -0.5281466   -0.5281466    0.3882220    0.3882220
           0.6574494    0.6574494    0.6756142    0.6756142    0.6756142
           0.6756142    0.6967911    0.6967911    0.7162661    0.7162661
           0.7235173    0.7235173    0.7235173    0.7235173    0.7734312
           0.7734312    0.7734312    0.7734312    0.7837786    0.7837786
           0.9705212    0.9705212    0.9705212    0.9705212    1.3782732
           1.3782732    1.6153792    1.6153792    1.6218509    1.6218509

           1.6218509    1.6218509    1.7159839    1.7159839    2.4950558
           2.4950558    2.4950558    2.4950558    2.5099016    2.5099016
           2.5322881    2.5322881    2.6480244    2.6480244    2.6480244
           2.6480244    2.7814319    2.7814319    2.7814319    2.7814319
           3.2082496    3.2082496    3.3583362    3.3583362    3.3589920
           3.3589920    3.3589920    3.3589920    3.8226834    3.8226834
           3.8226834    3.8226834    4.0544214    4.0544214    4.0544214
           4.0544214    4.0590100    4.0590100    4.0790489    4.0790489

           4.1344915    4.1344915    4.1344915    4.1344915    4.1918026
           4.1918026    4.1918176    4.1918176    4.1918176    4.1918176

       ********************************************************

------- case.scf2 --------
:GMA  : POTENTIAL AND CHARGE CUT-OFF  12.00 Ry**.5




:POS001: at.nr.   1 position = 0.00000 0.00000 0.50000  multiplicity =  1

       lmmax  5
       lm=   0 0  4 0  4 4  6 0  6 4
:FER gutzwiller fermi energy   0.65973
:EORB         -0.012428255
:SUM sum of gutz band energies         -4.745991725

:CHA001: total charge inside sphere   1 =    10.112762
:PCS001: partial charges sphere =  1 s,p,d,f,      d-eg,d-t2g 
:QTL001: 2.0338 5.3426 0.7323 2.0035 0.0000 0.0000 0.0000 0.2643 0.4681 0.0000 0.0000 0.0000

:CHA  : total charge inside unit cell =       6.500004

------- case.scfc --------

        1.ATOM      Pr                   14 CORE STATES
:1S 001: 1S               -3066.884799877 Ry
:2S 001: 2S                -492.638271987 Ry
:2PP001: 2P*               -465.737264451 Ry
:2P 001: 2P                -430.339831143 Ry
:3S 001: 3S                -105.731497811 Ry
:3PP001: 3P*                -94.269123756 Ry
:3P 001: 3P                 -87.261611652 Ry
:3DD001: 3D*                -67.187932323 Ry
:3D 001: 3D                 -65.676460555 Ry
:4S 001: 4S                 -20.422592965 Ry
:4PP001: 4P*                -16.130174468 Ry
:4P 001: 4P                 -14.604027181 Ry
:4DD001: 4D*                 -7.539117555 Ry
:4D 001: 4D                  -7.270136400 Ry

------- case.scfm --------
:CINT001 Core Integral Atom   1   45.999505

       DENSITY AT NUCLEUS
        JATOM        VALENCE       SEMI-CORE          CORE           TOTAL
:RTO001:   1      650.230087        0.000000   656821.627378   657471.857465
     
       CHARGES OF NEW CHARGE DENSITY
:NTO   : INTERSTITIAL CHARGE =     2.887255
:NPC   : PW Pseudocharge     =     7.711334
:NTO001: CHARGE SPHERE  1    =    56.112267

:NEC01: NUCLEAR AND ELECTRONIC CHARGE     59.00000    58.99952
     
       CHARGES OF OLD CHARGE DENSITY
:OTO   : INTERSTITIAL CHARGE =     2.841918
:OPC   : PW Pseudocharge     =     7.614638
:OTO001: CHARGE SPHERE  1    =    56.158082

:NEC02: NUCLEAR AND ELECTRONIC CHARGE     59.00000    59.00000
     
       CONVERGENCE TEST
:DTO001: DIFFERENCE IN SPHERE  1 =  0.1052869

:DIS  :  CHARGE DISTANCE       ( 0.1052869 for atom    1 spin 1)      0.1052869
 PW Mixed is           53
 
******************************************************
* MULTISECANT MIXING VER9 RELEASE 10.4.0              *
* Slow Mode, cautious                                *
* Fixed density scale                                *
* Regularization       1.000E-04                     *
* Step Trust Radius    0.75000                       *
* Trust Upper Limit    2.000E+00                     *
* Max Number of Memory Steps   12                    *
******************************************************
 
:PWTMP   1.5660E+02  1.2500E+02  2.2205E+02
:PLANE:  PW TOTAL      3.1327 DISTAN   4.27E-02  1.36E+00 %
:CHARG:  CLM/ATOM    977.1949 DISTAN   2.25E-01  2.31E-02 %
 
Step History
        DMIX         DMIXT        Red     Pred      Trust     Lambda    MagRel    MagAbs     Beta
  1   3.5000E-02   3.5000E-02 -1.00E+00  1.00E+00 -1.00E+01  1.00E+00  3.50E-02  3.50E-02  1.00E+00
  2   2.5000E-02   2.5000E-02  9.73E-01  1.00E+00 -1.00E+01  1.00E+00  2.50E-02  1.04E-02  1.00E+00
  3   3.2702E-02   3.2702E-02 -1.00E+00  1.00E+00 -1.00E+01  1.00E+00  3.27E-02  1.33E-02  1.00E+00
:JACOBIANS    1.564E-02   4.793E-01
  
:NORMS:  1/Froebius, Min, Max, Used   0.8108E+00  0.4591E+00  0.9181E+00  0.8108E+00
:INFO :  Number of Memory Steps    2 Skipping    0
:INFO :  SLambda=    0.4977557382  Max    0.4977557382
:PREDicted Charge, CTotal, PW Trust    3.840E-02   3.840E-02   7.951E-02
:PREDicted DMix, Beta, BLim   7.0173E-01  1.3276E+00  7.5565E-01

Eigenvalues, unscaled except for SY+YY
   #     SY Real        SY Imag          SS             YY         SY+YY Real      SY+YY Imag
   1  -3.330669E-16   0.000000E+00   1.314913E+00   1.999968E+00   3.407966E-05   0.000000E+00
   2   1.399738E+00   0.000000E+00   0.000000E+00   3.153880E-05   2.696694E+00   0.000000E+00
 
:INFO :  Singular value  2.697E+00 Weight  1.000E+00 Projection -6.892E-02
:INFO :  Singular value  3.408E-05 Weight  2.822E-02 Projection  9.453E-01
:RANK :  ACTIVE   1.03/2  =  51.41 % ; YY RANK   1.02/2  =  51.21 %
 
:BLIM :  VZERO Control Off
:TRUST:  Step 3.24E-01  Charge 7.50E-02 (e) CTO  2.50E-01 (e) PW  3.50E-01 (e)
:DTRUS:  Lambda    1.404E-01 Increment    7.276E-12 Iterations   101 DMIX    6.837E-02
:INFOA:  Angle SubSpace to MSR1      0.00
:DIRM :  MEMORY  2/12 SCALE   1.000 RED  0.57 PRED  1.00 NEXT  0.94 
:INFO :  Limited by Atoms F by Step T

:TRAVE:  Charge 3.09E-03 (e) CTO  3.09E-03 (e) PW  9.06E-03 (e)
:DIRP :  |MSR1|= 7.635E-03 |PRATT|= 4.270E-02 ANGLE= 148.9 DEGREES
:DIRQ :  |MSR1|= 7.398E-02 |PRATT|= 2.254E-01 ANGLE=  30.2 DEGREES
:DIRT :  |MSR1|= 7.438E-02 |PRATT|= 2.294E-01 ANGLE=  34.1 DEGREES
:MIX  :   MSD1   REGULARIZATION:  2.00E-04 GREED: 0.08176  LMStep 0.84  0.3242 Step           
     
       CHARGES OF MIXED CHARGE DENSITY
:CTO   : INTERSTITIAL CHARGE =     2.838833
:CPC   : PW Pseudocharge     =     7.601633
:CTO001: CHARGE SPHERE  1    =    56.161167

:NEC03: NUCLEAR AND ELECTRONIC CHARGE     59.00000    59.00000

PW CHANGE     H    K    L      Current       Change    Residue
:PTO001:      0    0    0  4.70195721E-02 -7.246E-05  6.476E-04
:PTO002:     -1   -1   -1 -1.38820211E-01  2.576E-04 -1.410E-03
:PTO003:      0    0   -2  8.10428961E-02 -1.026E-04  9.532E-04
:PTO004:      0   -2   -2  6.43253198E-02 -2.271E-04  4.497E-04
:PTO005:     -1   -1   -3 -5.51332136E-02  2.042E-04 -6.599E-04
:PTO006:     -2   -2   -2  1.35467423E-02 -4.839E-06  3.706E-04
:PTO007:      0    0   -4  1.02400311E-03 -1.375E-05  2.337E-04
:PTO008:     -1   -3   -3  3.76644780E-03  2.686E-04 -5.923E-04
:PTO009:      0   -2   -4 -6.20560942E-03 -2.903E-04  5.683E-04
:PTO010:     -2   -2   -4 -9.38132249E-03 -1.757E-04  1.047E-03
:PTO011:     -3   -3   -3  3.10300660E-03  1.515E-05 -4.743E-04
:PTO012:     -1   -1   -5  9.62672126E-03  1.695E-04 -1.066E-03

:ENE  : ********** TOTAL ENERGY IN Ry =       -18472.12686881


------- case.scf0 --------
 Flat Integration
 New Mode for Coulomb Integral
 Consistent 3/8+Simpson combinations
 Extension of core to zero
 LDM version in phi
 Fifth-order quadrature in outwin


            ---------
:ITE025: 25. ITERATION
            ---------

:NATO :    1 INDEPENDENT AND    1 TOTAL ATOMS IN UNITCELL
       SUBSTANCE: blebleble                                                   

       LATTICE                      = F   
:POT  : POTENTIAL OPTION EX_LDA EC_LDA VX_LDA VC_LDA
:LAT  : LATTICE CONSTANTS=  9.61244  9.61244  9.61244    1.571    1.571    1.571
:VOL  : UNIT CELL VOLUME =     222.04511
       MODE OF CALCULATION IS       = RELA
       NON-SPINPOLARIZED CALCULATION
:IFFT  : FFT-parameters:   80   80   80 Factor: 2.00


   CONVERGENCE PARAMETER FOR PSEUDOCHARGE: NCON=  9
   MAXIMAL VALUE OF RMT(JATOM)*ABSK(NKK) : RK  =29.95407


:VKCOUL :  VK-COUL convergence: 0.603E-07
       ATOMNUMBER=  1 Pr         VCOUL-ZERO =  0.30760E+00
:FIT001: LUSE= 13 SIGMA OF V-XC FIT FOR ATOM  1  0.2173066E-04
:FIT001: LUSE= 13 SIGMA OF V-XC FIT FOR ATOM  1  0.2173066E-04
:DEN  : DENSITY INTEGRAL  =         -7078.54977475   (Ry)
       ELS_POTENTIAL_AT Z=0 and Z=0.5:  -2.53124  -2.53124
       ELS_POTENTIAL_AT Y=0 and Y=0.5:   0.00000   0.00000
:VZERO:v0,v0c,v0x  -3.52411  -2.53124  -0.99287 v5,v5c,v5x  -3.52411  -2.53124  -0.99287
:VZERY:v0,v0c,v0x  -0.73376   0.00000  -0.73376 v5,v5c,v5x  -0.73376   0.00000  -0.73376
:VZERX:v0,v0c,v0x  -0.73376   0.00000  -0.73376 v5,v5c,v5x  -0.73376   0.00000  -0.73376

------- case.scf1 --------
:LMAX-WF:   10   Non-Spherical LMAX:   4

          ATOMIC SPHERE DEPENDENT PARAMETERS FOR ATOM  Pr        
:e__0001: OVERALL ENERGY PARAMETER IS    0.4403
          OVERALL BASIS SET ON ATOM IS LAPW
:E0_0001: E( 0)=    0.4403
             APW+lo
:E0_0001: E( 0)=   -2.0072   E(BOTTOM)=   -2.392   E(TOP)=   -1.622  4  5   181
             LOCAL ORBITAL
:E1_0001: E( 1)=    0.8403
             APW+lo
:E1_0001: E( 1)=   -0.6225   E(BOTTOM)=   -1.274   E(TOP)=    0.029  3  4   179
             LOCAL ORBITAL
:E3_0001: E( 3)=    0.6778   E(BOTTOM)=    0.532   E(TOP)=    0.824  0  1   122
             APW+lo
:E2_0001: E( 2)=    0.4403   E(BOTTOM)=    0.297   E(TOP)= -200.000  2 -1    84
             APW+lo

       K=   0.00000   0.00000   0.00000            1
:RKM  : MATRIX SIZE   189LOs:  20  RKM= 8.49  WEIGHT= 1.00  PGR:    
       EIGENVALUES ARE:
:EIG00001:      -1.9737570   -0.5965958   -0.5965958   -0.5965958    0.3878139
:EIG00006:       0.6630196    0.6881119    0.6881119    0.6881119    0.7203562
:EIG00011:       0.7203562    0.7203562    0.7771381    0.7771381    0.7771381
:EIG00016:       0.9703217    0.9703217    1.3781717    1.6195763    1.6195763
:EIG00021:       1.6195763    1.7152857    2.5002817    2.5002817    2.5002817
:EIG00026:       2.6089090    2.6089090    2.6089090    2.7809097    2.7809097
:EIG00031:       3.2079937    3.3583257    3.3583257    3.3583257    3.8226289
:EIG00036:       3.8226289    4.0556215    4.0556215    4.0556215    4.1144021
:EIG00041:       4.1144021    4.1144021    4.1915053    4.1915053    4.1915053
:EIG00046:       4.4999480    4.4999480    4.4999480    4.5845503    4.6047248
 
:EIG00051:       4.6047248    4.7531750    4.7531750    4.7531750    4.7687814
:EIG00056:       4.7687814    4.7687814    4.8788935    4.8800289    4.9813270
:EIG00061:       4.9813270    4.9813270    5.2069772    5.2069772    5.2069772
:EIG00066:       5.5699931    6.4863125    6.5083889    6.5083889    6.9198382
:EIG00071:       6.9198382    6.9198382    7.4828774    7.4828774    7.6458101
:EIG00076:       7.6458101    7.6458101    7.6938249    7.6938249    7.6938249
:EIG00081:       7.8905168    7.8905168    7.8905168    7.8985944    7.8985944
:EIG00086:       8.0403268    8.0403268    8.0403268    8.1161096    8.1161096
:EIG00091:       8.1161096    8.1294086    8.1294086    8.1294086
       ********************************************************

:KPT   :      NUMBER OF K-POINTS:   165

------- case.scfso --------
   0.0   0.0 angle (M,z), angle (M,x) deg
 
        SPIN-ORBIT EIGENVALUES:
     K=   0.00000   0.00000   0.00000            1
      MATRIX SIZE=  188   WEIGHT= 1.00
     EIGENVALUES ARE:
          -1.9737570   -1.9737570   -0.7445704   -0.7445704   -0.5271886
          -0.5271886   -0.5271886   -0.5271886    0.3878139    0.3878139
           0.6599037    0.6599037    0.6783419    0.6783419    0.6783419
           0.6783419    0.6994521    0.6994521    0.7192234    0.7192234
           0.7264760    0.7264760    0.7264760    0.7264760    0.7733382
           0.7733382    0.7733382    0.7733382    0.7836709    0.7836709
           0.9706687    0.9706687    0.9706687    0.9706687    1.3782394
           1.3782394    1.6151758    1.6151758    1.6216283    1.6216283

           1.6216283    1.6216283    1.7152857    1.7152857    2.4951615
           2.4951615    2.4951615    2.4951615    2.5100058    2.5100058
           2.5322816    2.5322816    2.6480024    2.6480024    2.6480024
           2.6480024    2.7812032    2.7812032    2.7812032    2.7812032
           3.2079937    3.2079937    3.3578958    3.3578958    3.3585531
           3.3585531    3.3585531    3.3585531    3.8225922    3.8225922
           3.8225922    3.8225922    4.0541906    4.0541906    4.0541906
           4.0541906    4.0587817    4.0587817    4.0786296    4.0786296

           4.1341040    4.1341040    4.1341040    4.1341040    4.1914953
           4.1914953    4.1915104    4.1915104    4.1915104    4.1915104
           4.4998834    4.4998834    4.4998834    4.4998834
       ********************************************************

------- case.scf2 --------
:GMA  : POTENTIAL AND CHARGE CUT-OFF  12.00 Ry**.5




:POS001: at.nr.   1 position = 0.00000 0.00000 0.50000  multiplicity =  1

       lmmax  5
       lm=   0 0  4 0  4 4  6 0  6 4
:FER gutzwiller fermi energy   0.66037
:EORB         -0.009366857
:SUM sum of gutz band energies         -4.736347562

:CHA001: total charge inside sphere   1 =    10.103858
:PCS001: partial charges sphere =  1 s,p,d,f,      d-eg,d-t2g 
:QTL001: 2.0338 5.3423 0.7361 1.9911 0.0000 0.0000 0.0000 0.2654 0.4707 0.0000 0.0000 0.0000

:CHA  : total charge inside unit cell =       6.500000

------- case.scfc --------

        1.ATOM      Pr                   14 CORE STATES
:1S 001: 1S               -3066.880767407 Ry
:2S 001: 2S                -492.633795537 Ry
:2PP001: 2P*               -465.732880180 Ry
:2P 001: 2P                -430.335412159 Ry
:3S 001: 3S                -105.726461026 Ry
:3PP001: 3P*                -94.264111335 Ry
:3P 001: 3P                 -87.256587907 Ry
:3DD001: 3D*                -67.182958481 Ry
:3D 001: 3D                 -65.671479799 Ry
:4S 001: 4S                 -20.418342791 Ry
:4PP001: 4P*                -16.125999469 Ry
:4P 001: 4P                 -14.599959292 Ry
:4DD001: 4D*                 -7.535253464 Ry
:4D 001: 4D                  -7.266309688 Ry

------- case.scfm --------
:CINT001 Core Integral Atom   1   45.999504

       DENSITY AT NUCLEUS
        JATOM        VALENCE       SEMI-CORE          CORE           TOTAL
:RTO001:   1      650.002592        0.000000   656821.541434   657471.544025
     
       CHARGES OF NEW CHARGE DENSITY
:NTO   : INTERSTITIAL CHARGE =     2.896298
:NPC   : PW Pseudocharge     =     7.715499
:NTO001: CHARGE SPHERE  1    =    56.103362

:NEC01: NUCLEAR AND ELECTRONIC CHARGE     59.00000    58.99966
     
       CHARGES OF OLD CHARGE DENSITY
:OTO   : INTERSTITIAL CHARGE =     2.838833
:OPC   : PW Pseudocharge     =     7.601633
:OTO001: CHARGE SPHERE  1    =    56.161167

:NEC02: NUCLEAR AND ELECTRONIC CHARGE     59.00000    59.00000
     
       CONVERGENCE TEST
:DTO001: DIFFERENCE IN SPHERE  1 =  0.1247355

:DIS  :  CHARGE DISTANCE       ( 0.1247355 for atom    1 spin 1)      0.1247355
 PW Mixed is           53
 
******************************************************
* MULTISECANT MIXING VER9 RELEASE 10.4.0              *
* Standard Mode with controls                        *
* Fixed density scale                                *
* Regularization       1.000E-04                     *
* Trust Upper Limit    5.000E+00                     *
* Max Number of Memory Steps    8                    *
******************************************************
 
:PWTMP   1.5660E+02  1.2500E+02  2.2205E+02
:PLANE:  PW TOTAL      3.1274 DISTAN   5.06E-02  1.62E+00 %
:CHARG:  CLM/ATOM    977.1935 DISTAN   1.80E-01  1.84E-02 %
 
Step History
        DMIX         DMIXT        Red     Pred      Trust     Lambda    MagRel    MagAbs     Beta
  1   3.5000E-02   3.5000E-02 -1.00E+00  1.00E+00 -1.00E+01  1.00E+00  3.50E-02  3.50E-02  1.00E+00
  2   2.5000E-02   2.5000E-02  9.73E-01  1.00E+00 -1.00E+01  1.00E+00  2.50E-02  1.04E-02  1.00E+00
  3   3.2702E-02   3.2702E-02  5.65E-01  1.00E+00 -1.00E+01  4.98E-01  3.27E-02  1.33E-02  1.00E+00
  4   8.1755E-02   6.8368E-02 -1.00E+00  9.41E-01  3.24E-01  1.00E+00  3.24E-01  7.44E-02  1.00E+00
:JACOBIANS    2.135E-02   8.982E-01
  
:NORMS:  1/Froebius, Min, Max, Used   0.9171E+00  0.4403E+00  0.1026E+01  0.9298E+00
:INFO :  Number of Memory Steps    3 Skipping    0
:INFO :  SLambda=    0.5193564885  Max    0.5193564885
:PREDicted Charge, CTotal, PW Trust    1.679E-02   1.679E-02   1.658E-02
:PREDicted DMix, Beta, BLim   5.3268E-01  2.5215E+00  9.8336E-01

Eigenvalues, unscaled except for SY+YY
   #     SY Real        SY Imag          SS             YY         SY+YY Real      SY+YY Imag
   1   2.485099E+00   0.000000E+00   2.511041E+00   2.904328E+00   4.191039E+00   0.000000E+00
   2  -2.267789E-15   0.000000E+00   1.227071E-02   9.566507E-02   7.067841E-06   0.000000E+00
   3   3.609173E-02   0.000000E+00  -7.884209E-17   7.137580E-06   1.183503E-01   0.000000E+00
 
:INFO :  Singular value  4.191E+00 Weight  1.000E+00 Projection -3.727E-02
:INFO :  Singular value  1.183E-01 Weight  1.000E+00 Projection -5.754E-01
:INFO :  Singular value  7.068E-06 Weight  5.919E-04 Projection  3.262E-03
:RANK :  ACTIVE   2.00/3  =  66.69 % ; YY RANK   2.00/3  =  66.69 %
 
:BLIM :  VZERO Control Off
:TRUST:  Step 6.54E-01  Charge 7.50E-02 (e) CTO  2.50E-01 (e) PW  3.50E-01 (e)
:DTRUS:  Lambda    7.837E-02 Increment    7.276E-12 Iterations    95 DMIX    2.029E-01
:INFOA:  Angle SubSpace to MSR1      1.74
:DIRM :  MEMORY  3/8  SCALE   1.000 RED  0.81 PRED  0.94 NEXT  0.25 
:INFO :  Limited by Atoms F by Step T

:TRAVE:  Charge 1.11E-02 (e) CTO  1.11E-02 (e) PW  2.09E-02 (e)
:DIRP :  |MSR1|= 1.686E-02 |PRATT|= 5.059E-02 ANGLE=   8.1 DEGREES
:DIRQ :  |MSR1|= 1.210E-01 |PRATT|= 1.798E-01 ANGLE=  23.4 DEGREES
:DIRT :  |MSR1|= 1.221E-01 |PRATT|= 1.868E-01 ANGLE=  24.2 DEGREES
:MIX  :   MSD1   REGULARIZATION:  2.90E-04 GREED: 0.20439  LMStep 0.92  0.6538 Step           
     
       CHARGES OF MIXED CHARGE DENSITY
:CTO   : INTERSTITIAL CHARGE =     2.857874
:CPC   : PW Pseudocharge     =     7.640579
:CTO001: CHARGE SPHERE  1    =    56.142126

:NEC03: NUCLEAR AND ELECTRONIC CHARGE     59.00000    59.00000

PW CHANGE     H    K    L      Current       Change    Residue
:PTO001:      0    0    0  4.72807222E-02  2.612E-04  7.772E-04
:PTO002:     -1   -1   -1 -1.39367740E-01 -5.475E-04 -1.670E-03
:PTO003:      0    0   -2  8.14228644E-02  3.800E-04  1.041E-03
:PTO004:      0   -2   -2  6.44534105E-02  1.281E-04  6.639E-04
:PTO005:     -1   -1   -3 -5.53704559E-02 -2.372E-04 -8.302E-04
:PTO006:     -2   -2   -2  1.37211738E-02  1.744E-04  3.761E-04
:PTO007:      0    0   -4  1.12536068E-03  1.014E-04  2.427E-04
:PTO008:     -1   -3   -3  3.58739384E-03 -1.791E-04 -8.496E-04
:PTO009:      0   -2   -4 -6.04862099E-03  1.570E-04  8.414E-04
:PTO010:     -2   -2   -4 -8.96797919E-03  4.133E-04  1.224E-03
:PTO011:     -3   -3   -3  2.89372728E-03 -2.093E-04 -4.945E-04
:PTO012:     -1   -1   -5  9.20586045E-03 -4.209E-04 -1.235E-03

:ENE  : ********** TOTAL ENERGY IN Ry =       -18472.12762679


------- case.scf0 --------
 Flat Integration
 New Mode for Coulomb Integral
 Consistent 3/8+Simpson combinations
 Extension of core to zero
 LDM version in phi
 Fifth-order quadrature in outwin


            ---------
:ITE026: 26. ITERATION
            ---------

:NATO :    1 INDEPENDENT AND    1 TOTAL ATOMS IN UNITCELL
       SUBSTANCE: blebleble                                                   

       LATTICE                      = F   
:POT  : POTENTIAL OPTION EX_LDA EC_LDA VX_LDA VC_LDA
:LAT  : LATTICE CONSTANTS=  9.61244  9.61244  9.61244    1.571    1.571    1.571
:VOL  : UNIT CELL VOLUME =     222.04511
       MODE OF CALCULATION IS       = RELA
       NON-SPINPOLARIZED CALCULATION
:IFFT  : FFT-parameters:   80   80   80 Factor: 2.00


   CONVERGENCE PARAMETER FOR PSEUDOCHARGE: NCON=  9
   MAXIMAL VALUE OF RMT(JATOM)*ABSK(NKK) : RK  =29.95407


:VKCOUL :  VK-COUL convergence: 0.496E-07
       ATOMNUMBER=  1 Pr         VCOUL-ZERO =  0.30951E+00
:FIT001: LUSE= 13 SIGMA OF V-XC FIT FOR ATOM  1  0.1716206E-04
:FIT001: LUSE= 13 SIGMA OF V-XC FIT FOR ATOM  1  0.1716206E-04
:DEN  : DENSITY INTEGRAL  =         -7076.06078857   (Ry)
       ELS_POTENTIAL_AT Z=0 and Z=0.5:  -2.54572  -2.54572
       ELS_POTENTIAL_AT Y=0 and Y=0.5:   0.00000   0.00000
:VZERO:v0,v0c,v0x  -3.54159  -2.54572  -0.99587 v5,v5c,v5x  -3.54159  -2.54572  -0.99587
:VZERY:v0,v0c,v0x  -0.73525   0.00000  -0.73525 v5,v5c,v5x  -0.73525   0.00000  -0.73525
:VZERX:v0,v0c,v0x  -0.73525   0.00000  -0.73525 v5,v5c,v5x  -0.73525   0.00000  -0.73525

------- case.scf1 --------
:LMAX-WF:   10   Non-Spherical LMAX:   4

          ATOMIC SPHERE DEPENDENT PARAMETERS FOR ATOM  Pr        
:e__0001: OVERALL ENERGY PARAMETER IS    0.4403
          OVERALL BASIS SET ON ATOM IS LAPW
:E0_0001: E( 0)=    0.4403
             APW+lo
:E0_0001: E( 0)=   -2.0215   E(BOTTOM)=   -2.404   E(TOP)=   -1.639  4  5   177
             LOCAL ORBITAL
:E1_0001: E( 1)=    0.8403
             APW+lo
:E1_0001: E( 1)=   -0.6344   E(BOTTOM)=   -1.283   E(TOP)=    0.014  3  4   177
             LOCAL ORBITAL
:E3_0001: E( 3)=    0.6504   E(BOTTOM)=    0.508   E(TOP)=    0.793  0  1   118
             APW+lo
:E2_0001: E( 2)=    0.4403   E(BOTTOM)=    0.291   E(TOP)= -200.000  2 -1    85
             APW+lo

       K=   0.00000   0.00000   0.00000            1
:RKM  : MATRIX SIZE   189LOs:  20  RKM= 8.49  WEIGHT= 1.00  PGR:    
       EIGENVALUES ARE:
:EIG00001:      -1.9876391   -0.6074847   -0.6074847   -0.6074847    0.3882816
:EIG00006:       0.6387936    0.6617946    0.6617946    0.6617946    0.6919817
:EIG00011:       0.6919817    0.6919817    0.7747702    0.7747702    0.7747702
:EIG00016:       0.9664061    0.9664061    1.3751812    1.6188397    1.6188397
:EIG00021:       1.6188397    1.7188293    2.4963065    2.4963065    2.4963065
:EIG00026:       2.6061586    2.6061586    2.6061586    2.7788776    2.7788776
:EIG00031:       3.2073259    3.3588794    3.3588794    3.3588794    3.8208958
:EIG00036:       3.8208958    4.0546536    4.0546536    4.0546536    4.1149063
:EIG00041:       4.1149063    4.1149063    4.1916532    4.1916532    4.1916532
:EIG00046:       4.5017640    4.5017640    4.5017640    4.5841820    4.6069874
 
:EIG00051:       4.6069874    4.7551820    4.7551820    4.7551820    4.7712507
:EIG00056:       4.7712507    4.7712507    4.8797695    4.8823058    4.9843053
:EIG00061:       4.9843053    4.9843053    5.2098965    5.2098965    5.2098965
:EIG00066:       5.5734659    6.4868988    6.5088689    6.5088689    6.9213955
:EIG00071:       6.9213955    6.9213955    7.4799103    7.4799103    7.6444655
:EIG00076:       7.6444655    7.6444655    7.6923119    7.6923119    7.6923119
:EIG00081:       7.8919293    7.8919293    7.8919293    7.9002488    7.9002488
:EIG00086:       8.0411419    8.0411419    8.0411419    8.1159386    8.1159386
:EIG00091:       8.1159386    8.1305449    8.1305449    8.1305449
       ********************************************************

:KPT   :      NUMBER OF K-POINTS:   165

------- case.scfso --------
   0.0   0.0 angle (M,z), angle (M,x) deg
 
        SPIN-ORBIT EIGENVALUES:
     K=   0.00000   0.00000   0.00000            1
      MATRIX SIZE=  188   WEIGHT= 1.00
     EIGENVALUES ARE:
          -1.9876391   -1.9876391   -0.7561716   -0.7561716   -0.5377344
          -0.5377344   -0.5377344   -0.5377344    0.3882816    0.3882816
           0.6353369    0.6353369    0.6516658    0.6516658    0.6516658
           0.6516658    0.6733266    0.6733266    0.6911596    0.6911596
           0.6983862    0.6983862    0.6983862    0.6983862    0.7709239
           0.7709239    0.7709239    0.7709239    0.7813700    0.7813700
           0.9667640    0.9667640    0.9667640    0.9667640    1.3752429
           1.3752429    1.6143373    1.6143373    1.6209384    1.6209384

           1.6209384    1.6209384    1.7188293    1.7188293    2.4911769
           2.4911769    2.4911769    2.4911769    2.5060527    2.5060527
           2.5294377    2.5294377    2.6453147    2.6453147    2.6453147
           2.6453147    2.7791714    2.7791714    2.7791714    2.7791714
           3.2073259    3.2073259    3.3584576    3.3584576    3.3591025
           3.3591025    3.3591025    3.3591025    3.8208603    3.8208603
           3.8208603    3.8208603    4.0532294    4.0532294    4.0532294
           4.0532294    4.0577978    4.0577978    4.0792970    4.0792970

           4.1345177    4.1345177    4.1345177    4.1345177    4.1916432
           4.1916432    4.1916583    4.1916583    4.1916583    4.1916583

       ********************************************************

------- case.scf2 --------
:GMA  : POTENTIAL AND CHARGE CUT-OFF  12.00 Ry**.5




:POS001: at.nr.   1 position = 0.00000 0.00000 0.50000  multiplicity =  1

       lmmax  5
       lm=   0 0  4 0  4 4  6 0  6 4
:FER gutzwiller fermi energy   0.65768
:EORB         -0.060921503
:SUM sum of gutz band energies         -4.833737033

:CHA001: total charge inside sphere   1 =    10.137706
:PCS001: partial charges sphere =  1 s,p,d,f,      d-eg,d-t2g 
:QTL001: 2.0346 5.3499 0.7340 2.0187 0.0000 0.0000 0.0000 0.2644 0.4696 0.0000 0.0000 0.0000

:CHA  : total charge inside unit cell =       6.499999

------- case.scfc --------

        1.ATOM      Pr                   14 CORE STATES
:1S 001: 1S               -3066.945042849 Ry
:2S 001: 2S                -492.695726134 Ry
:2PP001: 2P*               -465.795321788 Ry
:2P 001: 2P                -430.397660320 Ry
:3S 001: 3S                -105.782667126 Ry
:3PP001: 3P*                -94.320676464 Ry
:3P 001: 3P                 -87.312700368 Ry
:3DD001: 3D*                -67.240099607 Ry
:3D 001: 3D                 -65.728482865 Ry
:4S 001: 4S                 -20.459721052 Ry
:4PP001: 4P*                -16.166642105 Ry
:4P 001: 4P                 -14.639394848 Ry
:4DD001: 4D*                 -7.572673195 Ry
:4D 001: 4D                  -7.303325848 Ry

------- case.scfm --------
:CINT001 Core Integral Atom   1   45.999515

       DENSITY AT NUCLEUS
        JATOM        VALENCE       SEMI-CORE          CORE           TOTAL
:RTO001:   1      652.191608        0.000000   656824.998073   657477.189681
     
       CHARGES OF NEW CHARGE DENSITY
:NTO   : INTERSTITIAL CHARGE =     2.862373
:NPC   : PW Pseudocharge     =     7.698710
:NTO001: CHARGE SPHERE  1    =    56.137221

:NEC01: NUCLEAR AND ELECTRONIC CHARGE     59.00000    58.99959
     
       CHARGES OF OLD CHARGE DENSITY
:OTO   : INTERSTITIAL CHARGE =     2.857874
:OPC   : PW Pseudocharge     =     7.640579
:OTO001: CHARGE SPHERE  1    =    56.142126

:NEC02: NUCLEAR AND ELECTRONIC CHARGE     59.00000    59.00000
     
       CONVERGENCE TEST
:DTO001: DIFFERENCE IN SPHERE  1 =  0.0170624

:DIS  :  CHARGE DISTANCE       ( 0.0170624 for atom    1 spin 1)      0.0170624
 PW Mixed is           53
 
******************************************************
* MULTISECANT MIXING VER9 RELEASE 10.4.0              *
* Standard Mode with controls                        *
* Fixed density scale                                *
* Regularization       1.000E-04                     *
* Trust Upper Limit    5.000E+00                     *
* Max Number of Memory Steps    8                    *
******************************************************
 
:PWTMP   1.5660E+02  1.2500E+02  2.2205E+02
:PLANE:  PW TOTAL      3.1413 DISTAN   3.01E-02  9.57E-01 %
:CHARG:  CLM/ATOM    977.1821 DISTAN   1.93E-02  1.98E-03 %
 
Step History
        DMIX         DMIXT        Red     Pred      Trust     Lambda    MagRel    MagAbs     Beta
  1   3.5000E-02   3.5000E-02 -1.00E+00  1.00E+00 -1.00E+01  1.00E+00  3.50E-02  3.50E-02  1.00E+00
  2   2.5000E-02   2.5000E-02  9.73E-01  1.00E+00 -1.00E+01  1.00E+00  2.50E-02  1.04E-02  1.00E+00
  3   3.2702E-02   3.2702E-02  5.65E-01  1.00E+00 -1.00E+01  4.98E-01  3.27E-02  1.33E-02  1.00E+00
  4   8.1755E-02   6.8368E-02  8.14E-01  9.41E-01  3.24E-01  5.19E-01  3.24E-01  7.44E-02  1.00E+00
  5   2.0439E-01   2.0292E-01 -1.00E+00  2.51E-01  6.54E-01  1.00E+00  6.54E-01  1.22E-01  1.00E+00
:JACOBIANS    3.083E-02   1.098E+00
  
:NORMS:  1/Froebius, Min, Max, Used   0.9047E+00  0.5751E+00  0.9905E+00  0.9905E+00
:INFO :  Number of Memory Steps    4 Skipping    0
:INFO :  SLambda=    0.8255677839  Max    0.8255677839
:PREDicted Charge, CTotal, PW Trust    2.017E-02   2.017E-02   3.510E-02
:PREDicted DMix, Beta, BLim   3.6578E-02  1.0340E+00  2.2130E+00

Eigenvalues, unscaled except for SY+YY
   #     SY Real        SY Imag          SS             YY         SY+YY Real      SY+YY Imag
   1   3.181023E+00   0.000000E+00   3.184680E+00   3.245846E+00   5.864012E+00   0.000000E+00
   2   2.490641E-01   0.000000E+00   8.930960E-02   7.541149E-01   9.677179E-01   0.000000E+00
   3  -1.342679E-15   0.000000E+00   2.388847E-05   3.505552E-05   4.286328E-06   0.000000E+00
   4   2.921975E-05   0.000000E+00   1.189962E-16   3.997150E-06   5.905088E-05   0.000000E+00
 
:INFO :  Singular value  5.866E+00 Weight  1.000E+00 Projection -4.010E-03
:INFO :  Singular value  9.674E-01 Weight  1.000E+00 Projection -5.830E-03
:INFO :  Singular value  5.919E-05 Weight  3.219E-02 Projection  1.883E-01
:INFO :  Singular value  4.276E-06 Weight  1.735E-04 Projection -5.735E-04
:RANK :  ACTIVE   2.03/4  =  50.81 % ; YY RANK   2.01/4  =  50.29 %
 
:BLIM :  VZERO Control Off
:TRUST:  Step 1.35E+00  Charge 7.50E-02 (e) CTO  2.50E-01 (e) PW  3.50E-01 (e)
:DIRM :  MEMORY  4/8  SCALE   1.000 RED  0.19 PRED  0.25 NEXT  0.95 
:TRAVE:  Charge 6.15E-03 (e) CTO  6.15E-03 (e) PW  1.31E-02 (e)
:DIRP :  |MSR1|= 3.967E-03 |PRATT|= 3.007E-02 ANGLE=   3.4 DEGREES
:DIRQ :  |MSR1|= 6.095E-03 |PRATT|= 1.934E-02 ANGLE=  45.7 DEGREES
:DIRT :  |MSR1|= 7.272E-03 |PRATT|= 3.576E-02 ANGLE=  39.2 DEGREES
:MIX  :   MSD1   REGULARIZATION:  3.25E-04 GREED: 0.08352  Newton 1.00  0.2034                
     
       CHARGES OF MIXED CHARGE DENSITY
:CTO   : INTERSTITIAL CHARGE =     2.859117
:CPC   : PW Pseudocharge     =     7.648668
:CTO001: CHARGE SPHERE  1    =    56.140883

:NEC03: NUCLEAR AND ELECTRONIC CHARGE     59.00000    59.00000

PW CHANGE     H    K    L      Current       Change    Residue
:PTO001:      0    0    0  4.73227500E-02  4.203E-05  2.888E-04
:PTO002:     -1   -1   -1 -1.39515367E-01 -1.476E-04 -1.134E-03
:PTO003:      0    0   -2  8.15104056E-02  8.754E-05  6.558E-04
:PTO004:      0   -2   -2  6.45268277E-02  7.342E-05  6.188E-04
:PTO005:     -1   -1   -3 -5.54677961E-02 -9.734E-05 -7.895E-04
:PTO006:     -2   -2   -2  1.37580698E-02  3.690E-05  2.664E-04
:PTO007:      0    0   -4  1.14751274E-03  2.215E-05  1.613E-04
:PTO008:     -1   -3   -3  3.50028087E-03 -8.711E-05 -7.197E-04
:PTO009:      0   -2   -4 -5.96266206E-03  8.596E-05  7.171E-04
:PTO010:     -2   -2   -4 -8.86160921E-03  1.064E-04  8.059E-04
:PTO011:     -3   -3   -3  2.85440576E-03 -3.932E-05 -2.769E-04
:PTO012:     -1   -1   -5  9.10116978E-03 -1.047E-04 -7.873E-04

:ENE  : ********** TOTAL ENERGY IN Ry =       -18472.12800777


------- case.scf0 --------
 Flat Integration
 New Mode for Coulomb Integral
 Consistent 3/8+Simpson combinations
 Extension of core to zero
 LDM version in phi
 Fifth-order quadrature in outwin


            ---------
:ITE027: 27. ITERATION
            ---------

:NATO :    1 INDEPENDENT AND    1 TOTAL ATOMS IN UNITCELL
       SUBSTANCE: blebleble                                                   

       LATTICE                      = F   
:POT  : POTENTIAL OPTION EX_LDA EC_LDA VX_LDA VC_LDA
:LAT  : LATTICE CONSTANTS=  9.61244  9.61244  9.61244    1.571    1.571    1.571
:VOL  : UNIT CELL VOLUME =     222.04511
       MODE OF CALCULATION IS       = RELA
       NON-SPINPOLARIZED CALCULATION
:IFFT  : FFT-parameters:   80   80   80 Factor: 2.00


   CONVERGENCE PARAMETER FOR PSEUDOCHARGE: NCON=  9
   MAXIMAL VALUE OF RMT(JATOM)*ABSK(NKK) : RK  =29.95407


:VKCOUL :  VK-COUL convergence: 0.491E-07
       ATOMNUMBER=  1 Pr         VCOUL-ZERO =  0.30984E+00
:FIT001: LUSE= 13 SIGMA OF V-XC FIT FOR ATOM  1  0.1708741E-04
:FIT001: LUSE= 13 SIGMA OF V-XC FIT FOR ATOM  1  0.1708741E-04
:DEN  : DENSITY INTEGRAL  =         -7075.96248004   (Ry)
       ELS_POTENTIAL_AT Z=0 and Z=0.5:  -2.54765  -2.54765
       ELS_POTENTIAL_AT Y=0 and Y=0.5:   0.00000   0.00000
:VZERO:v0,v0c,v0x  -3.54389  -2.54765  -0.99624 v5,v5c,v5x  -3.54389  -2.54765  -0.99624
:VZERY:v0,v0c,v0x  -0.73543   0.00000  -0.73543 v5,v5c,v5x  -0.73543   0.00000  -0.73543
:VZERX:v0,v0c,v0x  -0.73543   0.00000  -0.73543 v5,v5c,v5x  -0.73543   0.00000  -0.73543

------- case.scf1 --------
:LMAX-WF:   10   Non-Spherical LMAX:   4

          ATOMIC SPHERE DEPENDENT PARAMETERS FOR ATOM  Pr        
:e__0001: OVERALL ENERGY PARAMETER IS    0.4403
          OVERALL BASIS SET ON ATOM IS LAPW
:E0_0001: E( 0)=    0.4403
             APW+lo
:E0_0001: E( 0)=   -2.0221   E(BOTTOM)=   -2.404   E(TOP)=   -1.640  4  5   181
             LOCAL ORBITAL
:E1_0001: E( 1)=    0.8403
             APW+lo
:E1_0001: E( 1)=   -0.6349   E(BOTTOM)=   -1.283   E(TOP)=    0.013  3  4   179
             LOCAL ORBITAL
:E3_0001: E( 3)=    0.6491   E(BOTTOM)=    0.507   E(TOP)=    0.791  0  1   117
             APW+lo
:E2_0001: E( 2)=    0.4403   E(BOTTOM)=    0.291   E(TOP)= -200.000  2 -1    87
             APW+lo

       K=   0.00000   0.00000   0.00000            1
:RKM  : MATRIX SIZE   189LOs:  20  RKM= 8.49  WEIGHT= 1.00  PGR:    
       EIGENVALUES ARE:
:EIG00001:      -1.9882184   -0.6078908   -0.6078908   -0.6078908    0.3885386
:EIG00006:       0.6376669    0.6605554    0.6605554    0.6605554    0.6906350
:EIG00011:       0.6906350    0.6906350    0.7748620    0.7748620    0.7748620
:EIG00016:       0.9664046    0.9664046    1.3752734    1.6190397    1.6190397
:EIG00021:       1.6190397    1.7192589    2.4963175    2.4963175    2.4963175
:EIG00026:       2.6062373    2.6062373    2.6062373    2.7789963    2.7789963
:EIG00031:       3.2075213    3.3591515    3.3591515    3.3591515    3.8210381
:EIG00036:       3.8210381    4.0548431    4.0548431    4.0548431    4.1151665
:EIG00041:       4.1151665    4.1151665    4.1918881    4.1918881    4.1918881
:EIG00046:       4.5020980    4.5020980    4.5020980    4.5843912    4.6073492
 
:EIG00051:       4.6073492    4.7555297    4.7555297    4.7555297    4.7716225
:EIG00056:       4.7716225    4.7716225    4.8799866    4.8827378    4.9847058
:EIG00061:       4.9847058    4.9847058    5.2102957    5.2102957    5.2102957
:EIG00066:       5.5739040    6.4871655    6.5091368    6.5091368    6.9217181
:EIG00071:       6.9217181    6.9217181    7.4800005    7.4800005    7.6446408
:EIG00076:       7.6446408    7.6446408    7.6924655    7.6924655    7.6924655
:EIG00081:       7.8922454    7.8922454    7.8922454    7.9005766    7.9005766
:EIG00086:       8.0414262    8.0414262    8.0414262    8.1161934    8.1161934
:EIG00091:       8.1161934    8.1308414    8.1308414    8.1308414
       ********************************************************

:KPT   :      NUMBER OF K-POINTS:   165

------- case.scfso --------
   0.0   0.0 angle (M,z), angle (M,x) deg
 
        SPIN-ORBIT EIGENVALUES:
     K=   0.00000   0.00000   0.00000            1
      MATRIX SIZE=  188   WEIGHT= 1.00
     EIGENVALUES ARE:
          -1.9882184   -1.9882184   -0.7566189   -0.7566189   -0.5381205
          -0.5381205   -0.5381205   -0.5381205    0.3885386    0.3885386
           0.6341911    0.6341911    0.6504076    0.6504076    0.6504076
           0.6504076    0.6720971    0.6720971    0.6898306    0.6898306
           0.6970546    0.6970546    0.6970546    0.6970546    0.7710130
           0.7710130    0.7710130    0.7710130    0.7814657    0.7814657
           0.9667631    0.9667631    0.9667631    0.9667631    1.3753349
           1.3753349    1.6145316    1.6145316    1.6211410    1.6211410

           1.6211410    1.6211410    1.7192589    1.7192589    2.4911875
           2.4911875    2.4911875    2.4911875    2.5060644    2.5060644
           2.5295118    2.5295118    2.6453966    2.6453966    2.6453966
           2.6453966    2.7792901    2.7792901    2.7792901    2.7792901
           3.2075213    3.2075213    3.3587302    3.3587302    3.3593743
           3.3593743    3.3593743    3.3593743    3.8210026    3.8210026
           3.8210026    3.8210026    4.0534193    4.0534193    4.0534193
           4.0534193    4.0579862    4.0579862    4.0795669    4.0795669

           4.1347726    4.1347726    4.1347726    4.1347726    4.1918780
           4.1918780    4.1918931    4.1918931    4.1918931    4.1918931

       ********************************************************

------- case.scf2 --------
:GMA  : POTENTIAL AND CHARGE CUT-OFF  12.00 Ry**.5




:POS001: at.nr.   1 position = 0.00000 0.00000 0.50000  multiplicity =  1

       lmmax  5
       lm=   0 0  4 0  4 4  6 0  6 4
:FER gutzwiller fermi energy   0.65804
:EORB         -0.064674790
:SUM sum of gutz band energies         -4.835541740

:CHA001: total charge inside sphere   1 =    10.137296
:PCS001: partial charges sphere =  1 s,p,d,f,      d-eg,d-t2g 
:QTL001: 2.0346 5.3506 0.7355 2.0161 0.0000 0.0000 0.0000 0.2649 0.4706 0.0000 0.0000 0.0000

:CHA  : total charge inside unit cell =       6.500000

------- case.scfc --------

        1.ATOM      Pr                   14 CORE STATES
:1S 001: 1S               -3066.946876606 Ry
:2S 001: 2S                -492.697734397 Ry
:2PP001: 2P*               -465.797291208 Ry
:2P 001: 2P                -430.399644175 Ry
:3S 001: 3S                -105.784931447 Ry
:3PP001: 3P*                -94.322929566 Ry
:3P 001: 3P                 -87.314959452 Ry
:3DD001: 3D*                -67.242333423 Ry
:3D 001: 3D                 -65.730720039 Ry
:4S 001: 4S                 -20.461670155 Ry
:4PP001: 4P*                -16.168557613 Ry
:4P 001: 4P                 -14.641263231 Ry
:4DD001: 4D*                 -7.574447885 Ry
:4D 001: 4D                  -7.305083699 Ry

------- case.scfm --------
:CINT001 Core Integral Atom   1   45.999515

       DENSITY AT NUCLEUS
        JATOM        VALENCE       SEMI-CORE          CORE           TOTAL
:RTO001:   1      652.328065        0.000000   656825.035634   657477.363699
     
       CHARGES OF NEW CHARGE DENSITY
:NTO   : INTERSTITIAL CHARGE =     2.862704
:NPC   : PW Pseudocharge     =     7.698896
:NTO001: CHARGE SPHERE  1    =    56.136811

:NEC01: NUCLEAR AND ELECTRONIC CHARGE     59.00000    58.99951
     
       CHARGES OF OLD CHARGE DENSITY
:OTO   : INTERSTITIAL CHARGE =     2.859117
:OPC   : PW Pseudocharge     =     7.648668
:OTO001: CHARGE SPHERE  1    =    56.140883

:NEC02: NUCLEAR AND ELECTRONIC CHARGE     59.00000    59.00000
     
       CONVERGENCE TEST
:DTO001: DIFFERENCE IN SPHERE  1 =  0.0171952

:DIS  :  CHARGE DISTANCE       ( 0.0171952 for atom    1 spin 1)      0.0171952
 PW Mixed is           53
 
******************************************************
* MULTISECANT MIXING VER9 RELEASE 10.4.0              *
* Standard Mode with controls                        *
* Fixed density scale                                *
* Regularization       1.000E-04                     *
* Trust Upper Limit    5.000E+00                     *
* Max Number of Memory Steps    8                    *
******************************************************
 
:PWTMP   1.5660E+02  1.2500E+02  2.2205E+02
:PLANE:  PW TOTAL      3.1444 DISTAN   2.63E-02  8.36E-01 %
:CHARG:  CLM/ATOM    977.1826 DISTAN   1.78E-02  1.82E-03 %
 
Step History
        DMIX         DMIXT        Red     Pred      Trust     Lambda    MagRel    MagAbs     Beta
  1   3.5000E-02   3.5000E-02 -1.00E+00  1.00E+00 -1.00E+01  1.00E+00  3.50E-02  3.50E-02  1.00E+00
  2   2.5000E-02   2.5000E-02  9.73E-01  1.00E+00 -1.00E+01  1.00E+00  2.50E-02  1.04E-02  1.00E+00
  3   3.2702E-02   3.2702E-02  5.65E-01  1.00E+00 -1.00E+01  4.98E-01  3.27E-02  1.33E-02  1.00E+00
  4   8.1755E-02   6.8368E-02  8.14E-01  9.41E-01  3.24E-01  5.19E-01  3.24E-01  7.44E-02  1.00E+00
  5   2.0439E-01   2.0292E-01  1.91E-01  2.51E-01  6.54E-01  8.26E-01  6.54E-01  1.22E-01  1.00E+00
  6   8.3524E-02   8.3524E-02 -1.00E+00  9.52E-01  1.35E+00  1.00E+00  2.03E-01  7.27E-03  1.00E+00
:JACOBIANS    5.208E-01   1.241E+00
  
:NORMS:  1/Froebius, Min, Max, Used   0.9629E+00  0.5063E+00  0.1044E+01  0.1023E+01
:INFO :  Number of Memory Steps    5 Skipping    0
:INFO :  SLambda=    0.7238900904  Max    0.7238900904
:PREDicted Charge, CTotal, PW Trust    9.479E-03   9.479E-03   4.871E-02
:PREDicted DMix, Beta, BLim   1.0310E+00  4.9347E+00  2.0632E+00

Eigenvalues, unscaled except for SY+YY
   #     SY Real        SY Imag          SS             YY         SY+YY Real      SY+YY Imag
   1   3.969753E+00   0.000000E+00   4.138779E+00   3.956651E+00   6.822354E+00   0.000000E+00
   2   4.564318E-01   0.000000E+00   4.491466E-01   7.996078E-01   1.089570E+00   0.000000E+00
   3   1.330421E-01   0.000000E+00   4.773052E-02   2.437263E-01   3.884410E-01   0.000000E+00
   4  -3.616147E-16   0.000000E+00   8.921523E-08   1.386970E-05   7.981390E-07   0.000000E+00
   5   8.372824E-07   0.000000E+00  -1.784985E-16   7.223529E-07   1.402375E-05   0.000000E+00
 
:INFO :  Singular value  6.826E+00 Weight  1.000E+00 Projection -3.546E-03
:INFO :  Singular value  1.091E+00 Weight  1.000E+00 Projection -1.609E-02
:INFO :  Singular value  3.879E-01 Weight  1.000E+00 Projection -5.825E-02
:INFO :  Singular value  1.402E-05 Weight  1.255E-03 Projection  4.122E-03
:INFO :  Singular value  7.981E-07 Weight  4.069E-06 Projection  1.502E-05
:RANK :  ACTIVE   3.00/5  =  60.03 % ; YY RANK   3.00/5  =  60.02 %
 
:BLIM :  VZERO Control Off
:TRUST:  Step 1.52E+00  Charge 6.00E-02 (e) CTO  2.00E-01 (e) PW  2.80E-01 (e)
:DIRM :  MEMORY  5/8  SCALE   1.000 RED  0.89 PRED  0.95 NEXT  0.42 
:TRAVE:  Charge 7.32E-03 (e) CTO  7.32E-03 (e) PW  2.64E-02 (e)
:DIRP :  |MSR1|= 3.100E-02 |PRATT|= 2.628E-02 ANGLE=   1.9 DEGREES
:DIRQ :  |MSR1|= 2.345E-02 |PRATT|= 1.777E-02 ANGLE=  27.2 DEGREES
:DIRT :  |MSR1|= 3.887E-02 |PRATT|= 3.172E-02 ANGLE=  16.1 DEGREES
:MIX  :   MSD1   REGULARIZATION:  3.96E-04 GREED: 0.20881  Newton 1.00  1.2254                
     
       CHARGES OF MIXED CHARGE DENSITY
:CTO   : INTERSTITIAL CHARGE =     2.867602
:CPC   : PW Pseudocharge     =     7.710694
:CTO001: CHARGE SPHERE  1    =    56.132398

:NEC03: NUCLEAR AND ELECTRONIC CHARGE     59.00000    59.00000

PW CHANGE     H    K    L      Current       Change    Residue
:PTO001:      0    0    0  4.76402992E-02  3.175E-04  2.504E-04
:PTO002:     -1   -1   -1 -1.40679961E-01 -1.165E-03 -9.954E-04
:PTO003:      0    0   -2  8.21765335E-02  6.661E-04  5.706E-04
:PTO004:      0   -2   -2  6.51600907E-02  6.333E-04  5.545E-04
:PTO005:     -1   -1   -3 -5.62720047E-02 -8.042E-04 -7.035E-04
:PTO006:     -2   -2   -2  1.40359617E-02  2.779E-04  2.357E-04
:PTO007:      0    0   -4  1.31093016E-03  1.634E-04  1.394E-04
:PTO008:     -1   -3   -3  2.77675544E-03 -7.235E-04 -6.319E-04
:PTO009:      0   -2   -4 -5.24550234E-03  7.172E-04  6.274E-04
:PTO010:     -2   -2   -4 -8.04567868E-03  8.159E-04  6.976E-04
:PTO011:     -3   -3   -3  2.57123727E-03 -2.832E-04 -2.378E-04
:PTO012:     -1   -1   -5  8.30462364E-03 -7.965E-04 -6.789E-04

:ENE  : ********** TOTAL ENERGY IN Ry =       -18472.12809365


------- case.scf0 --------
 Flat Integration
 New Mode for Coulomb Integral
 Consistent 3/8+Simpson combinations
 Extension of core to zero
 LDM version in phi
 Fifth-order quadrature in outwin


            ---------
:ITE028: 28. ITERATION
            ---------

:NATO :    1 INDEPENDENT AND    1 TOTAL ATOMS IN UNITCELL
       SUBSTANCE: blebleble                                                   

       LATTICE                      = F   
:POT  : POTENTIAL OPTION EX_LDA EC_LDA VX_LDA VC_LDA
:LAT  : LATTICE CONSTANTS=  9.61244  9.61244  9.61244    1.571    1.571    1.571
:VOL  : UNIT CELL VOLUME =     222.04511
       MODE OF CALCULATION IS       = RELA
       NON-SPINPOLARIZED CALCULATION
:IFFT  : FFT-parameters:   80   80   80 Factor: 2.00


   CONVERGENCE PARAMETER FOR PSEUDOCHARGE: NCON=  9
   MAXIMAL VALUE OF RMT(JATOM)*ABSK(NKK) : RK  =29.95407


:VKCOUL :  VK-COUL convergence: 0.478E-07
       ATOMNUMBER=  1 Pr         VCOUL-ZERO =  0.31233E+00
:FIT001: LUSE= 13 SIGMA OF V-XC FIT FOR ATOM  1  0.1762542E-04
:FIT001: LUSE= 13 SIGMA OF V-XC FIT FOR ATOM  1  0.1762542E-04
:DEN  : DENSITY INTEGRAL  =         -7075.48756244   (Ry)
       ELS_POTENTIAL_AT Z=0 and Z=0.5:  -2.56219  -2.56219
       ELS_POTENTIAL_AT Y=0 and Y=0.5:   0.00000   0.00000
:VZERO:v0,v0c,v0x  -3.56089  -2.56219  -0.99871 v5,v5c,v5x  -3.56089  -2.56219  -0.99871
:VZERY:v0,v0c,v0x  -0.73667   0.00000  -0.73667 v5,v5c,v5x  -0.73667   0.00000  -0.73667
:VZERX:v0,v0c,v0x  -0.73667   0.00000  -0.73667 v5,v5c,v5x  -0.73667   0.00000  -0.73667

------- case.scf1 --------
:LMAX-WF:   10   Non-Spherical LMAX:   4

          ATOMIC SPHERE DEPENDENT PARAMETERS FOR ATOM  Pr        
:e__0001: OVERALL ENERGY PARAMETER IS    0.4403
          OVERALL BASIS SET ON ATOM IS LAPW
:E0_0001: E( 0)=    0.4403
             APW+lo
:E0_0001: E( 0)=   -2.0255   E(BOTTOM)=   -2.407   E(TOP)=   -1.644  4  5   180
             LOCAL ORBITAL
:E1_0001: E( 1)=    0.8403
             APW+lo
:E1_0001: E( 1)=   -0.6374   E(BOTTOM)=   -1.284   E(TOP)=    0.010  3  4   179
             LOCAL ORBITAL
:E3_0001: E( 3)=    0.6416   E(BOTTOM)=    0.500   E(TOP)=    0.783  0  1   120
             APW+lo
:E2_0001: E( 2)=    0.4403   E(BOTTOM)=    0.291   E(TOP)= -200.000  2 -1    84
             APW+lo

       K=   0.00000   0.00000   0.00000            1
:RKM  : MATRIX SIZE   189LOs:  20  RKM= 8.49  WEIGHT= 1.00  PGR:    
       EIGENVALUES ARE:
:EIG00001:      -1.9914344   -0.6100174   -0.6100174   -0.6100174    0.3905989
:EIG00006:       0.6312133    0.6534151    0.6534151    0.6534151    0.6828333
:EIG00011:       0.6828333    0.6828333    0.7758934    0.7758934    0.7758934
:EIG00016:       0.9668262    0.9668262    1.3764088    1.6207652    1.6207652
:EIG00021:       1.6207652    1.7223705    2.4968599    2.4968599    2.4968599
:EIG00026:       2.6072012    2.6072012    2.6072012    2.7802250    2.7802250
:EIG00031:       3.2092077    3.3613446    3.3613446    3.3613446    3.8223836
:EIG00036:       3.8223836    4.0565086    4.0565086    4.0565086    4.1172488
:EIG00041:       4.1172488    4.1172488    4.1937820    4.1937820    4.1937820
:EIG00046:       4.5046483    4.5046483    4.5046483    4.5861383    4.6100819
 
:EIG00051:       4.6100819    4.7581860    4.7581860    4.7581860    4.7743822
:EIG00056:       4.7743822    4.7743822    4.8818042    4.8859079    4.9876530
:EIG00061:       4.9876530    4.9876530    5.2132485    5.2132485    5.2132485
:EIG00066:       5.5771138    6.4892841    6.5112782    6.5112782    6.9241919
:EIG00071:       6.9241919    6.9241919    7.4810753    7.4810753    7.6462277
:EIG00076:       7.6462277    7.6462277    7.6939049    7.6939049    7.6939049
:EIG00081:       7.8946833    7.8946833    7.8946833    7.9030885    7.9030885
:EIG00086:       8.0436697    8.0436697    8.0436697    8.1183079    8.1183079
:EIG00091:       8.1183079    8.1331432    8.1331432    8.1331432
       ********************************************************

:KPT   :      NUMBER OF K-POINTS:   165

------- case.scfso --------
   0.0   0.0 angle (M,z), angle (M,x) deg
 
        SPIN-ORBIT EIGENVALUES:
     K=   0.00000   0.00000   0.00000            1
      MATRIX SIZE=  188   WEIGHT= 1.00
     EIGENVALUES ARE:
          -1.9914344   -1.9914344   -0.7590055   -0.7590055   -0.5401213
          -0.5401213   -0.5401212   -0.5401212    0.3905989    0.3905989
           0.6276187    0.6276187    0.6431531    0.6431531    0.6431531
           0.6431531    0.6650129    0.6650129    0.6821400    0.6821400
           0.6893451    0.6893451    0.6893451    0.6893451    0.7720271
           0.7720271    0.7720271    0.7720271    0.7825220    0.7825220
           0.9671889    0.9671889    0.9671889    0.9671889    1.3764683
           1.3764683    1.6162219    1.6162219    1.6228826    1.6228826

           1.6228826    1.6228826    1.7223705    1.7223705    2.4917288
           2.4917288    2.4917288    2.4917288    2.5066109    2.5066109
           2.5304497    2.5304497    2.6463795    2.6463795    2.6463795
           2.6463795    2.7805187    2.7805187    2.7805187    2.7805187
           3.2092077    3.2092077    3.3609261    3.3609261    3.3615659
           3.3615659    3.3615659    3.3615659    3.8223486    3.8223486
           3.8223486    3.8223486    4.0550876    4.0550876    4.0550876
           4.0550876    4.0596450    4.0596450    4.0817101    4.0817101

           4.1368213    4.1368213    4.1368213    4.1368213    4.1937719
           4.1937719    4.1937871    4.1937871    4.1937871    4.1937871

       ********************************************************

------- case.scf2 --------
:GMA  : POTENTIAL AND CHARGE CUT-OFF  12.00 Ry**.5




:POS001: at.nr.   1 position = 0.00000 0.00000 0.50000  multiplicity =  1

       lmmax  5
       lm=   0 0  4 0  4 4  6 0  6 4
:FER gutzwiller fermi energy   0.65888
:EORB         -0.082366934
:SUM sum of gutz band energies         -4.847027460

:CHA001: total charge inside sphere   1 =    10.150227
:PCS001: partial charges sphere =  1 s,p,d,f,      d-eg,d-t2g 
:QTL001: 2.0349 5.3533 0.7343 2.0273 0.0000 0.0000 0.0000 0.2645 0.4698 0.0000 0.0000 0.0000

:CHA  : total charge inside unit cell =       6.499995

------- case.scfc --------

        1.ATOM      Pr                   14 CORE STATES
:1S 001: 1S               -3066.951930692 Ry
:2S 001: 2S                -492.705009787 Ry
:2PP001: 2P*               -465.804076002 Ry
:2P 001: 2P                -430.406612174 Ry
:3S 001: 3S                -105.795948197 Ry
:3PP001: 3P*                -94.333758737 Ry
:3P 001: 3P                 -87.325944467 Ry
:3DD001: 3D*                -67.252849083 Ry
:3D 001: 3D                 -65.741298246 Ry
:4S 001: 4S                 -20.472719314 Ry
:4PP001: 4P*                -16.179427495 Ry
:4P 001: 4P                 -14.651919664 Ry
:4DD001: 4D*                 -7.584595935 Ry
:4D 001: 4D                  -7.315149417 Ry

------- case.scfm --------
:CINT001 Core Integral Atom   1   45.999518

       DENSITY AT NUCLEUS
        JATOM        VALENCE       SEMI-CORE          CORE           TOTAL
:RTO001:   1      653.097329        0.000000   656824.679137   657477.776467
     
       CHARGES OF NEW CHARGE DENSITY
:NTO   : INTERSTITIAL CHARGE =     2.849893
:NPC   : PW Pseudocharge     =     7.693694
:NTO001: CHARGE SPHERE  1    =    56.149745

:NEC01: NUCLEAR AND ELECTRONIC CHARGE     59.00000    58.99964
     
       CHARGES OF OLD CHARGE DENSITY
:OTO   : INTERSTITIAL CHARGE =     2.867602
:OPC   : PW Pseudocharge     =     7.710694
:OTO001: CHARGE SPHERE  1    =    56.132398

:NEC02: NUCLEAR AND ELECTRONIC CHARGE     59.00000    59.00000
     
       CONVERGENCE TEST
:DTO001: DIFFERENCE IN SPHERE  1 =  0.0329016

:DIS  :  CHARGE DISTANCE       ( 0.0329016 for atom    1 spin 1)      0.0329016
 PW Mixed is           53
 
******************************************************
* MULTISECANT MIXING VER9 RELEASE 10.4.0              *
* Standard Mode with controls                        *
* Fixed density scale                                *
* Regularization       1.000E-04                     *
* Trust Upper Limit    5.000E+00                     *
* Max Number of Memory Steps    8                    *
******************************************************
 
:PWTMP   1.5660E+02  1.2500E+02  2.2205E+02
:PLANE:  PW TOTAL      3.1687 DISTAN   6.99E-03  2.21E-01 %
:CHARG:  CLM/ATOM    977.1898 DISTAN   3.44E-02  3.52E-03 %
 
Step History
        DMIX         DMIXT        Red     Pred      Trust     Lambda    MagRel    MagAbs     Beta
  1   3.5000E-02   3.5000E-02 -1.00E+00  1.00E+00 -1.00E+01  1.00E+00  3.50E-02  3.50E-02  1.00E+00
  2   2.5000E-02   2.5000E-02  9.73E-01  1.00E+00 -1.00E+01  1.00E+00  2.50E-02  1.04E-02  1.00E+00
  3   3.2702E-02   3.2702E-02  5.65E-01  1.00E+00 -1.00E+01  4.98E-01  3.27E-02  1.33E-02  1.00E+00
  4   8.1755E-02   6.8368E-02  8.14E-01  9.41E-01  3.24E-01  5.19E-01  3.24E-01  7.44E-02  1.00E+00
  5   2.0439E-01   2.0292E-01  1.91E-01  2.51E-01  6.54E-01  8.26E-01  6.54E-01  1.22E-01  1.00E+00
  6   8.3524E-02   8.3524E-02  8.87E-01  9.52E-01  1.35E+00  7.24E-01  2.03E-01  7.27E-03  1.00E+00
  7   2.0881E-01   2.0881E-01 -1.00E+00  4.23E-01  1.52E+00  1.00E+00  1.23E+00  3.89E-02  1.00E+00
:JACOBIANS    7.181E-01   1.371E+00
  
:NORMS:  1/Froebius, Min, Max, Used   0.8639E+00  0.4517E+00  0.9968E+00  0.9183E+00
:INFO :  Number of Memory Steps    6 Skipping    0
:INFO :  SLambda=    1.0858351356  Max    1.0858351356
:PREDicted Charge, CTotal, PW Trust    4.041E-03   4.041E-03   3.000E-02
:PREDicted DMix, Beta, BLim   6.1449E-02  7.5578E-01  4.2531E+00

Eigenvalues, unscaled except for SY+YY
   #     SY Real        SY Imag          SS             YY         SY+YY Real      SY+YY Imag
   1   3.606937E+00   0.000000E+00   3.501167E+00   4.152229E+00   7.996322E+00   0.000000E+00
   2   1.078799E+00   0.000000E+00   9.323220E-01   1.600238E+00   2.818801E+00   0.000000E+00
   3   1.232566E-01   0.000000E+00   4.456205E-02   2.468300E-01   4.058986E-01   0.000000E+00
   4   1.025442E-04   0.000000E+00   1.513464E-05   7.017338E-04   8.617338E-04   0.000000E+00
   5   9.876763E-17   0.000000E+00   4.821237E-08   1.203270E-06   1.414747E-07   0.000000E+00
   6   2.197064E-07   0.000000E+00   2.641212E-16   1.358192E-07   1.445082E-06   0.000000E+00
 
:INFO :  Singular value  8.003E+00 Weight  1.000E+00 Projection -1.027E-02
:INFO :  Singular value  2.818E+00 Weight  1.000E+00 Projection  1.211E-02
:INFO :  Singular value  4.057E-01 Weight  1.000E+00 Projection -3.150E-02
:INFO :  Singular value  8.618E-04 Weight  8.116E-01 Projection  1.866E-01
:INFO :  Singular value  1.445E-06 Weight  1.211E-05 Projection  4.300E-06
:INFO :  Singular value  1.415E-07 Weight  1.161E-07 Projection  3.014E-07
:RANK :  ACTIVE   3.81/6  =  63.53 % ; YY RANK   3.74/6  =  62.34 %
 
:DLIM :  Beta Active  8.168E-01
:BLIM :  VZERO Control Off
:TRUST:  Step 2.74E+00  Charge 4.36E-02 (e) CTO  1.45E-01 (e) PW  2.04E-01 (e)
:DIRM :  MEMORY  6/8  SCALE   1.000 RED  1.11 PRED  0.42 NEXT  0.20 BETA  0.82
:TRAVE:  Charge 5.34E-03 (e) CTO  5.34E-03 (e) PW  1.67E-02 (e)
:DIRP :  |MSR1|= 4.234E-03 |PRATT|= 6.990E-03 ANGLE=  28.0 DEGREES
:DIRQ :  |MSR1|= 7.608E-03 |PRATT|= 3.437E-02 ANGLE=  21.3 DEGREES
:DIRT :  |MSR1|= 8.707E-03 |PRATT|= 3.507E-02 ANGLE=  28.0 DEGREES
:MIX  :   MSE1   REGULARIZATION:  4.15E-04 GREED: 0.10968  Newton 1.00  0.2483                
     
       CHARGES OF MIXED CHARGE DENSITY
:CTO   : INTERSTITIAL CHARGE =     2.864240
:CPC   : PW Pseudocharge     =     7.701565
:CTO001: CHARGE SPHERE  1    =    56.135760

:NEC03: NUCLEAR AND ELECTRONIC CHARGE     59.00000    59.00000

PW CHANGE     H    K    L      Current       Change    Residue
:PTO001:      0    0    0  4.75840503E-02 -5.625E-05 -1.503E-04
[...]

       DENSITY AT NUCLEUS
        JATOM        VALENCE       SEMI-CORE          CORE           TOTAL
:RTO001:   1      653.270719        0.000000   656824.343394   657477.614113
     
       CHARGES OF NEW CHARGE DENSITY
:NTO   : INTERSTITIAL CHARGE =     2.867757
:NPC   : PW Pseudocharge     =     7.701553
:NTO001: CHARGE SPHERE  1    =    56.131875

:NEC01: NUCLEAR AND ELECTRONIC CHARGE     59.00000    58.99963
     
       CHARGES OF OLD CHARGE DENSITY
:OTO   : INTERSTITIAL CHARGE =     2.868627
:OPC   : PW Pseudocharge     =     7.703138
:OTO001: CHARGE SPHERE  1    =    56.131373

:NEC02: NUCLEAR AND ELECTRONIC CHARGE     59.00000    59.00000
     
       CONVERGENCE TEST
:DTO001: DIFFERENCE IN SPHERE  1 =  0.0006121

:DIS  :  CHARGE DISTANCE       ( 0.0006121 for atom    1 spin 1)      0.0006121
 PW Mixed is           53
 
******************************************************
* MULTISECANT MIXING VER9 RELEASE 10.4.0              *
* Standard Mode with controls                        *
* Fixed density scale                                *
* Regularization       1.000E-04                     *
* Trust Upper Limit    5.000E+00                     *
* Max Number of Memory Steps    8                    *
******************************************************
 
:PWTMP   1.5660E+02  1.2500E+02  2.2205E+02
:PLANE:  PW TOTAL      3.1663 DISTAN   3.31E-04  1.05E-02 %
:CHARG:  CLM/ATOM    977.1923 DISTAN   7.00E-04  7.16E-05 %
 
Step History
        DMIX         DMIXT        Red     Pred      Trust     Lambda    MagRel    MagAbs     Beta
 30   2.1217E-02   2.1217E-02  1.04E+00  5.09E-01  5.03E-02  1.31E-01  1.06E-02  1.74E-04  4.91E-01
 31   2.0767E-02   2.0767E-02  9.71E-01  6.07E-01  5.39E-02  1.23E-01  2.35E-02  4.00E-04  3.93E-01
 32   1.2954E-02   1.2954E-02  9.81E-01  5.09E-01  9.73E-02  1.59E-01  1.63E-02  2.70E-04  4.91E-01
 33   3.2385E-02   3.2385E-02  9.56E-01  3.86E-01  9.59E-02  6.73E-02  2.18E-02  3.54E-04  6.14E-01
 34   1.5099E-02   1.5099E-02  1.02E+00  4.49E-01  1.16E-01  1.69E-01  3.99E-03  6.18E-05  5.51E-01
 35   3.7748E-02   3.7748E-02  9.59E-01  5.59E-01  6.60E-02  1.10E-01  2.68E-02  4.24E-04  4.41E-01
 36   4.7985E-02   4.0505E-02  8.93E-01  4.49E-01  1.38E-01  1.27E-01  6.43E-02  9.76E-04  5.51E-01
 37   2.0138E-02   6.1545E-03  8.11E-01  3.19E-01  3.06E-01  1.25E-01  9.38E-02  1.27E-03  6.89E-01
 38   2.7641E-02   6.1977E-03  7.17E-01  2.14E-01  3.77E-01  1.72E-01  1.56E-01  1.71E-03  8.61E-01
 39   6.9103E-02   3.0903E-02  5.26E-01  3.27E-01  4.71E-01  2.79E-01  3.41E-01  2.69E-03  1.00E+00
 40   1.4762E-01   1.4674E-01 -1.00E+00  1.50E-01  6.29E-01  1.00E+00  6.29E-01  2.61E-03  9.44E-01
:JACOBIANS    8.026E-01   9.224E-01
  
:NORMS:  1/Froebius, Min, Max, Used   0.5335E+00  0.4958E+00  0.1273E+01  0.5720E+00
:INFO :  Number of Memory Steps   10 Skipping   29
:INFO :  SLambda=    0.3819028815  Max    1.0000000000
:PREDicted Charge, CTotal, PW Trust    3.540E-04   3.540E-04   1.780E-03
:PREDicted DMix, Beta, BLim   1.5370E-02  9.4938E-01  5.7746E-01

Eigenvalues, unscaled except for SY+YY
   #     SY Real        SY Imag          SS             YY         SY+YY Real      SY+YY Imag
   1   4.221619E+00   0.000000E+00   2.729459E+00   9.896193E+00   1.150859E+01   0.000000E+00
   2   1.095600E-01   0.000000E+00   1.166190E-01   1.035665E-01   1.452641E-01   0.000000E+00
   3   2.198073E-05   0.000000E+00   8.128563E-06   1.741316E-04   1.877029E-04   0.000000E+00
   4   5.319715E-06   0.000000E+00   3.178980E-06   3.647815E-05   3.333190E-05   0.000000E+00
   5   6.763183E-07   0.000000E+00   1.881103E-06   1.866718E-05   2.140396E-05   0.000000E+00
   6  -5.501524E-07   0.000000E+00   1.131693E-07   8.690757E-06   5.170127E-06   0.000000E+00
   7   3.052788E-08   3.355359E-08   1.985288E-08   2.087942E-06   1.476114E-06   9.942519E-11
   8   3.052788E-08  -3.355359E-08   3.971636E-09   5.324804E-07   1.476114E-06  -9.942519E-11
   9   2.014750E-08   0.000000E+00   6.495073E-10   1.741396E-07   4.363410E-08   0.000000E+00
  10  -1.927058E-08   0.000000E+00   2.771946E-10   3.016841E-08   2.846211E-07   0.000000E+00
 
:INFO :  Singular value  1.151E+01 Weight  1.000E+00 Projection -2.130E-04
:INFO :  Singular value  1.453E-01 Weight  1.000E+00 Projection -1.001E-03
:INFO :  Singular value  1.894E-04 Weight  3.532E-02 Projection -5.394E-05
:INFO :  Singular value  3.580E-05 Weight  1.307E-03 Projection -1.638E-05
:INFO :  Singular value  2.312E-05 Weight  5.454E-04 Projection  5.208E-06
:INFO :  Singular value  5.315E-06 Weight  2.885E-05 Projection  1.079E-06
:INFO :  Singular value  2.269E-06 Weight  5.258E-06 Projection -1.704E-07
:INFO :  Singular value  8.850E-07 Weight  7.998E-07 Projection -9.578E-08
:INFO :  Singular value  2.577E-07 Weight  6.781E-08 Projection  1.915E-08
:INFO :  Singular value  4.346E-08 Weight  1.928E-09 Projection -6.869E-10
:RANK :  ACTIVE   2.04/10 =  20.37 % ; YY RANK   2.03/10 =  20.32 %
 
:DLIM :  Beta Active  9.480E-01
:BLIM :  VZERO Control Off
:TRUST:  Step 8.38E-01  Charge 1.96E-03 (e) CTO  3.06E-03 (e) PW  3.78E-03 (e)
:DIRM :  MEMORY 10/8  SCALE   1.000 RED  0.19 PRED  0.15 NEXT  0.28 BETA  0.95
:TRAVE:  Charge 4.70E-04 (e) CTO  4.70E-04 (e) PW  9.38E-04 (e)
:DIRP :  |MSR1|= 3.052E-04 |PRATT|= 3.311E-04 ANGLE=  21.8 DEGREES
:DIRQ :  |MSR1|= 3.928E-04 |PRATT|= 7.000E-04 ANGLE=  36.4 DEGREES
:DIRT :  |MSR1|= 4.974E-04 |PRATT|= 7.743E-04 ANGLE=  35.1 DEGREES
:MIX  :   MSD1   REGULARIZATION:  9.90E-04 GREED: 0.05905  Newton 1.00  0.6424                
     
       CHARGES OF MIXED CHARGE DENSITY
:CTO   : INTERSTITIAL CHARGE =     2.868413
:CPC   : PW Pseudocharge     =     7.702480
:CTO001: CHARGE SPHERE  1    =    56.131587

:NEC03: NUCLEAR AND ELECTRONIC CHARGE     59.00000    59.00000

PW CHANGE     H    K    L      Current       Change    Residue
:PTO001:      0    0    0  4.76069598E-02 -3.929E-06 -4.947E-06
:PTO002:     -1   -1   -1 -1.40542906E-01  1.132E-05  4.942E-06
:PTO003:      0    0   -2  8.20773432E-02 -8.028E-06 -8.252E-06
:PTO004:      0   -2   -2  6.51272678E-02 -7.166E-06 -7.279E-06
:PTO005:     -1   -1   -3 -5.62362579E-02  9.119E-06  9.195E-06
:PTO006:     -2   -2   -2  1.40318484E-02 -2.409E-06 -1.546E-06
:PTO007:      0    0   -4  1.28983258E-03 -1.316E-06 -1.736E-06
:PTO008:     -1   -3   -3  2.87286363E-03  5.157E-06  7.512E-06
:PTO009:      0   -2   -4 -5.35744426E-03 -5.118E-06 -8.040E-06
:PTO010:     -2   -2   -4 -8.17207208E-03 -5.099E-06 -8.103E-06
:PTO011:     -3   -3   -3  2.61258704E-03  1.667E-06  2.626E-06
:PTO012:     -1   -1   -5  8.44014201E-03  5.042E-06  8.357E-06

:ENE  : ********** TOTAL ENERGY IN Ry =       -18472.12927684


------- case.scf0 --------
 Flat Integration
 New Mode for Coulomb Integral
 Consistent 3/8+Simpson combinations
 Extension of core to zero
 LDM version in phi
 Fifth-order quadrature in outwin


            ---------
:ITE062: 62. ITERATION
            ---------

:NATO :    1 INDEPENDENT AND    1 TOTAL ATOMS IN UNITCELL
       SUBSTANCE: blebleble                                                   

       LATTICE                      = F   
:POT  : POTENTIAL OPTION EX_LDA EC_LDA VX_LDA VC_LDA
:LAT  : LATTICE CONSTANTS=  9.61244  9.61244  9.61244    1.571    1.571    1.571
:VOL  : UNIT CELL VOLUME =     222.04511
       MODE OF CALCULATION IS       = RELA
       NON-SPINPOLARIZED CALCULATION
:IFFT  : FFT-parameters:   80   80   80 Factor: 2.00


   CONVERGENCE PARAMETER FOR PSEUDOCHARGE: NCON=  9
   MAXIMAL VALUE OF RMT(JATOM)*ABSK(NKK) : RK  =29.95407


:VKCOUL :  VK-COUL convergence: 0.477E-07
       ATOMNUMBER=  1 Pr         VCOUL-ZERO =  0.31192E+00
:FIT001: LUSE= 13 SIGMA OF V-XC FIT FOR ATOM  1  0.1800437E-04
:FIT001: LUSE= 13 SIGMA OF V-XC FIT FOR ATOM  1  0.1800437E-04
:DEN  : DENSITY INTEGRAL  =         -7075.48299273   (Ry)
       ELS_POTENTIAL_AT Z=0 and Z=0.5:  -2.56112  -2.56112
       ELS_POTENTIAL_AT Y=0 and Y=0.5:   0.00000   0.00000
:VZERO:v0,v0c,v0x  -3.55931  -2.56112  -0.99820 v5,v5c,v5x  -3.55931  -2.56112  -0.99820
:VZERY:v0,v0c,v0x  -0.73659   0.00000  -0.73659 v5,v5c,v5x  -0.73659   0.00000  -0.73659
:VZERX:v0,v0c,v0x  -0.73659   0.00000  -0.73659 v5,v5c,v5x  -0.73659   0.00000  -0.73659

------- case.scf1 --------
:LMAX-WF:   10   Non-Spherical LMAX:   4

          ATOMIC SPHERE DEPENDENT PARAMETERS FOR ATOM  Pr        
:e__0001: OVERALL ENERGY PARAMETER IS    0.4403
          OVERALL BASIS SET ON ATOM IS LAPW
:E0_0001: E( 0)=    0.4403
             APW+lo
:E0_0001: E( 0)=   -2.0262   E(BOTTOM)=   -2.407   E(TOP)=   -1.645  4  5   177
             LOCAL ORBITAL
:E1_0001: E( 1)=    0.8403
             APW+lo
:E1_0001: E( 1)=   -0.6380   E(BOTTOM)=   -1.285   E(TOP)=    0.009  3  4   173
             LOCAL ORBITAL
:E3_0001: E( 3)=    0.6406   E(BOTTOM)=    0.499   E(TOP)=    0.782  0  1   120
             APW+lo
:E2_0001: E( 2)=    0.4403   E(BOTTOM)=    0.290   E(TOP)= -200.000  2 -1    87
             APW+lo

       K=   0.00000   0.00000   0.00000            1
:RKM  : MATRIX SIZE   189LOs:  20  RKM= 8.49  WEIGHT= 1.00  PGR:    
       EIGENVALUES ARE:
:EIG00001:      -1.9921403   -0.6106302   -0.6106302   -0.6106302    0.3902154
:EIG00006:       0.6302905    0.6524397    0.6524397    0.6524397    0.6818176
:EIG00011:       0.6818176    0.6818176    0.7754947    0.7754947    0.7754947
:EIG00016:       0.9663839    0.9663839    1.3759964    1.6203516    1.6203516
:EIG00021:       1.6203516    1.7220464    2.4963802    2.4963802    2.4963802
:EIG00026:       2.6067821    2.6067821    2.6067821    2.7797851    2.7797851
:EIG00031:       3.2088312    3.3610140    3.3610140    3.3610140    3.8219309
:EIG00036:       3.8219309    4.0561135    4.0561135    4.0561135    4.1168766
:EIG00041:       4.1168766    4.1168766    4.1934212    4.1934212    4.1934212
:EIG00046:       4.5042984    4.5042984    4.5042984    4.5857469    4.6097627
 
:EIG00051:       4.6097627    4.7578753    4.7578753    4.7578753    4.7740697
:EIG00056:       4.7740697    4.7740697    4.8814166    4.8856197    4.9873183
:EIG00061:       4.9873183    4.9873183    5.2129540    5.2129540    5.2129540
:EIG00066:       5.5768688    6.4888882    6.5108805    6.5108805    6.9238534
:EIG00071:       6.9238534    6.9238534    7.4805552    7.4805552    7.6457712
:EIG00076:       7.6457712    7.6457712    7.6935012    7.6935012    7.6935012
:EIG00081:       7.8943315    7.8943315    7.8943315    7.9027536    7.9027536
:EIG00086:       8.0433140    8.0433140    8.0433140    8.1178738    8.1178738
:EIG00091:       8.1178738    8.1327864    8.1327864    8.1327864
       ********************************************************

:KPT   :      NUMBER OF K-POINTS:   165

------- case.scfso --------
   0.0   0.0 angle (M,z), angle (M,x) deg
 
        SPIN-ORBIT EIGENVALUES:
     K=   0.00000   0.00000   0.00000            1
      MATRIX SIZE=  188   WEIGHT= 1.00
     EIGENVALUES ARE:
          -1.9921403   -1.9921403   -0.7596395   -0.7596395   -0.5407240
          -0.5407240   -0.5407240   -0.5407240    0.3902154    0.3902154
           0.6266883    0.6266883    0.6421718    0.6421718    0.6421718
           0.6421718    0.6640400    0.6640400    0.6811318    0.6811318
           0.6883343    0.6883343    0.6883343    0.6883343    0.7716272
           0.7716272    0.7716272    0.7716272    0.7821248    0.7821248
           0.9667470    0.9667470    0.9667470    0.9667470    1.3760557
           1.3760557    1.6158056    1.6158056    1.6224703    1.6224703

           1.6224703    1.6224703    1.7220464    1.7220464    2.4912482
           2.4912482    2.4912482    2.4912482    2.5061329    2.5061329
           2.5300304    2.5300304    2.6459607    2.6459607    2.6459607
           2.6459607    2.7800788    2.7800788    2.7800788    2.7800788
           3.2088312    3.2088312    3.3605958    3.3605958    3.3612352
           3.3612352    3.3612352    3.3612352    3.8218959    3.8218959
           3.8218959    3.8218959    4.0546925    4.0546925    4.0546925
           4.0546925    4.0592499    4.0592499    4.0813405    4.0813405

           4.1364476    4.1364476    4.1364476    4.1364476    4.1934111
           4.1934111    4.1934263    4.1934263    4.1934263    4.1934263

       ********************************************************

------- case.scf2 --------
:GMA  : POTENTIAL AND CHARGE CUT-OFF  12.00 Ry**.5




:POS001: at.nr.   1 position = 0.00000 0.00000 0.50000  multiplicity =  1

       lmmax  5
       lm=   0 0  4 0  4 4  6 0  6 4
:FER gutzwiller fermi energy   0.66074
:EORB         -0.090969425
:SUM sum of gutz band energies         -4.846808914

:CHA001: total charge inside sphere   1 =    10.132102
:PCS001: partial charges sphere =  1 s,p,d,f,      d-eg,d-t2g 
:QTL001: 2.0351 5.3555 0.7470 1.9940 0.0000 0.0000 0.0000 0.2684 0.4786 0.0000 0.0000 0.0000

:CHA  : total charge inside unit cell =       6.500000

------- case.scfc --------

        1.ATOM      Pr                   14 CORE STATES
:1S 001: 1S               -3066.949707996 Ry
:2S 001: 2S                -492.703463628 Ry
:2PP001: 2P*               -465.802381757 Ry
:2P 001: 2P                -430.404973608 Ry
:3S 001: 3S                -105.795751371 Ry
:3PP001: 3P*                -94.333485706 Ry
:3P 001: 3P                 -87.325748937 Ry
:3DD001: 3D*                -67.252448705 Ry
:3D 001: 3D                 -65.740924596 Ry
:4S 001: 4S                 -20.473777602 Ry
:4PP001: 4P*                -16.180487233 Ry
:4P 001: 4P                 -14.653009358 Ry
:4DD001: 4D*                 -7.585677096 Ry
:4D 001: 4D                  -7.316236151 Ry

------- case.scfm --------
:CINT001 Core Integral Atom   1   45.999519

       DENSITY AT NUCLEUS
        JATOM        VALENCE       SEMI-CORE          CORE           TOTAL
:RTO001:   1      653.253536        0.000000   656824.341420   657477.594956
     
       CHARGES OF NEW CHARGE DENSITY
:NTO   : INTERSTITIAL CHARGE =     2.867882
:NPC   : PW Pseudocharge     =     7.701599
:NTO001: CHARGE SPHERE  1    =    56.131621

:NEC01: NUCLEAR AND ELECTRONIC CHARGE     59.00000    58.99950
     
       CHARGES OF OLD CHARGE DENSITY
:OTO   : INTERSTITIAL CHARGE =     2.868413
:OPC   : PW Pseudocharge     =     7.702480
:OTO001: CHARGE SPHERE  1    =    56.131587

:NEC02: NUCLEAR AND ELECTRONIC CHARGE     59.00000    59.00000
     
       CONVERGENCE TEST
:DTO001: DIFFERENCE IN SPHERE  1 =  0.0000613

:DIS  :  CHARGE DISTANCE       ( 0.0000613 for atom    1 spin 1)      0.0000613
 PW Mixed is           53
 
******************************************************
* MULTISECANT MIXING VER9 RELEASE 10.4.0              *
* Standard Mode with controls                        *
* Fixed density scale                                *
* Regularization       1.000E-04                     *
* Trust Upper Limit    5.000E+00                     *
* Max Number of Memory Steps    8                    *
******************************************************
 
:PWTMP   1.5660E+02  1.2500E+02  2.2205E+02
:PLANE:  PW TOTAL      3.1660 DISTAN   2.09E-04  6.59E-03 %
:CHARG:  CLM/ATOM    977.1922 DISTAN   1.65E-04  1.69E-05 %
 
Step History
        DMIX         DMIXT        Red     Pred      Trust     Lambda    MagRel    MagAbs     Beta
 32   1.2954E-02   1.2954E-02  9.81E-01  5.09E-01  9.73E-02  1.59E-01  1.63E-02  2.70E-04  4.91E-01
 33   3.2385E-02   3.2385E-02  9.56E-01  3.86E-01  9.59E-02  6.73E-02  2.18E-02  3.54E-04  6.14E-01
 34   1.5099E-02   1.5099E-02  1.02E+00  4.49E-01  1.16E-01  1.69E-01  3.99E-03  6.18E-05  5.51E-01
 35   3.7748E-02   3.7748E-02  9.59E-01  5.59E-01  6.60E-02  1.10E-01  2.68E-02  4.24E-04  4.41E-01
 36   4.7985E-02   4.0505E-02  8.93E-01  4.49E-01  1.38E-01  1.27E-01  6.43E-02  9.76E-04  5.51E-01
 37   2.0138E-02   6.1545E-03  8.11E-01  3.19E-01  3.06E-01  1.25E-01  9.38E-02  1.27E-03  6.89E-01
 38   2.7641E-02   6.1977E-03  7.17E-01  2.14E-01  3.77E-01  1.72E-01  1.56E-01  1.71E-03  8.61E-01
 39   6.9103E-02   3.0903E-02  5.26E-01  3.27E-01  4.71E-01  2.79E-01  3.41E-01  2.69E-03  1.00E+00
 40   1.4762E-01   1.4674E-01  1.87E-01  1.50E-01  6.29E-01  3.82E-01  6.29E-01  2.61E-03  9.44E-01
 41   5.9046E-02   5.9046E-02 -1.00E+00  2.77E-01  8.38E-01  1.00E+00  6.42E-01  4.97E-04  9.48E-01
:JACOBIANS    7.495E-01   8.577E-01
  
:NORMS:  1/Froebius, Min, Max, Used   0.5455E+00  0.2706E+00  0.1012E+01  0.5764E+00
:INFO :  Number of Memory Steps    9 Skipping   31
:INFO :  SLambda=    1.0000000000  Max    1.0000000000
:PREDicted Charge, CTotal, PW Trust    2.173E-04   2.173E-04   5.101E-04
:PREDicted DMix, Beta, BLim   3.2073E-03  1.0319E+00  1.1305E+00

Eigenvalues, unscaled except for SY+YY
   #     SY Real        SY Imag          SS             YY         SY+YY Real      SY+YY Imag
   1   3.597497E+00   0.000000E+00   2.316617E+00   8.512205E+00   1.211266E+01   0.000000E+00
   2   4.081765E-01   0.000000E+00   3.610249E-01   4.815864E-01   8.860244E-01   0.000000E+00
   3  -8.604723E-05   0.000000E+00   1.038232E-04   6.074604E-03   6.786306E-03   0.000000E+00
   4   2.978559E-05   0.000000E+00   6.427410E-06   9.991897E-05   1.123513E-04   0.000000E+00
   5   5.039604E-06   0.000000E+00   2.522380E-06   2.081536E-05   2.808134E-05   0.000000E+00
   6   2.114192E-06   0.000000E+00   9.305657E-07   7.629554E-06   8.925195E-06   0.000000E+00
   7  -5.845915E-07   0.000000E+00   7.832268E-08   3.238186E-06   2.694594E-07   0.000000E+00
   8   1.024943E-08   0.000000E+00   6.735505E-09   1.813700E-06   2.716889E-06   0.000000E+00
   9  -1.734093E-08   0.000000E+00   1.224532E-09   2.017537E-07   3.231161E-06   0.000000E+00
 
:INFO :  Singular value  1.212E+01 Weight  1.000E+00 Projection -4.073E-06
:INFO :  Singular value  8.873E-01 Weight  1.000E+00 Projection  1.470E-04
:INFO :  Singular value  6.782E-03 Weight  9.845E-01 Projection -1.201E-03
:INFO :  Singular value  1.128E-04 Weight  1.724E-02 Projection -3.710E-05
:INFO :  Singular value  3.041E-05 Weight  1.275E-03 Projection -1.090E-06
:INFO :  Singular value  9.466E-06 Weight  1.237E-04 Projection -8.651E-06
:INFO :  Singular value  3.436E-06 Weight  1.629E-05 Projection -1.842E-07
:INFO :  Singular value  2.283E-06 Weight  7.192E-06 Projection -2.790E-07
:INFO :  Singular value  2.614E-07 Weight  9.430E-08 Projection  1.459E-08
:RANK :  ACTIVE   3.00/9  =  33.37 % ; YY RANK   3.00/9  =  33.28 %
 
:BLIM :  VZERO Control Off
:TRUST:  Step 1.12E+00  Charge 1.96E-03 (e) CTO  2.50E-03 (e) PW  3.78E-03 (e)
:DIRM :  MEMORY  9/8  SCALE   1.000 RED  0.34 PRED  0.28 NEXT  0.79 
:TRAVE:  Charge 2.38E-04 (e) CTO  2.38E-04 (e) PW  4.77E-04 (e)
:DIRP :  |MSR1|= 1.009E-05 |PRATT|= 2.087E-04 ANGLE= 138.8 DEGREES
:DIRQ :  |MSR1|= 1.382E-05 |PRATT|= 1.652E-04 ANGLE=  80.1 DEGREES
:DIRT :  |MSR1|= 1.711E-05 |PRATT|= 2.662E-04 ANGLE= 105.2 DEGREES
:MIX  :   MSR1   REGULARIZATION:  8.51E-04 GREED: 0.04091  Newton 1.00  0.0643                
     
       CHARGES OF MIXED CHARGE DENSITY
:CTO   : INTERSTITIAL CHARGE =     2.868407
:CPC   : PW Pseudocharge     =     7.702457
:CTO001: CHARGE SPHERE  1    =    56.131593

:NEC03: NUCLEAR AND ELECTRONIC CHARGE     59.00000    59.00000

PW CHANGE     H    K    L      Current       Change    Residue
:PTO001:      0    0    0  4.76068295E-02 -1.303E-07  1.899E-06
:PTO002:     -1   -1   -1 -1.40542454E-01  4.517E-07 -1.191E-05
:PTO003:      0    0   -2  8.20770972E-02 -2.460E-07  3.704E-06
:PTO004:      0   -2   -2  6.51270524E-02 -2.154E-07  1.979E-06
:PTO005:     -1   -1   -3 -5.62359873E-02  2.706E-07 -1.366E-06
:PTO006:     -2   -2   -2  1.40317579E-02 -9.049E-08  8.736E-07
:PTO007:      0    0   -4  1.28979812E-03 -3.446E-08 -3.156E-07
:PTO008:     -1   -3   -3  2.87298622E-03  1.226E-07  2.787E-06
:PTO009:      0   -2   -4 -5.35755559E-03 -1.113E-07 -3.098E-06
:PTO010:     -2   -2   -4 -8.17219136E-03 -1.193E-07 -3.241E-06
:PTO011:     -3   -3   -3  2.61262867E-03  4.164E-08  1.042E-06
:PTO012:     -1   -1   -5  8.44025488E-03  1.129E-07  3.311E-06

:ENE  : ********** TOTAL ENERGY IN Ry =       -18472.12927695

