
:LABEL1: Calculations in /home/ykent/GWIEN/example/Pr/aU/V17/case
:LABEL2: on didymium-2.cmpgroup.ameslab.gov at Fri Jul 10 14:29:26 CDT 2020
:LABEL3: using WIEN2k_19.1 (Release 25/6/2019) in /home/ykent/opt/src/WIEN2k_19.1
:LABEL4: using the command: run_lapw -so -i 70 -cc 0.0001
 Flat Integration
 New Mode for Coulomb Integral
 Consistent 3/8+Simpson combinations
 Extension of core to zero
 LDM version in phi
 Fifth-order quadrature in outwin


            ---------
:ITE015: 15. ITERATION
            ---------

:NATO :    1 INDEPENDENT AND    2 TOTAL ATOMS IN UNITCELL
       SUBSTANCE: aU                                                          

       LATTICE                      = CXY 
:POT  : POTENTIAL OPTION EX_LDA EC_LDA VX_LDA VC_LDA
:LAT  : LATTICE CONSTANTS=  6.41698 13.02167 11.24187    1.571    1.571    1.571
:VOL  : UNIT CELL VOLUME =     469.68395
       MODE OF CALCULATION IS       = RELA
       NON-SPINPOLARIZED CALCULATION
:IFFT  : FFT-parameters:   54  100   90 Factor: 2.00


   CONVERGENCE PARAMETER FOR PSEUDOCHARGE: NCON=  9
   MAXIMAL VALUE OF RMT(JATOM)*ABSK(NKK) : RK  =27.59878


:VKCOUL :  VK-COUL convergence: 0.134E-06
       ATOMNUMBER=  1 Pr1        VCOUL-ZERO =  0.83623E-01
:EFG001:                        EFG         =    -8.08223   *10**21  V / m**2
                               V20  TOT/SRF=    -6.99942    -0.02763
                               V22  TOT/SRF=    -0.17761    -0.00025
                               V22M TOT/SRF=     0.00000     0.00000
                               V21  TOT/SRF=     0.00000     0.00000
                               V21M TOT/SRF=     0.00000     0.00000

              3.86350    0.00000    0.00000        3.86350    0.00000    0.00000
              0.00000    4.21873    0.00000        0.00000    4.21873    0.00000
              0.00000    0.00000   -8.08223        0.00000    0.00000   -8.08223

         MAIN DIRECTIONS OF THE EFG   1.0000  0.0000  0.0000
                                      0.0000  1.0000  0.0000
                                      0.0000  0.0000  1.0000
:ANG001:  ANGLE WITH OLD X-AXIS =         0.0

:ETA001:                         ASYMM. ETA =     0.04395


     HELLMANN-FEYNMAN-FORCE IN mRy/a.u. = |F|  Fx       Fy             Fz
:FHF001:   1.ATOM   1386.273343272522      0.000000000000      0.000000000000  -1386.273343272522

:FIT001: LUSE= 13 SIGMA OF V-XC FIT FOR ATOM  1  0.5747525E-04
:FIT001: LUSE= 13 SIGMA OF V-XC FIT FOR ATOM  1  0.5747525E-04
:DEN  : DENSITY INTEGRAL  =        -14149.78492502   (Ry)
       ELS_POTENTIAL_AT Z=0 and Z=0.5:   0.72724   0.72724
       ELS_POTENTIAL_AT Y=0 and Y=0.5:   0.07067   0.07067
:VZERO:v0,v0c,v0x   0.14660   0.72724  -0.58063 v5,v5c,v5x   0.14660   0.72724  -0.58063
:VZERY:v0,v0c,v0x  -0.70675   0.07067  -0.77742 v5,v5c,v5x  -0.70675   0.07067  -0.77742
:VZERX:v0,v0c,v0x  -1.12119  -0.37724  -0.74396 v5,v5c,v5x  -1.12119  -0.37724  -0.74396
:LMAX-WF:   10   Non-Spherical LMAX:   4

          ATOMIC SPHERE DEPENDENT PARAMETERS FOR ATOM  Pr1       
:e__0001: OVERALL ENERGY PARAMETER IS    0.4401
          OVERALL BASIS SET ON ATOM IS LAPW
:E0_0001: E( 0)=    0.4401
             APW+lo
:E0_0001: E( 0)=   -2.0265   E(BOTTOM)=   -2.662   E(TOP)=   -1.391  4  5   176
             LOCAL ORBITAL
:E1_0001: E( 1)=    0.8401
             APW+lo
:E1_0001: E( 1)=   -0.5564   E(BOTTOM)=   -1.514   E(TOP)=    0.401  3  4   198
             LOCAL ORBITAL
:E3_0001: E( 3)=    0.6252   E(BOTTOM)=    0.418   E(TOP)=    0.833  0  1   121
             APW+lo
:E2_0001: E( 2)=    0.4401   E(BOTTOM)=    0.227   E(TOP)= -200.000  2 -1    88
             APW+lo

       K=   0.06250   0.00000   0.06250            1
:RKM  : MATRIX SIZE   441LOs:  40  RKM= 8.49  WEIGHT= 4.00  PGR:    
       EIGENVALUES ARE:
:EIG00001:      -1.9987363   -1.9836764   -0.7263331   -0.6475378   -0.6295745
:EIG00006:      -0.6225507   -0.6151606   -0.6149792    0.4085385    0.5426925
:EIG00011:       0.6336710    0.6349813    0.6352330    0.6377295    0.6421251
:EIG00016:       0.6529585    0.6564130    0.6568467    0.6598525    0.6626244
:EIG00021:       0.6665036    0.6700368    0.6707128    0.6761967    0.7096817
:EIG00026:       0.7247385    0.8043263    0.8179456    0.8466043    0.8773049
:EIG00031:       0.8938723    0.9830803    1.0274424    1.0733035    1.3748497
:EIG00036:       1.3751112    1.4624438    1.4665734    1.6274956    1.6813888
:EIG00041:       1.7516648    1.8526750    1.9327067    1.9491124    2.0529239
:EIG00046:       2.1008281    2.1152799    2.1854796    2.2364248    2.3343291
 
:EIG00051:       2.3832444    2.4377101    2.4560919    2.5330308    2.5643434
:EIG00056:       2.6388171    2.6680033    2.7055254    2.7925577    2.8547586
:EIG00061:       2.9211990    2.9313795    3.0716001    3.1360051    3.1551504
:EIG00066:       3.2556849    3.3143860    3.3450542    3.3580584    3.4115426
:EIG00071:       3.4198054    3.4694683    3.5004980    3.5651558    3.5814931
:EIG00076:       3.6225238    3.6497155    3.6933110    3.7192517    3.7487663
:EIG00081:       3.7691530    3.8115115    3.8271280    3.9108278    3.9192671
:EIG00086:       3.9481067    4.0428298    4.0533035    4.0869014    4.0994553
:EIG00091:       4.1336053    4.1711882    4.1964366    4.2161004    4.2287336
:EIG00096:       4.2719542    4.3123233    4.3238571    4.3364567    4.4142744
 
:EIG00101:       4.4923735    4.6140749    4.6291110    4.6975564    4.7268906
:EIG00106:       4.7270102    4.7830344    4.8028182    4.8371622    4.8683834
:EIG00111:       4.9535868    4.9959518    4.9996058    5.0574411    5.1135478
:EIG00116:       5.1505929    5.2062366    5.2179637    5.2605197    5.2970044
:EIG00121:       5.3084759    5.3808092    5.4378588    5.4511424    5.5045065
:EIG00126:       5.5920870    5.6282740    5.6495432    5.6844212    5.7290274
:EIG00131:       5.7391560    5.8069095    5.8237838    5.8316074    5.8595353
:EIG00136:       5.9422262    5.9666901    6.0248180    6.0284534    6.0623569
:EIG00141:       6.0840376    6.1054596    6.1478753    6.1723427    6.2381688
:EIG00146:       6.2409087    6.2497000    6.2786667    6.2901703    6.3663921
 
:EIG00151:       6.4157634    6.4265111    6.5056573    6.5224536    6.6006767
:EIG00156:       6.6836351    6.7767415    6.7888162    6.8178520    6.8787975
:EIG00161:       6.9494876    6.9623785    7.0094297    7.0355588    7.0455582
:EIG00166:       7.1084394    7.1153770    7.1226930    7.1758166    7.2376563
:EIG00171:       7.2497073    7.2993114    7.3364232    7.3468923    7.4082316
:EIG00176:       7.4226843    7.4517647    7.4764313    7.5236172    7.5516984
:EIG00181:       7.5941077    7.6052627    7.6160067    7.6511118    7.6882158
:EIG00186:       7.6983127    7.7638328    7.8459059    7.8589560    7.8704144
:EIG00191:       7.8907523    7.9180417    7.9728765    7.9842868    7.9874460
:EIG00196:       8.0080775    8.0199397    8.0788396    8.0797947    8.1239783
 
:EIG00201:       8.1360167
       ********************************************************

:KPT   :      NUMBER OF K-POINTS:   288
   0.0   0.0 angle (M,z), angle (M,x) deg
 
        SPIN-ORBIT EIGENVALUES:
     K=   0.06250   0.00000   0.06250            1
      MATRIX SIZE=  402   WEIGHT= 4.00
     EIGENVALUES ARE:
          -1.9987364   -1.9987364   -1.9836765   -1.9836765   -0.8132124
          -0.8132123   -0.7707602   -0.7707602   -0.6262505   -0.6262505
          -0.5605531   -0.5605531   -0.5575278   -0.5575278   -0.5484640
          -0.5484640    0.4085782    0.4085782    0.5425626    0.5425626
           0.6275658    0.6275658    0.6295590    0.6295590    0.6303478
           0.6303478    0.6324017    0.6324017    0.6360940    0.6360940
           0.6404233    0.6404233    0.6556994    0.6556994    0.6625410
           0.6625410    0.6666172    0.6666172    0.6674724    0.6674724

           0.6718838    0.6718838    0.6753910    0.6753910    0.6760872
           0.6760872    0.6813236    0.6813236    0.7104943    0.7104943
           0.7247143    0.7247143    0.8029277    0.8029278    0.8187772
           0.8187772    0.8469464    0.8469465    0.8777732    0.8777732
           0.8939439    0.8939440    0.9829184    0.9829185    1.0277258
           1.0277258    1.0734273    1.0734273    1.3735071    1.3735071
           1.3766727    1.3766727    1.4623480    1.4623480    1.4666920
           1.4666920    1.6271103    1.6271103    1.6808444    1.6808444

           1.7516032    1.7516032    1.8512497    1.8512497    1.9310684
           1.9310684    1.9503016    1.9503016    2.0533448    2.0533448
           2.1006040    2.1006040    2.1135780    2.1135780    2.1856599
           2.1856599    2.2372322    2.2372322    2.3340028    2.3340028
           2.3827397    2.3827397    2.4350972    2.4350972    2.4578367
           2.4578367    2.5332937    2.5332937    2.5657335    2.5657335
           2.6388435    2.6388435    2.6675169    2.6675169    2.7063187
           2.7063187    2.7928460    2.7928460    2.8545270    2.8545270

           2.9207957    2.9207957    2.9357857    2.9357857    3.0714895
           3.0714895    3.1360291    3.1360291    3.1553567    3.1553567
           3.2556619    3.2556619    3.3143716    3.3143716    3.3453256
           3.3453256    3.3576986    3.3576986    3.4116497    3.4116497
           3.4200310    3.4200310    3.4694549    3.4694549    3.5005608
           3.5005608    3.5643483    3.5643483    3.5824412    3.5824412
           3.6227465    3.6227465    3.6513053    3.6513053    3.6933936
           3.6933936    3.7194343    3.7194343    3.7491245    3.7491245

           3.7692823    3.7692823    3.8115351    3.8115351    3.8274521
           3.8274521    3.9108289    3.9108289    3.9194786    3.9194786
           3.9482172    3.9482172    4.0428161    4.0428161    4.0534429
           4.0534429    4.0869166    4.0869166    4.0995218    4.0995218
           4.1336337    4.1336337    4.1712375    4.1712375    4.1964455
           4.1964455    4.2159864    4.2159864    4.2286836    4.2286836
           4.2720025    4.2720025    4.3121064    4.3121064    4.3240832
           4.3240832    4.3366372    4.3366372    4.4143447    4.4143447

           4.4922541    4.4922541
       ********************************************************
:GAP (global)   :    0.0    Ry =     0.0   eV (metal)
:GAP (this spin):    0.0    Ry =     0.0   eV (metal)
         Bandranges (emin - emax) and occupancy:
:BAN00018:  18    0.403404    0.607838  1.00000000
:BAN00019:  19    0.512204    0.617255  1.00000000
:BAN00020:  20    0.512204    0.617255  1.00000000
:BAN00021:  21    0.573911    0.631207  1.00000000
:BAN00022:  22    0.573911    0.631207  1.00000000
:BAN00023:  23    0.613521    0.633722  1.00000000
:BAN00024:  24    0.613521    0.633722  1.00000000
:BAN00025:  25    0.622214    0.639974  0.79270068
:BAN00026:  26    0.622214    0.639974  0.79270052
:BAN00027:  27    0.631386    0.640914  0.20729954
:BAN00028:  28    0.631386    0.640914  0.20729926
:BAN00029:  29    0.635130    0.645164  0.00000000
:BAN00030:  30    0.635130    0.645164  0.00000000
:BAN00031:  31    0.638414    0.650404  0.00000000
:BAN00032:  32    0.638414    0.650404  0.00000000
:BAN00033:  33    0.642800    0.656774  0.00000000
        Energy to separate low and high energystates:    0.35340


:NOE  : NUMBER OF ELECTRONS          =   26.000

:FER  : F E R M I - ENERGY(TETRAH.M.)=   0.6343441320
:GMA  : POTENTIAL AND CHARGE CUT-OFF  12.00 Ry**.5

:POS001: ATOM   -1 X,Y,Z = 0.00000 0.89750 0.25000  MULT= 2  ZZ= 59.000  Pr1       

       LMMAX 16
       LM=   0 0  1 0  2 0  2 2  3 0  3 2  4 0  4 2  4 4  5 0  5 2  5 4  6 0  6 2  6 4  6 6

:CHA001: TOTAL VALENCE CHARGE INSIDE SPHERE   1 =   9.6278    (RMT=  2.3000 )
:PCS001: PARTIAL CHARGES SPHERE =  1 S,P,D,F,PX,PY,PZ,D-Z2,D-X2Y2,D-XY,D-XZ,D-YZ 
:QTL001: 1.9402 5.0096 0.4899 2.1879 1.6673 1.6669 1.6753 0.0898 0.0874 0.1100 0.0950 0.1076
        Q-s-low E-s-low   Q-p-low E-p-low   Q-d-low E-d-low   Q-f-low E-f-low
:EPL001:  1.8695 -1.9837    4.9472 -0.6671    0.0019 -0.6620    0.0005 -0.6730
        Q-s-hi  E-s-hi    Q-p-hi  E-p-hi    Q-d-hi  E-d-hi    Q-f-hi  E-f-hi 
:EPH001:  0.0706  0.5405    0.0624  0.5761    0.4881  0.5870    2.1874  0.6221

                      VXX         VYY         VZZ       UP TO R
:VZZ001:             3.61763     2.80985    -6.42748       2.300

:CHA  : TOTAL VALENCE CHARGE INSIDE UNIT CELL =      26.000000

:SUM  : SUM OF EIGENVALUES =          -9.958028907


        1.ATOM      Pr1                  14 CORE STATES
       CORE-FORCE in mRy/a.u. = |F|      Fx             Fy             Fz
:FCO001:   1.ATOM   1358.548867253701      0.000000000000      0.000000000000   1358.548867253701

:1S 001: 1S               -3066.966569830 Ry
:2S 001: 2S                -492.719036111 Ry
:2PP001: 2P*               -465.818254943 Ry
:2P 001: 2P                -430.420732677 Ry
:3S 001: 3S                -105.808099081 Ry
:3PP001: 3P*                -94.346013060 Ry
:3P 001: 3P                 -87.338080728 Ry
:3DD001: 3D*                -67.265300121 Ry
:3D 001: 3D                 -65.753709572 Ry
:4S 001: 4S                 -20.482318662 Ry
:4PP001: 4P*                -16.188970769 Ry
:4P 001: 4P                 -14.661341328 Ry
:4DD001: 4D*                 -7.593896791 Ry
:4D 001: 4D                  -7.324416098 Ry
:CINT001 Core Integral Atom   1   45.998495

       DENSITY AT NUCLEUS
        JATOM        VALENCE       SEMI-CORE          CORE           TOTAL
:RTO001:   1      648.013784        0.000000   656825.290335   657473.304118
     
       CHARGES OF NEW CHARGE DENSITY
:NTO   : INTERSTITIAL CHARGE =     6.744398
:NPC   : PW Pseudocharge     =    16.873032
:NTO001: CHARGE SPHERE  1    =    55.626296

:NEC01: NUCLEAR AND ELECTRONIC CHARGE    118.00000   117.99699
     
       CHARGES OF OLD CHARGE DENSITY
:OTO   : INTERSTITIAL CHARGE =     6.957090
:OPC   : PW Pseudocharge     =    16.947746
:OTO001: CHARGE SPHERE  1    =    55.521455

:NEC02: NUCLEAR AND ELECTRONIC CHARGE    118.00000   118.00000
     
       CONVERGENCE TEST
:DTO001: DIFFERENCE IN SPHERE  1 =  0.1802078

:DIS  :  CHARGE DISTANCE       ( 0.1802078 for atom    1 spin 1)      0.1802078
 PW Mixed is          491
 
******************************************************
* MULTISECANT MIXING VER9 RELEASE 10.4.0              *
* Standard Mode with controls                        *
* Fixed density scale                                *
* Regularization       1.000E-04                     *
* Trust Upper Limit    5.000E+00                     *
* Max Number of Memory Steps    8                    *
******************************************************
 
:PWTMP   3.6775E+02  1.9467E+02  4.6968E+02
:PLANE:  PW TOTAL      4.6971 DISTAN   3.05E-02  6.49E-01 %
:CHARG:  CLM/ATOM   1381.9488 DISTAN   2.82E-01  2.04E-02 %
 
Step History
        DMIX         DMIXT        Red     Pred      Trust     Lambda    MagRel    MagAbs     Beta
  1   3.5000E-02   3.5000E-02 -1.00E+00  1.00E+00 -1.00E+01  1.00E+00  3.50E-02  3.50E-02  1.00E+00
:INFO :  Note, Pratt in use
:TRUST:  Step 3.75E-02  Charge 7.50E-02 (e) CTO  2.50E-01 (e) PW  3.50E-01 (e)
:DIRM :  MEMORY  0/ 8 SCALE   1.000
Performing Pseudo Compensation
Final Pseudo Compensation Rescaling     1.00000E+00
:MIX  :   PRATT  REGULARIZATION:  1.00E-04 GREED: 0.02500                  
     
       CHARGES OF MIXED CHARGE DENSITY
:CTO   : INTERSTITIAL CHARGE =     6.951848
:CPC   : PW Pseudocharge     =    16.932784
:CTO001: CHARGE SPHERE  1    =    55.524076

:NEC03: NUCLEAR AND ELECTRONIC CHARGE    118.00000   118.00000

PW CHANGE     H    K    L      Current       Change    Residue
:PTO001:      0    0    0  5.08525618E-02 -4.302E-05 -5.895E-04
:PTO003:      0    2    0  1.40882990E-02 -8.990E-06  4.083E-05
:PTO004:     -1    1    0  6.92735354E-02 -5.343E-05 -1.464E-04
:PTO005:      0    2   -1 -8.05410664E-02  5.613E-05 -7.557E-05
:PTO006:      0    0   -2 -4.16967946E-02  3.094E-05  3.331E-05
:PTO007:     -1    1   -1 -8.73212612E-02  6.202E-05 -8.587E-06
:PTO008:      0    2   -2 -1.42852186E-02  9.948E-06  3.292E-05
:PTO009:     -1    1   -2 -7.37105470E-02  4.202E-05 -1.350E-05
:PTO011:     -1    3    0 -1.20670817E-02  6.975E-06  8.111E-05
:PTO012:     -1    3   -1 -5.41755868E-02  1.545E-05 -3.166E-05
:PTO013:      0    4    0 -9.93343424E-03  8.863E-07 -2.129E-05
:PTO014:      0    2   -3  2.28081712E-02 -3.196E-06 -7.995E-06

:ENE  : ********** TOTAL ENERGY IN Ry =       -36944.23232495

       TOTAL FORCE IN mRy/a.u. = |F|     Fx             Fy             Fz     with/without FOR in case.in2
:FOR001:   1.ATOM         27.724          0.000          0.000        -27.724 partial forces
       TOTAL FORCE WITH RESPECT TO GLOBAL CARTESIAN COORDINATES:
:FCA001:   1.ATOM                         0.000        -27.724          0.000 partial forces
       TOTAL FORCE WITH RESPECT TO THE GLOBAL COORDINATE SYSTEM:
:FGL001:   1.ATOM                 0.000000000   -27.724476019     0.000000000 partial forces
 Flat Integration
 New Mode for Coulomb Integral
 Consistent 3/8+Simpson combinations
 Extension of core to zero
 LDM version in phi
 Fifth-order quadrature in outwin


            ---------
:ITE016: 16. ITERATION
            ---------

:NATO :    1 INDEPENDENT AND    2 TOTAL ATOMS IN UNITCELL
       SUBSTANCE: aU                                                          

       LATTICE                      = CXY 
:POT  : POTENTIAL OPTION EX_LDA EC_LDA VX_LDA VC_LDA
:LAT  : LATTICE CONSTANTS=  6.41698 13.02167 11.24187    1.571    1.571    1.571
:VOL  : UNIT CELL VOLUME =     469.68395
       MODE OF CALCULATION IS       = RELA
       NON-SPINPOLARIZED CALCULATION
:IFFT  : FFT-parameters:   54  100   90 Factor: 2.00


   CONVERGENCE PARAMETER FOR PSEUDOCHARGE: NCON=  9
   MAXIMAL VALUE OF RMT(JATOM)*ABSK(NKK) : RK  =27.59878


:VKCOUL :  VK-COUL convergence: 0.133E-06
       ATOMNUMBER=  1 Pr1        VCOUL-ZERO =  0.83523E-01
:EFG001:                        EFG         =    -8.04152   *10**21  V / m**2
                               V20  TOT/SRF=    -6.96416    -0.02742
                               V22  TOT/SRF=    -0.16299    -0.00013
                               V22M TOT/SRF=     0.00000     0.00000
                               V21  TOT/SRF=     0.00000     0.00000
                               V21M TOT/SRF=     0.00000     0.00000

              3.85777    0.00000    0.00000        3.85777    0.00000    0.00000
              0.00000    4.18376    0.00000        0.00000    4.18376    0.00000
              0.00000    0.00000   -8.04152        0.00000    0.00000   -8.04152

         MAIN DIRECTIONS OF THE EFG   1.0000  0.0000  0.0000
                                      0.0000  1.0000  0.0000
                                      0.0000  0.0000  1.0000
:ANG001:  ANGLE WITH OLD X-AXIS =         0.0

:ETA001:                         ASYMM. ETA =     0.04054


     HELLMANN-FEYNMAN-FORCE IN mRy/a.u. = |F|  Fx       Fy             Fz
:FHF001:   1.ATOM   1385.796949499886      0.000000000000      0.000000000000  -1385.796949499886

:FIT001: LUSE= 13 SIGMA OF V-XC FIT FOR ATOM  1  0.5712541E-04
:FIT001: LUSE= 13 SIGMA OF V-XC FIT FOR ATOM  1  0.5712541E-04
:DEN  : DENSITY INTEGRAL  =        -14150.31126295   (Ry)
       ELS_POTENTIAL_AT Z=0 and Z=0.5:   0.72657   0.72657
       ELS_POTENTIAL_AT Y=0 and Y=0.5:   0.07062   0.07062
:VZERO:v0,v0c,v0x   0.14609   0.72657  -0.58047 v5,v5c,v5x   0.14609   0.72657  -0.58047
:VZERY:v0,v0c,v0x  -0.70660   0.07062  -0.77722 v5,v5c,v5x  -0.70660   0.07062  -0.77722
:VZERX:v0,v0c,v0x  -1.12063  -0.37687  -0.74376 v5,v5c,v5x  -1.12063  -0.37687  -0.74376
:LMAX-WF:   10   Non-Spherical LMAX:   4

          ATOMIC SPHERE DEPENDENT PARAMETERS FOR ATOM  Pr1       
:e__0001: OVERALL ENERGY PARAMETER IS    0.4363
          OVERALL BASIS SET ON ATOM IS LAPW
:E0_0001: E( 0)=    0.4363
             APW+lo
:E0_0001: E( 0)=   -2.0247   E(BOTTOM)=   -2.660   E(TOP)=   -1.389  4  5   183
             LOCAL ORBITAL
:E1_0001: E( 1)=    0.8363
             APW+lo
:E1_0001: E( 1)=   -0.5549   E(BOTTOM)=   -1.513   E(TOP)=    0.403  3  4   198
             LOCAL ORBITAL
:E3_0001: E( 3)=    0.6284   E(BOTTOM)=    0.421   E(TOP)=    0.836  0  1   122
             APW+lo
:E2_0001: E( 2)=    0.4363   E(BOTTOM)=    0.228   E(TOP)= -200.000  2 -1    95
             APW+lo

       K=   0.06250   0.00000   0.06250            1
:RKM  : MATRIX SIZE   441LOs:  40  RKM= 8.49  WEIGHT= 4.00  PGR:    
       EIGENVALUES ARE:
:EIG00001:      -1.9971418   -1.9820484   -0.7253283   -0.6464091   -0.6284131
:EIG00006:      -0.6212753   -0.6138702   -0.6137576    0.4083568    0.5426664
:EIG00011:       0.6363082    0.6377958    0.6380360    0.6405089    0.6448349
:EIG00016:       0.6560541    0.6595155    0.6599742    0.6629864    0.6656314
:EIG00021:       0.6696850    0.6731300    0.6737407    0.6793283    0.7107318
:EIG00026:       0.7253447    0.8048190    0.8182314    0.8468727    0.8776064
:EIG00031:       0.8942342    0.9834681    1.0279420    1.0738371    1.3749272
:EIG00036:       1.3754800    1.4624333    1.4666928    1.6274427    1.6813202
:EIG00041:       1.7517065    1.8527124    1.9327888    1.9492209    2.0531551
:EIG00046:       2.1009063    2.1151975    2.1855606    2.2364249    2.3344708
 
:EIG00051:       2.3833265    2.4377740    2.4561351    2.5331831    2.5645811
:EIG00056:       2.6388223    2.6679172    2.7059632    2.7926287    2.8549248
:EIG00061:       2.9211461    2.9316418    3.0717829    3.1357965    3.1551188
:EIG00066:       3.2557358    3.3142715    3.3451931    3.3582392    3.4112898
:EIG00071:       3.4196708    3.4693658    3.5004354    3.5651232    3.5813993
:EIG00076:       3.6226163    3.6495608    3.6932639    3.7191207    3.7487667
:EIG00081:       3.7689964    3.8112816    3.8269698    3.9108683    3.9191114
:EIG00086:       3.9478313    4.0424892    4.0531171    4.0867058    4.0994253
:EIG00091:       4.1333680    4.1710780    4.1961661    4.2161456    4.2288095
:EIG00096:       4.2717122    4.3120774    4.3236833    4.3363011    4.4140199
 
:EIG00101:       4.4923125    4.6139023    4.6290747    4.6974633    4.7266436
:EIG00106:       4.7267942    4.7828255    4.8026608    4.8370434    4.8681319
:EIG00111:       4.9532926    4.9956284    4.9997451    5.0574865    5.1133730
:EIG00116:       5.1506464    5.2059668    5.2179290    5.2605735    5.2971928
:EIG00121:       5.3086002    5.3806247    5.4379534    5.4509182    5.5044821
:EIG00126:       5.5919677    5.6283552    5.6494608    5.6843083    5.7288650
:EIG00131:       5.7392017    5.8067450    5.8236799    5.8314771    5.8595293
:EIG00136:       5.9421049    5.9665192    6.0245987    6.0282435    6.0622943
:EIG00141:       6.0839736    6.1056447    6.1477216    6.1720762    6.2379261
:EIG00146:       6.2407326    6.2495254    6.2790271    6.2900754    6.3661402
 
:EIG00151:       6.4154841    6.4265250    6.5053892    6.5224520    6.6006811
:EIG00156:       6.6834796    6.7766014    6.7886421    6.8176527    6.8787955
:EIG00161:       6.9492902    6.9624358    7.0092887    7.0356189    7.0455782
:EIG00166:       7.1083854    7.1152379    7.1226050    7.1757005    7.2376986
:EIG00171:       7.2497875    7.2993207    7.3364885    7.3469196    7.4082742
:EIG00176:       7.4227223    7.4520084    7.4763879    7.5237349    7.5516826
:EIG00181:       7.5940386    7.6052201    7.6158034    7.6512734    7.6880624
:EIG00186:       7.6981352    7.7640157    7.8458490    7.8589434    7.8704825
:EIG00191:       7.8906495    7.9179128    7.9726768    7.9841034    7.9873243
:EIG00196:       8.0080338    8.0197418    8.0787197    8.0796187    8.1239636
 
:EIG00201:       8.1361279
       ********************************************************

:KPT   :      NUMBER OF K-POINTS:   288
   0.0   0.0 angle (M,z), angle (M,x) deg
 
        SPIN-ORBIT EIGENVALUES:
     K=   0.06250   0.00000   0.06250            1
      MATRIX SIZE=  402   WEIGHT= 4.00
     EIGENVALUES ARE:
          -1.9971419   -1.9971419   -1.9820485   -1.9820485   -0.8120249
          -0.8120248   -0.7694535   -0.7694535   -0.6252025   -0.6252025
          -0.5593675   -0.5593675   -0.5563607   -0.5563607   -0.5472705
          -0.5472705    0.4083967    0.4083967    0.5425400    0.5425400
           0.6303348    0.6303348    0.6324431    0.6324431    0.6332344
           0.6332344    0.6352792    0.6352792    0.6389914    0.6389914
           0.6435724    0.6435724    0.6584159    0.6584160    0.6655663
           0.6655663    0.6696906    0.6696906    0.6705038    0.6705039

           0.6748744    0.6748744    0.6783666    0.6783666    0.6791522
           0.6791522    0.6844395    0.6844395    0.7116541    0.7116541
           0.7253697    0.7253697    0.8034469    0.8034469    0.8190620
           0.8190620    0.8472163    0.8472165    0.8780742    0.8780742
           0.8943060    0.8943060    0.9833073    0.9833074    1.0282242
           1.0282242    1.0739600    1.0739601    1.3737241    1.3737241
           1.3769022    1.3769022    1.4623406    1.4623406    1.4668088
           1.4668088    1.6270584    1.6270584    1.6807762    1.6807762

           1.7516453    1.7516453    1.8512898    1.8512898    1.9311537
           1.9311537    1.9504047    1.9504047    2.0535742    2.0535742
           2.1006798    2.1006798    2.1135041    2.1135041    2.1857356
           2.1857356    2.2372377    2.2372377    2.3341450    2.3341450
           2.3828193    2.3828193    2.4351593    2.4351593    2.4578830
           2.4578830    2.5334393    2.5334393    2.5659683    2.5659683
           2.6388526    2.6388526    2.6674373    2.6674373    2.7067467
           2.7067467    2.7929196    2.7929196    2.8546966    2.8546966

           2.9207531    2.9207531    2.9360338    2.9360338    3.0716719
           3.0716719    3.1358207    3.1358207    3.1553247    3.1553247
           3.2557136    3.2557136    3.3142587    3.3142587    3.3454628
           3.3454628    3.3578763    3.3578763    3.4113982    3.4113982
           3.4198962    3.4198962    3.4693520    3.4693520    3.5004982
           3.5004982    3.5643119    3.5643119    3.5823525    3.5823525
           3.6228385    3.6228385    3.6511506    3.6511506    3.6933463
           3.6933463    3.7193053    3.7193053    3.7491228    3.7491228

           3.7691253    3.7691253    3.8113054    3.8113054    3.8272945
           3.8272945    3.9108646    3.9108646    3.9193275    3.9193275
           3.9479420    3.9479420    4.0424756    4.0424756    4.0532565
           4.0532565    4.0867212    4.0867212    4.0994917    4.0994917
           4.1333964    4.1333964    4.1711275    4.1711275    4.1961758
           4.1961758    4.2160300    4.2160300    4.2287587    4.2287587
           4.2717607    4.2717607    4.3118638    4.3118638    4.3239052
           4.3239052    4.3364841    4.3364841    4.4140905    4.4140905

           4.4921931    4.4921931
       ********************************************************
:GAP (global)   :    0.0    Ry =     0.0   eV (metal)
:GAP (this spin):    0.0    Ry =     0.0   eV (metal)
         Bandranges (emin - emax) and occupancy:
:BAN00018:  18    0.403220    0.609385  1.00000000
:BAN00019:  19    0.512101    0.618957  1.00000000
:BAN00020:  20    0.512101    0.618957  1.00000000
:BAN00021:  21    0.574126    0.633800  1.00000000
:BAN00022:  22    0.574126    0.633800  1.00000000
:BAN00023:  23    0.614818    0.636375  1.00000000
:BAN00024:  24    0.614818    0.636375  1.00000000
:BAN00025:  25    0.624407    0.643069  0.79243997
:BAN00026:  26    0.624407    0.643069  0.79243975
:BAN00027:  27    0.634073    0.644047  0.20756023
:BAN00028:  28    0.634073    0.644047  0.20756004
:BAN00029:  29    0.638055    0.647643  0.00000000
:BAN00030:  30    0.638055    0.647643  0.00000000
:BAN00031:  31    0.641453    0.652759  0.00000000
:BAN00032:  32    0.641453    0.652759  0.00000000
:BAN00033:  33    0.645852    0.658815  0.00000000
        Energy to separate low and high energystates:    0.35322


:NOE  : NUMBER OF ELECTRONS          =   26.000

:FER  : F E R M I - ENERGY(TETRAH.M.)=   0.6371672727
:GMA  : POTENTIAL AND CHARGE CUT-OFF  12.00 Ry**.5

:POS001: ATOM   -1 X,Y,Z = 0.00000 0.89750 0.25000  MULT= 2  ZZ= 59.000  Pr1       

       LMMAX 16
       LM=   0 0  1 0  2 0  2 2  3 0  3 2  4 0  4 2  4 4  5 0  5 2  5 4  6 0  6 2  6 4  6 6

:CHA001: TOTAL VALENCE CHARGE INSIDE SPHERE   1 =   9.5850    (RMT=  2.3000 )
:PCS001: PARTIAL CHARGES SPHERE =  1 S,P,D,F,PX,PY,PZ,D-Z2,D-X2Y2,D-XY,D-XZ,D-YZ 
:QTL001: 1.9405 5.0100 0.5036 2.1306 1.6673 1.6670 1.6757 0.0929 0.0904 0.1119 0.0978 0.1107
        Q-s-low E-s-low   Q-p-low E-p-low   Q-d-low E-d-low   Q-f-low E-f-low
:EPL001:  1.8693 -1.9821    4.9457 -0.6660    0.0019 -0.6608    0.0005 -0.6719
        Q-s-hi  E-s-hi    Q-p-hi  E-p-hi    Q-d-hi  E-d-hi    Q-f-hi  E-f-hi 
:EPH001:  0.0712  0.5411    0.0644  0.5778    0.5017  0.5886    2.1301  0.6245

                      VXX         VYY         VZZ       UP TO R
:VZZ001:             3.88212     3.16153    -7.04365       2.300

:CHA  : TOTAL VALENCE CHARGE INSIDE UNIT CELL =      26.000000

:SUM  : SUM OF EIGENVALUES =          -9.924191198


        1.ATOM      Pr1                  14 CORE STATES
       CORE-FORCE in mRy/a.u. = |F|      Fx             Fy             Fz
:FCO001:   1.ATOM   1358.172996943795      0.000000000000      0.000000000000   1358.172996943795

:1S 001: 1S               -3066.960503396 Ry
:2S 001: 2S                -492.712955968 Ry
:2PP001: 2P*               -465.812177779 Ry
:2P 001: 2P                -430.414654565 Ry
:3S 001: 3S                -105.802153699 Ry
:3PP001: 3P*                -94.340054818 Ry
:3P 001: 3P                 -87.332146467 Ry
:3DD001: 3D*                -67.259322314 Ry
:3D 001: 3D                 -65.747737658 Ry
:4S 001: 4S                 -20.477645364 Ry
:4PP001: 4P*                -16.184377614 Ry
:4P 001: 4P                 -14.656872160 Ry
:4DD001: 4D*                 -7.589648042 Ry
:4D 001: 4D                  -7.320209749 Ry
:CINT001 Core Integral Atom   1   45.998492

       DENSITY AT NUCLEUS
        JATOM        VALENCE       SEMI-CORE          CORE           TOTAL
:RTO001:   1      647.995967        0.000000   656825.027868   657473.023834
     
       CHARGES OF NEW CHARGE DENSITY
:NTO   : INTERSTITIAL CHARGE =     6.829997
:NPC   : PW Pseudocharge     =    16.896040
:NTO001: CHARGE SPHERE  1    =    55.583493

:NEC01: NUCLEAR AND ELECTRONIC CHARGE    118.00000   117.99698
     
       CHARGES OF OLD CHARGE DENSITY
:OTO   : INTERSTITIAL CHARGE =     6.951848
:OPC   : PW Pseudocharge     =    16.932784
:OTO001: CHARGE SPHERE  1    =    55.524076

:NEC02: NUCLEAR AND ELECTRONIC CHARGE    118.00000   118.00000
     
       CONVERGENCE TEST
:DTO001: DIFFERENCE IN SPHERE  1 =  0.1053803

:DIS  :  CHARGE DISTANCE       ( 0.1053803 for atom    1 spin 1)      0.1053803
 PW Mixed is          491
 
******************************************************
* MULTISECANT MIXING VER9 RELEASE 10.4.0              *
* Slow Mode, cautious                                *
* Fixed density scale                                *
* Regularization       1.000E-04                     *
* Step Trust Radius    0.75000                       *
* Trust Upper Limit    2.000E+00                     *
* Max Number of Memory Steps   12                    *
******************************************************
 
:PWTMP   3.6775E+02  1.9467E+02  4.6968E+02
:PLANE:  PW TOTAL      4.6939 DISTAN   1.70E-02  3.62E-01 %
:CHARG:  CLM/ATOM   1381.9491 DISTAN   1.85E-01  1.34E-02 %
 
Step History
        DMIX         DMIXT        Red     Pred      Trust     Lambda    MagRel    MagAbs     Beta
  1   3.5000E-02   3.5000E-02 -1.00E+00  1.00E+00 -1.00E+01  1.00E+00  3.50E-02  3.50E-02  1.00E+00
  2   2.5000E-02   2.5000E-02 -1.00E+00  1.00E+00 -1.00E+01  1.00E+00  2.50E-02  7.09E-03  1.00E+00
:JACOBIANS    1.821E-03   3.032E-02
  
:TRUST:  Step 2.90E-02  Charge 7.50E-02 (e) CTO  2.50E-01 (e) PW  3.50E-01 (e)
:DIRM :  MEMORY  1/12 SCALE   1.000
:MIX  :   PRATT  REGULARIZATION:  1.00E-04 GREED: 0.02896  Expand 1.16  0.0290                
     
       CHARGES OF MIXED CHARGE DENSITY
:CTO   : INTERSTITIAL CHARGE =     6.944201
:CPC   : PW Pseudocharge     =    16.910956
:CTO001: CHARGE SPHERE  1    =    55.527900

:NEC03: NUCLEAR AND ELECTRONIC CHARGE    118.00000   118.00000

PW CHANGE     H    K    L      Current       Change    Residue
:PTO001:      0    0    0  5.07898067E-02 -6.276E-05 -3.153E-04
:PTO003:      0    2    0  1.40751845E-02 -1.311E-05  3.196E-05
:PTO004:     -1    1    0  6.91955940E-02 -7.794E-05 -6.485E-05
:PTO005:      0    2   -1 -8.04591767E-02  8.189E-05 -1.076E-04
:PTO006:      0    0   -2 -4.16516537E-02  4.514E-05 -3.392E-06
:PTO007:     -1    1   -1 -8.72307913E-02  9.047E-05 -3.859E-05
:PTO008:      0    2   -2 -1.42707058E-02  1.451E-05  1.944E-05
:PTO009:     -1    1   -2 -7.36492395E-02  6.131E-05 -3.529E-05
:PTO011:     -1    3    0 -1.20569060E-02  1.018E-05  5.766E-05
:PTO012:     -1    3   -1 -5.41530418E-02  2.254E-05 -2.867E-05
:PTO013:      0    4    0 -9.93214127E-03  1.293E-06 -1.096E-05
:PTO014:      0    2   -3  2.28035090E-02 -4.662E-06 -5.612E-06

:ENE  : ********** TOTAL ENERGY IN Ry =       -36944.23144597

       TOTAL FORCE IN mRy/a.u. = |F|     Fx             Fy             Fz     with/without FOR in case.in2
:FOR001:   1.ATOM         27.624          0.000          0.000        -27.624 partial forces
       TOTAL FORCE WITH RESPECT TO GLOBAL CARTESIAN COORDINATES:
:FCA001:   1.ATOM                         0.000        -27.624          0.000 partial forces
       TOTAL FORCE WITH RESPECT TO THE GLOBAL COORDINATE SYSTEM:
:FGL001:   1.ATOM                 0.000000000   -27.623952556     0.000000000 partial forces
 Flat Integration
 New Mode for Coulomb Integral
 Consistent 3/8+Simpson combinations
 Extension of core to zero
 LDM version in phi
 Fifth-order quadrature in outwin


            ---------
:ITE017: 17. ITERATION
            ---------

:NATO :    1 INDEPENDENT AND    2 TOTAL ATOMS IN UNITCELL
       SUBSTANCE: aU                                                          

       LATTICE                      = CXY 
:POT  : POTENTIAL OPTION EX_LDA EC_LDA VX_LDA VC_LDA
:LAT  : LATTICE CONSTANTS=  6.41698 13.02167 11.24187    1.571    1.571    1.571
:VOL  : UNIT CELL VOLUME =     469.68395
       MODE OF CALCULATION IS       = RELA
       NON-SPINPOLARIZED CALCULATION
:IFFT  : FFT-parameters:   54  100   90 Factor: 2.00


   CONVERGENCE PARAMETER FOR PSEUDOCHARGE: NCON=  9
   MAXIMAL VALUE OF RMT(JATOM)*ABSK(NKK) : RK  =27.59878


:VKCOUL :  VK-COUL convergence: 0.132E-06
       ATOMNUMBER=  1 Pr1        VCOUL-ZERO =  0.83378E-01
:EFG001:                        EFG         =    -7.98214   *10**21  V / m**2
                               V20  TOT/SRF=    -6.91274    -0.02712
                               V22  TOT/SRF=    -0.14166     0.00004
                               V22M TOT/SRF=     0.00000     0.00000
                               V21  TOT/SRF=     0.00000     0.00000
                               V21M TOT/SRF=     0.00000     0.00000

              3.84941    0.00000    0.00000        3.84941    0.00000    0.00000
              0.00000    4.13274    0.00000        0.00000    4.13274    0.00000
              0.00000    0.00000   -7.98214        0.00000    0.00000   -7.98214

         MAIN DIRECTIONS OF THE EFG   1.0000  0.0000  0.0000
                                      0.0000  1.0000  0.0000
                                      0.0000  0.0000  1.0000
:ANG001:  ANGLE WITH OLD X-AXIS =         0.0

:ETA001:                         ASYMM. ETA =     0.03550


     HELLMANN-FEYNMAN-FORCE IN mRy/a.u. = |F|  Fx       Fy             Fz
:FHF001:   1.ATOM   1385.101967420227      0.000000000000      0.000000000000  -1385.101967420227

:FIT001: LUSE= 13 SIGMA OF V-XC FIT FOR ATOM  1  0.5661694E-04
:FIT001: LUSE= 13 SIGMA OF V-XC FIT FOR ATOM  1  0.5661694E-04
:DEN  : DENSITY INTEGRAL  =        -14151.07915453   (Ry)
       ELS_POTENTIAL_AT Z=0 and Z=0.5:   0.72559   0.72559
       ELS_POTENTIAL_AT Y=0 and Y=0.5:   0.07054   0.07054
:VZERO:v0,v0c,v0x   0.14535   0.72559  -0.58024 v5,v5c,v5x   0.14535   0.72559  -0.58024
:VZERY:v0,v0c,v0x  -0.70638   0.07054  -0.77692 v5,v5c,v5x  -0.70638   0.07054  -0.77692
:VZERX:v0,v0c,v0x  -1.11982  -0.37634  -0.74347 v5,v5c,v5x  -1.11982  -0.37634  -0.74347
:LMAX-WF:   10   Non-Spherical LMAX:   4

          ATOMIC SPHERE DEPENDENT PARAMETERS FOR ATOM  Pr1       
:e__0001: OVERALL ENERGY PARAMETER IS    0.4369
          OVERALL BASIS SET ON ATOM IS LAPW
:E0_0001: E( 0)=    0.4369
             APW+lo
:E0_0001: E( 0)=   -2.0222   E(BOTTOM)=   -2.658   E(TOP)=   -1.386  4  5   173
             LOCAL ORBITAL
:E1_0001: E( 1)=    0.8369
             APW+lo
:E1_0001: E( 1)=   -0.5527   E(BOTTOM)=   -1.511   E(TOP)=    0.406  3  4   199
             LOCAL ORBITAL
:E3_0001: E( 3)=    0.6331   E(BOTTOM)=    0.425   E(TOP)=    0.842  0  1   126
             APW+lo
:E2_0001: E( 2)=    0.4369   E(BOTTOM)=    0.229   E(TOP)= -200.000  2 -1    93
             APW+lo

       K=   0.06250   0.00000   0.06250            1
:RKM  : MATRIX SIZE   441LOs:  40  RKM= 8.49  WEIGHT= 4.00  PGR:    
       EIGENVALUES ARE:
:EIG00001:      -1.9948169   -1.9796745   -0.7238643   -0.6447637   -0.6267199
:EIG00006:      -0.6194160   -0.6119888   -0.6119765    0.4080921    0.5426211
:EIG00011:       0.6400800    0.6418923    0.6420980    0.6445326    0.6487693
:EIG00016:       0.6605617    0.6640339    0.6645295    0.6675493    0.6700083
:EIG00021:       0.6743181    0.6776080    0.6781043    0.6838974    0.7123685
:EIG00026:       0.7262979    0.8055674    0.8186532    0.8472659    0.8780496
:EIG00031:       0.8947654    0.9840342    1.0286703    1.0746127    1.3750460
:EIG00036:       1.3760124    1.4624217    1.4668690    1.6273671    1.6812204
:EIG00041:       1.7517667    1.8527643    1.9328960    1.9493699    2.0534540
:EIG00046:       2.1010027    2.1150638    2.1856649    2.2363974    2.3346433
 
:EIG00051:       2.3834163    2.4378485    2.4561660    2.5333591    2.5648777
:EIG00056:       2.6388133    2.6677652    2.7065092    2.7926997    2.8551481
:EIG00061:       2.9210070    2.9319712    3.0719670    3.1354556    3.1550116
:EIG00066:       3.2557473    3.3140441    3.3453678    3.3584480    3.4109065
:EIG00071:       3.4194327    3.4691735    3.5003006    3.5650545    3.5812348
:EIG00076:       3.6226617    3.6493113    3.6931159    3.7189128    3.7487134
:EIG00081:       3.7687368    3.8109064    3.8267155    3.9108785    3.9188496
:EIG00086:       3.9473918    4.0419709    4.0528166    4.0863967    4.0992665
:EIG00091:       4.1329827    4.1708542    4.1957428    4.2160947    4.2288124
:EIG00096:       4.2713260    4.3116904    4.3233705    4.3360102    4.4136025
 
:EIG00101:       4.4921452    4.6135597    4.6289458    4.6972396    4.7262148
:EIG00106:       4.7264111    4.7824486    4.8023834    4.8367755    4.8677114
:EIG00111:       4.9528154    4.9951272    4.9997822    5.0574165    5.1130643
:EIG00116:       5.1505727    5.2055156    5.2177361    5.2604709    5.2971990
:EIG00121:       5.3085742    5.3802542    5.4378277    5.4505174    5.5043078
:EIG00126:       5.5916620    5.6282776    5.6492449    5.6840325    5.7285617
:EIG00131:       5.7390610    5.8064402    5.8233834    5.8311864    5.8593317
:EIG00136:       5.9417836    5.9661656    6.0242065    6.0278383    6.0620225
:EIG00141:       6.0837384    6.1055739    6.1474102    6.1715993    6.2374695
:EIG00146:       6.2403465    6.2491436    6.2790768    6.2897632    6.3656932
 
:EIG00151:       6.4150003    6.4262971    6.5049066    6.5222564    6.6004949
:EIG00156:       6.6831506    6.7762793    6.7882597    6.8172360    6.8785856
:EIG00161:       6.9488774    6.9623610    7.0089570    7.0354858    7.0453809
:EIG00166:       7.1080868    7.1149009    7.1223034    7.1753638    7.2374354
:EIG00171:       7.2496001    7.2990629    7.3362813    7.3466944    7.4080522
:EIG00176:       7.4224859    7.4520532    7.4761263    7.5235782    7.5514486
:EIG00181:       7.5937064    7.6049598    7.6153581    7.6511496    7.6876936
:EIG00186:       7.6977381    7.7639469    7.8455460    7.8586695    7.8703490
:EIG00191:       7.8902730    7.9175106    7.9722626    7.9836935    7.9869510
:EIG00196:       8.0077295    8.0193129    8.0783842    8.0791860    8.1236577
 
:EIG00201:       8.1359019
       ********************************************************

:KPT   :      NUMBER OF K-POINTS:   288
   0.0   0.0 angle (M,z), angle (M,x) deg
 
        SPIN-ORBIT EIGENVALUES:
     K=   0.06250   0.00000   0.06250            1
      MATRIX SIZE=  402   WEIGHT= 4.00
     EIGENVALUES ARE:
          -1.9948170   -1.9948170   -1.9796746   -1.9796746   -0.8102956
          -0.8102955   -0.7675498   -0.7675498   -0.6236751   -0.6236751
          -0.5576393   -0.5576393   -0.5546594   -0.5546594   -0.5455302
          -0.5455302    0.4081322    0.4081322    0.5424991    0.5424991
           0.6343213    0.6343213    0.6366366    0.6366366    0.6374253
           0.6374253    0.6394506    0.6394506    0.6431884    0.6431884
           0.6481603    0.6481603    0.6623418    0.6623418    0.6699628
           0.6699628    0.6741590    0.6741590    0.6749208    0.6749208

           0.6792015    0.6792015    0.6826533    0.6826533    0.6836084
           0.6836084    0.6889837    0.6889837    0.7134675    0.7134675
           0.7264074    0.7264074    0.8042338    0.8042338    0.8194840
           0.8194841    0.8476119    0.8476120    0.8785167    0.8785168
           0.8948374    0.8948374    0.9838747    0.9838748    1.0289508
           1.0289508    1.0747345    1.0747345    1.3740183    1.3740183
           1.3772591    1.3772591    1.4623330    1.4623330    1.4669818
           1.4669818    1.6269841    1.6269841    1.6806766    1.6806766

           1.7517057    1.7517057    1.8513453    1.8513453    1.9312657
           1.9312657    1.9505453    1.9505453    2.0538710    2.0538710
           2.1007727    2.1007727    2.1133822    2.1133822    2.1858318
           2.1858318    2.2372173    2.2372173    2.3343179    2.3343179
           2.3829064    2.3829064    2.4352283    2.4352283    2.4579202
           2.4579202    2.5336059    2.5336059    2.5662616    2.5662616
           2.6388489    2.6388489    2.6672933    2.6672933    2.7072799
           2.7072799    2.7929945    2.7929945    2.8549233    2.8549233

           2.9206280    2.9206280    2.9363448    2.9363448    3.0718552
           3.0718552    3.1354802    3.1354802    3.1552175    3.1552175
           3.2557258    3.2557258    3.3140337    3.3140337    3.3456345
           3.3456345    3.3580809    3.3580809    3.4110168    3.4110168
           3.4196579    3.4196579    3.4691592    3.4691592    3.5003635
           3.5003635    3.5642371    3.5642371    3.5821955    3.5821955
           3.6228832    3.6228832    3.6509014    3.6509014    3.6931984
           3.6931984    3.7191000    3.7191000    3.7490674    3.7490674

           3.7688653    3.7688653    3.8109304    3.8109304    3.8270412
           3.8270412    3.9108675    3.9108675    3.9190727    3.9190727
           3.9475027    3.9475027    4.0419574    4.0419574    4.0529561
           4.0529561    4.0864122    4.0864122    4.0993330    4.0993330
           4.1330113    4.1330113    4.1709040    4.1709040    4.1957534
           4.1957534    4.2159777    4.2159777    4.2287603    4.2287603
           4.2713748    4.2713748    4.3114806    4.3114806    4.3235876
           4.3235876    4.3361965    4.3361965    4.4136733    4.4136733

           4.4920254    4.4920254
       ********************************************************
:GAP (global)   :    0.0    Ry =     0.0   eV (metal)
:GAP (this spin):    0.0    Ry =     0.0   eV (metal)
         Bandranges (emin - emax) and occupancy:
:BAN00018:  18    0.402951    0.611406  1.00000000
:BAN00019:  19    0.511949    0.621151  1.00000000
:BAN00020:  20    0.511949    0.621151  1.00000000
:BAN00021:  21    0.574405    0.637292  1.00000000
:BAN00022:  22    0.574405    0.637292  1.00000000
:BAN00023:  23    0.616577    0.640298  1.00000000
:BAN00024:  24    0.616577    0.640298  1.00000000
:BAN00025:  25    0.627520    0.647573  0.78900971
:BAN00026:  26    0.627520    0.647573  0.78900949
:BAN00027:  27    0.637986    0.648608  0.21099050
:BAN00028:  28    0.637986    0.648608  0.21099029
:BAN00029:  29    0.642300    0.651323  0.00000000
:BAN00030:  30    0.642300    0.651323  0.00000000
:BAN00031:  31    0.645885    0.656305  0.00000000
:BAN00032:  32    0.645885    0.656305  0.00000000
:BAN00033:  33    0.650296    0.662738  0.00000000
        Energy to separate low and high energystates:    0.35295


:NOE  : NUMBER OF ELECTRONS          =   26.000

:FER  : F E R M I - ENERGY(TETRAH.M.)=   0.6412722928
:GMA  : POTENTIAL AND CHARGE CUT-OFF  12.00 Ry**.5

:POS001: ATOM   -1 X,Y,Z = 0.00000 0.89750 0.25000  MULT= 2  ZZ= 59.000  Pr1       

       LMMAX 16
       LM=   0 0  1 0  2 0  2 2  3 0  3 2  4 0  4 2  4 4  5 0  5 2  5 4  6 0  6 2  6 4  6 6

:CHA001: TOTAL VALENCE CHARGE INSIDE SPHERE   1 =   9.5239    (RMT=  2.3000 )
:PCS001: PARTIAL CHARGES SPHERE =  1 S,P,D,F,PX,PY,PZ,D-Z2,D-X2Y2,D-XY,D-XZ,D-YZ 
:QTL001: 1.9409 5.0107 0.5232 2.0488 1.6673 1.6672 1.6762 0.0972 0.0948 0.1145 0.1018 0.1150
        Q-s-low E-s-low   Q-p-low E-p-low   Q-d-low E-d-low   Q-f-low E-f-low
:EPL001:  1.8691 -1.9797    4.9435 -0.6643    0.0019 -0.6591    0.0005 -0.6703
        Q-s-hi  E-s-hi    Q-p-hi  E-p-hi    Q-d-hi  E-d-hi    Q-f-hi  E-f-hi 
:EPH001:  0.0719  0.5419    0.0672  0.5802    0.5214  0.5909    2.0482  0.6281

                      VXX         VYY         VZZ       UP TO R
:VZZ001:             4.28945     3.63139    -7.92084       2.300

:CHA  : TOTAL VALENCE CHARGE INSIDE UNIT CELL =      26.000000

:SUM  : SUM OF EIGENVALUES =          -9.875566006


        1.ATOM      Pr1                  14 CORE STATES
       CORE-FORCE in mRy/a.u. = |F|      Fx             Fy             Fz
:FCO001:   1.ATOM   1357.624640900432      0.000000000000      0.000000000000   1357.624640900432

:1S 001: 1S               -3066.951653442 Ry
:2S 001: 2S                -492.704086015 Ry
:2PP001: 2P*               -465.803312172 Ry
:2P 001: 2P                -430.405787573 Ry
:3S 001: 3S                -105.793480338 Ry
:3PP001: 3P*                -94.331362699 Ry
:3P 001: 3P                 -87.323489331 Ry
:3DD001: 3D*                -67.250601654 Ry
:3D 001: 3D                 -65.739025594 Ry
:4S 001: 4S                 -20.470827873 Ry
:4PP001: 4P*                -16.177677079 Ry
:4P 001: 4P                 -14.650352529 Ry
:4DD001: 4D*                 -7.583450158 Ry
:4D 001: 4D                  -7.314073736 Ry
:CINT001 Core Integral Atom   1   45.998487

       DENSITY AT NUCLEUS
        JATOM        VALENCE       SEMI-CORE          CORE           TOTAL
:RTO001:   1      647.953065        0.000000   656824.644934   657472.597999
     
       CHARGES OF NEW CHARGE DENSITY
:NTO   : INTERSTITIAL CHARGE =     6.952204
:NPC   : PW Pseudocharge     =    16.928958
:NTO001: CHARGE SPHERE  1    =    55.522385

:NEC01: NUCLEAR AND ELECTRONIC CHARGE    118.00000   117.99697
     
       CHARGES OF OLD CHARGE DENSITY
:OTO   : INTERSTITIAL CHARGE =     6.944201
:OPC   : PW Pseudocharge     =    16.910956
:OTO001: CHARGE SPHERE  1    =    55.527900

:NEC02: NUCLEAR AND ELECTRONIC CHARGE    118.00000   118.00000
     
       CONVERGENCE TEST
:DTO001: DIFFERENCE IN SPHERE  1 =  0.0105028

:DIS  :  CHARGE DISTANCE       ( 0.0105028 for atom    1 spin 1)      0.0105028
 PW Mixed is          491
 
******************************************************
* MULTISECANT MIXING VER9 RELEASE 10.4.0              *
* Slow Mode, cautious                                *
* Fixed density scale                                *
* Regularization       1.000E-04                     *
* Step Trust Radius    0.75000                       *
* Trust Upper Limit    2.000E+00                     *
* Max Number of Memory Steps   12                    *
******************************************************
 
:PWTMP   3.6775E+02  1.9467E+02  4.6968E+02
:PLANE:  PW TOTAL      4.6893 DISTAN   8.80E-03  1.88E-01 %
:CHARG:  CLM/ATOM   1381.9497 DISTAN   9.69E-02  7.01E-03 %
 
Step History
        DMIX         DMIXT        Red     Pred      Trust     Lambda    MagRel    MagAbs     Beta
  1   3.5000E-02   3.5000E-02 -1.00E+00  1.00E+00 -1.00E+01  1.00E+00  3.50E-02  3.50E-02  1.00E+00
  2   2.5000E-02   2.5000E-02  6.53E-01  1.00E+00 -1.00E+01  1.00E+00  2.50E-02  7.09E-03  1.00E+00
  3   2.8956E-02   2.8956E-02 -1.00E+00  1.00E+00 -1.00E+01  1.00E+00  2.90E-02  5.37E-03  1.00E+00
:JACOBIANS    2.796E-03   4.584E-02
  
:NORMS:  1/Froebius, Min, Max, Used   0.7704E-01  0.3014E-01  0.7704E-01  0.7704E-01
:INFO :  Number of Memory Steps    2 Skipping    0
:INFO :  SLambda=    1.3103388725  Max    1.3103388725
:PREDicted Charge, CTotal, PW Trust    4.032E-03   8.064E-03   1.288E-02
:PREDicted DMix, Beta, BLim   4.0722E-02  7.4162E-01  2.8055E-01

Eigenvalues, unscaled except for SY+YY
   #     SY Real        SY Imag          SS             YY         SY+YY Real      SY+YY Imag
   1   1.665335E-16   0.000000E+00   1.187074E-02   1.999966E+00   3.342837E-05   0.000000E+00
   2   1.303519E-01   0.000000E+00   0.000000E+00   3.362685E-05   2.170772E+00   0.000000E+00
 
:INFO :  Singular value  2.171E+00 Weight  1.000E+00 Projection -3.642E-03
:INFO :  Singular value  3.343E-05 Weight  2.718E-02 Projection  1.137E-01
:RANK :  ACTIVE   1.03/2  =  51.36 % ; YY RANK   1.03/2  =  51.37 %
 
:DLIM :  Beta Active  8.062E-01
:BLIM :  VZERO Control Off
:TRUST:  Step 3.33E-01  Charge 7.50E-02 (e) CTO  2.50E-01 (e) PW  3.50E-01 (e)
:DIRM :  MEMORY  2/12 SCALE   1.000 RED  0.52 PRED  1.00 NEXT  1.00 BETA  0.81
:TRAVE:  Charge 1.81E-04 (e) CTO  3.61E-04 (e) PW  3.34E-04 (e)
:DIRP :  |MSR1|= 2.176E-04 |PRATT|= 8.796E-03 ANGLE=  20.1 DEGREES
:DIRQ :  |MSR1|= 3.478E-03 |PRATT|= 9.687E-02 ANGLE=   0.8 DEGREES
:DIRT :  |MSR1|= 3.485E-03 |PRATT|= 9.727E-02 ANGLE=   2.3 DEGREES
:MIX  :   MSE1   REGULARIZATION:  2.00E-04 GREED: 0.03510  Newton 1.00  0.0358                
     
       CHARGES OF MIXED CHARGE DENSITY
:CTO   : INTERSTITIAL CHARGE =     6.944562
:CPC   : PW Pseudocharge     =    16.911400
:CTO001: CHARGE SPHERE  1    =    55.527719

:NEC03: NUCLEAR AND ELECTRONIC CHARGE    118.00000   118.00000

PW CHANGE     H    K    L      Current       Change    Residue
:PTO001:      0    0    0  5.07915206E-02  1.714E-06  7.750E-05
:PTO003:      0    2    0  1.40755822E-02  3.977E-07  2.069E-05
:PTO004:     -1    1    0  6.91956861E-02  9.209E-08  4.998E-05
:PTO005:      0    2   -1 -8.04628150E-02 -3.638E-06 -1.570E-04
:PTO006:      0    0   -2 -4.16526481E-02 -9.944E-07 -5.657E-05
:PTO007:     -1    1   -1 -8.72317802E-02 -9.889E-07 -8.775E-05
:PTO008:      0    2   -2 -1.42703575E-02  3.483E-07  1.148E-06
:PTO009:     -1    1   -2 -7.36501645E-02 -9.250E-07 -6.573E-05
:PTO011:     -1    3    0 -1.20558424E-02  1.064E-06  2.481E-05
:PTO012:     -1    3   -1 -5.41533338E-02 -2.920E-07 -2.314E-05
:PTO013:      0    4    0 -9.93199086E-03  1.504E-07  2.743E-06
:PTO014:      0    2   -3  2.28033193E-02 -1.897E-07 -2.487E-06

:ENE  : ********** TOTAL ENERGY IN Ry =       -36944.23096093

       TOTAL FORCE IN mRy/a.u. = |F|     Fx             Fy             Fz     with/without FOR in case.in2
:FOR001:   1.ATOM         27.477          0.000          0.000        -27.477 partial forces
       TOTAL FORCE WITH RESPECT TO GLOBAL CARTESIAN COORDINATES:
:FCA001:   1.ATOM                         0.000        -27.477          0.000 partial forces
       TOTAL FORCE WITH RESPECT TO THE GLOBAL COORDINATE SYSTEM:
:FGL001:   1.ATOM                 0.000000000   -27.477326520     0.000000000 partial forces
 Flat Integration
 New Mode for Coulomb Integral
 Consistent 3/8+Simpson combinations
 Extension of core to zero
 LDM version in phi
 Fifth-order quadrature in outwin


            ---------
:ITE018: 18. ITERATION
            ---------

:NATO :    1 INDEPENDENT AND    2 TOTAL ATOMS IN UNITCELL
       SUBSTANCE: aU                                                          

       LATTICE                      = CXY 
:POT  : POTENTIAL OPTION EX_LDA EC_LDA VX_LDA VC_LDA
:LAT  : LATTICE CONSTANTS=  6.41698 13.02167 11.24187    1.571    1.571    1.571
:VOL  : UNIT CELL VOLUME =     469.68395
       MODE OF CALCULATION IS       = RELA
       NON-SPINPOLARIZED CALCULATION
:IFFT  : FFT-parameters:   54  100   90 Factor: 2.00


   CONVERGENCE PARAMETER FOR PSEUDOCHARGE: NCON=  9
   MAXIMAL VALUE OF RMT(JATOM)*ABSK(NKK) : RK  =27.59878


:VKCOUL :  VK-COUL convergence: 0.131E-06
       ATOMNUMBER=  1 Pr1        VCOUL-ZERO =  0.83376E-01
:EFG001:                        EFG         =    -7.98078   *10**21  V / m**2
                               V20  TOT/SRF=    -6.91156    -0.02708
                               V22  TOT/SRF=    -0.12486     0.00014
                               V22M TOT/SRF=     0.00000     0.00000
                               V21  TOT/SRF=     0.00000     0.00000
                               V21M TOT/SRF=     0.00000     0.00000

              3.86553    0.00000    0.00000        3.86553    0.00000    0.00000
              0.00000    4.11525    0.00000        0.00000    4.11525    0.00000
              0.00000    0.00000   -7.98078        0.00000    0.00000   -7.98078

         MAIN DIRECTIONS OF THE EFG   1.0000  0.0000  0.0000
                                      0.0000  1.0000  0.0000
                                      0.0000  0.0000  1.0000
:ANG001:  ANGLE WITH OLD X-AXIS =         0.0

:ETA001:                         ASYMM. ETA =     0.03129


     HELLMANN-FEYNMAN-FORCE IN mRy/a.u. = |F|  Fx       Fy             Fz
:FHF001:   1.ATOM   1384.487836427838      0.000000000000      0.000000000000  -1384.487836427838

:FIT001: LUSE= 13 SIGMA OF V-XC FIT FOR ATOM  1  0.5623356E-04
:FIT001: LUSE= 13 SIGMA OF V-XC FIT FOR ATOM  1  0.5623356E-04
:DEN  : DENSITY INTEGRAL  =        -14151.06116715   (Ry)
       ELS_POTENTIAL_AT Z=0 and Z=0.5:   0.72562   0.72562
       ELS_POTENTIAL_AT Y=0 and Y=0.5:   0.07054   0.07054
:VZERO:v0,v0c,v0x   0.14537   0.72562  -0.58025 v5,v5c,v5x   0.14537   0.72562  -0.58025
:VZERY:v0,v0c,v0x  -0.70639   0.07054  -0.77693 v5,v5c,v5x  -0.70639   0.07054  -0.77693
:VZERX:v0,v0c,v0x  -1.11985  -0.37636  -0.74349 v5,v5c,v5x  -1.11985  -0.37636  -0.74349
:LMAX-WF:   10   Non-Spherical LMAX:   4

          ATOMIC SPHERE DEPENDENT PARAMETERS FOR ATOM  Pr1       
:e__0001: OVERALL ENERGY PARAMETER IS    0.4398
          OVERALL BASIS SET ON ATOM IS LAPW
:E0_0001: E( 0)=    0.4398
             APW+lo
:E0_0001: E( 0)=   -2.0223   E(BOTTOM)=   -2.658   E(TOP)=   -1.386  4  5   178
             LOCAL ORBITAL
:E1_0001: E( 1)=    0.8398
             APW+lo
:E1_0001: E( 1)=   -0.5527   E(BOTTOM)=   -1.511   E(TOP)=    0.406  3  4   196
             LOCAL ORBITAL
:E3_0001: E( 3)=    0.6330   E(BOTTOM)=    0.425   E(TOP)=    0.841  0  1   118
             APW+lo
:E2_0001: E( 2)=    0.4398   E(BOTTOM)=    0.229   E(TOP)= -200.000  2 -1    91
             APW+lo

       K=   0.06250   0.00000   0.06250            1
:RKM  : MATRIX SIZE   441LOs:  40  RKM= 8.49  WEIGHT= 4.00  PGR:    
       EIGENVALUES ARE:
:EIG00001:      -1.9948626   -1.9797206   -0.7239216   -0.6447990   -0.6267555
:EIG00006:      -0.6194257   -0.6120407   -0.6119981    0.4081037    0.5426188
:EIG00011:       0.6400464    0.6417879    0.6420492    0.6444854    0.6486797
:EIG00016:       0.6604997    0.6639601    0.6644558    0.6674721    0.6699178
:EIG00021:       0.6742460    0.6775748    0.6780656    0.6837840    0.7123520
:EIG00026:       0.7263036    0.8055456    0.8186389    0.8472496    0.8780474
:EIG00031:       0.8947628    0.9840234    1.0286533    1.0745817    1.3750595
:EIG00036:       1.3759973    1.4624200    1.4668794    1.6273831    1.6812292
:EIG00041:       1.7517628    1.8527656    1.9328974    1.9493669    2.0534269
:EIG00046:       2.1009975    2.1150670    2.1856626    2.2363917    2.3346271
 
:EIG00051:       2.3834035    2.4378296    2.4561538    2.5333341    2.5648557
:EIG00056:       2.6388099    2.6677554    2.7064589    2.7926909    2.8551354
:EIG00061:       2.9209798    2.9319365    3.0719323    3.1354417    3.1549858
:EIG00066:       3.2557172    3.3140152    3.3453619    3.3584308    3.4109061
:EIG00071:       3.4194249    3.4691619    3.5002894    3.5650490    3.5812348
:EIG00076:       3.6226261    3.6493162    3.6930833    3.7189152    3.7486965
:EIG00081:       3.7687314    3.8109002    3.8267149    3.9108628    3.9188398
:EIG00086:       3.9473863    4.0419769    4.0528167    4.0863946    4.0992207
:EIG00091:       4.1329745    4.1708288    4.1957411    4.2160462    4.2287702
:EIG00096:       4.2713213    4.3116828    4.3233505    4.3359883    4.4135933
 
:EIG00101:       4.4921089    4.6135270    4.6289096    4.6972057    4.7261970
:EIG00106:       4.7263901    4.7824268    4.8023714    4.8367385    4.8676983
:EIG00111:       4.9528045    4.9951284    4.9997039    5.0573593    5.1130497
:EIG00116:       5.1505019    5.2054992    5.2176752    5.2603893    5.2970759
:EIG00121:       5.3084780    5.3802178    5.4377106    5.4504921    5.5042471
:EIG00126:       5.5916092    5.6281922    5.6491989    5.6839831    5.7285384
:EIG00131:       5.7389706    5.8064186    5.8233203    5.8311471    5.8592515
:EIG00136:       5.9417245    5.9661299    6.0241836    6.0278029    6.0619473
:EIG00141:       6.0836776    6.1054172    6.1473779    6.1715708    6.2374343
:EIG00146:       6.2403010    6.2490911    6.2788517    6.2896863    6.3656659
 
:EIG00151:       6.4149784    6.4261874    6.5048766    6.5221738    6.6004111
:EIG00156:       6.6831113    6.7762355    6.7882072    6.8171798    6.8784997
:EIG00161:       6.9488272    6.9622915    7.0089073    7.0353891    7.0452821
:EIG00166:       7.1079928    7.1148449    7.1222295    7.1752926    7.2372933
:EIG00171:       7.2494643    7.2989455    7.3361388    7.3465775    7.4079175
:EIG00176:       7.4223514    7.4519130    7.4760371    7.5234271    7.5513575
:EIG00181:       7.5936076    7.6048710    7.6152999    7.6509843    7.6876340
:EIG00186:       7.6976822    7.7637910    7.8454525    7.8585552    7.8702472
:EIG00191:       7.8901768    7.9174223    7.9722145    7.9836421    7.9868684
:EIG00196:       8.0076259    8.0192565    8.0783173    8.0791152    8.1235301
 
:EIG00201:       8.1357283
       ********************************************************

:KPT   :      NUMBER OF K-POINTS:   288
   0.0   0.0 angle (M,z), angle (M,x) deg
 
        SPIN-ORBIT EIGENVALUES:
     K=   0.06250   0.00000   0.06250            1
      MATRIX SIZE=  402   WEIGHT= 4.00
     EIGENVALUES ARE:
          -1.9948627   -1.9948627   -1.9797207   -1.9797207   -0.8103412
          -0.8103412   -0.7675887   -0.7675887   -0.6237143   -0.6237143
          -0.5576591   -0.5576591   -0.5546845   -0.5546845   -0.5455745
          -0.5455745    0.4081437    0.4081437    0.5424967    0.5424967
           0.6342731    0.6342731    0.6365501    0.6365501    0.6373773
           0.6373773    0.6393835    0.6393835    0.6431068    0.6431068
           0.6480878    0.6480878    0.6622699    0.6622699    0.6699019
           0.6699019    0.6740898    0.6740898    0.6748401    0.6748401

           0.6791385    0.6791385    0.6826082    0.6826082    0.6835545
           0.6835545    0.6888786    0.6888786    0.7134483    0.7134483
           0.7264118    0.7264118    0.8042104    0.8042104    0.8194703
           0.8194703    0.8475954    0.8475956    0.8785145    0.8785146
           0.8948347    0.8948347    0.9838636    0.9838637    1.0289339
           1.0289339    1.0747036    1.0747036    1.3740206    1.3740206
           1.3772552    1.3772552    1.4623317    1.4623317    1.4669918
           1.4669918    1.6270001    1.6270001    1.6806853    1.6806853

           1.7517019    1.7517019    1.8513464    1.8513464    1.9312664
           1.9312664    1.9505427    1.9505427    2.0538443    2.0538443
           2.1007675    2.1007675    2.1133847    2.1133847    2.1858296
           2.1858296    2.2372109    2.2372109    2.3343015    2.3343015
           2.3828941    2.3828941    2.4352103    2.4352103    2.4579069
           2.4579069    2.5335810    2.5335810    2.5662399    2.5662399
           2.6388451    2.6388451    2.6672828    2.6672828    2.7072301
           2.7072301    2.7929857    2.7929857    2.8549096    2.8549096

           2.9206005    2.9206005    2.9363114    2.9363114    3.0718204
           3.0718204    3.1354663    3.1354663    3.1551920    3.1551920
           3.2556956    3.2556956    3.3140050    3.3140050    3.3456284
           3.3456284    3.3580637    3.3580637    3.4110164    3.4110164
           3.4196502    3.4196502    3.4691475    3.4691475    3.5003523
           3.5003523    3.5642317    3.5642317    3.5821950    3.5821950
           3.6228477    3.6228477    3.6509064    3.6509064    3.6931659
           3.6931659    3.7191022    3.7191022    3.7490508    3.7490508

           3.7688599    3.7688599    3.8109242    3.8109242    3.8270406
           3.8270406    3.9108519    3.9108519    3.9190628    3.9190628
           3.9474972    3.9474972    4.0419635    4.0419635    4.0529562
           4.0529562    4.0864100    4.0864100    4.0992873    4.0992873
           4.1330031    4.1330031    4.1708786    4.1708786    4.1957516
           4.1957516    4.2159295    4.2159295    4.2287181    4.2287181
           4.2713701    4.2713701    4.3114725    4.3114725    4.3235680
           4.3235680    4.3361743    4.3361743    4.4136641    4.4136641

           4.4919889    4.4919889
       ********************************************************
:GAP (global)   :    0.0    Ry =     0.0   eV (metal)
:GAP (this spin):    0.0    Ry =     0.0   eV (metal)
         Bandranges (emin - emax) and occupancy:
:BAN00018:  18    0.402963    0.611376  1.00000000
:BAN00019:  19    0.511955    0.621114  1.00000000
:BAN00020:  20    0.511955    0.621114  1.00000000
:BAN00021:  21    0.574405    0.637228  1.00000000
:BAN00022:  22    0.574405    0.637228  1.00000000
:BAN00023:  23    0.616544    0.640240  1.00000000
:BAN00024:  24    0.616544    0.640240  1.00000000
:BAN00025:  25    0.627492    0.647492  0.78887122
:BAN00026:  26    0.627492    0.647492  0.78887092
:BAN00027:  27    0.637915    0.648540  0.21112908
:BAN00028:  28    0.637915    0.648540  0.21112878
:BAN00029:  29    0.642221    0.651265  0.00000000
:BAN00030:  30    0.642221    0.651265  0.00000000
:BAN00031:  31    0.645810    0.656274  0.00000000
:BAN00032:  32    0.645810    0.656274  0.00000000
:BAN00033:  33    0.650235    0.662665  0.00000000
        Energy to separate low and high energystates:    0.35296


:NOE  : NUMBER OF ELECTRONS          =   26.000

:FER  : F E R M I - ENERGY(TETRAH.M.)=   0.6412005922
:GMA  : POTENTIAL AND CHARGE CUT-OFF  12.00 Ry**.5

:POS001: ATOM   -1 X,Y,Z = 0.00000 0.89750 0.25000  MULT= 2  ZZ= 59.000  Pr1       

       LMMAX 16
       LM=   0 0  1 0  2 0  2 2  3 0  3 2  4 0  4 2  4 4  5 0  5 2  5 4  6 0  6 2  6 4  6 6

:CHA001: TOTAL VALENCE CHARGE INSIDE SPHERE   1 =   9.5249    (RMT=  2.3000 )
:PCS001: PARTIAL CHARGES SPHERE =  1 S,P,D,F,PX,PY,PZ,D-Z2,D-X2Y2,D-XY,D-XZ,D-YZ 
:QTL001: 1.9409 5.0107 0.5229 2.0501 1.6673 1.6671 1.6762 0.0971 0.0947 0.1144 0.1017 0.1150
        Q-s-low E-s-low   Q-p-low E-p-low   Q-d-low E-d-low   Q-f-low E-f-low
:EPL001:  1.8691 -1.9798    4.9435 -0.6643    0.0019 -0.6592    0.0005 -0.6703
        Q-s-hi  E-s-hi    Q-p-hi  E-p-hi    Q-d-hi  E-d-hi    Q-f-hi  E-f-hi 
:EPH001:  0.0719  0.5419    0.0671  0.5802    0.5211  0.5908    2.0496  0.6280

                      VXX         VYY         VZZ       UP TO R
:VZZ001:             4.14713     3.75965    -7.90678       2.300

:CHA  : TOTAL VALENCE CHARGE INSIDE UNIT CELL =      26.000000

:SUM  : SUM OF EIGENVALUES =          -9.876450613


        1.ATOM      Pr1                  14 CORE STATES
       CORE-FORCE in mRy/a.u. = |F|      Fx             Fy             Fz
:FCO001:   1.ATOM   1356.890800917075      0.000000000000      0.000000000000   1356.890800917075

:1S 001: 1S               -3066.951988130 Ry
:2S 001: 2S                -492.704374356 Ry
:2PP001: 2P*               -465.803610781 Ry
:2P 001: 2P                -430.406082335 Ry
:3S 001: 3S                -105.793678452 Ry
:3PP001: 3P*                -94.331565766 Ry
:3P 001: 3P                 -87.323687369 Ry
:3DD001: 3D*                -67.250812937 Ry
:3D 001: 3D                 -65.739235115 Ry
:4S 001: 4S                 -20.470937462 Ry
:4PP001: 4P*                -16.177784974 Ry
:4P 001: 4P                 -14.650456426 Ry
:4DD001: 4D*                 -7.583549485 Ry
:4D 001: 4D                  -7.314171859 Ry
:CINT001 Core Integral Atom   1   45.998487

       DENSITY AT NUCLEUS
        JATOM        VALENCE       SEMI-CORE          CORE           TOTAL
:RTO001:   1      647.952460        0.000000   656824.670722   657472.623182
     
       CHARGES OF NEW CHARGE DENSITY
:NTO   : INTERSTITIAL CHARGE =     6.950110
:NPC   : PW Pseudocharge     =    16.928477
:NTO001: CHARGE SPHERE  1    =    55.523432

:NEC01: NUCLEAR AND ELECTRONIC CHARGE    118.00000   117.99697
     
       CHARGES OF OLD CHARGE DENSITY
:OTO   : INTERSTITIAL CHARGE =     6.944562
:OPC   : PW Pseudocharge     =    16.911400
:OTO001: CHARGE SPHERE  1    =    55.527719

:NEC02: NUCLEAR AND ELECTRONIC CHARGE    118.00000   118.00000
     
       CONVERGENCE TEST
:DTO001: DIFFERENCE IN SPHERE  1 =  0.0097746

:DIS  :  CHARGE DISTANCE       ( 0.0097746 for atom    1 spin 1)      0.0097746
 PW Mixed is          491
 
******************************************************
* MULTISECANT MIXING VER9 RELEASE 10.4.0              *
* Standard Mode with controls                        *
* Fixed density scale                                *
* Regularization       1.000E-04                     *
* Trust Upper Limit    5.000E+00                     *
* Max Number of Memory Steps    8                    *
******************************************************
 
:PWTMP   3.6775E+02  1.9467E+02  4.6968E+02
:PLANE:  PW TOTAL      4.6894 DISTAN   8.49E-03  1.81E-01 %
:CHARG:  CLM/ATOM   1381.9494 DISTAN   9.23E-02  6.68E-03 %
 
Step History
        DMIX         DMIXT        Red     Pred      Trust     Lambda    MagRel    MagAbs     Beta
  1   3.5000E-02   3.5000E-02 -1.00E+00  1.00E+00 -1.00E+01  1.00E+00  3.50E-02  3.50E-02  1.00E+00
  2   2.5000E-02   2.5000E-02  6.53E-01  1.00E+00 -1.00E+01  1.00E+00  2.50E-02  7.09E-03  1.00E+00
  3   2.8956E-02   2.8956E-02  5.25E-01  1.00E+00 -1.00E+01  1.31E+00  2.90E-02  5.37E-03  1.00E+00
  4   3.5100E-02   3.5100E-02 -1.00E+00  9.98E-01  3.33E-01  1.00E+00  3.58E-02  3.48E-03  8.06E-01
:JACOBIANS    3.666E-03   2.116E-01
  
:NORMS:  1/Froebius, Min, Max, Used   0.2721E+00  0.1321E+00  0.3323E+00  0.3179E+00
:INFO :  Number of Memory Steps    3 Skipping    0
:INFO :  SLambda=    1.2833510572  Max    1.2833510572
:PREDicted Charge, CTotal, PW Trust    1.529E-03   3.058E-03   1.877E-03
:PREDicted DMix, Beta, BLim   3.1425E-01  6.3437E+00  3.6598E-01

Eigenvalues, unscaled except for SY+YY
   #     SY Real        SY Imag          SS             YY         SY+YY Real      SY+YY Imag
   1   1.165734E-15   0.000000E+00   2.114666E-01   2.092863E+00   2.710841E-05   0.000000E+00
   2   1.316539E-01   0.000000E+00   1.070643E-02   9.071099E-01   2.261861E+00   0.000000E+00
   3   2.881134E-01   0.000000E+00  -6.331090E-19   2.671925E-05   1.276820E+00   0.000000E+00
 
:INFO :  Singular value  2.262E+00 Weight  1.000E+00 Projection  6.919E-03
:INFO :  Singular value  1.277E+00 Weight  1.000E+00 Projection -8.446E-02
:INFO :  Singular value  2.711E-05 Weight  1.650E-02 Projection  5.560E-02
:RANK :  ACTIVE   2.02/3  =  67.22 % ; YY RANK   2.02/3  =  67.20 %
 
:BLIM :  VZERO Control Off
:TRUST:  Step 4.17E-01  Charge 7.50E-02 (e) CTO  2.50E-01 (e) PW  3.50E-01 (e)
:DTRUS:  Lambda    4.042E-02 Increment    3.638E-12 Iterations    95 DMIX    8.678E-02
:INFOA:  Angle SubSpace to MSR1      0.74
:DIRM :  MEMORY  3/8  SCALE   1.000 RED  0.95 PRED  1.00 NEXT  0.81 
:INFO :  Limited by Atoms F by Step T

:TRAVE:  Charge 7.71E-04 (e) CTO  1.54E-03 (e) PW  1.34E-03 (e)
:DIRP :  |MSR1|= 2.154E-03 |PRATT|= 8.485E-03 ANGLE=  33.0 DEGREES
:DIRQ :  |MSR1|= 3.854E-02 |PRATT|= 9.226E-02 ANGLE=   5.4 DEGREES
:DIRT :  |MSR1|= 3.860E-02 |PRATT|= 9.265E-02 ANGLE=   6.2 DEGREES
:MIX  :   MSE1   REGULARIZATION:  2.09E-04 GREED: 0.08775  LMStep 0.90  0.4167 Step           
     
       CHARGES OF MIXED CHARGE DENSITY
:CTO   : INTERSTITIAL CHARGE =     6.947283
:CPC   : PW Pseudocharge     =    16.914326
:CTO001: CHARGE SPHERE  1    =    55.526359

:NEC03: NUCLEAR AND ELECTRONIC CHARGE    118.00000   118.00000

PW CHANGE     H    K    L      Current       Change    Residue
:PTO001:      0    0    0  5.08035426E-02  1.202E-05  7.031E-05
:PTO003:      0    2    0  1.40806033E-02  5.021E-06  2.224E-05
:PTO004:     -1    1    0  6.91945507E-02 -1.135E-06  5.424E-05
:PTO005:      0    2   -1 -8.04946758E-02 -3.186E-05 -1.521E-04
:PTO006:      0    0   -2 -4.16573189E-02 -4.671E-06 -5.316E-05
:PTO007:     -1    1   -1 -8.72370496E-02 -5.269E-06 -8.942E-05
:PTO008:      0    2   -2 -1.42645886E-02  5.769E-06  1.334E-06
:PTO009:     -1    1   -2 -7.36539242E-02 -3.760E-06 -6.419E-05
:PTO011:     -1    3    0 -1.20419525E-02  1.389E-05  2.498E-05
:PTO012:     -1    3   -1 -5.41564243E-02 -3.090E-06 -2.501E-05
:PTO013:      0    4    0 -9.92992871E-03  2.062E-06  2.682E-06
:PTO014:      0    2   -3  2.27984058E-02 -4.914E-06 -4.544E-06

:ENE  : ********** TOTAL ENERGY IN Ry =       -36944.23096955

       TOTAL FORCE IN mRy/a.u. = |F|     Fx             Fy             Fz     with/without FOR in case.in2
:FOR001:   1.ATOM         27.597          0.000          0.000        -27.597 partial forces
       TOTAL FORCE WITH RESPECT TO GLOBAL CARTESIAN COORDINATES:
:FCA001:   1.ATOM                         0.000        -27.597          0.000 partial forces
       TOTAL FORCE WITH RESPECT TO THE GLOBAL COORDINATE SYSTEM:
:FGL001:   1.ATOM                 0.000000000   -27.597035511     0.000000000 partial forces
 Flat Integration
 New Mode for Coulomb Integral
 Consistent 3/8+Simpson combinations
 Extension of core to zero
 LDM version in phi
 Fifth-order quadrature in outwin


            ---------
:ITE019: 19. ITERATION
            ---------

:NATO :    1 INDEPENDENT AND    2 TOTAL ATOMS IN UNITCELL
       SUBSTANCE: aU                                                          

       LATTICE                      = CXY 
:POT  : POTENTIAL OPTION EX_LDA EC_LDA VX_LDA VC_LDA
:LAT  : LATTICE CONSTANTS=  6.41698 13.02167 11.24187    1.571    1.571    1.571
:VOL  : UNIT CELL VOLUME =     469.68395
       MODE OF CALCULATION IS       = RELA
       NON-SPINPOLARIZED CALCULATION
:IFFT  : FFT-parameters:   54  100   90 Factor: 2.00


   CONVERGENCE PARAMETER FOR PSEUDOCHARGE: NCON=  9
   MAXIMAL VALUE OF RMT(JATOM)*ABSK(NKK) : RK  =27.59878


:VKCOUL :  VK-COUL convergence: 0.124E-06
       ATOMNUMBER=  1 Pr1        VCOUL-ZERO =  0.83374E-01
:EFG001:                        EFG         =    -7.95642   *10**21  V / m**2
                               V20  TOT/SRF=    -6.89047    -0.02658
                               V22  TOT/SRF=    -0.07415     0.00061
                               V22M TOT/SRF=     0.00000     0.00000
                               V21  TOT/SRF=     0.00000     0.00000
                               V21M TOT/SRF=     0.00000     0.00000

              3.90406    0.00000    0.00000        3.90406    0.00000    0.00000
              0.00000    4.05237    0.00000        0.00000    4.05237    0.00000
              0.00000    0.00000   -7.95642        0.00000    0.00000   -7.95642

         MAIN DIRECTIONS OF THE EFG   1.0000  0.0000  0.0000
                                      0.0000  1.0000  0.0000
                                      0.0000  0.0000  1.0000
:ANG001:  ANGLE WITH OLD X-AXIS =         0.0

:ETA001:                         ASYMM. ETA =     0.01864


     HELLMANN-FEYNMAN-FORCE IN mRy/a.u. = |F|  Fx       Fy             Fz
:FHF001:   1.ATOM   1376.554212107445      0.000000000000      0.000000000000  -1376.554212107445

:FIT001: LUSE= 13 SIGMA OF V-XC FIT FOR ATOM  1  0.5205619E-04
:FIT001: LUSE= 13 SIGMA OF V-XC FIT FOR ATOM  1  0.5205619E-04
:DEN  : DENSITY INTEGRAL  =        -14150.99387484   (Ry)
       ELS_POTENTIAL_AT Z=0 and Z=0.5:   0.72588   0.72588
       ELS_POTENTIAL_AT Y=0 and Y=0.5:   0.07064   0.07064
:VZERO:v0,v0c,v0x   0.14551   0.72588  -0.58037 v5,v5c,v5x   0.14551   0.72588  -0.58037
:VZERY:v0,v0c,v0x  -0.70644   0.07064  -0.77708 v5,v5c,v5x  -0.70644   0.07064  -0.77708
:VZERX:v0,v0c,v0x  -1.12005  -0.37646  -0.74360 v5,v5c,v5x  -1.12005  -0.37646  -0.74360
:LMAX-WF:   10   Non-Spherical LMAX:   4

          ATOMIC SPHERE DEPENDENT PARAMETERS FOR ATOM  Pr1       
:e__0001: OVERALL ENERGY PARAMETER IS    0.4407
          OVERALL BASIS SET ON ATOM IS LAPW
:E0_0001: E( 0)=    0.4407
             APW+lo
:E0_0001: E( 0)=   -2.0224   E(BOTTOM)=   -2.659   E(TOP)=   -1.386  4  5   179
             LOCAL ORBITAL
:E1_0001: E( 1)=    0.8407
             APW+lo
:E1_0001: E( 1)=   -0.5528   E(BOTTOM)=   -1.511   E(TOP)=    0.406  3  4   196
             LOCAL ORBITAL
:E3_0001: E( 3)=    0.6330   E(BOTTOM)=    0.425   E(TOP)=    0.841  0  1   116
             APW+lo
:E2_0001: E( 2)=    0.4407   E(BOTTOM)=    0.229   E(TOP)= -200.000  2 -1    90
             APW+lo

       K=   0.06250   0.00000   0.06250            1
:RKM  : MATRIX SIZE   441LOs:  40  RKM= 8.49  WEIGHT= 4.00  PGR:    
       EIGENVALUES ARE:
:EIG00001:      -1.9949494   -1.9798076   -0.7240673   -0.6448665   -0.6268229
:EIG00006:      -0.6194234   -0.6122057   -0.6119950    0.4082147    0.5426435
:EIG00011:       0.6400932    0.6416454    0.6420745    0.6445276    0.6486180
:EIG00016:       0.6605163    0.6639263    0.6644273    0.6674314    0.6698541
:EIG00021:       0.6742461    0.6776932    0.6781423    0.6836520    0.7123917
:EIG00026:       0.7264144    0.8055464    0.8186295    0.8472502    0.8780714
:EIG00031:       0.8947817    0.9840661    1.0286616    1.0745179    1.3752084
:EIG00036:       1.3760116    1.4624925    1.4670011    1.6275579    1.6813779
:EIG00041:       1.7518112    1.8528588    1.9329997    1.9494538    2.0534615
:EIG00046:       2.1010796    2.1151963    2.1857474    2.2365097    2.3346926
 
:EIG00051:       2.3834324    2.4378426    2.4561894    2.5333777    2.5648912
:EIG00056:       2.6388623    2.6677889    2.7064698    2.7927594    2.8551644
:EIG00061:       2.9210277    2.9319477    3.0720023    3.1355056    3.1550406
:EIG00066:       3.2557697    3.3140555    3.3454520    3.3585251    3.4109874
:EIG00071:       3.4195101    3.4692372    3.5003768    3.5651195    3.5813515
:EIG00076:       3.6227045    3.6494625    3.6931497    3.7190157    3.7487736
:EIG00081:       3.7688251    3.8109952    3.8268050    3.9109468    3.9189104
:EIG00086:       3.9474832    4.0421148    4.0529282    4.0864922    4.0992848
:EIG00091:       4.1330624    4.1708805    4.1958298    4.2161011    4.2288713
:EIG00096:       4.2714300    4.3117396    4.3234099    4.3360659    4.4136728
 
:EIG00101:       4.4921463    4.6136095    4.6289472    4.6972725    4.7263019
:EIG00106:       4.7264851    4.7825188    4.8024487    4.8368061    4.8677770
:EIG00111:       4.9529017    4.9952438    4.9997466    5.0574238    5.1131391
:EIG00116:       5.1505432    5.2055733    5.2177285    5.2604297    5.2971065
:EIG00121:       5.3085171    5.3803065    5.4377757    5.4505764    5.5043018
:EIG00126:       5.5916837    5.6282649    5.6492200    5.6840204    5.7286122
:EIG00131:       5.7390349    5.8065013    5.8233719    5.8312196    5.8593117
:EIG00136:       5.9417958    5.9662320    6.0242577    6.0278755    6.0620112
:EIG00141:       6.0837222    6.1054226    6.1474434    6.1716550    6.2375158
:EIG00146:       6.2403992    6.2491468    6.2788201    6.2897390    6.3657366
 
:EIG00151:       6.4150701    6.4262322    6.5049667    6.5222512    6.6004670
:EIG00156:       6.6831768    6.7763110    6.7882710    6.8172179    6.8785638
:EIG00161:       6.9488821    6.9623273    7.0089837    7.0354231    7.0453419
:EIG00166:       7.1080369    7.1149076    7.1222862    7.1753520    7.2373433
:EIG00171:       7.2495163    7.2989888    7.3361396    7.3465979    7.4079149
:EIG00176:       7.4223564    7.4519501    7.4760686    7.5234491    7.5514152
:EIG00181:       7.5936628    7.6049246    7.6153891    7.6510087    7.6877037
:EIG00186:       7.6977442    7.7638084    7.8455176    7.8585934    7.8702986
:EIG00191:       7.8902423    7.9175019    7.9722812    7.9837260    7.9869478
:EIG00196:       8.0076860    8.0193189    8.0783819    8.0791886    8.1235758
 
:EIG00201:       8.1357764
       ********************************************************

:KPT   :      NUMBER OF K-POINTS:   288
   0.0   0.0 angle (M,z), angle (M,x) deg
 
        SPIN-ORBIT EIGENVALUES:
     K=   0.06250   0.00000   0.06250            1
      MATRIX SIZE=  402   WEIGHT= 4.00
     EIGENVALUES ARE:
          -1.9949495   -1.9949495   -1.9798077   -1.9798077   -0.8104440
          -0.8104440   -0.7676680   -0.7676680   -0.6238005   -0.6238005
          -0.5576862   -0.5576862   -0.5547258   -0.5547258   -0.5456781
          -0.5456781    0.4082547    0.4082547    0.5425213    0.5425213
           0.6342814    0.6342815    0.6364719    0.6364720    0.6374227
           0.6374227    0.6393717    0.6393717    0.6430638    0.6430638
           0.6480689    0.6480689    0.6622197    0.6622197    0.6699174
           0.6699174    0.6740856    0.6740856    0.6748009    0.6748009

           0.6791344    0.6791345    0.6826820    0.6826820    0.6835913
           0.6835913    0.6887744    0.6887744    0.7134868    0.7134868
           0.7265216    0.7265216    0.8042038    0.8042038    0.8194678
           0.8194678    0.8475950    0.8475951    0.8785385    0.8785386
           0.8948538    0.8948538    0.9839059    0.9839060    1.0289425
           1.0289425    1.0746401    1.0746401    1.3741152    1.3741152
           1.3773238    1.3773238    1.4624061    1.4624061    1.4671118
           1.4671118    1.6271748    1.6271748    1.6808338    1.6808338

           1.7517508    1.7517508    1.8514392    1.8514392    1.9313659
           1.9313659    1.9506314    1.9506314    2.0538793    2.0538793
           2.1008502    2.1008502    2.1135113    2.1135113    2.1859169
           2.1859169    2.2373269    2.2373269    2.3343659    2.3343659
           2.3829250    2.3829250    2.4352292    2.4352292    2.4579382
           2.4579382    2.5336250    2.5336250    2.5662749    2.5662749
           2.6388968    2.6388968    2.6673170    2.6673170    2.7072408
           2.7072408    2.7930546    2.7930546    2.8549379    2.8549379

           2.9206474    2.9206474    2.9363238    2.9363238    3.0718904
           3.0718904    3.1355302    3.1355302    3.1552469    3.1552469
           3.2557482    3.2557482    3.3140454    3.3140454    3.3457184
           3.3457184    3.3581577    3.3581577    3.4110975    3.4110975
           3.4197355    3.4197355    3.4692230    3.4692230    3.5004397
           3.5004397    3.5643043    3.5643043    3.5823089    3.5823089
           3.6229262    3.6229262    3.6510526    3.6510526    3.6932324
           3.6932324    3.7192026    3.7192026    3.7491282    3.7491282

           3.7689537    3.7689537    3.8110192    3.8110192    3.8271306
[...]
:FCA001:   1.ATOM                         0.000        -28.644          0.000 partial forces
       TOTAL FORCE WITH RESPECT TO THE GLOBAL COORDINATE SYSTEM:
:FGL001:   1.ATOM                 0.000000000   -28.643512330     0.000000000 partial forces
 Flat Integration
 New Mode for Coulomb Integral
 Consistent 3/8+Simpson combinations
 Extension of core to zero
 LDM version in phi
 Fifth-order quadrature in outwin


            ---------
:ITE025: 25. ITERATION
            ---------

:NATO :    1 INDEPENDENT AND    2 TOTAL ATOMS IN UNITCELL
       SUBSTANCE: aU                                                          

       LATTICE                      = CXY 
:POT  : POTENTIAL OPTION EX_LDA EC_LDA VX_LDA VC_LDA
:LAT  : LATTICE CONSTANTS=  6.41698 13.02167 11.24187    1.571    1.571    1.571
:VOL  : UNIT CELL VOLUME =     469.68395
       MODE OF CALCULATION IS       = RELA
       NON-SPINPOLARIZED CALCULATION
:IFFT  : FFT-parameters:   54  100   90 Factor: 2.00


   CONVERGENCE PARAMETER FOR PSEUDOCHARGE: NCON=  9
   MAXIMAL VALUE OF RMT(JATOM)*ABSK(NKK) : RK  =27.59878


:VKCOUL :  VK-COUL convergence: 0.114E-06
       ATOMNUMBER=  1 Pr1        VCOUL-ZERO =  0.83751E-01
:EFG001:                        EFG         =    -7.83251   *10**21  V / m**2
                               V20  TOT/SRF=    -6.78315    -0.02608
                               V22  TOT/SRF=    -0.07182     0.00061
                               V22M TOT/SRF=     0.00000     0.00000
                               V21  TOT/SRF=     0.00000     0.00000
                               V21M TOT/SRF=     0.00000     0.00000

              3.84443    0.00000    0.00000        3.84443    0.00000    0.00000
              0.00000    3.98808    0.00000        0.00000    3.98808    0.00000
              0.00000    0.00000   -7.83251        0.00000    0.00000   -7.83251

         MAIN DIRECTIONS OF THE EFG   1.0000  0.0000  0.0000
                                      0.0000  1.0000  0.0000
                                      0.0000  0.0000  1.0000
:ANG001:  ANGLE WITH OLD X-AXIS =         0.0

:ETA001:                         ASYMM. ETA =     0.01834


     HELLMANN-FEYNMAN-FORCE IN mRy/a.u. = |F|  Fx       Fy             Fz
:FHF001:   1.ATOM   1366.992638666781      0.000000000000      0.000000000000  -1366.992638666781

:FIT001: LUSE= 13 SIGMA OF V-XC FIT FOR ATOM  1  0.4675426E-04
:FIT001: LUSE= 13 SIGMA OF V-XC FIT FOR ATOM  1  0.4675426E-04
:DEN  : DENSITY INTEGRAL  =        -14150.99612731   (Ry)
       ELS_POTENTIAL_AT Z=0 and Z=0.5:   0.72653   0.72653
       ELS_POTENTIAL_AT Y=0 and Y=0.5:   0.07100   0.07100
:VZERO:v0,v0c,v0x   0.14603   0.72653  -0.58050 v5,v5c,v5x   0.14603   0.72653  -0.58050
:VZERY:v0,v0c,v0x  -0.70641   0.07100  -0.77741 v5,v5c,v5x  -0.70641   0.07100  -0.77741
:VZERX:v0,v0c,v0x  -1.12068  -0.37687  -0.74381 v5,v5c,v5x  -1.12068  -0.37687  -0.74381
:LMAX-WF:   10   Non-Spherical LMAX:   4

          ATOMIC SPHERE DEPENDENT PARAMETERS FOR ATOM  Pr1       
:e__0001: OVERALL ENERGY PARAMETER IS    0.4416
          OVERALL BASIS SET ON ATOM IS LAPW
:E0_0001: E( 0)=    0.4416
             APW+lo
:E0_0001: E( 0)=   -2.0221   E(BOTTOM)=   -2.658   E(TOP)=   -1.386  4  5   176
             LOCAL ORBITAL
:E1_0001: E( 1)=    0.8416
             APW+lo
:E1_0001: E( 1)=   -0.5525   E(BOTTOM)=   -1.511   E(TOP)=    0.406  3  4   198
             LOCAL ORBITAL
:E3_0001: E( 3)=    0.6334   E(BOTTOM)=    0.425   E(TOP)=    0.842  0  1   119
             APW+lo
:E2_0001: E( 2)=    0.4416   E(BOTTOM)=    0.230   E(TOP)= -200.000  2 -1    89
             APW+lo

       K=   0.06250   0.00000   0.06250            1
:RKM  : MATRIX SIZE   441LOs:  40  RKM= 8.49  WEIGHT= 4.00  PGR:    
       EIGENVALUES ARE:
:EIG00001:      -1.9946351   -1.9794956   -0.7236891   -0.6445710   -0.6265293
:EIG00006:      -0.6191415   -0.6118394   -0.6117161    0.4086784    0.5430502
:EIG00011:       0.6404647    0.6420741    0.6424923    0.6449369    0.6490828
:EIG00016:       0.6609596    0.6643523    0.6648688    0.6678789    0.6702676
:EIG00021:       0.6746811    0.6780773    0.6785504    0.6841327    0.7127810
:EIG00026:       0.7268056    0.8059686    0.8189949    0.8476621    0.8784335
:EIG00031:       0.8951299    0.9844966    1.0290620    1.0748857    1.3756799
:EIG00036:       1.3764199    1.4629434    1.4674564    1.6280754    1.6819063
:EIG00041:       1.7522395    1.8533247    1.9334463    1.9499148    2.0538903
:EIG00046:       2.1015197    2.1156894    2.1861787    2.2369903    2.3351246
 
:EIG00051:       2.3838086    2.4382531    2.4565732    2.5338093    2.5652531
:EIG00056:       2.6392539    2.6681815    2.7068383    2.7931697    2.8555615
:EIG00061:       2.9214505    2.9323514    3.0724148    3.1359629    3.1554643
:EIG00066:       3.2561951    3.3144968    3.3458710    3.3589483    3.4114459
:EIG00071:       3.4199333    3.4696507    3.5008069    3.5655512    3.5818022
:EIG00076:       3.6231310    3.6499531    3.6935796    3.7194630    3.7491852
:EIG00081:       3.7692792    3.8114190    3.8272403    3.9113830    3.9193395
:EIG00086:       3.9479288    4.0426094    4.0533743    4.0869572    4.0997006
:EIG00091:       4.1335164    4.1713111    4.1962726    4.2165055    4.2293263
:EIG00096:       4.2719049    4.3121696    4.3238387    4.3365003    4.4141026
 
:EIG00101:       4.4925755    4.6140501    4.6293770    4.6976994    4.7267579
:EIG00106:       4.7269402    4.7829603    4.8028706    4.8372377    4.8682096
:EIG00111:       4.9533665    4.9957088    5.0001739    5.0578412    5.1135810
:EIG00116:       5.1509609    5.2060087    5.2181569    5.2608395    5.2975093
:EIG00121:       5.3089393    5.3807679    5.4382173    5.4510293    5.5047235
:EIG00126:       5.5921245    5.6287072    5.6496362    5.6844405    5.7290492
:EIG00131:       5.7394690    5.8069486    5.8238033    5.8316643    5.8597203
:EIG00136:       5.9422314    5.9666889    6.0246801    6.0283147    6.0624383
:EIG00141:       6.0841330    6.1057962    6.1478710    6.1720822    6.2379528
:EIG00146:       6.2408485    6.2495743    6.2791669    6.2901796    6.3661678
 
:EIG00151:       6.4155106    6.4266491    6.5054142    6.5226982    6.6008953
:EIG00156:       6.6835991    6.7767381    6.7887103    6.8176462    6.8789744
:EIG00161:       6.9492990    6.9627136    7.0094251    7.0358082    7.0457778
:EIG00166:       7.1084403    7.1153440    7.1227117    7.1757853    7.2377494
:EIG00171:       7.2499434    7.2993842    7.3365373    7.3469694    7.4083087
:EIG00176:       7.4227362    7.4523476    7.4764762    7.5238587    7.5518444
:EIG00181:       7.5940942    7.6053521    7.6158514    7.6514160    7.6881475
:EIG00186:       7.6981754    7.7642164    7.8459481    7.8590092    7.8707202
:EIG00191:       7.8906714    7.9179513    7.9727140    7.9841669    7.9873855
:EIG00196:       8.0081148    8.0197464    8.0788191    8.0796308    8.1240025
 
:EIG00201:       8.1361988
       ********************************************************

:KPT   :      NUMBER OF K-POINTS:   288
   0.0   0.0 angle (M,z), angle (M,x) deg
 
        SPIN-ORBIT EIGENVALUES:
     K=   0.06250   0.00000   0.06250            1
      MATRIX SIZE=  402   WEIGHT= 4.00
     EIGENVALUES ARE:
          -1.9946352   -1.9946352   -1.9794957   -1.9794957   -0.8101084
          -0.8101084   -0.7673571   -0.7673571   -0.6234704   -0.6234704
          -0.5573967   -0.5573967   -0.5544339   -0.5544339   -0.5453411
          -0.5453411    0.4087184    0.4087184    0.5429280    0.5429280
           0.6346819    0.6346819    0.6368949    0.6368949    0.6378128
           0.6378128    0.6398024    0.6398024    0.6435134    0.6435134
           0.6485156    0.6485156    0.6626474    0.6626474    0.6703371
           0.6703371    0.6745167    0.6745167    0.6752381    0.6752381

           0.6795672    0.6795672    0.6830802    0.6830802    0.6840056
           0.6840056    0.6892439    0.6892439    0.7138769    0.7138769
           0.7269126    0.7269126    0.8046167    0.8046167    0.8198436
           0.8198436    0.8480054    0.8480056    0.8789005    0.8789006
           0.8952023    0.8952023    0.9843360    0.9843361    1.0293431
           1.0293431    1.0750080    1.0750081    1.3745599    1.3745599
           1.3777589    1.3777589    1.4628574    1.4628574    1.4675666
           1.4675666    1.6276923    1.6276923    1.6813617    1.6813617

           1.7521796    1.7521796    1.8519047    1.8519047    1.9318137
           1.9318137    1.9510908    1.9510908    2.0543085    2.0543085
           2.1012908    2.1012908    2.1140012    2.1140012    2.1863513
           2.1863513    2.2378060    2.2378060    2.3347970    2.3347970
           2.3833029    2.3833029    2.4356369    2.4356369    2.4583253
           2.4583253    2.5340569    2.5340569    2.5666368    2.5666368
           2.6392884    2.6392884    2.6677101    2.6677101    2.7076093
           2.7076093    2.7934650    2.7934650    2.8553348    2.8553348

           2.9210697    2.9210697    2.9367273    2.9367273    3.0723029
           3.0723029    3.1359874    3.1359874    3.1556707    3.1556707
           3.2561736    3.2561736    3.3144866    3.3144866    3.3461377
           3.3461377    3.3585812    3.3585812    3.4115557    3.4115557
           3.4201587    3.4201587    3.4696365    3.4696365    3.5008698
           3.5008698    3.5647372    3.5647372    3.5827583    3.5827583
           3.6233528    3.6233528    3.6515427    3.6515427    3.6936624
           3.6936624    3.7196496    3.7196496    3.7495400    3.7495400

           3.7694080    3.7694080    3.8114430    3.8114430    3.8275657
           3.8275657    3.9113714    3.9113714    3.9195633    3.9195633
           3.9480398    3.9480398    4.0425958    4.0425958    4.0535138
           4.0535138    4.0869727    4.0869727    4.0997674    4.0997674
           4.1335450    4.1335450    4.1713609    4.1713609    4.1962830
           4.1962830    4.2163901    4.2163901    4.2292726    4.2292726
           4.2719537    4.2719537    4.3119596    4.3119596    4.3240569
           4.3240569    4.3366857    4.3366857    4.4141734    4.4141734

           4.4924552    4.4924552
       ********************************************************
:GAP (global)   :    0.0    Ry =     0.0   eV (metal)
:GAP (this spin):    0.0    Ry =     0.0   eV (metal)
         Bandranges (emin - emax) and occupancy:
:BAN00018:  18    0.403542    0.611867  1.00000000
:BAN00019:  19    0.512473    0.621540  1.00000000
:BAN00020:  20    0.512473    0.621540  1.00000000
:BAN00021:  21    0.574862    0.637642  1.00000000
:BAN00022:  22    0.574862    0.637642  1.00000000
:BAN00023:  23    0.616958    0.640672  1.00000000
:BAN00024:  24    0.616958    0.640672  1.00000000
:BAN00025:  25    0.627949    0.647832  0.78883679
:BAN00026:  26    0.627949    0.647832  0.78883655
:BAN00027:  27    0.638283    0.648912  0.21116346
:BAN00028:  28    0.638283    0.648912  0.21116320
:BAN00029:  29    0.642600    0.651689  0.00000000
:BAN00030:  30    0.642600    0.651689  0.00000000
:BAN00031:  31    0.646218    0.656759  0.00000000
:BAN00032:  32    0.646218    0.656759  0.00000000
:BAN00033:  33    0.650666    0.663039  0.00000000
        Energy to separate low and high energystates:    0.35354


:NOE  : NUMBER OF ELECTRONS          =   26.000

:FER  : F E R M I - ENERGY(TETRAH.M.)=   0.6415960606
:GMA  : POTENTIAL AND CHARGE CUT-OFF  12.00 Ry**.5

:POS001: ATOM   -1 X,Y,Z = 0.00000 0.89750 0.25000  MULT= 2  ZZ= 59.000  Pr1       

       LMMAX 16
       LM=   0 0  1 0  2 0  2 2  3 0  3 2  4 0  4 2  4 4  5 0  5 2  5 4  6 0  6 2  6 4  6 6

:CHA001: TOTAL VALENCE CHARGE INSIDE SPHERE   1 =   9.5263    (RMT=  2.3000 )
:PCS001: PARTIAL CHARGES SPHERE =  1 S,P,D,F,PX,PY,PZ,D-Z2,D-X2Y2,D-XY,D-XZ,D-YZ 
:QTL001: 1.9409 5.0108 0.5230 2.0514 1.6673 1.6672 1.6762 0.0971 0.0948 0.1143 0.1018 0.1149
        Q-s-low E-s-low   Q-p-low E-p-low   Q-d-low E-d-low   Q-f-low E-f-low
:EPL001:  1.8691 -1.9795    4.9437 -0.6641    0.0019 -0.6589    0.0005 -0.6701
        Q-s-hi  E-s-hi    Q-p-hi  E-p-hi    Q-d-hi  E-d-hi    Q-f-hi  E-f-hi 
:EPH001:  0.0718  0.5424    0.0670  0.5806    0.5211  0.5913    2.0509  0.6284

                      VXX         VYY         VZZ       UP TO R
:VZZ001:             3.82800     3.97461    -7.80260       2.300

:CHA  : TOTAL VALENCE CHARGE INSIDE UNIT CELL =      26.000000

:SUM  : SUM OF EIGENVALUES =          -9.867937362


        1.ATOM      Pr1                  14 CORE STATES
       CORE-FORCE in mRy/a.u. = |F|      Fx             Fy             Fz
:FCO001:   1.ATOM   1338.372389036509      0.000000000000      0.000000000000   1338.372389036509

:1S 001: 1S               -3066.955266238 Ry
:2S 001: 2S                -492.706818609 Ry
:2PP001: 2P*               -465.806241386 Ry
:2P 001: 2P                -430.408643152 Ry
:3S 001: 3S                -105.794493498 Ry
:3PP001: 3P*                -94.332468910 Ry
:3P 001: 3P                 -87.324504518 Ry
:3DD001: 3D*                -67.251865193 Ry
:3D 001: 3D                 -65.740256502 Ry
:4S 001: 4S                 -20.470548951 Ry
:4PP001: 4P*                -16.177398600 Ry
:4P 001: 4P                 -14.650045434 Ry
:4DD001: 4D*                 -7.583149939 Ry
:4D 001: 4D                  -7.313767622 Ry
:CINT001 Core Integral Atom   1   45.998487

       DENSITY AT NUCLEUS
        JATOM        VALENCE       SEMI-CORE          CORE           TOTAL
:RTO001:   1      647.937244        0.000000   656825.045875   657472.983119
     
       CHARGES OF NEW CHARGE DENSITY
:NTO   : INTERSTITIAL CHARGE =     6.947311
:NPC   : PW Pseudocharge     =    16.929231
:NTO001: CHARGE SPHERE  1    =    55.524831

:NEC01: NUCLEAR AND ELECTRONIC CHARGE    118.00000   117.99697
     
       CHARGES OF OLD CHARGE DENSITY
:OTO   : INTERSTITIAL CHARGE =     6.950323
:OPC   : PW Pseudocharge     =    16.936536
:OTO001: CHARGE SPHERE  1    =    55.524839

:NEC02: NUCLEAR AND ELECTRONIC CHARGE    118.00000   118.00000
     
       CONVERGENCE TEST
:DTO001: DIFFERENCE IN SPHERE  1 =  0.0000279

:DIS  :  CHARGE DISTANCE       ( 0.0000279 for atom    1 spin 1)      0.0000279
 PW Mixed is          491
 
******************************************************
* MULTISECANT MIXING VER9 RELEASE 10.4.0              *
* Standard Mode with controls                        *
* Fixed density scale                                *
* Regularization       1.000E-04                     *
* Trust Upper Limit    5.000E+00                     *
* Max Number of Memory Steps    8                    *
******************************************************
 
:PWTMP   3.6775E+02  1.9467E+02  4.6968E+02
:PLANE:  PW TOTAL      4.6951 DISTAN   2.02E-05  4.30E-04 %
:CHARG:  CLM/ATOM   1381.9451 DISTAN   5.59E-05  4.04E-06 %
 
Step History
        DMIX         DMIXT        Red     Pred      Trust     Lambda    MagRel    MagAbs     Beta
  3   2.8956E-02   2.8956E-02  5.25E-01  1.00E+00 -1.00E+01  1.31E+00  2.90E-02  5.37E-03  1.00E+00
  4   3.5100E-02   3.5100E-02  9.52E-01  9.98E-01  3.33E-01  1.28E+00  3.58E-02  3.48E-03  8.06E-01
  5   8.7750E-02   8.6784E-02  5.62E-01  8.05E-01  4.17E-01  9.85E-01  4.17E-01  3.86E-02  1.00E+00
  6   2.1938E-01   2.0047E-01  3.45E-01  3.95E-01  6.53E-01  9.57E-01  6.53E-01  3.40E-02  1.00E+00
  7   1.3261E-01   1.3261E-01  3.46E-01  4.71E-01  9.17E-01  1.38E+00  7.94E-01  1.43E-02  1.00E+00
  8   1.0166E-01   1.0166E-01  7.93E-01  9.45E-01  1.22E+00  1.63E+00  1.61E-01  9.97E-04  1.00E+00
  9   2.5415E-01   2.5415E-01  2.38E-01  2.92E-01  1.90E+00  1.72E+00  6.76E-01  3.33E-03  1.00E+00
 10   2.0879E-01   2.0879E-01  3.60E-01  4.23E-01  4.27E+00  1.55E+00  4.84E-01  5.67E-04  1.00E+00
 11   3.5000E-01   3.5000E-01 -1.00E+00  2.60E-01  5.69E+00  1.00E+00  6.82E-01  2.88E-04  1.00E+00
:JACOBIANS    7.053E-01   2.015E+00
  
:NORMS:  1/Froebius, Min, Max, Used   0.8462E+00  0.4180E+00  0.9749E+00  0.9689E+00
:INFO :  Number of Memory Steps    8 Skipping    2
:INFO :  SLambda=    1.4109779723  Max    1.4109779723
:PREDicted Charge, CTotal, PW Trust    2.137E-06   4.274E-06   3.933E-04
:PREDicted DMix, Beta, BLim   4.1377E-01  1.0336E+00  1.1628E+01

Eigenvalues, unscaled except for SY+YY
   #     SY Real        SY Imag          SS             YY         SY+YY Real      SY+YY Imag
   1   3.673374E+00   0.000000E+00   3.588388E+00   3.822354E+00   9.004024E+00   0.000000E+00
   2   1.961919E+00   0.000000E+00   1.774635E+00   2.523627E+00   5.288883E+00   0.000000E+00
   3   6.758181E-01   0.000000E+00   3.595421E-01   1.390466E+00   2.346547E+00   0.000000E+00
   4   2.141206E-02   0.000000E+00   2.632895E-03   1.784731E-01   2.089913E-01   0.000000E+00
   5   8.042023E-03   0.000000E+00   1.968282E-03   6.921421E-02   8.118865E-02   0.000000E+00
   6   3.991173E-03   0.000000E+00   9.031404E-04   1.062888E-02   1.042530E-07   0.000000E+00
   7   1.350037E-08   0.000000E+00   3.352875E-05   5.236865E-03   6.967642E-03   0.000000E+00
   8   4.945250E-04   0.000000E+00   2.970503E-09   8.512786E-08   1.612494E-02   0.000000E+00
 
:INFO :  Singular value  9.005E+00 Weight  1.000E+00 Projection -1.047E-06
:INFO :  Singular value  5.289E+00 Weight  1.000E+00 Projection -6.837E-06
:INFO :  Singular value  2.347E+00 Weight  1.000E+00 Projection -1.689E-05
:INFO :  Singular value  2.090E-01 Weight  1.000E+00 Projection  5.099E-05
:INFO :  Singular value  8.120E-02 Weight  1.000E+00 Projection  7.501E-05
:INFO :  Singular value  1.612E-02 Weight  9.994E-01 Projection  2.356E-04
:INFO :  Singular value  6.967E-03 Weight  9.970E-01 Projection  1.090E-04
:INFO :  Singular value  1.043E-07 Weight  7.439E-08 Projection  2.879E-10
:RANK :  ACTIVE   7.00/8  =  87.46 % ; YY RANK   6.99/8  =  87.42 %
 
:BLIM :  VZERO Control Off
:TRUST:  Step 7.95E+00  Charge 2.46E-02 (e) CTO  8.19E-02 (e) PW  1.15E-01 (e)
:DIRM :  MEMORY  8/8  SCALE   1.000 RED  0.14 PRED  0.26 NEXT  0.73 
:TRAVE:  Charge 2.67E-05 (e) CTO  5.35E-05 (e) PW  4.95E-04 (e)
:DIRP :  |MSR1|= 1.298E-05 |PRATT|= 2.020E-05 ANGLE=   7.1 DEGREES
:DIRQ :  |MSR1|= 2.126E-05 |PRATT|= 5.589E-05 ANGLE=  24.3 DEGREES
:DIRT :  |MSR1|= 2.491E-05 |PRATT|= 5.943E-05 ANGLE=  24.8 DEGREES
:MIX  :   MSE1   REGULARIZATION:  3.82E-04 GREED: 0.34380  Newton 1.00  0.4191                
     
       CHARGES OF MIXED CHARGE DENSITY
:CTO   : INTERSTITIAL CHARGE =     6.950325
:CPC   : PW Pseudocharge     =    16.936581
:CTO001: CHARGE SPHERE  1    =    55.524837

:NEC03: NUCLEAR AND ELECTRONIC CHARGE    118.00000   118.00000

PW CHANGE     H    K    L      Current       Change    Residue
:PTO001:      0    0    0  5.08574044E-02  1.021E-07  1.806E-07
:PTO003:      0    2    0  1.41016039E-02  3.805E-08  5.013E-08
:PTO004:     -1    1    0  6.92745641E-02  1.285E-07  1.550E-07
:PTO005:      0    2   -1 -8.06103278E-02 -2.502E-07 -3.982E-07
:PTO006:      0    0   -2 -4.17068684E-02 -9.746E-08 -1.482E-07
:PTO007:     -1    1   -1 -8.73345398E-02 -2.573E-07 -4.109E-07
:PTO008:      0    2   -2 -1.42713221E-02 -3.709E-08 -5.435E-08
:PTO009:     -1    1   -2 -7.37122462E-02 -1.486E-07 -2.382E-07
:PTO011:     -1    3    0 -1.20288963E-02 -2.571E-09  5.055E-09
:PTO012:     -1    3   -1 -5.41855684E-02 -6.297E-08 -8.509E-08
:PTO013:      0    4    0 -9.92800065E-03 -1.738E-08 -2.569E-08
:PTO014:      0    2   -3  2.27979347E-02  3.567E-08  7.193E-08

:ENE  : ********** TOTAL ENERGY IN Ry =       -36944.23096482

       TOTAL FORCE IN mRy/a.u. = |F|     Fx             Fy             Fz     with/without FOR in case.in2
:FOR001:   1.ATOM         28.620          0.000          0.000        -28.620 partial forces
       TOTAL FORCE WITH RESPECT TO GLOBAL CARTESIAN COORDINATES:
:FCA001:   1.ATOM                         0.000        -28.620          0.000 partial forces
       TOTAL FORCE WITH RESPECT TO THE GLOBAL COORDINATE SYSTEM:
:FGL001:   1.ATOM                 0.000000000   -28.620249630     0.000000000 partial forces
