
------- case.scf0 --------
 Flat Integration
 New Mode for Coulomb Integral
 Consistent 3/8+Simpson combinations
 Extension of core to zero
 LDM version in phi
 Fifth-order quadrature in outwin


            ---------
:ITE038: 38. ITERATION
            ---------

:NATO :    1 INDEPENDENT AND    2 TOTAL ATOMS IN UNITCELL
       SUBSTANCE: aU                                                          

       LATTICE                      = CXY 
:POT  : POTENTIAL OPTION EX_LDA EC_LDA VX_LDA VC_LDA
:LAT  : LATTICE CONSTANTS=  6.10723 12.39312 10.69923    1.571    1.571    1.571
:VOL  : UNIT CELL VOLUME =     404.89996
       MODE OF CALCULATION IS       = RELA
       NON-SPINPOLARIZED CALCULATION
:IFFT  : FFT-parameters:   48   96   90 Factor: 2.00


   CONVERGENCE PARAMETER FOR PSEUDOCHARGE: NCON=  9
   MAXIMAL VALUE OF RMT(JATOM)*ABSK(NKK) : RK  =27.59658


:VKCOUL :  VK-COUL convergence: 0.132E-06
       ATOMNUMBER=  1 Pr1        VCOUL-ZERO =  0.22733E+00
:EFG001:                        EFG         =    -8.70448   *10**21  V / m**2
                               V20  TOT/SRF=    -7.53830    -0.04200
                               V22  TOT/SRF=    -0.27939     0.00113
                               V22M TOT/SRF=     0.00000     0.00000
                               V21  TOT/SRF=     0.00000     0.00000
                               V21M TOT/SRF=     0.00000     0.00000

              4.07284    0.00000    0.00000        4.07284    0.00000    0.00000
              0.00000    4.63163    0.00000        0.00000    4.63163    0.00000
              0.00000    0.00000   -8.70448        0.00000    0.00000   -8.70448

         MAIN DIRECTIONS OF THE EFG   1.0000  0.0000  0.0000
                                      0.0000  1.0000  0.0000
                                      0.0000  0.0000  1.0000
:ANG001:  ANGLE WITH OLD X-AXIS =         0.0

:ETA001:                         ASYMM. ETA =     0.06420


     HELLMANN-FEYNMAN-FORCE IN mRy/a.u. = |F|  Fx       Fy             Fz
:FHF001:   1.ATOM    808.827877272229      0.000000000000      0.000000000000   -808.827877272229

:FIT001: LUSE= 13 SIGMA OF V-XC FIT FOR ATOM  1  0.1079382E-04
:FIT001: LUSE= 13 SIGMA OF V-XC FIT FOR ATOM  1  0.1079382E-04
:DEN  : DENSITY INTEGRAL  =        -14168.86637874   (Ry)
       ELS_POTENTIAL_AT Z=0 and Z=0.5:   0.79859   0.79859
       ELS_POTENTIAL_AT Y=0 and Y=0.5:   0.04891   0.04891
:VZERO:v0,v0c,v0x   0.17763   0.79859  -0.62097 v5,v5c,v5x   0.17763   0.79859  -0.62097
:VZERY:v0,v0c,v0x  -0.77946   0.04891  -0.82837 v5,v5c,v5x  -0.77946   0.04891  -0.82837
:VZERX:v0,v0c,v0x  -1.17344  -0.38724  -0.78620 v5,v5c,v5x  -1.17344  -0.38724  -0.78620

------- case.scf1 --------
:LMAX-WF:   10   Non-Spherical LMAX:   4

          ATOMIC SPHERE DEPENDENT PARAMETERS FOR ATOM  Pr1       
:e__0001: OVERALL ENERGY PARAMETER IS    0.5654
          OVERALL BASIS SET ON ATOM IS LAPW
:E0_0001: E( 0)=    0.5654
             APW+lo
:E0_0001: E( 0)=   -1.8731   E(BOTTOM)=   -2.511   E(TOP)=   -1.235  4  5   194
             LOCAL ORBITAL
:E1_0001: E( 1)=    0.9654
             APW+lo
:E1_0001: E( 1)=   -0.4043   E(BOTTOM)=   -1.365   E(TOP)=    0.556  3  4   194
             LOCAL ORBITAL
:E3_0001: E( 3)=    0.7837   E(BOTTOM)=    0.574   E(TOP)=    0.993  0  1   119
             APW+lo
:E2_0001: E( 2)=    0.5654   E(BOTTOM)=    0.374   E(TOP)= -200.000  2 -1    84
             APW+lo

       K=   0.06250   0.00000   0.06250            1
:RKM  : MATRIX SIZE   385LOs:  40  RKM= 8.49  WEIGHT= 4.00  PGR:    
       EIGENVALUES ARE:
:EIG00001:      -1.8579794   -1.8319064   -0.6127293   -0.4935292   -0.4670080
:EIG00006:      -0.4581866   -0.4475377   -0.4469358    0.5449925    0.6592886
:EIG00011:       0.7718790    0.7792204    0.7801150    0.7832444    0.7902545
:EIG00016:       0.8063634    0.8131493    0.8138523    0.8172445    0.8203649
:EIG00021:       0.8253168    0.8285035    0.8302156    0.8399840    0.8558472
:EIG00026:       0.8687647    0.9582199    0.9654657    1.0179938    1.0431869
:EIG00031:       1.0543286    1.1724767    1.2129941    1.2712677    1.5738655
:EIG00036:       1.6118364    1.6585812    1.6954193    1.8469975    1.9037043
:EIG00041:       2.0148196    2.1090238    2.2139985    2.2298923    2.3638322
:EIG00046:       2.3839135    2.4007923    2.5110056    2.5420733    2.6618717
 
:EIG00051:       2.7160614    2.7784495    2.7983160    2.9005692    2.9475944
:EIG00056:       2.9970357    3.0204998    3.1107531    3.1761017    3.2701838
:EIG00061:       3.2984338    3.3680075    3.4902396    3.5023605    3.5467453
:EIG00066:       3.6805219    3.7133061    3.8036116    3.8079910    3.8265416
:EIG00071:       3.8312845    3.8895291    3.9317239    4.0283244    4.0411176
:EIG00076:       4.0918432    4.0970798    4.1553322    4.1819640    4.2039079
:EIG00081:       4.2234991    4.2695235    4.2770162    4.3628736    4.3908184
:EIG00086:       4.4390958    4.5006000    4.5507743    4.5896451    4.5947898
:EIG00091:       4.6272137    4.6768544    4.6969317    4.7299867    4.7414154
:EIG00096:       4.7639860    4.8258065    4.8369599    4.8749824    4.9326998
 
:EIG00101:       5.0239796    5.1413883    5.1742810    5.2566848    5.2588830
:EIG00106:       5.2858349    5.3364771    5.3931635    5.4184762    5.4292962
:EIG00111:       5.5357860    5.5822909    5.6610302    5.7385235    5.7442794
:EIG00116:       5.7844132    5.8399320    5.8485591    5.9200724    5.9524603
:EIG00121:       5.9970675    6.0118048    6.0964908    6.1068858    6.1678470
:EIG00126:       6.2555520    6.3260765    6.3324561    6.3404107    6.4232567
:EIG00131:       6.4585496    6.5061538    6.5063530    6.5377605    6.5991250
:EIG00136:       6.6656924    6.6931090    6.7163969    6.7544112    6.7763645
:EIG00141:       6.8202476    6.8561863    6.8957347    6.8962003    6.9635659
:EIG00146:       6.9730473    6.9976305    7.0681267    7.1092028    7.1223057
 
:EIG00151:       7.1664707    7.2000493    7.2414187    7.3527488    7.4040397
:EIG00156:       7.5062056    7.5766434    7.5902054    7.5929653    7.7033384
:EIG00161:       7.7647744    7.8353941    7.8715252    7.8858097    7.9423429
:EIG00166:       7.9446291    7.9483178    7.9682999    8.0516675    8.1339980
:EIG00171:       8.1449158    8.1732988    8.2049928    8.2381299
       ********************************************************

:KPT   :      NUMBER OF K-POINTS:   288

------- case.scfso --------
   0.0   0.0 angle (M,z), angle (M,x) deg
 
        SPIN-ORBIT EIGENVALUES:
     K=   0.06250   0.00000   0.06250            1
      MATRIX SIZE=  348   WEIGHT= 4.00
     EIGENVALUES ARE:
          -1.8579800   -1.8579800   -1.8319066   -1.8319066   -0.6798809
          -0.6798809   -0.6074713   -0.6074713   -0.4873213   -0.4873213
          -0.3969352   -0.3969352   -0.3931432   -0.3931432   -0.3810858
          -0.3810858    0.5450562    0.5450562    0.6591828    0.6591828
           0.7688425    0.7688425    0.7761314    0.7761314    0.7769589
           0.7769589    0.7796727    0.7796727    0.7862159    0.7862159
           0.7960365    0.7960365    0.8079914    0.8079914    0.8175674
           0.8175674    0.8223169    0.8223169    0.8240391    0.8240391

           0.8275201    0.8275201    0.8320540    0.8320540    0.8353906
           0.8353906    0.8442817    0.8442817    0.8578672    0.8578672
           0.8695001    0.8695001    0.9556874    0.9556874    0.9679130
           0.9679130    1.0183446    1.0183446    1.0432956    1.0432956
           1.0546674    1.0546674    1.1723786    1.1723786    1.2132560
           1.2132560    1.2713909    1.2713909    1.5741190    1.5741190
           1.6118739    1.6118739    1.6585532    1.6585532    1.6954713
           1.6954713    1.8467017    1.8467017    1.9031973    1.9031973

           2.0148539    2.0148539    2.1081303    2.1081303    2.2123530
           2.2123530    2.2309139    2.2309139    2.3641054    2.3641054
           2.3838177    2.3838177    2.3997258    2.3997258    2.5098949
           2.5098949    2.5435204    2.5435204    2.6618470    2.6618470
           2.7154042    2.7154042    2.7755989    2.7755989    2.8001323
           2.8001323    2.9004380    2.9004380    2.9484406    2.9484406
           2.9973421    2.9973421    3.0198413    3.0198413    3.1113107
           3.1113107    3.1768990    3.1768990    3.2700647    3.2700647

           3.2986448    3.2986448    3.3723954    3.3723954    3.4900932
           3.4900932    3.5024421    3.5024421    3.5469940    3.5469940
           3.6805647    3.6805647    3.7134535    3.7134535    3.8030349
           3.8030349    3.8083813    3.8083813    3.8266741    3.8266741
           3.8314463    3.8314463    3.8892147    3.8892147    3.9318059
           3.9318059    4.0270373    4.0270373    4.0425511    4.0425511
           4.0927462    4.0927462    4.0984446    4.0984446    4.1554475
           4.1554475    4.1825031    4.1825031    4.2039685    4.2039685

           4.2236824    4.2236824    4.2695694    4.2695694    4.2776161
           4.2776161    4.3629512    4.3629512    4.3909183    4.3909183
           4.4393027    4.4393027
       ********************************************************

------- case.scf2 --------
:GMA  : POTENTIAL AND CHARGE CUT-OFF  12.00 Ry**.5




:POS001: at.nr.  -1 position = 0.00000 0.89750 0.25000  multiplicity =  2

       lmmax 16
       lm=   0 0  1 0  2 0  2 2  3 0  3 2  4 0  4 2  4 4  5 0  5 2  5 4  6 0  6 2  6 4  6 6
:FER gutzwiller fermi energy   0.78487
:EORB         -0.064201980
:SUM sum of gutz band energies         -6.189348833

:CHA001: total charge inside sphere   1 =     9.592400
:PCS001: partial charges sphere =  1 s,p,d,f,px,py,pz,d-z2,d-x2y2,d-xy,d-xz,d-yz 
:QTL001: 1.9453 5.0013 0.6525 1.9927 1.6644 1.6640 1.6728 0.1236 0.1196 0.1377 0.1305 0.1411

                      vxx         vyy         vzz       up to r

:VZZ001:             4.05004     4.61259    -8.66262       2.300

:CHA  : total charge inside unit cell =      12.999996

------- case.scfc --------

        1.ATOM      Pr1                  14 CORE STATES
       CORE-FORCE in mRy/a.u. = |F|      Fx             Fy             Fz
:FCO001:   1.ATOM    795.607314323972      0.000000000000      0.000000000000    795.607314323972

:1S 001: 1S               -3066.796583733 Ry
:2S 001: 2S                -492.548151887 Ry
:2PP001: 2P*               -465.647416188 Ry
:2P 001: 2P                -430.249871410 Ry
:3S 001: 3S                -105.639063054 Ry
:3PP001: 3P*                -94.176870916 Ry
:3P 001: 3P                 -87.169091371 Ry
:3DD001: 3D*                -67.095864152 Ry
:3D 001: 3D                 -65.584322153 Ry
:4S 001: 4S                 -20.318583431 Ry
:4PP001: 4P*                -16.025483341 Ry
:4P 001: 4P                 -14.498268208 Ry
:4DD001: 4D*                 -7.431464661 Ry
:4D 001: 4D                  -7.162120840 Ry

------- case.scfm --------
:CINT001 Core Integral Atom   1   45.998478

       DENSITY AT NUCLEUS
        JATOM        VALENCE       SEMI-CORE          CORE           TOTAL
:RTO001:   1      649.669366        0.000000   656824.305346   657473.974711
     
       CHARGES OF NEW CHARGE DENSITY
:NTO   : INTERSTITIAL CHARGE =     6.815803
:NPC   : PW Pseudocharge     =    17.152015
:NTO001: CHARGE SPHERE  1    =    55.590878

:NEC01: NUCLEAR AND ELECTRONIC CHARGE    118.00000   117.99756
     
       CHARGES OF OLD CHARGE DENSITY
:OTO   : INTERSTITIAL CHARGE =     6.817067
:OPC   : PW Pseudocharge     =    17.157381
:OTO001: CHARGE SPHERE  1    =    55.591467

:NEC02: NUCLEAR AND ELECTRONIC CHARGE    118.00000   118.00000
     
       CONVERGENCE TEST
:DTO001: DIFFERENCE IN SPHERE  1 =  0.0009424

:DIS  :  CHARGE DISTANCE       ( 0.0009424 for atom    1 spin 1)      0.0009424
 PW Mixed is          421
 
******************************************************
* MULTISECANT MIXING VER9 RELEASE 10.4.0              *
* Standard Mode with controls                        *
* Fixed density scale                                *
* Restart from converged density                     *
* Regularization       1.000E-04                     *
* Trust Upper Limit    5.000E+00                     *
* Max Number of Memory Steps    8                    *
******************************************************
 
:INFO : Forcing a restart
:PWTMP   3.0297E+02  1.9467E+02  4.0490E+02
:PLANE:  PW TOTAL      5.1142 DISTAN   2.68E-04  5.24E-03 %
:CHARG:  CLM/ATOM   1381.9478 DISTAN   1.42E-03  1.03E-04 %
 
Step History
        DMIX         DMIXT        Red     Pred      Trust     Lambda    MagRel    MagAbs     Beta
  1   3.5000E-02   3.5000E-02 -1.00E+00  1.00E+00 -1.00E+01  1.00E+00  3.50E-02  3.50E-02  1.00E+00
:INFO :  Note, Pratt in use
:TRUST:  Step 2.25E-01  Charge 7.50E-02 (e) CTO  2.50E-01 (e) PW  3.50E-01 (e)
:DIRM :  MEMORY  0/ 8 SCALE   1.000
Performing Pseudo Compensation
Final Pseudo Compensation Rescaling     1.00000E+00
:MIX  :   PRATT  REGULARIZATION:  1.00E-04 GREED: 0.15000                  
     
       CHARGES OF MIXED CHARGE DENSITY
:CTO   : INTERSTITIAL CHARGE =     6.817243
:CPC   : PW Pseudocharge     =    17.157749
:CTO001: CHARGE SPHERE  1    =    55.591378

:NEC03: NUCLEAR AND ELECTRONIC CHARGE    118.00000   118.00000

PW CHANGE     H    K    L      Current       Change    Residue
:PTO001:      0    0    0  5.92121371E-02  1.344E-06  4.833E-06
:PTO003:      0    2    0  1.54369193E-02  1.847E-07 -4.561E-07
:PTO004:     -1    1    0  7.55784217E-02  1.583E-06  1.718E-06
:PTO005:      0    2   -1 -8.76109212E-02 -1.959E-06 -2.645E-06
:PTO006:      0    0   -2 -4.54351990E-02 -1.046E-06 -1.564E-06
:PTO007:     -1    1   -1 -9.40362700E-02 -2.142E-06 -2.406E-06
:PTO008:      0    2   -2 -1.48734603E-02 -3.832E-07 -4.082E-07
:PTO009:     -1    1   -2 -7.51929338E-02 -1.886E-06 -1.444E-06
:PTO011:     -1    3    0 -1.18624508E-02 -3.704E-07 -5.478E-07
:PTO012:     -1    3   -1 -5.23412101E-02 -1.529E-06 -1.279E-06
:PTO013:      0    4    0 -9.30194898E-03 -2.875E-07 -2.003E-07
:PTO014:      0    2   -3  2.13911041E-02  6.710E-07  6.000E-07

:ENE  : ********** TOTAL ENERGY IN Ry =       -36944.24233409

       TOTAL FORCE IN mRy/a.u. = |F|     Fx             Fy             Fz     with/without FOR in case.in2
:FOR001:   1.ATOM         13.221          0.000          0.000        -13.221 partial forces
       TOTAL FORCE WITH RESPECT TO GLOBAL CARTESIAN COORDINATES:
:FCA001:   1.ATOM                         0.000        -13.221          0.000 partial forces
       TOTAL FORCE WITH RESPECT TO THE GLOBAL COORDINATE SYSTEM:
:FGL001:   1.ATOM                 0.000000000   -13.220562948     0.000000000 partial forces
