
:LABEL1: Calculations in /home/ykent/GWIEN/example/Pr/aU/V11/case
:LABEL2: on didymium-2.cmpgroup.ameslab.gov at Fri Jul 10 13:23:19 CDT 2020
:LABEL3: using WIEN2k_19.1 (Release 25/6/2019) in /home/ykent/opt/src/WIEN2k_19.1
:LABEL4: using the command: run_lapw -cc 0.0001
 Flat Integration
 New Mode for Coulomb Integral
 Consistent 3/8+Simpson combinations
 Extension of core to zero
 LDM version in phi
 Fifth-order quadrature in outwin


            ---------
:ITE001:  1. ITERATION
            ---------

:NATO :    1 INDEPENDENT AND    2 TOTAL ATOMS IN UNITCELL
       SUBSTANCE: aU                                                          

       LATTICE                      = CXY 
:POT  : POTENTIAL OPTION EX_LDA EC_LDA VX_LDA VC_LDA
:LAT  : LATTICE CONSTANTS=  5.93983 12.05341 10.40596    1.571    1.571    1.571
:VOL  : UNIT CELL VOLUME =     372.50797
       MODE OF CALCULATION IS       = RELA
       NON-SPINPOLARIZED CALCULATION
:IFFT  : FFT-parameters:   48   96   80 Factor: 2.00


   CONVERGENCE PARAMETER FOR PSEUDOCHARGE: NCON=  9
   MAXIMAL VALUE OF RMT(JATOM)*ABSK(NKK) : RK  =27.59363


:VKCOUL :  VK-COUL convergence: 0.157E-06
       ATOMNUMBER=  1 Pr1        VCOUL-ZERO =  0.30303E+00
:EFG001:                        EFG         =    -0.04607   *10**21  V / m**2
                               V20  TOT/SRF=    -0.03990    -0.04952
                               V22  TOT/SRF=     0.00659     0.00785
                               V22M TOT/SRF=     0.00000     0.00000
                               V21  TOT/SRF=     0.00000     0.00000
                               V21M TOT/SRF=     0.00000     0.00000

              0.02962    0.00000    0.00000        0.02962    0.00000    0.00000
              0.00000    0.01644    0.00000        0.00000    0.01644    0.00000
              0.00000    0.00000   -0.04607        0.00000    0.00000   -0.04607

         MAIN DIRECTIONS OF THE EFG   1.0000  0.0000  0.0000
                                      0.0000  1.0000  0.0000
                                      0.0000  0.0000  1.0000
:ANG001:  ANGLE WITH OLD X-AXIS =         0.0

:ETA001:                         ASYMM. ETA =     0.28615


     HELLMANN-FEYNMAN-FORCE IN mRy/a.u. = |F|  Fx       Fy             Fz
:FHF001:   1.ATOM    517.040887767594      0.000000000000      0.000000000000   -517.040887767594

:FIT001: LUSE= 13 SIGMA OF V-XC FIT FOR ATOM  1  0.6647191E-05
:FIT001: LUSE= 13 SIGMA OF V-XC FIT FOR ATOM  1  0.6647191E-05
:DEN  : DENSITY INTEGRAL  =        -14185.12454371   (Ry)
       ELS_POTENTIAL_AT Z=0 and Z=0.5:   0.82706   0.82706
       ELS_POTENTIAL_AT Y=0 and Y=0.5:   0.02692   0.02692
:VZERO:v0,v0c,v0x   0.18240   0.82706  -0.64466 v5,v5c,v5x   0.18240   0.82706  -0.64466
:VZERY:v0,v0c,v0x  -0.82472   0.02692  -0.85163 v5,v5c,v5x  -0.82472   0.02692  -0.85163
:VZERX:v0,v0c,v0x  -1.18124  -0.37905  -0.80219 v5,v5c,v5x  -1.18124  -0.37905  -0.80219
:LMAX-WF:   10   Non-Spherical LMAX:   4

          ATOMIC SPHERE DEPENDENT PARAMETERS FOR ATOM  Pr1       
:e__0001: OVERALL ENERGY PARAMETER IS    0.3000
          OVERALL BASIS SET ON ATOM IS LAPW
:E0_0001: E( 0)=    0.3000
             APW+lo
:E0_0001: E( 0)=   -1.7619   E(BOTTOM)=   -2.406   E(TOP)=   -1.118  4  5   206
             LOCAL ORBITAL
:E1_0001: E( 1)=    0.7000
             APW+lo
:E1_0001: E( 1)=   -0.2970   E(BOTTOM)=   -1.265   E(TOP)=    0.672  3  4   211
             LOCAL ORBITAL
:E3_0001: E( 3)=    0.6956   E(BOTTOM)=    0.696   E(TOP)= -200.000  0 -1   105
             APW+lo
:E2_0001: E( 2)=    0.4687   E(BOTTOM)=    0.469   E(TOP)= -200.000  2 -1    94
             APW+lo

       K=   0.06250   0.00000   0.06250            1
:RKM  : MATRIX SIZE   352LOs:  40  RKM= 8.50  WEIGHT= 4.00  PGR:    
       EIGENVALUES ARE:
:EIG00001:      -1.7592426   -1.7231994   -0.5410579   -0.3884839   -0.3550358
:EIG00006:      -0.3441643   -0.3323970   -0.3296024    0.6280636    0.7257003
:EIG00011:       0.8634852    0.8871280    0.8914831    0.8917668    0.9045207
:EIG00016:       0.9283209    0.9318029    0.9353692    0.9375230    0.9419194
:EIG00021:       0.9467246    0.9511410    0.9553778    0.9718473    0.9769773
:EIG00026:       0.9837425    1.0579013    1.0581542    1.1196107    1.1543362
:EIG00031:       1.1549975    1.2944049    1.3306627    1.3977810    1.6984419
:EIG00036:       1.7452423    1.7817715    1.8558574    1.9824139
       ********************************************************

:KPT   :      NUMBER OF K-POINTS:   288
:GAP (global)   :    0.0    Ry =     0.0   eV (metal)
         Bandranges (emin - emax) and occupancy:
:BAN00004:   4   -0.512408   -0.388484  2.00000000
:BAN00005:   5   -0.487799   -0.355036  2.00000000
:BAN00006:   6   -0.462240   -0.336266  2.00000000
:BAN00007:   7   -0.428117   -0.330773  2.00000000
:BAN00008:   8   -0.368231   -0.322374  2.00000000
:BAN00009:   9    0.621118    0.809506  2.00000000
:BAN00010:  10    0.714133    0.837857  2.00000000
:BAN00011:  11    0.740784    0.887143  2.00000000
:BAN00012:  12    0.810437    0.897436  2.00000000
:BAN00013:  13    0.843235    0.923145  1.55571601
:BAN00014:  14    0.874819    0.927765  0.44428399
:BAN00015:  15    0.898885    0.936430  0.00000000
:BAN00016:  16    0.908842    0.937377  0.00000000
:BAN00017:  17    0.922434    0.939671  0.00000000
:BAN00018:  18    0.927242    0.941197  0.00000000
:BAN00019:  19    0.932772    0.947129  0.00000000
        Energy to separate low and high energystates:    0.57112


:NOE  : NUMBER OF ELECTRONS          =   26.000

:FER  : F E R M I - ENERGY(TETRAH.M.)=   0.8984669856
:GMA  : POTENTIAL AND CHARGE CUT-OFF  12.00 Ry**.5

:POS001: ATOM   -1 X,Y,Z = 0.00000 0.89750 0.25000  MULT= 2  ZZ= 59.000  Pr1       

       LMMAX 16
       LM=   0 0  1 0  2 0  2 2  3 0  3 2  4 0  4 2  4 4  5 0  5 2  5 4  6 0  6 2  6 4  6 6

:CHA001: TOTAL VALENCE CHARGE INSIDE SPHERE   1 =   9.0714    (RMT=  2.3000 )
:PCS001: PARTIAL CHARGES SPHERE =  1 S,P,D,F,PX,PY,PZ,D-Z2,D-X2Y2,D-XY,D-XZ,D-YZ 
:QTL001: 1.9489 4.9968 0.8734 1.2512 1.6602 1.6614 1.6752 0.1715 0.1825 0.1667 0.1731 0.1796
        Q-s-low E-s-low   Q-p-low E-p-low   Q-d-low E-d-low   Q-f-low E-f-low
:EPL001:  1.8643 -1.7218    4.8815 -0.4172    0.0067 -0.4574    0.0019 -0.4677
        Q-s-hi  E-s-hi    Q-p-hi  E-p-hi    Q-d-hi  E-d-hi    Q-f-hi  E-f-hi 
:EPH001:  0.0847  0.7644    0.1153  0.8104    0.8667  0.8019    1.2493  0.8638

                      VXX         VYY         VZZ       UP TO R
:VZZ001:             5.79190     6.13783   -11.92972       2.300

:CHA  : TOTAL VALENCE CHARGE INSIDE UNIT CELL =      26.000000

:SUM  : SUM OF EIGENVALUES =          -3.803791888


        1.ATOM      Pr1                  14 CORE STATES
       CORE-FORCE in mRy/a.u. = |F|      Fx             Fy             Fz
:FCO001:   1.ATOM    418.780751104651      0.000000000000      0.000000000000    418.780751104651

:1S 001: 1S               -3066.623975247 Ry
:2S 001: 2S                -492.389765402 Ry
:2PP001: 2P*               -465.487369771 Ry
:2P 001: 2P                -430.090577931 Ry
:3S 001: 3S                -105.487968843 Ry
:3PP001: 3P*                -94.025338578 Ry
:3P 001: 3P                 -87.018017956 Ry
:3DD001: 3D*                -66.944230138 Ry
:3D 001: 3D                 -65.432823640 Ry
:4S 001: 4S                 -20.176792608 Ry
:4PP001: 4P*                -15.884112523 Ry
:4P 001: 4P                 -14.357565634 Ry
:4DD001: 4D*                 -7.292425957 Ry
:4D 001: 4D                  -7.023362367 Ry
:CINT001 Core Integral Atom   1   45.998436

       DENSITY AT NUCLEUS
        JATOM        VALENCE       SEMI-CORE          CORE           TOTAL
:RTO001:   1      648.353793        0.000000   656819.998948   657468.352742
     
       CHARGES OF NEW CHARGE DENSITY
:NTO   : INTERSTITIAL CHARGE =     7.857140
:NPC   : PW Pseudocharge     =    17.656062
:NTO001: CHARGE SPHERE  1    =    55.069865

:NEC01: NUCLEAR AND ELECTRONIC CHARGE    118.00000   117.99687
     
       CHARGES OF OLD CHARGE DENSITY
:OTO   : INTERSTITIAL CHARGE =     6.655984
:OPC   : PW Pseudocharge     =    16.034520
:OTO001: CHARGE SPHERE  1    =    55.672623

:NEC02: NUCLEAR AND ELECTRONIC CHARGE    118.00000   118.00123
     
       CONVERGENCE TEST
:DTO001: DIFFERENCE IN SPHERE  1 =  1.0333059

:DIS  :  CHARGE DISTANCE       ( 1.0333059 for atom    1 spin 1)      1.0333059
 PW Mixed is          394
 
******************************************************
* MULTISECANT MIXING VER9 RELEASE 10.4.0              *
* Standard Mode with controls                        *
* Fixed density scale                                *
* Regularization       1.000E-04                     *
* Trust Upper Limit    5.000E+00                     *
* Max Number of Memory Steps    8                    *
******************************************************
 
:PWTMP   2.7058E+02  1.9467E+02  3.7251E+02
:PLANE:  PW TOTAL      4.8617 DISTAN   6.63E-01  1.36E+01 %
:CHARG:  CLM/ATOM   1382.0533 DISTAN   1.51E+00  1.09E-01 %
INFO: Reducing dbase  2.50000E-02 1.03331E+00 2.45938E-02
 
Step History
        DMIX         DMIXT        Red     Pred      Trust     Lambda    MagRel    MagAbs     Beta
  1   3.5000E-02   3.5000E-02 -1.00E+00  1.00E+00 -1.00E+01  1.00E+00  3.50E-02  3.50E-02  1.00E+00
:INFO :  Note, Pratt in use
INFO: Reducing dbase  2.45938E-02 1.03331E+00 2.41942E-02
:TRUST:  Step 3.75E-02  Charge 7.50E-02 (e) CTO  2.50E-01 (e) PW  3.50E-01 (e)
:DIRM :  MEMORY  0/ 8 SCALE   1.000
Performing Pseudo Compensation
Final Pseudo Compensation Rescaling     1.00000E+00
:MIX  :   PRATT  REGULARIZATION:  1.00E-04 GREED: 0.02500                  
     
       CHARGES OF MIXED CHARGE DENSITY
:CTO   : INTERSTITIAL CHARGE =     6.684891
:CPC   : PW Pseudocharge     =    16.962334
:CTO001: CHARGE SPHERE  1    =    55.657554

:NEC03: NUCLEAR AND ELECTRONIC CHARGE    118.00000   118.00000

PW CHANGE     H    K    L      Current       Change    Residue
:PTO001:      0    0    0  6.34811250E-02  2.580E-03  7.616E-03
:PTO003:      0    2    0  1.58815773E-02  1.141E-03  2.365E-03
:PTO004:     -1    1    0  7.70702605E-02  6.062E-03  8.801E-03
:PTO005:      0    2   -1 -8.95810020E-02 -7.149E-03 -8.694E-03
:PTO006:      0    0   -2 -4.64710412E-02 -3.713E-03 -4.340E-03
:PTO007:     -1    1   -1 -9.56829095E-02 -8.372E-03 -8.440E-03
:PTO008:      0    2   -2 -1.49261254E-02 -1.659E-03 -1.703E-03
:PTO009:     -1    1   -2 -7.34158706E-02 -8.951E-03 -9.739E-03
:PTO011:     -1    3    0 -1.12250884E-02 -1.705E-03 -1.909E-03
:PTO012:     -1    3   -1 -4.89553248E-02 -8.366E-03 -1.003E-02
:PTO013:      0    4    0 -8.77305379E-03 -1.718E-03 -1.828E-03
:PTO014:      0    2   -3  1.97484866E-02  3.911E-03  4.939E-03

:ENE  : ********** TOTAL ENERGY IN Ry =       -36944.32640050

       TOTAL FORCE IN mRy/a.u. = |F|     Fx             Fy             Fz     with/without FOR in case.in2
:FOR001:   1.ATOM         98.260          0.000          0.000        -98.260 partial forces
       TOTAL FORCE WITH RESPECT TO GLOBAL CARTESIAN COORDINATES:
:FCA001:   1.ATOM                         0.000        -98.260          0.000 partial forces
       TOTAL FORCE WITH RESPECT TO THE GLOBAL COORDINATE SYSTEM:
:FGL001:   1.ATOM                 0.000000000   -98.260136663     0.000000000 partial forces
 Flat Integration
 New Mode for Coulomb Integral
 Consistent 3/8+Simpson combinations
 Extension of core to zero
 LDM version in phi
 Fifth-order quadrature in outwin


            ---------
:ITE002:  2. ITERATION
            ---------

:NATO :    1 INDEPENDENT AND    2 TOTAL ATOMS IN UNITCELL
       SUBSTANCE: aU                                                          

       LATTICE                      = CXY 
:POT  : POTENTIAL OPTION EX_LDA EC_LDA VX_LDA VC_LDA
:LAT  : LATTICE CONSTANTS=  5.93983 12.05341 10.40596    1.571    1.571    1.571
:VOL  : UNIT CELL VOLUME =     372.50797
       MODE OF CALCULATION IS       = RELA
       NON-SPINPOLARIZED CALCULATION
:IFFT  : FFT-parameters:   48   96   80 Factor: 2.00


   CONVERGENCE PARAMETER FOR PSEUDOCHARGE: NCON=  9
   MAXIMAL VALUE OF RMT(JATOM)*ABSK(NKK) : RK  =27.59363


:VKCOUL :  VK-COUL convergence: 0.966E-07
       ATOMNUMBER=  1 Pr1        VCOUL-ZERO =  0.30788E+00
:EFG001:                        EFG         =    -0.34447   *10**21  V / m**2
                               V20  TOT/SRF=    -0.29832    -0.04926
                               V22  TOT/SRF=     0.00183     0.00718
                               V22M TOT/SRF=     0.00000     0.00000
                               V21  TOT/SRF=     0.00000     0.00000
                               V21M TOT/SRF=     0.00000     0.00000

              0.17407    0.00000    0.00000        0.17407    0.00000    0.00000
              0.00000    0.17040    0.00000        0.00000    0.17040    0.00000
              0.00000    0.00000   -0.34447        0.00000    0.00000   -0.34447

         MAIN DIRECTIONS OF THE EFG   1.0000  0.0000  0.0000
                                      0.0000  1.0000  0.0000
                                      0.0000  0.0000  1.0000
:ANG001:  ANGLE WITH OLD X-AXIS =         0.0

:ETA001:                         ASYMM. ETA =     0.01064


     HELLMANN-FEYNMAN-FORCE IN mRy/a.u. = |F|  Fx       Fy             Fz
:FHF001:   1.ATOM    520.137132826324      0.000000000000      0.000000000000   -520.137132826324

:FIT001: LUSE= 13 SIGMA OF V-XC FIT FOR ATOM  1  0.6823290E-05
:FIT001: LUSE= 13 SIGMA OF V-XC FIT FOR ATOM  1  0.6823290E-05
:DEN  : DENSITY INTEGRAL  =        -14182.52200945   (Ry)
       ELS_POTENTIAL_AT Z=0 and Z=0.5:   0.83453   0.83453
       ELS_POTENTIAL_AT Y=0 and Y=0.5:   0.03074   0.03074
:VZERO:v0,v0c,v0x   0.18893   0.83453  -0.64560 v5,v5c,v5x   0.18893   0.83453  -0.64560
:VZERY:v0,v0c,v0x  -0.82418   0.03074  -0.85491 v5,v5c,v5x  -0.82418   0.03074  -0.85491
:VZERX:v0,v0c,v0x  -1.19489  -0.38578  -0.80911 v5,v5c,v5x  -1.19489  -0.38578  -0.80911
:LMAX-WF:   10   Non-Spherical LMAX:   4

          ATOMIC SPHERE DEPENDENT PARAMETERS FOR ATOM  Pr1       
:e__0001: OVERALL ENERGY PARAMETER IS    0.5000
          OVERALL BASIS SET ON ATOM IS LAPW
:E0_0001: E( 0)=    0.5000
             APW+lo
:E0_0001: E( 0)=   -1.7678   E(BOTTOM)=   -2.410   E(TOP)=   -1.126  4  5   203
             LOCAL ORBITAL
:E1_0001: E( 1)=    0.9000
             APW+lo
:E1_0001: E( 1)=   -0.3017   E(BOTTOM)=   -1.268   E(TOP)=    0.664  3  4   212
             LOCAL ORBITAL
:E3_0001: E( 3)=    0.6839   E(BOTTOM)=    0.684   E(TOP)= -200.000  0 -1    83
             APW+lo
:E2_0001: E( 2)=    0.5000   E(BOTTOM)=    0.468   E(TOP)= -200.000  2 -1    72
             APW+lo

       K=   0.06250   0.00000   0.06250            1
:RKM  : MATRIX SIZE   352LOs:  40  RKM= 8.50  WEIGHT= 4.00  PGR:    
       EIGENVALUES ARE:
:EIG00001:      -1.7642124   -1.7285835   -0.5423113   -0.3914164   -0.3582501
:EIG00006:      -0.3474158   -0.3356035   -0.3330173    0.6320394    0.7292524
:EIG00011:       0.8600673    0.8779198    0.8806747    0.8825724    0.8933312
:EIG00016:       0.9152122    0.9226717    0.9231718    0.9272931    0.9283868
:EIG00021:       0.9337522    0.9398999    0.9416584    0.9570784    0.9645695
:EIG00026:       0.9733881    1.0560914    1.0583145    1.1202719    1.1552426
:EIG00031:       1.1555464    1.2955118    1.3308903    1.3976467    1.7002697
:EIG00036:       1.7470093    1.7841293    1.8568995    1.9855228    2.0461563
:EIG00041:       2.1826061
       ********************************************************

:KPT   :      NUMBER OF K-POINTS:   288
:GAP (global)   :    0.0    Ry =     0.0   eV (metal)
         Bandranges (emin - emax) and occupancy:
:BAN00004:   4   -0.513923   -0.391416  2.00000000
:BAN00005:   5   -0.489809   -0.358250  2.00000000
:BAN00006:   6   -0.464323   -0.339608  2.00000000
:BAN00007:   7   -0.430506   -0.334174  2.00000000
:BAN00008:   8   -0.371151   -0.325867  2.00000000
:BAN00009:   9    0.625122    0.809392  2.00000000
:BAN00010:  10    0.717820    0.836884  2.00000000
:BAN00011:  11    0.744011    0.881893  2.00000000
:BAN00012:  12    0.811493    0.887263  2.00000000
:BAN00013:  13    0.840807    0.910108  1.55448615
:BAN00014:  14    0.868117    0.916037  0.44551385
:BAN00015:  15    0.888834    0.923697  0.00000000
:BAN00016:  16    0.898767    0.924890  0.00000000
:BAN00017:  17    0.909942    0.926535  0.00000000
:BAN00018:  18    0.914910    0.927701  0.00000000
:BAN00019:  19    0.921340    0.933907  0.00000000
        Energy to separate low and high energystates:    0.57512


:NOE  : NUMBER OF ELECTRONS          =   26.000

:FER  : F E R M I - ENERGY(TETRAH.M.)=   0.8887978198
:GMA  : POTENTIAL AND CHARGE CUT-OFF  12.00 Ry**.5

:POS001: ATOM   -1 X,Y,Z = 0.00000 0.89750 0.25000  MULT= 2  ZZ= 59.000  Pr1       

       LMMAX 16
       LM=   0 0  1 0  2 0  2 2  3 0  3 2  4 0  4 2  4 4  5 0  5 2  5 4  6 0  6 2  6 4  6 6

:CHA001: TOTAL VALENCE CHARGE INSIDE SPHERE   1 =   9.1936    (RMT=  2.3000 )
:PCS001: PARTIAL CHARGES SPHERE =  1 S,P,D,F,PX,PY,PZ,D-Z2,D-X2Y2,D-XY,D-XZ,D-YZ 
:QTL001: 1.9475 4.9956 0.8251 1.4244 1.6606 1.6610 1.6739 0.1605 0.1671 0.1603 0.1651 0.1720
        Q-s-low E-s-low   Q-p-low E-p-low   Q-d-low E-d-low   Q-f-low E-f-low
:EPL001:  1.8653 -1.7272    4.8905 -0.4197    0.0066 -0.4598    0.0019 -0.4701
        Q-s-hi  E-s-hi    Q-p-hi  E-p-hi    Q-d-hi  E-d-hi    Q-f-hi  E-f-hi 
:EPH001:  0.0821  0.7642    0.1052  0.8070    0.8185  0.7989    1.4225  0.8575

                      VXX         VYY         VZZ       UP TO R
:VZZ001:             4.24096     5.97847   -10.21943       2.300

:CHA  : TOTAL VALENCE CHARGE INSIDE UNIT CELL =      26.000000

:SUM  : SUM OF EIGENVALUES =          -3.865725165


        1.ATOM      Pr1                  14 CORE STATES
       CORE-FORCE in mRy/a.u. = |F|      Fx             Fy             Fz
:FCO001:   1.ATOM    428.567070528472      0.000000000000      0.000000000000    428.567070528472

:1S 001: 1S               -3066.656213602 Ry
:2S 001: 2S                -492.421533102 Ry
:2PP001: 2P*               -465.519200285 Ry
:2P 001: 2P                -430.122380490 Ry
:3S 001: 3S                -105.518531580 Ry
:3PP001: 3P*                -94.055998548 Ry
:3P 001: 3P                 -87.048519120 Ry
:3DD001: 3D*                -66.975022754 Ry
:3D 001: 3D                 -65.463575082 Ry
:4S 001: 4S                 -20.199865158 Ry
:4PP001: 4P*                -15.906728848 Ry
:4P 001: 4P                 -14.379471996 Ry
:4DD001: 4D*                 -7.313062401 Ry
:4D 001: 4D                  -7.043755003 Ry
:CINT001 Core Integral Atom   1   45.998455

       DENSITY AT NUCLEUS
        JATOM        VALENCE       SEMI-CORE          CORE           TOTAL
:RTO001:   1      648.677861        0.000000   656821.633811   657470.311672
     
       CHARGES OF NEW CHARGE DENSITY
:NTO   : INTERSTITIAL CHARGE =     7.612717
:NPC   : PW Pseudocharge     =    17.569197
:NTO001: CHARGE SPHERE  1    =    55.192096

:NEC01: NUCLEAR AND ELECTRONIC CHARGE    118.00000   117.99691
     
       CHARGES OF OLD CHARGE DENSITY
:OTO   : INTERSTITIAL CHARGE =     6.684891
:OPC   : PW Pseudocharge     =    16.962334
:OTO001: CHARGE SPHERE  1    =    55.657554

:NEC02: NUCLEAR AND ELECTRONIC CHARGE    118.00000   118.00000
     
       CONVERGENCE TEST
:DTO001: DIFFERENCE IN SPHERE  1 =  0.7963304

:DIS  :  CHARGE DISTANCE       ( 0.7963304 for atom    1 spin 1)      0.7963304
 PW Mixed is          394
 
******************************************************
* MULTISECANT MIXING VER9 RELEASE 10.4.0              *
* Slow Mode, cautious                                *
* Fixed density scale                                *
* Regularization       1.000E-04                     *
* Step Trust Radius    0.75000                       *
* Trust Upper Limit    2.000E+00                     *
* Max Number of Memory Steps   12                    *
******************************************************
 
:PWTMP   2.7058E+02  1.9467E+02  3.7251E+02
:PLANE:  PW TOTAL      5.2561 DISTAN   2.42E-01  4.60E+00 %
:CHARG:  CLM/ATOM   1382.0476 DISTAN   1.19E+00  8.63E-02 %
 
Step History
        DMIX         DMIXT        Red     Pred      Trust     Lambda    MagRel    MagAbs     Beta
  1   3.5000E-02   3.5000E-02 -1.00E+00  1.00E+00 -1.00E+01  1.00E+00  3.50E-02  3.50E-02  1.00E+00
  2   2.5000E-02   2.5000E-02 -1.00E+00  1.00E+00 -1.00E+01  1.00E+00  2.50E-02  4.11E-02  1.00E+00
:JACOBIANS    3.299E-01   1.756E-02
  
:TRUST:  Step 4.32E-02  Charge 7.50E-02 (e) CTO  2.50E-01 (e) PW  3.50E-01 (e)
:DIRM :  MEMORY  1/12 SCALE   1.000
:MIX  :   PRATT  REGULARIZATION:  1.00E-04 GREED: 0.04316  Expand 1.73  0.0432                
     
       CHARGES OF MIXED CHARGE DENSITY
:CTO   : INTERSTITIAL CHARGE =     6.721508
:CPC   : PW Pseudocharge     =    18.093202
:CTO001: CHARGE SPHERE  1    =    55.639246

:NEC03: NUCLEAR AND ELECTRONIC CHARGE    118.00000   118.00000

PW CHANGE     H    K    L      Current       Change    Residue
:PTO001:      0    0    0  6.66152463E-02  3.134E-03  4.147E-03
:PTO003:      0    2    0  1.72676922E-02  1.386E-03  1.206E-03
:PTO004:     -1    1    0  8.44356910E-02  7.365E-03  2.768E-03
:PTO005:      0    2   -1 -9.82670426E-02 -8.686E-03 -1.525E-03
:PTO006:      0    0   -2 -5.09820419E-02 -4.511E-03 -6.375E-04
:PTO007:     -1    1   -1 -1.05854806E-01 -1.017E-02 -2.600E-04
:PTO008:      0    2   -2 -1.69421000E-02 -2.016E-03 -4.664E-05
:PTO009:     -1    1   -2 -8.42911610E-02 -1.088E-02 -1.005E-03
:PTO011:     -1    3    0 -1.32964634E-02 -2.071E-03 -2.577E-04
:PTO012:     -1    3   -1 -5.91199284E-02 -1.016E-02 -1.820E-03
:PTO013:      0    4    0 -1.08607272E-02 -2.088E-03 -1.196E-04
:PTO014:      0    2   -3  2.45003984E-02  4.752E-03  1.023E-03

:ENE  : ********** TOTAL ENERGY IN Ry =       -36944.29563421

       TOTAL FORCE IN mRy/a.u. = |F|     Fx             Fy             Fz     with/without FOR in case.in2
:FOR001:   1.ATOM         91.570          0.000          0.000        -91.570 partial forces
       TOTAL FORCE WITH RESPECT TO GLOBAL CARTESIAN COORDINATES:
:FCA001:   1.ATOM                         0.000        -91.570          0.000 partial forces
       TOTAL FORCE WITH RESPECT TO THE GLOBAL COORDINATE SYSTEM:
:FGL001:   1.ATOM                 0.000000000   -91.570062298     0.000000000 partial forces
 Flat Integration
 New Mode for Coulomb Integral
 Consistent 3/8+Simpson combinations
 Extension of core to zero
 LDM version in phi
 Fifth-order quadrature in outwin


            ---------
:ITE003:  3. ITERATION
            ---------

:NATO :    1 INDEPENDENT AND    2 TOTAL ATOMS IN UNITCELL
       SUBSTANCE: aU                                                          

       LATTICE                      = CXY 
:POT  : POTENTIAL OPTION EX_LDA EC_LDA VX_LDA VC_LDA
:LAT  : LATTICE CONSTANTS=  5.93983 12.05341 10.40596    1.571    1.571    1.571
:VOL  : UNIT CELL VOLUME =     372.50797
       MODE OF CALCULATION IS       = RELA
       NON-SPINPOLARIZED CALCULATION
:IFFT  : FFT-parameters:   48   96   80 Factor: 2.00


   CONVERGENCE PARAMETER FOR PSEUDOCHARGE: NCON=  9
   MAXIMAL VALUE OF RMT(JATOM)*ABSK(NKK) : RK  =27.59363


:VKCOUL :  VK-COUL convergence: 0.100E-06
       ATOMNUMBER=  1 Pr1        VCOUL-ZERO =  0.31382E+00
:EFG001:                        EFG         =    -0.70704   *10**21  V / m**2
                               V20  TOT/SRF=    -0.61232    -0.04896
                               V22  TOT/SRF=    -0.00394     0.00636
                               V22M TOT/SRF=     0.00000     0.00000
                               V21  TOT/SRF=     0.00000     0.00000
                               V21M TOT/SRF=     0.00000     0.00000

              0.34958    0.00000    0.00000        0.34958    0.00000    0.00000
              0.00000    0.35746    0.00000        0.00000    0.35746    0.00000
              0.00000    0.00000   -0.70704        0.00000    0.00000   -0.70704

         MAIN DIRECTIONS OF THE EFG   1.0000  0.0000  0.0000
                                      0.0000  1.0000  0.0000
                                      0.0000  0.0000  1.0000
:ANG001:  ANGLE WITH OLD X-AXIS =         0.0

:ETA001:                         ASYMM. ETA =     0.01116


     HELLMANN-FEYNMAN-FORCE IN mRy/a.u. = |F|  Fx       Fy             Fz
:FHF001:   1.ATOM    523.997653944705      0.000000000000      0.000000000000   -523.997653944705

:FIT001: LUSE= 13 SIGMA OF V-XC FIT FOR ATOM  1  0.7144010E-05
:FIT001: LUSE= 13 SIGMA OF V-XC FIT FOR ATOM  1  0.7144010E-05
:DEN  : DENSITY INTEGRAL  =        -14179.36805343   (Ry)
       ELS_POTENTIAL_AT Z=0 and Z=0.5:   0.84380   0.84380
       ELS_POTENTIAL_AT Y=0 and Y=0.5:   0.03539   0.03539
:VZERO:v0,v0c,v0x   0.19696   0.84380  -0.64684 v5,v5c,v5x   0.19696   0.84380  -0.64684
:VZERY:v0,v0c,v0x  -0.82349   0.03539  -0.85888 v5,v5c,v5x  -0.82349   0.03539  -0.85888
:VZERX:v0,v0c,v0x  -1.21100  -0.39405  -0.81694 v5,v5c,v5x  -1.21100  -0.39405  -0.81694
:LMAX-WF:   10   Non-Spherical LMAX:   4

          ATOMIC SPHERE DEPENDENT PARAMETERS FOR ATOM  Pr1       
:e__0001: OVERALL ENERGY PARAMETER IS    0.6259
          OVERALL BASIS SET ON ATOM IS LAPW
:E0_0001: E( 0)=    0.6259
             APW+lo
:E0_0001: E( 0)=   -1.7750   E(BOTTOM)=   -2.414   E(TOP)=   -1.136  4  5   203
             LOCAL ORBITAL
:E1_0001: E( 1)=    1.0259
             APW+lo
:E1_0001: E( 1)=   -0.3073   E(BOTTOM)=   -1.270   E(TOP)=    0.655  3  4   213
             LOCAL ORBITAL
:E3_0001: E( 3)=    0.8791   E(BOTTOM)=    0.670   E(TOP)=    1.089  0  1   124
             APW+lo
:E2_0001: E( 2)=    0.6259   E(BOTTOM)=    0.467   E(TOP)= -200.000  2 -1   115
             APW+lo

       K=   0.06250   0.00000   0.06250            1
:RKM  : MATRIX SIZE   352LOs:  40  RKM= 8.50  WEIGHT= 4.00  PGR:    
       EIGENVALUES ARE:
:EIG00001:      -1.7702164   -1.7350853   -0.5437955   -0.3949234   -0.3621062
:EIG00006:      -0.3513039   -0.3394400   -0.3371113    0.6370144    0.7336124
:EIG00011:       0.8539010    0.8656909    0.8667558    0.8703197    0.8794471
:EIG00016:       0.8989451    0.9065462    0.9070821    0.9115748    0.9155406
:EIG00021:       0.9191868    0.9248095    0.9257601    0.9388269    0.9514062
:EIG00026:       0.9642037    1.0543010    1.0592481    1.1213027    1.1562999
:EIG00031:       1.1564775    1.2967626    1.3308223    1.3969668    1.6978053
:EIG00036:       1.7441495    1.7817264    1.8564711    1.9835386    2.0446258
:EIG00041:       2.1795640    2.2677226
       ********************************************************

:KPT   :      NUMBER OF K-POINTS:   288
:GAP (global)   :    0.0    Ry =     0.0   eV (metal)
         Bandranges (emin - emax) and occupancy:
:BAN00004:   4   -0.515722   -0.394923  2.00000000
:BAN00005:   5   -0.492183   -0.362106  2.00000000
:BAN00006:   6   -0.466803   -0.343603  2.00000000
:BAN00007:   7   -0.433356   -0.338242  2.00000000
:BAN00008:   8   -0.374628   -0.330053  2.00000000
:BAN00009:   9    0.630131    0.808256  2.00000000
:BAN00010:  10    0.722406    0.834103  2.00000000
:BAN00011:  11    0.747884    0.870734  2.00000000
:BAN00012:  12    0.812073    0.876088  2.00000000
:BAN00013:  13    0.836665    0.893980  1.54578197
:BAN00014:  14    0.858740    0.905237  0.45421803
:BAN00015:  15    0.876174    0.906890  0.00000000
:BAN00016:  16    0.885545    0.908203  0.00000000
:BAN00017:  17    0.894295    0.909715  0.00000000
:BAN00018:  18    0.899286    0.911778  0.00000000
:BAN00019:  19    0.905635    0.918095  0.00000000
        Energy to separate low and high energystates:    0.58013


:NOE  : NUMBER OF ELECTRONS          =   26.000

:FER  : F E R M I - ENERGY(TETRAH.M.)=   0.8760925587
:GMA  : POTENTIAL AND CHARGE CUT-OFF  12.00 Ry**.5

:POS001: ATOM   -1 X,Y,Z = 0.00000 0.89750 0.25000  MULT= 2  ZZ= 59.000  Pr1       

       LMMAX 16
       LM=   0 0  1 0  2 0  2 2  3 0  3 2  4 0  4 2  4 4  5 0  5 2  5 4  6 0  6 2  6 4  6 6

:CHA001: TOTAL VALENCE CHARGE INSIDE SPHERE   1 =   9.3522    (RMT=  2.3000 )
:PCS001: PARTIAL CHARGES SPHERE =  1 S,P,D,F,PX,PY,PZ,D-Z2,D-X2Y2,D-XY,D-XZ,D-YZ 
:QTL001: 1.9454 4.9945 0.7644 1.6470 1.6611 1.6608 1.6726 0.1474 0.1494 0.1517 0.1545 0.1614
        Q-s-low E-s-low   Q-p-low E-p-low   Q-d-low E-d-low   Q-f-low E-f-low
:EPL001:  1.8666 -1.7338    4.9014 -0.4228    0.0065 -0.4627    0.0019 -0.4731
        Q-s-hi  E-s-hi    Q-p-hi  E-p-hi    Q-d-hi  E-d-hi    Q-f-hi  E-f-hi 
:EPH001:  0.0788  0.7640    0.0931  0.8028    0.7579  0.7952    1.6451  0.8485

                      VXX         VYY         VZZ       UP TO R
:VZZ001:             2.55094     5.54393    -8.09487       2.300

:CHA  : TOTAL VALENCE CHARGE INSIDE UNIT CELL =      26.000000

:SUM  : SUM OF EIGENVALUES =          -3.948273721


        1.ATOM      Pr1                  14 CORE STATES
       CORE-FORCE in mRy/a.u. = |F|      Fx             Fy             Fz
:FCO001:   1.ATOM    440.545135319281      0.000000000000      0.000000000000    440.545135319281

:1S 001: 1S               -3066.695331235 Ry
:2S 001: 2S                -492.460078903 Ry
:2PP001: 2P*               -465.557822403 Ry
:2P 001: 2P                -430.160968644 Ry
:3S 001: 3S                -105.555613372 Ry
:3PP001: 3P*                -94.093198486 Ry
:3P 001: 3P                 -87.085526120 Ry
:3DD001: 3D*                -67.012383884 Ry
:3D 001: 3D                 -65.500886190 Ry
:4S 001: 4S                 -20.227849158 Ry
:4PP001: 4P*                -15.934159527 Ry
:4P 001: 4P                 -14.406040760 Ry
:4DD001: 4D*                 -7.338093012 Ry
:4D 001: 4D                  -7.068489835 Ry
:CINT001 Core Integral Atom   1   45.998478

       DENSITY AT NUCLEUS
        JATOM        VALENCE       SEMI-CORE          CORE           TOTAL
:RTO001:   1      648.943097        0.000000   656823.619217   657472.562314
     
       CHARGES OF NEW CHARGE DENSITY
:NTO   : INTERSTITIAL CHARGE =     7.295573
:NPC   : PW Pseudocharge     =    17.458765
:NTO001: CHARGE SPHERE  1    =    55.350691

:NEC01: NUCLEAR AND ELECTRONIC CHARGE    118.00000   117.99695
     
       CHARGES OF OLD CHARGE DENSITY
:OTO   : INTERSTITIAL CHARGE =     6.721508
:OPC   : PW Pseudocharge     =    18.093202
:OTO001: CHARGE SPHERE  1    =    55.639246

:NEC02: NUCLEAR AND ELECTRONIC CHARGE    118.00000   118.00000
     
       CONVERGENCE TEST
:DTO001: DIFFERENCE IN SPHERE  1 =  0.4862095

:DIS  :  CHARGE DISTANCE       ( 0.4862095 for atom    1 spin 1)      0.4862095
 PW Mixed is          394
 
******************************************************
* MULTISECANT MIXING VER9 RELEASE 10.4.0              *
* Standard Mode with controls                        *
* Fixed density scale                                *
* Regularization       1.000E-04                     *
* Trust Upper Limit    5.000E+00                     *
* Max Number of Memory Steps    8                    *
******************************************************
 
:PWTMP   2.7058E+02  1.9467E+02  3.7251E+02
:PLANE:  PW TOTAL      5.7534 DISTAN   4.95E-01  8.61E+00 %
:CHARG:  CLM/ATOM   1382.0407 DISTAN   8.12E-01  5.88E-02 %
 
Step History
        DMIX         DMIXT        Red     Pred      Trust     Lambda    MagRel    MagAbs     Beta
  1   3.5000E-02   3.5000E-02 -1.00E+00  1.00E+00 -1.00E+01  1.00E+00  3.50E-02  3.50E-02  1.00E+00
  2   2.5000E-02   2.5000E-02  7.40E-01  1.00E+00 -1.00E+01  1.00E+00  2.50E-02  4.11E-02  1.00E+00
  3   4.3165E-02   4.3165E-02 -1.00E+00  1.00E+00 -1.00E+01  1.00E+00  4.32E-02  5.25E-02  1.00E+00
:JACOBIANS    5.508E-01   1.990E-02
  
:NORMS:  1/Froebius, Min, Max, Used   0.7904E+00  0.4692E+00  0.9383E+00  0.7905E+00
:INFO :  Number of Memory Steps    2 Skipping    0
:INFO :  SLambda=    0.0248755776  Max    0.0248755776
:PREDicted Charge, CTotal, PW Trust    1.292E-02   2.584E-02   4.305E-01
:PREDicted DMix, Beta, BLim   4.0124E-02  6.8936E-01  8.8087E-01

Eigenvalues, unscaled except for SY+YY
   #     SY Real        SY Imag          SS             YY         SY+YY Real      SY+YY Imag
   1   1.329708E+00   0.000000E+00   1.249574E+00   1.999813E+00   2.032889E+00   0.000000E+00
   2   2.442491E-15   0.000000E+00  -1.110223E-16   1.865948E-04   1.878433E-04   0.000000E+00
 
:INFO :  Singular value  2.033E+00 Weight  1.000E+00 Projection  3.002E-03
:INFO :  Singular value  1.878E-04 Weight  4.687E-01 Projection -2.530E+01
:RANK :  ACTIVE   1.47/2  =  73.44 % ; YY RANK   1.47/2  =  73.27 %
 
:DLIM :  Beta Active  8.000E-01
:BLIM :  VZERO Control Off
:TRUST:  Step 2.98E-01  Charge 7.50E-02 (e) CTO  2.50E-01 (e) PW  3.85E-01 (e)
:DIRM :  MEMORY  2/8  SCALE   1.000 RED  0.78 PRED  1.00 NEXT  0.80 BETA  0.80
:TRAVE:  Charge 4.26E-03 (e) CTO  8.53E-03 (e) PW  1.56E-01 (e)
:DIRP :  |MSR1|= 1.641E-01 |PRATT|= 4.951E-01 ANGLE=  16.8 DEGREES
:DIRQ :  |MSR1|= 1.658E-02 |PRATT|= 8.122E-01 ANGLE=  42.6 DEGREES
:DIRT :  |MSR1|= 1.649E-01 |PRATT|= 9.512E-01 ANGLE=  56.0 DEGREES
:MIX  :   MSD1   REGULARIZATION:  2.00E-04 GREED: 0.03835  Newton 1.00  0.1734                
     
       CHARGES OF MIXED CHARGE DENSITY
:CTO   : INTERSTITIAL CHARGE =     6.730037
:CPC   : PW Pseudocharge     =    17.786732
:CTO001: CHARGE SPHERE  1    =    55.634982

:NEC03: NUCLEAR AND ELECTRONIC CHARGE    118.00000   118.00000

PW CHANGE     H    K    L      Current       Change    Residue
:PTO001:      0    0    0  6.58154194E-02 -7.998E-04 -1.343E-04
:PTO003:      0    2    0  1.69171725E-02 -3.505E-04 -1.966E-04
:PTO004:     -1    1    0  8.24176364E-02 -2.018E-03 -4.578E-03
:PTO005:      0    2   -1 -9.58558182E-02  2.411E-03  7.122E-03
:PTO006:      0    0   -2 -4.97181516E-02  1.264E-03  3.842E-03
:PTO007:     -1    1   -1 -1.02941798E-01  2.913E-03  9.689E-03
:PTO008:      0    2   -2 -1.63605332E-02  5.816E-04  1.975E-03
:PTO009:     -1    1   -2 -8.12014368E-02  3.090E-03  9.625E-03
:PTO011:     -1    3    0 -1.27017825E-02  5.947E-04  1.772E-03
:PTO012:     -1    3   -1 -5.62542726E-02  2.866E-03  8.200E-03
:PTO013:      0    4    0 -1.02729752E-02  5.878E-04  1.939E-03
:PTO014:      0    2   -3  2.31801059E-02 -1.320E-03 -3.721E-03

:ENE  : ********** TOTAL ENERGY IN Ry =       -36944.26915115

       TOTAL FORCE IN mRy/a.u. = |F|     Fx             Fy             Fz     with/without FOR in case.in2
:FOR001:   1.ATOM         83.453          0.000          0.000        -83.453 partial forces
       TOTAL FORCE WITH RESPECT TO GLOBAL CARTESIAN COORDINATES:
:FCA001:   1.ATOM                         0.000        -83.453          0.000 partial forces
       TOTAL FORCE WITH RESPECT TO THE GLOBAL COORDINATE SYSTEM:
:FGL001:   1.ATOM                 0.000000000   -83.452518625     0.000000000 partial forces
 Flat Integration
 New Mode for Coulomb Integral
 Consistent 3/8+Simpson combinations
 Extension of core to zero
 LDM version in phi
 Fifth-order quadrature in outwin


            ---------
:ITE004:  4. ITERATION
            ---------

:NATO :    1 INDEPENDENT AND    2 TOTAL ATOMS IN UNITCELL
       SUBSTANCE: aU                                                          

       LATTICE                      = CXY 
:POT  : POTENTIAL OPTION EX_LDA EC_LDA VX_LDA VC_LDA
:LAT  : LATTICE CONSTANTS=  5.93983 12.05341 10.40596    1.571    1.571    1.571
:VOL  : UNIT CELL VOLUME =     372.50797
       MODE OF CALCULATION IS       = RELA
       NON-SPINPOLARIZED CALCULATION
:IFFT  : FFT-parameters:   48   96   80 Factor: 2.00


   CONVERGENCE PARAMETER FOR PSEUDOCHARGE: NCON=  9
   MAXIMAL VALUE OF RMT(JATOM)*ABSK(NKK) : RK  =27.59363


:VKCOUL :  VK-COUL convergence: 0.976E-07
       ATOMNUMBER=  1 Pr1        VCOUL-ZERO =  0.31249E+00
:EFG001:                        EFG         =    -0.90842   *10**21  V / m**2
                               V20  TOT/SRF=    -0.78671    -0.04780
                               V22  TOT/SRF=     0.03938     0.00626
                               V22M TOT/SRF=     0.00000     0.00000
                               V21  TOT/SRF=     0.00000     0.00000
                               V21M TOT/SRF=     0.00000     0.00000

              0.49359    0.00000    0.00000        0.49359    0.00000    0.00000
              0.00000    0.41483    0.00000        0.00000    0.41483    0.00000
              0.00000    0.00000   -0.90842        0.00000    0.00000   -0.90842

         MAIN DIRECTIONS OF THE EFG   1.0000  0.0000  0.0000
                                      0.0000  1.0000  0.0000
                                      0.0000  0.0000  1.0000
:ANG001:  ANGLE WITH OLD X-AXIS =         0.0

:ETA001:                         ASYMM. ETA =     0.08670


     HELLMANN-FEYNMAN-FORCE IN mRy/a.u. = |F|  Fx       Fy             Fz
:FHF001:   1.ATOM    533.638153838986      0.000000000000      0.000000000000   -533.638153838986

:FIT001: LUSE= 13 SIGMA OF V-XC FIT FOR ATOM  1  0.7709993E-05
:FIT001: LUSE= 13 SIGMA OF V-XC FIT FOR ATOM  1  0.7709993E-05
:DEN  : DENSITY INTEGRAL  =        -14178.66397293   (Ry)
       ELS_POTENTIAL_AT Z=0 and Z=0.5:   0.84320   0.84320
       ELS_POTENTIAL_AT Y=0 and Y=0.5:   0.03482   0.03482
:VZERO:v0,v0c,v0x   0.19606   0.84320  -0.64714 v5,v5c,v5x   0.19606   0.84320  -0.64714
:VZERY:v0,v0c,v0x  -0.82357   0.03482  -0.85840 v5,v5c,v5x  -0.82357   0.03482  -0.85840
:VZERX:v0,v0c,v0x  -1.20764  -0.39222  -0.81543 v5,v5c,v5x  -1.20764  -0.39222  -0.81543
:LMAX-WF:   10   Non-Spherical LMAX:   4

          ATOMIC SPHERE DEPENDENT PARAMETERS FOR ATOM  Pr1       
:e__0001: OVERALL ENERGY PARAMETER IS    0.6594
          OVERALL BASIS SET ON ATOM IS LAPW
:E0_0001: E( 0)=    0.6594
             APW+lo
:E0_0001: E( 0)=   -1.7789   E(BOTTOM)=   -2.418   E(TOP)=   -1.140  4  5   200
             LOCAL ORBITAL
:E1_0001: E( 1)=    1.0594
             APW+lo
:E1_0001: E( 1)=   -0.3109   E(BOTTOM)=   -1.273   E(TOP)=    0.651  3  4   212
             LOCAL ORBITAL
:E3_0001: E( 3)=    0.8738   E(BOTTOM)=    0.665   E(TOP)=    1.083  0  1   116
             APW+lo
:E2_0001: E( 2)=    0.6594   E(BOTTOM)=    0.464   E(TOP)= -200.000  2 -1   123
             APW+lo

       K=   0.06250   0.00000   0.06250            1
:RKM  : MATRIX SIZE   352LOs:  40  RKM= 8.50  WEIGHT= 4.00  PGR:    
       EIGENVALUES ARE:
:EIG00001:      -1.7738340   -1.7388112   -0.5464515   -0.3983770   -0.3656220
:EIG00006:      -0.3543998   -0.3425938   -0.3402573    0.6354613    0.7318515
:EIG00011:       0.8505102    0.8614800    0.8620515    0.8657783    0.8746758
:EIG00016:       0.8941313    0.9017480    0.9020470    0.9065062    0.9105699
:EIG00021:       0.9148456    0.9196792    0.9208405    0.9334308    0.9472471
:EIG00026:       0.9608860    1.0517560    1.0568895    1.1190338    1.1539414
:EIG00031:       1.1543231    1.2946793    1.3284705    1.3944694    1.6958776
:EIG00036:       1.7421877    1.7797879    1.8542629    1.9818869    2.0431124
:EIG00041:       2.1778007    2.2659870
       ********************************************************

:KPT   :      NUMBER OF K-POINTS:   288
:GAP (global)   :    0.0    Ry =     0.0   eV (metal)
         Bandranges (emin - emax) and occupancy:
:BAN00004:   4   -0.518729   -0.398377  2.00000000
:BAN00005:   5   -0.495015   -0.365622  2.00000000
:BAN00006:   6   -0.469875   -0.346717  2.00000000
:BAN00007:   7   -0.436520   -0.341376  2.00000000
:BAN00008:   8   -0.377764   -0.333214  2.00000000
:BAN00009:   9    0.628585    0.805696  2.00000000
:BAN00010:  10    0.720711    0.831078  2.00000000
:BAN00011:  11    0.746023    0.866382  2.00000000
:BAN00012:  12    0.809736    0.871708  1.99999369
:BAN00013:  13    0.833418    0.888993  1.53627887
:BAN00014:  14    0.854735    0.900060  0.46372744
:BAN00015:  15    0.871684    0.901593  0.00000000
:BAN00016:  16    0.880788    0.903288  0.00000000
:BAN00017:  17    0.889345    0.904999  0.00000000
:BAN00018:  18    0.894453    0.906973  0.00000000
:BAN00019:  19    0.900587    0.912789  0.00000000
        Energy to separate low and high energystates:    0.57858


:NOE  : NUMBER OF ELECTRONS          =   26.000

:FER  : F E R M I - ENERGY(TETRAH.M.)=   0.8715806218
:GMA  : POTENTIAL AND CHARGE CUT-OFF  12.00 Ry**.5

:POS001: ATOM   -1 X,Y,Z = 0.00000 0.89750 0.25000  MULT= 2  ZZ= 59.000  Pr1       

       LMMAX 16
       LM=   0 0  1 0  2 0  2 2  3 0  3 2  4 0  4 2  4 4  5 0  5 2  5 4  6 0  6 2  6 4  6 6

:CHA001: TOTAL VALENCE CHARGE INSIDE SPHERE   1 =   9.3783    (RMT=  2.3000 )
:PCS001: PARTIAL CHARGES SPHERE =  1 S,P,D,F,PX,PY,PZ,D-Z2,D-X2Y2,D-XY,D-XZ,D-YZ 
:QTL001: 1.9451 4.9946 0.7545 1.6831 1.6612 1.6608 1.6726 0.1455 0.1463 0.1503 0.1527 0.1598
        Q-s-low E-s-low   Q-p-low E-p-low   Q-d-low E-d-low   Q-f-low E-f-low
:EPL001:  1.8669 -1.7375    4.9034 -0.4258    0.0064 -0.4655    0.0019 -0.4759
        Q-s-hi  E-s-hi    Q-p-hi  E-p-hi    Q-d-hi  E-d-hi    Q-f-hi  E-f-hi 
:EPH001:  0.0782  0.7616    0.0912  0.7998    0.7481  0.7922    1.6812  0.8446

                      VXX         VYY         VZZ       UP TO R
:VZZ001:             2.50311     5.73160    -8.23471       2.300

:CHA  : TOTAL VALENCE CHARGE INSIDE UNIT CELL =      26.000000

:SUM  : SUM OF EIGENVALUES =          -4.027952127


        1.ATOM      Pr1                  14 CORE STATES
       CORE-FORCE in mRy/a.u. = |F|      Fx             Fy             Fz
:FCO001:   1.ATOM    456.701352333778      0.000000000000      0.000000000000    456.701352333778

:1S 001: 1S               -3066.702780743 Ry
:2S 001: 2S                -492.467150008 Ry
:2PP001: 2P*               -465.564927681 Ry
:2P 001: 2P                -430.168056942 Ry
:3S 001: 3S                -105.562618021 Ry
:3PP001: 3P*                -94.100209571 Ry
:3P 001: 3P                 -87.092527292 Ry
:3DD001: 3D*                -67.019382234 Ry
:3D 001: 3D                 -65.507882586 Ry
:4S 001: 4S                 -20.234309780 Ry
:4PP001: 4P*                -15.940572596 Ry
:4P 001: 4P                 -14.412385961 Ry
:4DD001: 4D*                 -7.344280159 Ry
:4D 001: 4D                  -7.074650014 Ry
:CINT001 Core Integral Atom   1   45.998481

       DENSITY AT NUCLEUS
        JATOM        VALENCE       SEMI-CORE          CORE           TOTAL
:RTO001:   1      648.992010        0.000000   656823.808040   657472.800050
     
       CHARGES OF NEW CHARGE DENSITY
:NTO   : INTERSTITIAL CHARGE =     7.243395
:NPC   : PW Pseudocharge     =    17.441885
:NTO001: CHARGE SPHERE  1    =    55.376783

:NEC01: NUCLEAR AND ELECTRONIC CHARGE    118.00000   117.99696
     
       CHARGES OF OLD CHARGE DENSITY
:OTO   : INTERSTITIAL CHARGE =     6.730037
:OPC   : PW Pseudocharge     =    17.786732
:OTO001: CHARGE SPHERE  1    =    55.634982

:NEC02: NUCLEAR AND ELECTRONIC CHARGE    118.00000   118.00000
     
       CONVERGENCE TEST
:DTO001: DIFFERENCE IN SPHERE  1 =  0.4386785

:DIS  :  CHARGE DISTANCE       ( 0.4386785 for atom    1 spin 1)      0.4386785
 PW Mixed is          394
 
******************************************************
* MULTISECANT MIXING VER9 RELEASE 10.4.0              *
* Standard Mode with controls                        *
* Fixed density scale                                *
* Regularization       1.000E-04                     *
* Trust Upper Limit    5.000E+00                     *
* Max Number of Memory Steps    8                    *
******************************************************
 
:PWTMP   2.7058E+02  1.9467E+02  3.7251E+02
:PLANE:  PW TOTAL      5.6147 DISTAN   3.39E-01  6.03E+00 %
:CHARG:  CLM/ATOM   1382.0377 DISTAN   7.50E-01  5.43E-02 %
 
Step History
        DMIX         DMIXT        Red     Pred      Trust     Lambda    MagRel    MagAbs     Beta
  1   3.5000E-02   3.5000E-02 -1.00E+00  1.00E+00 -1.00E+01  1.00E+00  3.50E-02  3.50E-02  1.00E+00
  2   2.5000E-02   2.5000E-02  7.40E-01  1.00E+00 -1.00E+01  1.00E+00  2.50E-02  4.11E-02  1.00E+00
  3   4.3165E-02   4.3165E-02  7.82E-01  1.00E+00 -1.00E+01  2.49E-02  4.32E-02  5.25E-02  1.00E+00
  4   3.8353E-02   3.8353E-02 -1.00E+00  7.96E-01  2.98E-01  1.00E+00  1.73E-01  1.65E-01  8.00E-01
:JACOBIANS    7.715E-01   5.844E-02
  
:NORMS:  1/Froebius, Min, Max, Used   0.7682E+00  0.3951E+00  0.9926E+00  0.8929E+00
:INFO :  Number of Memory Steps    3 Skipping    0
:INFO :  SLambda=    1.5815670051  Max    1.5815670051
:PREDicted Charge, CTotal, PW Trust    4.066E-02   8.131E-02   4.480E-01
:PREDicted DMix, Beta, BLim   2.8016E-01  2.9692E+00  4.4024E-01

Eigenvalues, unscaled except for SY+YY
   #     SY Real        SY Imag          SS             YY         SY+YY Real      SY+YY Imag
   1   1.791225E+00   0.000000E+00   1.752578E+00   2.198071E+00   4.920556E+00   0.000000E+00
   2   2.016483E-15   0.000000E+00   1.802454E-02   8.018830E-01   5.287657E-05   0.000000E+00
   3   8.891052E-02   0.000000E+00  -4.537921E-17   4.635108E-05   1.052950E+00   0.000000E+00
 
:INFO :  Singular value  4.921E+00 Weight  1.000E+00 Projection  1.349E-01
:INFO :  Singular value  1.053E+00 Weight  1.000E+00 Projection -8.214E-01
:INFO :  Singular value  5.288E-05 Weight  5.470E-02 Projection  1.199E+00
:RANK :  ACTIVE   2.05/3  =  68.49 % ; YY RANK   2.04/3  =  68.09 %
 
:BLIM :  VZERO Control Off
:TRUST:  Step 3.99E-01  Charge 7.50E-02 (e) CTO  2.50E-01 (e) PW  4.24E-01 (e)
:DTRUS:  Lambda    4.941E-02 Increment    3.638E-12 Iterations   102 DMIX    9.475E-02
:INFOA:  Angle SubSpace to MSR1      2.23
:DIRM :  MEMORY  3/8  SCALE   1.000 RED  0.87 PRED  0.80 NEXT  0.53 
:INFO :  Limited by Atoms F by Step T

:TRAVE:  Charge 1.85E-02 (e) CTO  3.71E-02 (e) PW  1.98E-01 (e)
:DIRP :  |MSR1|= 3.007E-01 |PRATT|= 3.388E-01 ANGLE=  19.7 DEGREES
:DIRQ :  |MSR1|= 1.326E-01 |PRATT|= 7.501E-01 ANGLE=  31.5 DEGREES
:DIRT :  |MSR1|= 3.286E-01 |PRATT|= 8.231E-01 ANGLE=  48.1 DEGREES
:MIX  :   MSE1   REGULARIZATION:  2.20E-04 GREED: 0.09588  LMStep 0.90  0.3992 Step           
     
       CHARGES OF MIXED CHARGE DENSITY
:CTO   : INTERSTITIAL CHARGE =     6.795654
:CPC   : PW Pseudocharge     =    17.262829
:CTO001: CHARGE SPHERE  1    =    55.602173

:NEC03: NUCLEAR AND ELECTRONIC CHARGE    118.00000   118.00000

PW CHANGE     H    K    L      Current       Change    Residue
:PTO001:      0    0    0  6.45851478E-02 -1.230E-03  4.802E-04
:PTO003:      0    2    0  1.64302341E-02 -4.869E-04  1.120E-04
:PTO004:     -1    1    0  7.89781219E-02 -3.440E-03 -2.568E-03
:PTO005:      0    2   -1 -9.15123829E-02  4.343E-03  4.701E-03
:PTO006:      0    0   -2 -4.74104646E-02  2.308E-03  2.557E-03
:PTO007:     -1    1   -1 -9.74188923E-02  5.523E-03  6.683E-03
:PTO008:      0    2   -2 -1.52229778E-02  1.138E-03  1.405E-03
:PTO009:     -1    1   -2 -7.54546759E-02  5.747E-03  6.464E-03
:PTO011:     -1    3    0 -1.15912741E-02  1.111E-03  1.158E-03
:PTO012:     -1    3   -1 -5.10153186E-02  5.239E-03  5.322E-03
:PTO013:      0    4    0 -9.17594310E-03  1.097E-03  1.346E-03
:PTO014:      0    2   -3  2.08147633E-02 -2.365E-03 -2.397E-03

:ENE  : ********** TOTAL ENERGY IN Ry =       -36944.26565056

       TOTAL FORCE IN mRy/a.u. = |F|     Fx             Fy             Fz     with/without FOR in case.in2
:FOR001:   1.ATOM         76.937          0.000          0.000        -76.937 partial forces
       TOTAL FORCE WITH RESPECT TO GLOBAL CARTESIAN COORDINATES:
:FCA001:   1.ATOM                         0.000        -76.937          0.000 partial forces
       TOTAL FORCE WITH RESPECT TO THE GLOBAL COORDINATE SYSTEM:
:FGL001:   1.ATOM                 0.000000000   -76.936801505     0.000000000 partial forces
 Flat Integration
 New Mode for Coulomb Integral
 Consistent 3/8+Simpson combinations
 Extension of core to zero
 LDM version in phi
 Fifth-order quadrature in outwin


            ---------
:ITE005:  5. ITERATION
            ---------

:NATO :    1 INDEPENDENT AND    2 TOTAL ATOMS IN UNITCELL
       SUBSTANCE: aU                                                          

       LATTICE                      = CXY 
:POT  : POTENTIAL OPTION EX_LDA EC_LDA VX_LDA VC_LDA
:LAT  : LATTICE CONSTANTS=  5.93983 12.05341 10.40596    1.571    1.571    1.571
:VOL  : UNIT CELL VOLUME =     372.50797
       MODE OF CALCULATION IS       = RELA
       NON-SPINPOLARIZED CALCULATION
:IFFT  : FFT-parameters:   48   96   80 Factor: 2.00


   CONVERGENCE PARAMETER FOR PSEUDOCHARGE: NCON=  9
   MAXIMAL VALUE OF RMT(JATOM)*ABSK(NKK) : RK  =27.59363


:VKCOUL :  VK-COUL convergence: 0.848E-07
       ATOMNUMBER=  1 Pr1        VCOUL-ZERO =  0.31131E+00
:EFG001:                        EFG         =    -2.64230   *10**21  V / m**2
                               V20  TOT/SRF=    -2.28830    -0.04174
                               V22  TOT/SRF=    -0.05376     0.00234
                               V22M TOT/SRF=     0.00000     0.00000
                               V21  TOT/SRF=     0.00000     0.00000
                               V21M TOT/SRF=     0.00000     0.00000

              1.26739    0.00000    0.00000        1.26739    0.00000    0.00000
              0.00000    1.37491    0.00000        0.00000    1.37491    0.00000
              0.00000    0.00000   -2.64230        0.00000    0.00000   -2.64230

         MAIN DIRECTIONS OF THE EFG   1.0000  0.0000  0.0000
                                      0.0000  1.0000  0.0000
                                      0.0000  0.0000  1.0000
:ANG001:  ANGLE WITH OLD X-AXIS =         0.0

:ETA001:                         ASYMM. ETA =     0.04069


     HELLMANN-FEYNMAN-FORCE IN mRy/a.u. = |F|  Fx       Fy             Fz
:FHF001:   1.ATOM    659.836409828288      0.000000000000      0.000000000000   -659.836409828288

:FIT001: LUSE= 13 SIGMA OF V-XC FIT FOR ATOM  1  0.1485388E-04
:FIT001: LUSE= 13 SIGMA OF V-XC FIT FOR ATOM  1  0.1485388E-04
:DEN  : DENSITY INTEGRAL  =        -14173.18589842   (Ry)
       ELS_POTENTIAL_AT Z=0 and Z=0.5:   0.84795   0.84795
       ELS_POTENTIAL_AT Y=0 and Y=0.5:   0.03756   0.03756
:VZERO:v0,v0c,v0x   0.19863   0.84795  -0.64931 v5,v5c,v5x   0.19863   0.84795  -0.64931
:VZERY:v0,v0c,v0x  -0.82189   0.03756  -0.85945 v5,v5c,v5x  -0.82189   0.03756  -0.85945
:VZERX:v0,v0c,v0x  -1.20439  -0.39016  -0.81423 v5,v5c,v5x  -1.20439  -0.39016  -0.81423
:LMAX-WF:   10   Non-Spherical LMAX:   4

          ATOMIC SPHERE DEPENDENT PARAMETERS FOR ATOM  Pr1       
:e__0001: OVERALL ENERGY PARAMETER IS    0.6675
          OVERALL BASIS SET ON ATOM IS LAPW
:E0_0001: E( 0)=    0.6675
             APW+lo
:E0_0001: E( 0)=   -1.8021   E(BOTTOM)=   -2.437   E(TOP)=   -1.167  4  5   200
             LOCAL ORBITAL
:E1_0001: E( 1)=    1.0675
             APW+lo
:E1_0001: E( 1)=   -0.3317   E(BOTTOM)=   -1.289   E(TOP)=    0.626  3  4   206
             LOCAL ORBITAL
:E3_0001: E( 3)=    0.8366   E(BOTTOM)=    0.632   E(TOP)=    1.041  0  1   121
             APW+lo
:E2_0001: E( 2)=    0.6675   E(BOTTOM)=    0.451   E(TOP)= -200.000  2 -1   121
             APW+lo

       K=   0.06250   0.00000   0.06250            1
:RKM  : MATRIX SIZE   352LOs:  40  RKM= 8.50  WEIGHT= 4.00  PGR:    
       EIGENVALUES ARE:
:EIG00001:      -1.7950359   -1.7609531   -0.5590149   -0.4173205   -0.3851065
:EIG00006:      -0.3718391   -0.3594282   -0.3581374    0.6322357    0.7269804
:EIG00011:       0.8259268    0.8299092    0.8307640    0.8353535    0.8426118
:EIG00016:       0.8599075    0.8663182    0.8670670    0.8712371    0.8741062
:EIG00021:       0.8822842    0.8844673    0.8850237    0.8957717    0.9243727
:EIG00026:       0.9452915    1.0406519    1.0476220    1.1099253    1.1440631
:EIG00031:       1.1460585    1.2869029    1.3184957    1.3838026    1.6892302
:EIG00036:       1.7353636    1.7736577    1.8459471    1.9775196    2.0402132
:EIG00041:       2.1730229    2.2615162
       ********************************************************

:KPT   :      NUMBER OF K-POINTS:   288
:GAP (global)   :    0.0    Ry =     0.0   eV (metal)
         Bandranges (emin - emax) and occupancy:
:BAN00004:   4   -0.533996   -0.417320  2.00000000
:BAN00005:   5   -0.509499   -0.385107  2.00000000
:BAN00006:   6   -0.485925   -0.364330  2.00000000
:BAN00007:   7   -0.453580   -0.359151  2.00000000
:BAN00008:   8   -0.394644   -0.351233  2.00000000
:BAN00009:   9    0.625407    0.792191  2.00000000
:BAN00010:  10    0.716430    0.812317  2.00000000
:BAN00011:  11    0.739915    0.836373  2.00000000
:BAN00012:  12    0.797870    0.842566  1.99359044
:BAN00013:  13    0.812640    0.854196  1.42621443
:BAN00014:  14    0.827609    0.862753  0.58019513
:BAN00015:  15    0.841729    0.866158  0.00000000
:BAN00016:  16    0.847751    0.867918  0.00000000
:BAN00017:  17    0.854922    0.871561  0.00000000
:BAN00018:  18    0.860562    0.873227  0.00000000
:BAN00019:  19    0.865140    0.878325  0.00000000
        Energy to separate low and high energystates:    0.57541


:NOE  : NUMBER OF ELECTRONS          =   26.000

:FER  : F E R M I - ENERGY(TETRAH.M.)=   0.8402532311
:GMA  : POTENTIAL AND CHARGE CUT-OFF  12.00 Ry**.5

:POS001: ATOM   -1 X,Y,Z = 0.00000 0.89750 0.25000  MULT= 2  ZZ= 59.000  Pr1       

       LMMAX 16
       LM=   0 0  1 0  2 0  2 2  3 0  3 2  4 0  4 2  4 4  5 0  5 2  5 4  6 0  6 2  6 4  6 6

:CHA001: TOTAL VALENCE CHARGE INSIDE SPHERE   1 =   9.6423    (RMT=  2.3000 )
:PCS001: PARTIAL CHARGES SPHERE =  1 S,P,D,F,PX,PY,PZ,D-Z2,D-X2Y2,D-XY,D-XZ,D-YZ 
:QTL001: 1.9410 4.9944 0.6551 2.0510 1.6623 1.6608 1.6713 0.1254 0.1182 0.1363 0.1333 0.1419
        Q-s-low E-s-low   Q-p-low E-p-low   Q-d-low E-d-low   Q-f-low E-f-low
:EPL001:  1.8689 -1.7598    4.9211 -0.4423    0.0061 -0.4795    0.0018 -0.4899
        Q-s-hi  E-s-hi    Q-p-hi  E-p-hi    Q-d-hi  E-d-hi    Q-f-hi  E-f-hi 
:EPH001:  0.0721  0.7499    0.0733  0.7820    0.6490  0.7754    2.0491  0.8186

                      VXX         VYY         VZZ       UP TO R
:VZZ001:             2.60697     6.27593    -8.88290       2.300

:CHA  : TOTAL VALENCE CHARGE INSIDE UNIT CELL =      26.000000

:SUM  : SUM OF EIGENVALUES =          -4.472328958


        1.ATOM      Pr1                  14 CORE STATES
       CORE-FORCE in mRy/a.u. = |F|      Fx             Fy             Fz
:FCO001:   1.ATOM    634.687419121703      0.000000000000      0.000000000000    634.687419121703

:1S 001: 1S               -3066.764837355 Ry
:2S 001: 2S                -492.526362501 Ry
:2PP001: 2P*               -465.624379443 Ry
:2P 001: 2P                -430.227385344 Ry
:3S 001: 3S                -105.620962764 Ry
:3PP001: 3P*                -94.158643470 Ry
:3P 001: 3P                 -87.150806306 Ry
:3DD001: 3D*                -67.077776129 Ry
:3D 001: 3D                 -65.566243036 Ry
:4S 001: 4S                 -20.284419711 Ry
:4PP001: 4P*                -15.990093647 Ry
:4P 001: 4P                 -14.461028981 Ry
:4DD001: 4D*                 -7.391132967 Ry
:4D 001: 4D                  -7.121179987 Ry
:CINT001 Core Integral Atom   1   45.998512

       DENSITY AT NUCLEUS
        JATOM        VALENCE       SEMI-CORE          CORE           TOTAL
:RTO001:   1      648.979095        0.000000   656826.042367   657475.021462
     
       CHARGES OF NEW CHARGE DENSITY
:NTO   : INTERSTITIAL CHARGE =     6.715322
:NPC   : PW Pseudocharge     =    17.266635
:NTO001: CHARGE SPHERE  1    =    55.640850

:NEC01: NUCLEAR AND ELECTRONIC CHARGE    118.00000   117.99702
     
       CHARGES OF OLD CHARGE DENSITY
:OTO   : INTERSTITIAL CHARGE =     6.795654
:OPC   : PW Pseudocharge     =    17.262829
:OTO001: CHARGE SPHERE  1    =    55.602173

:NEC02: NUCLEAR AND ELECTRONIC CHARGE    118.00000   118.00000
     
       CONVERGENCE TEST
:DTO001: DIFFERENCE IN SPHERE  1 =  0.1037085

:DIS  :  CHARGE DISTANCE       ( 0.1037085 for atom    1 spin 1)      0.1037085
 PW Mixed is          394
 
******************************************************
* MULTISECANT MIXING VER9 RELEASE 10.4.0              *
* Standard Mode with controls                        *
* Fixed density scale                                *
* Regularization       1.000E-04                     *
* Trust Upper Limit    5.000E+00                     *
* Max Number of Memory Steps    8                    *
******************************************************
 
:PWTMP   2.7058E+02  1.9467E+02  3.7251E+02
:PLANE:  PW TOTAL      5.3732 DISTAN   6.70E-02  1.25E+00 %
:CHARG:  CLM/ATOM   1382.0129 DISTAN   3.65E-01  2.64E-02 %
 
Step History
        DMIX         DMIXT        Red     Pred      Trust     Lambda    MagRel    MagAbs     Beta
  1   3.5000E-02   3.5000E-02 -1.00E+00  1.00E+00 -1.00E+01  1.00E+00  3.50E-02  3.50E-02  1.00E+00
  2   2.5000E-02   2.5000E-02  7.40E-01  1.00E+00 -1.00E+01  1.00E+00  2.50E-02  4.11E-02  1.00E+00
  3   4.3165E-02   4.3165E-02  7.82E-01  1.00E+00 -1.00E+01  2.49E-02  4.32E-02  5.25E-02  1.00E+00
  4   3.8353E-02   3.8353E-02  8.65E-01  7.96E-01  2.98E-01  1.58E+00  1.73E-01  1.65E-01  8.00E-01
  5   9.5883E-02   9.4746E-02 -1.00E+00  5.31E-01  3.99E-01  1.00E+00  3.99E-01  3.29E-01  1.00E+00
:JACOBIANS    8.799E-01   1.424E-01
  
:NORMS:  1/Froebius, Min, Max, Used   0.3995E+00  0.3578E+00  0.9966E+00  0.4017E+00
:INFO :  Number of Memory Steps    4 Skipping    0
:INFO :  SLambda=    1.5466900760  Max    1.5466900760
:PREDicted Charge, CTotal, PW Trust    2.492E-02   4.984E-02   2.735E-01
:PREDicted DMix, Beta, BLim   1.2466E-01  1.1169E+00  5.2443E-01

Eigenvalues, unscaled except for SY+YY
   #     SY Real        SY Imag          SS             YY         SY+YY Real      SY+YY Imag
   1   5.883759E-01   0.000000E+00   5.620187E-01   3.482383E+00   4.071579E+00   0.000000E+00
   2   2.807017E-01   0.000000E+00   7.650893E-02   5.172362E-01   1.272247E+00   0.000000E+00
   3   9.268164E-16   0.000000E+00   2.277702E-05   3.639097E-04   1.870703E-05   0.000000E+00
   4   1.063044E-04   0.000000E+00  -3.322604E-17   1.668246E-05   5.139239E-04   0.000000E+00
 
:INFO :  Singular value  4.073E+00 Weight  1.000E+00 Projection -1.555E-03
:INFO :  Singular value  1.272E+00 Weight  1.000E+00 Projection -7.407E-02
:INFO :  Singular value  5.141E-04 Weight  6.855E-01 Projection -1.018E+01
:INFO :  Singular value  1.870E-05 Weight  2.876E-03 Projection  2.951E-02
:RANK :  ACTIVE   2.69/4  =  67.21 % ; YY RANK   2.52/4  =  63.11 %
 
:BLIM :  VZERO Control Off
:TRUST:  Step 5.32E-01  Charge 7.50E-02 (e) CTO  2.50E-01 (e) PW  4.24E-01 (e)
:DIRM :  MEMORY  4/8  SCALE   1.000 RED  0.45 PRED  0.53 NEXT  0.80 
:TRAVE:  Charge 1.40E-02 (e) CTO  2.79E-02 (e) PW  1.15E-01 (e)
:DIRP :  |MSR1|= 3.297E-02 |PRATT|= 6.702E-02 ANGLE=  45.0 DEGREES
:DIRQ :  |MSR1|= 8.676E-02 |PRATT|= 3.653E-01 ANGLE=   3.7 DEGREES
:DIRT :  |MSR1|= 9.281E-02 |PRATT|= 3.714E-01 ANGLE=  15.7 DEGREES
:MIX  :   MSE1   REGULARIZATION:  3.48E-04 GREED: 0.09567  Newton 1.00  0.2499                
     
       CHARGES OF MIXED CHARGE DENSITY
:CTO   : INTERSTITIAL CHARGE =     6.776910
:CPC   : PW Pseudocharge     =    17.218598
:CTO001: CHARGE SPHERE  1    =    55.611545

:NEC03: NUCLEAR AND ELECTRONIC CHARGE    118.00000   118.00000

PW CHANGE     H    K    L      Current       Change    Residue
:PTO001:      0    0    0  6.44160915E-02 -1.691E-04 -1.769E-04
:PTO003:      0    2    0  1.64411963E-02  1.096E-05  3.090E-04
:PTO004:     -1    1    0  7.88457055E-02 -1.324E-04  7.121E-04
:PTO005:      0    2   -1 -9.10883251E-02  4.241E-04  1.937E-04
:PTO006:      0    0   -2 -4.72065398E-02  2.039E-04  5.677E-05
:PTO007:     -1    1   -1 -9.69053026E-02  5.136E-04  4.232E-04
:PTO008:      0    2   -2 -1.50449515E-02  1.780E-04  3.913E-04
:PTO009:     -1    1   -2 -7.49750507E-02  4.796E-04  1.582E-04
:PTO011:     -1    3    0 -1.15300669E-02  6.121E-05 -6.944E-05
:PTO012:     -1    3   -1 -5.06019663E-02  4.134E-04  4.263E-06
:PTO013:      0    4    0 -9.04031214E-03  1.356E-04  1.845E-04
:PTO014:      0    2   -3  2.06122708E-02 -2.025E-04 -3.068E-06

:ENE  : ********** TOTAL ENERGY IN Ry =       -36944.25113703

       TOTAL FORCE IN mRy/a.u. = |F|     Fx             Fy             Fz     with/without FOR in case.in2
:FOR001:   1.ATOM         25.149          0.000          0.000        -25.149 partial forces
       TOTAL FORCE WITH RESPECT TO GLOBAL CARTESIAN COORDINATES:
:FCA001:   1.ATOM                         0.000        -25.149          0.000 partial forces
       TOTAL FORCE WITH RESPECT TO THE GLOBAL COORDINATE SYSTEM:
:FGL001:   1.ATOM                 0.000000000   -25.148990707     0.000000000 partial forces
 Flat Integration
 New Mode for Coulomb Integral
 Consistent 3/8+Simpson combinations
 Extension of core to zero
 LDM version in phi
 Fifth-order quadrature in outwin


            ---------
:ITE006:  6. ITERATION
            ---------

:NATO :    1 INDEPENDENT AND    2 TOTAL ATOMS IN UNITCELL
       SUBSTANCE: aU                                                          

       LATTICE                      = CXY 
:POT  : POTENTIAL OPTION EX_LDA EC_LDA VX_LDA VC_LDA
:LAT  : LATTICE CONSTANTS=  5.93983 12.05341 10.40596    1.571    1.571    1.571
:VOL  : UNIT CELL VOLUME =     372.50797
       MODE OF CALCULATION IS       = RELA
       NON-SPINPOLARIZED CALCULATION
:IFFT  : FFT-parameters:   48   96   80 Factor: 2.00


   CONVERGENCE PARAMETER FOR PSEUDOCHARGE: NCON=  9
   MAXIMAL VALUE OF RMT(JATOM)*ABSK(NKK) : RK  =27.59363


:VKCOUL :  VK-COUL convergence: 0.788E-07
       ATOMNUMBER=  1 Pr1        VCOUL-ZERO =  0.31161E+00
:EFG001:                        EFG         =    -4.20382   *10**21  V / m**2
                               V20  TOT/SRF=    -3.64061    -0.04246
                               V22  TOT/SRF=    -0.54243    -0.00240
                               V22M TOT/SRF=     0.00000     0.00000
                               V21  TOT/SRF=     0.00000     0.00000
                               V21M TOT/SRF=     0.00000     0.00000

              1.55948    0.00000    0.00000        1.55948    0.00000    0.00000
              0.00000    2.64433    0.00000        0.00000    2.64433    0.00000
              0.00000    0.00000   -4.20382        0.00000    0.00000   -4.20382

         MAIN DIRECTIONS OF THE EFG   1.0000  0.0000  0.0000
                                      0.0000  1.0000  0.0000
                                      0.0000  0.0000  1.0000
:ANG001:  ANGLE WITH OLD X-AXIS =         0.0

:ETA001:                         ASYMM. ETA =     0.25806


     HELLMANN-FEYNMAN-FORCE IN mRy/a.u. = |F|  Fx       Fy             Fz
:FHF001:   1.ATOM    852.584310690737      0.000000000000      0.000000000000   -852.584310690737

:FIT001: LUSE= 13 SIGMA OF V-XC FIT FOR ATOM  1  0.2215620E-04
:FIT001: LUSE= 13 SIGMA OF V-XC FIT FOR ATOM  1  0.2215620E-04
:DEN  : DENSITY INTEGRAL  =        -14174.73991626   (Ry)
       ELS_POTENTIAL_AT Z=0 and Z=0.5:   0.84662   0.84662
       ELS_POTENTIAL_AT Y=0 and Y=0.5:   0.04072   0.04072
:VZERO:v0,v0c,v0x   0.19817   0.84662  -0.64846 v5,v5c,v5x   0.19817   0.84662  -0.64846
:VZERY:v0,v0c,v0x  -0.81872   0.04072  -0.85945 v5,v5c,v5x  -0.81872   0.04072  -0.85945
:VZERX:v0,v0c,v0x  -1.20275  -0.38934  -0.81341 v5,v5c,v5x  -1.20275  -0.38934  -0.81341
:LMAX-WF:   10   Non-Spherical LMAX:   4

          ATOMIC SPHERE DEPENDENT PARAMETERS FOR ATOM  Pr1       
:e__0001: OVERALL ENERGY PARAMETER IS    0.6493
          OVERALL BASIS SET ON ATOM IS LAPW
:E0_0001: E( 0)=    0.6493
             APW+lo
:E0_0001: E( 0)=   -1.7979   E(BOTTOM)=   -2.434   E(TOP)=   -1.162  4  5   206
             LOCAL ORBITAL
:E1_0001: E( 1)=    1.0493
             APW+lo
:E1_0001: E( 1)=   -0.3280   E(BOTTOM)=   -1.286   E(TOP)=    0.630  3  4   207
             LOCAL ORBITAL
:E3_0001: E( 3)=    0.8450   E(BOTTOM)=    0.639   E(TOP)=    1.051  0  1   122
             APW+lo
:E2_0001: E( 2)=    0.6493   E(BOTTOM)=    0.453   E(TOP)= -200.000  2 -1   120
             APW+lo

       K=   0.06250   0.00000   0.06250            1
:RKM  : MATRIX SIZE   352LOs:  40  RKM= 8.50  WEIGHT= 4.00  PGR:    
       EIGENVALUES ARE:
:EIG00001:      -1.7911752   -1.7570543   -0.5556709   -0.4144514   -0.3820859
:EIG00006:      -0.3693782   -0.3557533   -0.3557224    0.6321266    0.7274124
:EIG00011:       0.8324521    0.8372199    0.8382125    0.8423457    0.8506590
:EIG00016:       0.8675796    0.8743255    0.8749722    0.8792018    0.8822408
:EIG00021:       0.8902913    0.8916768    0.8921316    0.9050974    0.9279728
:EIG00026:       0.9475193    1.0430867    1.0489475    1.1109227    1.1450878
:EIG00031:       1.1472599    1.2882070    1.3199772    1.3860974    1.6896053
:EIG00036:       1.7358577    1.7740418    1.8473402    1.9770958    2.0410446
:EIG00041:       2.1742420    2.2622044
       ********************************************************

:KPT   :      NUMBER OF K-POINTS:   288
:GAP (global)   :    0.0    Ry =     0.0   eV (metal)
         Bandranges (emin - emax) and occupancy:
:BAN00004:   4   -0.531417   -0.414451  2.00000000
:BAN00005:   5   -0.505948   -0.382086  2.00000000
:BAN00006:   6   -0.483170   -0.361841  2.00000000
:BAN00007:   7   -0.451162   -0.355753  2.00000000
:BAN00008:   8   -0.391426   -0.348788  2.00000000
:BAN00009:   9    0.625269    0.795546  2.00000000
:BAN00010:  10    0.716499    0.816870  2.00000000
:BAN00011:  11    0.740268    0.843826  2.00000000
:BAN00012:  12    0.800763    0.849452  1.99144029
:BAN00013:  13    0.816713    0.862652  1.42917090
:BAN00014:  14    0.833843    0.870313  0.57938881
:BAN00015:  15    0.848904    0.873750  0.00000000
:BAN00016:  16    0.854834    0.875693  0.00000000
:BAN00017:  17    0.863611    0.879759  0.00000000
:BAN00018:  18    0.867945    0.881571  0.00000000
:BAN00019:  19    0.872800    0.885864  0.00000000
        Energy to separate low and high energystates:    0.57527


:NOE  : NUMBER OF ELECTRONS          =   26.000

:FER  : F E R M I - ENERGY(TETRAH.M.)=   0.8472157014
:GMA  : POTENTIAL AND CHARGE CUT-OFF  12.00 Ry**.5

:POS001: ATOM   -1 X,Y,Z = 0.00000 0.89750 0.25000  MULT= 2  ZZ= 59.000  Pr1       

       LMMAX 16
       LM=   0 0  1 0  2 0  2 2  3 0  3 2  4 0  4 2  4 4  5 0  5 2  5 4  6 0  6 2  6 4  6 6

:CHA001: TOTAL VALENCE CHARGE INSIDE SPHERE   1 =   9.5705    (RMT=  2.3000 )
:PCS001: PARTIAL CHARGES SPHERE =  1 S,P,D,F,PX,PY,PZ,D-Z2,D-X2Y2,D-XY,D-XZ,D-YZ 
:QTL001: 1.9422 4.9959 0.6804 1.9511 1.6626 1.6611 1.6722 0.1309 0.1235 0.1406 0.1380 0.1474
        Q-s-low E-s-low   Q-p-low E-p-low   Q-d-low E-d-low   Q-f-low E-f-low
:EPL001:  1.8685 -1.7558    4.9177 -0.4395    0.0061 -0.4756    0.0018 -0.4859
        Q-s-hi  E-s-hi    Q-p-hi  E-p-hi    Q-d-hi  E-d-hi    Q-f-hi  E-f-hi 
:EPH001:  0.0737  0.7520    0.0783  0.7860    0.6743  0.7790    1.9492  0.8247

                      VXX         VYY         VZZ       UP TO R
:VZZ001:             3.96074     5.71415    -9.67490       2.300

:CHA  : TOTAL VALENCE CHARGE INSIDE UNIT CELL =      26.000000

:SUM  : SUM OF EIGENVALUES =          -4.387417421


        1.ATOM      Pr1                  14 CORE STATES
       CORE-FORCE in mRy/a.u. = |F|      Fx             Fy             Fz
:FCO001:   1.ATOM    851.618524029429      0.000000000000      0.000000000000    851.618524029429

:1S 001: 1S               -3066.746910005 Ry
:2S 001: 2S                -492.506927155 Ry
:2PP001: 2P*               -465.605015136 Ry
:2P 001: 2P                -430.207972552 Ry
:3S 001: 3S                -105.602843225 Ry
:3PP001: 3P*                -94.140439842 Ry
:3P 001: 3P                 -87.132725445 Ry
:3DD001: 3D*                -67.059324117 Ry
:3D 001: 3D                 -65.547829650 Ry
:4S 001: 4S                 -20.271453309 Ry
:4PP001: 4P*                -15.977410996 Ry
:4P 001: 4P                 -14.448807438 Ry
:4DD001: 4D*                 -7.379623149 Ry
:4D 001: 4D                  -7.109819045 Ry
:CINT001 Core Integral Atom   1   45.998503

       DENSITY AT NUCLEUS
        JATOM        VALENCE       SEMI-CORE          CORE           TOTAL
:RTO001:   1      649.174533        0.000000   656825.195671   657474.370204
     
       CHARGES OF NEW CHARGE DENSITY
:NTO   : INTERSTITIAL CHARGE =     6.859015
:NPC   : PW Pseudocharge     =    17.314972
:NTO001: CHARGE SPHERE  1    =    55.568995

:NEC01: NUCLEAR AND ELECTRONIC CHARGE    118.00000   117.99700
     
       CHARGES OF OLD CHARGE DENSITY
:OTO   : INTERSTITIAL CHARGE =     6.776910
:OPC   : PW Pseudocharge     =    17.218598
:OTO001: CHARGE SPHERE  1    =    55.611545

:NEC02: NUCLEAR AND ELECTRONIC CHARGE    118.00000   118.00000
     
       CONVERGENCE TEST
:DTO001: DIFFERENCE IN SPHERE  1 =  0.0914151

:DIS  :  CHARGE DISTANCE       ( 0.0914151 for atom    1 spin 1)      0.0914151
 PW Mixed is          394
 
******************************************************
* MULTISECANT MIXING VER9 RELEASE 10.4.0              *
* Standard Mode with controls                        *
* Fixed density scale                                *
* Regularization       1.000E-04                     *
* Trust Upper Limit    5.000E+00                     *
* Max Number of Memory Steps    8                    *
******************************************************
 
:PWTMP   2.7058E+02  1.9467E+02  3.7251E+02
:PLANE:  PW TOTAL      5.3514 DISTAN   5.38E-02  1.01E+00 %
:CHARG:  CLM/ATOM   1382.0016 DISTAN   2.71E-01  1.96E-02 %
 
Step History
        DMIX         DMIXT        Red     Pred      Trust     Lambda    MagRel    MagAbs     Beta
  1   3.5000E-02   3.5000E-02 -1.00E+00  1.00E+00 -1.00E+01  1.00E+00  3.50E-02  3.50E-02  1.00E+00
  2   2.5000E-02   2.5000E-02  7.40E-01  1.00E+00 -1.00E+01  1.00E+00  2.50E-02  4.11E-02  1.00E+00
  3   4.3165E-02   4.3165E-02  7.82E-01  1.00E+00 -1.00E+01  2.49E-02  4.32E-02  5.25E-02  1.00E+00
  4   3.8353E-02   3.8353E-02  8.65E-01  7.96E-01  2.98E-01  1.58E+00  1.73E-01  1.65E-01  8.00E-01
  5   9.5883E-02   9.4746E-02  4.51E-01  5.31E-01  3.99E-01  1.55E+00  3.99E-01  3.29E-01  1.00E+00
  6   9.5666E-02   9.5666E-02 -1.00E+00  7.95E-01  5.32E-01  1.00E+00  2.50E-01  9.28E-02  1.00E+00
:JACOBIANS    9.489E-01   4.682E-01
  
:NORMS:  1/Froebius, Min, Max, Used   0.4928E+00  0.3959E+00  0.9962E+00  0.5073E+00
:INFO :  Number of Memory Steps    5 Skipping    0
:INFO :  SLambda=    1.7448037607  Max    1.7448037607
:PREDicted Charge, CTotal, PW Trust    4.524E-03   9.048E-03   1.706E-02
:PREDicted DMix, Beta, BLim   4.4826E-01  2.5196E+00  7.9172E-01

Eigenvalues, unscaled except for SY+YY
   #     SY Real        SY Imag          SS             YY         SY+YY Real      SY+YY Imag
   1   9.793077E-01   0.000000E+00   9.564855E-01   3.716390E+00   4.516154E+00   0.000000E+00
   2   3.234753E-01   0.000000E+00   2.309550E-01   1.008575E+00   2.457147E+00   0.000000E+00
   3   2.003649E-01   0.000000E+00   2.664915E-02   2.747640E-01   6.491252E-01   0.000000E+00
   4   1.293223E-15   0.000000E+00   2.869561E-06   2.486318E-04   2.521573E-05   0.000000E+00
   5   2.507763E-05   0.000000E+00  -4.427071E-18   2.230275E-05   2.910605E-04   0.000000E+00
 
:INFO :  Singular value  4.526E+00 Weight  1.000E+00 Projection -9.253E-02
:INFO :  Singular value  2.452E+00 Weight  1.000E+00 Projection -4.812E-02
:INFO :  Singular value  6.489E-01 Weight  1.000E+00 Projection -3.954E-01
:INFO :  Singular value  2.911E-04 Weight  3.803E-01 Projection  1.218E+00
:INFO :  Singular value  2.521E-05 Weight  4.580E-03 Projection  2.086E-02
:RANK :  ACTIVE   3.38/5  =  67.70 % ; YY RANK   3.31/5  =  66.26 %
 
:BLIM :  VZERO Control Off
:TRUST:  Step 7.10E-01  Charge 6.00E-02 (e) CTO  2.00E-01 (e) PW  4.24E-01 (e)
:DTRUS:  Lambda    1.310E-01 Increment    7.276E-12 Iterations    98 DMIX    2.365E-01
:INFOA:  Angle SubSpace to MSR1      1.14
:DIRM :  MEMORY  5/8  SCALE   1.000 RED  0.74 PRED  0.80 NEXT  0.62 
:INFO :  Limited by Atoms F by Step T

:TRAVE:  Charge 9.11E-03 (e) CTO  1.82E-02 (e) PW  7.75E-02 (e)
:DIRP :  |MSR1|= 3.787E-02 |PRATT|= 5.381E-02 ANGLE=  14.7 DEGREES
:DIRQ :  |MSR1|= 1.921E-01 |PRATT|= 2.706E-01 ANGLE=  21.1 DEGREES
:DIRT :  |MSR1|= 1.958E-01 |PRATT|= 2.759E-01 ANGLE=  20.9 DEGREES
:MIX  :   MSE1   REGULARIZATION:  3.72E-04 GREED: 0.23917  LMStep 0.90  0.7097 Step           
     
       CHARGES OF MIXED CHARGE DENSITY
:CTO   : INTERSTITIAL CHARGE =     6.785441
:CPC   : PW Pseudocharge     =    17.286010
:CTO001: CHARGE SPHERE  1    =    55.607280

:NEC03: NUCLEAR AND ELECTRONIC CHARGE    118.00000   118.00000

PW CHANGE     H    K    L      Current       Change    Residue
:PTO001:      0    0    0  6.46199600E-02  2.039E-04  5.075E-04
:PTO003:      0    2    0  1.64949719E-02  5.378E-05  4.659E-05
:PTO004:     -1    1    0  7.93891901E-02  5.435E-04  6.419E-04
:PTO005:      0    2   -1 -9.14019125E-02 -3.136E-04 -3.141E-04
:PTO006:      0    0   -2 -4.73821758E-02 -1.756E-04 -1.794E-04
:PTO007:     -1    1   -1 -9.71355251E-02 -2.302E-04 -1.648E-04
:PTO008:      0    2   -2 -1.48822834E-02  1.627E-04  2.374E-04
:PTO009:     -1    1   -2 -7.53178074E-02 -3.428E-04 -3.055E-04
:PTO011:     -1    3    0 -1.17274431E-02 -1.974E-04 -2.539E-04
:PTO012:     -1    3   -1 -5.09364010E-02 -3.344E-04 -3.307E-04
:PTO013:      0    4    0 -9.03731596E-03  2.996E-06  3.478E-05
:PTO014:      0    2   -3  2.08204032E-02  2.081E-04  2.274E-04

:ENE  : ********** TOTAL ENERGY IN Ry =       -36944.25073830

       TOTAL FORCE IN mRy/a.u. = |F|     Fx             Fy             Fz     with/without FOR in case.in2
:FOR001:   1.ATOM          0.966          0.000          0.000         -0.966 partial forces
       TOTAL FORCE WITH RESPECT TO GLOBAL CARTESIAN COORDINATES:
:FCA001:   1.ATOM                         0.000         -0.966          0.000 partial forces
       TOTAL FORCE WITH RESPECT TO THE GLOBAL COORDINATE SYSTEM:
:FGL001:   1.ATOM                 0.000000000    -0.965786661     0.000000000 partial forces
 Flat Integration
 New Mode for Coulomb Integral
 Consistent 3/8+Simpson combinations
 Extension of core to zero
 LDM version in phi
 Fifth-order quadrature in outwin


            ---------
:ITE007:  7. ITERATION
            ---------

:NATO :    1 INDEPENDENT AND    2 TOTAL ATOMS IN UNITCELL
       SUBSTANCE: aU                                                          

       LATTICE                      = CXY 
:POT  : POTENTIAL OPTION EX_LDA EC_LDA VX_LDA VC_LDA
:LAT  : LATTICE CONSTANTS=  5.93983 12.05341 10.40596    1.571    1.571    1.571
:VOL  : UNIT CELL VOLUME =     372.50797
       MODE OF CALCULATION IS       = RELA
       NON-SPINPOLARIZED CALCULATION
:IFFT  : FFT-parameters:   48   96   80 Factor: 2.00


   CONVERGENCE PARAMETER FOR PSEUDOCHARGE: NCON=  9
   MAXIMAL VALUE OF RMT(JATOM)*ABSK(NKK) : RK  =27.59363


:VKCOUL :  VK-COUL convergence: 0.111E-06
       ATOMNUMBER=  1 Pr1        VCOUL-ZERO =  0.31293E+00
:EFG001:                        EFG         =    -8.03096   *10**21  V / m**2
                               V20  TOT/SRF=    -6.95502    -0.04371
                               V22  TOT/SRF=    -0.90346    -0.00574
                               V22M TOT/SRF=     0.00000     0.00000
                               V21  TOT/SRF=     0.00000     0.00000
                               V21M TOT/SRF=     0.00000     0.00000

              3.11202    0.00000    0.00000        3.11202    0.00000    0.00000
              0.00000    4.91894    0.00000        0.00000    4.91894    0.00000
              0.00000    0.00000   -8.03096        0.00000    0.00000   -8.03096

         MAIN DIRECTIONS OF THE EFG   1.0000  0.0000  0.0000
                                      0.0000  1.0000  0.0000
                                      0.0000  0.0000  1.0000
:ANG001:  ANGLE WITH OLD X-AXIS =         0.0

:ETA001:                         ASYMM. ETA =     0.22499


     HELLMANN-FEYNMAN-FORCE IN mRy/a.u. = |F|  Fx       Fy             Fz
:FHF001:   1.ATOM   1474.712493822261      0.000000000000      0.000000000000  -1474.712493822261

:FIT001: LUSE= 13 SIGMA OF V-XC FIT FOR ATOM  1  0.5049262E-04
:FIT001: LUSE= 13 SIGMA OF V-XC FIT FOR ATOM  1  0.5049262E-04
:DEN  : DENSITY INTEGRAL  =        -14173.80748323   (Ry)
       ELS_POTENTIAL_AT Z=0 and Z=0.5:   0.84832   0.84832
       ELS_POTENTIAL_AT Y=0 and Y=0.5:   0.04309   0.04309
:VZERO:v0,v0c,v0x   0.20022   0.84832  -0.64810 v5,v5c,v5x   0.20022   0.84832  -0.64810
:VZERY:v0,v0c,v0x  -0.81709   0.04309  -0.86019 v5,v5c,v5x  -0.81709   0.04309  -0.86019
:VZERX:v0,v0c,v0x  -1.20424  -0.39027  -0.81397 v5,v5c,v5x  -1.20424  -0.39027  -0.81397
:LMAX-WF:   10   Non-Spherical LMAX:   4

          ATOMIC SPHERE DEPENDENT PARAMETERS FOR ATOM  Pr1       
:e__0001: OVERALL ENERGY PARAMETER IS    0.6479
          OVERALL BASIS SET ON ATOM IS LAPW
:E0_0001: E( 0)=    0.6479
             APW+lo
:E0_0001: E( 0)=   -1.8036   E(BOTTOM)=   -2.438   E(TOP)=   -1.169  4  5   199
             LOCAL ORBITAL
:E1_0001: E( 1)=    1.0479
             APW+lo
:E1_0001: E( 1)=   -0.3330   E(BOTTOM)=   -1.290   E(TOP)=    0.624  3  4   214
             LOCAL ORBITAL
:E3_0001: E( 3)=    0.8368   E(BOTTOM)=    0.632   E(TOP)=    1.042  0  1   121
             APW+lo
:E2_0001: E( 2)=    0.6479   E(BOTTOM)=    0.450   E(TOP)= -200.000  2 -1   120
             APW+lo

       K=   0.06250   0.00000   0.06250            1
:RKM  : MATRIX SIZE   352LOs:  40  RKM= 8.50  WEIGHT= 4.00  PGR:    
       EIGENVALUES ARE:
:EIG00001:      -1.7962730   -1.7624597   -0.5583554   -0.4186549   -0.3865152
:EIG00006:      -0.3733849   -0.3600265   -0.3598479    0.6323169    0.7273609
:EIG00011:       0.8272811    0.8306160    0.8310421    0.8362729    0.8440873
:EIG00016:       0.8599694    0.8660259    0.8668372    0.8713029    0.8737230
:EIG00021:       0.8812627    0.8844650    0.8855853    0.8966045    0.9242097
:EIG00026:       0.9453790    1.0414757    1.0477468    1.1095458    1.1436276
:EIG00031:       1.1458473    1.2867329    1.3179322    1.3842512    1.6890301
:EIG00036:       1.7349793    1.7734766    1.8464865    1.9767665    2.0414833
:EIG00041:       2.1746342    2.2621362
       ********************************************************

:KPT   :      NUMBER OF K-POINTS:   288
:GAP (global)   :    0.0    Ry =     0.0   eV (metal)
         Bandranges (emin - emax) and occupancy:
:BAN00004:   4   -0.534651   -0.418655  2.00000000
:BAN00005:   5   -0.508863   -0.386515  2.00000000
:BAN00006:   6   -0.486679   -0.365889  2.00000000
:BAN00007:   7   -0.455003   -0.360026  2.00000000
:BAN00008:   8   -0.395413   -0.352952  2.00000000
:BAN00009:   9    0.625442    0.792788  2.00000000
:BAN00010:  10    0.716327    0.812683  2.00000000
:BAN00011:  11    0.739761    0.837131  2.00000000
:BAN00012:  12    0.798588    0.843497  1.98461982
:BAN00013:  13    0.812439    0.855083  1.37975049
:BAN00014:  14    0.827728    0.862202  0.63562969
:BAN00015:  15    0.841550    0.865012  0.00000000
:BAN00016:  16    0.847021    0.868551  0.00000000
:BAN00017:  17    0.856674    0.872499  0.00000000
:BAN00018:  18    0.860457    0.874239  0.00000000
:BAN00019:  19    0.865344    0.879008  0.00000000
        Energy to separate low and high energystates:    0.57544


:NOE  : NUMBER OF ELECTRONS          =   26.000

:FER  : F E R M I - ENERGY(TETRAH.M.)=   0.8403039239
:GMA  : POTENTIAL AND CHARGE CUT-OFF  12.00 Ry**.5

:POS001: ATOM   -1 X,Y,Z = 0.00000 0.89750 0.25000  MULT= 2  ZZ= 59.000  Pr1       

       LMMAX 16
       LM=   0 0  1 0  2 0  2 2  3 0  3 2  4 0  4 2  4 4  5 0  5 2  5 4  6 0  6 2  6 4  6 6

:CHA001: TOTAL VALENCE CHARGE INSIDE SPHERE   1 =   9.6380    (RMT=  2.3000 )
:PCS001: PARTIAL CHARGES SPHERE =  1 S,P,D,F,PX,PY,PZ,D-Z2,D-X2Y2,D-XY,D-XZ,D-YZ 
:QTL001: 1.9412 4.9969 0.6553 2.0438 1.6634 1.6613 1.6721 0.1256 0.1163 0.1378 0.1326 0.1430
        Q-s-low E-s-low   Q-p-low E-p-low   Q-d-low E-d-low   Q-f-low E-f-low
:EPL001:  1.8690 -1.7612    4.9228 -0.4433    0.0060 -0.4781    0.0018 -0.4880
        Q-s-hi  E-s-hi    Q-p-hi  E-p-hi    Q-d-hi  E-d-hi    Q-f-hi  E-f-hi 
:EPH001:  0.0721  0.7500    0.0740  0.7825    0.6492  0.7757    2.0420  0.8192

                      VXX         VYY         VZZ       UP TO R
:VZZ001:             3.13786     7.20285   -10.34071       2.300

:CHA  : TOTAL VALENCE CHARGE INSIDE UNIT CELL =      26.000000

:SUM  : SUM OF EIGENVALUES =          -4.484990792


        1.ATOM      Pr1                  14 CORE STATES
[...]
:OPC   : PW Pseudocharge     =    17.294992
:OTO001: CHARGE SPHERE  1    =    55.613737

:NEC02: NUCLEAR AND ELECTRONIC CHARGE    118.00000   118.00000
     
       CONVERGENCE TEST
:DTO001: DIFFERENCE IN SPHERE  1 =  0.0004018

:DIS  :  CHARGE DISTANCE       ( 0.0004018 for atom    1 spin 1)      0.0004018
 PW Mixed is          394
 
******************************************************
* MULTISECANT MIXING VER9 RELEASE 10.4.0              *
* Standard Mode with controls                        *
* Fixed density scale                                *
* Regularization       1.000E-04                     *
* Trust Upper Limit    5.000E+00                     *
* Max Number of Memory Steps    8                    *
******************************************************
 
:PWTMP   2.7058E+02  1.9467E+02  3.7251E+02
:PLANE:  PW TOTAL      5.3742 DISTAN   1.72E-04  3.20E-03 %
:CHARG:  CLM/ATOM   1381.9557 DISTAN   7.49E-04  5.42E-05 %
 
Step History
        DMIX         DMIXT        Red     Pred      Trust     Lambda    MagRel    MagAbs     Beta
  4   3.8353E-02   3.8353E-02  8.65E-01  7.96E-01  2.98E-01  1.58E+00  1.73E-01  1.65E-01  8.00E-01
  5   9.5883E-02   9.4746E-02  4.51E-01  5.31E-01  3.99E-01  1.55E+00  3.99E-01  3.29E-01  1.00E+00
  6   9.5666E-02   9.5666E-02  7.43E-01  7.95E-01  5.32E-01  1.74E+00  2.50E-01  9.28E-02  1.00E+00
  7   2.3917E-01   2.3651E-01  3.85E-01  6.20E-01  7.10E-01  1.79E+00  7.10E-01  1.96E-01  1.00E+00
  8   2.1685E-01   2.1685E-01  3.45E-01  7.49E-01  1.58E+00  6.41E-01  3.60E-01  3.82E-02  1.00E+00
  9   2.3309E-01   2.3309E-01  6.31E-01  8.84E-01  2.10E+00  1.00E+00  4.34E-01  1.59E-02  1.00E+00
 10   3.5000E-01   3.5000E-01  2.29E-01  3.01E-01  2.81E+00  1.41E+00  6.05E-01  1.40E-02  1.00E+00
 11   3.4738E-01   3.4738E-01  4.56E-01  3.64E-01  3.74E+00  1.69E+00  6.12E-01  3.25E-03  9.64E-01
 12   2.4027E-01   2.4027E-01 -1.00E+00  4.23E-01  4.99E+00  1.00E+00  2.81E-01  6.80E-04  8.59E-01
:JACOBIANS    1.117E+00   2.704E+00
  
:NORMS:  1/Froebius, Min, Max, Used   0.6973E+00  0.5406E+00  0.1002E+01  0.9160E+00
:INFO :  Number of Memory Steps    8 Skipping    3
:INFO :  SLambda=    1.7687848422  Max    1.7687848422
:PREDicted Charge, CTotal, PW Trust    1.248E-04   2.496E-04   6.118E-05
:PREDicted DMix, Beta, BLim   7.0992E-01  1.3303E+00  3.2271E+00

Eigenvalues, unscaled except for SY+YY
   #     SY Real        SY Imag          SS             YY         SY+YY Real      SY+YY Imag
   1   2.862643E+00   0.000000E+00   2.846967E+00   3.393146E+00   8.220941E+00   0.000000E+00
   2   1.232642E+00   0.000000E+00   8.103865E-01   2.139491E+00   4.210941E+00   0.000000E+00
   3   2.649640E-01   0.000000E+00   1.492793E-01   1.772579E+00   2.559347E+00   0.000000E+00
   4   1.333779E-01   0.000000E+00   4.059533E-02   4.357672E-01   6.472416E-01   0.000000E+00
   5   9.549867E-02   0.000000E+00   3.085566E-02   1.297064E-01   3.426622E-01   0.000000E+00
   6   2.240555E-02   0.000000E+00   7.062951E-03   8.763319E-02   4.349442E-02   0.000000E+00
   7   9.508075E-03   0.000000E+00   2.660664E-03   2.439871E-02   3.515397E-02   0.000000E+00
   8   7.273355E-03   0.000000E+00   1.701634E-03   1.727784E-02   1.267070E-01   0.000000E+00
 
:INFO :  Singular value  8.227E+00 Weight  1.000E+00 Projection  4.499E-05
:INFO :  Singular value  4.229E+00 Weight  1.000E+00 Projection  7.888E-05
:INFO :  Singular value  2.548E+00 Weight  1.000E+00 Projection -2.825E-04
:INFO :  Singular value  6.474E-01 Weight  1.000E+00 Projection  4.795E-04
:INFO :  Singular value  3.426E-01 Weight  1.000E+00 Projection -4.497E-04
:INFO :  Singular value  1.267E-01 Weight  1.000E+00 Projection  4.659E-04
:INFO :  Singular value  4.411E-02 Weight  9.999E-01 Projection -2.861E-03
:INFO :  Singular value  3.464E-02 Weight  9.999E-01 Projection -3.143E-03
:RANK :  ACTIVE   8.00/8  = 100.00 % ; YY RANK   8.00/8  =  99.99 %
 
:BLIM :  VZERO Control Off
:TRUST:  Step 6.65E+00  Charge 1.97E-02 (e) CTO  6.55E-02 (e) PW  1.39E-01 (e)
:DIRM :  MEMORY  8/8  SCALE   1.000 RED  0.32 PRED  0.42 NEXT  0.23 
:TRAVE:  Charge 3.82E-04 (e) CTO  7.63E-04 (e) PW  1.60E-03 (e)
:DIRP :  |MSR1|= 1.383E-04 |PRATT|= 1.719E-04 ANGLE=  16.9 DEGREES
:DIRQ :  |MSR1|= 5.239E-04 |PRATT|= 7.487E-04 ANGLE=  24.2 DEGREES
:DIRT :  |MSR1|= 5.419E-04 |PRATT|= 7.682E-04 ANGLE=  23.9 DEGREES
:MIX  :   MSE1   REGULARIZATION:  3.39E-04 GREED: 0.30055  Newton 1.00  0.7054                
     
       CHARGES OF MIXED CHARGE DENSITY
:CTO   : INTERSTITIAL CHARGE =     6.772337
:CPC   : PW Pseudocharge     =    17.295137
:CTO001: CHARGE SPHERE  1    =    55.613832

:NEC03: NUCLEAR AND ELECTRONIC CHARGE    118.00000   118.00000

PW CHANGE     H    K    L      Current       Change    Residue
:PTO001:      0    0    0  6.46092841E-02 -1.204E-07  7.942E-07
:PTO003:      0    2    0  1.64304840E-02 -4.924E-07 -9.326E-07
:PTO004:     -1    1    0  7.93703364E-02  2.086E-07  4.391E-07
:PTO005:      0    2   -1 -9.14912225E-02 -1.142E-06 -1.327E-06
:PTO006:      0    0   -2 -4.74075242E-02  2.473E-07  2.104E-07
:PTO007:     -1    1   -1 -9.72911991E-02 -2.460E-06 -3.124E-06
:PTO008:      0    2   -2 -1.48438197E-02 -2.001E-07 -1.942E-07
:PTO009:     -1    1   -2 -7.54326972E-02 -1.890E-06 -2.481E-06
:PTO011:     -1    3    0 -1.18566488E-02 -1.987E-06 -2.546E-06
:PTO012:     -1    3   -1 -5.09853365E-02 -1.538E-06 -2.017E-06
:PTO013:      0    4    0 -9.02983555E-03 -2.449E-07 -2.956E-07
:PTO014:      0    2   -3  2.07988399E-02 -9.138E-07 -9.058E-07

:ENE  : ********** TOTAL ENERGY IN Ry =       -36944.25008788

       TOTAL FORCE IN mRy/a.u. = |F|     Fx             Fy             Fz     with/without FOR in case.in2
:FOR001:   1.ATOM         16.498          0.000          0.000        -16.498 partial forces
       TOTAL FORCE WITH RESPECT TO GLOBAL CARTESIAN COORDINATES:
:FCA001:   1.ATOM                         0.000        -16.498          0.000 partial forces
       TOTAL FORCE WITH RESPECT TO THE GLOBAL COORDINATE SYSTEM:
:FGL001:   1.ATOM                 0.000000000   -16.497578382     0.000000000 partial forces
 Flat Integration
 New Mode for Coulomb Integral
 Consistent 3/8+Simpson combinations
 Extension of core to zero
 LDM version in phi
 Fifth-order quadrature in outwin


            ---------
:ITE013: 13. ITERATION
            ---------

:NATO :    1 INDEPENDENT AND    2 TOTAL ATOMS IN UNITCELL
       SUBSTANCE: aU                                                          

       LATTICE                      = CXY 
:POT  : POTENTIAL OPTION EX_LDA EC_LDA VX_LDA VC_LDA
:LAT  : LATTICE CONSTANTS=  5.93983 12.05341 10.40596    1.571    1.571    1.571
:VOL  : UNIT CELL VOLUME =     372.50797
       MODE OF CALCULATION IS       = RELA
       NON-SPINPOLARIZED CALCULATION
:IFFT  : FFT-parameters:   48   96   80 Factor: 2.00


   CONVERGENCE PARAMETER FOR PSEUDOCHARGE: NCON=  9
   MAXIMAL VALUE OF RMT(JATOM)*ABSK(NKK) : RK  =27.59363


:VKCOUL :  VK-COUL convergence: 0.123E-06
       ATOMNUMBER=  1 Pr1        VCOUL-ZERO =  0.31293E+00
:EFG001:                        EFG         =    -9.59438   *10**21  V / m**2
                               V20  TOT/SRF=    -8.30898    -0.04470
                               V22  TOT/SRF=    -1.55941    -0.00502
                               V22M TOT/SRF=     0.00000     0.00000
                               V21  TOT/SRF=     0.00000     0.00000
                               V21M TOT/SRF=     0.00000     0.00000

              3.23778    0.00000    0.00000        3.23778    0.00000    0.00000
              0.00000    6.35660    0.00000        0.00000    6.35660    0.00000
              0.00000    0.00000   -9.59438        0.00000    0.00000   -9.59438

         MAIN DIRECTIONS OF THE EFG   1.0000  0.0000  0.0000
                                      0.0000  1.0000  0.0000
                                      0.0000  0.0000  1.0000
:ANG001:  ANGLE WITH OLD X-AXIS =         0.0

:ETA001:                         ASYMM. ETA =     0.32507


     HELLMANN-FEYNMAN-FORCE IN mRy/a.u. = |F|  Fx       Fy             Fz
:FHF001:   1.ATOM   1638.481728436030      0.000000000000      0.000000000000  -1638.481728436030

:FIT001: LUSE= 13 SIGMA OF V-XC FIT FOR ATOM  1  0.5795891E-04
:FIT001: LUSE= 13 SIGMA OF V-XC FIT FOR ATOM  1  0.5795891E-04
:DEN  : DENSITY INTEGRAL  =        -14174.12961751   (Ry)
       ELS_POTENTIAL_AT Z=0 and Z=0.5:   0.84730   0.84730
       ELS_POTENTIAL_AT Y=0 and Y=0.5:   0.04231   0.04231
:VZERO:v0,v0c,v0x   0.19991   0.84730  -0.64740 v5,v5c,v5x   0.19991   0.84730  -0.64740
:VZERY:v0,v0c,v0x  -0.81757   0.04231  -0.85988 v5,v5c,v5x  -0.81757   0.04231  -0.85988
:VZERX:v0,v0c,v0x  -1.20379  -0.39017  -0.81362 v5,v5c,v5x  -1.20379  -0.39017  -0.81362
:LMAX-WF:   10   Non-Spherical LMAX:   4

          ATOMIC SPHERE DEPENDENT PARAMETERS FOR ATOM  Pr1       
:e__0001: OVERALL ENERGY PARAMETER IS    0.6428
          OVERALL BASIS SET ON ATOM IS LAPW
:E0_0001: E( 0)=    0.6428
             APW+lo
:E0_0001: E( 0)=   -1.8021   E(BOTTOM)=   -2.437   E(TOP)=   -1.167  4  5   202
             LOCAL ORBITAL
:E1_0001: E( 1)=    1.0428
             APW+lo
:E1_0001: E( 1)=   -0.3316   E(BOTTOM)=   -1.289   E(TOP)=    0.626  3  4   208
             LOCAL ORBITAL
:E3_0001: E( 3)=    0.8396   E(BOTTOM)=    0.634   E(TOP)=    1.045  0  1   118
             APW+lo
:E2_0001: E( 2)=    0.6428   E(BOTTOM)=    0.451   E(TOP)= -200.000  2 -1   119
             APW+lo

       K=   0.06250   0.00000   0.06250            1
:RKM  : MATRIX SIZE   352LOs:  40  RKM= 8.50  WEIGHT= 4.00  PGR:    
       EIGENVALUES ARE:
:EIG00001:      -1.7948662   -1.7609619   -0.5576546   -0.4171977   -0.3850723
:EIG00006:      -0.3725165   -0.3589383   -0.3589293    0.6323523    0.7276032
:EIG00011:       0.8291124    0.8329863    0.8337363    0.8382212    0.8466043
:EIG00016:       0.8623706    0.8687514    0.8694257    0.8737814    0.8768653
:EIG00021:       0.8841663    0.8871524    0.8876036    0.8996966    0.9254980
:EIG00026:       0.9461091    1.0421060    1.0483068    1.1100158    1.1441851
:EIG00031:       1.1462282    1.2870229    1.3184360    1.3847932    1.6893181
:EIG00036:       1.7351517    1.7738442    1.8468979    1.9768955    2.0412864
:EIG00041:       2.1747888    2.2622227
       ********************************************************

:KPT   :      NUMBER OF K-POINTS:   288
:GAP (global)   :    0.0    Ry =     0.0   eV (metal)
         Bandranges (emin - emax) and occupancy:
:BAN00004:   4   -0.533550   -0.417198  2.00000000
:BAN00005:   5   -0.508104   -0.385072  2.00000000
:BAN00006:   6   -0.485571   -0.365014  2.00000000
:BAN00007:   7   -0.453902   -0.358938  2.00000000
:BAN00008:   8   -0.394376   -0.352028  2.00000000
:BAN00009:   9    0.625477    0.793569  2.00000000
:BAN00010:  10    0.716557    0.814167  2.00000000
:BAN00011:  11    0.740100    0.839598  2.00000000
:BAN00012:  12    0.799398    0.845472  1.98759282
:BAN00013:  13    0.813879    0.857789  1.39853740
:BAN00014:  14    0.829791    0.864917  0.61386978
:BAN00015:  15    0.844153    0.867926  0.00000000
:BAN00016:  16    0.849789    0.871111  0.00000000
:BAN00017:  17    0.859184    0.874822  0.00000000
:BAN00018:  18    0.862897    0.876676  0.00000000
:BAN00019:  19    0.867909    0.881350  0.00000000
        Energy to separate low and high energystates:    0.57548


:NOE  : NUMBER OF ELECTRONS          =   26.000

:FER  : F E R M I - ENERGY(TETRAH.M.)=   0.8427248388
:GMA  : POTENTIAL AND CHARGE CUT-OFF  12.00 Ry**.5

:POS001: ATOM   -1 X,Y,Z = 0.00000 0.89750 0.25000  MULT= 2  ZZ= 59.000  Pr1       

       LMMAX 16
       LM=   0 0  1 0  2 0  2 2  3 0  3 2  4 0  4 2  4 4  5 0  5 2  5 4  6 0  6 2  6 4  6 6

:CHA001: TOTAL VALENCE CHARGE INSIDE SPHERE   1 =   9.6153    (RMT=  2.3000 )
:PCS001: PARTIAL CHARGES SPHERE =  1 S,P,D,F,PX,PY,PZ,D-Z2,D-X2Y2,D-XY,D-XZ,D-YZ 
:QTL001: 1.9415 4.9969 0.6639 2.0121 1.6633 1.6614 1.6722 0.1273 0.1187 0.1390 0.1344 0.1446
        Q-s-low E-s-low   Q-p-low E-p-low   Q-d-low E-d-low   Q-f-low E-f-low
:EPL001:  1.8689 -1.7597    4.9215 -0.4422    0.0061 -0.4776    0.0018 -0.4871
        Q-s-hi  E-s-hi    Q-p-hi  E-p-hi    Q-d-hi  E-d-hi    Q-f-hi  E-f-hi 
:EPH001:  0.0727  0.7508    0.0754  0.7837    0.6579  0.7769    2.0103  0.8211

                      VXX         VYY         VZZ       UP TO R
:VZZ001:             3.20963     6.33077    -9.54039       2.300

:CHA  : TOTAL VALENCE CHARGE INSIDE UNIT CELL =      26.000000

:SUM  : SUM OF EIGENVALUES =          -4.455448804


        1.ATOM      Pr1                  14 CORE STATES
       CORE-FORCE in mRy/a.u. = |F|      Fx             Fy             Fz
:FCO001:   1.ATOM   1622.077731446546      0.000000000000      0.000000000000   1622.077731446546

:1S 001: 1S               -3066.758591567 Ry
:2S 001: 2S                -492.512669746 Ry
:2PP001: 2P*               -465.611300090 Ry
:2P 001: 2P                -430.213987016 Ry
:3S 001: 3S                -105.607921448 Ry
:3PP001: 3P*                -94.145566077 Ry
:3P 001: 3P                 -87.137815614 Ry
:3DD001: 3D*                -67.064206181 Ry
:3D 001: 3D                 -65.552708093 Ry
:4S 001: 4S                 -20.277352458 Ry
:4PP001: 4P*                -15.983389168 Ry
:4P 001: 4P                 -14.454921375 Ry
:4DD001: 4D*                 -7.385762288 Ry
:4D 001: 4D                  -7.115985194 Ry
:CINT001 Core Integral Atom   1   45.998506

       DENSITY AT NUCLEUS
        JATOM        VALENCE       SEMI-CORE          CORE           TOTAL
:RTO001:   1      649.273793        0.000000   656825.933323   657475.207116
     
       CHARGES OF NEW CHARGE DENSITY
:NTO   : INTERSTITIAL CHARGE =     6.769346
:NPC   : PW Pseudocharge     =    17.287517
:NTO001: CHARGE SPHERE  1    =    55.613832

:NEC01: NUCLEAR AND ELECTRONIC CHARGE    118.00000   117.99701
     
       CHARGES OF OLD CHARGE DENSITY
:OTO   : INTERSTITIAL CHARGE =     6.772337
:OPC   : PW Pseudocharge     =    17.295137
:OTO001: CHARGE SPHERE  1    =    55.613832

:NEC02: NUCLEAR AND ELECTRONIC CHARGE    118.00000   118.00000
     
       CONVERGENCE TEST
:DTO001: DIFFERENCE IN SPHERE  1 =  0.0000318

:DIS  :  CHARGE DISTANCE       ( 0.0000318 for atom    1 spin 1)      0.0000318
 PW Mixed is          394
 
******************************************************
* MULTISECANT MIXING VER9 RELEASE 10.4.0              *
* Standard Mode with controls                        *
* Fixed density scale                                *
* Regularization       1.000E-04                     *
* Trust Upper Limit    5.000E+00                     *
* Max Number of Memory Steps    8                    *
******************************************************
 
:PWTMP   2.7058E+02  1.9467E+02  3.7251E+02
:PLANE:  PW TOTAL      5.3742 DISTAN   3.02E-05  5.61E-04 %
:CHARG:  CLM/ATOM   1381.9558 DISTAN   1.24E-04  8.98E-06 %
 
Step History
        DMIX         DMIXT        Red     Pred      Trust     Lambda    MagRel    MagAbs     Beta
  5   9.5883E-02   9.4746E-02  4.51E-01  5.31E-01  3.99E-01  1.55E+00  3.99E-01  3.29E-01  1.00E+00
  6   9.5666E-02   9.5666E-02  7.43E-01  7.95E-01  5.32E-01  1.74E+00  2.50E-01  9.28E-02  1.00E+00
  7   2.3917E-01   2.3651E-01  3.85E-01  6.20E-01  7.10E-01  1.79E+00  7.10E-01  1.96E-01  1.00E+00
  8   2.1685E-01   2.1685E-01  3.45E-01  7.49E-01  1.58E+00  6.41E-01  3.60E-01  3.82E-02  1.00E+00
  9   2.3309E-01   2.3309E-01  6.31E-01  8.84E-01  2.10E+00  1.00E+00  4.34E-01  1.59E-02  1.00E+00
 10   3.5000E-01   3.5000E-01  2.29E-01  3.01E-01  2.81E+00  1.41E+00  6.05E-01  1.40E-02  1.00E+00
 11   3.4738E-01   3.4738E-01  4.56E-01  3.64E-01  3.74E+00  1.69E+00  6.12E-01  3.25E-03  9.64E-01
 12   2.4027E-01   2.4027E-01  3.18E-01  4.23E-01  4.99E+00  1.77E+00  2.81E-01  6.80E-04  8.59E-01
 13   3.0055E-01   3.0055E-01 -1.00E+00  2.30E-01  6.65E+00  1.00E+00  7.05E-01  5.42E-04  1.00E+00
:JACOBIANS    1.114E+00   2.975E+00
  
:NORMS:  1/Froebius, Min, Max, Used   0.7107E+00  0.5454E+00  0.9889E+00  0.9480E+00
:INFO :  Number of Memory Steps    8 Skipping    4
:INFO :  SLambda=    1.7043866427  Max    1.7043866427
:PREDicted Charge, CTotal, PW Trust    1.008E-04   2.016E-04   2.534E-06
:PREDicted DMix, Beta, BLim   4.7397E-02  1.0226E+00  1.8686E+00

Eigenvalues, unscaled except for SY+YY
   #     SY Real        SY Imag          SS             YY         SY+YY Real      SY+YY Imag
   1   2.591392E+00   0.000000E+00   2.551202E+00   2.838707E+00   7.137796E+00   0.000000E+00
   2   1.368583E+00   0.000000E+00   9.574988E-01   2.304613E+00   4.595193E+00   0.000000E+00
   3   6.937549E-01   0.000000E+00   4.748028E-01   1.782049E+00   2.839459E+00   0.000000E+00
   4   1.719000E-01   0.000000E+00   2.941335E-02   7.664471E-01   1.309440E+00   0.000000E+00
   5   5.199067E-02   0.000000E+00   1.569821E-02   2.018280E-01   3.225367E-01   0.000000E+00
   6   2.464128E-03   0.000000E+00   8.636463E-03   7.337580E-02   1.038296E-01   0.000000E+00
   7   1.846778E-02   0.000000E+00   2.843445E-03   2.905959E-02   9.407084E-03   0.000000E+00
   8   1.125876E-02   0.000000E+00   7.572248E-04   3.920423E-03   5.055492E-02   0.000000E+00
 
:INFO :  Singular value  7.142E+00 Weight  1.000E+00 Projection  1.357E-05
:INFO :  Singular value  4.608E+00 Weight  1.000E+00 Projection -1.584E-05
:INFO :  Singular value  2.832E+00 Weight  1.000E+00 Projection  3.543E-05
:INFO :  Singular value  1.309E+00 Weight  1.000E+00 Projection -3.627E-05
:INFO :  Singular value  3.225E-01 Weight  1.000E+00 Projection  1.129E-04
:INFO :  Singular value  1.038E-01 Weight  1.000E+00 Projection -4.405E-05
:INFO :  Singular value  5.054E-02 Weight  1.000E+00 Projection  3.232E-05
:INFO :  Singular value  9.407E-03 Weight  9.991E-01 Projection  4.809E-04
:RANK :  ACTIVE   8.00/8  =  99.99 % ; YY RANK   7.99/8  =  99.93 %
 
:BLIM :  VZERO Control Off
:TRUST:  Step 8.87E+00  Charge 1.57E-02 (e) CTO  5.24E-02 (e) PW  1.11E-01 (e)
:DIRM :  MEMORY  8/8  SCALE   1.000 RED  0.17 PRED  0.23 NEXT  0.69 
:TRAVE:  Charge 1.93E-04 (e) CTO  3.86E-04 (e) PW  8.06E-04 (e)
:DIRP :  |MSR1|= 1.946E-05 |PRATT|= 3.016E-05 ANGLE=  47.7 DEGREES
:DIRQ :  |MSR1|= 4.110E-05 |PRATT|= 1.240E-04 ANGLE=  37.3 DEGREES
:DIRT :  |MSR1|= 4.548E-05 |PRATT|= 1.277E-04 ANGLE=  39.9 DEGREES
:MIX  :   MSE1   REGULARIZATION:  2.84E-04 GREED: 0.16811  Newton 1.00  0.3563                
     
       CHARGES OF MIXED CHARGE DENSITY
:CTO   : INTERSTITIAL CHARGE =     6.772328
:CPC   : PW Pseudocharge     =    17.295174
:CTO001: CHARGE SPHERE  1    =    55.613836

:NEC03: NUCLEAR AND ELECTRONIC CHARGE    118.00000   118.00000

PW CHANGE     H    K    L      Current       Change    Residue
:PTO001:      0    0    0  6.46093624E-02  7.831E-08  3.761E-08
:PTO003:      0    2    0  1.64304753E-02 -8.753E-09 -9.922E-08
:PTO004:     -1    1    0  7.93705708E-02  2.344E-07  4.496E-08
:PTO005:      0    2   -1 -9.14914491E-02 -2.266E-07  1.416E-07
:PTO006:      0    0   -2 -4.74076471E-02 -1.229E-07 -6.831E-08
:PTO007:     -1    1   -1 -9.72915521E-02 -3.530E-07 -1.217E-07
:PTO008:      0    2   -2 -1.48438076E-02  1.217E-08  1.788E-07
:PTO009:     -1    1   -2 -7.54331322E-02 -4.350E-07 -4.980E-07
:PTO011:     -1    3    0 -1.18568503E-02 -2.014E-07 -3.477E-07
:PTO012:     -1    3   -1 -5.09857361E-02 -3.996E-07 -4.569E-07
:PTO013:      0    4    0 -9.02987847E-03 -4.292E-08  4.790E-08
:PTO014:      0    2   -3  2.07989492E-02  1.093E-07  5.643E-08

:ENE  : ********** TOTAL ENERGY IN Ry =       -36944.25008777

       TOTAL FORCE IN mRy/a.u. = |F|     Fx             Fy             Fz     with/without FOR in case.in2
:FOR001:   1.ATOM         16.404          0.000          0.000        -16.404 partial forces
       TOTAL FORCE WITH RESPECT TO GLOBAL CARTESIAN COORDINATES:
:FCA001:   1.ATOM                         0.000        -16.404          0.000 partial forces
       TOTAL FORCE WITH RESPECT TO THE GLOBAL COORDINATE SYSTEM:
:FGL001:   1.ATOM                 0.000000000   -16.403996989     0.000000000 partial forces
