
------- case.scf0 --------
 Flat Integration
 New Mode for Coulomb Integral
 Consistent 3/8+Simpson combinations
 Extension of core to zero
 LDM version in phi
 Fifth-order quadrature in outwin


            ---------
:ITE020: 20. ITERATION
            ---------

:NATO :    1 INDEPENDENT AND    1 TOTAL ATOMS IN UNITCELL
       SUBSTANCE: blebleble                                                   

       LATTICE                      = F   
:POT  : POTENTIAL OPTION EX_LDA EC_LDA VX_LDA VC_LDA
:LAT  : LATTICE CONSTANTS=  7.33567  7.33567  7.33567    1.571    1.571    1.571
:VOL  : UNIT CELL VOLUME =      98.68671
       MODE OF CALCULATION IS       = RELA
       NON-SPINPOLARIZED CALCULATION
:IFFT  : FFT-parameters:   60   60   60 Factor: 2.00


   CONVERGENCE PARAMETER FOR PSEUDOCHARGE: NCON=  9
   MAXIMAL VALUE OF RMT(JATOM)*ABSK(NKK) : RK  =29.97839


:VKCOUL :  VK-COUL convergence: 0.270E-06
       ATOMNUMBER=  1 Pr         VCOUL-ZERO =  0.11209E+01
:FIT001: LUSE= 13 SIGMA OF V-XC FIT FOR ATOM  1  0.1981413E-03
:FIT001: LUSE= 13 SIGMA OF V-XC FIT FOR ATOM  1  0.1981413E-03
:DEN  : DENSITY INTEGRAL  =         -7133.02529905   (Ry)
       ELS_POTENTIAL_AT Z=0 and Z=0.5:  -3.20216  -3.20216
       ELS_POTENTIAL_AT Y=0 and Y=0.5:   0.00000   0.00000
:VZERO:v0,v0c,v0x  -4.40059  -3.20216  -1.19842 v5,v5c,v5x  -4.40059  -3.20216  -1.19842
:VZERY:v0,v0c,v0x  -1.01630   0.00000  -1.01630 v5,v5c,v5x  -1.01630   0.00000  -1.01630
:VZERX:v0,v0c,v0x  -1.01630   0.00000  -1.01630 v5,v5c,v5x  -1.01630   0.00000  -1.01630

------- case.scf1 --------
:LMAX-WF:   10   Non-Spherical LMAX:   4

          ATOMIC SPHERE DEPENDENT PARAMETERS FOR ATOM  Pr        
:e__0001: OVERALL ENERGY PARAMETER IS    1.3924
          OVERALL BASIS SET ON ATOM IS LAPW
:E0_0001: E( 0)=    1.3924
             APW+lo
:E0_0001: E( 0)=   -1.0713   E(BOTTOM)=   -1.478   E(TOP)=   -0.665  4  5   273
             LOCAL ORBITAL
:E1_0001: E( 1)=    1.7924
             APW+lo
:E1_0001: E( 1)=    0.2969   E(BOTTOM)=   -0.388   E(TOP)=    0.981  3  4   274
             LOCAL ORBITAL
:E3_0001: E( 3)=    1.6196   E(BOTTOM)=    1.461   E(TOP)=    1.778  0  1   123
             APW+lo
:E2_0001: E( 2)=    1.3924   E(BOTTOM)=    1.150   E(TOP)= -200.000  2 -1   125
             APW+lo

       K=   0.00000   0.00000   0.00000            1
:RKM  : MATRIX SIZE    79LOs:  20  RKM= 7.42  WEIGHT= 1.00  PGR:    
       EIGENVALUES ARE:
:EIG00001:      -1.2366581    0.5805197    0.5805197    0.5805197    1.4685570
:EIG00006:       1.5901465    1.5901465    1.5901465    1.6581831    1.7191861
:EIG00011:       1.7191861    1.7191861    1.7287511    1.7287511    1.7287511
:EIG00016:       2.1980530    2.1980530    2.7347459    3.1061379    3.1821853
:EIG00021:       3.1821853    3.1821853    5.3186050    5.3186050    5.3186050
:EIG00026:       5.3271032    5.3271032    5.6522411    5.6522411    5.6522411
:EIG00031:       6.3870665    6.8709383    6.8709383    6.8709383    7.5281262
:EIG00036:       7.5281262    7.5281262    7.9388740    7.9388740    7.9388740
:EIG00041:       8.0459977    8.0459977    8.1267264    8.1267264    8.1267264
:EIG00046:       8.3419435    8.3419435    8.3419435    8.4170859    8.4170859
 
:EIG00051:       8.6027284    8.6543036    8.6573029    8.6573029    8.6573029
       ********************************************************

:KPT   :      NUMBER OF K-POINTS:   165

------- case.scfso --------
   0.0   0.0 angle (M,z), angle (M,x) deg
 
        SPIN-ORBIT EIGENVALUES:
     K=   0.00000   0.00000   0.00000            1
      MATRIX SIZE=  110   WEIGHT= 1.00
     EIGENVALUES ARE:
          -1.2366581   -1.2366581    0.4055458    0.4055458    0.6636783
           0.6636783    0.6636783    0.6636783    1.4679751    1.4679751
           1.5843936    1.5843936    1.5843936    1.5843936    1.5994133
           1.5994133    1.6581831    1.6581831    1.7137235    1.7137235
           1.7137235    1.7137235    1.7247464    1.7247464    1.7291664
           1.7291664    1.7321796    1.7321796    1.7321796    1.7321796
           2.1984068    2.1984068    2.1984068    2.1984068    2.7348546
           2.7348546    3.1061379    3.1061379    3.1770680    3.1770680

           3.1848975    3.1848975    3.1848975    3.1848975
       ********************************************************

------- case.scf2 --------
:GMA  : POTENTIAL AND CHARGE CUT-OFF  12.00 Ry**.5




:POS001: at.nr.   1 position = 0.00000 0.00000 0.50000  multiplicity =  1

       lmmax  5
       lm=   0 0  4 0  4 4  6 0  6 4
:FER gutzwiller fermi energy   1.59781
:EORB          0.060482240
:SUM sum of gutz band energies          6.835697897

:CHA001: total charge inside sphere   1 =    11.315298
:PCS001: partial charges sphere =  1 s,p,d,f,      d-eg,d-t2g 
:QTL001: 2.0265 5.3049 1.5075 2.4477 0.0000 0.0000 0.0000 0.5807 0.9268 0.0000 0.0000 0.0000

:CHA  : total charge inside unit cell =       6.500000

------- case.scfc --------

        1.ATOM      Pr                   14 CORE STATES
:1S 001: 1S               -3065.959456994 Ry
:2S 001: 2S                -491.706110504 Ry
:2PP001: 2P*               -464.805596237 Ry
:2P 001: 2P                -429.407925062 Ry
:3S 001: 3S                -104.801662543 Ry
:3PP001: 3P*                -93.339361396 Ry
:3P 001: 3P                 -86.331592298 Ry
:3DD001: 3D*                -66.257509597 Ry
:3D 001: 3D                 -64.746024050 Ry
:4S 001: 4S                 -19.473207624 Ry
:4PP001: 4P*                -15.179715516 Ry
:4P 001: 4P                 -13.651866452 Ry
:4DD001: 4D*                 -6.584464172 Ry
:4D 001: 4D                  -6.314996699 Ry

------- case.scfm --------
:CINT001 Core Integral Atom   1   45.999465

       DENSITY AT NUCLEUS
        JATOM        VALENCE       SEMI-CORE          CORE           TOTAL
:RTO001:   1      637.534841        0.000000   656825.936243   657463.471084
 :WARNING: K-list has changed
     
       CHARGES OF NEW CHARGE DENSITY
:NTO   : INTERSTITIAL CHARGE =     1.684520
:NPC   : PW Pseudocharge     =     8.844729
:NTO001: CHARGE SPHERE  1    =    57.314764

:NEC01: NUCLEAR AND ELECTRONIC CHARGE     59.00000    58.99928
     
       CHARGES OF OLD CHARGE DENSITY
:OTO   : INTERSTITIAL CHARGE =     1.722335
:OPC   : PW Pseudocharge     =     8.891803
:OTO001: CHARGE SPHERE  1    =    57.277665

:NEC02: NUCLEAR AND ELECTRONIC CHARGE     59.00000    59.00000
     
       CONVERGENCE TEST
:DTO001: DIFFERENCE IN SPHERE  1 =  0.1283032

:DIS  :  CHARGE DISTANCE       ( 0.1283032 for atom    1 spin 1)      0.1283032
 PW Mixed is           26
 
******************************************************
* MULTISECANT MIXING VER9 RELEASE 10.4.0              *
* Standard Mode with controls                        *
* Fixed density scale                                *
* Regularization       1.000E-04                     *
* Trust Upper Limit    5.000E+00                     *
* Max Number of Memory Steps    8                    *
******************************************************
 
:PWTMP   3.3237E+01  1.2500E+02  9.8687E+01
:PLANE:  PW TOTAL      2.6802 DISTAN   2.02E-02  7.55E-01 %
:CHARG:  CLM/ATOM    977.1680 DISTAN   1.44E-01  1.48E-02 %
 
Step History
        DMIX         DMIXT        Red     Pred      Trust     Lambda    MagRel    MagAbs     Beta
  1   3.5000E-02   3.5000E-02 -1.00E+00  1.00E+00 -1.00E+01  1.00E+00  3.50E-02  3.50E-02  1.00E+00
:INFO :  Note, Pratt in use
:TRUST:  Step 3.75E-02  Charge 7.50E-02 (e) CTO  2.50E-01 (e) PW  3.50E-01 (e)
:DIRM :  MEMORY  0/ 8 SCALE   1.000
Performing Pseudo Compensation
Final Pseudo Compensation Rescaling     1.00000E+00
:MIX  :   PRATT  REGULARIZATION:  1.00E-04 GREED: 0.02500                  
     
       CHARGES OF MIXED CHARGE DENSITY
:CTO   : INTERSTITIAL CHARGE =     1.721408
:CPC   : PW Pseudocharge     =     8.874844
:CTO001: CHARGE SPHERE  1    =    57.278592

:NEC03: NUCLEAR AND ELECTRONIC CHARGE     59.00000    59.00000

PW CHANGE     H    K    L      Current       Change    Residue
:PTO001:      0    0    0  1.07372631E-01 -1.812E-04 -8.148E-04
:PTO002:     -1   -1   -1 -1.84207721E-01  6.332E-04 -2.898E-05
:PTO003:      0    0   -2  8.71549153E-02 -3.807E-04  4.264E-04
:PTO004:      0   -2   -2  2.77831797E-02 -5.251E-04 -1.320E-03
:PTO005:     -1   -1   -3  6.84510785E-03  9.117E-04  1.460E-03
:PTO006:     -2   -2   -2 -5.46516154E-03 -2.962E-04 -4.911E-04
:PTO007:      0    0   -4 -4.57965003E-03 -1.869E-04 -1.046E-04
:PTO008:     -1   -3   -3  1.01839047E-02  6.253E-04  5.817E-04
:PTO009:      0   -2   -4 -9.12742469E-03 -5.726E-04 -3.884E-04
:PTO010:     -2   -2   -4 -6.10405501E-03 -3.672E-04 -1.081E-04
:PTO011:     -3   -3   -3  1.42958553E-03  7.687E-05  2.041E-05
:PTO012:     -1   -1   -5  3.88971612E-03  2.288E-04 -1.322E-05

:ENE  : ********** TOTAL ENERGY IN Ry =       -18471.95889536


------- case.scf0 --------
 Flat Integration
 New Mode for Coulomb Integral
 Consistent 3/8+Simpson combinations
 Extension of core to zero
 LDM version in phi
 Fifth-order quadrature in outwin


            ---------
:ITE021: 21. ITERATION
            ---------

:NATO :    1 INDEPENDENT AND    1 TOTAL ATOMS IN UNITCELL
       SUBSTANCE: blebleble                                                   

       LATTICE                      = F   
:POT  : POTENTIAL OPTION EX_LDA EC_LDA VX_LDA VC_LDA
:LAT  : LATTICE CONSTANTS=  7.33567  7.33567  7.33567    1.571    1.571    1.571
:VOL  : UNIT CELL VOLUME =      98.68671
       MODE OF CALCULATION IS       = RELA
       NON-SPINPOLARIZED CALCULATION
:IFFT  : FFT-parameters:   60   60   60 Factor: 2.00


   CONVERGENCE PARAMETER FOR PSEUDOCHARGE: NCON=  9
   MAXIMAL VALUE OF RMT(JATOM)*ABSK(NKK) : RK  =29.97839


:VKCOUL :  VK-COUL convergence: 0.269E-06
       ATOMNUMBER=  1 Pr         VCOUL-ZERO =  0.11197E+01
:FIT001: LUSE= 13 SIGMA OF V-XC FIT FOR ATOM  1  0.1978638E-03
:FIT001: LUSE= 13 SIGMA OF V-XC FIT FOR ATOM  1  0.1978638E-03
:DEN  : DENSITY INTEGRAL  =         -7133.14382533   (Ry)
       ELS_POTENTIAL_AT Z=0 and Z=0.5:  -3.19916  -3.19916
       ELS_POTENTIAL_AT Y=0 and Y=0.5:   0.00000   0.00000
:VZERO:v0,v0c,v0x  -4.39647  -3.19916  -1.19731 v5,v5c,v5x  -4.39647  -3.19916  -1.19731
:VZERY:v0,v0c,v0x  -1.01586   0.00000  -1.01586 v5,v5c,v5x  -1.01586   0.00000  -1.01586
:VZERX:v0,v0c,v0x  -1.01586   0.00000  -1.01586 v5,v5c,v5x  -1.01586   0.00000  -1.01586

------- case.scf1 --------
:LMAX-WF:   10   Non-Spherical LMAX:   4

          ATOMIC SPHERE DEPENDENT PARAMETERS FOR ATOM  Pr        
:e__0001: OVERALL ENERGY PARAMETER IS    1.3924
          OVERALL BASIS SET ON ATOM IS LAPW
:E0_0001: E( 0)=    1.3924
             APW+lo
:E0_0001: E( 0)=   -1.0714   E(BOTTOM)=   -1.478   E(TOP)=   -0.664  4  5   271
             LOCAL ORBITAL
:E1_0001: E( 1)=    1.7924
             APW+lo
:E1_0001: E( 1)=    0.2966   E(BOTTOM)=   -0.388   E(TOP)=    0.981  3  4   267
             LOCAL ORBITAL
:E3_0001: E( 3)=    1.6206   E(BOTTOM)=    1.462   E(TOP)=    1.780  0  1   126
             APW+lo
:E2_0001: E( 2)=    1.3924   E(BOTTOM)=    1.150   E(TOP)= -200.000  2 -1   126
             APW+lo

       K=   0.00000   0.00000   0.00000            1
:RKM  : MATRIX SIZE    79LOs:  20  RKM= 7.42  WEIGHT= 1.00  PGR:    
       EIGENVALUES ARE:
:EIG00001:      -1.2368544    0.5803856    0.5803856    0.5803856    1.4689917
:EIG00006:       1.5909696    1.5909696    1.5909696    1.6575906    1.7185123
:EIG00011:       1.7185123    1.7185123    1.7299413    1.7299413    1.7299413
:EIG00016:       2.1975209    2.1975209    2.7345599    3.1050944    3.1816244
:EIG00021:       3.1816244    3.1816244    5.3179161    5.3179161    5.3179161
:EIG00026:       5.3263046    5.3263046    5.6515284    5.6515284    5.6515284
:EIG00031:       6.3861380    6.8698503    6.8698503    6.8698503    7.5272098
:EIG00036:       7.5272098    7.5272098    7.9378680    7.9378680    7.9378680
:EIG00041:       8.0449656    8.0449656    8.1259964    8.1259964    8.1259964
:EIG00046:       8.3409820    8.3409820    8.3409820    8.4162817    8.4162817
 
:EIG00051:       8.6016878    8.6531872    8.6563353    8.6563353    8.6563353
       ********************************************************

:KPT   :      NUMBER OF K-POINTS:   165

------- case.scfso --------
   0.0   0.0 angle (M,z), angle (M,x) deg
 
        SPIN-ORBIT EIGENVALUES:
     K=   0.00000   0.00000   0.00000            1
      MATRIX SIZE=  110   WEIGHT= 1.00
     EIGENVALUES ARE:
          -1.2368544   -1.2368544    0.4054520    0.4054520    0.6635244
           0.6635244    0.6635244    0.6635244    1.4684129    1.4684129
           1.5852301    1.5852301    1.5852301    1.5852301    1.6002195
           1.6002195    1.6575906    1.6575906    1.7130512    1.7130512
           1.7130512    1.7130512    1.7259352    1.7259352    1.7284902
           1.7284902    1.7333635    1.7333635    1.7333635    1.7333635
           2.1978744    2.1978744    2.1978744    2.1978744    2.7346689
           2.7346689    3.1050944    3.1050944    3.1765164    3.1765164

           3.1843321    3.1843321    3.1843321    3.1843321
       ********************************************************

------- case.scf2 --------
:GMA  : POTENTIAL AND CHARGE CUT-OFF  12.00 Ry**.5




:POS001: at.nr.   1 position = 0.00000 0.00000 0.50000  multiplicity =  1

       lmmax  5
       lm=   0 0  4 0  4 4  6 0  6 4
:FER gutzwiller fermi energy   1.59773
:EORB          0.063089079
:SUM sum of gutz band energies          6.831092279

:CHA001: total charge inside sphere   1 =    11.313194
:PCS001: partial charges sphere =  1 s,p,d,f,      d-eg,d-t2g 
:QTL001: 2.0266 5.3046 1.5094 2.4437 0.0000 0.0000 0.0000 0.5814 0.9281 0.0000 0.0000 0.0000

:CHA  : total charge inside unit cell =       6.500000

------- case.scfc --------

        1.ATOM      Pr                   14 CORE STATES
:1S 001: 1S               -3065.956205951 Ry
:2S 001: 2S                -491.702879704 Ry
:2PP001: 2P*               -464.802359687 Ry
:2P 001: 2P                -429.404690704 Ry
:3S 001: 3S                -104.798609458 Ry
:3PP001: 3P*                -93.336294584 Ry
:3P 001: 3P                 -86.328547437 Ry
:3DD001: 3D*                -66.254420608 Ry
:3D 001: 3D                 -64.742940929 Ry
:4S 001: 4S                 -19.471148734 Ry
:4PP001: 4P*                -15.177714031 Ry
:4P 001: 4P                 -13.649955653 Ry
:4DD001: 4D*                 -6.582709231 Ry
:4D 001: 4D                  -6.313272324 Ry

------- case.scfm --------
:CINT001 Core Integral Atom   1   45.999464

       DENSITY AT NUCLEUS
        JATOM        VALENCE       SEMI-CORE          CORE           TOTAL
:RTO001:   1      637.436456        0.000000   656825.728591   657463.165047
     
       CHARGES OF NEW CHARGE DENSITY
:NTO   : INTERSTITIAL CHARGE =     1.686729
:NPC   : PW Pseudocharge     =     8.848724
:NTO001: CHARGE SPHERE  1    =    57.312658

:NEC01: NUCLEAR AND ELECTRONIC CHARGE     59.00000    58.99939
     
       CHARGES OF OLD CHARGE DENSITY
:OTO   : INTERSTITIAL CHARGE =     1.721408
:OPC   : PW Pseudocharge     =     8.874844
:OTO001: CHARGE SPHERE  1    =    57.278592

:NEC02: NUCLEAR AND ELECTRONIC CHARGE     59.00000    59.00000
     
       CONVERGENCE TEST
:DTO001: DIFFERENCE IN SPHERE  1 =  0.1163135

:DIS  :  CHARGE DISTANCE       ( 0.1163135 for atom    1 spin 1)      0.1163135
 PW Mixed is           26
 
******************************************************
* MULTISECANT MIXING VER9 RELEASE 10.4.0              *
* Slow Mode, cautious                                *
* Fixed density scale                                *
* Regularization       1.000E-04                     *
* Step Trust Radius    0.75000                       *
* Trust Upper Limit    2.000E+00                     *
* Max Number of Memory Steps   12                    *
******************************************************
 
:PWTMP   3.3237E+01  1.2500E+02  9.8687E+01
:PLANE:  PW TOTAL      2.6741 DISTAN   1.54E-02  5.75E-01 %
:CHARG:  CLM/ATOM    977.1683 DISTAN   1.33E-01  1.36E-02 %
 
Step History
        DMIX         DMIXT        Red     Pred      Trust     Lambda    MagRel    MagAbs     Beta
  1   3.5000E-02   3.5000E-02 -1.00E+00  1.00E+00 -1.00E+01  1.00E+00  3.50E-02  3.50E-02  1.00E+00
  2   2.5000E-02   2.5000E-02 -1.00E+00  1.00E+00 -1.00E+01  1.00E+00  2.50E-02  3.64E-03  1.00E+00
:JACOBIANS    1.874E-01   8.303E-02
  
:NORMS:  1/Froebius, Min, Max, Used   0.4119E+00  0.4119E+00  0.5408E+00  0.4119E+00
:INFO :  Number of Memory Steps    1 Skipping    0
:PREDicted Charge, CTotal, PW Trust    6.657E-03   6.657E-03   4.324E-02
:PREDicted DMix, Beta, BLim   1.0000E-02  7.1772E+00  5.1117E-01

Eigenvalues, unscaled except for SY+YY
   #     SY Real        SY Imag          SS             YY         SY+YY Real      SY+YY Imag
   1   5.407507E-01   0.000000E+00   4.119071E-01   1.000000E+00   1.540751E+00   0.000000E+00
 
:BLIM :  VZERO Control Off
:TRUST:  Step 5.11E-01  Charge 7.50E-02 (e) CTO  2.50E-01 (e) PW  3.50E-01 (e)
:DIRM :  MEMORY  1/12 SCALE   1.000 RED  0.92 PRED  1.00 NEXT  0.67 
:TRAVE:  Charge 6.04E-03 (e) CTO  6.04E-03 (e) PW  3.66E-02 (e)
:DIRP :  |MSR1|= 5.807E-02 |PRATT|= 1.538E-02 ANGLE=  81.6 DEGREES
:DIRQ :  |MSR1|= 2.347E-02 |PRATT|= 1.325E-01 ANGLE=   0.3 DEGREES
:DIRT :  |MSR1|= 6.264E-02 |PRATT|= 1.334E-01 ANGLE=  67.2 DEGREES
:MIX  :   MSR1   REGULARIZATION:  1.00E-04 GREED: 0.02000  Newton 1.00  0.4695                
     
       CHARGES OF MIXED CHARGE DENSITY
:CTO   : INTERSTITIAL CHARGE =     1.715372
:CPC   : PW Pseudocharge     =     8.772145
:CTO001: CHARGE SPHERE  1    =    57.284628

:NEC03: NUCLEAR AND ELECTRONIC CHARGE     59.00000    59.00000

PW CHANGE     H    K    L      Current       Change    Residue
:PTO001:      0    0    0  1.06270815E-01 -1.102E-03 -5.773E-04
:PTO002:     -1   -1   -1 -1.80384785E-01  3.823E-03 -6.435E-04
:PTO003:      0    0   -2  8.48631300E-02 -2.292E-03  7.852E-04
:PTO004:      0   -2   -2  2.45888248E-02 -3.194E-03 -7.911E-04
:PTO005:     -1   -1   -3  1.23737872E-02  5.529E-03  5.405E-04
:PTO006:     -2   -2   -2 -7.26194381E-03 -1.797E-03 -1.928E-04
:PTO007:      0    0   -4 -5.70925981E-03 -1.130E-03  8.367E-05
:PTO008:     -1   -3   -3  1.39671190E-02  3.783E-03 -5.297E-05
:PTO009:      0   -2   -4 -1.25890861E-02 -3.462E-03  1.919E-04
:PTO010:     -2   -2   -4 -8.32134410E-03 -2.217E-03  2.639E-04
:PTO011:     -3   -3   -3  1.89368202E-03  4.641E-04 -5.749E-05
:PTO012:     -1   -1   -5  5.26941971E-03  1.380E-03 -2.441E-04

:ENE  : ********** TOTAL ENERGY IN Ry =       -18471.95864232


------- case.scf0 --------
 Flat Integration
 New Mode for Coulomb Integral
 Consistent 3/8+Simpson combinations
 Extension of core to zero
 LDM version in phi
 Fifth-order quadrature in outwin


            ---------
:ITE022: 22. ITERATION
            ---------

:NATO :    1 INDEPENDENT AND    1 TOTAL ATOMS IN UNITCELL
       SUBSTANCE: blebleble                                                   

       LATTICE                      = F   
:POT  : POTENTIAL OPTION EX_LDA EC_LDA VX_LDA VC_LDA
:LAT  : LATTICE CONSTANTS=  7.33567  7.33567  7.33567    1.571    1.571    1.571
:VOL  : UNIT CELL VOLUME =      98.68671
       MODE OF CALCULATION IS       = RELA
       NON-SPINPOLARIZED CALCULATION
:IFFT  : FFT-parameters:   60   60   60 Factor: 2.00


   CONVERGENCE PARAMETER FOR PSEUDOCHARGE: NCON=  9
   MAXIMAL VALUE OF RMT(JATOM)*ABSK(NKK) : RK  =29.97839


:VKCOUL :  VK-COUL convergence: 0.266E-06
       ATOMNUMBER=  1 Pr         VCOUL-ZERO =  0.11123E+01
:FIT001: LUSE= 13 SIGMA OF V-XC FIT FOR ATOM  1  0.1959759E-03
:FIT001: LUSE= 13 SIGMA OF V-XC FIT FOR ATOM  1  0.1959759E-03
:DEN  : DENSITY INTEGRAL  =         -7133.92662449   (Ry)
       ELS_POTENTIAL_AT Z=0 and Z=0.5:  -3.18068  -3.18068
       ELS_POTENTIAL_AT Y=0 and Y=0.5:   0.00000   0.00000
:VZERO:v0,v0c,v0x  -4.37114  -3.18068  -1.19046 v5,v5c,v5x  -4.37114  -3.18068  -1.19046
:VZERY:v0,v0c,v0x  -1.01316   0.00000  -1.01316 v5,v5c,v5x  -1.01316   0.00000  -1.01316
:VZERX:v0,v0c,v0x  -1.01316   0.00000  -1.01316 v5,v5c,v5x  -1.01316   0.00000  -1.01316

------- case.scf1 --------
:LMAX-WF:   10   Non-Spherical LMAX:   4

          ATOMIC SPHERE DEPENDENT PARAMETERS FOR ATOM  Pr        
:e__0001: OVERALL ENERGY PARAMETER IS    1.3924
          OVERALL BASIS SET ON ATOM IS LAPW
:E0_0001: E( 0)=    1.3924
             APW+lo
:E0_0001: E( 0)=   -1.0712   E(BOTTOM)=   -1.479   E(TOP)=   -0.663  4  5   269
             LOCAL ORBITAL
:E1_0001: E( 1)=    1.7924
             APW+lo
:E1_0001: E( 1)=    0.2956   E(BOTTOM)=   -0.391   E(TOP)=    0.982  3  4   274
             LOCAL ORBITAL
:E3_0001: E( 3)=    1.6272   E(BOTTOM)=    1.466   E(TOP)=    1.788  0  1   119
             APW+lo
:E2_0001: E( 2)=    1.3924   E(BOTTOM)=    1.146   E(TOP)= -200.000  2 -1   123
             APW+lo

       K=   0.00000   0.00000   0.00000            1
:RKM  : MATRIX SIZE    79LOs:  20  RKM= 7.42  WEIGHT= 1.00  PGR:    
       EIGENVALUES ARE:
:EIG00001:      -1.2377558    0.5798896    0.5798896    0.5798896    1.4721015
:EIG00006:       1.5966129    1.5966129    1.5966129    1.6541433    1.7145307
:EIG00011:       1.7145307    1.7145307    1.7379722    1.7379722    1.7379722
:EIG00016:       2.1944587    2.1944587    2.7337781    3.0987357    3.1784153
:EIG00021:       3.1784153    3.1784153    5.3139070    5.3139070    5.3139070
:EIG00026:       5.3215640    5.3215640    5.6473041    5.6473041    5.6473041
:EIG00031:       6.3805293    6.8632180    6.8632180    6.8632180    7.5217404
:EIG00036:       7.5217404    7.5217404    7.9317869    7.9317869    7.9317869
:EIG00041:       8.0386923    8.0386923    8.1216814    8.1216814    8.1216814
:EIG00046:       8.3352227    8.3352227    8.3352227    8.4116427    8.4116427
 
:EIG00051:       8.5953908    8.6463563    8.6504905    8.6504905    8.6504905
       ********************************************************

:KPT   :      NUMBER OF K-POINTS:   165

------- case.scfso --------
   0.0   0.0 angle (M,z), angle (M,x) deg
 
        SPIN-ORBIT EIGENVALUES:
     K=   0.00000   0.00000   0.00000            1
      MATRIX SIZE=  110   WEIGHT= 1.00
     EIGENVALUES ARE:
          -1.2377558   -1.2377558    0.4052160    0.4052160    0.6629008
           0.6629008    0.6629008    0.6629008    1.4715432    1.4715432
           1.5909603    1.5909603    1.5909603    1.5909603    1.6057537
           1.6057537    1.6541433    1.6541433    1.7090796    1.7090796
           1.7090796    1.7090796    1.7244927    1.7244927    1.7339580
           1.7339580    1.7413544    1.7413544    1.7413544    1.7413544
           2.1948103    2.1948103    2.1948103    2.1948103    2.7338891
           2.7338891    3.0987356    3.0987356    3.1733677    3.1733677

           3.1810937    3.1810937    3.1810937    3.1810937
       ********************************************************

------- case.scf2 --------
:GMA  : POTENTIAL AND CHARGE CUT-OFF  12.00 Ry**.5




:POS001: at.nr.   1 position = 0.00000 0.00000 0.50000  multiplicity =  1

       lmmax  5
       lm=   0 0  4 0  4 4  6 0  6 4
:FER gutzwiller fermi energy   1.59709
:EORB          0.081214011
:SUM sum of gutz band energies          6.804746209

:CHA001: total charge inside sphere   1 =    11.300241
:PCS001: partial charges sphere =  1 s,p,d,f,      d-eg,d-t2g 
:QTL001: 2.0273 5.3025 1.5198 2.4216 0.0000 0.0000 0.0000 0.5850 0.9348 0.0000 0.0000 0.0000

:CHA  : total charge inside unit cell =       6.500000

------- case.scfc --------

        1.ATOM      Pr                   14 CORE STATES
:1S 001: 1S               -3065.935080539 Ry
:2S 001: 2S                -491.681838111 Ry
:2PP001: 2P*               -464.781291003 Ry
:2P 001: 2P                -429.383632389 Ry
:3S 001: 3S                -104.778631265 Ry
:3PP001: 3P*                -93.316232346 Ry
:3P 001: 3P                 -86.308622380 Ry
:3DD001: 3D*                -66.234222595 Ry
:3D 001: 3D                 -64.722779193 Ry
:4S 001: 4S                 -19.457516060 Ry
:4PP001: 4P*                -15.164451062 Ry
:4P 001: 4P                 -13.637275282 Ry
:4DD001: 4D*                 -6.571033150 Ry
:4D 001: 4D                  -6.301792797 Ry

------- case.scfm --------
:CINT001 Core Integral Atom   1   45.999459

       DENSITY AT NUCLEUS
        JATOM        VALENCE       SEMI-CORE          CORE           TOTAL
:RTO001:   1      636.752023        0.000000   656824.410800   657461.162823
     
       CHARGES OF NEW CHARGE DENSITY
:NTO   : INTERSTITIAL CHARGE =     1.699829
:NPC   : PW Pseudocharge     =     8.872121
:NTO001: CHARGE SPHERE  1    =    57.299700

:NEC01: NUCLEAR AND ELECTRONIC CHARGE     59.00000    58.99953
     
       CHARGES OF OLD CHARGE DENSITY
:OTO   : INTERSTITIAL CHARGE =     1.715372
:OPC   : PW Pseudocharge     =     8.772145
:OTO001: CHARGE SPHERE  1    =    57.284628

:NEC02: NUCLEAR AND ELECTRONIC CHARGE     59.00000    59.00000
     
       CONVERGENCE TEST
:DTO001: DIFFERENCE IN SPHERE  1 =  0.0459307

:DIS  :  CHARGE DISTANCE       ( 0.0459307 for atom    1 spin 1)      0.0459307
 PW Mixed is           26
 
******************************************************
* MULTISECANT MIXING VER9 RELEASE 10.4.0              *
* Slow Mode, cautious                                *
* Fixed density scale                                *
* Regularization       1.000E-04                     *
* Step Trust Radius    0.75000                       *
* Trust Upper Limit    2.000E+00                     *
* Max Number of Memory Steps   12                    *
******************************************************
 
:PWTMP   3.3237E+01  1.2500E+02  9.8687E+01
:PLANE:  PW TOTAL      2.6370 DISTAN   5.93E-02  2.25E+00 %
:CHARG:  CLM/ATOM    977.1699 DISTAN   6.68E-02  6.84E-03 %
 
Step History
        DMIX         DMIXT        Red     Pred      Trust     Lambda    MagRel    MagAbs     Beta
  1   3.5000E-02   3.5000E-02 -1.00E+00  1.00E+00 -1.00E+01  1.00E+00  3.50E-02  3.50E-02  1.00E+00
  2   2.5000E-02   2.5000E-02  9.16E-01  1.00E+00 -1.00E+01  1.00E+00  2.50E-02  3.64E-03  1.00E+00
  3   2.0000E-02   2.0000E-02 -1.00E+00  6.73E-01  5.11E-01  1.00E+00  4.70E-01  6.26E-02  1.00E+00
:JACOBIANS    2.781E-01   1.290E-01
  
:NORMS:  1/Froebius, Min, Max, Used   0.6404E+00  0.4446E+00  0.6409E+00  0.6409E+00
:INFO :  Number of Memory Steps    2 Skipping    0
:INFO :  SLambda=    0.0605263471  Max    0.0605263471
:PREDicted Charge, CTotal, PW Trust    6.011E-03   6.011E-03   3.663E-02
:PREDicted DMix, Beta, BLim   2.1336E-03  1.0096E+00  4.6921E-01

Eigenvalues, unscaled except for SY+YY
   #     SY Real        SY Imag          SS             YY         SY+YY Real      SY+YY Imag
   1   9.097840E-07   0.000000E+00   8.201774E-01   1.999998E+00   2.365460E-06   0.000000E+00
   2   1.087430E+00   0.000000E+00   2.843487E-06   2.316811E-06   2.065816E+00   0.000000E+00
 
:INFO :  Singular value  2.066E+00 Weight  1.000E+00 Projection  2.452E-07
:INFO :  Singular value  2.365E-06 Weight  1.399E-04 Projection -3.050E-03
:RANK :  ACTIVE   1.00/2  =  50.01 % ; YY RANK   1.00/2  =  50.01 %
 
:BLIM :  VZERO Control Off
:TRUST:  Step 6.39E-01  Charge 7.50E-02 (e) CTO  2.50E-01 (e) PW  3.50E-01 (e)
:DIRM :  MEMORY  2/12 SCALE   1.000 RED  0.67 PRED  0.67 NEXT  1.00 
:TRAVE:  Charge 3.12E-03 (e) CTO  3.12E-03 (e) PW  1.85E-02 (e)
:DIRP :  |MSR1|= 8.070E-04 |PRATT|= 5.930E-02 ANGLE=   0.0 DEGREES
:DIRQ :  |MSR1|= 9.111E-04 |PRATT|= 6.682E-02 ANGLE=   0.0 DEGREES
:DIRT :  |MSR1|= 1.217E-03 |PRATT|= 8.934E-02 ANGLE=   0.1 DEGREES
:MIX  :   MSD1   REGULARIZATION:  2.00E-04 GREED: 0.01357  Newton 1.00  0.0136                
     
       CHARGES OF MIXED CHARGE DENSITY
:CTO   : INTERSTITIAL CHARGE =     1.715166
:CPC   : PW Pseudocharge     =     8.773539
:CTO001: CHARGE SPHERE  1    =    57.284834

:NEC03: NUCLEAR AND ELECTRONIC CHARGE     59.00000    59.00000

PW CHANGE     H    K    L      Current       Change    Residue
:PTO001:      0    0    0  1.06282856E-01  1.204E-05  8.853E-04
:PTO002:     -1   -1   -1 -1.80444635E-01 -5.985E-05 -4.398E-03
:PTO003:      0    0   -2  8.49035317E-02  4.040E-05  2.968E-03
:PTO004:      0   -2   -2  2.46219184E-02  3.309E-05  2.433E-03
:PTO005:     -1   -1   -3  1.23052775E-02 -6.851E-05 -5.036E-03
:PTO006:     -2   -2   -2 -7.23997620E-03  2.197E-05  1.615E-03
:PTO007:      0    0   -4 -5.69264385E-03  1.662E-05  1.221E-03
:PTO008:     -1   -3   -3  1.39141425E-02 -5.298E-05 -3.893E-03
:PTO009:      0   -2   -4 -1.25387199E-02  5.037E-05  3.701E-03
:PTO010:     -2   -2   -4 -8.28719308E-03  3.415E-05  2.509E-03
:PTO011:     -3   -3   -3  1.88650194E-03 -7.180E-06 -5.276E-04
:PTO012:     -1   -1   -5  5.24714554E-03 -2.227E-05 -1.637E-03

:ENE  : ********** TOTAL ENERGY IN Ry =       -18471.95732017


------- case.scf0 --------
 Flat Integration
 New Mode for Coulomb Integral
 Consistent 3/8+Simpson combinations
 Extension of core to zero
 LDM version in phi
 Fifth-order quadrature in outwin


            ---------
:ITE023: 23. ITERATION
            ---------

:NATO :    1 INDEPENDENT AND    1 TOTAL ATOMS IN UNITCELL
       SUBSTANCE: blebleble                                                   

       LATTICE                      = F   
:POT  : POTENTIAL OPTION EX_LDA EC_LDA VX_LDA VC_LDA
:LAT  : LATTICE CONSTANTS=  7.33567  7.33567  7.33567    1.571    1.571    1.571
:VOL  : UNIT CELL VOLUME =      98.68671
       MODE OF CALCULATION IS       = RELA
       NON-SPINPOLARIZED CALCULATION
:IFFT  : FFT-parameters:   60   60   60 Factor: 2.00


   CONVERGENCE PARAMETER FOR PSEUDOCHARGE: NCON=  9
   MAXIMAL VALUE OF RMT(JATOM)*ABSK(NKK) : RK  =29.97839


:VKCOUL :  VK-COUL convergence: 0.266E-06
       ATOMNUMBER=  1 Pr         VCOUL-ZERO =  0.11123E+01
:FIT001: LUSE= 13 SIGMA OF V-XC FIT FOR ATOM  1  0.1958500E-03
:FIT001: LUSE= 13 SIGMA OF V-XC FIT FOR ATOM  1  0.1958500E-03
:DEN  : DENSITY INTEGRAL  =         -7133.96147689   (Ry)
       ELS_POTENTIAL_AT Z=0 and Z=0.5:  -3.18073  -3.18073
       ELS_POTENTIAL_AT Y=0 and Y=0.5:   0.00000   0.00000
:VZERO:v0,v0c,v0x  -4.37131  -3.18073  -1.19057 v5,v5c,v5x  -4.37131  -3.18073  -1.19057
:VZERY:v0,v0c,v0x  -1.01318   0.00000  -1.01318 v5,v5c,v5x  -1.01318   0.00000  -1.01318
:VZERX:v0,v0c,v0x  -1.01318   0.00000  -1.01318 v5,v5c,v5x  -1.01318   0.00000  -1.01318

------- case.scf1 --------
:LMAX-WF:   10   Non-Spherical LMAX:   4

          ATOMIC SPHERE DEPENDENT PARAMETERS FOR ATOM  Pr        
:e__0001: OVERALL ENERGY PARAMETER IS    1.3924
          OVERALL BASIS SET ON ATOM IS LAPW
:E0_0001: E( 0)=    1.3924
             APW+lo
:E0_0001: E( 0)=   -1.0710   E(BOTTOM)=   -1.479   E(TOP)=   -0.663  4  5   277
             LOCAL ORBITAL
:E1_0001: E( 1)=    1.7924
             APW+lo
:E1_0001: E( 1)=    0.2959   E(BOTTOM)=   -0.391   E(TOP)=    0.982  3  4   271
             LOCAL ORBITAL
:E3_0001: E( 3)=    1.6276   E(BOTTOM)=    1.467   E(TOP)=    1.789  0  1   123
             APW+lo
:E2_0001: E( 2)=    1.3924   E(BOTTOM)=    1.146   E(TOP)= -200.000  2 -1   121
             APW+lo

       K=   0.00000   0.00000   0.00000            1
:RKM  : MATRIX SIZE    79LOs:  20  RKM= 7.42  WEIGHT= 1.00  PGR:    
       EIGENVALUES ARE:
:EIG00001:      -1.2375366    0.5801210    0.5801210    0.5801210    1.4724313
:EIG00006:       1.5970227    1.5970227    1.5970227    1.6542876    1.7146565
:EIG00011:       1.7146565    1.7146565    1.7384496    1.7384496    1.7384496
:EIG00016:       2.1946152    2.1946152    2.7339946    3.0987941    3.1785669
:EIG00021:       3.1785669    3.1785669    5.3140760    5.3140760    5.3140760
:EIG00026:       5.3216959    5.3216959    5.6474268    5.6474268    5.6474268
:EIG00031:       6.3806158    6.8632722    6.8632722    6.8632722    7.5218711
:EIG00036:       7.5218711    7.5218711    7.9318774    7.9318774    7.9318774
:EIG00041:       8.0387620    8.0387620    8.1218154    8.1218154    8.1218154
:EIG00046:       8.3353461    8.3353461    8.3353461    8.4118678    8.4118678
 
:EIG00051:       8.5954803    8.6463995    8.6505787    8.6505787    8.6505787
       ********************************************************

:KPT   :      NUMBER OF K-POINTS:   165

------- case.scfso --------
   0.0   0.0 angle (M,z), angle (M,x) deg
 
        SPIN-ORBIT EIGENVALUES:
     K=   0.00000   0.00000   0.00000            1
      MATRIX SIZE=  110   WEIGHT= 1.00
     EIGENVALUES ARE:
          -1.2375366   -1.2375366    0.4054553    0.4054553    0.6631285
           0.6631285    0.6631285    0.6631285    1.4718735    1.4718735
           1.5913726    1.5913726    1.5913726    1.5913726    1.6061605
           1.6061605    1.6542876    1.6542876    1.7092057    1.7092057
           1.7092057    1.7092057    1.7246179    1.7246179    1.7344352
           1.7344352    1.7418307    1.7418307    1.7418307    1.7418307
           2.1949668    2.1949668    2.1949668    2.1949668    2.7341056
           2.7341056    3.0987941    3.0987941    3.1735212    3.1735212

           3.1812444    3.1812444    3.1812444    3.1812444
       ********************************************************

------- case.scf2 --------
:GMA  : POTENTIAL AND CHARGE CUT-OFF  12.00 Ry**.5




:POS001: at.nr.   1 position = 0.00000 0.00000 0.50000  multiplicity =  1

       lmmax  5
       lm=   0 0  4 0  4 4  6 0  6 4
:FER gutzwiller fermi energy   1.59780
:EORB          0.080545569
:SUM sum of gutz band energies          6.808283812

:CHA001: total charge inside sphere   1 =    11.298638
:PCS001: partial charges sphere =  1 s,p,d,f,      d-eg,d-t2g 
:QTL001: 2.0274 5.3027 1.5220 2.4174 0.0000 0.0000 0.0000 0.5858 0.9362 0.0000 0.0000 0.0000

:CHA  : total charge inside unit cell =       6.500000

------- case.scfc --------

        1.ATOM      Pr                   14 CORE STATES
:1S 001: 1S               -3065.934363775 Ry
:2S 001: 2S                -491.681091965 Ry
:2PP001: 2P*               -464.780550898 Ry
:2P 001: 2P                -429.382890013 Ry
:3S 001: 3S                -104.777859323 Ry
:3PP001: 3P*                -93.315461027 Ry
:3P 001: 3P                 -86.307852047 Ry
:3DD001: 3D*                -66.233452304 Ry
:3D 001: 3D                 -64.722008884 Ry
:4S 001: 4S                 -19.456883334 Ry
:4PP001: 4P*                -15.163828611 Ry
:4P 001: 4P                 -13.636668195 Ry
:4DD001: 4D*                 -6.570454007 Ry
:4D 001: 4D                  -6.301218935 Ry

------- case.scfm --------
:CINT001 Core Integral Atom   1   45.999458

       DENSITY AT NUCLEUS
        JATOM        VALENCE       SEMI-CORE          CORE           TOTAL
:RTO001:   1      636.776740        0.000000   656824.387130   657461.163870
     
       CHARGES OF NEW CHARGE DENSITY
:NTO   : INTERSTITIAL CHARGE =     1.701199
:NPC   : PW Pseudocharge     =     8.874753
:NTO001: CHARGE SPHERE  1    =    57.298096

:NEC01: NUCLEAR AND ELECTRONIC CHARGE     59.00000    58.99930
     
       CHARGES OF OLD CHARGE DENSITY
:OTO   : INTERSTITIAL CHARGE =     1.715166
:OPC   : PW Pseudocharge     =     8.773539
:OTO001: CHARGE SPHERE  1    =    57.284834

:NEC02: NUCLEAR AND ELECTRONIC CHARGE     59.00000    59.00000
     
       CONVERGENCE TEST
:DTO001: DIFFERENCE IN SPHERE  1 =  0.0401472

:DIS  :  CHARGE DISTANCE       ( 0.0401472 for atom    1 spin 1)      0.0401472
 PW Mixed is           26
 
******************************************************
* MULTISECANT MIXING VER9 RELEASE 10.4.0              *
* Slow Mode, cautious                                *
* Fixed density scale                                *
* Regularization       1.000E-04                     *
* Step Trust Radius    0.75000                       *
* Trust Upper Limit    2.000E+00                     *
* Max Number of Memory Steps   12                    *
******************************************************
 
:PWTMP   3.3237E+01  1.2500E+02  9.8687E+01
:PLANE:  PW TOTAL      2.6375 DISTAN   5.90E-02  2.24E+00 %
:CHARG:  CLM/ATOM    977.1698 DISTAN   6.22E-02  6.37E-03 %
 
Step History
        DMIX         DMIXT        Red     Pred      Trust     Lambda    MagRel    MagAbs     Beta
  1   3.5000E-02   3.5000E-02 -1.00E+00  1.00E+00 -1.00E+01  1.00E+00  3.50E-02  3.50E-02  1.00E+00
  2   2.5000E-02   2.5000E-02  9.16E-01  1.00E+00 -1.00E+01  1.00E+00  2.50E-02  3.64E-03  1.00E+00
  3   2.0000E-02   2.0000E-02  6.70E-01  6.73E-01  5.11E-01  6.05E-02  4.70E-01  6.26E-02  1.00E+00
  4   1.3567E-02   1.3567E-02 -1.00E+00  1.00E+00  6.39E-01  1.00E+00  1.36E-02  1.22E-03  1.00E+00
:JACOBIANS    6.104E-01   1.339E-01
  
:NORMS:  1/Froebius, Min, Max, Used   0.5103E+00  0.4741E+00  0.1092E+01  0.5291E+00
:INFO :  Number of Memory Steps    3 Skipping    0
:INFO :  SLambda=    1.4645127595  Max    1.4645127595
:PREDicted Charge, CTotal, PW Trust    1.187E-03   1.187E-03   3.897E-02
:PREDicted DMix, Beta, BLim   4.4026E-01  1.7378E+01  7.2389E-01

Eigenvalues, unscaled except for SY+YY
   #     SY Real        SY Imag          SS             YY         SY+YY Real      SY+YY Imag
   1   1.024489E+00   0.000000E+00   7.478891E-01   2.671626E+00   4.043506E+00   0.000000E+00
   2   4.341008E-08   0.000000E+00   3.328534E-02   3.283721E-01   2.928864E-06   0.000000E+00
   3   1.125265E-01   0.000000E+00   7.837164E-10   2.125683E-06   6.216638E-01   0.000000E+00
 
:INFO :  Singular value  4.062E+00 Weight  1.000E+00 Projection  2.997E-03
:INFO :  Singular value  6.188E-01 Weight  1.000E+00 Projection -1.321E-01
:INFO :  Singular value  2.929E-06 Weight  1.202E-04 Projection -3.882E-03
:RANK :  ACTIVE   2.00/3  =  66.67 % ; YY RANK   2.00/3  =  66.67 %
 
:BLIM :  VZERO Control Off
:TRUST:  Step 6.66E-01  Charge 7.50E-02 (e) CTO  2.50E-01 (e) PW  3.50E-01 (e)
:DTRUS:  Lambda    5.486E-02 Increment    3.638E-12 Iterations    94 DMIX    3.025E-02
:INFOA:  Angle SubSpace to MSR1      0.82
:DIRM :  MEMORY  3/12 SCALE   1.000 RED  0.96 PRED  1.00 NEXT  0.55 
:INFO :  Limited by Atoms F by Step T

:TRAVE:  Charge 2.13E-03 (e) CTO  2.13E-03 (e) PW  2.64E-02 (e)
:DIRP :  |MSR1|= 5.653E-02 |PRATT|= 5.896E-02 ANGLE=   6.8 DEGREES
:DIRQ :  |MSR1|= 7.927E-03 |PRATT|= 6.224E-02 ANGLE=  85.8 DEGREES
:DIRT :  |MSR1|= 5.709E-02 |PRATT|= 8.573E-02 ANGLE=  46.9 DEGREES
:MIX  :   MSE1   REGULARIZATION:  2.67E-04 GREED: 0.03392  LMStep 0.89  0.6659 Step           
     
       CHARGES OF MIXED CHARGE DENSITY
:CTO   : INTERSTITIAL CHARGE =     1.716299
:CPC   : PW Pseudocharge     =     8.874393
:CTO001: CHARGE SPHERE  1    =    57.283701

:NEC03: NUCLEAR AND ELECTRONIC CHARGE     59.00000    59.00000

PW CHANGE     H    K    L      Current       Change    Residue
:PTO001:      0    0    0  1.07316298E-01  1.033E-03  9.285E-04
:PTO002:     -1   -1   -1 -1.84300921E-01 -3.856E-03 -4.363E-03
:PTO003:      0    0   -2  8.72935510E-02  2.390E-03  2.931E-03
:PTO004:      0   -2   -2  2.75211905E-02  2.899E-03  2.404E-03
:PTO005:     -1   -1   -3  7.08565350E-03 -5.220E-03 -4.966E-03
:PTO006:     -2   -2   -2 -5.54979685E-03  1.690E-03  1.591E-03
:PTO007:      0    0   -4 -4.57855800E-03  1.114E-03  1.203E-03
:PTO008:     -1   -3   -3  1.02307862E-02 -3.683E-03 -3.839E-03
:PTO009:      0   -2   -4 -9.13337697E-03  3.405E-03  3.650E-03
:PTO010:     -2   -2   -4 -6.07099124E-03  2.216E-03  2.475E-03
:PTO011:     -3   -3   -3  1.42206368E-03 -4.644E-04 -5.203E-04
:PTO012:     -1   -1   -5  3.84934026E-03 -1.398E-03 -1.614E-03

:ENE  : ********** TOTAL ENERGY IN Ry =       -18471.95735855


------- case.scf0 --------
 Flat Integration
 New Mode for Coulomb Integral
 Consistent 3/8+Simpson combinations
 Extension of core to zero
 LDM version in phi
 Fifth-order quadrature in outwin


            ---------
:ITE024: 24. ITERATION
            ---------

:NATO :    1 INDEPENDENT AND    1 TOTAL ATOMS IN UNITCELL
       SUBSTANCE: blebleble                                                   

       LATTICE                      = F   
:POT  : POTENTIAL OPTION EX_LDA EC_LDA VX_LDA VC_LDA
:LAT  : LATTICE CONSTANTS=  7.33567  7.33567  7.33567    1.571    1.571    1.571
:VOL  : UNIT CELL VOLUME =      98.68671
       MODE OF CALCULATION IS       = RELA
       NON-SPINPOLARIZED CALCULATION
:IFFT  : FFT-parameters:   60   60   60 Factor: 2.00


   CONVERGENCE PARAMETER FOR PSEUDOCHARGE: NCON=  9
   MAXIMAL VALUE OF RMT(JATOM)*ABSK(NKK) : RK  =29.97839


:VKCOUL :  VK-COUL convergence: 0.270E-06
       ATOMNUMBER=  1 Pr         VCOUL-ZERO =  0.11183E+01
:FIT001: LUSE= 13 SIGMA OF V-XC FIT FOR ATOM  1  0.1948898E-03
:FIT001: LUSE= 13 SIGMA OF V-XC FIT FOR ATOM  1  0.1948898E-03
:DEN  : DENSITY INTEGRAL  =         -7133.95473591   (Ry)
       ELS_POTENTIAL_AT Z=0 and Z=0.5:  -3.19569  -3.19569
       ELS_POTENTIAL_AT Y=0 and Y=0.5:   0.00000   0.00000
:VZERO:v0,v0c,v0x  -4.39331  -3.19569  -1.19763 v5,v5c,v5x  -4.39331  -3.19569  -1.19763
:VZERY:v0,v0c,v0x  -1.01556   0.00000  -1.01556 v5,v5c,v5x  -1.01556   0.00000  -1.01556
:VZERX:v0,v0c,v0x  -1.01556   0.00000  -1.01556 v5,v5c,v5x  -1.01556   0.00000  -1.01556

------- case.scf1 --------
:LMAX-WF:   10   Non-Spherical LMAX:   4

          ATOMIC SPHERE DEPENDENT PARAMETERS FOR ATOM  Pr        
:e__0001: OVERALL ENERGY PARAMETER IS    1.3924
          OVERALL BASIS SET ON ATOM IS LAPW
:E0_0001: E( 0)=    1.3924
             APW+lo
:E0_0001: E( 0)=   -1.0669   E(BOTTOM)=   -1.475   E(TOP)=   -0.659  4  5   274
             LOCAL ORBITAL
:E1_0001: E( 1)=    1.7924
             APW+lo
:E1_0001: E( 1)=    0.3003   E(BOTTOM)=   -0.386   E(TOP)=    0.986  3  4   276
             LOCAL ORBITAL
:E3_0001: E( 3)=    1.6299   E(BOTTOM)=    1.470   E(TOP)=    1.790  0  1   126
             APW+lo
:E2_0001: E( 2)=    1.3924   E(BOTTOM)=    1.151   E(TOP)= -200.000  2 -1   125
             APW+lo

       K=   0.00000   0.00000   0.00000            1
:RKM  : MATRIX SIZE    79LOs:  20  RKM= 7.42  WEIGHT= 1.00  PGR:    
       EIGENVALUES ARE:
:EIG00001:      -1.2331612    0.5843939    0.5843939    0.5843939    1.4756267
:EIG00006:       1.5996516    1.5996516    1.5996516    1.6593490    1.7198018
:EIG00011:       1.7198018    1.7198018    1.7403672    1.7403672    1.7403672
:EIG00016:       2.1995916    2.1995916    2.7381827    3.1046350    3.1835579
:EIG00021:       3.1835579    3.1835579    5.3199719    5.3199719    5.3199719
:EIG00026:       5.3275299    5.3275299    5.6527096    5.6527096    5.6527096
:EIG00031:       6.3863546    6.8692385    6.8692385    6.8692385    7.5282414
:EIG00036:       7.5282414    7.5282414    7.9380268    7.9380268    7.9380268
:EIG00041:       8.0447089    8.0447089    8.1273705    8.1273705    8.1273705
:EIG00046:       8.3418136    8.3418136    8.3418136    8.4192123    8.4192123
 
:EIG00051:       8.6017970    8.6523324    8.6565172    8.6565172    8.6565172
       ********************************************************

:KPT   :      NUMBER OF K-POINTS:   165

------- case.scfso --------
   0.0   0.0 angle (M,z), angle (M,x) deg
 
        SPIN-ORBIT EIGENVALUES:
     K=   0.00000   0.00000   0.00000            1
      MATRIX SIZE=  110   WEIGHT= 1.00
     EIGENVALUES ARE:
          -1.2331612   -1.2331612    0.4096602    0.4096602    0.6674361
           0.6674361    0.6674361    0.6674361    1.4750635    1.4750635
           1.5939765    1.5939765    1.5939765    1.5939765    1.6088204
           1.6088204    1.6593490    1.6593490    1.7143497    1.7143497
           1.7143497    1.7143497    1.7297656    1.7297656    1.7363546
           1.7363546    1.7437598    1.7437598    1.7437598    1.7437598
           2.1999435    2.1999435    2.1999435    2.1999435    2.7382932
           2.7382932    3.1046350    3.1046350    3.1784978    3.1784978

           3.1862424    3.1862424    3.1862424    3.1862424
       ********************************************************

------- case.scf2 --------
:GMA  : POTENTIAL AND CHARGE CUT-OFF  12.00 Ry**.5




:POS001: at.nr.   1 position = 0.00000 0.00000 0.50000  multiplicity =  1

       lmmax  5
       lm=   0 0  4 0  4 4  6 0  6 4
:FER gutzwiller fermi energy   1.60257
:EORB          0.074552173
:SUM sum of gutz band energies          6.870079050

:CHA001: total charge inside sphere   1 =    11.301100
:PCS001: partial charges sphere =  1 s,p,d,f,      d-eg,d-t2g 
:QTL001: 2.0274 5.3034 1.5213 2.4199 0.0000 0.0000 0.0000 0.5855 0.9357 0.0000 0.0000 0.0000

:CHA  : total charge inside unit cell =       6.500000

------- case.scfc --------

        1.ATOM      Pr                   14 CORE STATES
:1S 001: 1S               -3065.938246893 Ry
:2S 001: 2S                -491.684428860 Ry
:2PP001: 2P*               -464.784006204 Ry
:2P 001: 2P                -429.386300578 Ry
:3S 001: 3S                -104.780000569 Ry
:3PP001: 3P*                -93.317673987 Ry
:3P 001: 3P                 -86.309980304 Ry
:3DD001: 3D*                -66.235780718 Ry
:3D 001: 3D                 -64.724310423 Ry
:4S 001: 4S                 -19.456606890 Ry
:4PP001: 4P*                -15.163444808 Ry
:4P 001: 4P                 -13.636102512 Ry
:4DD001: 4D*                 -6.569595673 Ry
:4D 001: 4D                  -6.300300600 Ry

------- case.scfm --------
:CINT001 Core Integral Atom   1   45.999460

       DENSITY AT NUCLEUS
        JATOM        VALENCE       SEMI-CORE          CORE           TOTAL
:RTO001:   1      637.005099        0.000000   656824.977082   657461.982182
     
       CHARGES OF NEW CHARGE DENSITY
:NTO   : INTERSTITIAL CHARGE =     1.698711
:NPC   : PW Pseudocharge     =     8.870817
:NTO001: CHARGE SPHERE  1    =    57.300560

:NEC01: NUCLEAR AND ELECTRONIC CHARGE     59.00000    58.99927
     
       CHARGES OF OLD CHARGE DENSITY
:OTO   : INTERSTITIAL CHARGE =     1.716299
:OPC   : PW Pseudocharge     =     8.874393
:OTO001: CHARGE SPHERE  1    =    57.283701

:NEC02: NUCLEAR AND ELECTRONIC CHARGE     59.00000    59.00000
     
       CONVERGENCE TEST
:DTO001: DIFFERENCE IN SPHERE  1 =  0.0537217

:DIS  :  CHARGE DISTANCE       ( 0.0537217 for atom    1 spin 1)      0.0537217
 PW Mixed is           26
 
******************************************************
* MULTISECANT MIXING VER9 RELEASE 10.4.0              *
* Slow Mode, cautious                                *
* Fixed density scale                                *
* Regularization       1.000E-04                     *
* Step Trust Radius    0.75000                       *
* Trust Upper Limit    2.000E+00                     *
* Max Number of Memory Steps   12                    *
******************************************************
 
:PWTMP   3.3237E+01  1.2500E+02  9.8687E+01
:PLANE:  PW TOTAL      2.6737 DISTAN   7.95E-03  2.97E-01 %
:CHARG:  CLM/ATOM    977.1674 DISTAN   6.94E-02  7.10E-03 %
 
Step History
        DMIX         DMIXT        Red     Pred      Trust     Lambda    MagRel    MagAbs     Beta
  1   3.5000E-02   3.5000E-02 -1.00E+00  1.00E+00 -1.00E+01  1.00E+00  3.50E-02  3.50E-02  1.00E+00
  2   2.5000E-02   2.5000E-02  9.16E-01  1.00E+00 -1.00E+01  1.00E+00  2.50E-02  3.64E-03  1.00E+00
  3   2.0000E-02   2.0000E-02  6.70E-01  6.73E-01  5.11E-01  6.05E-02  4.70E-01  6.26E-02  1.00E+00
  4   1.3567E-02   1.3567E-02  9.60E-01  1.00E+00  6.39E-01  1.46E+00  1.36E-02  1.22E-03  1.00E+00
  5   3.3917E-02   3.0245E-02 -1.00E+00  5.49E-01  6.66E-01  1.00E+00  6.66E-01  5.71E-02  1.00E+00
:JACOBIANS    7.906E-01   3.051E-01
  
:NORMS:  1/Froebius, Min, Max, Used   0.7230E+00  0.3727E+00  0.9975E+00  0.8459E+00
:INFO :  Number of Memory Steps    4 Skipping    0
:INFO :  SLambda=    1.5304452847  Max    1.5304452847
:PREDicted Charge, CTotal, PW Trust    6.794E-03   6.794E-03   3.566E-02
:PREDicted DMix, Beta, BLim   2.2653E-01  1.0979E+00  9.1698E-01

Eigenvalues, unscaled except for SY+YY
   #     SY Real        SY Imag          SS             YY         SY+YY Real      SY+YY Imag
   1   1.949266E+00   0.000000E+00   1.871436E+00   2.615102E+00   5.332847E+00   0.000000E+00
   2   5.309419E-01   0.000000E+00   2.193590E-01   1.384617E+00   2.462645E+00   0.000000E+00
   3   3.516388E-08   0.000000E+00   7.093870E-07   2.793538E-04   1.550750E-06   0.000000E+00
   4   1.298377E-05   0.000000E+00   7.909932E-10   1.549326E-06   3.490603E-04   0.000000E+00
 
:INFO :  Singular value  5.340E+00 Weight  1.000E+00 Projection -1.108E-02
:INFO :  Singular value  2.460E+00 Weight  1.000E+00 Projection -5.096E-02
:INFO :  Singular value  3.491E-04 Weight  6.405E-01 Projection -8.496E-01
:INFO :  Singular value  1.551E-06 Weight  3.516E-05 Projection  1.010E-04
:RANK :  ACTIVE   2.64/4  =  66.01 % ; YY RANK   2.53/4  =  63.32 %
 
:BLIM :  VZERO Control Off
:TRUST:  Step 8.17E-01  Charge 7.50E-02 (e) CTO  2.50E-01 (e) PW  3.50E-01 (e)
:DIRM :  MEMORY  4/12 SCALE   1.000 RED  0.81 PRED  0.55 NEXT  0.35 
:TRAVE:  Charge 5.02E-03 (e) CTO  5.02E-03 (e) PW  1.38E-02 (e)
:DIRP :  |MSR1|= 6.561E-03 |PRATT|= 7.949E-03 ANGLE=  41.5 DEGREES
:DIRQ :  |MSR1|= 3.622E-02 |PRATT|= 6.939E-02 ANGLE=  12.9 DEGREES
:DIRT :  |MSR1|= 3.680E-02 |PRATT|= 6.985E-02 ANGLE=  14.5 DEGREES
:MIX  :   MSE1   REGULARIZATION:  2.62E-04 GREED: 0.08479  Newton 1.00  0.5269                
     
       CHARGES OF MIXED CHARGE DENSITY
:CTO   : INTERSTITIAL CHARGE =     1.708383
:CPC   : PW Pseudocharge     =     8.885521
:CTO001: CHARGE SPHERE  1    =    57.291617

:NEC03: NUCLEAR AND ELECTRONIC CHARGE     59.00000    59.00000

PW CHANGE     H    K    L      Current       Change    Residue
:PTO001:      0    0    0  1.07348844E-01  3.255E-05 -1.685E-04
:PTO002:     -1   -1   -1 -1.84869158E-01 -5.682E-04 -5.341E-04
:PTO003:      0    0   -2  8.77786402E-02  4.851E-04  5.585E-04
:PTO004:      0   -2   -2  2.73954030E-02 -1.258E-04 -5.052E-04
:PTO005:     -1   -1   -3  6.91741500E-03 -1.682E-04  2.808E-04
:PTO006:     -2   -2   -2 -5.50547792E-03  4.432E-05 -1.030E-04
:PTO007:      0    0   -4 -4.45326780E-03  1.253E-04  8.330E-05
:PTO008:     -1   -3   -3  9.89852079E-03 -3.323E-04 -1.395E-04
:PTO009:      0   -2   -4 -8.76370723E-03  3.697E-04  2.289E-04
:PTO010:     -2   -2   -4 -5.76728685E-03  3.037E-04  2.515E-04
:PTO011:     -3   -3   -3  1.35728687E-03 -6.478E-05 -5.470E-05
:PTO012:     -1   -1   -5  3.62515891E-03 -2.242E-04 -2.117E-04

:ENE  : ********** TOTAL ENERGY IN Ry =       -18471.95762639


------- case.scf0 --------
 Flat Integration
 New Mode for Coulomb Integral
 Consistent 3/8+Simpson combinations
 Extension of core to zero
 LDM version in phi
 Fifth-order quadrature in outwin


            ---------
:ITE025: 25. ITERATION
            ---------

:NATO :    1 INDEPENDENT AND    1 TOTAL ATOMS IN UNITCELL
       SUBSTANCE: blebleble                                                   

       LATTICE                      = F   
:POT  : POTENTIAL OPTION EX_LDA EC_LDA VX_LDA VC_LDA
:LAT  : LATTICE CONSTANTS=  7.33567  7.33567  7.33567    1.571    1.571    1.571
:VOL  : UNIT CELL VOLUME =      98.68671
       MODE OF CALCULATION IS       = RELA
       NON-SPINPOLARIZED CALCULATION
:IFFT  : FFT-parameters:   60   60   60 Factor: 2.00


   CONVERGENCE PARAMETER FOR PSEUDOCHARGE: NCON=  9
   MAXIMAL VALUE OF RMT(JATOM)*ABSK(NKK) : RK  =29.97839


:VKCOUL :  VK-COUL convergence: 0.271E-06
       ATOMNUMBER=  1 Pr         VCOUL-ZERO =  0.11170E+01
:FIT001: LUSE= 13 SIGMA OF V-XC FIT FOR ATOM  1  0.1899377E-03
:FIT001: LUSE= 13 SIGMA OF V-XC FIT FOR ATOM  1  0.1899377E-03
:DEN  : DENSITY INTEGRAL  =         -7135.16874805   (Ry)
       ELS_POTENTIAL_AT Z=0 and Z=0.5:  -3.19208  -3.19208
       ELS_POTENTIAL_AT Y=0 and Y=0.5:   0.00000   0.00000
:VZERO:v0,v0c,v0x  -4.39103  -3.19208  -1.19895 v5,v5c,v5x  -4.39103  -3.19208  -1.19895
:VZERY:v0,v0c,v0x  -1.01537   0.00000  -1.01537 v5,v5c,v5x  -1.01537   0.00000  -1.01537
:VZERX:v0,v0c,v0x  -1.01537   0.00000  -1.01537 v5,v5c,v5x  -1.01537   0.00000  -1.01537

------- case.scf1 --------
:LMAX-WF:   10   Non-Spherical LMAX:   4

          ATOMIC SPHERE DEPENDENT PARAMETERS FOR ATOM  Pr        
:e__0001: OVERALL ENERGY PARAMETER IS    1.3924
          OVERALL BASIS SET ON ATOM IS LAPW
:E0_0001: E( 0)=    1.3924
             APW+lo
:E0_0001: E( 0)=   -1.0595   E(BOTTOM)=   -1.469   E(TOP)=   -0.650  4  5   279
             LOCAL ORBITAL
:E1_0001: E( 1)=    1.7924
             APW+lo
:E1_0001: E( 1)=    0.3063   E(BOTTOM)=   -0.382   E(TOP)=    0.994  3  4   271
             LOCAL ORBITAL
:E3_0001: E( 3)=    1.6444   E(BOTTOM)=    1.482   E(TOP)=    1.807  0  1   128
             APW+lo
:E2_0001: E( 2)=    1.3924   E(BOTTOM)=    1.154   E(TOP)= -200.000  2 -1   119
             APW+lo

       K=   0.00000   0.00000   0.00000            1
:RKM  : MATRIX SIZE    79LOs:  20  RKM= 7.42  WEIGHT= 1.00  PGR:    
       EIGENVALUES ARE:
:EIG00001:      -1.2270244    0.5910052    0.5910052    0.5910052    1.4859625
:EIG00006:       1.6131051    1.6131051    1.6131051    1.6626434    1.7223618
:EIG00011:       1.7223618    1.7223618    1.7564117    1.7564117    1.7564117
:EIG00016:       2.2033382    2.2033382    2.7442567    3.1046424    3.1871689
:EIG00021:       3.1871689    3.1871689    5.3237919    5.3237919    5.3237919
:EIG00026:       5.3300938    5.3300938    5.6551271    5.6551271    5.6551271
:EIG00031:       6.3873718    6.8690352    6.8690352    6.8690352    7.5305804
:EIG00036:       7.5305804    7.5305804    7.9389902    7.9389902    7.9389902
:EIG00041:       8.0450186    8.0450186    8.1301270    8.1301270    8.1301270
:EIG00046:       8.3438352    8.3438352    8.3438352    8.4245685    8.4245685
 
:EIG00051:       8.6027267    8.6517376    8.6575098    8.6575098    8.6575098
       ********************************************************

:KPT   :      NUMBER OF K-POINTS:   165

------- case.scfso --------
   0.0   0.0 angle (M,z), angle (M,x) deg
 
        SPIN-ORBIT EIGENVALUES:
     K=   0.00000   0.00000   0.00000            1
      MATRIX SIZE=  110   WEIGHT= 1.00
     EIGENVALUES ARE:
          -1.2270244   -1.2270244    0.4165679    0.4165679    0.6739043
           0.6739043    0.6739043    0.6739043    1.4854217    1.4854217
           1.6075243    1.6075243    1.6075243    1.6075243    1.6221540
           1.6221540    1.6626434    1.6626434    1.7169232    1.7169232
           1.7169232    1.7169232    1.7323046    1.7323046    1.7523899
           1.7523899    1.7597617    1.7597617    1.7597617    1.7597617
           2.2036877    2.2036877    2.2036877    2.2036877    2.7443695
           2.7443695    3.1046424    3.1046424    3.1821813    3.1821813

           3.1898185    3.1898185    3.1898185    3.1898185
       ********************************************************

------- case.scf2 --------
:GMA  : POTENTIAL AND CHARGE CUT-OFF  12.00 Ry**.5




:POS001: at.nr.   1 position = 0.00000 0.00000 0.50000  multiplicity =  1

       lmmax  5
       lm=   0 0  4 0  4 4  6 0  6 4
:FER gutzwiller fermi energy   1.60918
:EORB          0.093706984
:SUM sum of gutz band energies          6.933671450

:CHA001: total charge inside sphere   1 =    11.286342
:PCS001: partial charges sphere =  1 s,p,d,f,      d-eg,d-t2g 
:QTL001: 2.0281 5.3011 1.5337 2.3939 0.0000 0.0000 0.0000 0.5898 0.9439 0.0000 0.0000 0.0000

:CHA  : total charge inside unit cell =       6.500000

------- case.scfc --------

        1.ATOM      Pr                   14 CORE STATES
:1S 001: 1S               -3065.912462771 Ry
:2S 001: 2S                -491.657608770 Ry
:2PP001: 2P*               -464.757396086 Ry
:2P 001: 2P                -429.359611379 Ry
:3S 001: 3S                -104.752393293 Ry
:3PP001: 3P*                -93.290079551 Ry
:3P 001: 3P                 -86.282435132 Ry
:3DD001: 3D*                -66.208206650 Ry
:3D 001: 3D                 -64.696739672 Ry
:4S 001: 4S                 -19.434547625 Ry
:4PP001: 4P*                -15.141783252 Ry
:4P 001: 4P                 -13.615039189 Ry
:4DD001: 4D*                 -6.549612556 Ry
:4D 001: 4D                  -6.280522544 Ry

------- case.scfm --------
:CINT001 Core Integral Atom   1   45.999454

       DENSITY AT NUCLEUS
        JATOM        VALENCE       SEMI-CORE          CORE           TOTAL
:RTO001:   1      636.242373        0.000000   656824.012436   657460.254809
     
       CHARGES OF NEW CHARGE DENSITY
:NTO   : INTERSTITIAL CHARGE =     1.713756
:NPC   : PW Pseudocharge     =     8.898446
:NTO001: CHARGE SPHERE  1    =    57.285796

:NEC01: NUCLEAR AND ELECTRONIC CHARGE     59.00000    58.99955
     
       CHARGES OF OLD CHARGE DENSITY
:OTO   : INTERSTITIAL CHARGE =     1.708383
:OPC   : PW Pseudocharge     =     8.885521
:OTO001: CHARGE SPHERE  1    =    57.291617

:NEC02: NUCLEAR AND ELECTRONIC CHARGE     59.00000    59.00000
     
       CONVERGENCE TEST
:DTO001: DIFFERENCE IN SPHERE  1 =  0.0311508

:DIS  :  CHARGE DISTANCE       ( 0.0311508 for atom    1 spin 1)      0.0311508
 PW Mixed is           26
 
******************************************************
* MULTISECANT MIXING VER9 RELEASE 10.4.0              *
* Standard Mode with controls                        *
* Fixed density scale                                *
* Regularization       1.000E-04                     *
* Trust Upper Limit    5.000E+00                     *
* Max Number of Memory Steps    8                    *
******************************************************
 
:PWTMP   3.3237E+01  1.2500E+02  9.8687E+01
:PLANE:  PW TOTAL      2.6772 DISTAN   5.36E-03  2.00E-01 %
:CHARG:  CLM/ATOM    977.1649 DISTAN   3.34E-02  3.42E-03 %
 
Step History
        DMIX         DMIXT        Red     Pred      Trust     Lambda    MagRel    MagAbs     Beta
  1   3.5000E-02   3.5000E-02 -1.00E+00  1.00E+00 -1.00E+01  1.00E+00  3.50E-02  3.50E-02  1.00E+00
  2   2.5000E-02   2.5000E-02  9.16E-01  1.00E+00 -1.00E+01  1.00E+00  2.50E-02  3.64E-03  1.00E+00
  3   2.0000E-02   2.0000E-02  6.70E-01  6.73E-01  5.11E-01  6.05E-02  4.70E-01  6.26E-02  1.00E+00
  4   1.3567E-02   1.3567E-02  9.60E-01  1.00E+00  6.39E-01  1.46E+00  1.36E-02  1.22E-03  1.00E+00
  5   3.3917E-02   3.0245E-02  8.15E-01  5.49E-01  6.66E-01  1.53E+00  6.66E-01  5.71E-02  1.00E+00
  6   8.4792E-02   8.4792E-02 -1.00E+00  3.55E-01  8.17E-01  1.00E+00  5.27E-01  3.68E-02  1.00E+00
:JACOBIANS    8.872E-01   5.163E-01
  
:NORMS:  1/Froebius, Min, Max, Used   0.5574E+00  0.4734E+00  0.1024E+01  0.5775E+00
:INFO :  Number of Memory Steps    5 Skipping    0
:INFO :  SLambda=    1.8645226694  Max    1.8645226694
:PREDicted Charge, CTotal, PW Trust    1.067E-02   1.067E-02   3.764E-04
:PREDicted DMix, Beta, BLim   1.6485E-01  1.3771E+00  7.2915E-01

Eigenvalues, unscaled except for SY+YY
   #     SY Real        SY Imag          SS             YY         SY+YY Real      SY+YY Imag
   1   1.805403E+00   0.000000E+00   1.281208E+00   4.454050E+00   7.735649E+00   0.000000E+00
   2   4.309106E-01   0.000000E+00   2.723833E-01   5.453741E-01   1.433219E+00   0.000000E+00
   3   1.473661E-04   0.000000E+00   6.228556E-05   5.476317E-04   1.024613E-03   0.000000E+00
   4   6.044452E-09   0.000000E+00   1.577272E-07   2.762532E-05   3.156519E-07   0.000000E+00
   5   2.995425E-06   0.000000E+00   1.131015E-10   3.091125E-07   4.476076E-05   0.000000E+00
 
:INFO :  Singular value  7.738E+00 Weight  1.000E+00 Projection  6.792E-03
:INFO :  Singular value  1.433E+00 Weight  1.000E+00 Projection -1.199E-02
:INFO :  Singular value  1.025E-03 Weight  8.411E-01 Projection -9.083E-01
:INFO :  Singular value  4.476E-05 Weight  9.998E-03 Projection  2.694E-02
:INFO :  Singular value  3.156E-07 Weight  5.020E-07 Projection -1.859E-06
:RANK :  ACTIVE   2.85/5  =  57.02 % ; YY RANK   2.61/5  =  52.11 %
 
:BLIM :  VZERO Control Off
:TRUST:  Step 1.09E+00  Charge 5.63E-02 (e) CTO  1.88E-01 (e) PW  2.63E-01 (e)
:DIRM :  MEMORY  5/8  SCALE   1.000 RED  0.48 PRED  0.35 NEXT  0.43 
:TRAVE:  Charge 3.83E-03 (e) CTO  3.83E-03 (e) PW  7.68E-03 (e)
:DIRP :  |MSR1|= 3.124E-03 |PRATT|= 5.359E-03 ANGLE=  73.3 DEGREES
:DIRQ :  |MSR1|= 1.584E-02 |PRATT|= 3.344E-02 ANGLE=  75.1 DEGREES
:DIRT :  |MSR1|= 1.615E-02 |PRATT|= 3.387E-02 ANGLE=  75.0 DEGREES
:MIX  :   MSE1   REGULARIZATION:  4.45E-04 GREED: 0.11027  Newton 1.00  0.4769                
     
       CHARGES OF MIXED CHARGE DENSITY
:CTO   : INTERSTITIAL CHARGE =     1.705746
:CPC   : PW Pseudocharge     =     8.883396
:CTO001: CHARGE SPHERE  1    =    57.294254

:NEC03: NUCLEAR AND ELECTRONIC CHARGE     59.00000    59.00000

PW CHANGE     H    K    L      Current       Change    Residue
:PTO001:      0    0    0  1.07300588E-01 -4.826E-05  2.136E-04
:PTO002:     -1   -1   -1 -1.84750181E-01  1.190E-04  1.041E-04
:PTO003:      0    0   -2  8.77642403E-02 -1.440E-05 -6.357E-05
:PTO004:      0   -2   -2  2.70577736E-02 -3.376E-04 -3.529E-04
:PTO005:     -1   -1   -3  7.30448701E-03  3.871E-04  4.166E-04
:PTO006:     -2   -2   -2 -5.63005601E-03 -1.246E-04 -1.324E-04
:PTO007:      0    0   -4 -4.48703653E-03 -3.377E-05 -3.780E-05
:PTO008:     -1   -3   -3  1.00415505E-02  1.430E-04  1.295E-04
:PTO009:      0   -2   -4 -8.86733356E-03 -1.036E-04 -9.301E-05
:PTO010:     -2   -2   -4 -5.79981655E-03 -3.253E-05 -1.935E-05
:PTO011:     -3   -3   -3  1.36299209E-03  5.705E-06  2.330E-06
:PTO012:     -1   -1   -5  3.63039336E-03  5.234E-06 -7.744E-07

:ENE  : ********** TOTAL ENERGY IN Ry =       -18471.95710523


------- case.scf0 --------
 Flat Integration
 New Mode for Coulomb Integral
 Consistent 3/8+Simpson combinations
 Extension of core to zero
 LDM version in phi
 Fifth-order quadrature in outwin


            ---------
:ITE026: 26. ITERATION
            ---------

:NATO :    1 INDEPENDENT AND    1 TOTAL ATOMS IN UNITCELL
       SUBSTANCE: blebleble                                                   

       LATTICE                      = F   
:POT  : POTENTIAL OPTION EX_LDA EC_LDA VX_LDA VC_LDA
:LAT  : LATTICE CONSTANTS=  7.33567  7.33567  7.33567    1.571    1.571    1.571
:VOL  : UNIT CELL VOLUME =      98.68671
       MODE OF CALCULATION IS       = RELA
       NON-SPINPOLARIZED CALCULATION
:IFFT  : FFT-parameters:   60   60   60 Factor: 2.00


   CONVERGENCE PARAMETER FOR PSEUDOCHARGE: NCON=  9
   MAXIMAL VALUE OF RMT(JATOM)*ABSK(NKK) : RK  =29.97839


:VKCOUL :  VK-COUL convergence: 0.272E-06
       ATOMNUMBER=  1 Pr         VCOUL-ZERO =  0.11164E+01
:FIT001: LUSE= 13 SIGMA OF V-XC FIT FOR ATOM  1  0.1877354E-03
:FIT001: LUSE= 13 SIGMA OF V-XC FIT FOR ATOM  1  0.1877354E-03
:DEN  : DENSITY INTEGRAL  =         -7135.34156592   (Ry)
       ELS_POTENTIAL_AT Z=0 and Z=0.5:  -3.19034  -3.19034
       ELS_POTENTIAL_AT Y=0 and Y=0.5:   0.00000   0.00000
:VZERO:v0,v0c,v0x  -4.38934  -3.19034  -1.19900 v5,v5c,v5x  -4.38934  -3.19034  -1.19900
:VZERY:v0,v0c,v0x  -1.01519   0.00000  -1.01519 v5,v5c,v5x  -1.01519   0.00000  -1.01519
:VZERX:v0,v0c,v0x  -1.01519   0.00000  -1.01519 v5,v5c,v5x  -1.01519   0.00000  -1.01519

------- case.scf1 --------
:LMAX-WF:   10   Non-Spherical LMAX:   4

          ATOMIC SPHERE DEPENDENT PARAMETERS FOR ATOM  Pr        
:e__0001: OVERALL ENERGY PARAMETER IS    1.3924
          OVERALL BASIS SET ON ATOM IS LAPW
:E0_0001: E( 0)=    1.3924
             APW+lo
:E0_0001: E( 0)=   -1.0581   E(BOTTOM)=   -1.468   E(TOP)=   -0.648  4  5   272
             LOCAL ORBITAL
:E1_0001: E( 1)=    1.7924
             APW+lo
:E1_0001: E( 1)=    0.3073   E(BOTTOM)=   -0.381   E(TOP)=    0.996  3  4   273
             LOCAL ORBITAL
:E3_0001: E( 3)=    1.6472   E(BOTTOM)=    1.484   E(TOP)=    1.810  0  1   123
             APW+lo
:E2_0001: E( 2)=    1.3924   E(BOTTOM)=    1.154   E(TOP)= -200.000  2 -1   121
             APW+lo

       K=   0.00000   0.00000   0.00000            1
:RKM  : MATRIX SIZE    79LOs:  20  RKM= 7.42  WEIGHT= 1.00  PGR:    
       EIGENVALUES ARE:
:EIG00001:      -1.2259230    0.5922103    0.5922103    0.5922103    1.4878122
:EIG00006:       1.6157232    1.6157232    1.6157232    1.6631245    1.7226278
:EIG00011:       1.7226278    1.7226278    1.7595195    1.7595195    1.7595195
:EIG00016:       2.2039118    2.2039118    2.7451768    3.1044071    3.1876963
:EIG00021:       3.1876963    3.1876963    5.3243013    5.3243013    5.3243013
:EIG00026:       5.3303840    5.3303840    5.6553586    5.6553586    5.6553586
:EIG00031:       6.3873320    6.8687323    6.8687323    6.8687323    7.5308250
:EIG00036:       7.5308250    7.5308250    7.9388980    7.9388980    7.9388980
:EIG00041:       8.0447946    8.0447946    8.1304580    8.1304580    8.1304580
:EIG00046:       8.3439535    8.3439535    8.3439535    8.4254113    8.4254113
 
:EIG00051:       8.6026732    8.6513430    8.6574499    8.6574499    8.6574499
       ********************************************************

:KPT   :      NUMBER OF K-POINTS:   165

------- case.scfso --------
   0.0   0.0 angle (M,z), angle (M,x) deg
 
        SPIN-ORBIT EIGENVALUES:
     K=   0.00000   0.00000   0.00000            1
      MATRIX SIZE=  110   WEIGHT= 1.00
     EIGENVALUES ARE:
          -1.2259230   -1.2259230    0.4178395    0.4178395    0.6750772
           0.6750772    0.6750772    0.6750772    1.4872760    1.4872760
           1.6101603    1.6101603    1.6101603    1.6101603    1.6247489
           1.6247489    1.6631245    1.6631245    1.7171924    1.7171924
           1.7171924    1.7171924    1.7325658    1.7325658    1.7554952
           1.7554952    1.7628616    1.7628616    1.7628616    1.7628616
           2.2042607    2.2042607    2.2042607    2.2042607    2.7452901
           2.7452901    3.1044071    3.1044071    3.1827253    3.1827253

           3.1903378    3.1903378    3.1903378    3.1903378
       ********************************************************

------- case.scf2 --------
:GMA  : POTENTIAL AND CHARGE CUT-OFF  12.00 Ry**.5




:POS001: at.nr.   1 position = 0.00000 0.00000 0.50000  multiplicity =  1

       lmmax  5
       lm=   0 0  4 0  4 4  6 0  6 4
:FER gutzwiller fermi energy   1.61096
:EORB          0.096086290
:SUM sum of gutz band energies          6.945711148

:CHA001: total charge inside sphere   1 =    11.281866
:PCS001: partial charges sphere =  1 s,p,d,f,      d-eg,d-t2g 
:QTL001: 2.0284 5.3009 1.5388 2.3841 0.0000 0.0000 0.0000 0.5916 0.9472 0.0000 0.0000 0.0000

:CHA  : total charge inside unit cell =       6.500000

------- case.scfc --------

        1.ATOM      Pr                   14 CORE STATES
:1S 001: 1S               -3065.911239706 Ry
:2S 001: 2S                -491.655348983 Ry
:2PP001: 2P*               -464.755357743 Ry
:2P 001: 2P                -429.357489648 Ry
:3S 001: 3S                -104.748445798 Ry
:3PP001: 3P*                -93.286218092 Ry
:3P 001: 3P                 -86.278500855 Ry
:3DD001: 3D*                -66.204486256 Ry
:3D 001: 3D                 -64.692990656 Ry
:4S 001: 4S                 -19.430426751 Ry
:4PP001: 4P*                -15.137729298 Ry
:4P 001: 4P                 -13.611061381 Ry
:4DD001: 4D*                 -6.545820117 Ry
:4D 001: 4D                  -6.276759563 Ry

------- case.scfm --------
:CINT001 Core Integral Atom   1   45.999452

       DENSITY AT NUCLEUS
        JATOM        VALENCE       SEMI-CORE          CORE           TOTAL
:RTO001:   1      636.126990        0.000000   656824.216259   657460.343249
     
       CHARGES OF NEW CHARGE DENSITY
:NTO   : INTERSTITIAL CHARGE =     1.718205
:NPC   : PW Pseudocharge     =     8.906926
:NTO001: CHARGE SPHERE  1    =    57.281318

:NEC01: NUCLEAR AND ELECTRONIC CHARGE     59.00000    58.99952
     
       CHARGES OF OLD CHARGE DENSITY
:OTO   : INTERSTITIAL CHARGE =     1.705746
:OPC   : PW Pseudocharge     =     8.883396
:OTO001: CHARGE SPHERE  1    =    57.294254

:NEC02: NUCLEAR AND ELECTRONIC CHARGE     59.00000    59.00000
     
       CONVERGENCE TEST
:DTO001: DIFFERENCE IN SPHERE  1 =  0.0496046

:DIS  :  CHARGE DISTANCE       ( 0.0496046 for atom    1 spin 1)      0.0496046
 PW Mixed is           26
 
******************************************************
* MULTISECANT MIXING VER9 RELEASE 10.4.0              *
* Standard Mode with controls                        *
* Fixed density scale                                *
* Regularization       1.000E-04                     *
* Trust Upper Limit    5.000E+00                     *
* Max Number of Memory Steps    8                    *
******************************************************
 
:PWTMP   3.3237E+01  1.2500E+02  9.8687E+01
:PLANE:  PW TOTAL      2.6759 DISTAN   8.10E-03  3.03E-01 %
:CHARG:  CLM/ATOM    977.1613 DISTAN   4.97E-02  5.09E-03 %
 
Step History
        DMIX         DMIXT        Red     Pred      Trust     Lambda    MagRel    MagAbs     Beta
  1   3.5000E-02   3.5000E-02 -1.00E+00  1.00E+00 -1.00E+01  1.00E+00  3.50E-02  3.50E-02  1.00E+00
  2   2.5000E-02   2.5000E-02  9.16E-01  1.00E+00 -1.00E+01  1.00E+00  2.50E-02  3.64E-03  1.00E+00
  3   2.0000E-02   2.0000E-02  6.70E-01  6.73E-01  5.11E-01  6.05E-02  4.70E-01  6.26E-02  1.00E+00
  4   1.3567E-02   1.3567E-02  9.60E-01  1.00E+00  6.39E-01  1.46E+00  1.36E-02  1.22E-03  1.00E+00
  5   3.3917E-02   3.0245E-02  8.15E-01  5.49E-01  6.66E-01  1.53E+00  6.66E-01  5.71E-02  1.00E+00
  6   8.4792E-02   8.4792E-02  4.85E-01  3.55E-01  8.17E-01  1.86E+00  5.27E-01  3.68E-02  1.00E+00
  7   1.1027E-01   1.1027E-01 -1.00E+00  4.35E-01  1.09E+00  1.00E+00  4.77E-01  1.62E-02  1.00E+00
:JACOBIANS    9.478E-01   8.141E-01
  
:NORMS:  1/Froebius, Min, Max, Used   0.5478E+00  0.4103E+00  0.9995E+00  0.5867E+00
:INFO :  Number of Memory Steps    6 Skipping    0
:INFO :  SLambda=    1.9604849955  Max    1.9604849955
:PREDicted Charge, CTotal, PW Trust    6.851E-05   6.851E-05   2.612E-04
:PREDicted DMix, Beta, BLim   2.4577E-01  6.6499E-01  9.2483E-01

Eigenvalues, unscaled except for SY+YY
   #     SY Real        SY Imag          SS             YY         SY+YY Real      SY+YY Imag
   1   2.167163E+00   0.000000E+00   1.425933E+00   5.480575E+00   9.703885E+00   0.000000E+00
   2   3.783958E-01   0.000000E+00   3.439741E-01   4.041823E-01   1.164351E+00   0.000000E+00
   3   7.198368E-02   0.000000E+00   3.060271E-02   1.149264E-01   2.630353E-01   0.000000E+00
   4   1.779589E-05   0.000000E+00   9.720260E-07   3.150705E-04   4.157312E-04   0.000000E+00
   5   2.173409E-09   0.000000E+00   4.517254E-09   8.440925E-07   8.625931E-08   0.000000E+00
   6   5.134694E-08   0.000000E+00   6.168779E-11   7.805383E-08   9.501121E-07   0.000000E+00
 
:INFO :  Singular value  9.708E+00 Weight  1.000E+00 Projection -1.565E-02
:INFO :  Singular value  1.165E+00 Weight  1.000E+00 Projection -1.504E-02
:INFO :  Singular value  2.629E-01 Weight  1.000E+00 Projection -5.579E-02
:INFO :  Singular value  4.158E-04 Weight  3.653E-01 Projection  2.410E-01
:INFO :  Singular value  9.502E-07 Weight  3.006E-06 Projection -1.879E-06
:INFO :  Singular value  8.624E-08 Weight  2.476E-08 Projection -9.932E-08
:RANK :  ACTIVE   3.37/6  =  56.09 % ; YY RANK   3.25/6  =  54.14 %
 
:DLIM :  Beta Active  8.000E-01
:BLIM :  VZERO Control Off
:TRUST:  Step 9.15E-01  Charge 4.09E-02 (e) CTO  1.36E-01 (e) PW  1.91E-01 (e)
:DIRM :  MEMORY  6/8  SCALE   1.000 RED  1.49 PRED  0.43 NEXT  0.26 BETA  0.80
:TRAVE:  Charge 3.07E-03 (e) CTO  3.07E-03 (e) PW  4.77E-03 (e)
:DIRP :  |MSR1|= 1.345E-03 |PRATT|= 8.098E-03 ANGLE=  30.9 DEGREES
:DIRQ :  |MSR1|= 9.561E-03 |PRATT|= 4.970E-02 ANGLE=  15.7 DEGREES
:DIRT :  |MSR1|= 9.655E-03 |PRATT|= 5.036E-02 ANGLE=  16.2 DEGREES
:MIX  :   MSE1   REGULARIZATION:  5.48E-04 GREED: 0.16438  Newton 1.00  0.1917                
     
       CHARGES OF MIXED CHARGE DENSITY
:CTO   : INTERSTITIAL CHARGE =     1.708067
:CPC   : PW Pseudocharge     =     8.886589
:CTO001: CHARGE SPHERE  1    =    57.291933

:NEC03: NUCLEAR AND ELECTRONIC CHARGE     59.00000    59.00000

PW CHANGE     H    K    L      Current       Change    Residue
:PTO001:      0    0    0  1.07356457E-01  5.587E-05  3.946E-04
:PTO002:     -1   -1   -1 -1.84745448E-01  4.733E-06 -1.730E-05
:PTO003:      0    0   -2  8.77358726E-02 -2.837E-05 -8.419E-05
:PTO004:      0   -2   -2  2.71237829E-02  6.601E-05 -6.763E-06
:PTO005:     -1   -1   -3  7.21725656E-03 -8.723E-05  2.778E-05
:PTO006:     -2   -2   -2 -5.59624480E-03  3.381E-05 -3.972E-06
:PTO007:      0    0   -4 -4.47582039E-03  1.122E-05 -5.807E-06
:PTO008:     -1   -3   -3  9.98653446E-03 -5.502E-05 -2.671E-05
:PTO009:      0   -2   -4 -8.82538671E-03  4.195E-05  1.860E-05
:PTO010:     -2   -2   -4 -5.77631252E-03  2.350E-05  2.057E-05
:PTO011:     -3   -3   -3  1.35774924E-03 -5.243E-06 -5.355E-06
:PTO012:     -1   -1   -5  3.62004939E-03 -1.034E-05 -8.004E-06

:ENE  : ********** TOTAL ENERGY IN Ry =       -18471.95723557


------- case.scf0 --------
 Flat Integration
 New Mode for Coulomb Integral
 Consistent 3/8+Simpson combinations
 Extension of core to zero
 LDM version in phi
 Fifth-order quadrature in outwin


            ---------
:ITE027: 27. ITERATION
            ---------

:NATO :    1 INDEPENDENT AND    1 TOTAL ATOMS IN UNITCELL
       SUBSTANCE: blebleble                                                   

       LATTICE                      = F   
:POT  : POTENTIAL OPTION EX_LDA EC_LDA VX_LDA VC_LDA
:LAT  : LATTICE CONSTANTS=  7.33567  7.33567  7.33567    1.571    1.571    1.571
:VOL  : UNIT CELL VOLUME =      98.68671
       MODE OF CALCULATION IS       = RELA
       NON-SPINPOLARIZED CALCULATION
:IFFT  : FFT-parameters:   60   60   60 Factor: 2.00


   CONVERGENCE PARAMETER FOR PSEUDOCHARGE: NCON=  9
   MAXIMAL VALUE OF RMT(JATOM)*ABSK(NKK) : RK  =29.97839


:VKCOUL :  VK-COUL convergence: 0.272E-06
       ATOMNUMBER=  1 Pr         VCOUL-ZERO =  0.11173E+01
:FIT001: LUSE= 13 SIGMA OF V-XC FIT FOR ATOM  1  0.1884222E-03
:FIT001: LUSE= 13 SIGMA OF V-XC FIT FOR ATOM  1  0.1884222E-03
:DEN  : DENSITY INTEGRAL  =         -7134.86185861   (Ry)
       ELS_POTENTIAL_AT Z=0 and Z=0.5:  -3.19265  -3.19265
       ELS_POTENTIAL_AT Y=0 and Y=0.5:   0.00000   0.00000
:VZERO:v0,v0c,v0x  -4.39172  -3.19265  -1.19906 v5,v5c,v5x  -4.39172  -3.19265  -1.19906
:VZERY:v0,v0c,v0x  -1.01542   0.00000  -1.01542 v5,v5c,v5x  -1.01542   0.00000  -1.01542
:VZERX:v0,v0c,v0x  -1.01542   0.00000  -1.01542 v5,v5c,v5x  -1.01542   0.00000  -1.01542

------- case.scf1 --------
:LMAX-WF:   10   Non-Spherical LMAX:   4

          ATOMIC SPHERE DEPENDENT PARAMETERS FOR ATOM  Pr        
:e__0001: OVERALL ENERGY PARAMETER IS    1.3924
          OVERALL BASIS SET ON ATOM IS LAPW
:E0_0001: E( 0)=    1.3924
             APW+lo
:E0_0001: E( 0)=   -1.0605   E(BOTTOM)=   -1.470   E(TOP)=   -0.651  4  5   276
             LOCAL ORBITAL
:E1_0001: E( 1)=    1.7924
             APW+lo
:E1_0001: E( 1)=    0.3055   E(BOTTOM)=   -0.382   E(TOP)=    0.993  3  4   273
             LOCAL ORBITAL
:E3_0001: E( 3)=    1.6421   E(BOTTOM)=    1.480   E(TOP)=    1.804  0  1   124
             APW+lo
:E2_0001: E( 2)=    1.3924   E(BOTTOM)=    1.153   E(TOP)= -200.000  2 -1   123
             APW+lo

       K=   0.00000   0.00000   0.00000            1
:RKM  : MATRIX SIZE    79LOs:  20  RKM= 7.42  WEIGHT= 1.00  PGR:    
       EIGENVALUES ARE:
:EIG00001:      -1.2277921    0.5901614    0.5901614    0.5901614    1.4842428
:EIG00006:       1.6110580    1.6110580    1.6110580    1.6623518    1.7220779
:EIG00011:       1.7220779    1.7220779    1.7537828    1.7537828    1.7537828
:EIG00016:       2.2029651    2.2029651    2.7431670    3.1048941    3.1867823
:EIG00021:       3.1867823    3.1867823    5.3233673    5.3233673    5.3233673
:EIG00026:       5.3299273    5.3299273    5.6548775    5.6548775    5.6548775
:EIG00031:       6.3874311    6.8692829    6.8692829    6.8692829    7.5305045
:EIG00036:       7.5305045    7.5305045    7.9390147    7.9390147    7.9390147
:EIG00041:       8.0451314    8.0451314    8.1299158    8.1299158    8.1299158
:EIG00046:       8.3437297    8.3437297    8.3437297    8.4241103    8.4241103
 
:EIG00051:       8.6028668    8.6520257    8.6575585    8.6575585    8.6575585
       ********************************************************

:KPT   :      NUMBER OF K-POINTS:   165

------- case.scfso --------
   0.0   0.0 angle (M,z), angle (M,x) deg
 
        SPIN-ORBIT EIGENVALUES:
     K=   0.00000   0.00000   0.00000            1
      MATRIX SIZE=  110   WEIGHT= 1.00
     EIGENVALUES ARE:
          -1.2277921   -1.2277921    0.4156782    0.4156782    0.6730829
           0.6730829    0.6730829    0.6730829    1.4836982    1.4836982
           1.6054571    1.6054571    1.6054571    1.6054571    1.6201318
           1.6201318    1.6623518    1.6623518    1.7166376    1.7166376
           1.7166376    1.7166376    1.7320235    1.7320235    1.7497616
           1.7497616    1.7571420    1.7571420    1.7571420    1.7571420
           2.2033148    2.2033148    2.2033148    2.2033148    2.7432794
           2.7432794    3.1048941    3.1048941    3.1817846    3.1817846

           3.1894367    3.1894367    3.1894367    3.1894367
       ********************************************************

------- case.scf2 --------
:GMA  : POTENTIAL AND CHARGE CUT-OFF  12.00 Ry**.5




:POS001: at.nr.   1 position = 0.00000 0.00000 0.50000  multiplicity =  1

       lmmax  5
       lm=   0 0  4 0  4 4  6 0  6 4
:FER gutzwiller fermi energy   1.60977
:EORB          0.086629535
:SUM sum of gutz band energies          6.929549674

:CHA001: total charge inside sphere   1 =    11.285855
:PCS001: partial charges sphere =  1 s,p,d,f,      d-eg,d-t2g 
:QTL001: 2.0283 5.3022 1.5376 2.3882 0.0000 0.0000 0.0000 0.5913 0.9463 0.0000 0.0000 0.0000

:CHA  : total charge inside unit cell =       6.500000

------- case.scfc --------

        1.ATOM      Pr                   14 CORE STATES
:1S 001: 1S               -3065.923022255 Ry
:2S 001: 2S                -491.667031157 Ry
:2PP001: 2P*               -464.767064928 Ry
:2P 001: 2P                -429.369187252 Ry
:3S 001: 3S                -104.759537099 Ry
:3PP001: 3P*                -93.297353486 Ry
:3P 001: 3P                 -86.289568730 Ry
:3DD001: 3D*                -66.215693315 Ry
:3D 001: 3D                 -64.704179309 Ry
:4S 001: 4S                 -19.438619702 Ry
:4PP001: 4P*                -15.145760291 Ry
:4P 001: 4P                 -13.618834643 Ry
:4DD001: 4D*                 -6.553153932 Ry
:4D 001: 4D                  -6.284006801 Ry

------- case.scfm --------
:CINT001 Core Integral Atom   1   45.999455

       DENSITY AT NUCLEUS
        JATOM        VALENCE       SEMI-CORE          CORE           TOTAL
:RTO001:   1      636.496976        0.000000   656824.824904   657461.321880
     
       CHARGES OF NEW CHARGE DENSITY
:NTO   : INTERSTITIAL CHARGE =     1.714202
:NPC   : PW Pseudocharge     =     8.900015
:NTO001: CHARGE SPHERE  1    =    57.285310

:NEC01: NUCLEAR AND ELECTRONIC CHARGE     59.00000    58.99951
     
       CHARGES OF OLD CHARGE DENSITY
:OTO   : INTERSTITIAL CHARGE =     1.708067
:OPC   : PW Pseudocharge     =     8.886589
:OTO001: CHARGE SPHERE  1    =    57.291933

:NEC02: NUCLEAR AND ELECTRONIC CHARGE     59.00000    59.00000
     
       CONVERGENCE TEST
:DTO001: DIFFERENCE IN SPHERE  1 =  0.0243565

:DIS  :  CHARGE DISTANCE       ( 0.0243565 for atom    1 spin 1)      0.0243565
 PW Mixed is           26
 
******************************************************
* MULTISECANT MIXING VER9 RELEASE 10.4.0              *
* Standard Mode with controls                        *
* Fixed density scale                                *
* Regularization       1.000E-04                     *
* Trust Upper Limit    5.000E+00                     *
* Max Number of Memory Steps    8                    *
******************************************************
 
:PWTMP   3.3237E+01  1.2500E+02  9.8687E+01
:PLANE:  PW TOTAL      2.6768 DISTAN   4.77E-03  1.78E-01 %
:CHARG:  CLM/ATOM    977.1603 DISTAN   2.45E-02  2.50E-03 %
 
Step History
        DMIX         DMIXT        Red     Pred      Trust     Lambda    MagRel    MagAbs     Beta
  1   3.5000E-02   3.5000E-02 -1.00E+00  1.00E+00 -1.00E+01  1.00E+00  3.50E-02  3.50E-02  1.00E+00
  2   2.5000E-02   2.5000E-02  9.16E-01  1.00E+00 -1.00E+01  1.00E+00  2.50E-02  3.64E-03  1.00E+00
  3   2.0000E-02   2.0000E-02  6.70E-01  6.73E-01  5.11E-01  6.05E-02  4.70E-01  6.26E-02  1.00E+00
[...]
:4DD001: 4D*                 -6.566782896 Ry
:4D 001: 4D                  -6.297502088 Ry

------- case.scfm --------
:CINT001 Core Integral Atom   1   45.999460

       DENSITY AT NUCLEUS
        JATOM        VALENCE       SEMI-CORE          CORE           TOTAL
:RTO001:   1      637.597551        0.000000   656824.866072   657462.463624
     
       CHARGES OF NEW CHARGE DENSITY
:NTO   : INTERSTITIAL CHARGE =     1.711962
:NPC   : PW Pseudocharge     =     8.897377
:NTO001: CHARGE SPHERE  1    =    57.287580

:NEC01: NUCLEAR AND ELECTRONIC CHARGE     59.00000    58.99954
     
       CHARGES OF OLD CHARGE DENSITY
:OTO   : INTERSTITIAL CHARGE =     1.713512
:OPC   : PW Pseudocharge     =     8.904633
:OTO001: CHARGE SPHERE  1    =    57.286488

:NEC02: NUCLEAR AND ELECTRONIC CHARGE     59.00000    59.00000
     
       CONVERGENCE TEST
:DTO001: DIFFERENCE IN SPHERE  1 =  0.0018386

:DIS  :  CHARGE DISTANCE       ( 0.0018386 for atom    1 spin 1)      0.0018386
 PW Mixed is           26
 
******************************************************
* MULTISECANT MIXING VER9 RELEASE 10.4.0              *
* Standard Mode with controls                        *
* Fixed density scale                                *
* Regularization       1.000E-04                     *
* Trust Upper Limit    5.000E+00                     *
* Max Number of Memory Steps    8                    *
******************************************************
 
:PWTMP   3.3237E+01  1.2500E+02  9.8687E+01
:PLANE:  PW TOTAL      2.6815 DISTAN   1.45E-03  5.39E-02 %
:CHARG:  CLM/ATOM    977.1662 DISTAN   1.85E-03  1.89E-04 %
 
Step History
        DMIX         DMIXT        Red     Pred      Trust     Lambda    MagRel    MagAbs     Beta
 38   1.3066E-01   1.3066E-01  1.06E+00  1.18E-01  6.46E-01  1.00E+00  5.41E-02  3.00E-04  8.83E-01
 39   9.0365E-02   9.0365E-02  1.25E+00  2.94E-01  7.06E-01  8.90E-02  1.03E-01  6.05E-04  7.06E-01
 40   4.7833E-02   4.7833E-02  7.06E-01  4.35E-01  6.41E-01  1.00E+00  1.46E-01  1.08E-03  5.65E-01
 41   7.3679E-02   7.3679E-02  1.03E+00  5.48E-01  8.54E-01  7.45E-02  1.54E-02  8.00E-05  4.52E-01
 42   4.4880E-02   4.4880E-02  1.00E+00  4.35E-01  5.64E-01  1.72E-01  1.32E-02  7.05E-05  5.65E-01
 43   3.6378E-02   3.6378E-02  7.04E-01  5.48E-01  3.26E-01  1.46E-01  1.57E-01  8.46E-04  4.52E-01
 44   9.0944E-02   8.2686E-02  2.58E-01  4.35E-01  4.97E-01  3.60E-02  4.13E-01  1.56E-03  5.65E-01
 45   4.8393E-02   4.4348E-02  2.55E+00  3.77E-01  6.62E-01  2.52E-02  6.62E-01  6.46E-04  7.06E-01
 46   4.8910E-02   4.8910E-02  1.24E+00  1.21E-01  1.39E+00  3.45E-02  5.76E-02  1.43E-04  8.83E-01
 47   1.2228E-01   1.2228E-01  7.97E-01  3.00E-01  1.27E+00  3.01E-02  1.18E-01  3.65E-04  7.06E-01
 48   7.2715E-02   7.2715E-02  1.13E+00  4.38E-01  1.29E+00  2.45E-02  1.28E-01  3.14E-04  5.65E-01
 49   4.1791E-02   4.1791E-02  7.65E-01  5.49E-01  9.86E-01  4.04E-02  1.49E-01  4.14E-04  4.52E-01
 50   1.0448E-01   1.0448E-01 -1.00E+00  4.35E-01  1.20E+00  1.00E+00  8.06E-02  1.71E-04  5.65E-01
:JACOBIANS    7.222E-01   4.166E+00
  
:NORMS:  1/Froebius, Min, Max, Used   0.7768E+00  0.3998E+00  0.1320E+01  0.8190E+00
:INFO :  Number of Memory Steps   12 Skipping   37
:INFO :  SLambda=    0.0396578897  Max    1.0000000000
:PREDicted Charge, CTotal, PW Trust    1.831E-04   1.831E-04   2.613E-04
:PREDicted DMix, Beta, BLim   2.5508E-02  1.2124E+00  3.5255E+00

Eigenvalues, unscaled except for SY+YY
   #     SY Real        SY Imag          SS             YY         SY+YY Real      SY+YY Imag
   1   4.988325E+00   0.000000E+00   6.079455E+00   1.128867E+01   1.148313E+01   0.000000E+00
   2   2.002613E-01   0.000000E+00   1.084645E+00   6.101165E-01   6.154002E-01   0.000000E+00
   3  -1.261711E-01   0.000000E+00   7.722692E-02   5.840395E-02   5.705278E-02   0.000000E+00
   4  -3.065972E-03   0.000000E+00   1.399744E-04   4.128540E-02   4.335104E-02   0.000000E+00
   5  -9.919672E-06   3.492221E-05   1.831734E-05   1.220562E-03   1.376362E-03   0.000000E+00
   6  -9.919672E-06  -3.492221E-05   3.782174E-06   2.808430E-04   3.101333E-04   0.000000E+00
   7   1.009539E-05   0.000000E+00   3.467274E-07   2.325853E-05   2.401749E-05   0.000000E+00
   8   5.378821E-07   0.000000E+00   1.550278E-07   1.387151E-06   1.372428E-06   0.000000E+00
   9  -5.849389E-09   0.000000E+00   1.468104E-08   5.937952E-07   5.161882E-07   0.000000E+00
  10   2.943807E-09   0.000000E+00   1.038227E-08   1.959506E-07   1.784760E-07   0.000000E+00
  11   3.209021E-08   0.000000E+00   2.592081E-09   1.068873E-07   5.187113E-08   9.997235E-11
  12   6.793076E-08   0.000000E+00   7.351134E-10   2.239086E-08   5.187113E-08  -9.997235E-11
 
:INFO :  Singular value  1.148E+01 Weight  1.000E+00 Projection -6.150E-04
:INFO :  Singular value  6.159E-01 Weight  1.000E+00 Projection  1.259E-03
:INFO :  Singular value  5.760E-02 Weight  9.996E-01 Projection  1.728E-03
:INFO :  Singular value  4.293E-02 Weight  9.993E-01 Projection -1.063E-03
:INFO :  Singular value  1.377E-03 Weight  5.980E-01 Projection -1.029E-03
:INFO :  Singular value  3.099E-04 Weight  7.007E-02 Projection -4.035E-05
:INFO :  Singular value  2.404E-05 Weight  4.533E-04 Projection -3.415E-06
:INFO :  Singular value  1.379E-06 Weight  1.492E-06 Projection -4.198E-10
:INFO :  Singular value  5.318E-07 Weight  2.219E-07 Projection  2.201E-09
:INFO :  Singular value  1.816E-07 Weight  2.588E-08 Projection  6.063E-11
:INFO :  Singular value  7.864E-08 Weight  4.853E-09 Projection -7.347E-11
:INFO :  Singular value  3.245E-08 Weight  8.262E-10 Projection  1.582E-12
:RANK :  ACTIVE   4.67/12 =  38.90 % ; YY RANK   4.60/12 =  38.30 %
 
:DLIM :  Beta Active  7.063E-01
:BLIM :  VZERO Control Off
:TRUST:  Step 8.02E-01  Charge 3.50E-04 (e) CTO  2.27E-03 (e) PW  3.18E-03 (e)
:DIRM :  MEMORY 12/8  SCALE   1.000 RED  1.10 PRED  0.44 NEXT  0.29 BETA  0.71
:TRAVE:  Charge 7.61E-05 (e) CTO  7.61E-05 (e) PW  1.10E-04 (e)
:DIRP :  |MSR1|= 3.312E-05 |PRATT|= 1.445E-03 ANGLE=  73.8 DEGREES
:DIRQ :  |MSR1|= 4.622E-04 |PRATT|= 1.845E-03 ANGLE=  41.4 DEGREES
:DIRT :  |MSR1|= 4.634E-04 |PRATT|= 2.344E-03 ANGLE=  53.0 DEGREES
:MIX  :   MSD1   REGULARIZATION:  1.13E-03 GREED: 0.05415  Newton 1.00  0.1977                
     
       CHARGES OF MIXED CHARGE DENSITY
:CTO   : INTERSTITIAL CHARGE =     1.713449
:CPC   : PW Pseudocharge     =     8.904580
:CTO001: CHARGE SPHERE  1    =    57.286551

:NEC03: NUCLEAR AND ELECTRONIC CHARGE     59.00000    59.00000

PW CHANGE     H    K    L      Current       Change    Residue
:PTO001:      0    0    0  1.07593304E-01 -1.176E-06 -6.046E-05
:PTO002:     -1   -1   -1 -1.84940644E-01 -2.248E-06  9.103E-05
:PTO003:      0    0   -2  8.77778913E-02  1.862E-06 -4.163E-05
:PTO004:      0   -2   -2  2.70311605E-02  4.861E-07 -1.225E-05
:PTO005:     -1   -1   -3  7.40307928E-03  4.160E-07 -5.888E-06
:PTO006:     -2   -2   -2 -5.65622452E-03 -8.964E-08  3.849E-06
:PTO007:      0    0   -4 -4.51576521E-03  8.481E-09  2.802E-06
:PTO008:     -1   -3   -3  1.00976076E-02 -3.703E-08 -6.534E-06
:PTO009:      0   -2   -4 -8.91975115E-03 -8.594E-08  5.658E-06
:PTO010:     -2   -2   -4 -5.81704523E-03 -2.412E-07  3.669E-06
:PTO011:     -3   -3   -3  1.36539413E-03  5.913E-08 -8.626E-07
:PTO012:     -1   -1   -5  3.64348856E-03  1.584E-07 -2.298E-06

:ENE  : ********** TOTAL ENERGY IN Ry =       -18471.95784818


------- case.scf0 --------
 Flat Integration
 New Mode for Coulomb Integral
 Consistent 3/8+Simpson combinations
 Extension of core to zero
 LDM version in phi
 Fifth-order quadrature in outwin


            ---------
:ITE070: 70. ITERATION
            ---------

:NATO :    1 INDEPENDENT AND    1 TOTAL ATOMS IN UNITCELL
       SUBSTANCE: blebleble                                                   

       LATTICE                      = F   
:POT  : POTENTIAL OPTION EX_LDA EC_LDA VX_LDA VC_LDA
:LAT  : LATTICE CONSTANTS=  7.33567  7.33567  7.33567    1.571    1.571    1.571
:VOL  : UNIT CELL VOLUME =      98.68671
       MODE OF CALCULATION IS       = RELA
       NON-SPINPOLARIZED CALCULATION
:IFFT  : FFT-parameters:   60   60   60 Factor: 2.00


   CONVERGENCE PARAMETER FOR PSEUDOCHARGE: NCON=  9
   MAXIMAL VALUE OF RMT(JATOM)*ABSK(NKK) : RK  =29.97839


:VKCOUL :  VK-COUL convergence: 0.273E-06
       ATOMNUMBER=  1 Pr         VCOUL-ZERO =  0.11204E+01
:FIT001: LUSE= 13 SIGMA OF V-XC FIT FOR ATOM  1  0.1895212E-03
:FIT001: LUSE= 13 SIGMA OF V-XC FIT FOR ATOM  1  0.1895212E-03
:DEN  : DENSITY INTEGRAL  =         -7134.16179163   (Ry)
       ELS_POTENTIAL_AT Z=0 and Z=0.5:  -3.20092  -3.20092
       ELS_POTENTIAL_AT Y=0 and Y=0.5:   0.00000   0.00000
:VZERO:v0,v0c,v0x  -4.40054  -3.20092  -1.19962 v5,v5c,v5x  -4.40054  -3.20092  -1.19962
:VZERY:v0,v0c,v0x  -1.01620   0.00000  -1.01620 v5,v5c,v5x  -1.01620   0.00000  -1.01620
:VZERX:v0,v0c,v0x  -1.01620   0.00000  -1.01620 v5,v5c,v5x  -1.01620   0.00000  -1.01620

------- case.scf1 --------
:LMAX-WF:   10   Non-Spherical LMAX:   4

          ATOMIC SPHERE DEPENDENT PARAMETERS FOR ATOM  Pr        
:e__0001: OVERALL ENERGY PARAMETER IS    1.3924
          OVERALL BASIS SET ON ATOM IS LAPW
:E0_0001: E( 0)=    1.3924
             APW+lo
:E0_0001: E( 0)=   -1.0643   E(BOTTOM)=   -1.472   E(TOP)=   -0.656  4  5   275
             LOCAL ORBITAL
:E1_0001: E( 1)=    1.7924
             APW+lo
:E1_0001: E( 1)=    0.3028   E(BOTTOM)=   -0.383   E(TOP)=    0.989  3  4   273
             LOCAL ORBITAL
:E3_0001: E( 3)=    1.6328   E(BOTTOM)=    1.472   E(TOP)=    1.793  0  1   123
             APW+lo
:E2_0001: E( 2)=    1.3924   E(BOTTOM)=    1.153   E(TOP)= -200.000  2 -1   122
             APW+lo

       K=   0.00000   0.00000   0.00000            1
:RKM  : MATRIX SIZE    79LOs:  20  RKM= 7.42  WEIGHT= 1.00  PGR:    
       EIGENVALUES ARE:
:EIG00001:      -1.2306310    0.5869950    0.5869950    0.5869950    1.4778831
:EIG00006:       1.6026757    1.6026757    1.6026757    1.6619274    1.7220676
:EIG00011:       1.7220676    1.7220676    1.7431801    1.7431801    1.7431801
:EIG00016:       2.2022225    2.2022225    2.7402936    3.1071229    3.1862912
:EIG00021:       3.1862912    3.1862912    5.3227498    5.3227498    5.3227498
:EIG00026:       5.3302498    5.3302498    5.6550681    5.6550681    5.6550681
:EIG00031:       6.3888909    6.8716630    6.8716630    6.8716630    7.5311519
:EIG00036:       7.5311519    7.5311519    7.9404495    7.9404495    7.9404495
:EIG00041:       8.0469933    8.0469933    8.1301191    8.1301191    8.1301191
:EIG00046:       8.3446478    8.3446478    8.3446478    8.4232342    8.4232342
 
:EIG00051:       8.6045930    8.6545688    8.6590416    8.6590416    8.6590416
       ********************************************************

:KPT   :      NUMBER OF K-POINTS:   165

------- case.scfso --------
   0.0   0.0 angle (M,z), angle (M,x) deg
 
        SPIN-ORBIT EIGENVALUES:
     K=   0.00000   0.00000   0.00000            1
      MATRIX SIZE=  110   WEIGHT= 1.00
     EIGENVALUES ARE:
          -1.2306310   -1.2306310    0.4122646    0.4122646    0.6700369
           0.6700369    0.6700369    0.6700369    1.4773217    1.4773217
           1.5969998    1.5969998    1.5969998    1.5969998    1.6118433
           1.6118433    1.6619274    1.6619274    1.7166168    1.7166168
           1.7166168    1.7166168    1.7320299    1.7320299    1.7391666
           1.7391666    1.7465732    1.7465732    1.7465732    1.7465732
           2.2025740    2.2025740    2.2025740    2.2025740    2.7404042
           2.7404042    3.1071229    3.1071229    3.1812403    3.1812403

           3.1889710    3.1889710    3.1889710    3.1889710
       ********************************************************

------- case.scf2 --------
:GMA  : POTENTIAL AND CHARGE CUT-OFF  12.00 Ry**.5




:POS001: at.nr.   1 position = 0.00000 0.00000 0.50000  multiplicity =  1

       lmmax  5
       lm=   0 0  4 0  4 4  6 0  6 4
:FER gutzwiller fermi energy   1.61155
:EORB          0.060087778
:SUM sum of gutz band energies          6.917464574

:CHA001: total charge inside sphere   1 =    11.287919
:PCS001: partial charges sphere =  1 s,p,d,f,      d-eg,d-t2g 
:QTL001: 2.0289 5.3064 1.5475 2.3757 0.0000 0.0000 0.0000 0.5952 0.9523 0.0000 0.0000 0.0000

:CHA  : total charge inside unit cell =       6.500000

------- case.scfc --------

        1.ATOM      Pr                   14 CORE STATES
:1S 001: 1S               -3065.934267982 Ry
:2S 001: 2S                -491.680155677 Ry
:2PP001: 2P*               -464.779766425 Ry
:2P 001: 2P                -429.382046283 Ry
:3S 001: 3S                -104.775819296 Ry
:3PP001: 3P*                -93.313484208 Ry
:3P 001: 3P                 -86.305810109 Ry
:3DD001: 3D*                -66.231560221 Ry
:3D 001: 3D                 -64.720094993 Ry
:4S 001: 4S                 -19.453359972 Ry
:4PP001: 4P*                -15.160230997 Ry
:4P 001: 4P                 -13.632949280 Ry
:4DD001: 4D*                 -6.566506714 Ry
:4D 001: 4D                  -6.297228418 Ry

------- case.scfm --------
:CINT001 Core Integral Atom   1   45.999460

       DENSITY AT NUCLEUS
        JATOM        VALENCE       SEMI-CORE          CORE           TOTAL
:RTO001:   1      637.585532        0.000000   656824.864423   657462.449955
     
       CHARGES OF NEW CHARGE DENSITY
:NTO   : INTERSTITIAL CHARGE =     1.712149
:NPC   : PW Pseudocharge     =     8.897710
:NTO001: CHARGE SPHERE  1    =    57.287379

:NEC01: NUCLEAR AND ELECTRONIC CHARGE     59.00000    58.99953
     
       CHARGES OF OLD CHARGE DENSITY
:OTO   : INTERSTITIAL CHARGE =     1.713449
:OPC   : PW Pseudocharge     =     8.904580
:OTO001: CHARGE SPHERE  1    =    57.286551

:NEC02: NUCLEAR AND ELECTRONIC CHARGE     59.00000    59.00000
     
       CONVERGENCE TEST
:DTO001: DIFFERENCE IN SPHERE  1 =  0.0008055

:DIS  :  CHARGE DISTANCE       ( 0.0008055 for atom    1 spin 1)      0.0008055
 PW Mixed is           26
 
******************************************************
* MULTISECANT MIXING VER9 RELEASE 10.4.0              *
* Standard Mode with controls                        *
* Fixed density scale                                *
* Regularization       1.000E-04                     *
* Trust Upper Limit    5.000E+00                     *
* Max Number of Memory Steps    8                    *
******************************************************
 
:PWTMP   3.3237E+01  1.2500E+02  9.8687E+01
:PLANE:  PW TOTAL      2.6815 DISTAN   1.33E-03  4.96E-02 %
:CHARG:  CLM/ATOM    977.1661 DISTAN   8.08E-04  8.27E-05 %
 
Step History
        DMIX         DMIXT        Red     Pred      Trust     Lambda    MagRel    MagAbs     Beta
 40   4.7833E-02   4.7833E-02  7.06E-01  4.35E-01  6.41E-01  1.00E+00  1.46E-01  1.08E-03  5.65E-01
 41   7.3679E-02   7.3679E-02  1.03E+00  5.48E-01  8.54E-01  7.45E-02  1.54E-02  8.00E-05  4.52E-01
 42   4.4880E-02   4.4880E-02  1.00E+00  4.35E-01  5.64E-01  1.72E-01  1.32E-02  7.05E-05  5.65E-01
 43   3.6378E-02   3.6378E-02  7.04E-01  5.48E-01  3.26E-01  1.46E-01  1.57E-01  8.46E-04  4.52E-01
 44   9.0944E-02   8.2686E-02  2.58E-01  4.35E-01  4.97E-01  3.60E-02  4.13E-01  1.56E-03  5.65E-01
 45   4.8393E-02   4.4348E-02  2.55E+00  3.77E-01  6.62E-01  2.52E-02  6.62E-01  6.46E-04  7.06E-01
 46   4.8910E-02   4.8910E-02  1.24E+00  1.21E-01  1.39E+00  3.45E-02  5.76E-02  1.43E-04  8.83E-01
 47   1.2228E-01   1.2228E-01  7.97E-01  3.00E-01  1.27E+00  3.01E-02  1.18E-01  3.65E-04  7.06E-01
 48   7.2715E-02   7.2715E-02  1.13E+00  4.38E-01  1.29E+00  2.45E-02  1.28E-01  3.14E-04  5.65E-01
 49   4.1791E-02   4.1791E-02  7.65E-01  5.49E-01  9.86E-01  4.04E-02  1.49E-01  4.14E-04  4.52E-01
 50   1.0448E-01   1.0448E-01  1.10E+00  4.35E-01  1.20E+00  3.97E-02  8.06E-02  1.71E-04  5.65E-01
 51   5.4146E-02   5.4146E-02 -1.00E+00  2.94E-01  8.02E-01  1.00E+00  1.98E-01  4.63E-04  7.06E-01
:JACOBIANS    4.843E-01   2.913E+00
  
:NORMS:  1/Froebius, Min, Max, Used   0.4478E+00  0.4476E+00  0.7584E+01  0.4533E+00
:INFO :  Number of Memory Steps   11 Skipping   39
:INFO :  SLambda=    1.0000000000  Max    1.0000000000
:PREDicted Charge, CTotal, PW Trust    7.694E-05   7.694E-05   2.585E-04
:PREDicted DMix, Beta, BLim   4.7253E-02  3.5316E-01  1.8039E+00

Eigenvalues, unscaled except for SY+YY
   #     SY Real        SY Imag          SS             YY         SY+YY Real      SY+YY Imag
   1   3.494943E+00   0.000000E+00   2.144949E+00   1.070845E+01   1.420025E+01   0.000000E+00
   2   6.320978E-02   0.000000E+00   5.634656E-02   2.853274E-01   3.511633E-01   0.000000E+00
   3   4.494006E-03   0.000000E+00   3.899761E-03   4.758390E-03   8.429294E-03   0.000000E+00
   4  -8.778293E-04   0.000000E+00   2.927455E-04   1.277009E-03   1.208179E-03   0.000000E+00
   5   3.073680E-06   4.139016E-06   3.299133E-06   1.053429E-04   6.240968E-04   0.000000E+00
   6   3.073680E-06  -4.139016E-06   5.593795E-07   4.438044E-05   4.653015E-05   0.000000E+00
   7   3.937342E-06   0.000000E+00   3.931963E-07   3.340892E-05   3.156144E-05   0.000000E+00
   8  -1.484932E-07   0.000000E+00   1.082934E-07   6.644489E-06   2.216711E-05   0.000000E+00
   9  -6.717423E-08   0.000000E+00   2.279636E-08   1.055128E-06   1.540363E-07   0.000000E+00
  10   7.976880E-08   0.000000E+00   9.611775E-09   1.759855E-07   1.794506E-07   0.000000E+00
  11   2.202370E-07   0.000000E+00   3.775507E-09   7.430996E-08   6.982031E-07   0.000000E+00
 
:INFO :  Singular value  1.430E+01 Weight  1.000E+00 Projection -2.900E-04
:INFO :  Singular value  3.655E-01 Weight  1.000E+00 Projection -2.269E-03
:INFO :  Singular value  8.459E-03 Weight  9.842E-01 Projection -2.505E-04
:INFO :  Singular value  1.654E-03 Weight  7.047E-01 Projection -7.799E-04
:INFO :  Singular value  4.665E-04 Weight  1.595E-01 Projection  8.355E-04
:INFO :  Singular value  4.738E-05 Weight  1.954E-03 Projection -7.191E-06
:INFO :  Singular value  3.193E-05 Weight  8.884E-04 Projection -2.037E-06
:INFO :  Singular value  2.294E-05 Weight  4.587E-04 Projection -1.929E-06
:INFO :  Singular value  8.666E-07 Weight  6.549E-07 Projection -4.726E-09
:INFO :  Singular value  2.807E-07 Weight  6.871E-08 Projection  1.719E-09
:INFO :  Singular value  6.914E-08 Weight  4.169E-09 Projection  1.233E-10
:RANK :  ACTIVE   3.85/11 =  35.02 % ; YY RANK   3.55/11 =  32.28 %
 
:DLIM :  Beta Active  5.650E-01
:BLIM :  VZERO Control Off
:TRUST:  Step 1.39E+00  Charge 3.50E-04 (e) CTO  2.50E-03 (e) PW  3.50E-03 (e)
:DIRM :  MEMORY 11/8  SCALE   1.000 RED  0.66 PRED  0.29 NEXT  0.44 BETA  0.57
:TRAVE:  Charge 3.88E-05 (e) CTO  3.88E-05 (e) PW  1.11E-04 (e)
:DIRP :  |MSR1|= 1.167E-04 |PRATT|= 1.331E-03 ANGLE=  18.7 DEGREES
:DIRQ :  |MSR1|= 4.283E-04 |PRATT|= 8.085E-04 ANGLE= 126.8 DEGREES
:DIRT :  |MSR1|= 4.439E-04 |PRATT|= 1.557E-03 ANGLE=  95.0 DEGREES
:MIX  :   MSR1   REGULARIZATION:  1.07E-03 GREED: 0.05786  Newton 1.00  0.2850                
     
       CHARGES OF MIXED CHARGE DENSITY
:CTO   : INTERSTITIAL CHARGE =     1.713450
:CPC   : PW Pseudocharge     =     8.904245
:CTO001: CHARGE SPHERE  1    =    57.286550

:NEC03: NUCLEAR AND ELECTRONIC CHARGE     59.00000    59.00000

PW CHANGE     H    K    L      Current       Change    Residue
:PTO001:      0    0    0  1.07589919E-01 -3.385E-06 -5.311E-05
:PTO002:     -1   -1   -1 -1.84929734E-01  1.091E-05  9.267E-05
:PTO003:      0    0   -2  8.77720871E-02 -5.804E-06 -4.419E-05
:PTO004:      0   -2   -2  2.70300344E-02 -1.126E-06 -1.228E-05
:PTO005:     -1   -1   -3  7.40076043E-03 -2.319E-06 -6.850E-06
:PTO006:     -2   -2   -2 -5.65544844E-03  7.761E-07  3.948E-06
:PTO007:      0    0   -4 -4.51520503E-03  5.602E-07  2.906E-06
:PTO008:     -1   -3   -3  1.00962662E-02 -1.341E-06 -7.215E-06
:PTO009:      0   -2   -4 -8.91837818E-03  1.373E-06  6.429E-06
:PTO010:     -2   -2   -4 -5.81601486E-03  1.030E-06  4.284E-06
:PTO011:     -3   -3   -3  1.36516546E-03 -2.287E-07 -9.920E-07
:PTO012:     -1   -1   -5  3.64282758E-03 -6.610E-07 -2.663E-06

:ENE  : ********** TOTAL ENERGY IN Ry =       -18471.95783929

