
:LABEL1: Calculations in /home/ykent/GWIEN/example/Pr/V13/case
:LABEL2: on didymium-2.cmpgroup.ameslab.gov at Wed Jul  8 16:02:17 CDT 2020
:LABEL3: using WIEN2k_19.1 (Release 25/6/2019) in /home/ykent/opt/src/WIEN2k_19.1
:LABEL4: using the command: run_lapw -cc 0.0001
 Flat Integration
 New Mode for Coulomb Integral
 Consistent 3/8+Simpson combinations
 Extension of core to zero
 LDM version in phi
 Fifth-order quadrature in outwin


            ---------
:ITE001:  1. ITERATION
            ---------

:NATO :    1 INDEPENDENT AND    1 TOTAL ATOMS IN UNITCELL
       SUBSTANCE: blebleble                                                   

       LATTICE                      = F   
:POT  : POTENTIAL OPTION EX_LDA EC_LDA VX_LDA VC_LDA
:LAT  : LATTICE CONSTANTS= 10.11927 10.11927 10.11927    1.571    1.571    1.571
:VOL  : UNIT CELL VOLUME =     259.05267
       MODE OF CALCULATION IS       = RELA
       NON-SPINPOLARIZED CALCULATION
:IFFT  : FFT-parameters:   80   80   80 Factor: 2.00


   CONVERGENCE PARAMETER FOR PSEUDOCHARGE: NCON=  9
   MAXIMAL VALUE OF RMT(JATOM)*ABSK(NKK) : RK  =29.93932


:VKCOUL :  VK-COUL convergence: 0.158E-05
       ATOMNUMBER=  1 Pr         VCOUL-ZERO =  0.17622E+00
:FIT001: LUSE= 13 SIGMA OF V-XC FIT FOR ATOM  1  0.1051475E-05
:FIT001: LUSE= 13 SIGMA OF V-XC FIT FOR ATOM  1  0.1051475E-05
:DEN  : DENSITY INTEGRAL  =         -7068.85343664   (Ry)
       ELS_POTENTIAL_AT Z=0 and Z=0.5:  -2.35020  -2.35020
       ELS_POTENTIAL_AT Y=0 and Y=0.5:   0.00000   0.00000
:VZERO:v0,v0c,v0x  -3.28772  -2.35020  -0.93752 v5,v5c,v5x  -3.28772  -2.35020  -0.93752
:VZERY:v0,v0c,v0x  -0.68465   0.00000  -0.68465 v5,v5c,v5x  -0.68465   0.00000  -0.68465
:VZERX:v0,v0c,v0x  -0.68465   0.00000  -0.68465 v5,v5c,v5x  -0.68465   0.00000  -0.68465
:LMAX-WF:   10   Non-Spherical LMAX:   4

          ATOMIC SPHERE DEPENDENT PARAMETERS FOR ATOM  Pr        
:e__0001: OVERALL ENERGY PARAMETER IS    0.3000
          OVERALL BASIS SET ON ATOM IS LAPW
:E0_0001: E( 0)=    0.3000
             APW+lo
:E0_0001: E( 0)=   -2.1541   E(BOTTOM)=   -2.536   E(TOP)=   -1.772  4  5   166
             LOCAL ORBITAL
:E1_0001: E( 1)=    0.7000
             APW+lo
:E1_0001: E( 1)=   -0.7669   E(BOTTOM)=   -1.414   E(TOP)=   -0.119  3  4   171
             LOCAL ORBITAL
:E3_0001: E( 3)=    0.5197   E(BOTTOM)=    0.377   E(TOP)=    0.662  0  1   120
             APW+lo
:E2_0001: E( 2)=    0.3000   E(BOTTOM)=    0.160   E(TOP)= -200.000  2 -1    90
             APW+lo

       K=   0.00000   0.00000   0.00000            1
:RKM  : MATRIX SIZE   189LOs:  20  RKM= 8.07  WEIGHT= 1.00  PGR:    
       EIGENVALUES ARE:
:EIG00001:      -2.1126339   -0.7530127   -0.7530127   -0.7530127    0.2681623
:EIG00006:       0.5190080    0.5357866    0.5357866    0.5357866    0.5579710
:EIG00011:       0.5579710    0.5579710    0.6480057    0.6480057    0.6480057
:EIG00016:       0.8080276    0.8080276    1.2036479    1.4177140    1.4177140
:EIG00021:       1.4177140    1.5252427
       ********************************************************

:KPT   :      NUMBER OF K-POINTS:   165
:GAP (global)   :    0.0    Ry =     0.0   eV (metal)
         Bandranges (emin - emax) and occupancy:
:BAN00001:   1   -2.112634   -2.102133  2.00000000
:BAN00002:   2   -0.821984   -0.753013  2.00000000
:BAN00003:   3   -0.797693   -0.753013  2.00000000
:BAN00004:   4   -0.778495   -0.753013  2.00000000
:BAN00005:   5    0.268162    0.499717  2.00000000
:BAN00006:   6    0.455527    0.527013  2.00000000
:BAN00007:   7    0.515999    0.539503  1.00000000
:BAN00008:   8    0.531034    0.542251  0.00000000
:BAN00009:   9    0.535787    0.544458  0.00000000
:BAN00010:  10    0.540458    0.557971  0.00000000
:BAN00011:  11    0.543841    0.557971  0.00000000
:BAN00012:  12    0.546380    0.561898  0.00000000
        Energy to separate low and high energystates:    0.21816


:NOE  : NUMBER OF ELECTRONS          =   13.000

:FER  : F E R M I - ENERGY(TETRAH.M.)=   0.5300155580
:GMA  : POTENTIAL AND CHARGE CUT-OFF  12.00 Ry**.5

:POS001: ATOM    1 X,Y,Z = 0.00000 0.00000 0.50000  MULT= 1  ZZ= 59.000  Pr        

       LMMAX  5
       LM=   0 0  4 0  4 4  6 0  6 4

:CHA001: TOTAL VALENCE CHARGE INSIDE SPHERE   1 =   9.9021    (RMT=  2.5000 )
:PCS001: PARTIAL CHARGES SPHERE =  1 S,P,D,F,      D-EG,D-T2G 
:QTL001: 2.0285 5.3617 0.6378 1.8738 0.0000 0.0000 0.0000 0.2245 0.4134 0.0000 0.0000 0.0000
        Q-s-low E-s-low   Q-p-low E-p-low   Q-d-low E-d-low   Q-f-low E-f-low
:EPL001:  1.9254 -2.1043    5.2883 -0.7820    0.0008 -0.7961    0.0002 -0.7982
        Q-s-hi  E-s-hi    Q-p-hi  E-p-hi    Q-d-hi  E-d-hi    Q-f-hi  E-f-hi 
:EPH001:  0.1032  0.4189    0.0733  0.4638    0.6370  0.4783    1.8736  0.5162

:CHA  : TOTAL VALENCE CHARGE INSIDE UNIT CELL =      13.000000

:SUM  : SUM OF EIGENVALUES =          -6.487413452


        1.ATOM      Pr                   14 CORE STATES
:1S 001: 1S               -3067.040761236 Ry
:2S 001: 2S                -492.806408357 Ry
:2PP001: 2P*               -465.904052993 Ry
:2P 001: 2P                -430.507246054 Ry
:3S 001: 3S                -105.903747309 Ry
:3PP001: 3P*                -94.441178664 Ry
:3P 001: 3P                 -87.433767756 Ry
:3DD001: 3D*                -67.360174391 Ry
:3D 001: 3D                 -65.848742524 Ry
:4S 001: 4S                 -20.588271693 Ry
:4PP001: 4P*                -16.295219412 Ry
:4P 001: 4P                 -14.768138217 Ry
:4DD001: 4D*                 -7.701732686 Ry
:4D 001: 4D                  -7.432447197 Ry
:CINT001 Core Integral Atom   1   45.999515

       DENSITY AT NUCLEUS
        JATOM        VALENCE       SEMI-CORE          CORE           TOTAL
:RTO001:   1      649.800380        0.000000   656821.079227   657470.879607
     
       CHARGES OF NEW CHARGE DENSITY
:NTO   : INTERSTITIAL CHARGE =     3.097873
:NPC   : PW Pseudocharge     =     7.640942
:NTO001: CHARGE SPHERE  1    =    55.901641

:NEC01: NUCLEAR AND ELECTRONIC CHARGE     59.00000    58.99951
     
       CHARGES OF OLD CHARGE DENSITY
:OTO   : INTERSTITIAL CHARGE =     2.929837
:OPC   : PW Pseudocharge     =     6.910700
:OTO001: CHARGE SPHERE  1    =    56.070812

:NEC02: NUCLEAR AND ELECTRONIC CHARGE     59.00000    59.00065
     
       CONVERGENCE TEST
:DTO001: DIFFERENCE IN SPHERE  1 =  0.2787871

:DIS  :  CHARGE DISTANCE       ( 0.2787871 for atom    1 spin 1)      0.2787871
 PW Mixed is           56
 
******************************************************
* MULTISECANT MIXING VER9 RELEASE 10.4.0              *
* Standard Mode with controls                        *
* Fixed density scale                                *
* Regularization       1.000E-04                     *
* Trust Upper Limit    5.000E+00                     *
* Max Number of Memory Steps    8                    *
******************************************************
 
:PWTMP   1.9360E+02  1.2500E+02  2.5905E+02
:PLANE:  PW TOTAL      2.5647 DISTAN   3.89E-01  1.52E+01 %
:CHARG:  CLM/ATOM    977.2575 DISTAN   6.63E-01  6.78E-02 %
 
Step History
        DMIX         DMIXT        Red     Pred      Trust     Lambda    MagRel    MagAbs     Beta
  1   3.5000E-02   3.5000E-02 -1.00E+00  1.00E+00 -1.00E+01  1.00E+00  3.50E-02  3.50E-02  1.00E+00
:INFO :  Note, Pratt in use
:TRUST:  Step 3.75E-02  Charge 7.50E-02 (e) CTO  2.50E-01 (e) PW  3.50E-01 (e)
:DIRM :  MEMORY  0/ 8 SCALE   1.000
Performing Pseudo Compensation
Final Pseudo Compensation Rescaling     1.00000E+00
:MIX  :   PRATT  REGULARIZATION:  1.00E-04 GREED: 0.02500                  
     
       CHARGES OF MIXED CHARGE DENSITY
:CTO   : INTERSTITIAL CHARGE =     2.933417
:CPC   : PW Pseudocharge     =     7.448515
:CTO001: CHARGE SPHERE  1    =    56.066583

:NEC03: NUCLEAR AND ELECTRONIC CHARGE     59.00000    59.00000

PW CHANGE     H    K    L      Current       Change    Residue
:PTO001:      0    0    0  4.00765297E-02  2.098E-03  3.482E-03
:PTO002:     -1   -1   -1 -1.26730866E-01 -1.255E-02 -1.543E-02
:PTO003:      0    0   -2  7.58062168E-02  8.528E-03  9.756E-03
:PTO004:      0   -2   -2  6.45322141E-02  1.146E-02  1.528E-02
:PTO005:     -1   -1   -3 -6.53788174E-02 -1.645E-02 -1.724E-02
:PTO006:     -2   -2   -2  1.70625255E-02  4.890E-03  4.896E-03
:PTO007:      0    0   -4  3.96768687E-03  2.231E-03  1.380E-03
:PTO008:     -1   -3   -3 -3.56197298E-03 -5.939E-03 -5.431E-03
:PTO009:      0   -2   -4  1.01145035E-03  5.086E-03  4.024E-03
:PTO010:     -2   -2   -4 -4.37250175E-03  2.449E-03  7.263E-04
:PTO011:     -3   -3   -3  1.82042165E-03 -3.625E-04  4.071E-04
:PTO012:     -1   -1   -5  5.45517200E-03 -1.094E-03  9.776E-04

:ENE  : ********** TOTAL ENERGY IN Ry =       -18472.07150416

 Flat Integration
 New Mode for Coulomb Integral
 Consistent 3/8+Simpson combinations
 Extension of core to zero
 LDM version in phi
 Fifth-order quadrature in outwin


            ---------
:ITE002:  2. ITERATION
            ---------

:NATO :    1 INDEPENDENT AND    1 TOTAL ATOMS IN UNITCELL
       SUBSTANCE: blebleble                                                   

       LATTICE                      = F   
:POT  : POTENTIAL OPTION EX_LDA EC_LDA VX_LDA VC_LDA
:LAT  : LATTICE CONSTANTS= 10.11927 10.11927 10.11927    1.571    1.571    1.571
:VOL  : UNIT CELL VOLUME =     259.05267
       MODE OF CALCULATION IS       = RELA
       NON-SPINPOLARIZED CALCULATION
:IFFT  : FFT-parameters:   80   80   80 Factor: 2.00


   CONVERGENCE PARAMETER FOR PSEUDOCHARGE: NCON=  9
   MAXIMAL VALUE OF RMT(JATOM)*ABSK(NKK) : RK  =29.93932


:VKCOUL :  VK-COUL convergence: 0.541E-07
       ATOMNUMBER=  1 Pr         VCOUL-ZERO =  0.18143E+00
:FIT001: LUSE= 13 SIGMA OF V-XC FIT FOR ATOM  1  0.1050489E-05
:FIT001: LUSE= 13 SIGMA OF V-XC FIT FOR ATOM  1  0.1050489E-05
:DEN  : DENSITY INTEGRAL  =         -7068.71301332   (Ry)
       ELS_POTENTIAL_AT Z=0 and Z=0.5:  -2.39299  -2.39299
       ELS_POTENTIAL_AT Y=0 and Y=0.5:   0.00000   0.00000
:VZERO:v0,v0c,v0x  -3.35182  -2.39299  -0.95884 v5,v5c,v5x  -3.35182  -2.39299  -0.95884
:VZERY:v0,v0c,v0x  -0.68884   0.00000  -0.68884 v5,v5c,v5x  -0.68884   0.00000  -0.68884
:VZERX:v0,v0c,v0x  -0.68884   0.00000  -0.68884 v5,v5c,v5x  -0.68884   0.00000  -0.68884
:LMAX-WF:   10   Non-Spherical LMAX:   4

          ATOMIC SPHERE DEPENDENT PARAMETERS FOR ATOM  Pr        
:e__0001: OVERALL ENERGY PARAMETER IS    0.3200
          OVERALL BASIS SET ON ATOM IS LAPW
:E0_0001: E( 0)=    0.3200
             APW+lo
:E0_0001: E( 0)=   -2.1520   E(BOTTOM)=   -2.533   E(TOP)=   -1.771  4  5   166
             LOCAL ORBITAL
:E1_0001: E( 1)=    0.7200
             APW+lo
:E1_0001: E( 1)=   -0.7643   E(BOTTOM)=   -1.411   E(TOP)=   -0.117  3  4   165
             LOCAL ORBITAL
:E3_0001: E( 3)=    0.5195   E(BOTTOM)=    0.378   E(TOP)=    0.661  0  1   116
             APW+lo
:E2_0001: E( 2)=    0.3200   E(BOTTOM)=    0.164   E(TOP)= -200.000  2 -1    91
             APW+lo

       K=   0.00000   0.00000   0.00000            1
:RKM  : MATRIX SIZE   189LOs:  20  RKM= 8.07  WEIGHT= 1.00  PGR:    
       EIGENVALUES ARE:
:EIG00001:      -2.1104882   -0.7502419   -0.7502419   -0.7502419    0.2732828
:EIG00006:       0.5192935    0.5357386    0.5357386    0.5357386    0.5576219
:EIG00011:       0.5576219    0.5576219    0.6525122    0.6525122    0.6525122
:EIG00016:       0.8121964    0.8121964    1.2082815    1.4226439    1.4226439
:EIG00021:       1.4226439    1.5307527
       ********************************************************

:KPT   :      NUMBER OF K-POINTS:   165
:GAP (global)   :    0.0    Ry =     0.0   eV (metal)
         Bandranges (emin - emax) and occupancy:
:BAN00001:   1   -2.110488   -2.100033  2.00000000
:BAN00002:   2   -0.818932   -0.750242  2.00000000
:BAN00003:   3   -0.794739   -0.750242  2.00000000
:BAN00004:   4   -0.775621   -0.750242  2.00000000
:BAN00005:   5    0.273283    0.502595  2.00000000
:BAN00006:   6    0.460328    0.528419  2.00000000
:BAN00007:   7    0.517427    0.539375  1.00000000
:BAN00008:   8    0.531567    0.542193  0.00000000
:BAN00009:   9    0.535739    0.544539  0.00000000
:BAN00010:  10    0.540537    0.557622  0.00000000
:BAN00011:  11    0.543716    0.557622  0.00000000
:BAN00012:  12    0.546181    0.562607  0.00000000
        Energy to separate low and high energystates:    0.22328


:NOE  : NUMBER OF ELECTRONS          =   13.000

:FER  : F E R M I - ENERGY(TETRAH.M.)=   0.5305293896
:GMA  : POTENTIAL AND CHARGE CUT-OFF  12.00 Ry**.5

:POS001: ATOM    1 X,Y,Z = 0.00000 0.00000 0.50000  MULT= 1  ZZ= 59.000  Pr        

       LMMAX  5
       LM=   0 0  4 0  4 4  6 0  6 4

:CHA001: TOTAL VALENCE CHARGE INSIDE SPHERE   1 =   9.9638    (RMT=  2.5000 )
:PCS001: PARTIAL CHARGES SPHERE =  1 S,P,D,F,      D-EG,D-T2G 
:QTL001: 2.0280 5.3599 0.6145 1.9612 0.0000 0.0000 0.0000 0.2170 0.3975 0.0000 0.0000 0.0000
        Q-s-low E-s-low   Q-p-low E-p-low   Q-d-low E-d-low   Q-f-low E-f-low
:EPL001:  1.9255 -2.1022    5.2904 -0.7792    0.0008 -0.7932    0.0002 -0.7953
        Q-s-hi  E-s-hi    Q-p-hi  E-p-hi    Q-d-hi  E-d-hi    Q-f-hi  E-f-hi 
:EPH001:  0.1025  0.4230    0.0696  0.4653    0.6136  0.4808    1.9610  0.5174

:CHA  : TOTAL VALENCE CHARGE INSIDE UNIT CELL =      13.000000

:SUM  : SUM OF EIGENVALUES =          -6.451180016


        1.ATOM      Pr                   14 CORE STATES
:1S 001: 1S               -3067.046439475 Ry
:2S 001: 2S                -492.811671140 Ry
:2PP001: 2P*               -465.909375670 Ry
:2P 001: 2P                -430.512543000 Ry
:3S 001: 3S                -105.908403331 Ry
:3PP001: 3P*                -94.445875499 Ry
:3P 001: 3P                 -87.438408171 Ry
:3DD001: 3D*                -67.364924902 Ry
:3D 001: 3D                 -65.853477054 Ry
:4S 001: 4S                 -20.590795064 Ry
:4PP001: 4P*                -16.297625265 Ry
:4P 001: 4P                 -14.770357165 Ry
:4DD001: 4D*                 -7.703621503 Ry
:4D 001: 4D                  -7.434272027 Ry
:CINT001 Core Integral Atom   1   45.999517

       DENSITY AT NUCLEUS
        JATOM        VALENCE       SEMI-CORE          CORE           TOTAL
:RTO001:   1      649.949441        0.000000   656821.591138   657471.540579
     
       CHARGES OF NEW CHARGE DENSITY
:NTO   : INTERSTITIAL CHARGE =     3.036166
:NPC   : PW Pseudocharge     =     7.620690
:NTO001: CHARGE SPHERE  1    =    55.963350

:NEC01: NUCLEAR AND ELECTRONIC CHARGE     59.00000    58.99952
     
       CHARGES OF OLD CHARGE DENSITY
:OTO   : INTERSTITIAL CHARGE =     2.933417
:OPC   : PW Pseudocharge     =     7.448515
:OTO001: CHARGE SPHERE  1    =    56.066583

:NEC02: NUCLEAR AND ELECTRONIC CHARGE     59.00000    59.00000
     
       CONVERGENCE TEST
:DTO001: DIFFERENCE IN SPHERE  1 =  0.1761976

:DIS  :  CHARGE DISTANCE       ( 0.1761976 for atom    1 spin 1)      0.1761976
 PW Mixed is           56
 
******************************************************
* MULTISECANT MIXING VER9 RELEASE 10.4.0              *
* Slow Mode, cautious                                *
* Fixed density scale                                *
* Regularization       1.000E-04                     *
* Step Trust Radius    0.75000                       *
* Trust Upper Limit    2.000E+00                     *
* Max Number of Memory Steps   12                    *
******************************************************
 
:PWTMP   1.9360E+02  1.2500E+02  2.5905E+02
:PLANE:  PW TOTAL      2.8422 DISTAN   8.39E-02  2.95E+00 %
:CHARG:  CLM/ATOM    977.2550 DISTAN   6.19E-01  6.34E-02 %
 
Step History
        DMIX         DMIXT        Red     Pred      Trust     Lambda    MagRel    MagAbs     Beta
  1   3.5000E-02   3.5000E-02 -1.00E+00  1.00E+00 -1.00E+01  1.00E+00  3.50E-02  3.50E-02  1.00E+00
  2   2.5000E-02   2.5000E-02 -1.00E+00  1.00E+00 -1.00E+01  1.00E+00  2.50E-02  1.92E-02  1.00E+00
:JACOBIANS    4.426E-01   3.632E-03
  
:TRUST:  Step 2.80E-02  Charge 7.50E-02 (e) CTO  2.50E-01 (e) PW  3.50E-01 (e)
:DIRM :  MEMORY  1/12 SCALE   1.000
:MIX  :   PRATT  REGULARIZATION:  1.00E-04 GREED: 0.02799  Expand 1.12  0.0280                
     
       CHARGES OF MIXED CHARGE DENSITY
:CTO   : INTERSTITIAL CHARGE =     2.934892
:CPC   : PW Pseudocharge     =     7.636553
:CTO001: CHARGE SPHERE  1    =    56.065108

:NEC03: NUCLEAR AND ELECTRONIC CHARGE     59.00000    59.00000

PW CHANGE     H    K    L      Current       Change    Residue
:PTO001:      0    0    0  4.08080907E-02  7.316E-04  1.068E-03
:PTO002:     -1   -1   -1 -1.31105864E-01 -4.375E-03 -2.883E-03
:PTO003:      0    0   -2  7.87793625E-02  2.973E-03  1.296E-03
:PTO004:      0   -2   -2  6.85268331E-02  3.995E-03  3.806E-03
:PTO005:     -1   -1   -3 -7.11141516E-02 -5.735E-03 -9.041E-04
:PTO006:     -2   -2   -2  1.87675281E-02  1.705E-03  2.901E-05
:PTO007:      0    0   -4  4.74564460E-03  7.780E-04 -8.076E-04
:PTO008:     -1   -3   -3 -5.63252036E-03 -2.071E-03  4.845E-04
:PTO009:      0   -2   -4  2.78471105E-03  1.773E-03 -1.005E-03
:PTO010:     -2   -2   -4 -3.51866810E-03  8.538E-04 -1.688E-03
:PTO011:     -3   -3   -3  1.69404192E-03 -1.264E-04  7.635E-04
:PTO012:     -1   -1   -5  5.07390852E-03 -3.813E-04  2.009E-03

:ENE  : ********** TOTAL ENERGY IN Ry =       -18472.07047767

 Flat Integration
 New Mode for Coulomb Integral
 Consistent 3/8+Simpson combinations
 Extension of core to zero
 LDM version in phi
 Fifth-order quadrature in outwin


            ---------
:ITE003:  3. ITERATION
            ---------

:NATO :    1 INDEPENDENT AND    1 TOTAL ATOMS IN UNITCELL
       SUBSTANCE: blebleble                                                   

       LATTICE                      = F   
:POT  : POTENTIAL OPTION EX_LDA EC_LDA VX_LDA VC_LDA
:LAT  : LATTICE CONSTANTS= 10.11927 10.11927 10.11927    1.571    1.571    1.571
:VOL  : UNIT CELL VOLUME =     259.05267
       MODE OF CALCULATION IS       = RELA
       NON-SPINPOLARIZED CALCULATION
:IFFT  : FFT-parameters:   80   80   80 Factor: 2.00


   CONVERGENCE PARAMETER FOR PSEUDOCHARGE: NCON=  9
   MAXIMAL VALUE OF RMT(JATOM)*ABSK(NKK) : RK  =29.93932


:VKCOUL :  VK-COUL convergence: 0.555E-07
       ATOMNUMBER=  1 Pr         VCOUL-ZERO =  0.18325E+00
:FIT001: LUSE= 13 SIGMA OF V-XC FIT FOR ATOM  1  0.1055720E-05
:FIT001: LUSE= 13 SIGMA OF V-XC FIT FOR ATOM  1  0.1055720E-05
:DEN  : DENSITY INTEGRAL  =         -7068.66450123   (Ry)
       ELS_POTENTIAL_AT Z=0 and Z=0.5:  -2.40808  -2.40808
       ELS_POTENTIAL_AT Y=0 and Y=0.5:   0.00000   0.00000
:VZERO:v0,v0c,v0x  -3.37388  -2.40808  -0.96581 v5,v5c,v5x  -3.37388  -2.40808  -0.96581
:VZERY:v0,v0c,v0x  -0.69025   0.00000  -0.69025 v5,v5c,v5x  -0.69025   0.00000  -0.69025
:VZERX:v0,v0c,v0x  -0.69025   0.00000  -0.69025 v5,v5c,v5x  -0.69025   0.00000  -0.69025
:LMAX-WF:   10   Non-Spherical LMAX:   4

          ATOMIC SPHERE DEPENDENT PARAMETERS FOR ATOM  Pr        
:e__0001: OVERALL ENERGY PARAMETER IS    0.3270
          OVERALL BASIS SET ON ATOM IS LAPW
:E0_0001: E( 0)=    0.3270
             APW+lo
:E0_0001: E( 0)=   -2.1513   E(BOTTOM)=   -2.532   E(TOP)=   -1.770  4  5   171
             LOCAL ORBITAL
:E1_0001: E( 1)=    0.7270
             APW+lo
:E1_0001: E( 1)=   -0.7634   E(BOTTOM)=   -1.410   E(TOP)=   -0.117  3  4   166
             LOCAL ORBITAL
:E3_0001: E( 3)=    0.5195   E(BOTTOM)=    0.378   E(TOP)=    0.661  0  1   118
             APW+lo
:E2_0001: E( 2)=    0.3270   E(BOTTOM)=    0.165   E(TOP)= -200.000  2 -1    97
             APW+lo

       K=   0.00000   0.00000   0.00000            1
:RKM  : MATRIX SIZE   189LOs:  20  RKM= 8.07  WEIGHT= 1.00  PGR:    
       EIGENVALUES ARE:
:EIG00001:      -2.1097321   -0.7492652   -0.7492652   -0.7492652    0.2750986
:EIG00006:       0.5193984    0.5357275    0.5357275    0.5357275    0.5575058
:EIG00011:       0.5575058    0.5575058    0.6541056    0.6541056    0.6541056
:EIG00016:       0.8136702    0.8136702    1.2099295    1.4243959    1.4243959
:EIG00021:       1.4243959    1.5327134
       ********************************************************

:KPT   :      NUMBER OF K-POINTS:   165
:GAP (global)   :    0.0    Ry =     0.0   eV (metal)
         Bandranges (emin - emax) and occupancy:
:BAN00001:   1   -2.109732   -2.099294  2.00000000
:BAN00002:   2   -0.817855   -0.749265  2.00000000
:BAN00003:   3   -0.793698   -0.749265  2.00000000
:BAN00004:   4   -0.774608   -0.749265  2.00000000
:BAN00005:   5    0.275099    0.503579  2.00000000
:BAN00006:   6    0.462026    0.528777  2.00000000
:BAN00007:   7    0.517910    0.539336  1.00000000
:BAN00008:   8    0.531756    0.542177  0.00000000
:BAN00009:   9    0.535727    0.544569  0.00000000
:BAN00010:  10    0.540568    0.557506  0.00000000
:BAN00011:  11    0.543678    0.557506  0.00000000
:BAN00012:  12    0.546118    0.562899  0.00000000
        Energy to separate low and high energystates:    0.22510


:NOE  : NUMBER OF ELECTRONS          =   13.000

:FER  : F E R M I - ENERGY(TETRAH.M.)=   0.5307034615
:GMA  : POTENTIAL AND CHARGE CUT-OFF  12.00 Ry**.5

:POS001: ATOM    1 X,Y,Z = 0.00000 0.00000 0.50000  MULT= 1  ZZ= 59.000  Pr        

       LMMAX  5
       LM=   0 0  4 0  4 4  6 0  6 4

:CHA001: TOTAL VALENCE CHARGE INSIDE SPHERE   1 =   9.9862    (RMT=  2.5000 )
:PCS001: PARTIAL CHARGES SPHERE =  1 S,P,D,F,      D-EG,D-T2G 
:QTL001: 2.0278 5.3593 0.6060 1.9929 0.0000 0.0000 0.0000 0.2143 0.3917 0.0000 0.0000 0.0000
        Q-s-low E-s-low   Q-p-low E-p-low   Q-d-low E-d-low   Q-f-low E-f-low
:EPL001:  1.9256 -2.1015    5.2911 -0.7781    0.0008 -0.7922    0.0002 -0.7943
        Q-s-hi  E-s-hi    Q-p-hi  E-p-hi    Q-d-hi  E-d-hi    Q-f-hi  E-f-hi 
:EPH001:  0.1022  0.4245    0.0682  0.4658    0.6051  0.4816    1.9927  0.5178

:CHA  : TOTAL VALENCE CHARGE INSIDE UNIT CELL =      13.000000

:SUM  : SUM OF EIGENVALUES =          -6.438475191


        1.ATOM      Pr                   14 CORE STATES
:1S 001: 1S               -3067.048413651 Ry
:2S 001: 2S                -492.813500471 Ry
:2PP001: 2P*               -465.911225882 Ry
:2P 001: 2P                -430.514384242 Ry
:3S 001: 3S                -105.910021117 Ry
:3PP001: 3P*                -94.447507515 Ry
:3P 001: 3P                 -87.440020516 Ry
:3DD001: 3D*                -67.366575631 Ry
:3D 001: 3D                 -65.855122212 Ry
:4S 001: 4S                 -20.591669332 Ry
:4PP001: 4P*                -16.298458571 Ry
:4P 001: 4P                 -14.771125315 Ry
:4DD001: 4D*                 -7.704274611 Ry
:4D 001: 4D                  -7.434902831 Ry
:CINT001 Core Integral Atom   1   45.999517

       DENSITY AT NUCLEUS
        JATOM        VALENCE       SEMI-CORE          CORE           TOTAL
:RTO001:   1      649.994762        0.000000   656821.769604   657471.764366
     
       CHARGES OF NEW CHARGE DENSITY
:NTO   : INTERSTITIAL CHARGE =     3.013756
:NPC   : PW Pseudocharge     =     7.613342
:NTO001: CHARGE SPHERE  1    =    55.985761

:NEC01: NUCLEAR AND ELECTRONIC CHARGE     59.00000    58.99952
     
       CHARGES OF OLD CHARGE DENSITY
:OTO   : INTERSTITIAL CHARGE =     2.934892
:OPC   : PW Pseudocharge     =     7.636553
:OTO001: CHARGE SPHERE  1    =    56.065108

:NEC02: NUCLEAR AND ELECTRONIC CHARGE     59.00000    59.00000
     
       CONVERGENCE TEST
:DTO001: DIFFERENCE IN SPHERE  1 =  0.1426716

:DIS  :  CHARGE DISTANCE       ( 0.1426716 for atom    1 spin 1)      0.1426716
 PW Mixed is           56
 
******************************************************
* MULTISECANT MIXING VER9 RELEASE 10.4.0              *
* Slow Mode, cautious                                *
* Fixed density scale                                *
* Regularization       1.000E-04                     *
* Step Trust Radius    0.75000                       *
* Trust Upper Limit    2.000E+00                     *
* Max Number of Memory Steps   12                    *
******************************************************
 
:PWTMP   1.9360E+02  1.2500E+02  2.5905E+02
:PLANE:  PW TOTAL      2.9411 DISTAN   7.82E-02  2.66E+00 %
:CHARG:  CLM/ATOM    977.2541 DISTAN   6.07E-01  6.21E-02 %
 
Step History
        DMIX         DMIXT        Red     Pred      Trust     Lambda    MagRel    MagAbs     Beta
  1   3.5000E-02   3.5000E-02 -1.00E+00  1.00E+00 -1.00E+01  1.00E+00  3.50E-02  3.50E-02  1.00E+00
  2   2.5000E-02   2.5000E-02  8.13E-01  1.00E+00 -1.00E+01  1.00E+00  2.50E-02  1.92E-02  1.00E+00
  3   2.7991E-02   2.7991E-02 -1.00E+00  1.00E+00 -1.00E+01  1.00E+00  2.80E-02  1.75E-02  1.00E+00
:JACOBIANS    6.648E-01   5.161E-03
  
:NORMS:  1/Froebius, Min, Max, Used   0.9362E+00  0.4769E+00  0.9537E+00  0.9363E+00
:INFO :  Number of Memory Steps    2 Skipping    0
:INFO :  SLambda=    0.1646622404  Max    0.1646622404
:PREDicted Charge, CTotal, PW Trust    1.403E-03   1.403E-03   8.703E-02
:PREDicted DMix, Beta, BLim   1.9339E-02  9.0999E-01  1.8580E-01

Eigenvalues, unscaled except for SY+YY
   #     SY Real        SY Imag          SS             YY         SY+YY Real      SY+YY Imag
   1   1.775640E+00   0.000000E+00   1.753088E+00   1.999937E+00   2.292317E+00   0.000000E+00
   2   2.231548E-14   0.000000E+00  -1.110223E-16   6.281787E-05   6.341220E-05   0.000000E+00
 
:INFO :  Singular value  2.292E+00 Weight  1.000E+00 Projection  3.903E-04
:INFO :  Singular value  6.341E-05 Weight  9.135E-02 Projection -4.143E+00
:RANK :  ACTIVE   1.09/2  =  54.57 % ; YY RANK   1.09/2  =  54.49 %
 
:DLIM :  Beta Active  9.325E-01
:BLIM :  VZERO Control Off
:TRUST:  Step 1.88E-01  Charge 7.50E-02 (e) CTO  2.50E-01 (e) PW  3.50E-01 (e)
:DIRM :  MEMORY  2/12 SCALE   1.000 RED  0.98 PRED  1.00 NEXT  0.97 BETA  0.93
:TRAVE:  Charge 1.46E-03 (e) CTO  1.46E-03 (e) PW  5.83E-03 (e)
:DIRP :  |MSR1|= 9.089E-03 |PRATT|= 7.822E-02 ANGLE=  38.3 DEGREES
:DIRQ :  |MSR1|= 1.385E-02 |PRATT|= 6.073E-01 ANGLE=   2.9 DEGREES
:DIRT :  |MSR1|= 1.656E-02 |PRATT|= 6.123E-01 ANGLE=  28.0 DEGREES
:MIX  :   MSD1   REGULARIZATION:  2.00E-04 GREED: 0.02417  Newton 1.00  0.0271                
     
       CHARGES OF MIXED CHARGE DENSITY
:CTO   : INTERSTITIAL CHARGE =     2.936356
:CPC   : PW Pseudocharge     =     7.623005
:CTO001: CHARGE SPHERE  1    =    56.063644

:NEC03: NUCLEAR AND ELECTRONIC CHARGE     59.00000    59.00000

PW CHANGE     H    K    L      Current       Change    Residue
:PTO001:      0    0    0  4.07614431E-02 -4.665E-05  2.214E-04
:PTO002:     -1   -1   -1 -1.30769857E-01  3.360E-04  1.492E-03
:PTO003:      0    0   -2  7.85360940E-02 -2.433E-04 -1.652E-03
:PTO004:      0   -2   -2  6.82483288E-02 -2.785E-04 -1.947E-04
:PTO005:     -1   -1   -3 -7.06068111E-02  5.073E-04  4.787E-03
:PTO006:     -2   -2   -2  1.86111993E-02 -1.563E-04 -1.666E-03
:PTO007:      0    0   -4  4.65489197E-03 -9.075E-05 -1.569E-03
:PTO008:     -1   -3   -3 -5.43000064E-03  2.025E-04  2.545E-03
:PTO009:      0   -2   -4  2.59737591E-03 -1.873E-04 -2.756E-03
:PTO010:     -2   -2   -4 -3.63713908E-03 -1.185E-04 -2.527E-03
:PTO011:     -3   -3   -3  1.72364368E-03  2.960E-05  8.866E-04
:PTO012:     -1   -1   -5  5.15621783E-03  8.231E-05  2.366E-03

:ENE  : ********** TOTAL ENERGY IN Ry =       -18472.07024102

 Flat Integration
 New Mode for Coulomb Integral
 Consistent 3/8+Simpson combinations
 Extension of core to zero
 LDM version in phi
 Fifth-order quadrature in outwin


            ---------
:ITE004:  4. ITERATION
            ---------

:NATO :    1 INDEPENDENT AND    1 TOTAL ATOMS IN UNITCELL
       SUBSTANCE: blebleble                                                   

       LATTICE                      = F   
:POT  : POTENTIAL OPTION EX_LDA EC_LDA VX_LDA VC_LDA
:LAT  : LATTICE CONSTANTS= 10.11927 10.11927 10.11927    1.571    1.571    1.571
:VOL  : UNIT CELL VOLUME =     259.05267
       MODE OF CALCULATION IS       = RELA
       NON-SPINPOLARIZED CALCULATION
:IFFT  : FFT-parameters:   80   80   80 Factor: 2.00


   CONVERGENCE PARAMETER FOR PSEUDOCHARGE: NCON=  9
   MAXIMAL VALUE OF RMT(JATOM)*ABSK(NKK) : RK  =29.93932


:VKCOUL :  VK-COUL convergence: 0.566E-07
       ATOMNUMBER=  1 Pr         VCOUL-ZERO =  0.18307E+00
:FIT001: LUSE= 13 SIGMA OF V-XC FIT FOR ATOM  1  0.1081386E-05
:FIT001: LUSE= 13 SIGMA OF V-XC FIT FOR ATOM  1  0.1081386E-05
:DEN  : DENSITY INTEGRAL  =         -7068.50472033   (Ry)
       ELS_POTENTIAL_AT Z=0 and Z=0.5:  -2.40820  -2.40820
       ELS_POTENTIAL_AT Y=0 and Y=0.5:   0.00000   0.00000
:VZERO:v0,v0c,v0x  -3.37327  -2.40820  -0.96506 v5,v5c,v5x  -3.37327  -2.40820  -0.96506
:VZERY:v0,v0c,v0x  -0.69024   0.00000  -0.69024 v5,v5c,v5x  -0.69024   0.00000  -0.69024
:VZERX:v0,v0c,v0x  -0.69024   0.00000  -0.69024 v5,v5c,v5x  -0.69024   0.00000  -0.69024
:LMAX-WF:   10   Non-Spherical LMAX:   4

          ATOMIC SPHERE DEPENDENT PARAMETERS FOR ATOM  Pr        
:e__0001: OVERALL ENERGY PARAMETER IS    0.3295
          OVERALL BASIS SET ON ATOM IS LAPW
:E0_0001: E( 0)=    0.3295
             APW+lo
:E0_0001: E( 0)=   -2.1525   E(BOTTOM)=   -2.533   E(TOP)=   -1.772  4  5   165
             LOCAL ORBITAL
:E1_0001: E( 1)=    0.7295
             APW+lo
:E1_0001: E( 1)=   -0.7645   E(BOTTOM)=   -1.411   E(TOP)=   -0.118  3  4   163
             LOCAL ORBITAL
:E3_0001: E( 3)=    0.5175   E(BOTTOM)=    0.376   E(TOP)=    0.659  0  1   116
             APW+lo
:E2_0001: E( 2)=    0.3295   E(BOTTOM)=    0.165   E(TOP)= -200.000  2 -1    93
             APW+lo

       K=   0.00000   0.00000   0.00000            1
:RKM  : MATRIX SIZE   189LOs:  20  RKM= 8.07  WEIGHT= 1.00  PGR:    
       EIGENVALUES ARE:
:EIG00001:      -2.1109505   -0.7502699   -0.7502699   -0.7502699    0.2749524
:EIG00006:       0.5176288    0.5338212    0.5338212    0.5338212    0.5555054
:EIG00011:       0.5555054    0.5555054    0.6537378    0.6537378    0.6537378
:EIG00016:       0.8131698    0.8131698    1.2096193    1.4241913    1.4241913
:EIG00021:       1.4241913    1.5326658
       ********************************************************

:KPT   :      NUMBER OF K-POINTS:   165
:GAP (global)   :    0.0    Ry =     0.0   eV (metal)
         Bandranges (emin - emax) and occupancy:
:BAN00001:   1   -2.110950   -2.100528  2.00000000
:BAN00002:   2   -0.818758   -0.750270  2.00000000
:BAN00003:   3   -0.794636   -0.750270  2.00000000
:BAN00004:   4   -0.775575   -0.750270  2.00000000
:BAN00005:   5    0.274952    0.502602  2.00000000
:BAN00006:   6    0.461759    0.527325  2.00000000
:BAN00007:   7    0.516464    0.537409  1.00000000
:BAN00008:   8    0.530042    0.540266  0.00000000
:BAN00009:   9    0.533821    0.542725  0.00000000
:BAN00010:  10    0.538700    0.555505  0.00000000
:BAN00011:  11    0.541746    0.555505  0.00000000
:BAN00012:  12    0.544163    0.561302  0.00000000
        Energy to separate low and high energystates:    0.22495


:NOE  : NUMBER OF ELECTRONS          =   13.000

:FER  : F E R M I - ENERGY(TETRAH.M.)=   0.5289763842
:GMA  : POTENTIAL AND CHARGE CUT-OFF  12.00 Ry**.5

:POS001: ATOM    1 X,Y,Z = 0.00000 0.00000 0.50000  MULT= 1  ZZ= 59.000  Pr        

       LMMAX  5
       LM=   0 0  4 0  4 4  6 0  6 4

:CHA001: TOTAL VALENCE CHARGE INSIDE SPHERE   1 =  10.0080    (RMT=  2.5000 )
:PCS001: PARTIAL CHARGES SPHERE =  1 S,P,D,F,      D-EG,D-T2G 
:QTL001: 2.0276 5.3587 0.5978 2.0236 0.0000 0.0000 0.0000 0.2117 0.3860 0.0000 0.0000 0.0000
        Q-s-low E-s-low   Q-p-low E-p-low   Q-d-low E-d-low   Q-f-low E-f-low
:EPL001:  1.9257 -2.1027    5.2918 -0.7791    0.0008 -0.7931    0.0002 -0.7953
        Q-s-hi  E-s-hi    Q-p-hi  E-p-hi    Q-d-hi  E-d-hi    Q-f-hi  E-f-hi 
:EPH001:  0.1019  0.4240    0.0669  0.4643    0.5969  0.4806    2.0234  0.5163

:CHA  : TOTAL VALENCE CHARGE INSIDE UNIT CELL =      13.000000

:SUM  : SUM OF EIGENVALUES =          -6.451328854


        1.ATOM      Pr                   14 CORE STATES
:1S 001: 1S               -3067.052575528 Ry
:2S 001: 2S                -492.817300308 Ry
:2PP001: 2P*               -465.915076575 Ry
:2P 001: 2P                -430.518213036 Ry
:3S 001: 3S                -105.913445145 Ry
:3PP001: 3P*                -94.450954141 Ry
:3P 001: 3P                 -87.443440336 Ry
:3DD001: 3D*                -67.370048516 Ry
:3D 001: 3D                 -65.858586912 Ry
:4S 001: 4S                 -20.594345306 Ry
:4PP001: 4P*                -16.301100540 Ry
:4P 001: 4P                 -14.773710769 Ry
:4DD001: 4D*                 -7.706760539 Ry
:4D 001: 4D                  -7.437369316 Ry
:CINT001 Core Integral Atom   1   45.999518

       DENSITY AT NUCLEUS
        JATOM        VALENCE       SEMI-CORE          CORE           TOTAL
:RTO001:   1      650.035857        0.000000   656821.984525   657472.020382
     
       CHARGES OF NEW CHARGE DENSITY
:NTO   : INTERSTITIAL CHARGE =     2.992014
:NPC   : PW Pseudocharge     =     7.606475
:NTO001: CHARGE SPHERE  1    =    56.007503

:NEC01: NUCLEAR AND ELECTRONIC CHARGE     59.00000    58.99952
     
       CHARGES OF OLD CHARGE DENSITY
:OTO   : INTERSTITIAL CHARGE =     2.936356
:OPC   : PW Pseudocharge     =     7.623005
:OTO001: CHARGE SPHERE  1    =    56.063644

:NEC02: NUCLEAR AND ELECTRONIC CHARGE     59.00000    59.00000
     
       CONVERGENCE TEST
:DTO001: DIFFERENCE IN SPHERE  1 =  0.1137692

:DIS  :  CHARGE DISTANCE       ( 0.1137692 for atom    1 spin 1)      0.1137692
 PW Mixed is           56
 
******************************************************
* MULTISECANT MIXING VER9 RELEASE 10.4.0              *
* Slow Mode, cautious                                *
* Fixed density scale                                *
* Regularization       1.000E-04                     *
* Step Trust Radius    0.75000                       *
* Trust Upper Limit    2.000E+00                     *
* Max Number of Memory Steps   12                    *
******************************************************
 
:PWTMP   1.9360E+02  1.2500E+02  2.5905E+02
:PLANE:  PW TOTAL      2.9335 DISTAN   7.01E-02  2.39E+00 %
:CHARG:  CLM/ATOM    977.2521 DISTAN   5.89E-01  6.03E-02 %
 
Step History
        DMIX         DMIXT        Red     Pred      Trust     Lambda    MagRel    MagAbs     Beta
  1   3.5000E-02   3.5000E-02 -1.00E+00  1.00E+00 -1.00E+01  1.00E+00  3.50E-02  3.50E-02  1.00E+00
  2   2.5000E-02   2.5000E-02  8.13E-01  1.00E+00 -1.00E+01  1.00E+00  2.50E-02  1.92E-02  1.00E+00
  3   2.7991E-02   2.7991E-02  9.80E-01  1.00E+00 -1.00E+01  1.65E-01  2.80E-02  1.75E-02  1.00E+00
  4   2.4167E-02   2.4167E-02 -1.00E+00  9.71E-01  1.88E-01  1.00E+00  2.71E-02  1.66E-02  9.32E-01
:JACOBIANS    8.300E-01   7.337E-02
  
:NORMS:  1/Froebius, Min, Max, Used   0.7310E+00  0.3588E+00  0.9985E+00  0.8264E+00
:INFO :  Number of Memory Steps    3 Skipping    0
:INFO :  SLambda=    1.2533203822  Max    1.2533203822
:PREDicted Charge, CTotal, PW Trust    1.629E-02   1.629E-02   6.341E-02
:PREDicted DMix, Beta, BLim   1.4786E-01  5.9649E+00  2.8652E-01

Eigenvalues, unscaled except for SY+YY
   #     SY Real        SY Imag          SS             YY         SY+YY Real      SY+YY Imag
   1   1.501818E+00   0.000000E+00   1.475328E+00   2.160156E+00   3.845194E+00   0.000000E+00
   2   1.392709E-14   0.000000E+00   1.275790E-01   8.398318E-01   9.048919E-06   0.000000E+00
   3   1.671799E-01   0.000000E+00   8.920319E-17   1.176874E-05   1.246586E+00   0.000000E+00
 
:INFO :  Singular value  3.845E+00 Weight  1.000E+00 Projection -4.186E-02
:INFO :  Singular value  1.247E+00 Weight  1.000E+00 Projection -4.056E-01
:INFO :  Singular value  9.049E-06 Weight  1.752E-03 Projection  7.970E-02
:RANK :  ACTIVE   2.00/3  =  66.73 % ; YY RANK   2.00/3  =  66.77 %
 
:BLIM :  VZERO Control Off
:TRUST:  Step 1.76E-01  Charge 7.50E-02 (e) CTO  2.50E-01 (e) PW  3.50E-01 (e)
:DTRUS:  Lambda    1.512E+00 Increment    7.276E-12 Iterations   110 DMIX    3.355E-02
:INFOA:  Angle SubSpace to MSR1     21.46
:DIRM :  MEMORY  3/12 SCALE   1.000 RED  0.97 PRED  0.97 NEXT  0.91 
:INFO :  Limited by Atoms F by Step T

:TRAVE:  Charge 2.71E-03 (e) CTO  2.71E-03 (e) PW  4.15E-03 (e)
:DIRP :  |MSR1|= 1.419E-02 |PRATT|= 7.011E-02 ANGLE=  11.0 DEGREES
:DIRQ :  |MSR1|= 1.037E-01 |PRATT|= 5.891E-01 ANGLE=   5.7 DEGREES
:DIRT :  |MSR1|= 1.047E-01 |PRATT|= 5.933E-01 ANGLE=   5.9 DEGREES
:MIX  :   MSE1   REGULARIZATION:  2.16E-04 GREED: 0.06042  LMStep 0.57  0.1764 Step           
     
       CHARGES OF MIXED CHARGE DENSITY
:CTO   : INTERSTITIAL CHARGE =     2.940321
:CPC   : PW Pseudocharge     =     7.613926
:CTO001: CHARGE SPHERE  1    =    56.059679

:NEC03: NUCLEAR AND ELECTRONIC CHARGE     59.00000    59.00000

PW CHANGE     H    K    L      Current       Change    Residue
:PTO001:      0    0    0  4.07417028E-02 -1.974E-05  1.576E-04
:PTO002:     -1   -1   -1 -1.30462908E-01  3.069E-04  1.152E-03
:PTO003:      0    0   -2  7.82273649E-02 -3.087E-04 -1.379E-03
:PTO004:      0   -2   -2  6.81725782E-02 -7.575E-05  8.290E-05
:PTO005:     -1   -1   -3 -6.97295569E-02  8.773E-04  4.231E-03
:PTO006:     -2   -2   -2  1.83085227E-02 -3.027E-04 -1.498E-03
:PTO007:      0    0   -4  4.37911225E-03 -2.758E-04 -1.461E-03
:PTO008:     -1   -3   -3 -4.96888237E-03  4.611E-04  2.332E-03
:PTO009:      0   -2   -4  2.10589304E-03 -4.915E-04 -2.546E-03
:PTO010:     -2   -2   -4 -4.07985541E-03 -4.427E-04 -2.394E-03
:PTO011:     -3   -3   -3  1.87732950E-03  1.537E-04  8.538E-04
:PTO012:     -1   -1   -5  5.56285868E-03  4.066E-04  2.260E-03

:ENE  : ********** TOTAL ENERGY IN Ry =       -18472.07007442

 Flat Integration
 New Mode for Coulomb Integral
 Consistent 3/8+Simpson combinations
 Extension of core to zero
 LDM version in phi
 Fifth-order quadrature in outwin


            ---------
:ITE005:  5. ITERATION
            ---------

:NATO :    1 INDEPENDENT AND    1 TOTAL ATOMS IN UNITCELL
       SUBSTANCE: blebleble                                                   

       LATTICE                      = F   
:POT  : POTENTIAL OPTION EX_LDA EC_LDA VX_LDA VC_LDA
:LAT  : LATTICE CONSTANTS= 10.11927 10.11927 10.11927    1.571    1.571    1.571
:VOL  : UNIT CELL VOLUME =     259.05267
       MODE OF CALCULATION IS       = RELA
       NON-SPINPOLARIZED CALCULATION
:IFFT  : FFT-parameters:   80   80   80 Factor: 2.00


   CONVERGENCE PARAMETER FOR PSEUDOCHARGE: NCON=  9
   MAXIMAL VALUE OF RMT(JATOM)*ABSK(NKK) : RK  =29.93932


:VKCOUL :  VK-COUL convergence: 0.683E-07
       ATOMNUMBER=  1 Pr         VCOUL-ZERO =  0.18269E+00
:FIT001: LUSE= 13 SIGMA OF V-XC FIT FOR ATOM  1  0.2988337E-05
:FIT001: LUSE= 13 SIGMA OF V-XC FIT FOR ATOM  1  0.2988337E-05
:DEN  : DENSITY INTEGRAL  =         -7068.12504114   (Ry)
       ELS_POTENTIAL_AT Z=0 and Z=0.5:  -2.41289  -2.41289
       ELS_POTENTIAL_AT Y=0 and Y=0.5:   0.00000   0.00000
:VZERO:v0,v0c,v0x  -3.37574  -2.41289  -0.96285 v5,v5c,v5x  -3.37574  -2.41289  -0.96285
:VZERY:v0,v0c,v0x  -0.69046   0.00000  -0.69046 v5,v5c,v5x  -0.69046   0.00000  -0.69046
:VZERX:v0,v0c,v0x  -0.69046   0.00000  -0.69046 v5,v5c,v5x  -0.69046   0.00000  -0.69046
:LMAX-WF:   10   Non-Spherical LMAX:   4

          ATOMIC SPHERE DEPENDENT PARAMETERS FOR ATOM  Pr        
:e__0001: OVERALL ENERGY PARAMETER IS    0.3291
          OVERALL BASIS SET ON ATOM IS LAPW
:E0_0001: E( 0)=    0.3291
             APW+lo
:E0_0001: E( 0)=   -2.1556   E(BOTTOM)=   -2.536   E(TOP)=   -1.775  4  5   170
             LOCAL ORBITAL
:E1_0001: E( 1)=    0.7291
             APW+lo
:E1_0001: E( 1)=   -0.7672   E(BOTTOM)=   -1.413   E(TOP)=   -0.121  3  4   165
             LOCAL ORBITAL
:E3_0001: E( 3)=    0.5131   E(BOTTOM)=    0.372   E(TOP)=    0.654  0  1   112
             APW+lo
:E2_0001: E( 2)=    0.3291   E(BOTTOM)=    0.163   E(TOP)= -200.000  2 -1    96
             APW+lo

       K=   0.00000   0.00000   0.00000            1
:RKM  : MATRIX SIZE   189LOs:  20  RKM= 8.07  WEIGHT= 1.00  PGR:    
       EIGENVALUES ARE:
:EIG00001:      -2.1139563   -0.7527454   -0.7527454   -0.7527454    0.2749473
:EIG00006:       0.5138490    0.5295289    0.5295289    0.5295289    0.5510231
:EIG00011:       0.5510231    0.5510231    0.6531396    0.6531396    0.6531396
:EIG00016:       0.8121062    0.8121062    1.2091921    1.4240584    1.4240584
:EIG00021:       1.4240584    1.5325595
       ********************************************************

:KPT   :      NUMBER OF K-POINTS:   165
:GAP (global)   :    0.0    Ry =     0.0   eV (metal)
         Bandranges (emin - emax) and occupancy:
:BAN00001:   1   -2.113956   -2.103580  2.00000000
:BAN00002:   2   -0.820943   -0.752745  2.00000000
:BAN00003:   3   -0.796922   -0.752745  2.00000000
:BAN00004:   4   -0.777942   -0.752745  2.00000000
:BAN00005:   5    0.274947    0.500428  2.00000000
:BAN00006:   6    0.461402    0.524425  2.00000000
:BAN00007:   7    0.513212    0.533103  1.00000000
:BAN00008:   8    0.526215    0.535972  0.00000000
:BAN00009:   9    0.529529    0.538774  0.00000000
:BAN00010:  10    0.534494    0.551023  0.00000000
:BAN00011:  11    0.537404    0.551023  0.00000000
:BAN00012:  12    0.539767    0.558004  0.00000000
        Energy to separate low and high energystates:    0.22495


:NOE  : NUMBER OF ELECTRONS          =   13.000

:FER  : F E R M I - ENERGY(TETRAH.M.)=   0.5251394044
:GMA  : POTENTIAL AND CHARGE CUT-OFF  12.00 Ry**.5

:POS001: ATOM    1 X,Y,Z = 0.00000 0.00000 0.50000  MULT= 1  ZZ= 59.000  Pr        

       LMMAX  5
       LM=   0 0  4 0  4 4  6 0  6 4

:CHA001: TOTAL VALENCE CHARGE INSIDE SPHERE   1 =  10.0607    (RMT=  2.5000 )
:PCS001: PARTIAL CHARGES SPHERE =  1 S,P,D,F,      D-EG,D-T2G 
:QTL001: 2.0271 5.3577 0.5782 2.0974 0.0000 0.0000 0.0000 0.2056 0.3726 0.0000 0.0000 0.0000
        Q-s-low E-s-low   Q-p-low E-p-low   Q-d-low E-d-low   Q-f-low E-f-low
:EPL001:  1.9259 -2.1057    5.2938 -0.7815    0.0008 -0.7955    0.0002 -0.7976
        Q-s-hi  E-s-hi    Q-p-hi  E-p-hi    Q-d-hi  E-d-hi    Q-f-hi  E-f-hi 
:EPH001:  0.1012  0.4231    0.0639  0.4611    0.5774  0.4782    2.0972  0.5130

:CHA  : TOTAL VALENCE CHARGE INSIDE UNIT CELL =      13.000000

:SUM  : SUM OF EIGENVALUES =          -6.481308205


        1.ATOM      Pr                   14 CORE STATES
:1S 001: 1S               -3067.065267645 Ry
:2S 001: 2S                -492.827357338 Ry
:2PP001: 2P*               -465.925497772 Ry
:2P 001: 2P                -430.528476957 Ry
:3S 001: 3S                -105.921248485 Ry
:3PP001: 3P*                -94.458881855 Ry
:3P 001: 3P                 -87.451241204 Ry
:3DD001: 3D*                -67.378103222 Ry
:3D 001: 3D                 -65.866599713 Ry
:4S 001: 4S                 -20.600060282 Ry
:4PP001: 4P*                -16.306774234 Ry
:4P 001: 4P                 -14.779294126 Ry
:4DD001: 4D*                 -7.712186475 Ry
:4D 001: 4D                  -7.442763296 Ry
:CINT001 Core Integral Atom   1   45.999519

       DENSITY AT NUCLEUS
        JATOM        VALENCE       SEMI-CORE          CORE           TOTAL
:RTO001:   1      650.122133        0.000000   656822.849417   657472.971550
     
       CHARGES OF NEW CHARGE DENSITY
:NTO   : INTERSTITIAL CHARGE =     2.939327
:NPC   : PW Pseudocharge     =     7.591020
:NTO001: CHARGE SPHERE  1    =    56.060192

:NEC01: NUCLEAR AND ELECTRONIC CHARGE     59.00000    58.99952
     
       CHARGES OF OLD CHARGE DENSITY
:OTO   : INTERSTITIAL CHARGE =     2.940321
:OPC   : PW Pseudocharge     =     7.613926
:OTO001: CHARGE SPHERE  1    =    56.059679

:NEC02: NUCLEAR AND ELECTRONIC CHARGE     59.00000    59.00000
     
       CONVERGENCE TEST
:DTO001: DIFFERENCE IN SPHERE  1 =  0.0744419

:DIS  :  CHARGE DISTANCE       ( 0.0744419 for atom    1 spin 1)      0.0744419
 PW Mixed is           56
 
******************************************************
* MULTISECANT MIXING VER9 RELEASE 10.4.0              *
* Standard Mode with controls                        *
* Fixed density scale                                *
* Regularization       1.000E-04                     *
* Trust Upper Limit    5.000E+00                     *
* Max Number of Memory Steps    8                    *
******************************************************
 
:PWTMP   1.9360E+02  1.2500E+02  2.5905E+02
:PLANE:  PW TOTAL      2.9262 DISTAN   5.39E-02  1.84E+00 %
:CHARG:  CLM/ATOM    977.2385 DISTAN   4.83E-01  4.94E-02 %
 
Step History
        DMIX         DMIXT        Red     Pred      Trust     Lambda    MagRel    MagAbs     Beta
  1   3.5000E-02   3.5000E-02 -1.00E+00  1.00E+00 -1.00E+01  1.00E+00  3.50E-02  3.50E-02  1.00E+00
  2   2.5000E-02   2.5000E-02  8.13E-01  1.00E+00 -1.00E+01  1.00E+00  2.50E-02  1.92E-02  1.00E+00
  3   2.7991E-02   2.7991E-02  9.80E-01  1.00E+00 -1.00E+01  1.65E-01  2.80E-02  1.75E-02  1.00E+00
  4   2.4167E-02   2.4167E-02  9.69E-01  9.71E-01  1.88E-01  1.25E+00  2.71E-02  1.66E-02  9.32E-01
  5   6.0418E-02   3.3549E-02 -1.00E+00  9.14E-01  1.76E-01  1.00E+00  1.76E-01  1.05E-01  1.00E+00
:JACOBIANS    9.185E-01   5.484E-01
  
:NORMS:  1/Froebius, Min, Max, Used   0.7400E+00  0.4934E+00  0.9996E+00  0.7513E+00
:INFO :  Number of Memory Steps    4 Skipping    0
:INFO :  SLambda=    0.9372130877  Max    0.9372130877
:PREDicted Charge, CTotal, PW Trust    6.860E-03   6.860E-03   7.128E-03
:PREDicted DMix, Beta, BLim   6.5916E-01  4.1755E+00  9.7204E-01

Eigenvalues, unscaled except for SY+YY
   #     SY Real        SY Imag          SS             YY         SY+YY Real      SY+YY Imag
   1   1.543160E+00   0.000000E+00   1.502307E+00   3.291128E+00   4.734465E+00   0.000000E+00
   2   6.932534E-01   0.000000E+00   6.879783E-01   7.001869E-01   1.350304E+00   0.000000E+00
   3   7.294260E-15   0.000000E+00   6.382936E-05   8.681402E-03   3.890856E-06   0.000000E+00
   4   1.069436E-03   0.000000E+00   8.982615E-17   3.992677E-06   1.222626E-02   0.000000E+00
 
:INFO :  Singular value  4.735E+00 Weight  1.000E+00 Projection -2.088E-01
:INFO :  Singular value  1.350E+00 Weight  1.000E+00 Projection -2.543E-01
:INFO :  Singular value  1.223E-02 Weight  9.993E-01 Projection -3.672E+00
:INFO :  Singular value  3.891E-06 Weight  1.397E-04 Projection -3.259E-03
:RANK :  ACTIVE   3.00/4  =  74.99 % ; YY RANK   3.00/4  =  74.97 %
 
:BLIM :  VZERO Control Off
:TRUST:  Step 5.77E-01  Charge 7.50E-02 (e) CTO  2.50E-01 (e) PW  3.50E-01 (e)
:DTRUS:  Lambda    1.704E+00 Increment    7.276E-12 Iterations   112 DMIX    1.260E-01
:INFOA:  Angle SubSpace to MSR1      0.49
:DIRM :  MEMORY  4/8  SCALE   1.000 RED  0.82 PRED  0.91 NEXT  0.41 
:INFO :  Limited by Atoms F by Step T

:TRAVE:  Charge 1.57E-03 (e) CTO  1.57E-03 (e) PW  4.81E-03 (e)
:DIRP :  |MSR1|= 3.127E-02 |PRATT|= 5.393E-02 ANGLE=   0.8 DEGREES
:DIRQ :  |MSR1|= 2.785E-01 |PRATT|= 4.826E-01 ANGLE=   0.7 DEGREES
:DIRT :  |MSR1|= 2.803E-01 |PRATT|= 4.857E-01 ANGLE=   0.7 DEGREES
:MIX  :   MSD1   REGULARIZATION:  3.29E-04 GREED: 0.15104  LMStep 0.59  0.5771 Step           
     
       CHARGES OF MIXED CHARGE DENSITY
:CTO   : INTERSTITIAL CHARGE =     2.940739
:CPC   : PW Pseudocharge     =     7.602158
:CTO001: CHARGE SPHERE  1    =    56.059261

:NEC03: NUCLEAR AND ELECTRONIC CHARGE     59.00000    59.00000

PW CHANGE     H    K    L      Current       Change    Residue
:PTO001:      0    0    0  4.06978897E-02 -4.381E-05 -8.560E-05
:PTO002:     -1   -1   -1 -1.30001439E-01  4.615E-04  8.137E-04
:PTO003:      0    0   -2  7.76679053E-02 -5.595E-04 -9.763E-04
:PTO004:      0   -2   -2  6.83000309E-02  1.275E-04  1.804E-04
:PTO005:     -1   -1   -3 -6.78718912E-02  1.858E-03  3.210E-03
:PTO006:     -2   -2   -2  1.76337607E-02 -6.748E-04 -1.167E-03
:PTO007:      0    0   -4  3.71432974E-03 -6.648E-04 -1.139E-03
:PTO008:     -1   -3   -3 -3.89720245E-03  1.072E-03  1.845E-03
:PTO009:      0   -2   -4  9.44375223E-04 -1.162E-03 -1.993E-03
:PTO010:     -2   -2   -4 -5.19540146E-03 -1.116E-03 -1.917E-03
:PTO011:     -3   -3   -3  2.28052364E-03  4.032E-04  6.937E-04
:PTO012:     -1   -1   -5  6.60491591E-03  1.042E-03  1.787E-03

:ENE  : ********** TOTAL ENERGY IN Ry =       -18472.06991056

 Flat Integration
 New Mode for Coulomb Integral
 Consistent 3/8+Simpson combinations
 Extension of core to zero
 LDM version in phi
 Fifth-order quadrature in outwin


            ---------
:ITE006:  6. ITERATION
            ---------

:NATO :    1 INDEPENDENT AND    1 TOTAL ATOMS IN UNITCELL
       SUBSTANCE: blebleble                                                   

       LATTICE                      = F   
:POT  : POTENTIAL OPTION EX_LDA EC_LDA VX_LDA VC_LDA
:LAT  : LATTICE CONSTANTS= 10.11927 10.11927 10.11927    1.571    1.571    1.571
:VOL  : UNIT CELL VOLUME =     259.05267
       MODE OF CALCULATION IS       = RELA
       NON-SPINPOLARIZED CALCULATION
:IFFT  : FFT-parameters:   80   80   80 Factor: 2.00


   CONVERGENCE PARAMETER FOR PSEUDOCHARGE: NCON=  9
   MAXIMAL VALUE OF RMT(JATOM)*ABSK(NKK) : RK  =29.93932


:VKCOUL :  VK-COUL convergence: 0.161E-06
       ATOMNUMBER=  1 Pr         VCOUL-ZERO =  0.18193E+00
:FIT001: LUSE= 13 SIGMA OF V-XC FIT FOR ATOM  1  0.2311894E-04
:FIT001: LUSE= 13 SIGMA OF V-XC FIT FOR ATOM  1  0.2311894E-04
:DEN  : DENSITY INTEGRAL  =         -7068.16518011   (Ry)
       ELS_POTENTIAL_AT Z=0 and Z=0.5:  -2.42156  -2.42156
       ELS_POTENTIAL_AT Y=0 and Y=0.5:   0.00000   0.00000
:VZERO:v0,v0c,v0x  -3.37889  -2.42156  -0.95733 v5,v5c,v5x  -3.37889  -2.42156  -0.95733
:VZERY:v0,v0c,v0x  -0.69060   0.00000  -0.69060 v5,v5c,v5x  -0.69060   0.00000  -0.69060
:VZERX:v0,v0c,v0x  -0.69060   0.00000  -0.69060 v5,v5c,v5x  -0.69060   0.00000  -0.69060
:LMAX-WF:   10   Non-Spherical LMAX:   4

          ATOMIC SPHERE DEPENDENT PARAMETERS FOR ATOM  Pr        
:e__0001: OVERALL ENERGY PARAMETER IS    0.3265
          OVERALL BASIS SET ON ATOM IS LAPW
:E0_0001: E( 0)=    0.3265
             APW+lo
:E0_0001: E( 0)=   -2.1562   E(BOTTOM)=   -2.537   E(TOP)=   -1.776  4  5   164
             LOCAL ORBITAL
:E1_0001: E( 1)=    0.7265
             APW+lo
:E1_0001: E( 1)=   -0.7680   E(BOTTOM)=   -1.414   E(TOP)=   -0.122  3  4   165
             LOCAL ORBITAL
:E3_0001: E( 3)=    0.5145   E(BOTTOM)=    0.373   E(TOP)=    0.656  0  1   116
             APW+lo
:E2_0001: E( 2)=    0.3265   E(BOTTOM)=    0.162   E(TOP)= -200.000  2 -1    95
             APW+lo

       K=   0.00000   0.00000   0.00000            1
:RKM  : MATRIX SIZE   189LOs:  20  RKM= 8.07  WEIGHT= 1.00  PGR:    
       EIGENVALUES ARE:
:EIG00001:      -2.1145471   -0.7534099   -0.7534099   -0.7534099    0.2753313
:EIG00006:       0.5156606    0.5307932    0.5307932    0.5307932    0.5524238
:EIG00011:       0.5524238    0.5524238    0.6534293    0.6534293    0.6534293
:EIG00016:       0.8119049    0.8119049    1.2095187    1.4245019    1.4245019
:EIG00021:       1.4245019    1.5315129
       ********************************************************

:KPT   :      NUMBER OF K-POINTS:   165
:GAP (global)   :    0.0    Ry =     0.0   eV (metal)
         Bandranges (emin - emax) and occupancy:
:BAN00001:   1   -2.114547   -2.104183  2.00000000
:BAN00002:   2   -0.821489   -0.753410  2.00000000
:BAN00003:   3   -0.797504   -0.753410  2.00000000
:BAN00004:   4   -0.778558   -0.753410  2.00000000
:BAN00005:   5    0.275331    0.500988  2.00000000
:BAN00006:   6    0.461630    0.525375  2.00000000
:BAN00007:   7    0.514141    0.534469  1.00000000
:BAN00008:   8    0.527400    0.537264  0.00000000
:BAN00009:   9    0.530793    0.540597  0.00000000
:BAN00010:  10    0.535735    0.552424  0.00000000
:BAN00011:  11    0.538717    0.552424  0.00000000
:BAN00012:  12    0.541090    0.558835  0.00000000
        Energy to separate low and high energystates:    0.22533


:NOE  : NUMBER OF ELECTRONS          =   13.000

:FER  : F E R M I - ENERGY(TETRAH.M.)=   0.5263667068
:GMA  : POTENTIAL AND CHARGE CUT-OFF  12.00 Ry**.5

:POS001: ATOM    1 X,Y,Z = 0.00000 0.00000 0.50000  MULT= 1  ZZ= 59.000  Pr        

       LMMAX  5
       LM=   0 0  4 0  4 4  6 0  6 4

:CHA001: TOTAL VALENCE CHARGE INSIDE SPHERE   1 =  10.0443    (RMT=  2.5000 )
:PCS001: PARTIAL CHARGES SPHERE =  1 S,P,D,F,      D-EG,D-T2G 
:QTL001: 2.0272 5.3592 0.5865 2.0712 0.0000 0.0000 0.0000 0.2084 0.3781 0.0000 0.0000 0.0000
        Q-s-low E-s-low   Q-p-low E-p-low   Q-d-low E-d-low   Q-f-low E-f-low
:EPL001:  1.9259 -2.1063    5.2945 -0.7821    0.0008 -0.7961    0.0002 -0.7982
        Q-s-hi  E-s-hi    Q-p-hi  E-p-hi    Q-d-hi  E-d-hi    Q-f-hi  E-f-hi 
:EPH001:  0.1013  0.4235    0.0647  0.4623    0.5857  0.4791    2.0710  0.5141

:CHA  : TOTAL VALENCE CHARGE INSIDE UNIT CELL =      13.000000

:SUM  : SUM OF EIGENVALUES =          -6.482588083


        1.ATOM      Pr                   14 CORE STATES
:1S 001: 1S               -3067.074739909 Ry
:2S 001: 2S                -492.830102392 Ry
:2PP001: 2P*               -465.929155309 Ry
:2P 001: 2P                -430.531737964 Ry
:3S 001: 3S                -105.918911775 Ry
:3PP001: 3P*                -94.456808641 Ry
:3P 001: 3P                 -87.448933636 Ry
:3DD001: 3D*                -67.376267806 Ry
:3D 001: 3D                 -65.864680902 Ry
:4S 001: 4S                 -20.596791728 Ry
:4PP001: 4P*                -16.303676565 Ry
:4P 001: 4P                 -14.776394374 Ry
:4DD001: 4D*                 -7.709649640 Ry
:4D 001: 4D                  -7.440292012 Ry
:CINT001 Core Integral Atom   1   45.999518

       DENSITY AT NUCLEUS
        JATOM        VALENCE       SEMI-CORE          CORE           TOTAL
:RTO001:   1      650.053322        0.000000   656824.131066   657474.184388
     
       CHARGES OF NEW CHARGE DENSITY
:NTO   : INTERSTITIAL CHARGE =     2.955691
:NPC   : PW Pseudocharge     =     7.600913
:NTO001: CHARGE SPHERE  1    =    56.043826

:NEC01: NUCLEAR AND ELECTRONIC CHARGE     59.00000    58.99952
     
       CHARGES OF OLD CHARGE DENSITY
:OTO   : INTERSTITIAL CHARGE =     2.940739
:OPC   : PW Pseudocharge     =     7.602158
:OTO001: CHARGE SPHERE  1    =    56.059261

:NEC02: NUCLEAR AND ELECTRONIC CHARGE     59.00000    59.00000
     
       CONVERGENCE TEST
:DTO001: DIFFERENCE IN SPHERE  1 =  0.0358937

:DIS  :  CHARGE DISTANCE       ( 0.0358937 for atom    1 spin 1)      0.0358937
 PW Mixed is           56
 
******************************************************
* MULTISECANT MIXING VER9 RELEASE 10.4.0              *
* Standard Mode with controls                        *
* Fixed density scale                                *
* Regularization       1.000E-04                     *
* Trust Upper Limit    5.000E+00                     *
* Max Number of Memory Steps    8                    *
******************************************************
 
:PWTMP   1.9360E+02  1.2500E+02  2.5905E+02
:PLANE:  PW TOTAL      2.9140 DISTAN   2.23E-02  7.67E-01 %
:CHARG:  CLM/ATOM    977.2044 DISTAN   1.98E-01  2.02E-02 %
 
Step History
        DMIX         DMIXT        Red     Pred      Trust     Lambda    MagRel    MagAbs     Beta
  1   3.5000E-02   3.5000E-02 -1.00E+00  1.00E+00 -1.00E+01  1.00E+00  3.50E-02  3.50E-02  1.00E+00
  2   2.5000E-02   2.5000E-02  8.13E-01  1.00E+00 -1.00E+01  1.00E+00  2.50E-02  1.92E-02  1.00E+00
  3   2.7991E-02   2.7991E-02  9.80E-01  1.00E+00 -1.00E+01  1.65E-01  2.80E-02  1.75E-02  1.00E+00
  4   2.4167E-02   2.4167E-02  9.69E-01  9.71E-01  1.88E-01  1.25E+00  2.71E-02  1.66E-02  9.32E-01
  5   6.0418E-02   3.3549E-02  8.19E-01  9.14E-01  1.76E-01  9.37E-01  1.76E-01  1.05E-01  1.00E+00
  6   1.5104E-01   1.2602E-01 -1.00E+00  4.14E-01  5.77E-01  1.00E+00  5.77E-01  2.80E-01  1.00E+00
:JACOBIANS    9.626E-01   7.853E-01
  
:NORMS:  1/Froebius, Min, Max, Used   0.9518E+00  0.4004E+00  0.9996E+00  0.9682E+00
:INFO :  Number of Memory Steps    5 Skipping    0
:INFO :  SLambda=    1.0362416919  Max    1.0362416919
:PREDicted Charge, CTotal, PW Trust    2.610E-03   2.610E-03   6.398E-03
:PREDicted DMix, Beta, BLim   3.5856E-03  1.4971E+00  9.7258E-01

Eigenvalues, unscaled except for SY+YY
   #     SY Real        SY Imag          SS             YY         SY+YY Real      SY+YY Imag
   1   4.168494E+00   0.000000E+00   4.113224E+00   4.388114E+00   8.705540E+00   0.000000E+00
   2   4.282479E-01   0.000000E+00   4.165390E-01   5.486968E-01   9.859489E-01   0.000000E+00
   3   4.674309E-03   0.000000E+00   2.954738E-04   6.318010E-02   7.668095E-02   0.000000E+00
   4   1.253790E-15   0.000000E+00   8.463308E-07   9.361698E-06   1.835408E-07   0.000000E+00
   5   2.426062E-06   0.000000E+00  -1.414315E-17   2.315238E-07   1.184288E-05   0.000000E+00
 
:INFO :  Singular value  8.706E+00 Weight  1.000E+00 Projection -9.346E-02
:INFO :  Singular value  9.859E-01 Weight  1.000E+00 Projection -4.401E-02
:INFO :  Singular value  7.668E-02 Weight  1.000E+00 Projection  2.347E-02
:INFO :  Singular value  1.188E-05 Weight  7.327E-04 Projection  4.197E-03
:INFO :  Singular value  1.829E-07 Weight  1.738E-07 Projection  6.677E-06
:RANK :  ACTIVE   3.00/5  =  60.01 % ; YY RANK   3.00/5  =  60.01 %
 
:BLIM :  VZERO Control Off
:TRUST:  Step 7.69E-01  Charge 7.50E-02 (e) CTO  2.50E-01 (e) PW  3.50E-01 (e)
:DTRUS:  Lambda    1.103E-01 Increment    7.276E-12 Iterations    98 DMIX    5.793E-02
:INFOA:  Angle SubSpace to MSR1      0.18
:DIRM :  MEMORY  5/8  SCALE   1.000 RED  0.41 PRED  0.41 NEXT  0.24 
:INFO :  Limited by Atoms F by Step T

:TRAVE:  Charge 1.57E-03 (e) CTO  1.57E-03 (e) PW  2.96E-03 (e)
:DIRP :  |MSR1|= 1.642E-02 |PRATT|= 2.235E-02 ANGLE=   7.5 DEGREES
:DIRQ :  |MSR1|= 1.522E-01 |PRATT|= 1.977E-01 ANGLE=   9.5 DEGREES
:DIRT :  |MSR1|= 1.530E-01 |PRATT|= 1.989E-01 ANGLE=   9.4 DEGREES
:MIX  :   MSE1   REGULARIZATION:  4.39E-04 GREED: 0.06042  LMStep 0.80  0.7694 Step           
     
       CHARGES OF MIXED CHARGE DENSITY
:CTO   : INTERSTITIAL CHARGE =     2.942314
:CPC   : PW Pseudocharge     =     7.598280
:CTO001: CHARGE SPHERE  1    =    56.057686

:NEC03: NUCLEAR AND ELECTRONIC CHARGE     59.00000    59.00000

PW CHANGE     H    K    L      Current       Change    Residue
:PTO001:      0    0    0  4.06889994E-02 -8.890E-06  5.957E-05
:PTO002:     -1   -1   -1 -1.29796663E-01  2.048E-04  2.774E-04
:PTO003:      0    0   -2  7.73932243E-02 -2.747E-04 -3.621E-04
:PTO004:      0   -2   -2  6.84139790E-02  1.139E-04  1.373E-04
:PTO005:     -1   -1   -3 -6.69114349E-02  9.605E-04  1.320E-03
:PTO006:     -2   -2   -2  1.72801553E-02 -3.536E-04 -5.025E-04
:PTO007:      0    0   -4  3.35756487E-03 -3.568E-04 -4.726E-04
:PTO008:     -1   -3   -3 -3.32936678E-03  5.678E-04  7.903E-04
:PTO009:      0   -2   -4  3.25007673E-04 -6.194E-04 -8.332E-04
:PTO010:     -2   -2   -4 -5.79960300E-03 -6.042E-04 -8.199E-04
:PTO011:     -3   -3   -3  2.50081774E-03  2.203E-04  2.995E-04
:PTO012:     -1   -1   -5  7.17246221E-03  5.675E-04  7.415E-04

:ENE  : ********** TOTAL ENERGY IN Ry =       -18472.06991199

 Flat Integration
 New Mode for Coulomb Integral
 Consistent 3/8+Simpson combinations
 Extension of core to zero
 LDM version in phi
 Fifth-order quadrature in outwin


            ---------
:ITE007:  7. ITERATION
            ---------

:NATO :    1 INDEPENDENT AND    1 TOTAL ATOMS IN UNITCELL
       SUBSTANCE: blebleble                                                   

       LATTICE                      = F   
:POT  : POTENTIAL OPTION EX_LDA EC_LDA VX_LDA VC_LDA
:LAT  : LATTICE CONSTANTS= 10.11927 10.11927 10.11927    1.571    1.571    1.571
:VOL  : UNIT CELL VOLUME =     259.05267
       MODE OF CALCULATION IS       = RELA
       NON-SPINPOLARIZED CALCULATION
:IFFT  : FFT-parameters:   80   80   80 Factor: 2.00


   CONVERGENCE PARAMETER FOR PSEUDOCHARGE: NCON=  9
   MAXIMAL VALUE OF RMT(JATOM)*ABSK(NKK) : RK  =29.93932


:VKCOUL :  VK-COUL convergence: 0.223E-06
       ATOMNUMBER=  1 Pr         VCOUL-ZERO =  0.18152E+00
:FIT001: LUSE= 13 SIGMA OF V-XC FIT FOR ATOM  1  0.4273199E-04
:FIT001: LUSE= 13 SIGMA OF V-XC FIT FOR ATOM  1  0.4273199E-04
:DEN  : DENSITY INTEGRAL  =         -7068.02729992   (Ry)
       ELS_POTENTIAL_AT Z=0 and Z=0.5:  -2.42712  -2.42712
       ELS_POTENTIAL_AT Y=0 and Y=0.5:   0.00000   0.00000
:VZERO:v0,v0c,v0x  -3.38152  -2.42712  -0.95440 v5,v5c,v5x  -3.38152  -2.42712  -0.95440
:VZERY:v0,v0c,v0x  -0.69073   0.00000  -0.69073 v5,v5c,v5x  -0.69073   0.00000  -0.69073
:VZERX:v0,v0c,v0x  -0.69073   0.00000  -0.69073 v5,v5c,v5x  -0.69073   0.00000  -0.69073
:LMAX-WF:   10   Non-Spherical LMAX:   4

          ATOMIC SPHERE DEPENDENT PARAMETERS FOR ATOM  Pr        
:e__0001: OVERALL ENERGY PARAMETER IS    0.3264
          OVERALL BASIS SET ON ATOM IS LAPW
:E0_0001: E( 0)=    0.3264
             APW+lo
:E0_0001: E( 0)=   -2.1576   E(BOTTOM)=   -2.538   E(TOP)=   -1.777  4  5   169
             LOCAL ORBITAL
:E1_0001: E( 1)=    0.7264
             APW+lo
:E1_0001: E( 1)=   -0.7693   E(BOTTOM)=   -1.415   E(TOP)=   -0.124  3  4   161
             LOCAL ORBITAL
:E3_0001: E( 3)=    0.5133   E(BOTTOM)=    0.372   E(TOP)=    0.655  0  1   117
             APW+lo
:E2_0001: E( 2)=    0.3264   E(BOTTOM)=    0.161   E(TOP)= -200.000  2 -1    96
             APW+lo

       K=   0.00000   0.00000   0.00000            1
:RKM  : MATRIX SIZE   189LOs:  20  RKM= 8.07  WEIGHT= 1.00  PGR:    
       EIGENVALUES ARE:
:EIG00001:      -2.1159043   -0.7545862   -0.7545862   -0.7545862    0.2755545
:EIG00006:       0.5148735    0.5296152    0.5296152    0.5296152    0.5512072
:EIG00011:       0.5512072    0.5512072    0.6533718    0.6533718    0.6533718
:EIG00016:       0.8114696    0.8114696    1.2095657    1.4246800    1.4246800
:EIG00021:       1.4246800    1.5311414
       ********************************************************

:KPT   :      NUMBER OF K-POINTS:   165
:GAP (global)   :    0.0    Ry =     0.0   eV (metal)
         Bandranges (emin - emax) and occupancy:
:BAN00001:   1   -2.115904   -2.105563  2.00000000
:BAN00002:   2   -0.822504   -0.754586  2.00000000
:BAN00003:   3   -0.798573   -0.754586  2.00000000
:BAN00004:   4   -0.779673   -0.754586  2.00000000
:BAN00005:   5    0.275554    0.500382  2.00000000
:BAN00006:   6    0.461653    0.524589  2.00000000
:BAN00007:   7    0.513247    0.533312  1.00000000
:BAN00008:   8    0.526370    0.536092  0.00000000
:BAN00009:   9    0.529615    0.539770  0.00000000
:BAN00010:  10    0.534580    0.551207  0.00000000
:BAN00011:  11    0.537554    0.551207  0.00000000
:BAN00012:  12    0.539889    0.558020  0.00000000
        Energy to separate low and high energystates:    0.22555


:NOE  : NUMBER OF ELECTRONS          =   13.000

:FER  : F E R M I - ENERGY(TETRAH.M.)=   0.5253510307
:GMA  : POTENTIAL AND CHARGE CUT-OFF  12.00 Ry**.5

:POS001: ATOM    1 X,Y,Z = 0.00000 0.00000 0.50000  MULT= 1  ZZ= 59.000  Pr        

       LMMAX  5
       LM=   0 0  4 0  4 4  6 0  6 4

:CHA001: TOTAL VALENCE CHARGE INSIDE SPHERE   1 =  10.0599    (RMT=  2.5000 )
:PCS001: PARTIAL CHARGES SPHERE =  1 S,P,D,F,      D-EG,D-T2G 
:QTL001: 2.0270 5.3593 0.5815 2.0919 0.0000 0.0000 0.0000 0.2069 0.3746 0.0000 0.0000 0.0000
        Q-s-low E-s-low   Q-p-low E-p-low   Q-d-low E-d-low   Q-f-low E-f-low
:EPL001:  1.9260 -2.1077    5.2956 -0.7832    0.0008 -0.7972    0.0002 -0.7993
        Q-s-hi  E-s-hi    Q-p-hi  E-p-hi    Q-d-hi  E-d-hi    Q-f-hi  E-f-hi 
:EPH001:  0.1010  0.4234    0.0637  0.4615    0.5807  0.4785    2.0916  0.5132

:CHA  : TOTAL VALENCE CHARGE INSIDE UNIT CELL =      13.000000

:SUM  : SUM OF EIGENVALUES =          -6.494243440


        1.ATOM      Pr                   14 CORE STATES
:1S 001: 1S               -3067.083547773 Ry
:2S 001: 2S                -492.835266645 Ry
:2PP001: 2P*               -465.934812111 Ry
:2P 001: 2P                -430.537180280 Ry
:3S 001: 3S                -105.921231681 Ry
:3PP001: 3P*                -94.459279787 Ry
:3P 001: 3P                 -87.451262271 Ry
:3DD001: 3D*                -67.378880887 Ry
:3D 001: 3D                 -65.867244964 Ry
:4S 001: 4S                 -20.597821180 Ry
:4PP001: 4P*                -16.304751248 Ry
:4P 001: 4P                 -14.777502483 Ry
:4DD001: 4D*                 -7.710825430 Ry
:4D 001: 4D                  -7.441478313 Ry
:CINT001 Core Integral Atom   1   45.999518

       DENSITY AT NUCLEUS
        JATOM        VALENCE       SEMI-CORE          CORE           TOTAL
:RTO001:   1      650.055124        0.000000   656824.986432   657475.041555
     
       CHARGES OF NEW CHARGE DENSITY
:NTO   : INTERSTITIAL CHARGE =     2.940103
:NPC   : PW Pseudocharge     =     7.598301
:NTO001: CHARGE SPHERE  1    =    56.059414

:NEC01: NUCLEAR AND ELECTRONIC CHARGE     59.00000    58.99952
     
       CHARGES OF OLD CHARGE DENSITY
:OTO   : INTERSTITIAL CHARGE =     2.942314
:OPC   : PW Pseudocharge     =     7.598280
:OTO001: CHARGE SPHERE  1    =    56.057686

:NEC02: NUCLEAR AND ELECTRONIC CHARGE     59.00000    59.00000
     
       CONVERGENCE TEST
:DTO001: DIFFERENCE IN SPHERE  1 =  0.0066429

:DIS  :  CHARGE DISTANCE       ( 0.0066429 for atom    1 spin 1)      0.0066429
 PW Mixed is           56
 
******************************************************
* MULTISECANT MIXING VER9 RELEASE 10.4.0              *
* Standard Mode with controls                        *
* Fixed density scale                                *
* Regularization       1.000E-04                     *
* Trust Upper Limit    5.000E+00                     *
* Max Number of Memory Steps    8                    *
******************************************************
 
:PWTMP   1.9360E+02  1.2500E+02  2.5905E+02
:PLANE:  PW TOTAL      2.9087 DISTAN   5.03E-03  1.73E-01 %
:CHARG:  CLM/ATOM    977.1857 DISTAN   4.70E-02  4.81E-03 %
 
Step History
        DMIX         DMIXT        Red     Pred      Trust     Lambda    MagRel    MagAbs     Beta
  1   3.5000E-02   3.5000E-02 -1.00E+00  1.00E+00 -1.00E+01  1.00E+00  3.50E-02  3.50E-02  1.00E+00
  2   2.5000E-02   2.5000E-02  8.13E-01  1.00E+00 -1.00E+01  1.00E+00  2.50E-02  1.92E-02  1.00E+00
  3   2.7991E-02   2.7991E-02  9.80E-01  1.00E+00 -1.00E+01  1.65E-01  2.80E-02  1.75E-02  1.00E+00
  4   2.4167E-02   2.4167E-02  9.69E-01  9.71E-01  1.88E-01  1.25E+00  2.71E-02  1.66E-02  9.32E-01
  5   6.0418E-02   3.3549E-02  8.19E-01  9.14E-01  1.76E-01  9.37E-01  1.76E-01  1.05E-01  1.00E+00
  6   1.5104E-01   1.2602E-01  4.10E-01  4.14E-01  5.77E-01  1.04E+00  5.77E-01  2.80E-01  1.00E+00
  7   6.0418E-02   5.7927E-02 -1.00E+00  2.43E-01  7.69E-01  1.00E+00  7.69E-01  1.53E-01  1.00E+00
:JACOBIANS    9.846E-01   9.130E-01
  
:NORMS:  1/Froebius, Min, Max, Used   0.9614E+00  0.4619E+00  0.9997E+00  0.9688E+00
:INFO :  Number of Memory Steps    6 Skipping    0
:INFO :  SLambda=    1.0057142977  Max    1.0057142977
:PREDicted Charge, CTotal, PW Trust    1.859E-03   1.859E-03   1.151E-03
:PREDicted DMix, Beta, BLim   4.7393E-02  1.2560E+00  9.6703E-01

Eigenvalues, unscaled except for SY+YY
   #     SY Real        SY Imag          SS             YY         SY+YY Real      SY+YY Imag
   1   5.323743E+00   0.000000E+00   5.250722E+00   5.594514E+00   1.094762E+01   0.000000E+00
   2   3.016119E-01   0.000000E+00   2.944735E-01   3.755200E-01   6.764041E-01   0.000000E+00
   3   2.144225E-03   0.000000E+00   1.370230E-04   2.986213E-02   3.552574E-02   0.000000E+00
   4   5.992908E-05   0.000000E+00   3.913609E-05   9.941007E-05   1.588243E-04   0.000000E+00
   5   3.205284E-16   0.000000E+00   1.183459E-07   4.738899E-06   3.651908E-08   0.000000E+00
   6   7.767161E-07   0.000000E+00  -4.224550E-17   3.719424E-08   5.596707E-06   0.000000E+00
 
:INFO :  Singular value  1.095E+01 Weight  1.000E+00 Projection  1.699E-02
:INFO :  Singular value  6.764E-01 Weight  1.000E+00 Projection  8.057E-03
:INFO :  Singular value  3.553E-02 Weight  9.998E-01 Projection -8.859E-03
:INFO :  Singular value  1.589E-04 Weight  7.465E-02 Projection  1.870E-01
:INFO :  Singular value  5.609E-06 Weight  1.005E-04 Projection -4.926E-04
:INFO :  Singular value  3.642E-08 Weight  4.239E-09 Projection  2.525E-08
:RANK :  ACTIVE   3.07/6  =  51.24 % ; YY RANK   3.03/6  =  50.51 %
 
:BLIM :  VZERO Control Off
:TRUST:  Step 1.03E+00  Charge 7.50E-02 (e) CTO  2.50E-01 (e) PW  3.50E-01 (e)
:DIRM :  MEMORY  6/8  SCALE   1.000 RED  0.24 PRED  0.24 NEXT  0.51 
:TRAVE:  Charge 8.41E-04 (e) CTO  8.41E-04 (e) PW  1.56E-03 (e)
:DIRP :  |MSR1|= 4.065E-03 |PRATT|= 5.033E-03 ANGLE=  11.1 DEGREES
:DIRQ :  |MSR1|= 3.925E-02 |PRATT|= 4.702E-02 ANGLE=  27.1 DEGREES
:DIRT :  |MSR1|= 3.946E-02 |PRATT|= 4.729E-02 ANGLE=  27.0 DEGREES
:MIX  :   MSE1   REGULARIZATION:  5.59E-04 GREED: 0.06312  Newton 1.00  0.8344                
     
       CHARGES OF MIXED CHARGE DENSITY
:CTO   : INTERSTITIAL CHARGE =     2.942202
:CPC   : PW Pseudocharge     =     7.598075
:CTO001: CHARGE SPHERE  1    =    56.057798

:NEC03: NUCLEAR AND ELECTRONIC CHARGE     59.00000    59.00000

PW CHANGE     H    K    L      Current       Change    Residue
:PTO001:      0    0    0  4.06877766E-02 -1.223E-06 -1.773E-06
:PTO002:     -1   -1   -1 -1.29761222E-01  3.544E-05  3.193E-05
:PTO003:      0    0   -2  7.73381699E-02 -5.505E-05 -2.547E-05
:PTO004:      0   -2   -2  6.84606193E-02  4.664E-05  6.415E-05
:PTO005:     -1   -1   -3 -6.66809486E-02  2.305E-04  2.864E-04
:PTO006:     -2   -2   -2  1.71900406E-02 -9.011E-05 -1.407E-04
:PTO007:      0    0   -4  3.26845084E-03 -8.911E-05 -9.593E-05
:PTO008:     -1   -3   -3 -3.18311544E-03  1.463E-04  2.179E-04
:PTO009:      0   -2   -4  1.69307848E-04 -1.557E-04 -1.882E-04
:PTO010:     -2   -2   -4 -5.95714041E-03 -1.575E-04 -2.079E-04
:PTO011:     -3   -3   -3  2.55931936E-03  5.850E-05  7.973E-05
:PTO012:     -1   -1   -5  7.31632514E-03  1.439E-04  1.453E-04

:ENE  : ********** TOTAL ENERGY IN Ry =       -18472.06990928

 Flat Integration
 New Mode for Coulomb Integral
 Consistent 3/8+Simpson combinations
 Extension of core to zero
 LDM version in phi
 Fifth-order quadrature in outwin


            ---------
:ITE008:  8. ITERATION
            ---------

:NATO :    1 INDEPENDENT AND    1 TOTAL ATOMS IN UNITCELL
       SUBSTANCE: blebleble                                                   

       LATTICE                      = F   
:POT  : POTENTIAL OPTION EX_LDA EC_LDA VX_LDA VC_LDA
:LAT  : LATTICE CONSTANTS= 10.11927 10.11927 10.11927    1.571    1.571    1.571
:VOL  : UNIT CELL VOLUME =     259.05267
       MODE OF CALCULATION IS       = RELA
       NON-SPINPOLARIZED CALCULATION
:IFFT  : FFT-parameters:   80   80   80 Factor: 2.00


   CONVERGENCE PARAMETER FOR PSEUDOCHARGE: NCON=  9
   MAXIMAL VALUE OF RMT(JATOM)*ABSK(NKK) : RK  =29.93932


:VKCOUL :  VK-COUL convergence: 0.238E-06
       ATOMNUMBER=  1 Pr         VCOUL-ZERO =  0.18143E+00
:FIT001: LUSE= 13 SIGMA OF V-XC FIT FOR ATOM  1  0.4877044E-04
:FIT001: LUSE= 13 SIGMA OF V-XC FIT FOR ATOM  1  0.4877044E-04
:DEN  : DENSITY INTEGRAL  =         -7068.01202115   (Ry)
       ELS_POTENTIAL_AT Z=0 and Z=0.5:  -2.42835  -2.42835
       ELS_POTENTIAL_AT Y=0 and Y=0.5:   0.00000   0.00000
:VZERO:v0,v0c,v0x  -3.38204  -2.42835  -0.95369 v5,v5c,v5x  -3.38204  -2.42835  -0.95369
:VZERY:v0,v0c,v0x  -0.69075   0.00000  -0.69075 v5,v5c,v5x  -0.69075   0.00000  -0.69075
:VZERX:v0,v0c,v0x  -0.69075   0.00000  -0.69075 v5,v5c,v5x  -0.69075   0.00000  -0.69075
:LMAX-WF:   10   Non-Spherical LMAX:   4

          ATOMIC SPHERE DEPENDENT PARAMETERS FOR ATOM  Pr        
:e__0001: OVERALL ENERGY PARAMETER IS    0.3257
          OVERALL BASIS SET ON ATOM IS LAPW
:E0_0001: E( 0)=    0.3257
             APW+lo
:E0_0001: E( 0)=   -2.1578   E(BOTTOM)=   -2.538   E(TOP)=   -1.777  4  5   164
             LOCAL ORBITAL
:E1_0001: E( 1)=    0.7257
             APW+lo
:E1_0001: E( 1)=   -0.7694   E(BOTTOM)=   -1.415   E(TOP)=   -0.124  3  4   166
             LOCAL ORBITAL
:E3_0001: E( 3)=    0.5133   E(BOTTOM)=    0.372   E(TOP)=    0.655  0  1   115
             APW+lo
:E2_0001: E( 2)=    0.3257   E(BOTTOM)=    0.161   E(TOP)= -200.000  2 -1    92
             APW+lo

       K=   0.00000   0.00000   0.00000            1
:RKM  : MATRIX SIZE   189LOs:  20  RKM= 8.07  WEIGHT= 1.00  PGR:    
       EIGENVALUES ARE:
:EIG00001:      -2.1160311   -0.7547037   -0.7547037   -0.7547037    0.2756208
:EIG00006:       0.5148847    0.5296126    0.5296126    0.5296126    0.5511760
:EIG00011:       0.5511760    0.5511760    0.6534169    0.6534169    0.6534169
:EIG00016:       0.8114571    0.8114571    1.2095815    1.4247421    1.4247421
:EIG00021:       1.4247421    1.5310151
       ********************************************************

:KPT   :      NUMBER OF K-POINTS:   165
:GAP (global)   :    0.0    Ry =     0.0   eV (metal)
         Bandranges (emin - emax) and occupancy:
:BAN00001:   1   -2.116031   -2.105693  2.00000000
:BAN00002:   2   -0.822599   -0.754704  2.00000000
:BAN00003:   3   -0.798675   -0.754704  2.00000000
:BAN00004:   4   -0.779781   -0.754704  2.00000000
:BAN00005:   5    0.275621    0.500385  2.00000000
:BAN00006:   6    0.461693    0.524577  2.00000000
:BAN00007:   7    0.513248    0.533287  1.00000000
:BAN00008:   8    0.526357    0.536082  0.00000000
:BAN00009:   9    0.529613    0.539783  0.00000000
:BAN00010:  10    0.534576    0.551176  0.00000000
:BAN00011:  11    0.537537    0.551176  0.00000000
:BAN00012:  12    0.539878    0.558018  0.00000000
        Energy to separate low and high energystates:    0.22562


:NOE  : NUMBER OF ELECTRONS          =   13.000

:FER  : F E R M I - ENERGY(TETRAH.M.)=   0.5253428029
:GMA  : POTENTIAL AND CHARGE CUT-OFF  12.00 Ry**.5

:POS001: ATOM    1 X,Y,Z = 0.00000 0.00000 0.50000  MULT= 1  ZZ= 59.000  Pr        

       LMMAX  5
       LM=   0 0  4 0  4 4  6 0  6 4

:CHA001: TOTAL VALENCE CHARGE INSIDE SPHERE   1 =  10.0605    (RMT=  2.5000 )
:PCS001: PARTIAL CHARGES SPHERE =  1 S,P,D,F,      D-EG,D-T2G 
:QTL001: 2.0270 5.3594 0.5814 2.0925 0.0000 0.0000 0.0000 0.2069 0.3745 0.0000 0.0000 0.0000
        Q-s-low E-s-low   Q-p-low E-p-low   Q-d-low E-d-low   Q-f-low E-f-low
:EPL001:  1.9260 -2.1078    5.2957 -0.7833    0.0008 -0.7973    0.0002 -0.7994
        Q-s-hi  E-s-hi    Q-p-hi  E-p-hi    Q-d-hi  E-d-hi    Q-f-hi  E-f-hi 
:EPH001:  0.1010  0.4234    0.0637  0.4615    0.5806  0.4785    2.0923  0.5132

:CHA  : TOTAL VALENCE CHARGE INSIDE UNIT CELL =      13.000000

:SUM  : SUM OF EIGENVALUES =          -6.495052896


        1.ATOM      Pr                   14 CORE STATES
:1S 001: 1S               -3067.085178451 Ry
:2S 001: 2S                -492.836093526 Ry
:2PP001: 2P*               -465.935740642 Ry
:2P 001: 2P                -430.538063229 Ry
:3S 001: 3S                -105.921471150 Ry
:3PP001: 3P*                -94.459551070 Ry
:3P 001: 3P                 -87.451502489 Ry
:3DD001: 3D*                -67.379180231 Ry
:3D 001: 3D                 -65.867533974 Ry
:4S 001: 4S                 -20.597751662 Ry
:4PP001: 4P*                -16.304692593 Ry
:4P 001: 4P                 -14.777452038 Ry
:4DD001: 4D*                 -7.710794860 Ry
:4D 001: 4D                  -7.441450752 Ry
:CINT001 Core Integral Atom   1   45.999518

       DENSITY AT NUCLEUS
        JATOM        VALENCE       SEMI-CORE          CORE           TOTAL
:RTO001:   1      650.047909        0.000000   656825.174806   657475.222715
     
       CHARGES OF NEW CHARGE DENSITY
:NTO   : INTERSTITIAL CHARGE =     2.939465
:NPC   : PW Pseudocharge     =     7.598639
:NTO001: CHARGE SPHERE  1    =    56.060053

:NEC01: NUCLEAR AND ELECTRONIC CHARGE     59.00000    58.99952
     
       CHARGES OF OLD CHARGE DENSITY
:OTO   : INTERSTITIAL CHARGE =     2.942202
:OPC   : PW Pseudocharge     =     7.598075
:OTO001: CHARGE SPHERE  1    =    56.057798

:NEC02: NUCLEAR AND ELECTRONIC CHARGE     59.00000    59.00000
     
       CONVERGENCE TEST
:DTO001: DIFFERENCE IN SPHERE  1 =  0.0080746

:DIS  :  CHARGE DISTANCE       ( 0.0080746 for atom    1 spin 1)      0.0080746
 PW Mixed is           56
 
******************************************************
* MULTISECANT MIXING VER9 RELEASE 10.4.0              *
* Standard Mode with controls                        *
* Fixed density scale                                *
* Regularization       1.000E-04                     *
* Trust Upper Limit    5.000E+00                     *
* Max Number of Memory Steps    8                    *
******************************************************
 
:PWTMP   1.9360E+02  1.2500E+02  2.5905E+02
:PLANE:  PW TOTAL      2.9077 DISTAN   1.37E-03  4.71E-02 %
:CHARG:  CLM/ATOM    977.1813 DISTAN   2.16E-02  2.21E-03 %
 
Step History
        DMIX         DMIXT        Red     Pred      Trust     Lambda    MagRel    MagAbs     Beta
  1   3.5000E-02   3.5000E-02 -1.00E+00  1.00E+00 -1.00E+01  1.00E+00  3.50E-02  3.50E-02  1.00E+00
  2   2.5000E-02   2.5000E-02  8.13E-01  1.00E+00 -1.00E+01  1.00E+00  2.50E-02  1.92E-02  1.00E+00
  3   2.7991E-02   2.7991E-02  9.80E-01  1.00E+00 -1.00E+01  1.65E-01  2.80E-02  1.75E-02  1.00E+00
  4   2.4167E-02   2.4167E-02  9.69E-01  9.71E-01  1.88E-01  1.25E+00  2.71E-02  1.66E-02  9.32E-01
  5   6.0418E-02   3.3549E-02  8.19E-01  9.14E-01  1.76E-01  9.37E-01  1.76E-01  1.05E-01  1.00E+00
  6   1.5104E-01   1.2602E-01  4.10E-01  4.14E-01  5.77E-01  1.04E+00  5.77E-01  2.80E-01  1.00E+00
  7   6.0418E-02   5.7927E-02  2.38E-01  2.43E-01  7.69E-01  1.01E+00  7.69E-01  1.53E-01  1.00E+00
  8   6.3119E-02   6.3119E-02 -1.00E+00  5.09E-01  1.03E+00  1.00E+00  8.34E-01  3.95E-02  1.00E+00
:JACOBIANS    9.964E-01   1.262E+00
  
:NORMS:  1/Froebius, Min, Max, Used   0.9653E+00  0.4193E+00  0.9997E+00  0.9733E+00
:INFO :  Number of Memory Steps    7 Skipping    0
:INFO :  SLambda=    1.0722059874  Max    1.0722059874
:PREDicted Charge, CTotal, PW Trust    1.807E-03   1.807E-03   5.786E-04
:PREDicted DMix, Beta, BLim   5.3789E-01  1.0340E+00  8.9601E-01

Eigenvalues, unscaled except for SY+YY
   #     SY Real        SY Imag          SS             YY         SY+YY Real      SY+YY Imag
   1   6.342283E+00   0.000000E+00   6.243583E+00   6.591418E+00   1.339096E+01   0.000000E+00
   2   2.833761E-01   0.000000E+00   2.763123E-01   3.677247E-01   6.676211E-01   0.000000E+00
   3   5.234476E-03   0.000000E+00   3.292678E-03   3.480170E-02   4.336610E-02   0.000000E+00
   4   1.824219E-03   0.000000E+00   1.055274E-04   6.043178E-03   9.682268E-03   0.000000E+00
   5   1.172334E-06   0.000000E+00   1.362079E-07   1.218566E-05   1.328946E-05   0.000000E+00
   6  -3.884808E-15   0.000000E+00   3.655969E-09   3.365402E-08   3.207827E-08   0.000000E+00
   7  -9.658080E-10   0.000000E+00   3.026143E-16   1.311258E-08   1.353545E-08   0.000000E+00
 
:INFO :  Singular value  1.339E+01 Weight  1.000E+00 Projection  1.622E-04
:INFO :  Singular value  6.676E-01 Weight  1.000E+00 Projection -3.318E-04
:INFO :  Singular value  4.339E-02 Weight  9.998E-01 Projection -3.134E-02
:INFO :  Singular value  9.678E-03 Weight  9.954E-01 Projection -2.717E-01
:INFO :  Singular value  1.331E-05 Weight  4.073E-04 Projection  1.882E-04
:INFO :  Singular value  3.224E-08 Weight  2.392E-09 Projection -1.606E-08
:INFO :  Singular value  1.345E-08 Weight  4.165E-10 Projection  3.550E-09
:RANK :  ACTIVE   4.00/7  =  57.08 % ; YY RANK   3.99/7  =  56.97 %
 
:BLIM :  VZERO Control Off
:TRUST:  Step 1.37E+00  Charge 6.00E-02 (e) CTO  2.00E-01 (e) PW  2.80E-01 (e)
:DIRM :  MEMORY  7/8  SCALE   1.000 RED  0.46 PRED  0.51 NEXT  0.17 
:TRAVE:  Charge 1.29E-03 (e) CTO  1.29E-03 (e) PW  9.97E-04 (e)
:DIRP :  |MSR1|= 8.539E-04 |PRATT|= 1.371E-03 ANGLE=   8.9 DEGREES
:DIRQ :  |MSR1|= 1.279E-02 |PRATT|= 2.161E-02 ANGLE=   2.6 DEGREES
:DIRT :  |MSR1|= 1.282E-02 |PRATT|= 2.165E-02 ANGLE=   2.7 DEGREES
:MIX  :   MSE1   REGULARIZATION:  6.59E-04 GREED: 0.15780  Newton 1.00  0.5919                
     
       CHARGES OF MIXED CHARGE DENSITY
:CTO   : INTERSTITIAL CHARGE =     2.940461
:CPC   : PW Pseudocharge     =     7.598910
:CTO001: CHARGE SPHERE  1    =    56.059539

:NEC03: NUCLEAR AND ELECTRONIC CHARGE     59.00000    59.00000

PW CHANGE     H    K    L      Current       Change    Residue
:PTO001:      0    0    0  4.06842791E-02 -3.498E-06 -1.708E-06
:PTO002:     -1   -1   -1 -1.29764704E-01 -3.481E-06 -1.218E-05
:PTO003:      0    0   -2  7.73607542E-02  2.258E-05  4.014E-05
:PTO004:      0   -2   -2  6.84749031E-02  1.428E-05  2.865E-05
:PTO005:     -1   -1   -3 -6.66478706E-02  3.308E-05  4.605E-05
:PTO006:     -2   -2   -2  1.71584522E-02 -3.159E-05 -4.937E-05
:PTO007:      0    0   -4  3.26440015E-03 -4.051E-06 -5.419E-06
[...]
 Extension of core to zero
 LDM version in phi
 Fifth-order quadrature in outwin


            ---------
:ITE013: 13. ITERATION
            ---------

:NATO :    1 INDEPENDENT AND    1 TOTAL ATOMS IN UNITCELL
       SUBSTANCE: blebleble                                                   

       LATTICE                      = F   
:POT  : POTENTIAL OPTION EX_LDA EC_LDA VX_LDA VC_LDA
:LAT  : LATTICE CONSTANTS= 10.11927 10.11927 10.11927    1.571    1.571    1.571
:VOL  : UNIT CELL VOLUME =     259.05267
       MODE OF CALCULATION IS       = RELA
       NON-SPINPOLARIZED CALCULATION
:IFFT  : FFT-parameters:   80   80   80 Factor: 2.00


   CONVERGENCE PARAMETER FOR PSEUDOCHARGE: NCON=  9
   MAXIMAL VALUE OF RMT(JATOM)*ABSK(NKK) : RK  =29.93932


:VKCOUL :  VK-COUL convergence: 0.238E-06
       ATOMNUMBER=  1 Pr         VCOUL-ZERO =  0.18144E+00
:FIT001: LUSE= 13 SIGMA OF V-XC FIT FOR ATOM  1  0.4941528E-04
:FIT001: LUSE= 13 SIGMA OF V-XC FIT FOR ATOM  1  0.4941528E-04
:DEN  : DENSITY INTEGRAL  =         -7068.01013165   (Ry)
       ELS_POTENTIAL_AT Z=0 and Z=0.5:  -2.42742  -2.42742
       ELS_POTENTIAL_AT Y=0 and Y=0.5:   0.00000   0.00000
:VZERO:v0,v0c,v0x  -3.38131  -2.42742  -0.95389 v5,v5c,v5x  -3.38131  -2.42742  -0.95389
:VZERY:v0,v0c,v0x  -0.69068   0.00000  -0.69068 v5,v5c,v5x  -0.69068   0.00000  -0.69068
:VZERX:v0,v0c,v0x  -0.69068   0.00000  -0.69068 v5,v5c,v5x  -0.69068   0.00000  -0.69068
:LMAX-WF:   10   Non-Spherical LMAX:   4

          ATOMIC SPHERE DEPENDENT PARAMETERS FOR ATOM  Pr        
:e__0001: OVERALL ENERGY PARAMETER IS    0.3254
          OVERALL BASIS SET ON ATOM IS LAPW
:E0_0001: E( 0)=    0.3254
             APW+lo
:E0_0001: E( 0)=   -2.1574   E(BOTTOM)=   -2.538   E(TOP)=   -1.777  4  5   162
             LOCAL ORBITAL
:E1_0001: E( 1)=    0.7254
             APW+lo
:E1_0001: E( 1)=   -0.7690   E(BOTTOM)=   -1.415   E(TOP)=   -0.123  3  4   164
             LOCAL ORBITAL
:E3_0001: E( 3)=    0.5133   E(BOTTOM)=    0.372   E(TOP)=    0.655  0  1   113
             APW+lo
:E2_0001: E( 2)=    0.3254   E(BOTTOM)=    0.161   E(TOP)= -200.000  2 -1    91
             APW+lo

       K=   0.00000   0.00000   0.00000            1
:RKM  : MATRIX SIZE   189LOs:  20  RKM= 8.07  WEIGHT= 1.00  PGR:    
       EIGENVALUES ARE:
:EIG00001:      -2.1156274   -0.7543366   -0.7543366   -0.7543366    0.2755959
:EIG00006:       0.5146764    0.5297571    0.5297571    0.5297571    0.5511550
:EIG00011:       0.5511550    0.5511550    0.6535321    0.6535321    0.6535321
:EIG00016:       0.8117112    0.8117112    1.2093476    1.4247161    1.4247161
:EIG00021:       1.4247161    1.5308573
       ********************************************************

:KPT   :      NUMBER OF K-POINTS:   165
:GAP (global)   :    0.0    Ry =     0.0   eV (metal)
         Bandranges (emin - emax) and occupancy:
:BAN00001:   1   -2.115627   -2.105284  2.00000000
:BAN00002:   2   -0.822268   -0.754337  2.00000000
:BAN00003:   3   -0.798331   -0.754337  2.00000000
:BAN00004:   4   -0.779427   -0.754337  2.00000000
:BAN00005:   5    0.275596    0.500493  2.00000000
:BAN00006:   6    0.461721    0.524599  2.00000000
:BAN00007:   7    0.513373    0.533275  0.99998531
:BAN00008:   8    0.526396    0.536179  0.00000000
:BAN00009:   9    0.529757    0.539603  0.00000000
:BAN00010:  10    0.534707    0.551155  0.00000000
:BAN00011:  11    0.537668    0.551155  0.00000000
:BAN00012:  12    0.539978    0.558114  0.00000000
        Energy to separate low and high energystates:    0.22560


:NOE  : NUMBER OF ELECTRONS          =   13.000

:FER  : F E R M I - ENERGY(TETRAH.M.)=   0.5253815509
:GMA  : POTENTIAL AND CHARGE CUT-OFF  12.00 Ry**.5

:POS001: ATOM    1 X,Y,Z = 0.00000 0.00000 0.50000  MULT= 1  ZZ= 59.000  Pr        

       LMMAX  5
       LM=   0 0  4 0  4 4  6 0  6 4

:CHA001: TOTAL VALENCE CHARGE INSIDE SPHERE   1 =  10.0604    (RMT=  2.5000 )
:PCS001: PARTIAL CHARGES SPHERE =  1 S,P,D,F,      D-EG,D-T2G 
:QTL001: 2.0270 5.3592 0.5809 2.0931 0.0000 0.0000 0.0000 0.2068 0.3741 0.0000 0.0000 0.0000
        Q-s-low E-s-low   Q-p-low E-p-low   Q-d-low E-d-low   Q-f-low E-f-low
:EPL001:  1.9260 -2.1074    5.2955 -0.7829    0.0008 -0.7970    0.0002 -0.7990
        Q-s-hi  E-s-hi    Q-p-hi  E-p-hi    Q-d-hi  E-d-hi    Q-f-hi  E-f-hi 
:EPH001:  0.1010  0.4234    0.0637  0.4615    0.5801  0.4786    2.0929  0.5133

:CHA  : TOTAL VALENCE CHARGE INSIDE UNIT CELL =      12.999985

:SUM  : SUM OF EIGENVALUES =          -6.491977858


        1.ATOM      Pr                   14 CORE STATES
:1S 001: 1S               -3067.083513204 Ry
:2S 001: 2S                -492.835509861 Ry
:2PP001: 2P*               -465.934949965 Ry
:2P 001: 2P                -430.537351550 Ry
:3S 001: 3S                -105.922089345 Ry
:3PP001: 3P*                -94.460111739 Ry
:3P 001: 3P                 -87.452104753 Ry
:3DD001: 3D*                -67.379668203 Ry
:3D 001: 3D                 -65.868039951 Ry
:4S 001: 4S                 -20.598120076 Ry
:4PP001: 4P*                -16.305017602 Ry
:4P 001: 4P                 -14.777719554 Ry
:4DD001: 4D*                 -7.710973305 Ry
:4D 001: 4D                  -7.441611873 Ry
:CINT001 Core Integral Atom   1   45.999518

       DENSITY AT NUCLEUS
        JATOM        VALENCE       SEMI-CORE          CORE           TOTAL
:RTO001:   1      650.035237        0.000000   656825.016344   657475.051580
     
       CHARGES OF NEW CHARGE DENSITY
:NTO   : INTERSTITIAL CHARGE =     2.939564
:NPC   : PW Pseudocharge     =     7.598102
:NTO001: CHARGE SPHERE  1    =    56.059939

:NEC01: NUCLEAR AND ELECTRONIC CHARGE     59.00000    58.99950
     
       CHARGES OF OLD CHARGE DENSITY
:OTO   : INTERSTITIAL CHARGE =     2.940058
:OPC   : PW Pseudocharge     =     7.599369
:OTO001: CHARGE SPHERE  1    =    56.059942

:NEC02: NUCLEAR AND ELECTRONIC CHARGE     59.00000    59.00000
     
       CONVERGENCE TEST
:DTO001: DIFFERENCE IN SPHERE  1 =  0.0000220

:DIS  :  CHARGE DISTANCE       ( 0.0000220 for atom    1 spin 1)      0.0000220
 PW Mixed is           56
 
******************************************************
* MULTISECANT MIXING VER9 RELEASE 10.4.0              *
* Standard Mode with controls                        *
* Fixed density scale                                *
* Regularization       1.000E-04                     *
* Trust Upper Limit    5.000E+00                     *
* Max Number of Memory Steps    8                    *
******************************************************
 
:PWTMP   1.9360E+02  1.2500E+02  2.5905E+02
:PLANE:  PW TOTAL      2.9078 DISTAN   1.93E-05  6.64E-04 %
:CHARG:  CLM/ATOM    977.1851 DISTAN   3.27E-05  3.35E-06 %
 
Step History
        DMIX         DMIXT        Red     Pred      Trust     Lambda    MagRel    MagAbs     Beta
  5   6.0418E-02   3.3549E-02  8.19E-01  9.14E-01  1.76E-01  9.37E-01  1.76E-01  1.05E-01  1.00E+00
  6   1.5104E-01   1.2602E-01  4.10E-01  4.14E-01  5.77E-01  1.04E+00  5.77E-01  2.80E-01  1.00E+00
  7   6.0418E-02   5.7927E-02  2.38E-01  2.43E-01  7.69E-01  1.01E+00  7.69E-01  1.53E-01  1.00E+00
  8   6.3119E-02   6.3119E-02  4.58E-01  5.09E-01  1.03E+00  1.07E+00  8.34E-01  3.95E-02  1.00E+00
  9   1.5780E-01   1.5780E-01  1.64E-01  1.65E-01  1.37E+00  9.13E-01  5.92E-01  1.28E-02  1.00E+00
 10   6.3119E-02   6.3119E-02  7.35E-01  7.66E-01  2.91E+00  1.37E+00  9.33E-02  3.32E-04  9.93E-01
 11   1.5780E-01   1.5780E-01  3.43E-01  5.85E-01  3.88E+00  1.25E+00  7.10E-01  1.85E-03  1.00E+00
 12   2.4777E-01   2.4777E-01  3.27E-01  1.93E-01  5.17E+00  1.41E+00  4.89E-01  4.39E-04  1.00E+00
 13   2.9404E-01   2.9404E-01 -1.00E+00  2.12E-01  6.89E+00  1.00E+00  3.66E-01  1.07E-04  9.92E-01
:JACOBIANS    4.138E-01   2.815E+00
  
:NORMS:  1/Froebius, Min, Max, Used   0.7651E+00  0.6325E+00  0.1008E+01  0.9250E+00
:INFO :  Number of Memory Steps    8 Skipping    4
:INFO :  SLambda=    0.8403957317  Max    0.8403957317
:PREDicted Charge, CTotal, PW Trust    7.984E-06   7.984E-06   6.103E-05
:PREDicted DMix, Beta, BLim   3.8143E-01  1.2223E+00  9.5790E-01

Eigenvalues, unscaled except for SY+YY
   #     SY Real        SY Imag          SS             YY         SY+YY Real      SY+YY Imag
   1   2.774162E+00   0.000000E+00   2.681014E+00   3.133278E+00   5.289581E+00   0.000000E+00
   2   1.815531E+00   0.000000E+00   1.458701E+00   2.856734E+00   4.416768E+00   0.000000E+00
   3   6.512003E-01   0.000000E+00   3.925849E-01   1.084873E+00   1.646966E+00   0.000000E+00
   4   2.385737E-01   0.000000E+00   1.483154E-01   8.553738E-01   1.152818E+00   0.000000E+00
   5   1.849883E-02   0.000000E+00   1.880519E-03   6.960480E-02   1.141988E-01   0.000000E+00
   6   9.410884E-05   0.000000E+00   8.044268E-05   1.076354E-04   1.858558E-04   0.000000E+00
   7   5.780809E-06   0.000000E+00   2.789342E-06   2.422113E-05   2.764326E-05   0.000000E+00
   8   1.991352E-06   0.000000E+00   4.271288E-07   4.779262E-06   7.173844E-06   0.000000E+00
 
:INFO :  Singular value  5.298E+00 Weight  1.000E+00 Projection -4.549E-07
:INFO :  Singular value  4.415E+00 Weight  1.000E+00 Projection  1.569E-06
:INFO :  Singular value  1.648E+00 Weight  1.000E+00 Projection -2.443E-06
:INFO :  Singular value  1.152E+00 Weight  1.000E+00 Projection -9.056E-06
:INFO :  Singular value  1.141E-01 Weight  1.000E+00 Projection  9.815E-05
:INFO :  Singular value  1.867E-04 Weight  2.621E-01 Projection  3.964E-04
:INFO :  Singular value  2.759E-05 Weight  7.691E-03 Projection -1.138E-05
:INFO :  Singular value  7.155E-06 Weight  5.211E-04 Projection  4.297E-06
:RANK :  ACTIVE   5.27/8  =  65.88 % ; YY RANK   5.11/8  =  63.90 %
 
:BLIM :  VZERO Control Off
:TRUST:  Step 1.84E+01  Charge 1.97E-02 (e) CTO  6.55E-02 (e) PW  9.18E-02 (e)
:DIRM :  MEMORY  8/8  SCALE   1.000 RED  0.13 PRED  0.21 NEXT  0.69 
:TRAVE:  Charge 7.10E-05 (e) CTO  7.10E-05 (e) PW  5.42E-05 (e)
:DIRP :  |MSR1|= 1.169E-05 |PRATT|= 1.932E-05 ANGLE=  43.2 DEGREES
:DIRQ :  |MSR1|= 2.652E-05 |PRATT|= 3.269E-05 ANGLE=  27.1 DEGREES
:DIRT :  |MSR1|= 2.898E-05 |PRATT|= 3.797E-05 ANGLE=  31.7 DEGREES
:MIX  :   MSD1   REGULARIZATION:  3.13E-04 GREED: 0.31060  Newton 1.00  0.7633                
     
       CHARGES OF MIXED CHARGE DENSITY
:CTO   : INTERSTITIAL CHARGE =     2.940059
:CPC   : PW Pseudocharge     =     7.599391
:CTO001: CHARGE SPHERE  1    =    56.059941

:NEC03: NUCLEAR AND ELECTRONIC CHARGE     59.00000    59.00000

PW CHANGE     H    K    L      Current       Change    Residue
:PTO001:      0    0    0  4.06845814E-02  8.659E-08  8.392E-08
:PTO002:     -1   -1   -1 -1.29764082E-01 -2.085E-07  9.017E-08
:PTO003:      0    0   -2  7.73708224E-02  2.378E-07  1.657E-08
:PTO004:      0   -2   -2  6.84912510E-02  6.826E-07  4.861E-07
:PTO005:     -1   -1   -3 -6.66277775E-02  3.285E-07  1.336E-06
:PTO006:     -2   -2   -2  1.71450266E-02 -2.704E-07 -6.496E-07
:PTO007:      0    0   -4  3.25751892E-03 -1.459E-07 -3.497E-07
:PTO008:     -1   -3   -3 -3.12181764E-03  2.621E-07  7.435E-07
:PTO009:      0   -2   -4  1.36067285E-04 -2.180E-07 -6.419E-07
:PTO010:     -2   -2   -4 -6.00031374E-03 -2.140E-07 -4.869E-07
:PTO011:     -3   -3   -3  2.57617290E-03  7.529E-08  1.412E-07
:PTO012:     -1   -1   -5  7.32274114E-03  1.054E-07  2.517E-07

:ENE  : ********** TOTAL ENERGY IN Ry =       -18472.06991350


:LABEL1: Calculations in /home/ykent/GWIEN/example/Pr/V13/case
:LABEL2: on didymium-2.cmpgroup.ameslab.gov at Wed Jul  8 16:11:16 CDT 2020
:LABEL3: using WIEN2k_19.1 (Release 25/6/2019) in /home/ykent/opt/src/WIEN2k_19.1
:LABEL4: using the command: run_lapw -cc 0.0001
 Flat Integration
 New Mode for Coulomb Integral
 Consistent 3/8+Simpson combinations
 Extension of core to zero
 LDM version in phi
 Fifth-order quadrature in outwin


            ---------
:ITE014: 14. ITERATION
            ---------

:NATO :    1 INDEPENDENT AND    1 TOTAL ATOMS IN UNITCELL
       SUBSTANCE: blebleble                                                   

       LATTICE                      = F   
:POT  : POTENTIAL OPTION EX_LDA EC_LDA VX_LDA VC_LDA
:LAT  : LATTICE CONSTANTS= 10.11927 10.11927 10.11927    1.571    1.571    1.571
:VOL  : UNIT CELL VOLUME =     259.05267
       MODE OF CALCULATION IS       = RELA
       NON-SPINPOLARIZED CALCULATION
:IFFT  : FFT-parameters:   80   80   80 Factor: 2.00


   CONVERGENCE PARAMETER FOR PSEUDOCHARGE: NCON=  9
   MAXIMAL VALUE OF RMT(JATOM)*ABSK(NKK) : RK  =29.93932


:VKCOUL :  VK-COUL convergence: 0.238E-06
       ATOMNUMBER=  1 Pr         VCOUL-ZERO =  0.18144E+00
:FIT001: LUSE= 13 SIGMA OF V-XC FIT FOR ATOM  1  0.4942828E-04
:FIT001: LUSE= 13 SIGMA OF V-XC FIT FOR ATOM  1  0.4942828E-04
:DEN  : DENSITY INTEGRAL  =         -7068.01024384   (Ry)
       ELS_POTENTIAL_AT Z=0 and Z=0.5:  -2.42743  -2.42743
       ELS_POTENTIAL_AT Y=0 and Y=0.5:   0.00000   0.00000
:VZERO:v0,v0c,v0x  -3.38132  -2.42743  -0.95389 v5,v5c,v5x  -3.38132  -2.42743  -0.95389
:VZERY:v0,v0c,v0x  -0.69068   0.00000  -0.69068 v5,v5c,v5x  -0.69068   0.00000  -0.69068
:VZERX:v0,v0c,v0x  -0.69068   0.00000  -0.69068 v5,v5c,v5x  -0.69068   0.00000  -0.69068
:LMAX-WF:   10   Non-Spherical LMAX:   4

          ATOMIC SPHERE DEPENDENT PARAMETERS FOR ATOM  Pr        
:e__0001: OVERALL ENERGY PARAMETER IS    0.3254
          OVERALL BASIS SET ON ATOM IS LAPW
:E0_0001: E( 0)=    0.3254
             APW+lo
:E0_0001: E( 0)=   -2.1574   E(BOTTOM)=   -2.538   E(TOP)=   -1.777  4  5   163
             LOCAL ORBITAL
:E1_0001: E( 1)=    0.7254
             APW+lo
:E1_0001: E( 1)=   -0.7690   E(BOTTOM)=   -1.415   E(TOP)=   -0.123  3  4   163
             LOCAL ORBITAL
:E3_0001: E( 3)=    0.5133   E(BOTTOM)=    0.372   E(TOP)=    0.655  0  1   116
             APW+lo
:E2_0001: E( 2)=    0.3254   E(BOTTOM)=    0.161   E(TOP)= -200.000  2 -1    93
             APW+lo

       K=   0.00000   0.00000   0.00000            1
:RKM  : MATRIX SIZE   189LOs:  20  RKM= 8.07  WEIGHT= 1.00  PGR:    
       EIGENVALUES ARE:
:EIG00001:      -2.1156273   -0.7543365   -0.7543365   -0.7543365    0.2755968
:EIG00006:       0.5146776    0.5297583    0.5297583    0.5297583    0.5511563
:EIG00011:       0.5511563    0.5511563    0.6535327    0.6535327    0.6535327
:EIG00016:       0.8117117    0.8117117    1.2093478    1.4247173    1.4247173
:EIG00021:       1.4247173    1.5308574
       ********************************************************

:KPT   :      NUMBER OF K-POINTS:   165
:GAP (global)   :    0.0    Ry =     0.0   eV (metal)
         Bandranges (emin - emax) and occupancy:
:BAN00001:   1   -2.115627   -2.105284  2.00000000
:BAN00002:   2   -0.822267   -0.754337  2.00000000
:BAN00003:   3   -0.798331   -0.754337  2.00000000
:BAN00004:   4   -0.779426   -0.754337  2.00000000
:BAN00005:   5    0.275597    0.500494  2.00000000
:BAN00006:   6    0.461722    0.524600  2.00000000
:BAN00007:   7    0.513374    0.533276  1.00000000
:BAN00008:   8    0.526397    0.536180  0.00000000
:BAN00009:   9    0.529758    0.539605  0.00000000
:BAN00010:  10    0.534708    0.551156  0.00000000
:BAN00011:  11    0.537669    0.551156  0.00000000
:BAN00012:  12    0.539979    0.558115  0.00000000
        Energy to separate low and high energystates:    0.22560


:NOE  : NUMBER OF ELECTRONS          =   13.000

:FER  : F E R M I - ENERGY(TETRAH.M.)=   0.5253827829
:GMA  : POTENTIAL AND CHARGE CUT-OFF  12.00 Ry**.5

:POS001: ATOM    1 X,Y,Z = 0.00000 0.00000 0.50000  MULT= 1  ZZ= 59.000  Pr        

       LMMAX  5
       LM=   0 0  4 0  4 4  6 0  6 4

:CHA001: TOTAL VALENCE CHARGE INSIDE SPHERE   1 =  10.0604    (RMT=  2.5000 )
:PCS001: PARTIAL CHARGES SPHERE =  1 S,P,D,F,      D-EG,D-T2G 
:QTL001: 2.0270 5.3592 0.5809 2.0931 0.0000 0.0000 0.0000 0.2068 0.3741 0.0000 0.0000 0.0000
        Q-s-low E-s-low   Q-p-low E-p-low   Q-d-low E-d-low   Q-f-low E-f-low
:EPL001:  1.9260 -2.1074    5.2955 -0.7829    0.0008 -0.7970    0.0002 -0.7990
        Q-s-hi  E-s-hi    Q-p-hi  E-p-hi    Q-d-hi  E-d-hi    Q-f-hi  E-f-hi 
:EPH001:  0.1010  0.4234    0.0637  0.4615    0.5801  0.4786    2.0929  0.5133

:CHA  : TOTAL VALENCE CHARGE INSIDE UNIT CELL =      13.000000

:SUM  : SUM OF EIGENVALUES =          -6.491964823


        1.ATOM      Pr                   14 CORE STATES
:1S 001: 1S               -3067.083514894 Ry
:2S 001: 2S                -492.835509116 Ry
:2PP001: 2P*               -465.934949798 Ry
:2P 001: 2P                -430.537351175 Ry
:3S 001: 3S                -105.922085225 Ry
:3PP001: 3P*                -94.460107758 Ry
:3P 001: 3P                 -87.452100694 Ry
:3DD001: 3D*                -67.379664433 Ry
:3D 001: 3D                 -65.868036135 Ry
:4S 001: 4S                 -20.598117641 Ry
:4PP001: 4P*                -16.305015292 Ry
:4P 001: 4P                 -14.777717422 Ry
:4DD001: 4D*                 -7.710971424 Ry
:4D 001: 4D                  -7.441610043 Ry
:CINT001 Core Integral Atom   1   45.999518

       DENSITY AT NUCLEUS
        JATOM        VALENCE       SEMI-CORE          CORE           TOTAL
:RTO001:   1      650.035207        0.000000   656825.016587   657475.051794
     
       CHARGES OF NEW CHARGE DENSITY
:NTO   : INTERSTITIAL CHARGE =     2.939574
:NPC   : PW Pseudocharge     =     7.598109
:NTO001: CHARGE SPHERE  1    =    56.059944

:NEC01: NUCLEAR AND ELECTRONIC CHARGE     59.00000    58.99952
     
       CHARGES OF OLD CHARGE DENSITY
:OTO   : INTERSTITIAL CHARGE =     2.940059
:OPC   : PW Pseudocharge     =     7.599391
:OTO001: CHARGE SPHERE  1    =    56.059941

:NEC02: NUCLEAR AND ELECTRONIC CHARGE     59.00000    59.00000
     
       CONVERGENCE TEST
:DTO001: DIFFERENCE IN SPHERE  1 =  0.0000180

:DIS  :  CHARGE DISTANCE       ( 0.0000180 for atom    1 spin 1)      0.0000180
 PW Mixed is           56
 
******************************************************
* MULTISECANT MIXING VER9 RELEASE 10.4.0              *
* Standard Mode with controls                        *
* Fixed density scale                                *
* Regularization       1.000E-04                     *
* Trust Upper Limit    5.000E+00                     *
* Max Number of Memory Steps    8                    *
******************************************************
 
:INFO : Forcing a restart
:PWTMP   1.9360E+02  1.2500E+02  2.5905E+02
:PLANE:  PW TOTAL      2.9078 DISTAN   2.27E-05  7.82E-04 %
:CHARG:  CLM/ATOM    977.1851 DISTAN   1.98E-05  2.02E-06 %
 
Step History
        DMIX         DMIXT        Red     Pred      Trust     Lambda    MagRel    MagAbs     Beta
  1   3.5000E-02   3.5000E-02 -1.00E+00  1.00E+00 -1.00E+01  1.00E+00  3.50E-02  3.50E-02  1.00E+00
:INFO :  Note, Pratt in use
:TRUST:  Step 2.25E-01  Charge 7.50E-02 (e) CTO  2.50E-01 (e) PW  3.50E-01 (e)
:DIRM :  MEMORY  0/ 8 SCALE   1.000
Performing Pseudo Compensation
Final Pseudo Compensation Rescaling     1.00000E+00
:MIX  :   PRATT  REGULARIZATION:  1.00E-04 GREED: 0.15000                  
     
       CHARGES OF MIXED CHARGE DENSITY
:CTO   : INTERSTITIAL CHARGE =     2.940058
:CPC   : PW Pseudocharge     =     7.599362
:CTO001: CHARGE SPHERE  1    =    56.059942

:NEC03: NUCLEAR AND ELECTRONIC CHARGE     59.00000    59.00000

PW CHANGE     H    K    L      Current       Change    Residue
:PTO001:      0    0    0  4.06844707E-02 -1.108E-07 -1.421E-07
:PTO002:     -1   -1   -1 -1.29763379E-01  7.031E-07  8.627E-07
:PTO003:      0    0   -2  7.73703346E-02 -4.878E-07 -5.935E-07
:PTO004:      0   -2   -2  6.84905975E-02 -6.535E-07 -4.744E-07
:PTO005:     -1   -1   -3 -6.66266676E-02  1.110E-06  1.349E-06
:PTO006:     -2   -2   -2  1.71446789E-02 -3.477E-07 -4.679E-07
:PTO007:      0    0   -4  3.25733957E-03 -1.793E-07 -2.308E-07
:PTO008:     -1   -3   -3 -3.12131308E-03  5.046E-07  4.948E-07
:PTO009:      0   -2   -4  1.35615128E-04 -4.522E-07 -4.306E-07
:PTO010:     -2   -2   -4 -6.00059613E-03 -2.824E-07 -2.472E-07
:PTO011:     -3   -3   -3  2.57623586E-03  6.297E-08  5.466E-08
:PTO012:     -1   -1   -5  7.32292302E-03  1.819E-07  1.172E-07

:ENE  : ********** TOTAL ENERGY IN Ry =       -18472.06990577

