
------- epsilon_Pu_5.scf0 --------


            ---------
:ITE095: 95. ITERATION
            ---------

:NATO :    1 INDEPENDENT AND    1 TOTAL ATOMS IN UNITCELL
       SUBSTANCE: cubic body-centered  (epsilon Pu)                           

       LATTICE                      = B   
:POT  : POTENTIAL OPTION    5
:LAT  : LATTICE CONSTANTS=  6.40846  6.40846  6.40846    1.571    1.571    1.571
:VOL  : UNIT CELL VOLUME =     131.59253
       MODE OF CALCULATION IS       = RELA
       NON-SPINPOLARIZED CALCULATION
:IFFT  : FFT-parameters:   54   54   54 Factor: 2.00
       ATOMNUMBER=  1 Pu  0+     VCOUL-ZERO =  0.64867E+00
:FIT001: LUSE= 13 SIGMA OF V-XC FIT FOR ATOM  1  0.2505847E-04
:FIT001: LUSE= 13 SIGMA OF V-XC FIT FOR ATOM  1  0.2505847E-04
:DEN  : DENSITY INTEGRAL  =        -21916.28014886   (Ry)
       ELS_POTENTIAL_AT Z=0 and Z=0.5:  -2.64489  -2.64489
       ELS_POTENTIAL_AT Y=0 and Y=0.5:   0.00000   0.00000
:VZERO:v0,v0c,v0x  -3.71775  -2.64489  -1.07286 v5,v5c,v5x  -3.71775  -2.64489  -1.07286
:VZERY:v0,v0c,v0x  -0.97963   0.00000  -0.97963 v5,v5c,v5x  -0.97963   0.00000  -0.97963
:VZERX:v0,v0c,v0x  -0.97963   0.00000  -0.97963 v5,v5c,v5x  -0.97963   0.00000  -0.97963

------- epsilon_Pu_5.scf1 --------

          ATOMIC SPHERE DEPENDENT PARAMETERS FOR ATOM  Pu  0+    
:e__0001: OVERALL ENERGY PARAMETER IS    1.2602
          OVERALL BASIS SET ON ATOM IS LAPW
:E0_0001: E( 0)=    1.2602
             APW+lo
:E0_0001: E( 0)=   -1.9425   E(BOTTOM)=   -2.714   E(TOP)=   -1.171
             LOCAL ORBITAL
:E1_0001: E( 1)=   -1.0140   E(BOTTOM)=   -1.014   E(TOP)= -200.000
             APW+lo
:E1_0001: E( 1)=    1.2602
             LOCAL ORBITAL
:E3_0001: E( 3)=    1.2602   E(BOTTOM)=    1.025   E(TOP)= -200.000
             APW+lo
:E2_0001: E( 2)=    1.2602   E(BOTTOM)=    1.190   E(TOP)= -200.000
             APW+lo

       K=   0.00000   0.00000   0.00000            1
:RKM  : MATRIX SIZE  161LOs:  20  RKM= 8.43  WEIGHT= 1.00  PGR:    
       EIGENVALUES ARE:
:EIG00001:      -1.9500267    0.2469995    0.2469995    0.2469995    1.1179571
:EIG00006:       1.4086431    1.4086431    1.4086431    1.5862884    1.5862884
:EIG00011:       1.5862884    1.6411495    1.6693140    1.6693140    1.6693140
:EIG00016:       1.9660004    1.9660004    2.7263717    2.7263717    2.7263717
:EIG00021:       3.5410563    3.5410563    3.9038699    4.0137935    4.0137935
:EIG00026:       4.0137935    5.0080802    5.0080802    5.0080802    5.4616832
:EIG00031:       5.4616832    5.4616832    5.5970719    5.5970719    5.5970719
:EIG00036:       5.6718172    5.6718172    5.6718172    5.8427856    5.8427856
:EIG00041:       5.9251467    5.9251467    6.0331896    6.4458512    6.4458512
:EIG00046:       6.4458512    6.4762105    6.4762105    6.4762105    6.9985813
 
:EIG00051:       6.9985813    7.1121802
       ********************************************************

:KPT   :      NUMBER OF K-POINTS:   286

------- epsilon_Pu_5.scfso --------
   0.0   0.0 angle (M,z), angle (M,x) deg
 
        SPIN-ORBIT EIGENVALUES:
     K=   0.00000   0.00000   0.00000            1
      MATRIX SIZE=  104   WEIGHT= 1.00
     EIGENVALUES ARE:
          -1.9500267   -1.9500267   -0.2434795   -0.2434795    0.4634839
           0.4634839    0.4634839    0.4634839    1.1179571    1.1179571
           1.3935257    1.3935257    1.4052456    1.4052456    1.4052456
           1.4052456    1.5759849    1.5759849    1.5759849    1.5759849
           1.6215583    1.6215583    1.6462373    1.6462373    1.6515152
           1.6515152    1.6515152    1.6515152    1.6961275    1.6961275
           1.9688287    1.9688287    1.9688287    1.9688287    2.7216169
           2.7216169    2.7297169    2.7297169    2.7297169    2.7297169

           3.5404947    3.5404947    3.5404947    3.5404947    3.8722954
           3.8722954    3.9038699    3.9038699    4.0816451    4.0816451
           4.0816451    4.0816451
       ********************************************************

------- epsilon_Pu_5.scf2 --------
:GMA  : POTENTIAL AND CHARGE CUT-OFF  12.00 Ry**.5
         Bandranges (emin - emax) and occupancy:
:BAN00008:   8    0.153993    0.463484  1.00000000
:BAN00009:   9    1.117957    1.466420  1.00000000
:BAN00010:  10    1.117957    1.466420  1.00000000
:BAN00011:  11    1.174004    1.476995  1.00000000
:BAN00012:  12    1.174004    1.476995  1.00000000
:BAN00013:  13    1.370192    1.477512  1.00000000
:BAN00014:  14    1.370192    1.477512  1.00000000
:BAN00015:  15    1.405246    1.514716  0.94363220
:BAN00016:  16    1.405246    1.514716  0.94363220
:BAN00017:  17    1.474289    1.575985  0.05636780
:BAN00018:  18    1.474289    1.575985  0.05636780
:BAN00019:  19    1.494625    1.575985  0.00000000
:BAN00020:  20    1.494625    1.575985  0.00000000
:BAN00021:  21    1.560681    1.621558  0.00000000
:BAN00022:  22    1.560681    1.621558  0.00000000
:BAN00023:  23    1.569329    1.646237  0.00000000
        Energy to separate low and high energystates:    1.06796


:NLDA  : NUMBER OF ELECTRONS          =  16.000

:FLDA  : F E R M I - ENERGY           =   1.98585




:POS001: AT.NR.   1 POSITION = 0.00000 0.00000 0.00000  MULTIPLICITY =  1

       LMMAX  5
       LM=   0 0  4 0  4 4  6 0  6 4
:FER DMFT Fermi Energy   1.46673
:EORB    0.14689219
:SUM SUM OF DMFT BAND ENERGIES    7.59221112

:CHA001: TOTAL CHARGE INSIDE SPHERE   1 =    11.640310
:PCS001: PARTIAL CHARGES SPHERE =  1 S,P,D,F,      D-EG,D-T2G 
:QTL001: 1.9648 4.5697 0.6144 4.4881 0.0000 0.0000 0.0000 0.2526 0.3791 0.0000 0.0000 0.0000
        Q-s-low E-s-low   Q-p-low E-p-low   Q-d-low E-d-low   Q-f-low E-f-low
:EPL001:  1.8760 -1.8900    4.4540  0.0282    0.0167  0.1726    0.0073  0.1874
        Q-s-hi  E-s-hi    Q-p-hi  E-p-hi    Q-d-hi  E-d-hi    Q-f-hi  E-f-hi 
:EPH001:  0.0887  1.3130    0.1158  1.3684    0.5977  1.3484    4.4808  1.4363

:CHA  : TOTAL CHARGE INSIDE UNIT CELL =      16.000000

:ESUM  : SUM OF EIGENVALUES =           7.737471303


------- epsilon_Pu_5.scfc --------

        1.ATOM      Pu  0+               21 CORE STATES
:1S 001: 1S               -8966.266768333 Ry
:2S 001: 2S               -1686.940652104 Ry
:2PP001: 2P*              -1627.634062523 Ry
:2P 001: 2P               -1314.482863529 Ry
:3S 001: 3S                -427.482606584 Ry
:3PP001: 3P*               -400.558195848 Ry
:3P 001: 3P                -327.996896233 Ry
:3DD001: 3D*               -285.756869977 Ry
:3D 001: 3D                -271.214647722 Ry
:4S 001: 4S                -108.963855581 Ry
:4PP001: 4P*                -96.776019469 Ry
:4P 001: 4P                 -77.630716928 Ry
:4DD001: 4D*                -58.343324200 Ry
:4D 001: 4D                 -54.848764933 Ry
:5S 001: 5S                 -23.119820675 Ry
:5PP001: 5P*                -18.301954226 Ry
:5P 001: 5P                 -13.613086510 Ry
:4FF001: 4F*                -29.448740350 Ry
:4F 001: 4F                 -28.520679935 Ry
:5DD001: 5D*                 -6.577701615 Ry
:5D 001: 5D                  -5.878663007 Ry

------- epsilon_Pu_5.scfm --------

       DENSITY AT NUCLEUS
        JATOM    VALENCE       SEMI-CORE            CORE           TOTAL
:RTO001:   1    23794.549388        0.000000 45141813.084917 45165607.634305
     
       CHARGES OF NEW CHARGE DENSITY
:NTO  : TOTAL   INTERSTITIAL CHARGE=    4.3596876
:NTO001: TOTAL   CHARGE IN SPHERE  1 =       89.6310402

:NEC01: NUCLEAR AND ELECTRONIC CHARGE     94.00000    93.99073     1.00010
     
       CHARGES OF OLD CHARGE DENSITY
:OTO  : TOTAL   INTERSTITIAL CHARGE=    4.3594156
:OTO001: TOTAL   CHARGE IN SPHERE  1 =       89.6405844

:NEC02: NUCLEAR AND ELECTRONIC CHARGE     94.00000    94.00000     1.00000
     
       CONVERGENCE TEST
:DTO001: TOTAL   DIFFERENCE CHARGE**2 IN SPHERE  1 =  0.0103318

:DIS  :  CHARGE DISTANCE       ( 0.0103318 for atom    1 spin 1)      0.0103318
:BIG check (qbig,qrms,qtot)    0.344D-02   0.731D-02   0.103D-01
 
******************************************************
* MULTISECANT MIXING VER4 OPTIONS                    *
* Unpredicted Step Limit   0.100000                  *
* Plane Wave Dynamic Rescaling                       *
* Dynamic Regularization active                      *
* Upper Cutoff Lambda  1.0E-01 Lower 3.5E-04         *
* SQRT Multiplicity/Degeneracy                       *
* Max Number of Memory Steps    8                    *
******************************************************
 
:PLANE:  INTERSTITIAL TOTAL      1.90915 DISTAN  6.300E-02 % 
:CHARG:  CLM CHARGE   /ATOM    713.22619 DISTAN  4.138E-03 % 
:MIX  :  PRATT  REGULARIZATION: 3.50E-04  GREED: 0.035
     
       CHARGES OF MIXED CHARGE DENSITY
:CTO  : TOTAL   INTERSTITIAL CHARGE=    4.3597496
:CTO001: TOTAL   CHARGE IN SPHERE  1 =       89.6402504

:NEC03: NUCLEAR AND ELECTRONIC CHARGE     94.00000    94.00000     1.00000


:ENE  : ********** TOTAL ENERGY IN Ry =       -59354.74508776


------- epsilon_Pu_5.scf0 --------


            ---------
:ITE096: 96. ITERATION
            ---------

:NATO :    1 INDEPENDENT AND    1 TOTAL ATOMS IN UNITCELL
       SUBSTANCE: cubic body-centered  (epsilon Pu)                           

       LATTICE                      = B   
:POT  : POTENTIAL OPTION    5
:LAT  : LATTICE CONSTANTS=  6.40846  6.40846  6.40846    1.571    1.571    1.571
:VOL  : UNIT CELL VOLUME =     131.59253
       MODE OF CALCULATION IS       = RELA
       NON-SPINPOLARIZED CALCULATION
:IFFT  : FFT-parameters:   54   54   54 Factor: 2.00
       ATOMNUMBER=  1 Pu  0+     VCOUL-ZERO =  0.64869E+00
:FIT001: LUSE= 13 SIGMA OF V-XC FIT FOR ATOM  1  0.2510618E-04
:FIT001: LUSE= 13 SIGMA OF V-XC FIT FOR ATOM  1  0.2510618E-04
:DEN  : DENSITY INTEGRAL  =        -21916.24021583   (Ry)
       ELS_POTENTIAL_AT Z=0 and Z=0.5:  -2.64500  -2.64500
       ELS_POTENTIAL_AT Y=0 and Y=0.5:   0.00000   0.00000
:VZERO:v0,v0c,v0x  -3.71786  -2.64500  -1.07286 v5,v5c,v5x  -3.71786  -2.64500  -1.07286
:VZERY:v0,v0c,v0x  -0.97965   0.00000  -0.97965 v5,v5c,v5x  -0.97965   0.00000  -0.97965
:VZERX:v0,v0c,v0x  -0.97965   0.00000  -0.97965 v5,v5c,v5x  -0.97965   0.00000  -0.97965

------- epsilon_Pu_5.scf1 --------

          ATOMIC SPHERE DEPENDENT PARAMETERS FOR ATOM  Pu  0+    
:e__0001: OVERALL ENERGY PARAMETER IS    1.2602
          OVERALL BASIS SET ON ATOM IS LAPW
:E0_0001: E( 0)=    1.2602
             APW+lo
:E0_0001: E( 0)=   -1.9425   E(BOTTOM)=   -2.714   E(TOP)=   -1.171
             LOCAL ORBITAL
:E1_0001: E( 1)=   -1.0140   E(BOTTOM)=   -1.014   E(TOP)= -200.000
             APW+lo
:E1_0001: E( 1)=    1.2602
             LOCAL ORBITAL
:E3_0001: E( 3)=    1.2602   E(BOTTOM)=    1.025   E(TOP)= -200.000
             APW+lo
:E2_0001: E( 2)=    1.2602   E(BOTTOM)=    1.190   E(TOP)= -200.000
             APW+lo

       K=   0.00000   0.00000   0.00000            1
:RKM  : MATRIX SIZE  161LOs:  20  RKM= 8.43  WEIGHT= 1.00  PGR:    
       EIGENVALUES ARE:
:EIG00001:      -1.9501904    0.2468805    0.2468805    0.2468805    1.1179555
:EIG00006:       1.4084795    1.4084795    1.4084795    1.5860567    1.5860567
:EIG00011:       1.5860567    1.6409150    1.6692929    1.6692929    1.6692929
:EIG00016:       1.9659836    1.9659836    2.7263083    2.7263083    2.7263083
:EIG00021:       3.5410410    3.5410410    3.9038822    4.0137584    4.0137584
:EIG00026:       4.0137584    5.0080214    5.0080214    5.0080214    5.4616720
:EIG00031:       5.4616720    5.4616720    5.5970376    5.5970376    5.5970376
:EIG00036:       5.6718074    5.6718074    5.6718074    5.8427819    5.8427819
:EIG00041:       5.9251757    5.9251757    6.0331445    6.4458525    6.4458525
:EIG00046:       6.4458525    6.4761575    6.4761575    6.4761575    6.9985519
 
:EIG00051:       6.9985519    7.1120051
       ********************************************************

:KPT   :      NUMBER OF K-POINTS:   286

------- epsilon_Pu_5.scfso --------
   0.0   0.0 angle (M,z), angle (M,x) deg
 
        SPIN-ORBIT EIGENVALUES:
     K=   0.00000   0.00000   0.00000            1
      MATRIX SIZE=  104   WEIGHT= 1.00
     EIGENVALUES ARE:
          -1.9501904   -1.9501904   -0.2436189   -0.2436189    0.4633742
           0.4633742    0.4633742    0.4633742    1.1179555    1.1179555
           1.3933568    1.3933568    1.4050774    1.4050774    1.4050774
           1.4050774    1.5757569    1.5757569    1.5757569    1.5757569
           1.6213304    1.6213304    1.6460063    1.6460063    1.6514929
           1.6514929    1.6514929    1.6514929    1.6961077    1.6961077
           1.9688122    1.9688122    1.9688122    1.9688122    2.7215543
           2.7215543    2.7296529    2.7296529    2.7296529    2.7296529

           3.5404794    3.5404794    3.5404794    3.5404794    3.8722584
           3.8722584    3.9038822    3.9038822    4.0816110    4.0816110
           4.0816110    4.0816110
       ********************************************************

------- epsilon_Pu_5.scf2 --------
:GMA  : POTENTIAL AND CHARGE CUT-OFF  12.00 Ry**.5
         Bandranges (emin - emax) and occupancy:
:BAN00008:   8    0.153916    0.463374  1.00000000
:BAN00009:   9    1.117956    1.466228  1.00000000
:BAN00010:  10    1.117956    1.466228  1.00000000
:BAN00011:  11    1.174013    1.476784  1.00000000
:BAN00012:  12    1.174013    1.476784  1.00000000
:BAN00013:  13    1.370101    1.477300  1.00000000
:BAN00014:  14    1.370101    1.477300  1.00000000
:BAN00015:  15    1.405077    1.514598  0.94356332
:BAN00016:  16    1.405077    1.514598  0.94356332
:BAN00017:  17    1.474125    1.575757  0.05643668
:BAN00018:  18    1.474125    1.575757  0.05643668
:BAN00019:  19    1.494448    1.575757  0.00000000
:BAN00020:  20    1.494448    1.575757  0.00000000
:BAN00021:  21    1.560478    1.621330  0.00000000
:BAN00022:  22    1.560478    1.621330  0.00000000
:BAN00023:  23    1.569118    1.646006  0.00000000
        Energy to separate low and high energystates:    1.06796


:NLDA  : NUMBER OF ELECTRONS          =  16.000

:FLDA  : F E R M I - ENERGY           =   1.98567




:POS001: AT.NR.   1 POSITION = 0.00000 0.00000 0.00000  MULTIPLICITY =  1

       LMMAX  5
       LM=   0 0  4 0  4 4  6 0  6 4
:FER DMFT Fermi Energy   1.46670
:EORB    0.14587566
:SUM SUM OF DMFT BAND ENERGIES    7.59125722

:CHA001: TOTAL CHARGE INSIDE SPHERE   1 =    11.640896
:PCS001: PARTIAL CHARGES SPHERE =  1 S,P,D,F,      D-EG,D-T2G 
:QTL001: 1.9648 4.5699 0.6144 4.4886 0.0000 0.0000 0.0000 0.2526 0.3791 0.0000 0.0000 0.0000
        Q-s-low E-s-low   Q-p-low E-p-low   Q-d-low E-d-low   Q-f-low E-f-low
:EPL001:  1.8760 -1.8902    4.4541  0.0281    0.0167  0.1725    0.0073  0.1873
        Q-s-hi  E-s-hi    Q-p-hi  E-p-hi    Q-d-hi  E-d-hi    Q-f-hi  E-f-hi 
:EPH001:  0.0887  1.3129    0.1158  1.3683    0.5977  1.3483    4.4813  1.4361

:CHA  : TOTAL CHARGE INSIDE UNIT CELL =      16.000000

:ESUM  : SUM OF EIGENVALUES =           7.735545466


------- epsilon_Pu_5.scfc --------

        1.ATOM      Pu  0+               21 CORE STATES
:1S 001: 1S               -8966.267335147 Ry
:2S 001: 2S               -1686.941218085 Ry
:2PP001: 2P*              -1627.634628750 Ry
:2P 001: 2P               -1314.483429451 Ry
:3S 001: 3S                -427.483160403 Ry
:3PP001: 3P*               -400.558751474 Ry
:3P 001: 3P                -327.997447072 Ry
:3DD001: 3D*               -285.757426095 Ry
:3D 001: 3D                -271.215202674 Ry
:4S 001: 4S                -108.964355418 Ry
:4PP001: 4P*                -96.776519964 Ry
:4P 001: 4P                 -77.631206292 Ry
:4DD001: 4D*                -58.343815148 Ry
:4D 001: 4D                 -54.849252709 Ry
:5S 001: 5S                 -23.120230797 Ry
:5PP001: 5P*                -18.302357044 Ry
:5P 001: 5P                 -13.613464812 Ry
:4FF001: 4F*                -29.449233889 Ry
:4F 001: 4F                 -28.521171852 Ry
:5DD001: 5D*                 -6.578052967 Ry
:5D 001: 5D                  -5.879005283 Ry

------- epsilon_Pu_5.scfm --------

       DENSITY AT NUCLEUS
        JATOM    VALENCE       SEMI-CORE            CORE           TOTAL
:RTO001:   1    23795.344485        0.000000 45141813.819959 45165609.164443
     
       CHARGES OF NEW CHARGE DENSITY
:NTO  : TOTAL   INTERSTITIAL CHARGE=    4.3591008
:NTO001: TOTAL   CHARGE IN SPHERE  1 =       89.6316284

:NEC01: NUCLEAR AND ELECTRONIC CHARGE     94.00000    93.99073     1.00010
     
       CHARGES OF OLD CHARGE DENSITY
:OTO  : TOTAL   INTERSTITIAL CHARGE=    4.3597496
:OTO001: TOTAL   CHARGE IN SPHERE  1 =       89.6402504

:NEC02: NUCLEAR AND ELECTRONIC CHARGE     94.00000    94.00000     1.00000
     
       CONVERGENCE TEST
:DTO001: TOTAL   DIFFERENCE CHARGE**2 IN SPHERE  1 =  0.0093209

:DIS  :  CHARGE DISTANCE       ( 0.0093209 for atom    1 spin 1)      0.0093209
:BIG check (qbig,qrms,qtot)    0.311D-02   0.659D-02   0.932D-02
 
******************************************************
* MULTISECANT MIXING VER4 OPTIONS                    *
* Unpredicted Step Limit   0.100000                  *
* Plane Wave Dynamic Rescaling                       *
* Dynamic Regularization active                      *
* Upper Cutoff Lambda  1.0E-01 Lower 3.5E-04         *
* SQRT Multiplicity/Degeneracy                       *
* Max Number of Memory Steps    8                    *
******************************************************
 
:PLANE:  INTERSTITIAL TOTAL      1.90916 DISTAN  5.730E-02 % 
:CHARG:  CLM CHARGE   /ATOM    713.22603 DISTAN  3.803E-03 % 
:INFO :  Dynamic rescale   2.466E+01  1.000E-01
:INFO :  Number of Memory Steps    1 Skipping    0
:INFO :  Bounds         0.383D-01  0.200D+00  0.241D+00  0.383D-01
:DIRM :  MEMORY 1/8 RESCALE  24.66 RED 0.914 PRED 1.000 NEXT 0.416 COND 1.00E+00
:DIRP :  |BROYD|= 9.364E-03 |PRATT|= 1.033E-03 ANGLE=   0.2 DEGREES
:DIRB :  |BROYD|= 1.328E-02 |PRATT|= 1.465E-03 ANGLE=   0.2 DEGREES
:MIX  :  MSR1   REGULARIZATION: 3.50E-04  GREED: 0.038
     
       CHARGES OF MIXED CHARGE DENSITY
:CTO  : TOTAL   INTERSTITIAL CHARGE=    4.3627396
:CTO001: TOTAL   CHARGE IN SPHERE  1 =       89.6372604

:NEC03: NUCLEAR AND ELECTRONIC CHARGE     94.00000    94.00000     1.00000


:ENE  : ********** TOTAL ENERGY IN Ry =       -59354.74510661


------- epsilon_Pu_5.scf0 --------


            ---------
:ITE097: 97. ITERATION
            ---------

:NATO :    1 INDEPENDENT AND    1 TOTAL ATOMS IN UNITCELL
       SUBSTANCE: cubic body-centered  (epsilon Pu)                           

       LATTICE                      = B   
:POT  : POTENTIAL OPTION    5
:LAT  : LATTICE CONSTANTS=  6.40846  6.40846  6.40846    1.571    1.571    1.571
:VOL  : UNIT CELL VOLUME =     131.59253
       MODE OF CALCULATION IS       = RELA
       NON-SPINPOLARIZED CALCULATION
:IFFT  : FFT-parameters:   54   54   54 Factor: 2.00
       ATOMNUMBER=  1 Pu  0+     VCOUL-ZERO =  0.64881E+00
:FIT001: LUSE= 13 SIGMA OF V-XC FIT FOR ATOM  1  0.2555731E-04
:FIT001: LUSE= 13 SIGMA OF V-XC FIT FOR ATOM  1  0.2555731E-04
:DEN  : DENSITY INTEGRAL  =        -21915.89180351   (Ry)
       ELS_POTENTIAL_AT Z=0 and Z=0.5:  -2.64600  -2.64600
       ELS_POTENTIAL_AT Y=0 and Y=0.5:   0.00000   0.00000
:VZERO:v0,v0c,v0x  -3.71891  -2.64600  -1.07291 v5,v5c,v5x  -3.71891  -2.64600  -1.07291
:VZERY:v0,v0c,v0x  -0.97978   0.00000  -0.97978 v5,v5c,v5x  -0.97978   0.00000  -0.97978
:VZERX:v0,v0c,v0x  -0.97978   0.00000  -0.97978 v5,v5c,v5x  -0.97978   0.00000  -0.97978

------- epsilon_Pu_5.scf1 --------

          ATOMIC SPHERE DEPENDENT PARAMETERS FOR ATOM  Pu  0+    
:e__0001: OVERALL ENERGY PARAMETER IS    1.2602
          OVERALL BASIS SET ON ATOM IS LAPW
:E0_0001: E( 0)=    1.2602
             APW+lo
:E0_0001: E( 0)=   -1.9445   E(BOTTOM)=   -2.716   E(TOP)=   -1.173
             LOCAL ORBITAL
:E1_0001: E( 1)=   -1.0160   E(BOTTOM)=   -1.016   E(TOP)= -200.000
             APW+lo
:E1_0001: E( 1)=    1.2602
             LOCAL ORBITAL
:E3_0001: E( 3)=    1.2602   E(BOTTOM)=    1.020   E(TOP)= -200.000
             APW+lo
:E2_0001: E( 2)=    1.2602   E(BOTTOM)=    1.190   E(TOP)= -200.000
             APW+lo

       K=   0.00000   0.00000   0.00000            1
:RKM  : MATRIX SIZE  161LOs:  20  RKM= 8.43  WEIGHT= 1.00  PGR:    
       EIGENVALUES ARE:
:EIG00001:      -1.9516409    0.2458255    0.2458255    0.2458255    1.1179454
:EIG00006:       1.4070313    1.4070313    1.4070313    1.5840044    1.5840044
:EIG00011:       1.5840044    1.6388451    1.6691091    1.6691091    1.6691091
:EIG00016:       1.9658337    1.9658337    2.7257526    2.7257526    2.7257526
:EIG00021:       3.5409073    3.5409073    3.9039937    4.0134515    4.0134515
:EIG00026:       4.0134515    5.0075031    5.0075031    5.0075031    5.4615727
:EIG00031:       5.4615727    5.4615727    5.5967414    5.5967414    5.5967414
:EIG00036:       5.6717230    5.6717230    5.6717230    5.8427500    5.8427500
:EIG00041:       5.9254355    5.9254355    6.0327494    6.4458675    6.4458675
:EIG00046:       6.4458675    6.4756914    6.4756914    6.4756914    6.9982906
 
:EIG00051:       6.9982906    7.1104630
       ********************************************************

:KPT   :      NUMBER OF K-POINTS:   286

------- epsilon_Pu_5.scfso --------
   0.0   0.0 angle (M,z), angle (M,x) deg
 
        SPIN-ORBIT EIGENVALUES:
     K=   0.00000   0.00000   0.00000            1
      MATRIX SIZE=  104   WEIGHT= 1.00
     EIGENVALUES ARE:
          -1.9516409   -1.9516409   -0.2448537   -0.2448537    0.4624023
           0.4624023    0.4624023    0.4624023    1.1179454    1.1179454
           1.3918623    1.3918623    1.4035886    1.4035886    1.4035886
           1.4035886    1.5737382    1.5737382    1.5737382    1.5737382
           1.6193123    1.6193123    1.6439671    1.6439671    1.6512986
           1.6512986    1.6512986    1.6512986    1.6959360    1.6959360
           1.9686657    1.9686657    1.9686657    1.9686657    2.7210056
           2.7210056    2.7290915    2.7290915    2.7290915    2.7290915

           3.5403453    3.5403453    3.5403453    3.5403453    3.8719375
           3.8719375    3.9039937    3.9039937    4.0813114    4.0813114
           4.0813115    4.0813115
       ********************************************************

------- epsilon_Pu_5.scf2 --------
:GMA  : POTENTIAL AND CHARGE CUT-OFF  12.00 Ry**.5
         Bandranges (emin - emax) and occupancy:
:BAN00008:   8    0.153241    0.462402  1.00000000
:BAN00009:   9    1.117945    1.464525  1.00000000
:BAN00010:  10    1.117945    1.464525  1.00000000
:BAN00011:  11    1.174100    1.474910  1.00000000
:BAN00012:  12    1.174100    1.474910  1.00000000
:BAN00013:  13    1.369469    1.475428  1.00000000
:BAN00014:  14    1.369469    1.475428  1.00000000
:BAN00015:  15    1.403589    1.513549  0.94295907
:BAN00016:  16    1.403589    1.513549  0.94295907
:BAN00017:  17    1.472679    1.573738  0.05704093
:BAN00018:  18    1.472679    1.573738  0.05704093
:BAN00019:  19    1.492892    1.573738  0.00000000
:BAN00020:  20    1.492892    1.573738  0.00000000
:BAN00021:  21    1.558688    1.619312  0.00000000
:BAN00022:  22    1.558688    1.619312  0.00000000
:BAN00023:  23    1.567253    1.643967  0.00000000
        Energy to separate low and high energystates:    1.06795


:NLDA  : NUMBER OF ELECTRONS          =  16.000

:FLDA  : F E R M I - ENERGY           =   1.98402




:POS001: AT.NR.   1 POSITION = 0.00000 0.00000 0.00000  MULTIPLICITY =  1

       LMMAX  5
       LM=   0 0  4 0  4 4  6 0  6 4
:FER DMFT Fermi Energy   1.46624
:EORB    0.13900576
:SUM SUM OF DMFT BAND ENERGIES    7.58070897

:CHA001: TOTAL CHARGE INSIDE SPHERE   1 =    11.648370
:PCS001: PARTIAL CHARGES SPHERE =  1 S,P,D,F,      D-EG,D-T2G 
:QTL001: 1.9648 4.5709 0.6132 4.4961 0.0000 0.0000 0.0000 0.2523 0.3782 0.0000 0.0000 0.0000
        Q-s-low E-s-low   Q-p-low E-p-low   Q-d-low E-d-low   Q-f-low E-f-low
:EPL001:  1.8762 -1.8917    4.4555  0.0272    0.0167  0.1718    0.0073  0.1866
        Q-s-hi  E-s-hi    Q-p-hi  E-p-hi    Q-d-hi  E-d-hi    Q-f-hi  E-f-hi 
:EPH001:  0.0887  1.3124    0.1154  1.3674    0.5966  1.3476    4.4888  1.4347

:CHA  : TOTAL CHARGE INSIDE UNIT CELL =      16.000000

:ESUM  : SUM OF EIGENVALUES =           7.718663092


------- epsilon_Pu_5.scfc --------

        1.ATOM      Pu  0+               21 CORE STATES
:1S 001: 1S               -8966.272220088 Ry
:2S 001: 2S               -1686.946108348 Ry
:2PP001: 2P*              -1627.639517957 Ry
:2P 001: 2P               -1314.488319174 Ry
:3S 001: 3S                -427.487967181 Ry
:3PP001: 3P*               -400.563572016 Ry
:3P 001: 3P                -328.002229756 Ry
:3DD001: 3D*               -285.762250377 Ry
:3D 001: 3D                -271.220018030 Ry
:4S 001: 4S                -108.968717661 Ry
:4PP001: 4P*                -96.780887514 Ry
:4P 001: 4P                 -77.635481411 Ry
:4DD001: 4D*                -58.348103291 Ry
:4D 001: 4D                 -54.853514513 Ry
:5S 001: 5S                 -23.123839127 Ry
:5PP001: 5P*                -18.305902450 Ry
:5P 001: 5P                 -13.616798898 Ry
:4FF001: 4F*                -29.453544624 Ry
:4F 001: 4F                 -28.525469088 Ry
:5DD001: 5D*                 -6.581152569 Ry
:5D 001: 5D                  -5.882025881 Ry

------- epsilon_Pu_5.scfm --------

       DENSITY AT NUCLEUS
        JATOM    VALENCE       SEMI-CORE            CORE           TOTAL
:RTO001:   1    23801.248127        0.000000 45141819.923360 45165621.171486
     
       CHARGES OF NEW CHARGE DENSITY
:NTO  : TOTAL   INTERSTITIAL CHARGE=    4.3516271
:NTO001: TOTAL   CHARGE IN SPHERE  1 =       89.6391145

:NEC01: NUCLEAR AND ELECTRONIC CHARGE     94.00000    93.99074     1.00010
     
       CHARGES OF OLD CHARGE DENSITY
:OTO  : TOTAL   INTERSTITIAL CHARGE=    4.3627396
:OTO001: TOTAL   CHARGE IN SPHERE  1 =       89.6372604

:NEC02: NUCLEAR AND ELECTRONIC CHARGE     94.00000    94.00000     1.00000
     
       CONVERGENCE TEST
:DTO001: TOTAL   DIFFERENCE CHARGE**2 IN SPHERE  1 =  0.0025307

:DIS  :  CHARGE DISTANCE       ( 0.0025307 for atom    1 spin 1)      0.0025307
:BIG check (qbig,qrms,qtot)    0.844D-03   0.179D-02   0.253D-02
 
******************************************************
* MULTISECANT MIXING VER4 OPTIONS                    *
* Unpredicted Step Limit   0.100000                  *
* Plane Wave Dynamic Rescaling                       *
* Dynamic Regularization active                      *
* Upper Cutoff Lambda  1.0E-01 Lower 3.5E-04         *
* SQRT Multiplicity/Degeneracy                       *
* Max Number of Memory Steps    8                    *
******************************************************
 
:PLANE:  INTERSTITIAL TOTAL      1.90924 DISTAN  2.270E-02 % 
:CHARG:  CLM CHARGE   /ATOM    713.22476 DISTAN  1.574E-03 % 
:INFO :  Dynamic rescale   2.507E+01  1.000E-01
:INFO :  Number of Memory Steps    2 Skipping    0
:INFO :  Singular value   2.590E+00 Weight   9.973E-01 Projections   2.697E-03 -3.815E-03
:INFO :  Singular value   6.586E-05 Weight   2.395E-07 Projections   2.698E-03 -9.662E-08
:INFO :  Bounds         0.766D-01  0.200D+00  0.110D+00  0.766D-01
:DIRM :  MEMORY 2/8 RESCALE  25.07 RED 0.405 PRED 0.416 NEXT 0.908 COND 1.30E+00
:DIRP :  |BROYD|= 1.331E-03 |PRATT|= 8.320E-04 ANGLE=  43.9 DEGREES
:DIRB :  |BROYD|= 1.749E-03 |PRATT|= 1.196E-03 ANGLE=  49.8 DEGREES
:MIX  :  MSR1   REGULARIZATION: 1.35E-01  GREED: 0.077
     
       CHARGES OF MIXED CHARGE DENSITY
:CTO  : TOTAL   INTERSTITIAL CHARGE=    4.3623167
:CTO001: TOTAL   CHARGE IN SPHERE  1 =       89.6376833

:NEC03: NUCLEAR AND ELECTRONIC CHARGE     94.00000    94.00000     1.00000


:ENE  : ********** TOTAL ENERGY IN Ry =       -59354.74526636


------- epsilon_Pu_5.scf0 --------


            ---------
:ITE098: 98. ITERATION
            ---------

:NATO :    1 INDEPENDENT AND    1 TOTAL ATOMS IN UNITCELL
       SUBSTANCE: cubic body-centered  (epsilon Pu)                           

       LATTICE                      = B   
:POT  : POTENTIAL OPTION    5
:LAT  : LATTICE CONSTANTS=  6.40846  6.40846  6.40846    1.571    1.571    1.571
:VOL  : UNIT CELL VOLUME =     131.59253
       MODE OF CALCULATION IS       = RELA
       NON-SPINPOLARIZED CALCULATION
:IFFT  : FFT-parameters:   54   54   54 Factor: 2.00
       ATOMNUMBER=  1 Pu  0+     VCOUL-ZERO =  0.64879E+00
:FIT001: LUSE= 13 SIGMA OF V-XC FIT FOR ATOM  1  0.2554185E-04
:FIT001: LUSE= 13 SIGMA OF V-XC FIT FOR ATOM  1  0.2554185E-04
:DEN  : DENSITY INTEGRAL  =        -21915.95489241   (Ry)
       ELS_POTENTIAL_AT Z=0 and Z=0.5:  -2.64588  -2.64588
       ELS_POTENTIAL_AT Y=0 and Y=0.5:   0.00000   0.00000
:VZERO:v0,v0c,v0x  -3.71878  -2.64588  -1.07290 v5,v5c,v5x  -3.71878  -2.64588  -1.07290
:VZERY:v0,v0c,v0x  -0.97976   0.00000  -0.97976 v5,v5c,v5x  -0.97976   0.00000  -0.97976
:VZERX:v0,v0c,v0x  -0.97976   0.00000  -0.97976 v5,v5c,v5x  -0.97976   0.00000  -0.97976

------- epsilon_Pu_5.scf1 --------

          ATOMIC SPHERE DEPENDENT PARAMETERS FOR ATOM  Pu  0+    
:e__0001: OVERALL ENERGY PARAMETER IS    1.2602
          OVERALL BASIS SET ON ATOM IS LAPW
:E0_0001: E( 0)=    1.2602
             APW+lo
:E0_0001: E( 0)=   -1.9440   E(BOTTOM)=   -2.715   E(TOP)=   -1.173
             LOCAL ORBITAL
:E1_0001: E( 1)=   -1.0160   E(BOTTOM)=   -1.016   E(TOP)= -200.000
             APW+lo
:E1_0001: E( 1)=    1.2602
             LOCAL ORBITAL
:E3_0001: E( 3)=    1.2602   E(BOTTOM)=    1.020   E(TOP)= -200.000
             APW+lo
:E2_0001: E( 2)=    1.2602   E(BOTTOM)=    1.190   E(TOP)= -200.000
             APW+lo

       K=   0.00000   0.00000   0.00000            1
:RKM  : MATRIX SIZE  161LOs:  20  RKM= 8.43  WEIGHT= 1.00  PGR:    
       EIGENVALUES ARE:
:EIG00001:      -1.9514130    0.2459904    0.2459904    0.2459904    1.1179501
:EIG00006:       1.4072634    1.4072634    1.4072634    1.5843273    1.5843273
:EIG00011:       1.5843273    1.6391865    1.6691434    1.6691434    1.6691434
:EIG00016:       1.9658542    1.9658542    2.7258459    2.7258459    2.7258459
:EIG00021:       3.5409295    3.5409295    3.9039783    4.0135027    4.0135027
:EIG00026:       4.0135027    5.0075889    5.0075889    5.0075889    5.4615864
:EIG00031:       5.4615864    5.4615864    5.5967917    5.5967917    5.5967917
:EIG00036:       5.6717409    5.6717409    5.6717409    5.8427537    5.8427537
:EIG00041:       5.9253991    5.9253991    6.0328101    6.4458691    6.4458691
:EIG00046:       6.4458691    6.4757675    6.4757675    6.4757675    6.9983292
 
:EIG00051:       6.9983292    7.1107192
       ********************************************************

:KPT   :      NUMBER OF K-POINTS:   286

------- epsilon_Pu_5.scfso --------
   0.0   0.0 angle (M,z), angle (M,x) deg
 
        SPIN-ORBIT EIGENVALUES:
     K=   0.00000   0.00000   0.00000            1
      MATRIX SIZE=  104   WEIGHT= 1.00
     EIGENVALUES ARE:
          -1.9514130   -1.9514130   -0.2446605   -0.2446605    0.4625542
           0.4625542    0.4625542    0.4625542    1.1179501    1.1179501
           1.3921022    1.3921022    1.4038271    1.4038271    1.4038271
           1.4038271    1.5740562    1.5740562    1.5740562    1.5740562
           1.6196295    1.6196295    1.6443033    1.6443033    1.6513343
           1.6513343    1.6513343    1.6513343    1.6959684    1.6959684
           1.9686857    1.9686857    1.9686857    1.9686857    2.7210978
           2.7210978    2.7291857    2.7291857    2.7291857    2.7291857

           3.5403677    3.5403677    3.5403677    3.5403677    3.8719911
           3.8719911    3.9039783    3.9039783    4.0813615    4.0813615
           4.0813615    4.0813615
       ********************************************************

------- epsilon_Pu_5.scf2 --------
:GMA  : POTENTIAL AND CHARGE CUT-OFF  12.00 Ry**.5
         Bandranges (emin - emax) and occupancy:
:BAN00008:   8    0.153348    0.462554  1.00000000
:BAN00009:   9    1.117950    1.464803  1.00000000
:BAN00010:  10    1.117950    1.464803  1.00000000
:BAN00011:  11    1.174087    1.475207  1.00000000
:BAN00012:  12    1.174087    1.475207  1.00000000
:BAN00013:  13    1.369558    1.475725  1.00000000
:BAN00014:  14    1.369558    1.475725  1.00000000
:BAN00015:  15    1.403827    1.513718  0.94305921
:BAN00016:  16    1.403827    1.513718  0.94305921
:BAN00017:  17    1.472916    1.574056  0.05694079
:BAN00018:  18    1.472916    1.574056  0.05694079
:BAN00019:  19    1.493138    1.574056  0.00000000
:BAN00020:  20    1.493138    1.574056  0.00000000
:BAN00021:  21    1.558972    1.619629  0.00000000
:BAN00022:  22    1.558972    1.619629  0.00000000
:BAN00023:  23    1.567549    1.644303  0.00000000
        Energy to separate low and high energystates:    1.06795


:NLDA  : NUMBER OF ELECTRONS          =  16.000

:FLDA  : F E R M I - ENERGY           =   1.98429




:POS001: AT.NR.   1 POSITION = 0.00000 0.00000 0.00000  MULTIPLICITY =  1

       LMMAX  5
       LM=   0 0  4 0  4 4  6 0  6 4
:FER DMFT Fermi Energy   1.46629
:EORB    0.14029653
:SUM SUM OF DMFT BAND ENERGIES    7.58218009

:CHA001: TOTAL CHARGE INSIDE SPHERE   1 =    11.647401
:PCS001: PARTIAL CHARGES SPHERE =  1 S,P,D,F,      D-EG,D-T2G 
:QTL001: 1.9648 4.5707 0.6133 4.4953 0.0000 0.0000 0.0000 0.2523 0.3783 0.0000 0.0000 0.0000
        Q-s-low E-s-low   Q-p-low E-p-low   Q-d-low E-d-low   Q-f-low E-f-low
:EPL001:  1.8761 -1.8915    4.4553  0.0274    0.0167  0.1719    0.0073  0.1867
        Q-s-hi  E-s-hi    Q-p-hi  E-p-hi    Q-d-hi  E-d-hi    Q-f-hi  E-f-hi 
:EPH001:  0.0887  1.3125    0.1154  1.3676    0.5967  1.3477    4.4880  1.4349

:CHA  : TOTAL CHARGE INSIDE UNIT CELL =      15.999998

:ESUM  : SUM OF EIGENVALUES =           7.721358387


------- epsilon_Pu_5.scfc --------

        1.ATOM      Pu  0+               21 CORE STATES
:1S 001: 1S               -8966.271239149 Ry
:2S 001: 2S               -1686.945146226 Ry
:2PP001: 2P*              -1627.638551007 Ry
:2P 001: 2P               -1314.487357106 Ry
:3S 001: 3S                -427.487055870 Ry
:3PP001: 3P*               -400.562655021 Ry
:3P 001: 3P                -328.001325868 Ry
:3DD001: 3D*               -285.761331835 Ry
:3D 001: 3D                -271.219103093 Ry
:4S 001: 4S                -108.967929822 Ry
:4PP001: 4P*                -96.780098006 Ry
:4P 001: 4P                 -77.634716222 Ry
:4DD001: 4D*                -58.347334445 Ry
:4D 001: 4D                 -54.852752595 Ry
:5S 001: 5S                 -23.123233525 Ry
:5PP001: 5P*                -18.305309461 Ry
:5P 001: 5P                 -13.616248107 Ry
:4FF001: 4F*                -29.452771527 Ry
:4F 001: 4F                 -28.524699484 Ry
:5DD001: 5D*                 -6.580645125 Ry
:5D 001: 5D                  -5.881532993 Ry

------- epsilon_Pu_5.scfm --------

       DENSITY AT NUCLEUS
        JATOM    VALENCE       SEMI-CORE            CORE           TOTAL
:RTO001:   1    23800.258555        0.000000 45141818.327036 45165618.585590
     
       CHARGES OF NEW CHARGE DENSITY
:NTO  : TOTAL   INTERSTITIAL CHARGE=    4.3525938
:NTO001: TOTAL   CHARGE IN SPHERE  1 =       89.6381436

:NEC01: NUCLEAR AND ELECTRONIC CHARGE     94.00000    93.99074     1.00010
     
       CHARGES OF OLD CHARGE DENSITY
:OTO  : TOTAL   INTERSTITIAL CHARGE=    4.3623167
:OTO001: TOTAL   CHARGE IN SPHERE  1 =       89.6376833

:NEC02: NUCLEAR AND ELECTRONIC CHARGE     94.00000    94.00000     1.00000
     
       CONVERGENCE TEST
:DTO001: TOTAL   DIFFERENCE CHARGE**2 IN SPHERE  1 =  0.0011607

:DIS  :  CHARGE DISTANCE       ( 0.0011607 for atom    1 spin 1)      0.0011607
:BIG check (qbig,qrms,qtot)    0.387D-03   0.821D-03   0.116D-02
 
******************************************************
* MULTISECANT MIXING VER4 OPTIONS                    *
* Unpredicted Step Limit   0.100000                  *
* Plane Wave Dynamic Rescaling                       *
* Dynamic Regularization active                      *
* Upper Cutoff Lambda  1.0E-01 Lower 3.5E-04         *
* SQRT Multiplicity/Degeneracy                       *
* Max Number of Memory Steps    8                    *
******************************************************
 
:PLANE:  INTERSTITIAL TOTAL      1.90924 DISTAN  1.720E-02 % 
:CHARG:  CLM CHARGE   /ATOM    713.22507 DISTAN  1.368E-03 % 
:INFO :  Dynamic rescale   2.616E+01  1.000E-01
:INFO :  Number of Memory Steps    3 Skipping    0
:INFO :  Singular value   3.801E+00 Weight   1.000E+00 Projections  -3.037E-02 -5.270E-04
:INFO :  Singular value   9.353E-02 Weight   1.000E+00 Projections  -1.351E-02  5.539E-02
:INFO :  Singular value   7.530E-05 Weight   4.423E-02 Projections  -4.629E-02 -1.338E-02
:INFO :  Bounds         0.940D-01  0.200D+00  0.387D+00  0.940D-01
:DIRM :  MEMORY 3/8 RESCALE  26.16 RED 0.815 PRED 0.908 NEXT 0.258 COND 1.24E+00
:DIRP :  |BROYD|= 6.497E-03 |PRATT|= 8.071E-04 ANGLE=   2.9 DEGREES
:DIRB :  |BROYD|= 9.915E-03 |PRATT|= 1.222E-03 ANGLE=   2.6 DEGREES
:MIX  :  MSR1   REGULARIZATION: 3.50E-04  GREED: 0.094
     
       CHARGES OF MIXED CHARGE DENSITY
:CTO  : TOTAL   INTERSTITIAL CHARGE=    4.3620672
:CTO001: TOTAL   CHARGE IN SPHERE  1 =       89.6379328

:NEC03: NUCLEAR AND ELECTRONIC CHARGE     94.00000    94.00000     1.00000


:ENE  : ********** TOTAL ENERGY IN Ry =       -59354.74524392


------- epsilon_Pu_5.scf0 --------


            ---------
:ITE099: 99. ITERATION
            ---------

:NATO :    1 INDEPENDENT AND    1 TOTAL ATOMS IN UNITCELL
       SUBSTANCE: cubic body-centered  (epsilon Pu)                           

       LATTICE                      = B   
:POT  : POTENTIAL OPTION    5
:LAT  : LATTICE CONSTANTS=  6.40846  6.40846  6.40846    1.571    1.571    1.571
:VOL  : UNIT CELL VOLUME =     131.59253
       MODE OF CALCULATION IS       = RELA
       NON-SPINPOLARIZED CALCULATION
:IFFT  : FFT-parameters:   54   54   54 Factor: 2.00
       ATOMNUMBER=  1 Pu  0+     VCOUL-ZERO =  0.64876E+00
:FIT001: LUSE= 13 SIGMA OF V-XC FIT FOR ATOM  1  0.2593063E-04
:FIT001: LUSE= 13 SIGMA OF V-XC FIT FOR ATOM  1  0.2593063E-04
:DEN  : DENSITY INTEGRAL  =        -21916.09533396   (Ry)
       ELS_POTENTIAL_AT Z=0 and Z=0.5:  -2.64597  -2.64597
       ELS_POTENTIAL_AT Y=0 and Y=0.5:   0.00000   0.00000
:VZERO:v0,v0c,v0x  -3.71881  -2.64597  -1.07284 v5,v5c,v5x  -3.71881  -2.64597  -1.07284
:VZERY:v0,v0c,v0x  -0.97975   0.00000  -0.97975 v5,v5c,v5x  -0.97975   0.00000  -0.97975
:VZERX:v0,v0c,v0x  -0.97975   0.00000  -0.97975 v5,v5c,v5x  -0.97975   0.00000  -0.97975

------- epsilon_Pu_5.scf1 --------

          ATOMIC SPHERE DEPENDENT PARAMETERS FOR ATOM  Pu  0+    
:e__0001: OVERALL ENERGY PARAMETER IS    1.2602
          OVERALL BASIS SET ON ATOM IS LAPW
:E0_0001: E( 0)=    1.2602
             APW+lo
:E0_0001: E( 0)=   -1.9440   E(BOTTOM)=   -2.715   E(TOP)=   -1.173
             LOCAL ORBITAL
:E1_0001: E( 1)=   -1.0160   E(BOTTOM)=   -1.016   E(TOP)= -200.000
             APW+lo
:E1_0001: E( 1)=    1.2602
             LOCAL ORBITAL
:E3_0001: E( 3)=    1.2602   E(BOTTOM)=    1.020   E(TOP)= -200.000
             APW+lo
:E2_0001: E( 2)=    1.2602   E(BOTTOM)=    1.190   E(TOP)= -200.000
             APW+lo

       K=   0.00000   0.00000   0.00000            1
:RKM  : MATRIX SIZE  161LOs:  20  RKM= 8.43  WEIGHT= 1.00  PGR:    
       EIGENVALUES ARE:
:EIG00001:      -1.9511064    0.2462062    0.2462062    0.2462062    1.1179762
:EIG00006:       1.4076065    1.4076065    1.4076065    1.5847631    1.5847631
:EIG00011:       1.5847631    1.6397635    1.6692272    1.6692272    1.6692272
:EIG00016:       1.9658557    1.9658557    2.7260118    2.7260118    2.7260118
:EIG00021:       3.5409660    3.5409660    3.9039705    4.0135888    4.0135888
:EIG00026:       4.0135888    5.0077347    5.0077347    5.0077347    5.4615894
:EIG00031:       5.4615894    5.4615894    5.5968775    5.5968775    5.5968775
:EIG00036:       5.6717967    5.6717967    5.6717967    5.8427445    5.8427445
:EIG00041:       5.9253805    5.9253805    6.0328826    6.4458965    6.4458965
:EIG00046:       6.4458965    6.4758875    6.4758875    6.4758875    6.9983624
 
:EIG00051:       6.9983624    7.1111618
       ********************************************************

:KPT   :      NUMBER OF K-POINTS:   286

------- epsilon_Pu_5.scfso --------
   0.0   0.0 angle (M,z), angle (M,x) deg
 
        SPIN-ORBIT EIGENVALUES:
     K=   0.00000   0.00000   0.00000            1
      MATRIX SIZE=  104   WEIGHT= 1.00
     EIGENVALUES ARE:
          -1.9511064   -1.9511064   -0.2444065   -0.2444065    0.4627525
           0.4627525    0.4627525    0.4627525    1.1179762    1.1179762
           1.3924588    1.3924588    1.4041778    1.4041778    1.4041778
           1.4041778    1.5744874    1.5744874    1.5744874    1.5744874
           1.6200548    1.6200548    1.6448707    1.6448707    1.6514191
           1.6514191    1.6514191    1.6514191    1.6960504    1.6960504
           1.9686876    1.9686876    1.9686876    1.9686876    2.7212623
           2.7212623    2.7293527    2.7293527    2.7293527    2.7293527

           3.5404042    3.5404042    3.5404042    3.5404042    3.8720785
           3.8720785    3.9039705    3.9039705    4.0814472    4.0814472
           4.0814472    4.0814472
       ********************************************************

------- epsilon_Pu_5.scf2 --------
:GMA  : POTENTIAL AND CHARGE CUT-OFF  12.00 Ry**.5
         Bandranges (emin - emax) and occupancy:
:BAN00008:   8    0.153501    0.462752  1.00000000
:BAN00009:   9    1.117976    1.465249  1.00000000
:BAN00010:  10    1.117976    1.465249  1.00000000
:BAN00011:  11    1.174064    1.475617  1.00000000
:BAN00012:  12    1.174064    1.475617  1.00000000
:BAN00013:  13    1.369690    1.476145  1.00000000
:BAN00014:  14    1.369690    1.476145  1.00000000
:BAN00015:  15    1.404178    1.513966  0.94322582
:BAN00016:  16    1.404178    1.513966  0.94322582
:BAN00017:  17    1.473306    1.574487  0.05677418
:BAN00018:  18    1.473306    1.574487  0.05677418
:BAN00019:  19    1.493482    1.574487  0.00000000
:BAN00020:  20    1.493482    1.574487  0.00000000
:BAN00021:  21    1.559371    1.620055  0.00000000
:BAN00022:  22    1.559371    1.620055  0.00000000
:BAN00023:  23    1.567968    1.644871  0.00000000
        Energy to separate low and high energystates:    1.06798


:NLDA  : NUMBER OF ELECTRONS          =  16.000

:FLDA  : F E R M I - ENERGY           =   1.98468




:POS001: AT.NR.   1 POSITION = 0.00000 0.00000 0.00000  MULTIPLICITY =  1

       LMMAX  5
       LM=   0 0  4 0  4 4  6 0  6 4
:FER DMFT Fermi Energy   1.46640
:EORB    0.14193579
:SUM SUM OF DMFT BAND ENERGIES    7.58447160

:CHA001: TOTAL CHARGE INSIDE SPHERE   1 =    11.645928
:PCS001: PARTIAL CHARGES SPHERE =  1 S,P,D,F,      D-EG,D-T2G 
:QTL001: 1.9648 4.5705 0.6135 4.4938 0.0000 0.0000 0.0000 0.2524 0.3784 0.0000 0.0000 0.0000
        Q-s-low E-s-low   Q-p-low E-p-low   Q-d-low E-d-low   Q-f-low E-f-low
:EPL001:  1.8761 -1.8912    4.4550  0.0276    0.0167  0.1721    0.0073  0.1870
        Q-s-hi  E-s-hi    Q-p-hi  E-p-hi    Q-d-hi  E-d-hi    Q-f-hi  E-f-hi 
:EPH001:  0.0887  1.3126    0.1155  1.3678    0.5968  1.3479    4.4865  1.4353

:CHA  : TOTAL CHARGE INSIDE UNIT CELL =      16.000000

:ESUM  : SUM OF EIGENVALUES =           7.725188773


------- epsilon_Pu_5.scfc --------

        1.ATOM      Pu  0+               21 CORE STATES
:1S 001: 1S               -8966.268509010 Ry
:2S 001: 2S               -1686.942571710 Ry
:2PP001: 2P*              -1627.635936963 Ry
:2P 001: 2P               -1314.484782437 Ry
:3S 001: 3S                -427.484796468 Ry
:3PP001: 3P*               -400.560364995 Ry
:3P 001: 3P                -327.999100058 Ry
:3DD001: 3D*               -285.759033552 Ry
:3D 001: 3D                -271.216824029 Ry
:4S 001: 4S                -108.966184747 Ry
:4PP001: 4P*                -96.778345270 Ry
:4P 001: 4P                 -77.633060229 Ry
:4DD001: 4D*                -58.345663135 Ry
:4D 001: 4D                 -54.851108876 Ry
:5S 001: 5S                 -23.122155980 Ry
:5PP001: 5P*                -18.304267257 Ry
:5P 001: 5P                 -13.615323251 Ry
:4FF001: 4F*                -29.451090293 Ry
:4F 001: 4F                 -28.523031920 Ry
:5DD001: 5D*                 -6.579822623 Ry
:5D 001: 5D                  -5.880744573 Ry

------- epsilon_Pu_5.scfm --------

       DENSITY AT NUCLEUS
        JATOM    VALENCE       SEMI-CORE            CORE           TOTAL
:RTO001:   1    23798.725983        0.000000 45141811.977326 45165610.703309
     
       CHARGES OF NEW CHARGE DENSITY
:NTO  : TOTAL   INTERSTITIAL CHARGE=    4.3540692
:NTO001: TOTAL   CHARGE IN SPHERE  1 =       89.6366666

:NEC01: NUCLEAR AND ELECTRONIC CHARGE     94.00000    93.99074     1.00010
     
       CHARGES OF OLD CHARGE DENSITY
:OTO  : TOTAL   INTERSTITIAL CHARGE=    4.3620672
:OTO001: TOTAL   CHARGE IN SPHERE  1 =       89.6379328

:NEC02: NUCLEAR AND ELECTRONIC CHARGE     94.00000    94.00000     1.00000
     
       CONVERGENCE TEST
:DTO001: TOTAL   DIFFERENCE CHARGE**2 IN SPHERE  1 =  0.0014073

:DIS  :  CHARGE DISTANCE       ( 0.0014073 for atom    1 spin 1)      0.0014073
:BIG check (qbig,qrms,qtot)    0.469D-03   0.995D-03   0.141D-02
 
******************************************************
* MULTISECANT MIXING VER4 OPTIONS                    *
* Unpredicted Step Limit   0.100000                  *
* Plane Wave Dynamic Rescaling                       *
* Dynamic Regularization active                      *
* Upper Cutoff Lambda  1.0E-01 Lower 3.5E-04         *
* SQRT Multiplicity/Degeneracy                       *
* Max Number of Memory Steps    8                    *
******************************************************
 
:PLANE:  INTERSTITIAL TOTAL      1.90933 DISTAN  7.692E-03 % 
:CHARG:  CLM CHARGE   /ATOM    713.22625 DISTAN  5.716E-04 % 
:INFO :  Dynamic rescale   2.647E+01  1.000E-01
:INFO :  Number of Memory Steps    4 Skipping    0
:INFO :  Singular value   3.099E+00 Weight   1.000E+00 Projections   6.050E-04 -2.045E-03
:INFO :  Singular value   2.938E+00 Weight   1.000E+00 Projections  -6.724E-03 -2.891E-03
:INFO :  Singular value   3.884E-04 Weight   5.519E-01 Projections  -4.626E-03  9.554E-03
:INFO :  Singular value   3.935E-06 Weight   1.264E-04 Projections   6.071E-03  1.135E-04
:INFO :  Bounds         0.188D+00  0.200D+00  0.301D+00  0.188D+00
:DIRM :  MEMORY 4/8 RESCALE  26.47 RED 0.431 PRED 0.258 NEXT 0.332 COND 7.75E-01
:DIRP :  |BROYD|= 1.279E-03 |PRATT|= 7.307E-04 ANGLE=  25.7 DEGREES
:DIRB :  |BROYD|= 1.886E-03 |PRATT|= 1.059E-03 ANGLE=  28.0 DEGREES
:MIX  :  MSR1   REGULARIZATION: 3.50E-04  GREED: 0.188
     
       CHARGES OF MIXED CHARGE DENSITY
:CTO  : TOTAL   INTERSTITIAL CHARGE=    4.3624157
:CTO001: TOTAL   CHARGE IN SPHERE  1 =       89.6375843

:NEC03: NUCLEAR AND ELECTRONIC CHARGE     94.00000    94.00000     1.00000


:ENE  : ********** TOTAL ENERGY IN Ry =       -59354.74519450


------- epsilon_Pu_5.scf0 --------


            ---------
:ITE100:100. ITERATION
            ---------

:NATO :    1 INDEPENDENT AND    1 TOTAL ATOMS IN UNITCELL
       SUBSTANCE: cubic body-centered  (epsilon Pu)                           

       LATTICE                      = B   
:POT  : POTENTIAL OPTION    5
:LAT  : LATTICE CONSTANTS=  6.40846  6.40846  6.40846    1.571    1.571    1.571
:VOL  : UNIT CELL VOLUME =     131.59253
       MODE OF CALCULATION IS       = RELA
       NON-SPINPOLARIZED CALCULATION
:IFFT  : FFT-parameters:   54   54   54 Factor: 2.00
       ATOMNUMBER=  1 Pu  0+     VCOUL-ZERO =  0.64877E+00
:FIT001: LUSE= 13 SIGMA OF V-XC FIT FOR ATOM  1  0.2599240E-04
:FIT001: LUSE= 13 SIGMA OF V-XC FIT FOR ATOM  1  0.2599240E-04
:DEN  : DENSITY INTEGRAL  =        -21916.04880369   (Ry)
       ELS_POTENTIAL_AT Z=0 and Z=0.5:  -2.64609  -2.64609
       ELS_POTENTIAL_AT Y=0 and Y=0.5:   0.00000   0.00000
:VZERO:v0,v0c,v0x  -3.71894  -2.64609  -1.07285 v5,v5c,v5x  -3.71894  -2.64609  -1.07285
:VZERY:v0,v0c,v0x  -0.97976   0.00000  -0.97976 v5,v5c,v5x  -0.97976   0.00000  -0.97976
:VZERX:v0,v0c,v0x  -0.97976   0.00000  -0.97976 v5,v5c,v5x  -0.97976   0.00000  -0.97976

------- epsilon_Pu_5.scf1 --------

          ATOMIC SPHERE DEPENDENT PARAMETERS FOR ATOM  Pu  0+    
:e__0001: OVERALL ENERGY PARAMETER IS    1.2602
          OVERALL BASIS SET ON ATOM IS LAPW
:E0_0001: E( 0)=    1.2602
             APW+lo
:E0_0001: E( 0)=   -1.9440   E(BOTTOM)=   -2.715   E(TOP)=   -1.173
             LOCAL ORBITAL
:E1_0001: E( 1)=   -1.0160   E(BOTTOM)=   -1.016   E(TOP)= -200.000
             APW+lo
:E1_0001: E( 1)=    1.2602
             LOCAL ORBITAL
:E3_0001: E( 3)=    1.2602   E(BOTTOM)=    1.020   E(TOP)= -200.000
             APW+lo
:E2_0001: E( 2)=    1.2602   E(BOTTOM)=    1.190   E(TOP)= -200.000
             APW+lo

       K=   0.00000   0.00000   0.00000            1
:RKM  : MATRIX SIZE  161LOs:  20  RKM= 8.43  WEIGHT= 1.00  PGR:    
       EIGENVALUES ARE:
:EIG00001:      -1.9512798    0.2460799    0.2460799    0.2460799    1.1179731
:EIG00006:       1.4074321    1.4074321    1.4074321    1.5845154    1.5845154
:EIG00011:       1.5845154    1.6395171    1.6692052    1.6692052    1.6692052
:EIG00016:       1.9658354    1.9658354    2.7259427    2.7259427    2.7259427
:EIG00021:       3.5409483    3.5409483    3.9039828    4.0135496    4.0135496
:EIG00026:       4.0135496    5.0076726    5.0076726    5.0076726    5.4615769
:EIG00031:       5.4615769    5.4615769    5.5968394    5.5968394    5.5968394
:EIG00036:       5.6717863    5.6717863    5.6717863    5.8427381    5.8427381
:EIG00041:       5.9254111    5.9254111    6.0328327    6.4458960    6.4458960
:EIG00046:       6.4458960    6.4758291    6.4758291    6.4758291    6.9983306
 
:EIG00051:       6.9983306    7.1109754
       ********************************************************

:KPT   :      NUMBER OF K-POINTS:   286

------- epsilon_Pu_5.scfso --------
   0.0   0.0 angle (M,z), angle (M,x) deg
 
        SPIN-ORBIT EIGENVALUES:
     K=   0.00000   0.00000   0.00000            1
      MATRIX SIZE=  104   WEIGHT= 1.00
     EIGENVALUES ARE:
          -1.9512798   -1.9512798   -0.2445542   -0.2445542    0.4626359
           0.4626359    0.4626359    0.4626359    1.1179731    1.1179731
           1.3922790    1.3922790    1.4039985    1.4039985    1.4039985
           1.4039985    1.5742438    1.5742438    1.5742438    1.5742438
           1.6198112    1.6198112    1.6446279    1.6446279    1.6513958
           1.6513958    1.6513958    1.6513958    1.6960298    1.6960298
           1.9686677    1.9686677    1.9686677    1.9686677    2.7211940
           2.7211940    2.7292829    2.7292829    2.7292829    2.7292829

           3.5403865    3.5403865    3.5403865    3.5403865    3.8720374
           3.8720374    3.9039828    3.9039828    4.0814090    4.0814090
           4.0814091    4.0814091
       ********************************************************

------- epsilon_Pu_5.scf2 --------
:GMA  : POTENTIAL AND CHARGE CUT-OFF  12.00 Ry**.5
         Bandranges (emin - emax) and occupancy:
:BAN00008:   8    0.153420    0.462636  1.00000000
:BAN00009:   9    1.117973    1.465045  1.00000000
:BAN00010:  10    1.117973    1.465045  1.00000000
:BAN00011:  11    1.174072    1.475391  1.00000000
:BAN00012:  12    1.174072    1.475391  1.00000000
:BAN00013:  13    1.369622    1.475919  1.00000000
:BAN00014:  14    1.369622    1.475919  1.00000000
:BAN00015:  15    1.403999    1.513839  0.94315426
:BAN00016:  16    1.403999    1.513839  0.94315426
:BAN00017:  17    1.473134    1.574244  0.05684574
:BAN00018:  18    1.473134    1.574244  0.05684574
:BAN00019:  19    1.493295    1.574244  0.00000000
:BAN00020:  20    1.493295    1.574244  0.00000000
:BAN00021:  21    1.559156    1.619811  0.00000000
:BAN00022:  22    1.559156    1.619811  0.00000000
:BAN00023:  23    1.567744    1.644628  0.00000000
        Energy to separate low and high energystates:    1.06797


:NLDA  : NUMBER OF ELECTRONS          =  16.000

:FLDA  : F E R M I - ENERGY           =   1.98449




:POS001: AT.NR.   1 POSITION = 0.00000 0.00000 0.00000  MULTIPLICITY =  1

       LMMAX  5
       LM=   0 0  4 0  4 4  6 0  6 4
:FER DMFT Fermi Energy   1.46633
:EORB    0.14118424
:SUM SUM OF DMFT BAND ENERGIES    7.58312689

:CHA001: TOTAL CHARGE INSIDE SPHERE   1 =    11.646903
:PCS001: PARTIAL CHARGES SPHERE =  1 S,P,D,F,      D-EG,D-T2G 
:QTL001: 1.9648 4.5706 0.6133 4.4948 0.0000 0.0000 0.0000 0.2524 0.3783 0.0000 0.0000 0.0000
        Q-s-low E-s-low   Q-p-low E-p-low   Q-d-low E-d-low   Q-f-low E-f-low
:EPL001:  1.8761 -1.8914    4.4552  0.0275    0.0167  0.1720    0.0073  0.1869
        Q-s-hi  E-s-hi    Q-p-hi  E-p-hi    Q-d-hi  E-d-hi    Q-f-hi  E-f-hi 
:EPH001:  0.0887  1.3126    0.1154  1.3677    0.5967  1.3478    4.4875  1.4351

:CHA  : TOTAL CHARGE INSIDE UNIT CELL =      16.000000

:ESUM  : SUM OF EIGENVALUES =           7.723163729


------- epsilon_Pu_5.scfc --------

        1.ATOM      Pu  0+               21 CORE STATES
:1S 001: 1S               -8966.269233122 Ry
:2S 001: 2S               -1686.943284954 Ry
:2PP001: 2P*              -1627.636653103 Ry
:2P 001: 2P               -1314.485495588 Ry
:3S 001: 3S                -427.485472002 Ry
:3PP001: 3P*               -400.561044940 Ry
:3P 001: 3P                -327.999769530 Ry
:3DD001: 3D*               -285.759714832 Ry
:3D 001: 3D                -271.217502489 Ry
:4S 001: 4S                -108.966759977 Ry
:4PP001: 4P*                -96.778921873 Ry
:4P 001: 4P                 -77.633617936 Ry
:4DD001: 4D*                -58.346223950 Ry
:4D 001: 4D                 -54.851664393 Ry
:5S 001: 5S                 -23.122601511 Ry
:5PP001: 5P*                -18.304704201 Ry
:5P 001: 5P                 -13.615731321 Ry
:4FF001: 4F*                -29.451655271 Ry
:4F 001: 4F                 -28.523594197 Ry
:5DD001: 5D*                 -6.580200311 Ry
:5D 001: 5D                  -5.881112021 Ry

------- epsilon_Pu_5.scfm --------

       DENSITY AT NUCLEUS
        JATOM    VALENCE       SEMI-CORE            CORE           TOTAL
:RTO001:   1    23799.449121        0.000000 45141813.134733 45165612.583854
     
       CHARGES OF NEW CHARGE DENSITY
:NTO  : TOTAL   INTERSTITIAL CHARGE=    4.3530939
:NTO001: TOTAL   CHARGE IN SPHERE  1 =       89.6376434

:NEC01: NUCLEAR AND ELECTRONIC CHARGE     94.00000    93.99074     1.00010
     
       CHARGES OF OLD CHARGE DENSITY
:OTO  : TOTAL   INTERSTITIAL CHARGE=    4.3624157
:OTO001: TOTAL   CHARGE IN SPHERE  1 =       89.6375843

:NEC02: NUCLEAR AND ELECTRONIC CHARGE     94.00000    94.00000     1.00000
     
       CONVERGENCE TEST
:DTO001: TOTAL   DIFFERENCE CHARGE**2 IN SPHERE  1 =  0.0002392

:DIS  :  CHARGE DISTANCE       ( 0.0002392 for atom    1 spin 1)      0.0002392
:BIG check (qbig,qrms,qtot)    0.797D-04   0.169D-03   0.239D-03
 
******************************************************
* MULTISECANT MIXING VER4 OPTIONS                    *
* Unpredicted Step Limit   0.100000                  *
* Plane Wave Dynamic Rescaling                       *
* Dynamic Regularization active                      *
* Upper Cutoff Lambda  1.0E-01 Lower 3.5E-04         *
* SQRT Multiplicity/Degeneracy                       *
* Max Number of Memory Steps    8                    *
******************************************************
 
:PLANE:  INTERSTITIAL TOTAL      1.90935 DISTAN  1.629E-03 % 
:CHARG:  CLM CHARGE   /ATOM    713.22602 DISTAN  1.532E-04 % 
:INFO :  Dynamic rescale   2.774E+01  1.000E-01
:INFO :  Number of Memory Steps    5 Skipping    0
:INFO :  Singular value   4.492E+00 Weight   1.000E+00 Projections   4.384E-03 -1.674E-05
:INFO :  Singular value   3.142E+00 Weight   1.000E+00 Projections   1.176E-02 -1.743E-04
:INFO :  Singular value   1.111E-02 Weight   9.990E-01 Projections   5.779E-03  1.543E-02
:INFO :  Singular value   3.694E-04 Weight   5.269E-01 Projections  -9.873E-03  1.494E-02
:INFO :  Singular value   1.120E-06 Weight   1.023E-05 Projections  -1.315E-02  1.340E-06
:INFO :  Bounds         0.376D+00  0.200D+00  0.326D+00  0.200D+00
:DIRM :  MEMORY 5/8 RESCALE  27.74 RED 0.242 PRED 0.332 NEXT 0.307 COND 8.98E-01
:DIRP :  |BROYD|= 6.013E-04 |PRATT|= 1.725E-04 ANGLE=  10.1 DEGREES
:DIRB :  |BROYD|= 9.144E-04 |PRATT|= 2.784E-04 ANGLE=   9.4 DEGREES
:MIX  :  MSR1   REGULARIZATION: 3.50E-04  GREED: 0.200
     
       CHARGES OF MIXED CHARGE DENSITY
:CTO  : TOTAL   INTERSTITIAL CHARGE=    4.3623438
:CTO001: TOTAL   CHARGE IN SPHERE  1 =       89.6376562

:NEC03: NUCLEAR AND ELECTRONIC CHARGE     94.00000    94.00000     1.00000


:ENE  : ********** TOTAL ENERGY IN Ry =       -59354.74521642


------- epsilon_Pu_5.scf0 --------


            ---------
:ITE101:101. ITERATION
            ---------

:NATO :    1 INDEPENDENT AND    1 TOTAL ATOMS IN UNITCELL
       SUBSTANCE: cubic body-centered  (epsilon Pu)                           

       LATTICE                      = B   
:POT  : POTENTIAL OPTION    5
:LAT  : LATTICE CONSTANTS=  6.40846  6.40846  6.40846    1.571    1.571    1.571
:VOL  : UNIT CELL VOLUME =     131.59253
       MODE OF CALCULATION IS       = RELA
       NON-SPINPOLARIZED CALCULATION
:IFFT  : FFT-parameters:   54   54   54 Factor: 2.00
       ATOMNUMBER=  1 Pu  0+     VCOUL-ZERO =  0.64877E+00
:FIT001: LUSE= 13 SIGMA OF V-XC FIT FOR ATOM  1  0.2596436E-04
:FIT001: LUSE= 13 SIGMA OF V-XC FIT FOR ATOM  1  0.2596436E-04
:DEN  : DENSITY INTEGRAL  =        -21916.03406992   (Ry)
       ELS_POTENTIAL_AT Z=0 and Z=0.5:  -2.64607  -2.64607
       ELS_POTENTIAL_AT Y=0 and Y=0.5:   0.00000   0.00000
:VZERO:v0,v0c,v0x  -3.71892  -2.64607  -1.07285 v5,v5c,v5x  -3.71892  -2.64607  -1.07285
:VZERY:v0,v0c,v0x  -0.97976   0.00000  -0.97976 v5,v5c,v5x  -0.97976   0.00000  -0.97976
:VZERX:v0,v0c,v0x  -0.97976   0.00000  -0.97976 v5,v5c,v5x  -0.97976   0.00000  -0.97976

------- epsilon_Pu_5.scf1 --------

          ATOMIC SPHERE DEPENDENT PARAMETERS FOR ATOM  Pu  0+    
:e__0001: OVERALL ENERGY PARAMETER IS    1.2602
          OVERALL BASIS SET ON ATOM IS LAPW
:E0_0001: E( 0)=    1.2602
             APW+lo
:E0_0001: E( 0)=   -1.9440   E(BOTTOM)=   -2.715   E(TOP)=   -1.173
             LOCAL ORBITAL
:E1_0001: E( 1)=   -1.0160   E(BOTTOM)=   -1.016   E(TOP)= -200.000
             APW+lo
:E1_0001: E( 1)=    1.2602
             LOCAL ORBITAL
:E3_0001: E( 3)=    1.2602   E(BOTTOM)=    1.020   E(TOP)= -200.000
             APW+lo
:E2_0001: E( 2)=    1.2602   E(BOTTOM)=    1.190   E(TOP)= -200.000
             APW+lo

       K=   0.00000   0.00000   0.00000            1
:RKM  : MATRIX SIZE  161LOs:  20  RKM= 8.43  WEIGHT= 1.00  PGR:    
       EIGENVALUES ARE:
:EIG00001:      -1.9512714    0.2460862    0.2460862    0.2460862    1.1179661
:EIG00006:       1.4074347    1.4074347    1.4074347    1.5845216    1.5845216
:EIG00011:       1.5845216    1.6395203    1.6692021    1.6692021    1.6692021
:EIG00016:       1.9658327    1.9658327    2.7259350    2.7259350    2.7259350
:EIG00021:       3.5409440    3.5409440    3.9039778    4.0135434    4.0135434
:EIG00026:       4.0135434    5.0076721    5.0076721    5.0076721    5.4615770
:EIG00031:       5.4615770    5.4615770    5.5968338    5.5968338    5.5968338
:EIG00036:       5.6717824    5.6717824    5.6717824    5.8427328    5.8427328
:EIG00041:       5.9254049    5.9254049    6.0328305    6.4458876    6.4458876
:EIG00046:       6.4458876    6.4758232    6.4758232    6.4758232    6.9983323
 
:EIG00051:       6.9983323    7.1109692
       ********************************************************

:KPT   :      NUMBER OF K-POINTS:   286

------- epsilon_Pu_5.scfso --------
   0.0   0.0 angle (M,z), angle (M,x) deg
 
        SPIN-ORBIT EIGENVALUES:
     K=   0.00000   0.00000   0.00000            1
      MATRIX SIZE=  104   WEIGHT= 1.00
     EIGENVALUES ARE:
          -1.9512714   -1.9512714   -0.2445465   -0.2445465    0.4626415
           0.4626415    0.4626415    0.4626415    1.1179661    1.1179661
           1.3922815    1.3922815    1.4040012    1.4040012    1.4040012
           1.4040012    1.5742497    1.5742497    1.5742498    1.5742498
           1.6198176    1.6198176    1.6446311    1.6446311    1.6513928
           1.6513928    1.6513928    1.6513928    1.6960264    1.6960264
           1.9686649    1.9686649    1.9686649    1.9686649    2.7211862
           2.7211862    2.7292753    2.7292753    2.7292753    2.7292753

           3.5403822    3.5403822    3.5403822    3.5403822    3.8720316
           3.8720316    3.9039778    3.9039778    4.0814027    4.0814027
           4.0814027    4.0814027
       ********************************************************

------- epsilon_Pu_5.scf2 --------
:GMA  : POTENTIAL AND CHARGE CUT-OFF  12.00 Ry**.5
         Bandranges (emin - emax) and occupancy:
:BAN00008:   8    0.153422    0.462641  1.00000000
:BAN00009:   9    1.117966    1.465048  1.00000000
:BAN00010:  10    1.117966    1.465048  1.00000000
:BAN00011:  11    1.174067    1.475396  1.00000000
:BAN00012:  12    1.174067    1.475396  1.00000000
:BAN00013:  13    1.369621    1.475924  1.00000000
:BAN00014:  14    1.369621    1.475924  1.00000000
:BAN00015:  15    1.404001    1.513839  0.94315781
:BAN00016:  16    1.404001    1.513839  0.94315781
:BAN00017:  17    1.473136    1.574250  0.05684219
:BAN00018:  18    1.473136    1.574250  0.05684219
:BAN00019:  19    1.493298    1.574250  0.00000000
:BAN00020:  20    1.493298    1.574250  0.00000000
:BAN00021:  21    1.559160    1.619818  0.00000000
:BAN00022:  22    1.559160    1.619818  0.00000000
:BAN00023:  23    1.567749    1.644631  0.00000000
        Energy to separate low and high energystates:    1.06797


:NLDA  : NUMBER OF ELECTRONS          =  16.000

:FLDA  : F E R M I - ENERGY           =   1.98449




:POS001: AT.NR.   1 POSITION = 0.00000 0.00000 0.00000  MULTIPLICITY =  1

       LMMAX  5
       LM=   0 0  4 0  4 4  6 0  6 4
:FER DMFT Fermi Energy   1.46631
:EORB    0.14133648
:SUM SUM OF DMFT BAND ENERGIES    7.58302562

:CHA001: TOTAL CHARGE INSIDE SPHERE   1 =    11.646992
:PCS001: PARTIAL CHARGES SPHERE =  1 S,P,D,F,      D-EG,D-T2G 
:QTL001: 1.9648 4.5706 0.6133 4.4950 0.0000 0.0000 0.0000 0.2523 0.3782 0.0000 0.0000 0.0000
        Q-s-low E-s-low   Q-p-low E-p-low   Q-d-low E-d-low   Q-f-low E-f-low
:EPL001:  1.8761 -1.8913    4.4551  0.0275    0.0167  0.1720    0.0073  0.1869
        Q-s-hi  E-s-hi    Q-p-hi  E-p-hi    Q-d-hi  E-d-hi    Q-f-hi  E-f-hi 
:EPH001:  0.0887  1.3126    0.1154  1.3677    0.5966  1.3478    4.4877  1.4351

:CHA  : TOTAL CHARGE INSIDE UNIT CELL =      16.000000

:ESUM  : SUM OF EIGENVALUES =           7.723221125


------- epsilon_Pu_5.scfc --------

        1.ATOM      Pu  0+               21 CORE STATES
:1S 001: 1S               -8966.269665026 Ry
:2S 001: 2S               -1686.943677863 Ry
:2PP001: 2P*              -1627.637056150 Ry
:2P 001: 2P               -1314.485888458 Ry
:3S 001: 3S                -427.485778053 Ry
:3PP001: 3P*               -400.561359443 Ry
:3P 001: 3P                -328.000066194 Ry
:3DD001: 3D*               -285.760031943 Ry
:3D 001: 3D                -271.217814262 Ry
:4S 001: 4S                -108.966927387 Ry
:4PP001: 4P*                -96.779091460 Ry
:4P 001: 4P                 -77.633763848 Ry
:4DD001: 4D*                -58.346374323 Ry
:4D 001: 4D                 -54.851808208 Ry
:5S 001: 5S                 -23.122640133 Ry
:5PP001: 5P*                -18.304738826 Ry
:5P 001: 5P                 -13.615752581 Ry
:4FF001: 4F*                -29.451809195 Ry
:4F 001: 4F                 -28.523744835 Ry
:5DD001: 5D*                 -6.580212946 Ry
:5D 001: 5D                  -5.881121781 Ry

------- epsilon_Pu_5.scfm --------

       DENSITY AT NUCLEUS
        JATOM    VALENCE       SEMI-CORE            CORE           TOTAL
:RTO001:   1    23799.386840        0.000000 45141814.494012 45165613.880851
     
       CHARGES OF NEW CHARGE DENSITY
:NTO  : TOTAL   INTERSTITIAL CHARGE=    4.3530054
:NTO001: TOTAL   CHARGE IN SPHERE  1 =       89.6377321

:NEC01: NUCLEAR AND ELECTRONIC CHARGE     94.00000    93.99074     1.00010
     
       CHARGES OF OLD CHARGE DENSITY
:OTO  : TOTAL   INTERSTITIAL CHARGE=    4.3623438
:OTO001: TOTAL   CHARGE IN SPHERE  1 =       89.6376562

:NEC02: NUCLEAR AND ELECTRONIC CHARGE     94.00000    94.00000     1.00000
     
       CONVERGENCE TEST
:DTO001: TOTAL   DIFFERENCE CHARGE**2 IN SPHERE  1 =  0.0000906

:DIS  :  CHARGE DISTANCE       ( 0.0000906 for atom    1 spin 1)      0.0000906
:BIG check (qbig,qrms,qtot)    0.302D-04   0.641D-04   0.906D-04
 
******************************************************
* MULTISECANT MIXING VER4 OPTIONS                    *
* Unpredicted Step Limit   0.100000                  *
* Plane Wave Dynamic Rescaling                       *
* Dynamic Regularization active                      *
* Upper Cutoff Lambda  1.0E-01 Lower 3.5E-04         *
* SQRT Multiplicity/Degeneracy                       *
* Max Number of Memory Steps    8                    *
******************************************************
 
:PLANE:  INTERSTITIAL TOTAL      1.90936 DISTAN  6.860E-04 % 
:CHARG:  CLM CHARGE   /ATOM    713.22576 DISTAN  4.484E-05 % 
:INFO :  Dynamic rescale   2.724E+01  1.000E-01
:INFO :  Number of Memory Steps    6 Skipping    0
:INFO :  Singular value   4.597E+00 Weight   1.000E+00 Projections  -3.547E-03 -1.002E-04
:INFO :  Singular value   3.076E+00 Weight   1.000E+00 Projections   5.758E-04 -1.511E-04
:INFO :  Singular value   1.630E+00 Weight   1.000E+00 Projections   5.184E-03 -9.710E-05
:INFO :  Singular value   7.093E-04 Weight   8.042E-01 Projections  -4.124E-03  9.401E-03
:INFO :  Singular value   4.410E-05 Weight   1.563E-02 Projections   5.383E-03 -3.506E-04
:INFO :  Singular value   8.910E-07 Weight   6.481E-06 Projections  -1.665E-03 -2.254E-08
:INFO :  Bounds         0.400D+00  0.200D+00  0.183D+00  0.183D+00
:DIRM :  MEMORY 6/8 RESCALE  27.24 RED 0.347 PRED 0.307 NEXT 0.548 COND 7.66E-01
:DIRP :  |BROYD|= 7.698E-05 |PRATT|= 6.515E-05 ANGLE=  36.0 DEGREES
:DIRB :  |BROYD|= 1.289E-04 |PRATT|= 8.750E-05 ANGLE=  38.1 DEGREES
:MIX  :  MSR1   REGULARIZATION: 3.50E-04  GREED: 0.183
     
       CHARGES OF MIXED CHARGE DENSITY
:CTO  : TOTAL   INTERSTITIAL CHARGE=    4.3623373
:CTO001: TOTAL   CHARGE IN SPHERE  1 =       89.6376627

:NEC03: NUCLEAR AND ELECTRONIC CHARGE     94.00000    94.00000     1.00000


:ENE  : ********** TOTAL ENERGY IN Ry =       -59354.74521703

