
------- delta_Pu_7.scf0 --------


            ---------
:ITE096: 96. ITERATION
            ---------

:NATO :    1 INDEPENDENT AND    1 TOTAL ATOMS IN UNITCELL
       SUBSTANCE: cubic fcc  (delta)                                          

       LATTICE                      = F   
:POT  : POTENTIAL OPTION    5
:LAT  : LATTICE CONSTANTS=  8.34126  8.34126  8.34126    1.571    1.571    1.571
:VOL  : UNIT CELL VOLUME =     145.08917
       MODE OF CALCULATION IS       = RELA
       NON-SPINPOLARIZED CALCULATION
:IFFT  : FFT-parameters:   64   64   64 Factor: 2.00
       ATOMNUMBER=  1 Pu  0+     VCOUL-ZERO =  0.50360E+00
:FIT001: LUSE= 13 SIGMA OF V-XC FIT FOR ATOM  1  0.1599438E-04
:FIT001: LUSE= 13 SIGMA OF V-XC FIT FOR ATOM  1  0.1599438E-04
:DEN  : DENSITY INTEGRAL  =        -21904.64081567   (Ry)
       ELS_POTENTIAL_AT Z=0 and Z=0.5:  -4.31590  -4.31590
       ELS_POTENTIAL_AT Y=0 and Y=0.5:   0.00000   0.00000
:VZERO:v0,v0c,v0x  -5.56184  -4.31590  -1.24595 v5,v5c,v5x  -5.56184  -4.31590  -1.24595
:VZERY:v0,v0c,v0x  -0.93944   0.00000  -0.93944 v5,v5c,v5x  -0.93944   0.00000  -0.93944
:VZERX:v0,v0c,v0x  -0.93944   0.00000  -0.93944 v5,v5c,v5x  -0.93944   0.00000  -0.93944

------- delta_Pu_7.scf1 --------

          ATOMIC SPHERE DEPENDENT PARAMETERS FOR ATOM  Pu  0+    
:e__0001: OVERALL ENERGY PARAMETER IS    1.1300
          OVERALL BASIS SET ON ATOM IS LAPW
:E0_0001: E( 0)=    1.1300
             APW+lo
:E0_0001: E( 0)=   -2.0785   E(BOTTOM)=   -2.851   E(TOP)=   -1.306
             LOCAL ORBITAL
:E1_0001: E( 1)=   -1.1520   E(BOTTOM)=   -1.152   E(TOP)= -200.000
             APW+lo
:E1_0001: E( 1)=    1.1300
             LOCAL ORBITAL
:E3_0001: E( 3)=    1.1300   E(BOTTOM)=    0.890   E(TOP)= -200.000
             APW+lo
:E2_0001: E( 2)=    1.1300   E(BOTTOM)=    1.050   E(TOP)= -200.000
             APW+lo

       K=   0.00000   0.00000   0.00000            1
:RKM  : MATRIX SIZE  189LOs:  20  RKM= 8.42  WEIGHT= 1.00  PGR:    
       EIGENVALUES ARE:
:EIG00001:      -2.0691499    0.0791137    0.0791137    0.0791137    0.9574757
:EIG00006:       1.2526234    1.3420725    1.3420725    1.3420725    1.4693632
:EIG00011:       1.4693632    1.4693632    1.5093041    1.5093041    1.5093041
:EIG00016:       1.8602675    1.8602675    2.4136395    2.5937675    2.7063797
:EIG00021:       2.7063797    2.7063797    4.1017202    4.1017202    4.1017202
:EIG00026:       4.1658142    4.1658142    4.2963892    4.2963892    4.2963892
:EIG00031:       4.7654783    5.0702439    5.0702439    5.0702439    5.5229102
:EIG00036:       5.5229102    5.5229102    5.7727882    5.7727882    5.7727882
:EIG00041:       5.7906138    5.7906138    6.1314787    6.1314787    6.1314787
:EIG00046:       6.2467126    6.2467126    6.2467126    6.2769878    6.3408441
 
:EIG00051:       6.3408441    6.6604456    6.6604456    6.6604456    6.8460962
:EIG00056:       6.8460962    6.8460962    6.8591604    6.8953187    6.8953187
:EIG00061:       6.8953187    6.9691514
       ********************************************************

:KPT   :      NUMBER OF K-POINTS:   286

------- delta_Pu_7.scfso --------
   0.0   0.0 angle (M,z), angle (M,x) deg
 
        SPIN-ORBIT EIGENVALUES:
     K=   0.00000   0.00000   0.00000            1
      MATRIX SIZE=  124   WEIGHT= 1.00
     EIGENVALUES ARE:
          -2.0691499   -2.0691499   -0.4068398   -0.4068398    0.2890560
           0.2890560    0.2890560    0.2890560    0.9574757    0.9574757
           1.2463766    1.2463766    1.3180457    1.3180457    1.3180457
           1.3180457    1.3709810    1.3709810    1.4617665    1.4617665
           1.4846849    1.4846849    1.4846849    1.4846849    1.4937217
           1.4937217    1.4937217    1.4937217    1.5325468    1.5325468
           1.8625141    1.8625141    1.8625141    1.8625141    2.4145235
           2.4145235    2.5937675    2.5937675    2.6994803    2.6994803

           2.7097816    2.7097816    2.7097816    2.7097816    4.0619815
           4.0619815    4.0777986    4.0777986    4.0777986    4.0777986
           4.1336795    4.1336795    4.1734571    4.1734571    4.1734571
           4.1734571    4.4159711    4.4159711    4.4159712    4.4159712

       ********************************************************

------- delta_Pu_7.scf2 --------
:GMA  : POTENTIAL AND CHARGE CUT-OFF  12.00 Ry**.5
         Bandranges (emin - emax) and occupancy:
:BAN00008:   8    0.092943    0.289056  1.00000000
:BAN00009:   9    0.957476    1.240845  1.00000000
:BAN00010:  10    0.957476    1.240845  1.00000000
:BAN00011:  11    1.135226    1.310066  1.00000000
:BAN00012:  12    1.135226    1.310066  1.00000000
:BAN00013:  13    1.270987    1.348563  1.00000000
:BAN00014:  14    1.270987    1.348563  1.00000000
:BAN00015:  15    1.318046    1.362724  0.99994193
:BAN00016:  16    1.318046    1.362724  0.99994193
:BAN00017:  17    1.361507    1.417720  0.00006197
:BAN00018:  18    1.361507    1.417720  0.00006197
:BAN00019:  19    1.387108    1.461766  0.00000000
:BAN00020:  20    1.387108    1.461766  0.00000000
:BAN00021:  21    1.406028    1.484685  0.00000000
:BAN00022:  22    1.406028    1.484685  0.00000000
:BAN00023:  23    1.434850    1.484685  0.00000000
        Energy to separate low and high energystates:    0.90748


:NLDA  : NUMBER OF ELECTRONS          =  16.000

:FLDA  : F E R M I - ENERGY           =   1.86156




:POS001: AT.NR.   1 POSITION = 0.00000 0.00000 0.00000  MULTIPLICITY =  1

       LMMAX  5
       LM=   0 0  4 0  4 4  6 0  6 4
:FER DMFT Fermi Energy   1.33005
:EORB    0.16542104
:SUM SUM OF DMFT BAND ENERGIES    5.47094733

:CHA001: TOTAL CHARGE INSIDE SPHERE   1 =    11.599760
:PCS001: PARTIAL CHARGES SPHERE =  1 S,P,D,F,      D-EG,D-T2G 
:QTL001: 1.9688 4.5766 0.5278 4.5249 0.0000 0.0000 0.0000 0.1968 0.3432 0.0000 0.0000 0.0000
        Q-s-low E-s-low   Q-p-low E-p-low   Q-d-low E-d-low   Q-f-low E-f-low
:EPL001:  1.8740 -2.0280    4.4596 -0.1069    0.0101  0.0509    0.0041  0.0473
        Q-s-hi  E-s-hi    Q-p-hi  E-p-hi    Q-d-hi  E-d-hi    Q-f-hi  E-f-hi 
:EPH001:  0.0948  1.1717    0.1169  1.2279    0.5176  1.2112    4.5208  1.3152

:CHA  : TOTAL CHARGE INSIDE UNIT CELL =      16.000000

:ESUM  : SUM OF EIGENVALUES =           5.656783281


------- delta_Pu_7.scfc --------

        1.ATOM      Pu  0+               21 CORE STATES
:1S 001: 1S               -8966.390435044 Ry
:2S 001: 2S               -1687.063431125 Ry
:2PP001: 2P*              -1627.757187836 Ry
:2P 001: 2P               -1314.605658114 Ry
:3S 001: 3S                -427.602892369 Ry
:3PP001: 3P*               -400.678620296 Ry
:3P 001: 3P                -328.117170974 Ry
:3DD001: 3D*               -285.877419093 Ry
:3D 001: 3D                -271.335103573 Ry
:4S 001: 4S                -109.085111986 Ry
:4PP001: 4P*                -96.897277885 Ry
:4P 001: 4P                 -77.752214877 Ry
:4DD001: 4D*                -58.464801467 Ry
:4D 001: 4D                 -54.970302742 Ry
:5S 001: 5S                 -23.243039952 Ry
:5PP001: 5P*                -18.425485223 Ry
:5P 001: 5P                 -13.737685073 Ry
:4FF001: 4F*                -29.569913160 Ry
:4F 001: 4F                 -28.641890540 Ry
:5DD001: 5D*                 -6.703768164 Ry
:5D 001: 5D                  -6.005216014 Ry

------- delta_Pu_7.scfm --------

       DENSITY AT NUCLEUS
        JATOM    VALENCE       SEMI-CORE            CORE           TOTAL
:RTO001:   1    23844.033322        0.000000 45141803.084162 45165647.117484
     
       CHARGES OF NEW CHARGE DENSITY
:NTO  : TOTAL   INTERSTITIAL CHARGE=    4.4002378
:NTO001: TOTAL   CHARGE IN SPHERE  1 =       89.5904542

:NEC01: NUCLEAR AND ELECTRONIC CHARGE     94.00000    93.99069     1.00010
     
       CHARGES OF OLD CHARGE DENSITY
:OTO  : TOTAL   INTERSTITIAL CHARGE=    4.4026319
:OTO001: TOTAL   CHARGE IN SPHERE  1 =       89.5973681

:NEC02: NUCLEAR AND ELECTRONIC CHARGE     94.00000    94.00000     1.00000
     
       CONVERGENCE TEST
:DTO001: TOTAL   DIFFERENCE CHARGE**2 IN SPHERE  1 =  0.0071168

:DIS  :  CHARGE DISTANCE       ( 0.0071168 for atom    1 spin 1)      0.0071168
:BIG check (qbig,qrms,qtot)    0.237D-02   0.503D-02   0.712D-02
 
******************************************************
* MULTISECANT MIXING VER4 OPTIONS                    *
* Unpredicted Step Limit   0.100000                  *
* Plane Wave Dynamic Rescaling                       *
* Dynamic Regularization active                      *
* Upper Cutoff Lambda  1.0E-01 Lower 3.5E-04         *
* SQRT Multiplicity/Degeneracy                       *
* Max Number of Memory Steps    8                    *
******************************************************
 
:PLANE:  INTERSTITIAL TOTAL      1.90615 DISTAN  4.647E-02 % 
:CHARG:  CLM CHARGE   /ATOM    713.22803 DISTAN  3.604E-03 % 
:MIX  :  PRATT  REGULARIZATION: 3.50E-04  GREED: 0.035
     
       CHARGES OF MIXED CHARGE DENSITY
:CTO  : TOTAL   INTERSTITIAL CHARGE=    4.4028739
:CTO001: TOTAL   CHARGE IN SPHERE  1 =       89.5971261

:NEC03: NUCLEAR AND ELECTRONIC CHARGE     94.00000    94.00000     1.00000


:ENE  : ********** TOTAL ENERGY IN Ry =       -59354.74461903


------- delta_Pu_7.scf0 --------


            ---------
:ITE097: 97. ITERATION
            ---------

:NATO :    1 INDEPENDENT AND    1 TOTAL ATOMS IN UNITCELL
       SUBSTANCE: cubic fcc  (delta)                                          

       LATTICE                      = F   
:POT  : POTENTIAL OPTION    5
:LAT  : LATTICE CONSTANTS=  8.34126  8.34126  8.34126    1.571    1.571    1.571
:VOL  : UNIT CELL VOLUME =     145.08917
       MODE OF CALCULATION IS       = RELA
       NON-SPINPOLARIZED CALCULATION
:IFFT  : FFT-parameters:   64   64   64 Factor: 2.00
       ATOMNUMBER=  1 Pu  0+     VCOUL-ZERO =  0.50360E+00
:FIT001: LUSE= 13 SIGMA OF V-XC FIT FOR ATOM  1  0.1603133E-04
:FIT001: LUSE= 13 SIGMA OF V-XC FIT FOR ATOM  1  0.1603133E-04
:DEN  : DENSITY INTEGRAL  =        -21904.61106692   (Ry)
       ELS_POTENTIAL_AT Z=0 and Z=0.5:  -4.31603  -4.31603
       ELS_POTENTIAL_AT Y=0 and Y=0.5:   0.00000   0.00000
:VZERO:v0,v0c,v0x  -5.56198  -4.31603  -1.24594 v5,v5c,v5x  -5.56198  -4.31603  -1.24594
:VZERY:v0,v0c,v0x  -0.93945   0.00000  -0.93945 v5,v5c,v5x  -0.93945   0.00000  -0.93945
:VZERX:v0,v0c,v0x  -0.93945   0.00000  -0.93945 v5,v5c,v5x  -0.93945   0.00000  -0.93945

------- delta_Pu_7.scf1 --------

          ATOMIC SPHERE DEPENDENT PARAMETERS FOR ATOM  Pu  0+    
:e__0001: OVERALL ENERGY PARAMETER IS    1.1300
          OVERALL BASIS SET ON ATOM IS LAPW
:E0_0001: E( 0)=    1.1300
             APW+lo
:E0_0001: E( 0)=   -2.0785   E(BOTTOM)=   -2.851   E(TOP)=   -1.306
             LOCAL ORBITAL
:E1_0001: E( 1)=   -1.1520   E(BOTTOM)=   -1.152   E(TOP)= -200.000
             APW+lo
:E1_0001: E( 1)=    1.1300
             LOCAL ORBITAL
:E3_0001: E( 3)=    1.1300   E(BOTTOM)=    0.890   E(TOP)= -200.000
             APW+lo
:E2_0001: E( 2)=    1.1300   E(BOTTOM)=    1.050   E(TOP)= -200.000
             APW+lo

       K=   0.00000   0.00000   0.00000            1
:RKM  : MATRIX SIZE  189LOs:  20  RKM= 8.42  WEIGHT= 1.00  PGR:    
       EIGENVALUES ARE:
:EIG00001:      -2.0692725    0.0790265    0.0790265    0.0790265    0.9574756
:EIG00006:       1.2525131    1.3419341    1.3419341    1.3419341    1.4691931
:EIG00011:       1.4691931    1.4691931    1.5092912    1.5092912    1.5092912
:EIG00016:       1.8602391    1.8602391    2.4135852    2.5937969    2.7063468
:EIG00021:       2.7063468    2.7063468    4.1016928    4.1016928    4.1016928
:EIG00026:       4.1658011    4.1658011    4.2963704    4.2963704    4.2963704
:EIG00031:       4.7654777    5.0702105    5.0702105    5.0702105    5.5228866
:EIG00036:       5.5228866    5.5228866    5.7727571    5.7727571    5.7727571
:EIG00041:       5.7905788    5.7905788    6.1314698    6.1314698    6.1314698
:EIG00046:       6.2467235    6.2467235    6.2467235    6.2769704    6.3408629
 
:EIG00051:       6.3408629    6.6604512    6.6604512    6.6604512    6.8460450
:EIG00056:       6.8460450    6.8460450    6.8591858    6.8953433    6.8953433
:EIG00061:       6.8953433    6.9691272
       ********************************************************

:KPT   :      NUMBER OF K-POINTS:   286

------- delta_Pu_7.scfso --------
   0.0   0.0 angle (M,z), angle (M,x) deg
 
        SPIN-ORBIT EIGENVALUES:
     K=   0.00000   0.00000   0.00000            1
      MATRIX SIZE=  124   WEIGHT= 1.00
     EIGENVALUES ARE:
          -2.0692725   -2.0692725   -0.4069419   -0.4069419    0.2889757
           0.2889757    0.2889757    0.2889757    0.9574756    0.9574756
           1.2462631    1.2462631    1.3179019    1.3179019    1.3179019
           1.3179019    1.3708469    1.3708469    1.4615990    1.4615990
           1.4845184    1.4845184    1.4845184    1.4845184    1.4937077
           1.4937077    1.4937077    1.4937077    1.5325350    1.5325350
           1.8624860    1.8624860    1.8624860    1.8624860    2.4144690
           2.4144690    2.5937969    2.5937969    2.6994457    2.6994457

           2.7097493    2.7097493    2.7097493    2.7097493    4.0619578
           4.0619578    4.0777715    4.0777715    4.0777715    4.0777715
           4.1336532    4.1336532    4.1734432    4.1734432    4.1734432
           4.1734432    4.4159558    4.4159558    4.4159558    4.4159558

       ********************************************************

------- delta_Pu_7.scf2 --------
:GMA  : POTENTIAL AND CHARGE CUT-OFF  12.00 Ry**.5
         Bandranges (emin - emax) and occupancy:
:BAN00008:   8    0.092883    0.288976  1.00000000
:BAN00009:   9    0.957476    1.240787  1.00000000
:BAN00010:  10    0.957476    1.240787  1.00000000
:BAN00011:  11    1.135226    1.309933  1.00000000
:BAN00012:  12    1.135226    1.309933  1.00000000
:BAN00013:  13    1.270903    1.348409  1.00000000
:BAN00014:  14    1.270903    1.348409  1.00000000
:BAN00015:  15    1.317902    1.362576  0.99994009
:BAN00016:  16    1.317902    1.362576  0.99994009
:BAN00017:  17    1.361349    1.417576  0.00005794
:BAN00018:  18    1.361349    1.417576  0.00005794
:BAN00019:  19    1.386988    1.461599  0.00000000
:BAN00020:  20    1.386988    1.461599  0.00000000
:BAN00021:  21    1.405903    1.484518  0.00000000
:BAN00022:  22    1.405903    1.484518  0.00000000
:BAN00023:  23    1.434701    1.484518  0.00000000
        Energy to separate low and high energystates:    0.90748


:NLDA  : NUMBER OF ELECTRONS          =  16.000

:FLDA  : F E R M I - ENERGY           =   1.86140




:POS001: AT.NR.   1 POSITION = 0.00000 0.00000 0.00000  MULTIPLICITY =  1

       LMMAX  5
       LM=   0 0  4 0  4 4  6 0  6 4
:FER DMFT Fermi Energy   1.33010
:EORB    0.16418103
:SUM SUM OF DMFT BAND ENERGIES    5.47064802

:CHA001: TOTAL CHARGE INSIDE SPHERE   1 =    11.599807
:PCS001: PARTIAL CHARGES SPHERE =  1 S,P,D,F,      D-EG,D-T2G 
:QTL001: 1.9688 4.5767 0.5279 4.5247 0.0000 0.0000 0.0000 0.1969 0.3432 0.0000 0.0000 0.0000
        Q-s-low E-s-low   Q-p-low E-p-low   Q-d-low E-d-low   Q-f-low E-f-low
:EPL001:  1.8740 -2.0281    4.4598 -0.1070    0.0101  0.0509    0.0041  0.0472
        Q-s-hi  E-s-hi    Q-p-hi  E-p-hi    Q-d-hi  E-d-hi    Q-f-hi  E-f-hi 
:EPH001:  0.0948  1.1717    0.1169  1.2278    0.5178  1.2112    4.5205  1.3151

:CHA  : TOTAL CHARGE INSIDE UNIT CELL =      16.000000

:ESUM  : SUM OF EIGENVALUES =           5.655326019


------- delta_Pu_7.scfc --------

        1.ATOM      Pu  0+               21 CORE STATES
:1S 001: 1S               -8966.390871100 Ry
:2S 001: 2S               -1687.063863795 Ry
:2PP001: 2P*              -1627.757621449 Ry
:2P 001: 2P               -1314.606090752 Ry
:3S 001: 3S                -427.603309939 Ry
:3PP001: 3P*               -400.679039767 Ry
:3P 001: 3P                -328.117585771 Ry
:3DD001: 3D*               -285.877839119 Ry
:3D 001: 3D                -271.335522382 Ry
:4S 001: 4S                -109.085481894 Ry
:4PP001: 4P*                -96.897648411 Ry
:4P 001: 4P                 -77.752575991 Ry
:4DD001: 4D*                -58.465164036 Ry
:4D 001: 4D                 -54.970662612 Ry
:5S 001: 5S                 -23.243338349 Ry
:5PP001: 5P*                -18.425778228 Ry
:5P 001: 5P                 -13.737959966 Ry
:4FF001: 4F*                -29.570277723 Ry
:4F 001: 4F                 -28.642253741 Ry
:5DD001: 5D*                 -6.704023511 Ry
:5D 001: 5D                  -6.005464774 Ry

------- delta_Pu_7.scfm --------

       DENSITY AT NUCLEUS
        JATOM    VALENCE       SEMI-CORE            CORE           TOTAL
:RTO001:   1    23844.660874        0.000000 45141803.694808 45165648.355682
     
       CHARGES OF NEW CHARGE DENSITY
:NTO  : TOTAL   INTERSTITIAL CHARGE=    4.4001902
:NTO001: TOTAL   CHARGE IN SPHERE  1 =       89.5905028

:NEC01: NUCLEAR AND ELECTRONIC CHARGE     94.00000    93.99069     1.00010
     
       CHARGES OF OLD CHARGE DENSITY
:OTO  : TOTAL   INTERSTITIAL CHARGE=    4.4028739
:OTO001: TOTAL   CHARGE IN SPHERE  1 =       89.5971261

:NEC02: NUCLEAR AND ELECTRONIC CHARGE     94.00000    94.00000     1.00000
     
       CONVERGENCE TEST
:DTO001: TOTAL   DIFFERENCE CHARGE**2 IN SPHERE  1 =  0.0068032

:DIS  :  CHARGE DISTANCE       ( 0.0068032 for atom    1 spin 1)      0.0068032
:BIG check (qbig,qrms,qtot)    0.227D-02   0.481D-02   0.680D-02
 
******************************************************
* MULTISECANT MIXING VER4 OPTIONS                    *
* Unpredicted Step Limit   0.100000                  *
* Plane Wave Dynamic Rescaling                       *
* Dynamic Regularization active                      *
* Upper Cutoff Lambda  1.0E-01 Lower 3.5E-04         *
* SQRT Multiplicity/Degeneracy                       *
* Max Number of Memory Steps    8                    *
******************************************************
 
:PLANE:  INTERSTITIAL TOTAL      1.90617 DISTAN  4.489E-02 % 
:CHARG:  CLM CHARGE   /ATOM    713.22790 DISTAN  3.386E-03 % 
:INFO :  Dynamic rescale   2.862E+01  1.000E-01
:INFO :  Number of Memory Steps    1 Skipping    0
:INFO :  Bounds         0.367D-01  0.200D+00  0.153D+00  0.367D-01
:DIRM :  MEMORY 1/8 RESCALE  28.62 RED 0.953 PRED 1.000 NEXT 0.655 COND 1.00E+00
:DIRP :  |BROYD|= 1.089E-02 |PRATT|= 8.997E-04 ANGLE=   0.1 DEGREES
:DIRB :  |BROYD|= 1.529E-02 |PRATT|= 1.264E-03 ANGLE=   0.1 DEGREES
:MIX  :  MSR1   REGULARIZATION: 3.50E-04  GREED: 0.037
     
       CHARGES OF MIXED CHARGE DENSITY
:CTO  : TOTAL   INTERSTITIAL CHARGE=    4.4058189
:CTO001: TOTAL   CHARGE IN SPHERE  1 =       89.5941811

:NEC03: NUCLEAR AND ELECTRONIC CHARGE     94.00000    94.00000     1.00000


:ENE  : ********** TOTAL ENERGY IN Ry =       -59354.74469519


------- delta_Pu_7.scf0 --------


            ---------
:ITE098: 98. ITERATION
            ---------

:NATO :    1 INDEPENDENT AND    1 TOTAL ATOMS IN UNITCELL
       SUBSTANCE: cubic fcc  (delta)                                          

       LATTICE                      = F   
:POT  : POTENTIAL OPTION    5
:LAT  : LATTICE CONSTANTS=  8.34126  8.34126  8.34126    1.571    1.571    1.571
:VOL  : UNIT CELL VOLUME =     145.08917
       MODE OF CALCULATION IS       = RELA
       NON-SPINPOLARIZED CALCULATION
:IFFT  : FFT-parameters:   64   64   64 Factor: 2.00
       ATOMNUMBER=  1 Pu  0+     VCOUL-ZERO =  0.50366E+00
:FIT001: LUSE= 13 SIGMA OF V-XC FIT FOR ATOM  1  0.1647771E-04
:FIT001: LUSE= 13 SIGMA OF V-XC FIT FOR ATOM  1  0.1647771E-04
:DEN  : DENSITY INTEGRAL  =        -21904.25887656   (Ry)
       ELS_POTENTIAL_AT Z=0 and Z=0.5:  -4.31773  -4.31773
       ELS_POTENTIAL_AT Y=0 and Y=0.5:   0.00000   0.00000
:VZERO:v0,v0c,v0x  -5.56366  -4.31773  -1.24593 v5,v5c,v5x  -5.56366  -4.31773  -1.24593
:VZERY:v0,v0c,v0x  -0.93958   0.00000  -0.93958 v5,v5c,v5x  -0.93958   0.00000  -0.93958
:VZERX:v0,v0c,v0x  -0.93958   0.00000  -0.93958 v5,v5c,v5x  -0.93958   0.00000  -0.93958

------- delta_Pu_7.scf1 --------

          ATOMIC SPHERE DEPENDENT PARAMETERS FOR ATOM  Pu  0+    
:e__0001: OVERALL ENERGY PARAMETER IS    1.1300
          OVERALL BASIS SET ON ATOM IS LAPW
:E0_0001: E( 0)=    1.1300
             APW+lo
:E0_0001: E( 0)=   -2.0800   E(BOTTOM)=   -2.852   E(TOP)=   -1.308
             LOCAL ORBITAL
:E1_0001: E( 1)=   -1.1540   E(BOTTOM)=   -1.154   E(TOP)= -200.000
             APW+lo
:E1_0001: E( 1)=    1.1300
             LOCAL ORBITAL
:E3_0001: E( 3)=    1.1300   E(BOTTOM)=    0.885   E(TOP)= -200.000
             APW+lo
:E2_0001: E( 2)=    1.1300   E(BOTTOM)=    1.050   E(TOP)= -200.000
             APW+lo

       K=   0.00000   0.00000   0.00000            1
:RKM  : MATRIX SIZE  189LOs:  20  RKM= 8.42  WEIGHT= 1.00  PGR:    
       EIGENVALUES ARE:
:EIG00001:      -2.0707481    0.0779763    0.0779763    0.0779763    0.9574797
:EIG00006:       1.2511869    1.3402723    1.3402723    1.3402723    1.4671489
:EIG00011:       1.4671489    1.4671489    1.5091382    1.5091382    1.5091382
:EIG00016:       1.8598998    1.8598998    2.4129389    2.5941558    2.7059570
:EIG00021:       2.7059570    2.7059570    4.1013659    4.1013659    4.1013659
:EIG00026:       4.1656459    4.1656459    4.2961498    4.2961498    4.2961498
:EIG00031:       4.7654761    5.0698140    5.0698140    5.0698140    5.5226025
:EIG00036:       5.5226025    5.5226025    5.7723839    5.7723839    5.7723839
:EIG00041:       5.7901606    5.7901606    6.1313732    6.1313732    6.1313732
:EIG00046:       6.2468581    6.2468581    6.2468581    6.2767633    6.3410916
 
:EIG00051:       6.3410916    6.6605233    6.6605233    6.6605233    6.8454338
:EIG00056:       6.8454338    6.8454338    6.8594965    6.8956427    6.8956427
:EIG00061:       6.8956427    6.9688459
       ********************************************************

:KPT   :      NUMBER OF K-POINTS:   286

------- delta_Pu_7.scfso --------
   0.0   0.0 angle (M,z), angle (M,x) deg
 
        SPIN-ORBIT EIGENVALUES:
     K=   0.00000   0.00000   0.00000            1
      MATRIX SIZE=  124   WEIGHT= 1.00
     EIGENVALUES ARE:
          -2.0707481   -2.0707481   -0.4081697   -0.4081697    0.2880096
           0.2880096    0.2880096    0.2880096    0.9574797    0.9574797
           1.2448983    1.2448983    1.3161749    1.3161749    1.3161749
           1.3161749    1.3692372    1.3692372    1.4595870    1.4595870
           1.4825184    1.4825184    1.4825184    1.4825184    1.4935424
           1.4935424    1.4935424    1.4935424    1.5323954    1.5323954
           1.8621511    1.8621511    1.8621511    1.8621511    2.4138203
           2.4138203    2.5941558    2.5941558    2.6990365    2.6990365

           2.7093683    2.7093683    2.7093683    2.7093683    4.0616850
           4.0616850    4.0774481    4.0774481    4.0774481    4.0774481
           4.1333385    4.1333385    4.1732787    4.1732787    4.1732787
           4.1732787    4.4157744    4.4157744    4.4157744    4.4157744

       ********************************************************

------- delta_Pu_7.scf2 --------
:GMA  : POTENTIAL AND CHARGE CUT-OFF  12.00 Ry**.5
         Bandranges (emin - emax) and occupancy:
:BAN00008:   8    0.092157    0.288010  1.00000000
:BAN00009:   9    0.957480    1.240096  1.00000000
:BAN00010:  10    0.957480    1.240096  1.00000000
:BAN00011:  11    1.135230    1.308334  1.00000000
:BAN00012:  12    1.135230    1.308334  1.00000000
:BAN00013:  13    1.269889    1.346552  1.00000000
:BAN00014:  14    1.269889    1.346552  1.00000000
:BAN00015:  15    1.316175    1.360804  0.99992055
:BAN00016:  16    1.316175    1.360804  0.99992055
:BAN00017:  17    1.359462    1.415849  0.00007945
:BAN00018:  18    1.359462    1.415849  0.00007945
:BAN00019:  19    1.385544    1.459587  0.00000000
:BAN00020:  20    1.385544    1.459587  0.00000000
:BAN00021:  21    1.404390    1.482518  0.00000000
:BAN00022:  22    1.404390    1.482518  0.00000000
:BAN00023:  23    1.432909    1.482518  0.00000000
        Energy to separate low and high energystates:    0.90748


:NLDA  : NUMBER OF ELECTRONS          =  16.000

:FLDA  : F E R M I - ENERGY           =   1.85952




:POS001: AT.NR.   1 POSITION = 0.00000 0.00000 0.00000  MULTIPLICITY =  1

       LMMAX  5
       LM=   0 0  4 0  4 4  6 0  6 4
:FER DMFT Fermi Energy   1.32952
:EORB    0.15818425
:SUM SUM OF DMFT BAND ENERGIES    5.45890023

:CHA001: TOTAL CHARGE INSIDE SPHERE   1 =    11.606774
:PCS001: PARTIAL CHARGES SPHERE =  1 S,P,D,F,      D-EG,D-T2G 
:QTL001: 1.9689 4.5777 0.5271 4.5314 0.0000 0.0000 0.0000 0.1967 0.3426 0.0000 0.0000 0.0000
        Q-s-low E-s-low   Q-p-low E-p-low   Q-d-low E-d-low   Q-f-low E-f-low
:EPL001:  1.8741 -2.0297    4.4611 -0.1078    0.0101  0.0501    0.0041  0.0464
        Q-s-hi  E-s-hi    Q-p-hi  E-p-hi    Q-d-hi  E-d-hi    Q-f-hi  E-f-hi 
:EPH001:  0.0947  1.1713    0.1166  1.2270    0.5170  1.2107    4.5273  1.3136

:CHA  : TOTAL CHARGE INSIDE UNIT CELL =      15.999999

:ESUM  : SUM OF EIGENVALUES =           5.638003534


------- delta_Pu_7.scfc --------

        1.ATOM      Pu  0+               21 CORE STATES
:1S 001: 1S               -8966.395974383 Ry
:2S 001: 2S               -1687.068939671 Ry
:2PP001: 2P*              -1627.762705279 Ry
:2P 001: 2P               -1314.611166222 Ry
:3S 001: 3S                -427.608229123 Ry
:3PP001: 3P*               -400.683979536 Ry
:3P 001: 3P                -328.122473902 Ry
:3DD001: 3D*               -285.882784941 Ry
:3D 001: 3D                -271.340454999 Ry
:4S 001: 4S                -109.089861287 Ry
:4PP001: 4P*                -96.902034725 Ry
:4P 001: 4P                 -77.756855301 Ry
:4DD001: 4D*                -58.469459804 Ry
:4D 001: 4D                 -54.974927746 Ry
:5S 001: 5S                 -23.246900087 Ry
:5PP001: 5P*                -18.429277054 Ry
:5P 001: 5P                 -13.741247333 Ry
:4FF001: 4F*                -29.574597295 Ry
:4F 001: 4F                 -28.646557805 Ry
:5DD001: 5D*                 -6.707080472 Ry
:5D 001: 5D                  -6.008444050 Ry

------- delta_Pu_7.scfm --------

       DENSITY AT NUCLEUS
        JATOM    VALENCE       SEMI-CORE            CORE           TOTAL
:RTO001:   1    23849.880398        0.000000 45141810.616806 45165660.497204
     
       CHARGES OF NEW CHARGE DENSITY
:NTO  : TOTAL   INTERSTITIAL CHARGE=    4.3932218
:NTO001: TOTAL   CHARGE IN SPHERE  1 =       89.5974819

:NEC01: NUCLEAR AND ELECTRONIC CHARGE     94.00000    93.99070     1.00010
     
       CHARGES OF OLD CHARGE DENSITY
:OTO  : TOTAL   INTERSTITIAL CHARGE=    4.4058189
:OTO001: TOTAL   CHARGE IN SPHERE  1 =       89.5941811

:NEC02: NUCLEAR AND ELECTRONIC CHARGE     94.00000    94.00000     1.00000
     
       CONVERGENCE TEST
:DTO001: TOTAL   DIFFERENCE CHARGE**2 IN SPHERE  1 =  0.0038743

:DIS  :  CHARGE DISTANCE       ( 0.0038743 for atom    1 spin 1)      0.0038743
:BIG check (qbig,qrms,qtot)    0.129D-02   0.274D-02   0.387D-02
 
******************************************************
* MULTISECANT MIXING VER4 OPTIONS                    *
* Unpredicted Step Limit   0.100000                  *
* Plane Wave Dynamic Rescaling                       *
* Dynamic Regularization active                      *
* Upper Cutoff Lambda  1.0E-01 Lower 3.5E-04         *
* SQRT Multiplicity/Degeneracy                       *
* Max Number of Memory Steps    8                    *
******************************************************
 
:PLANE:  INTERSTITIAL TOTAL      1.90636 DISTAN  3.006E-02 % 
:CHARG:  CLM CHARGE   /ATOM    713.22647 DISTAN  1.758E-03 % 
:INFO :  Dynamic rescale   2.618E+01  1.000E-01
:INFO :  Number of Memory Steps    2 Skipping    0
:INFO :  Singular value   2.664E+00 Weight   9.901E-01 Projections   3.969E-03 -5.611E-03
:INFO :  Singular value   5.899E-04 Weight   4.905E-06 Projections   3.966E-03  1.537E-06
:INFO :  Bounds         0.619D-01  0.200D+00  0.117D+00  0.619D-01
:DIRM :  MEMORY 2/8 RESCALE  26.18 RED 0.593 PRED 0.655 NEXT 0.857 COND 1.34E+00
:DIRP :  |BROYD|= 1.995E-03 |PRATT|= 9.285E-04 ANGLE=  63.0 DEGREES
:DIRB :  |BROYD|= 2.830E-03 |PRATT|= 1.210E-03 ANGLE=  67.8 DEGREES
:MIX  :  MSR1   REGULARIZATION: 2.66E-01  GREED: 0.062
     
       CHARGES OF MIXED CHARGE DENSITY
:CTO  : TOTAL   INTERSTITIAL CHARGE=    4.4051280
:CTO001: TOTAL   CHARGE IN SPHERE  1 =       89.5948720

:NEC03: NUCLEAR AND ELECTRONIC CHARGE     94.00000    94.00000     1.00000


:ENE  : ********** TOTAL ENERGY IN Ry =       -59354.74487325


------- delta_Pu_7.scf0 --------


            ---------
:ITE099: 99. ITERATION
            ---------

:NATO :    1 INDEPENDENT AND    1 TOTAL ATOMS IN UNITCELL
       SUBSTANCE: cubic fcc  (delta)                                          

       LATTICE                      = F   
:POT  : POTENTIAL OPTION    5
:LAT  : LATTICE CONSTANTS=  8.34126  8.34126  8.34126    1.571    1.571    1.571
:VOL  : UNIT CELL VOLUME =     145.08917
       MODE OF CALCULATION IS       = RELA
       NON-SPINPOLARIZED CALCULATION
:IFFT  : FFT-parameters:   64   64   64 Factor: 2.00
       ATOMNUMBER=  1 Pu  0+     VCOUL-ZERO =  0.50365E+00
:FIT001: LUSE= 13 SIGMA OF V-XC FIT FOR ATOM  1  0.1641458E-04
:FIT001: LUSE= 13 SIGMA OF V-XC FIT FOR ATOM  1  0.1641458E-04
:DEN  : DENSITY INTEGRAL  =        -21904.35084175   (Ry)
       ELS_POTENTIAL_AT Z=0 and Z=0.5:  -4.31735  -4.31735
       ELS_POTENTIAL_AT Y=0 and Y=0.5:   0.00000   0.00000
:VZERO:v0,v0c,v0x  -5.56327  -4.31735  -1.24593 v5,v5c,v5x  -5.56327  -4.31735  -1.24593
:VZERY:v0,v0c,v0x  -0.93955   0.00000  -0.93955 v5,v5c,v5x  -0.93955   0.00000  -0.93955
:VZERX:v0,v0c,v0x  -0.93955   0.00000  -0.93955 v5,v5c,v5x  -0.93955   0.00000  -0.93955

------- delta_Pu_7.scf1 --------

          ATOMIC SPHERE DEPENDENT PARAMETERS FOR ATOM  Pu  0+    
:e__0001: OVERALL ENERGY PARAMETER IS    1.1300
          OVERALL BASIS SET ON ATOM IS LAPW
:E0_0001: E( 0)=    1.1300
             APW+lo
:E0_0001: E( 0)=   -2.0795   E(BOTTOM)=   -2.852   E(TOP)=   -1.307
             LOCAL ORBITAL
:E1_0001: E( 1)=   -1.1540   E(BOTTOM)=   -1.154   E(TOP)= -200.000
             APW+lo
:E1_0001: E( 1)=    1.1300
             LOCAL ORBITAL
:E3_0001: E( 3)=    1.1300   E(BOTTOM)=    0.885   E(TOP)= -200.000
             APW+lo
:E2_0001: E( 2)=    1.1300   E(BOTTOM)=    1.050   E(TOP)= -200.000
             APW+lo

       K=   0.00000   0.00000   0.00000            1
:RKM  : MATRIX SIZE  189LOs:  20  RKM= 8.42  WEIGHT= 1.00  PGR:    
       EIGENVALUES ARE:
:EIG00001:      -2.0703826    0.0782364    0.0782364    0.0782364    0.9574814
:EIG00006:       1.2515195    1.3406853    1.3406853    1.3406853    1.4676591
:EIG00011:       1.4676591    1.4676591    1.5091795    1.5091795    1.5091795
:EIG00016:       1.8599846    1.8599846    2.4131060    2.5940676    2.7060552
:EIG00021:       2.7060552    2.7060552    4.1014498    4.1014498    4.1014498
:EIG00026:       4.1656861    4.1656861    4.2962093    4.2962093    4.2962093
:EIG00031:       4.7654791    5.0699157    5.0699157    5.0699157    5.5226724
:EIG00036:       5.5226724    5.5226724    5.7724799    5.7724799    5.7724799
:EIG00041:       5.7902638    5.7902638    6.1314008    6.1314008    6.1314008
:EIG00046:       6.2468274    6.2468274    6.2468274    6.2768146    6.3410400
 
:EIG00051:       6.3410400    6.6605076    6.6605076    6.6605076    6.8455893
:EIG00056:       6.8455893    6.8455893    6.8594243    6.8955714    6.8955714
:EIG00061:       6.8955714    6.9689175
       ********************************************************

:KPT   :      NUMBER OF K-POINTS:   286

------- delta_Pu_7.scfso --------
   0.0   0.0 angle (M,z), angle (M,x) deg
 
        SPIN-ORBIT EIGENVALUES:
     K=   0.00000   0.00000   0.00000            1
      MATRIX SIZE=  124   WEIGHT= 1.00
     EIGENVALUES ARE:
          -2.0703826   -2.0703826   -0.4078657   -0.4078657    0.2882492
           0.2882492    0.2882492    0.2882492    0.9574814    0.9574814
           1.2452405    1.2452405    1.3166044    1.3166044    1.3166044
           1.3166044    1.3696372    1.3696372    1.4600893    1.4600893
           1.4830174    1.4830174    1.4830174    1.4830174    1.4935867
           1.4935867    1.4935867    1.4935867    1.5324334    1.5324334
           1.8622349    1.8622349    1.8622349    1.8622349    2.4139880
           2.4139880    2.5940676    2.5940676    2.6991395    2.6991395

           2.7094644    2.7094644    2.7094644    2.7094644    4.0617590
           4.0617590    4.0775311    4.0775311    4.0775311    4.0775311
           4.1334194    4.1334194    4.1733212    4.1733212    4.1733212
           4.1733212    4.4158236    4.4158236    4.4158236    4.4158236

       ********************************************************

------- delta_Pu_7.scf2 --------
:GMA  : POTENTIAL AND CHARGE CUT-OFF  12.00 Ry**.5
         Bandranges (emin - emax) and occupancy:
:BAN00008:   8    0.092337    0.288249  1.00000000
:BAN00009:   9    0.957481    1.240271  1.00000000
:BAN00010:  10    0.957481    1.240271  1.00000000
:BAN00011:  11    1.135234    1.308733  1.00000000
:BAN00012:  12    1.135234    1.308733  1.00000000
:BAN00013:  13    1.270142    1.347014  1.00000000
:BAN00014:  14    1.270142    1.347014  1.00000000
:BAN00015:  15    1.316604    1.361246  0.99992540
:BAN00016:  16    1.316604    1.361246  0.99992540
:BAN00017:  17    1.359932    1.416281  0.00007018
:BAN00018:  18    1.359932    1.416281  0.00007018
:BAN00019:  19    1.385904    1.460089  0.00000000
:BAN00020:  20    1.385904    1.460089  0.00000000
:BAN00021:  21    1.404767    1.483017  0.00000000
:BAN00022:  22    1.404767    1.483017  0.00000000
:BAN00023:  23    1.433356    1.483017  0.00000000
        Energy to separate low and high energystates:    0.90748


:NLDA  : NUMBER OF ELECTRONS          =  16.000

:FLDA  : F E R M I - ENERGY           =   1.85999




:POS001: AT.NR.   1 POSITION = 0.00000 0.00000 0.00000  MULTIPLICITY =  1

       LMMAX  5
       LM=   0 0  4 0  4 4  6 0  6 4
:FER DMFT Fermi Energy   1.32959
:EORB    0.16011508
:SUM SUM OF DMFT BAND ENERGIES    5.46138861

:CHA001: TOTAL CHARGE INSIDE SPHERE   1 =    11.605434
:PCS001: PARTIAL CHARGES SPHERE =  1 S,P,D,F,      D-EG,D-T2G 
:QTL001: 1.9688 4.5774 0.5272 4.5303 0.0000 0.0000 0.0000 0.1967 0.3427 0.0000 0.0000 0.0000
        Q-s-low E-s-low   Q-p-low E-p-low   Q-d-low E-d-low   Q-f-low E-f-low
:EPL001:  1.8741 -2.0293    4.4608 -0.1076    0.0101  0.0503    0.0041  0.0466
        Q-s-hi  E-s-hi    Q-p-hi  E-p-hi    Q-d-hi  E-d-hi    Q-f-hi  E-f-hi 
:EPH001:  0.0947  1.1714    0.1166  1.2272    0.5171  1.2108    4.5262  1.3139

:CHA  : TOTAL CHARGE INSIDE UNIT CELL =      16.000000

:ESUM  : SUM OF EIGENVALUES =           5.642346727


------- delta_Pu_7.scfc --------

        1.ATOM      Pu  0+               21 CORE STATES
:1S 001: 1S               -8966.394593394 Ry
:2S 001: 2S               -1687.067576372 Ry
:2PP001: 2P*              -1627.761337309 Ry
:2P 001: 2P               -1314.609803014 Ry
:3S 001: 3S                -427.606924116 Ry
:3PP001: 3P*               -400.682667639 Ry
:3P 001: 3P                -328.121178399 Ry
:3DD001: 3D*               -285.881471098 Ry
:3D 001: 3D                -271.339145546 Ry
:4S 001: 4S                -109.088717014 Ry
:4PP001: 4P*                -96.900888322 Ry
:4P 001: 4P                 -77.755740575 Ry
:4DD001: 4D*                -58.468340215 Ry
:4D 001: 4D                 -54.973817232 Ry
:5S 001: 5S                 -23.245994428 Ry
:5PP001: 5P*                -18.428388652 Ry
:5P 001: 5P                 -13.740416797 Ry
:4FF001: 4F*                -29.573471565 Ry
:4F 001: 4F                 -28.645436641 Ry
:5DD001: 5D*                 -6.706311031 Ry
:5D 001: 5D                  -6.007695168 Ry

------- delta_Pu_7.scfm --------

       DENSITY AT NUCLEUS
        JATOM    VALENCE       SEMI-CORE            CORE           TOTAL
:RTO001:   1    23848.423306        0.000000 45141808.553140 45165656.976446
     
       CHARGES OF NEW CHARGE DENSITY
:NTO  : TOTAL   INTERSTITIAL CHARGE=    4.3945630
:NTO001: TOTAL   CHARGE IN SPHERE  1 =       89.5961390

:NEC01: NUCLEAR AND ELECTRONIC CHARGE     94.00000    93.99070     1.00010
     
       CHARGES OF OLD CHARGE DENSITY
:OTO  : TOTAL   INTERSTITIAL CHARGE=    4.4051280
:OTO001: TOTAL   CHARGE IN SPHERE  1 =       89.5948720

:NEC02: NUCLEAR AND ELECTRONIC CHARGE     94.00000    94.00000     1.00000
     
       CONVERGENCE TEST
:DTO001: TOTAL   DIFFERENCE CHARGE**2 IN SPHERE  1 =  0.0017169

:DIS  :  CHARGE DISTANCE       ( 0.0017169 for atom    1 spin 1)      0.0017169
:BIG check (qbig,qrms,qtot)    0.572D-03   0.121D-02   0.172D-02
 
******************************************************
* MULTISECANT MIXING VER4 OPTIONS                    *
* Unpredicted Step Limit   0.100000                  *
* Plane Wave Dynamic Rescaling                       *
* Dynamic Regularization active                      *
* Upper Cutoff Lambda  1.0E-01 Lower 3.5E-04         *
* SQRT Multiplicity/Degeneracy                       *
* Max Number of Memory Steps    8                    *
******************************************************
 
:PLANE:  INTERSTITIAL TOTAL      1.90634 DISTAN  2.225E-02 % 
:CHARG:  CLM CHARGE   /ATOM    713.22688 DISTAN  1.476E-03 % 
:INFO :  Dynamic rescale   2.583E+01  1.000E-01
:INFO :  Number of Memory Steps    3 Skipping    0
:INFO :  Singular value   3.936E+00 Weight   1.000E+00 Projections  -1.594E-01 -4.160E-04
:INFO :  Singular value   6.360E-02 Weight   1.000E+00 Projections   1.027E-01  7.355E-02
:INFO :  Singular value   9.183E-04 Weight   8.732E-01 Projections  -6.005E-02 -1.848E-01
:INFO :  Bounds         0.790D-01  0.200D+00  0.860D+00  0.790D-01
:DIRM :  MEMORY 3/8 RESCALE  25.83 RED 0.783 PRED 0.857 NEXT 0.116 COND 4.67E-01
:DIRP :  |BROYD|= 7.090E-03 |PRATT|= 8.657E-04 ANGLE=  10.4 DEGREES
:DIRB :  |BROYD|= 1.000E-02 |PRATT|= 1.201E-03 ANGLE=  10.3 DEGREES
:MIX  :  MSR1   REGULARIZATION: 3.50E-04  GREED: 0.079
     
       CHARGES OF MIXED CHARGE DENSITY
:CTO  : TOTAL   INTERSTITIAL CHARGE=    4.4047622
:CTO001: TOTAL   CHARGE IN SPHERE  1 =       89.5952378

:NEC03: NUCLEAR AND ELECTRONIC CHARGE     94.00000    94.00000     1.00000


:ENE  : ********** TOTAL ENERGY IN Ry =       -59354.74482726


------- delta_Pu_7.scf0 --------


            ---------
:ITE100:100. ITERATION
            ---------

:NATO :    1 INDEPENDENT AND    1 TOTAL ATOMS IN UNITCELL
       SUBSTANCE: cubic fcc  (delta)                                          

       LATTICE                      = F   
:POT  : POTENTIAL OPTION    5
:LAT  : LATTICE CONSTANTS=  8.34126  8.34126  8.34126    1.571    1.571    1.571
:VOL  : UNIT CELL VOLUME =     145.08917
       MODE OF CALCULATION IS       = RELA
       NON-SPINPOLARIZED CALCULATION
:IFFT  : FFT-parameters:   64   64   64 Factor: 2.00
       ATOMNUMBER=  1 Pu  0+     VCOUL-ZERO =  0.50364E+00
:FIT001: LUSE= 13 SIGMA OF V-XC FIT FOR ATOM  1  0.1674728E-04
:FIT001: LUSE= 13 SIGMA OF V-XC FIT FOR ATOM  1  0.1674728E-04
:DEN  : DENSITY INTEGRAL  =        -21904.47018009   (Ry)
       ELS_POTENTIAL_AT Z=0 and Z=0.5:  -4.31723  -4.31723
       ELS_POTENTIAL_AT Y=0 and Y=0.5:   0.00000   0.00000
:VZERO:v0,v0c,v0x  -5.56311  -4.31723  -1.24588 v5,v5c,v5x  -5.56311  -4.31723  -1.24588
:VZERY:v0,v0c,v0x  -0.93953   0.00000  -0.93953 v5,v5c,v5x  -0.93953   0.00000  -0.93953
:VZERX:v0,v0c,v0x  -0.93953   0.00000  -0.93953 v5,v5c,v5x  -0.93953   0.00000  -0.93953

------- delta_Pu_7.scf1 --------

          ATOMIC SPHERE DEPENDENT PARAMETERS FOR ATOM  Pu  0+    
:e__0001: OVERALL ENERGY PARAMETER IS    1.1300
          OVERALL BASIS SET ON ATOM IS LAPW
:E0_0001: E( 0)=    1.1300
             APW+lo
:E0_0001: E( 0)=   -2.0795   E(BOTTOM)=   -2.852   E(TOP)=   -1.307
             LOCAL ORBITAL
:E1_0001: E( 1)=   -1.1540   E(BOTTOM)=   -1.154   E(TOP)= -200.000
             APW+lo
:E1_0001: E( 1)=    1.1300
             LOCAL ORBITAL
:E3_0001: E( 3)=    1.1300   E(BOTTOM)=    0.890   E(TOP)= -200.000
             APW+lo
:E2_0001: E( 2)=    1.1300   E(BOTTOM)=    1.050   E(TOP)= -200.000
             APW+lo

       K=   0.00000   0.00000   0.00000            1
:RKM  : MATRIX SIZE  189LOs:  20  RKM= 8.42  WEIGHT= 1.00  PGR:    
       EIGENVALUES ARE:
:EIG00001:      -2.0700391    0.0784813    0.0784813    0.0784813    0.9575022
:EIG00006:       1.2518605    1.3410816    1.3410816    1.3410816    1.4681671
:EIG00011:       1.4681671    1.4681671    1.5092437    1.5092437    1.5092437
:EIG00016:       1.8600697    1.8600697    2.4133166    2.5939870    2.7061585
:EIG00021:       2.7061585    2.7061585    4.1015501    4.1015501    4.1015501
:EIG00026:       4.1657365    4.1657365    4.2962978    4.2962978    4.2962978
:EIG00031:       4.7654998    5.0700359    5.0700359    5.0700359    5.5227344
:EIG00036:       5.5227344    5.5227344    5.7725973    5.7725973    5.7725973
:EIG00041:       5.7903557    5.7903557    6.1314403    6.1314403    6.1314403
:EIG00046:       6.2468164    6.2468164    6.2468164    6.2768623    6.3410288
 
:EIG00051:       6.3410288    6.6605067    6.6605067    6.6605067    6.8457661
:EIG00056:       6.8457661    6.8457661    6.8593900    6.8955237    6.8955237
:EIG00061:       6.8955237    6.9690035
       ********************************************************

:KPT   :      NUMBER OF K-POINTS:   286

------- delta_Pu_7.scfso --------
   0.0   0.0 angle (M,z), angle (M,x) deg
 
        SPIN-ORBIT EIGENVALUES:
     K=   0.00000   0.00000   0.00000            1
      MATRIX SIZE=  124   WEIGHT= 1.00
     EIGENVALUES ARE:
          -2.0700391   -2.0700391   -0.4075814   -0.4075814    0.2884756
           0.2884756    0.2884756    0.2884756    0.9575022    0.9575022
           1.2455907    1.2455907    1.3170185    1.3170185    1.3170185
           1.3170185    1.3700199    1.3700199    1.4605900    1.4605900
           1.4835131    1.4835131    1.4835131    1.4835131    1.4936531
           1.4936531    1.4936532    1.4936532    1.5324950    1.5324950
           1.8623192    1.8623192    1.8623192    1.8623192    2.4141990
           2.4141990    2.5939870    2.5939870    2.6992459    2.6992459

           2.7095663    2.7095663    2.7095663    2.7095663    4.0618625
           4.0618625    4.0776299    4.0776299    4.0776299    4.0776299
           4.1335169    4.1335169    4.1733744    4.1733744    4.1733744
           4.1733744    4.4159016    4.4159016    4.4159016    4.4159016

       ********************************************************

------- delta_Pu_7.scf2 --------
:GMA  : POTENTIAL AND CHARGE CUT-OFF  12.00 Ry**.5
         Bandranges (emin - emax) and occupancy:
:BAN00008:   8    0.092512    0.288476  1.00000000
:BAN00009:   9    0.957502    1.240456  1.00000000
:BAN00010:  10    0.957502    1.240456  1.00000000
:BAN00011:  11    1.135273    1.309132  1.00000000
:BAN00012:  12    1.135273    1.309132  1.00000000
:BAN00013:  13    1.270394    1.347468  1.00000000
:BAN00014:  14    1.270394    1.347468  1.00000000
:BAN00015:  15    1.317018    1.361689  0.99992920
:BAN00016:  16    1.317018    1.361689  0.99992920
:BAN00017:  17    1.360394    1.416705  0.00006662
:BAN00018:  18    1.360394    1.416705  0.00006662
:BAN00019:  19    1.386256    1.460590  0.00000000
:BAN00020:  20    1.386256    1.460590  0.00000000
:BAN00021:  21    1.405141    1.483513  0.00000000
:BAN00022:  22    1.405141    1.483513  0.00000000
:BAN00023:  23    1.433794    1.483513  0.00000000
        Energy to separate low and high energystates:    0.90750


:NLDA  : NUMBER OF ELECTRONS          =  16.000

:FLDA  : F E R M I - ENERGY           =   1.86045




:POS001: AT.NR.   1 POSITION = 0.00000 0.00000 0.00000  MULTIPLICITY =  1

       LMMAX  5
       LM=   0 0  4 0  4 4  6 0  6 4
:FER DMFT Fermi Energy   1.32971
:EORB    0.16180657
:SUM SUM OF DMFT BAND ENERGIES    5.46402450

:CHA001: TOTAL CHARGE INSIDE SPHERE   1 =    11.604070
:PCS001: PARTIAL CHARGES SPHERE =  1 S,P,D,F,      D-EG,D-T2G 
:QTL001: 1.9688 4.5772 0.5273 4.5291 0.0000 0.0000 0.0000 0.1967 0.3427 0.0000 0.0000 0.0000
        Q-s-low E-s-low   Q-p-low E-p-low   Q-d-low E-d-low   Q-f-low E-f-low
:EPL001:  1.8741 -2.0290    4.4605 -0.1074    0.0101  0.0505    0.0041  0.0468
        Q-s-hi  E-s-hi    Q-p-hi  E-p-hi    Q-d-hi  E-d-hi    Q-f-hi  E-f-hi 
:EPH001:  0.0947  1.1715    0.1167  1.2274    0.5172  1.2109    4.5249  1.3143

:CHA  : TOTAL CHARGE INSIDE UNIT CELL =      16.000000

:ESUM  : SUM OF EIGENVALUES =           5.646595081


------- delta_Pu_7.scfc --------

        1.ATOM      Pu  0+               21 CORE STATES
:1S 001: 1S               -8966.392489145 Ry
:2S 001: 2S               -1687.065564615 Ry
:2PP001: 2P*              -1627.759302497 Ry
:2P 001: 2P               -1314.607791272 Ry
:3S 001: 3S                -427.605099401 Ry
:3PP001: 3P*               -400.680824354 Ry
:3P 001: 3P                -328.119374748 Ry
:3DD001: 3D*               -285.879623078 Ry
:3D 001: 3D                -271.337309198 Ry
:4S 001: 4S                -109.087224827 Ry
:4PP001: 4P*                -96.899391357 Ry
:4P 001: 4P                 -77.754308578 Ry
:4DD001: 4D*                -58.466898370 Ry
:4D 001: 4D                 -54.972394132 Ry
:5S 001: 5S                 -23.244977024 Ry
:5PP001: 5P*                -18.427399325 Ry
:5P 001: 5P                 -13.739520690 Ry
:4FF001: 4F*                -29.572022643 Ry
:4F 001: 4F                 -28.643996945 Ry
:5DD001: 5D*                 -6.705500941 Ry
:5D 001: 5D                  -6.006913747 Ry

------- delta_Pu_7.scfm --------

       DENSITY AT NUCLEUS
        JATOM    VALENCE       SEMI-CORE            CORE           TOTAL
:RTO001:   1    23846.978965        0.000000 45141804.208846 45165651.187811
     
       CHARGES OF NEW CHARGE DENSITY
:NTO  : TOTAL   INTERSTITIAL CHARGE=    4.3959275
:NTO001: TOTAL   CHARGE IN SPHERE  1 =       89.5947711

:NEC01: NUCLEAR AND ELECTRONIC CHARGE     94.00000    93.99070     1.00010
     
       CHARGES OF OLD CHARGE DENSITY
:OTO  : TOTAL   INTERSTITIAL CHARGE=    4.4047622
:OTO001: TOTAL   CHARGE IN SPHERE  1 =       89.5952378

:NEC02: NUCLEAR AND ELECTRONIC CHARGE     94.00000    94.00000     1.00000
     
       CONVERGENCE TEST
:DTO001: TOTAL   DIFFERENCE CHARGE**2 IN SPHERE  1 =  0.0004969

:DIS  :  CHARGE DISTANCE       ( 0.0004969 for atom    1 spin 1)      0.0004969
:BIG check (qbig,qrms,qtot)    0.166D-03   0.351D-03   0.497D-03
 
******************************************************
* MULTISECANT MIXING VER4 OPTIONS                    *
* Unpredicted Step Limit   0.100000                  *
* Plane Wave Dynamic Rescaling                       *
* Dynamic Regularization active                      *
* Upper Cutoff Lambda  1.0E-01 Lower 3.5E-04         *
* SQRT Multiplicity/Degeneracy                       *
* Max Number of Memory Steps    8                    *
******************************************************
 
:PLANE:  INTERSTITIAL TOTAL      1.90649 DISTAN  5.422E-03 % 
:CHARG:  CLM CHARGE   /ATOM    713.22770 DISTAN  4.766E-04 % 
:INFO :  Dynamic rescale   2.711E+01  1.000E-01
:INFO :  Number of Memory Steps    4 Skipping    0
:INFO :  Singular value   3.462E+00 Weight   1.000E+00 Projections  -6.380E-03  3.006E-03
:INFO :  Singular value   2.849E+00 Weight   1.000E+00 Projections   4.393E-03  6.395E-04
:INFO :  Singular value   1.817E-03 Weight   9.642E-01 Projections   4.863E-03 -1.072E-02
:INFO :  Singular value   1.289E-05 Weight   1.354E-03 Projections  -6.375E-03 -6.849E-05
:INFO :  Bounds         0.158D+00  0.200D+00  0.318D+00  0.158D+00
:DIRM :  MEMORY 4/8 RESCALE  27.11 RED 0.283 PRED 0.116 NEXT 0.314 COND 8.65E-01
:DIRP :  |BROYD|= 2.702E-03 |PRATT|= 4.429E-04 ANGLE=  17.4 DEGREES
:DIRB :  |BROYD|= 3.881E-03 |PRATT|= 6.962E-04 ANGLE=  19.8 DEGREES
:MIX  :  MSR1   REGULARIZATION: 3.50E-04  GREED: 0.158
     
       CHARGES OF MIXED CHARGE DENSITY
:CTO  : TOTAL   INTERSTITIAL CHARGE=    4.4049998
:CTO001: TOTAL   CHARGE IN SPHERE  1 =       89.5950002

:NEC03: NUCLEAR AND ELECTRONIC CHARGE     94.00000    94.00000     1.00000


:ENE  : ********** TOTAL ENERGY IN Ry =       -59354.74477870


------- delta_Pu_7.scf0 --------


            ---------
:ITE101:101. ITERATION
            ---------

:NATO :    1 INDEPENDENT AND    1 TOTAL ATOMS IN UNITCELL
       SUBSTANCE: cubic fcc  (delta)                                          

       LATTICE                      = F   
:POT  : POTENTIAL OPTION    5
:LAT  : LATTICE CONSTANTS=  8.34126  8.34126  8.34126    1.571    1.571    1.571
:VOL  : UNIT CELL VOLUME =     145.08917
       MODE OF CALCULATION IS       = RELA
       NON-SPINPOLARIZED CALCULATION
:IFFT  : FFT-parameters:   64   64   64 Factor: 2.00
       ATOMNUMBER=  1 Pu  0+     VCOUL-ZERO =  0.50365E+00
:FIT001: LUSE= 13 SIGMA OF V-XC FIT FOR ATOM  1  0.1688240E-04
:FIT001: LUSE= 13 SIGMA OF V-XC FIT FOR ATOM  1  0.1688240E-04
:DEN  : DENSITY INTEGRAL  =        -21904.45258221   (Ry)
       ELS_POTENTIAL_AT Z=0 and Z=0.5:  -4.31739  -4.31739
       ELS_POTENTIAL_AT Y=0 and Y=0.5:   0.00000   0.00000
:VZERO:v0,v0c,v0x  -5.56326  -4.31739  -1.24587 v5,v5c,v5x  -5.56326  -4.31739  -1.24587
:VZERY:v0,v0c,v0x  -0.93954   0.00000  -0.93954 v5,v5c,v5x  -0.93954   0.00000  -0.93954
:VZERX:v0,v0c,v0x  -0.93954   0.00000  -0.93954 v5,v5c,v5x  -0.93954   0.00000  -0.93954

------- delta_Pu_7.scf1 --------

          ATOMIC SPHERE DEPENDENT PARAMETERS FOR ATOM  Pu  0+    
:e__0001: OVERALL ENERGY PARAMETER IS    1.1300
          OVERALL BASIS SET ON ATOM IS LAPW
:E0_0001: E( 0)=    1.1300
             APW+lo
:E0_0001: E( 0)=   -2.0795   E(BOTTOM)=   -2.852   E(TOP)=   -1.307
             LOCAL ORBITAL
:E1_0001: E( 1)=   -1.1540   E(BOTTOM)=   -1.154   E(TOP)= -200.000
             APW+lo
:E1_0001: E( 1)=    1.1300
             LOCAL ORBITAL
:E3_0001: E( 3)=    1.1300   E(BOTTOM)=    0.890   E(TOP)= -200.000
             APW+lo
:E2_0001: E( 2)=    1.1300   E(BOTTOM)=    1.050   E(TOP)= -200.000
             APW+lo

       K=   0.00000   0.00000   0.00000            1
:RKM  : MATRIX SIZE  189LOs:  20  RKM= 8.42  WEIGHT= 1.00  PGR:    
       EIGENVALUES ARE:
:EIG00001:      -2.0701283    0.0784181    0.0784181    0.0784181    0.9575057
:EIG00006:       1.2517856    1.3409815    1.3409815    1.3409815    1.4680487
:EIG00011:       1.4680487    1.4680487    1.5092402    1.5092402    1.5092402
:EIG00016:       1.8600501    1.8600501    2.4132880    2.5940076    2.7061352
:EIG00021:       2.7061352    2.7061352    4.1015347    4.1015347    4.1015347
:EIG00026:       4.1657301    4.1657301    4.2962911    4.2962911    4.2962911
:EIG00031:       4.7655025    5.0700161    5.0700161    5.0700161    5.5227172
:EIG00036:       5.5227172    5.5227172    5.7725816    5.7725816    5.7725816
:EIG00041:       5.7903281    5.7903281    6.1314359    6.1314359    6.1314359
:EIG00046:       6.2468278    6.2468278    6.2468278    6.2768497    6.3410514
 
:EIG00051:       6.3410514    6.6605137    6.6605137    6.6605137    6.8457349
:EIG00056:       6.8457349    6.8457349    6.8594153    6.8955454    6.8955454
:EIG00061:       6.8955454    6.9689890
       ********************************************************

:KPT   :      NUMBER OF K-POINTS:   286

------- delta_Pu_7.scfso --------
   0.0   0.0 angle (M,z), angle (M,x) deg
 
        SPIN-ORBIT EIGENVALUES:
     K=   0.00000   0.00000   0.00000            1
      MATRIX SIZE=  124   WEIGHT= 1.00
     EIGENVALUES ARE:
          -2.0701283   -2.0701283   -0.4076558   -0.4076558    0.2884177
           0.2884177    0.2884177    0.2884177    0.9575057    0.9575057
           1.2455135    1.2455135    1.3169148    1.3169148    1.3169148
           1.3169148    1.3699227    1.3699227    1.4604737    1.4604737
           1.4833971    1.4833971    1.4833971    1.4833971    1.4936488
           1.4936488    1.4936488    1.4936488    1.5324924    1.5324924
           1.8623000    1.8623000    1.8623000    1.8623000    2.4141702
           2.4141702    2.5940076    2.5940076    2.6992212    2.6992212

           2.7095437    2.7095437    2.7095437    2.7095437    4.0618527
           4.0618527    4.0776147    4.0776147    4.0776147    4.0776147
           4.1335023    4.1335023    4.1733675    4.1733675    4.1733675
           4.1733675    4.4158971    4.4158971    4.4158971    4.4158971

       ********************************************************

------- delta_Pu_7.scf2 --------
:GMA  : POTENTIAL AND CHARGE CUT-OFF  12.00 Ry**.5
         Bandranges (emin - emax) and occupancy:
:BAN00008:   8    0.092470    0.288418  1.00000000
:BAN00009:   9    0.957506    1.240418  1.00000000
:BAN00010:  10    0.957506    1.240418  1.00000000
:BAN00011:  11    1.135281    1.309040  1.00000000
:BAN00012:  12    1.135281    1.309040  1.00000000
:BAN00013:  13    1.270334    1.347359  1.00000000
:BAN00014:  14    1.270334    1.347359  1.00000000
:BAN00015:  15    1.316915    1.361586  0.99992795
:BAN00016:  16    1.316915    1.361586  0.99992795
:BAN00017:  17    1.360283    1.416604  0.00007050
:BAN00018:  18    1.360283    1.416604  0.00007050
:BAN00019:  19    1.386171    1.460474  0.00000000
:BAN00020:  20    1.386171    1.460474  0.00000000
:BAN00021:  21    1.405052    1.483397  0.00000000
:BAN00022:  22    1.405052    1.483397  0.00000000
:BAN00023:  23    1.433689    1.483397  0.00000000
        Energy to separate low and high energystates:    0.90751


:NLDA  : NUMBER OF ELECTRONS          =  16.000

:FLDA  : F E R M I - ENERGY           =   1.86034




:POS001: AT.NR.   1 POSITION = 0.00000 0.00000 0.00000  MULTIPLICITY =  1

       LMMAX  5
       LM=   0 0  4 0  4 4  6 0  6 4
:FER DMFT Fermi Energy   1.32965
:EORB    0.16162053
:SUM SUM OF DMFT BAND ENERGIES    5.46316828

:CHA001: TOTAL CHARGE INSIDE SPHERE   1 =    11.604645
:PCS001: PARTIAL CHARGES SPHERE =  1 S,P,D,F,      D-EG,D-T2G 
:QTL001: 1.9688 4.5772 0.5272 4.5297 0.0000 0.0000 0.0000 0.1967 0.3427 0.0000 0.0000 0.0000
        Q-s-low E-s-low   Q-p-low E-p-low   Q-d-low E-d-low   Q-f-low E-f-low
:EPL001:  1.8741 -2.0290    4.4606 -0.1075    0.0101  0.0504    0.0041  0.0468
        Q-s-hi  E-s-hi    Q-p-hi  E-p-hi    Q-d-hi  E-d-hi    Q-f-hi  E-f-hi 
:EPH001:  0.0947  1.1715    0.1166  1.2274    0.5171  1.2109    4.5256  1.3142

:CHA  : TOTAL CHARGE INSIDE UNIT CELL =      16.000000

:ESUM  : SUM OF EIGENVALUES =           5.645588809


------- delta_Pu_7.scfc --------

        1.ATOM      Pu  0+               21 CORE STATES
:1S 001: 1S               -8966.392718538 Ry
:2S 001: 2S               -1687.065801340 Ry
:2PP001: 2P*              -1627.759537655 Ry
:2P 001: 2P               -1314.608027946 Ry
:3S 001: 3S                -427.605336900 Ry
:3PP001: 3P*               -400.681062306 Ry
:3P 001: 3P                -328.119610902 Ry
:3DD001: 3D*               -285.879861369 Ry
:3D 001: 3D                -271.337547166 Ry
:4S 001: 4S                -109.087437929 Ry
:4PP001: 4P*                -96.899604762 Ry
:4P 001: 4P                 -77.754517926 Ry
:4DD001: 4D*                -58.467108594 Ry
:4D 001: 4D                 -54.972603279 Ry
:5S 001: 5S                 -23.245167850 Ry
:5PP001: 5P*                -18.427588113 Ry
:5P 001: 5P                 -13.739702390 Ry
:4FF001: 4F*                -29.572234942 Ry
:4F 001: 4F                 -28.644208651 Ry
:5DD001: 5D*                 -6.705673061 Ry
:5D 001: 5D                  -6.007082572 Ry

------- delta_Pu_7.scfm --------

       DENSITY AT NUCLEUS
        JATOM    VALENCE       SEMI-CORE            CORE           TOTAL
:RTO001:   1    23847.233572        0.000000 45141804.394485 45165651.628057
     
       CHARGES OF NEW CHARGE DENSITY
:NTO  : TOTAL   INTERSTITIAL CHARGE=    4.3953522
:NTO001: TOTAL   CHARGE IN SPHERE  1 =       89.5953471

:NEC01: NUCLEAR AND ELECTRONIC CHARGE     94.00000    93.99070     1.00010
     
       CHARGES OF OLD CHARGE DENSITY
:OTO  : TOTAL   INTERSTITIAL CHARGE=    4.4049998
:OTO001: TOTAL   CHARGE IN SPHERE  1 =       89.5950002

:NEC02: NUCLEAR AND ELECTRONIC CHARGE     94.00000    94.00000     1.00000
     
       CONVERGENCE TEST
:DTO001: TOTAL   DIFFERENCE CHARGE**2 IN SPHERE  1 =  0.0004497

:DIS  :  CHARGE DISTANCE       ( 0.0004497 for atom    1 spin 1)      0.0004497
:BIG check (qbig,qrms,qtot)    0.150D-03   0.318D-03   0.450D-03
 
******************************************************
* MULTISECANT MIXING VER4 OPTIONS                    *
* Unpredicted Step Limit   0.100000                  *
* Plane Wave Dynamic Rescaling                       *
* Dynamic Regularization active                      *
* Upper Cutoff Lambda  1.0E-01 Lower 3.5E-04         *
* SQRT Multiplicity/Degeneracy                       *
* Max Number of Memory Steps    8                    *
******************************************************
 
:PLANE:  INTERSTITIAL TOTAL      1.90656 DISTAN  2.187E-03 % 
:CHARG:  CLM CHARGE   /ATOM    713.22765 DISTAN  1.506E-04 % 
:INFO :  Dynamic rescale   2.688E+01  1.000E-01
:INFO :  Number of Memory Steps    5 Skipping    0
:INFO :  Singular value   6.118E+00 Weight   1.000E+00 Projections  -1.731E-03 -1.948E-04
:INFO :  Singular value   2.280E+00 Weight   1.000E+00 Projections   2.206E-02 -6.787E-04
:INFO :  Singular value   4.603E-03 Weight   9.943E-01 Projections   1.153E-02  1.452E-02
:INFO :  Singular value   1.300E-03 Weight   9.324E-01 Projections  -9.899E-03 -2.747E-02
:INFO :  Singular value   1.045E-05 Weight   8.909E-04 Projections  -1.566E-02  1.220E-06
:INFO :  Bounds         0.316D+00  0.200D+00  0.630D+00  0.200D+00
:DIRM :  MEMORY 5/8 RESCALE  26.88 RED 0.354 PRED 0.314 NEXT 0.159 COND 1.22E+00
:DIRP :  |BROYD|= 4.246E-04 |PRATT|= 2.242E-04 ANGLE=  31.3 DEGREES
:DIRB :  |BROYD|= 6.600E-04 |PRATT|= 3.105E-04 ANGLE=  29.3 DEGREES
:MIX  :  MSR1   REGULARIZATION: 3.50E-04  GREED: 0.200
     
       CHARGES OF MIXED CHARGE DENSITY
:CTO  : TOTAL   INTERSTITIAL CHARGE=    4.4049171
:CTO001: TOTAL   CHARGE IN SPHERE  1 =       89.5950829

:NEC03: NUCLEAR AND ELECTRONIC CHARGE     94.00000    94.00000     1.00000


:ENE  : ********** TOTAL ENERGY IN Ry =       -59354.74478990


------- delta_Pu_7.scf0 --------


            ---------
:ITE102:102. ITERATION
            ---------

:NATO :    1 INDEPENDENT AND    1 TOTAL ATOMS IN UNITCELL
       SUBSTANCE: cubic fcc  (delta)                                          

       LATTICE                      = F   
:POT  : POTENTIAL OPTION    5
:LAT  : LATTICE CONSTANTS=  8.34126  8.34126  8.34126    1.571    1.571    1.571
:VOL  : UNIT CELL VOLUME =     145.08917
       MODE OF CALCULATION IS       = RELA
       NON-SPINPOLARIZED CALCULATION
:IFFT  : FFT-parameters:   64   64   64 Factor: 2.00
       ATOMNUMBER=  1 Pu  0+     VCOUL-ZERO =  0.50365E+00
:FIT001: LUSE= 13 SIGMA OF V-XC FIT FOR ATOM  1  0.1686356E-04
:FIT001: LUSE= 13 SIGMA OF V-XC FIT FOR ATOM  1  0.1686356E-04
:DEN  : DENSITY INTEGRAL  =        -21904.43875279   (Ry)
       ELS_POTENTIAL_AT Z=0 and Z=0.5:  -4.31733  -4.31733
       ELS_POTENTIAL_AT Y=0 and Y=0.5:   0.00000   0.00000
:VZERO:v0,v0c,v0x  -5.56321  -4.31733  -1.24588 v5,v5c,v5x  -5.56321  -4.31733  -1.24588
:VZERY:v0,v0c,v0x  -0.93954   0.00000  -0.93954 v5,v5c,v5x  -0.93954   0.00000  -0.93954
:VZERX:v0,v0c,v0x  -0.93954   0.00000  -0.93954 v5,v5c,v5x  -0.93954   0.00000  -0.93954

------- delta_Pu_7.scf1 --------

          ATOMIC SPHERE DEPENDENT PARAMETERS FOR ATOM  Pu  0+    
:e__0001: OVERALL ENERGY PARAMETER IS    1.1300
          OVERALL BASIS SET ON ATOM IS LAPW
:E0_0001: E( 0)=    1.1300
             APW+lo
:E0_0001: E( 0)=   -2.0795   E(BOTTOM)=   -2.852   E(TOP)=   -1.307
             LOCAL ORBITAL
:E1_0001: E( 1)=   -1.1540   E(BOTTOM)=   -1.154   E(TOP)= -200.000
             APW+lo
:E1_0001: E( 1)=    1.1300
             LOCAL ORBITAL
:E3_0001: E( 3)=    1.1300   E(BOTTOM)=    0.890   E(TOP)= -200.000
             APW+lo
:E2_0001: E( 2)=    1.1300   E(BOTTOM)=    1.050   E(TOP)= -200.000
             APW+lo

       K=   0.00000   0.00000   0.00000            1
:RKM  : MATRIX SIZE  189LOs:  20  RKM= 8.42  WEIGHT= 1.00  PGR:    
       EIGENVALUES ARE:
:EIG00001:      -2.0701188    0.0784255    0.0784255    0.0784255    0.9574989
:EIG00006:       1.2517859    1.3409863    1.3409863    1.3409863    1.4680535
:EIG00011:       1.4680535    1.4680535    1.5092365    1.5092365    1.5092365
:EIG00016:       1.8600504    1.8600504    2.4132777    2.5939996    2.7061292
:EIG00021:       2.7061292    2.7061292    4.1015315    4.1015315    4.1015315
:EIG00026:       4.1657288    4.1657288    4.2962846    4.2962846    4.2962846
:EIG00031:       4.7654957    5.0700101    5.0700101    5.0700101    5.5227216
:EIG00036:       5.5227216    5.5227216    5.7725811    5.7725811    5.7725811
:EIG00041:       5.7903281    5.7903281    6.1314304    6.1314304    6.1314304
:EIG00046:       6.2468212    6.2468212    6.2468212    6.2768509    6.3410438
 
:EIG00051:       6.3410438    6.6605091    6.6605091    6.6605091    6.8457298
:EIG00056:       6.8457298    6.8457298    6.8594035    6.8955373    6.8955373
:EIG00061:       6.8955373    6.9689850
       ********************************************************

:KPT   :      NUMBER OF K-POINTS:   286

------- delta_Pu_7.scfso --------
   0.0   0.0 angle (M,z), angle (M,x) deg
 
        SPIN-ORBIT EIGENVALUES:
     K=   0.00000   0.00000   0.00000            1
      MATRIX SIZE=  124   WEIGHT= 1.00
     EIGENVALUES ARE:
          -2.0701188   -2.0701188   -0.4076469   -0.4076469    0.2884243
           0.2884243    0.2884243    0.2884243    0.9574989    0.9574989
           1.2455139    1.2455139    1.3169195    1.3169195    1.3169195
           1.3169195    1.3699276    1.3699276    1.4604783    1.4604783
           1.4834020    1.4834020    1.4834020    1.4834020    1.4936453
           1.4936453    1.4936453    1.4936453    1.5324884    1.5324884
           1.8623002    1.8623002    1.8623002    1.8623002    2.4141600
           2.4141600    2.5939996    2.5939996    2.6992155    2.6992155

           2.7095376    2.7095376    2.7095376    2.7095376    4.0618465
           4.0618465    4.0776117    4.0776117    4.0776117    4.0776117
           4.1334991    4.1334991    4.1733661    4.1733661    4.1733661
           4.1733661    4.4158904    4.4158904    4.4158904    4.4158904

       ********************************************************

------- delta_Pu_7.scf2 --------
:GMA  : POTENTIAL AND CHARGE CUT-OFF  12.00 Ry**.5
         Bandranges (emin - emax) and occupancy:
:BAN00008:   8    0.092474    0.288424  1.00000000
:BAN00009:   9    0.957499    1.240417  1.00000000
:BAN00010:  10    0.957499    1.240417  1.00000000
:BAN00011:  11    1.135274    1.309043  1.00000000
:BAN00012:  12    1.135274    1.309043  1.00000000
:BAN00013:  13    1.270335    1.347363  1.00000000
:BAN00014:  14    1.270335    1.347363  1.00000000
:BAN00015:  15    1.316919    1.361590  0.99992823
:BAN00016:  16    1.316919    1.361590  0.99992823
:BAN00017:  17    1.360287    1.416607  0.00007177
:BAN00018:  18    1.360287    1.416607  0.00007177
:BAN00019:  19    1.386174    1.460478  0.00000000
:BAN00020:  20    1.386174    1.460478  0.00000000
:BAN00021:  21    1.405056    1.483402  0.00000000
:BAN00022:  22    1.405056    1.483402  0.00000000
:BAN00023:  23    1.433694    1.483402  0.00000000
        Energy to separate low and high energystates:    0.90750


:NLDA  : NUMBER OF ELECTRONS          =  16.000

:FLDA  : F E R M I - ENERGY           =   1.86034




:POS001: AT.NR.   1 POSITION = 0.00000 0.00000 0.00000  MULTIPLICITY =  1

       LMMAX  5
       LM=   0 0  4 0  4 4  6 0  6 4
:FER DMFT Fermi Energy   1.32962
:EORB    0.16184685
:SUM SUM OF DMFT BAND ENERGIES    5.46299982

:CHA001: TOTAL CHARGE INSIDE SPHERE   1 =    11.604783
:PCS001: PARTIAL CHARGES SPHERE =  1 S,P,D,F,      D-EG,D-T2G 
:QTL001: 1.9688 4.5772 0.5271 4.5299 0.0000 0.0000 0.0000 0.1967 0.3426 0.0000 0.0000 0.0000
        Q-s-low E-s-low   Q-p-low E-p-low   Q-d-low E-d-low   Q-f-low E-f-low
:EPL001:  1.8741 -2.0290    4.4606 -0.1075    0.0101  0.0504    0.0041  0.0468
        Q-s-hi  E-s-hi    Q-p-hi  E-p-hi    Q-d-hi  E-d-hi    Q-f-hi  E-f-hi 
:EPH001:  0.0947  1.1714    0.1166  1.2273    0.5170  1.2109    4.5258  1.3142

:CHA  : TOTAL CHARGE INSIDE UNIT CELL =      16.000000

:ESUM  : SUM OF EIGENVALUES =           5.645658278


------- delta_Pu_7.scfc --------

        1.ATOM      Pu  0+               21 CORE STATES
:1S 001: 1S               -8966.393108354 Ry
:2S 001: 2S               -1687.066155959 Ry
:2PP001: 2P*              -1627.759901387 Ry
:2P 001: 2P               -1314.608382559 Ry
:3S 001: 3S                -427.605616328 Ry
:3PP001: 3P*               -400.681348940 Ry
:3P 001: 3P                -328.119882499 Ry
:3DD001: 3D*               -285.880150173 Ry
:3D 001: 3D                -271.337831425 Ry
:4S 001: 4S                -109.087601298 Ry
:4PP001: 4P*                -96.899769940 Ry
:4P 001: 4P                 -77.754662671 Ry
:4DD001: 4D*                -58.467257018 Ry
:4D 001: 4D                 -54.972745963 Ry
:5S 001: 5S                 -23.245211479 Ry
:5PP001: 5P*                -18.427627436 Ry
:5P 001: 5P                 -13.739727447 Ry
:4FF001: 4F*                -29.572385852 Ry
:4F 001: 4F                 -28.644356717 Ry
:5DD001: 5D*                 -6.705688492 Ry
:5D 001: 5D                  -6.007094822 Ry

------- delta_Pu_7.scfm --------

       DENSITY AT NUCLEUS
        JATOM    VALENCE       SEMI-CORE            CORE           TOTAL
:RTO001:   1    23847.152756        0.000000 45141805.618004 45165652.770760
     
       CHARGES OF NEW CHARGE DENSITY
:NTO  : TOTAL   INTERSTITIAL CHARGE=    4.3952149
:NTO001: TOTAL   CHARGE IN SPHERE  1 =       89.5954845

:NEC01: NUCLEAR AND ELECTRONIC CHARGE     94.00000    93.99070     1.00010
     
       CHARGES OF OLD CHARGE DENSITY
:OTO  : TOTAL   INTERSTITIAL CHARGE=    4.4049171
:OTO001: TOTAL   CHARGE IN SPHERE  1 =       89.5950829

:NEC02: NUCLEAR AND ELECTRONIC CHARGE     94.00000    94.00000     1.00000
     
       CONVERGENCE TEST
:DTO001: TOTAL   DIFFERENCE CHARGE**2 IN SPHERE  1 =  0.0004222

:DIS  :  CHARGE DISTANCE       ( 0.0004222 for atom    1 spin 1)      0.0004222
:BIG check (qbig,qrms,qtot)    0.141D-03   0.299D-03   0.422D-03
 
******************************************************
* MULTISECANT MIXING VER4 OPTIONS                    *
* Unpredicted Step Limit   0.100000                  *
* Plane Wave Dynamic Rescaling                       *
* Dynamic Regularization active                      *
* Upper Cutoff Lambda  1.0E-01 Lower 3.5E-04         *
* SQRT Multiplicity/Degeneracy                       *
* Max Number of Memory Steps    8                    *
******************************************************
 
:PLANE:  INTERSTITIAL TOTAL      1.90656 DISTAN  2.541E-03 % 
:CHARG:  CLM CHARGE   /ATOM    713.22742 DISTAN  1.330E-04 % 
:INFO :  Dynamic rescale   2.569E+01  1.000E-01
:INFO :  Number of Memory Steps    6 Skipping    0
:INFO :  Singular value   6.246E+00 Weight   1.000E+00 Projections  -8.890E-03 -3.509E-04
:INFO :  Singular value   2.263E+00 Weight   1.000E+00 Projections   1.263E-02 -7.740E-04
:INFO :  Singular value   1.283E+00 Weight   1.000E+00 Projections   9.761E-03 -2.340E-04
:INFO :  Singular value   1.383E-03 Weight   9.398E-01 Projections  -1.204E-02  2.204E-02
:INFO :  Singular value   5.760E-05 Weight   2.637E-02 Projections   2.776E-03 -9.247E-05
:INFO :  Singular value   9.339E-06 Weight   7.114E-04 Projections  -5.465E-04 -1.513E-05
:INFO :  Bounds         0.200D+00  0.200D+00  0.904D+00  0.200D+00
:DIRM :  MEMORY 6/8 RESCALE  25.69 RED 1.032 PRED 0.159 NEXT 0.111 COND 1.04E+00
:DIRP :  |BROYD|= 1.406E-04 |PRATT|= 2.489E-04 ANGLE=  50.5 DEGREES
:DIRB :  |BROYD|= 1.732E-04 |PRATT|= 3.130E-04 ANGLE=  60.1 DEGREES
:MIX  :  MSR1   REGULARIZATION: 3.50E-04  GREED: 0.200
     
       CHARGES OF MIXED CHARGE DENSITY
:CTO  : TOTAL   INTERSTITIAL CHARGE=    4.4049049
:CTO001: TOTAL   CHARGE IN SPHERE  1 =       89.5950951

:NEC03: NUCLEAR AND ELECTRONIC CHARGE     94.00000    94.00000     1.00000


:ENE  : ********** TOTAL ENERGY IN Ry =       -59354.74479391

