
:LABEL1: Calculations in /home/ykent/GWIEN/example/Pr/aU/V10/case
:LABEL2: on didymium-2.cmpgroup.ameslab.gov at Fri Jul 10 13:23:19 CDT 2020
:LABEL3: using WIEN2k_19.1 (Release 25/6/2019) in /home/ykent/opt/src/WIEN2k_19.1
:LABEL4: using the command: run_lapw -cc 0.0001
 Flat Integration
 New Mode for Coulomb Integral
 Consistent 3/8+Simpson combinations
 Extension of core to zero
 LDM version in phi
 Fifth-order quadrature in outwin


            ---------
:ITE001:  1. ITERATION
            ---------

:NATO :    1 INDEPENDENT AND    2 TOTAL ATOMS IN UNITCELL
       SUBSTANCE: aU                                                          

       LATTICE                      = CXY 
:POT  : POTENTIAL OPTION EX_LDA EC_LDA VX_LDA VC_LDA
:LAT  : LATTICE CONSTANTS=  5.85246 11.87613 10.25291    1.571    1.571    1.571
:VOL  : UNIT CELL VOLUME =     356.31200
       MODE OF CALCULATION IS       = RELA
       NON-SPINPOLARIZED CALCULATION
:IFFT  : FFT-parameters:   48   96   80 Factor: 2.00


   CONVERGENCE PARAMETER FOR PSEUDOCHARGE: NCON=  9
   MAXIMAL VALUE OF RMT(JATOM)*ABSK(NKK) : RK  =27.59714


:VKCOUL :  VK-COUL convergence: 0.178E-06
       ATOMNUMBER=  1 Pr1        VCOUL-ZERO =  0.34862E+00
:EFG001:                        EFG         =    -0.05008   *10**21  V / m**2
                               V20  TOT/SRF=    -0.04337    -0.05351
                               V22  TOT/SRF=     0.00709     0.00841
                               V22M TOT/SRF=     0.00000     0.00000
                               V21  TOT/SRF=     0.00000     0.00000
                               V21M TOT/SRF=     0.00000     0.00000

              0.03213    0.00000    0.00000        0.03213    0.00000    0.00000
              0.00000    0.01795    0.00000        0.00000    0.01795    0.00000
              0.00000    0.00000   -0.05008        0.00000    0.00000   -0.05008

         MAIN DIRECTIONS OF THE EFG   1.0000  0.0000  0.0000
                                      0.0000  1.0000  0.0000
                                      0.0000  0.0000  1.0000
:ANG001:  ANGLE WITH OLD X-AXIS =         0.0

:ETA001:                         ASYMM. ETA =     0.28307


     HELLMANN-FEYNMAN-FORCE IN mRy/a.u. = |F|  Fx       Fy             Fz
:FHF001:   1.ATOM    560.279736740763      0.000000000000      0.000000000000   -560.279736740763

:FIT001: LUSE= 13 SIGMA OF V-XC FIT FOR ATOM  1  0.8211708E-05
:FIT001: LUSE= 13 SIGMA OF V-XC FIT FOR ATOM  1  0.8211708E-05
:DEN  : DENSITY INTEGRAL  =        -14191.61843659   (Ry)
       ELS_POTENTIAL_AT Z=0 and Z=0.5:   0.84996   0.84996
       ELS_POTENTIAL_AT Y=0 and Y=0.5:   0.01949   0.01949
:VZERO:v0,v0c,v0x   0.19168   0.84996  -0.65828 v5,v5c,v5x   0.19168   0.84996  -0.65828
:VZERY:v0,v0c,v0x  -0.84777   0.01949  -0.86726 v5,v5c,v5x  -0.84777   0.01949  -0.86726
:VZERX:v0,v0c,v0x  -1.19601  -0.38044  -0.81556 v5,v5c,v5x  -1.19601  -0.38044  -0.81556
:LMAX-WF:   10   Non-Spherical LMAX:   4

          ATOMIC SPHERE DEPENDENT PARAMETERS FOR ATOM  Pr1       
:e__0001: OVERALL ENERGY PARAMETER IS    0.3000
          OVERALL BASIS SET ON ATOM IS LAPW
:E0_0001: E( 0)=    0.3000
             APW+lo
:E0_0001: E( 0)=   -1.7100   E(BOTTOM)=   -2.356   E(TOP)=   -1.064  4  5   209
             LOCAL ORBITAL
:E1_0001: E( 1)=    0.7000
             APW+lo
:E1_0001: E( 1)=   -0.2459   E(BOTTOM)=   -1.216   E(TOP)=    0.724  3  4   216
             LOCAL ORBITAL
:E3_0001: E( 3)=    0.7488   E(BOTTOM)=    0.749   E(TOP)= -200.000  0 -1   106
             APW+lo
:E2_0001: E( 2)=    0.5169   E(BOTTOM)=    0.517   E(TOP)= -200.000  2 -1    94
             APW+lo

       K=   0.06250   0.00000   0.06250            1
:RKM  : MATRIX SIZE   337LOs:  40  RKM= 8.49  WEIGHT= 4.00  PGR:    
       EIGENVALUES ARE:
:EIG00001:      -1.7140726   -1.6721474   -0.5060272   -0.3363882   -0.2990812
:EIG00006:      -0.2869633   -0.2738898   -0.2706202    0.6799973    0.7656914
:EIG00011:       0.9075632    0.9351361    0.9388145    0.9399346    0.9543536
:EIG00016:       0.9809820    0.9822095    0.9880816    0.9902526    0.9954121
:EIG00021:       1.0004112    1.0044368    1.0105030    1.0283709    1.0332319
:EIG00026:       1.0404384    1.1092198    1.1118715    1.1748771    1.2105722
:EIG00031:       1.2181234    1.3642627    1.3951723    1.4670568    1.7674400
:EIG00036:       1.8159322    1.8502047    1.9476845
       ********************************************************

:KPT   :      NUMBER OF K-POINTS:   288
:GAP (global)   :    0.0    Ry =     0.0   eV (metal)
         Bandranges (emin - emax) and occupancy:
:BAN00004:   4   -0.475414   -0.336388  2.00000000
:BAN00005:   5   -0.446666   -0.299081  2.00000000
:BAN00006:   6   -0.419059   -0.278076  2.00000000
:BAN00007:   7   -0.381592   -0.271899  2.00000000
:BAN00008:   8   -0.314082   -0.262466  2.00000000
:BAN00009:   9    0.672652    0.848867  2.00000000
:BAN00010:  10    0.751828    0.881700  2.00000000
:BAN00011:  11    0.776679    0.937472  2.00000000
:BAN00012:  12    0.851717    0.948461  1.99992757
:BAN00013:  13    0.884887    0.975307  1.53564239
:BAN00014:  14    0.920677    0.980327  0.46443003
:BAN00015:  15    0.947924    0.989117  0.00000000
:BAN00016:  16    0.958445    0.990956  0.00000000
:BAN00017:  17    0.974245    0.993775  0.00000000
:BAN00018:  18    0.979468    0.995754  0.00000000
:BAN00019:  19    0.985740    1.002282  0.00000000
        Energy to separate low and high energystates:    0.62265


:NOE  : NUMBER OF ELECTRONS          =   26.000

:FER  : F E R M I - ENERGY(TETRAH.M.)=   0.9478134647
:GMA  : POTENTIAL AND CHARGE CUT-OFF  12.00 Ry**.5

:POS001: ATOM   -1 X,Y,Z = 0.00000 0.89750 0.25000  MULT= 2  ZZ= 59.000  Pr1       

       LMMAX 16
       LM=   0 0  1 0  2 0  2 2  3 0  3 2  4 0  4 2  4 4  5 0  5 2  5 4  6 0  6 2  6 4  6 6

:CHA001: TOTAL VALENCE CHARGE INSIDE SPHERE   1 =   9.0851    (RMT=  2.3000 )
:PCS001: PARTIAL CHARGES SPHERE =  1 S,P,D,F,PX,PY,PZ,D-Z2,D-X2Y2,D-XY,D-XZ,D-YZ 
:QTL001: 1.9494 4.9911 0.9149 1.2283 1.6586 1.6593 1.6732 0.1804 0.1905 0.1745 0.1821 0.1875
        Q-s-low E-s-low   Q-p-low E-p-low   Q-d-low E-d-low   Q-f-low E-f-low
:EPL001:  1.8637 -1.6701    4.8709 -0.3686    0.0084 -0.4110    0.0024 -0.4209
        Q-s-hi  E-s-hi    Q-p-hi  E-p-hi    Q-d-hi  E-d-hi    Q-f-hi  E-f-hi 
:EPH001:  0.0857  0.8125    0.1202  0.8564    0.9065  0.8441    1.2259  0.9096

                      VXX         VYY         VZZ       UP TO R
:VZZ001:             5.54114     6.53767   -12.07881       2.300

:CHA  : TOTAL VALENCE CHARGE INSIDE UNIT CELL =      26.000000

:SUM  : SUM OF EIGENVALUES =          -2.584140200


        1.ATOM      Pr1                  14 CORE STATES
       CORE-FORCE in mRy/a.u. = |F|      Fx             Fy             Fz
:FCO001:   1.ATOM    453.352279372576      0.000000000000      0.000000000000    453.352279372576

:1S 001: 1S               -3066.566365207 Ry
:2S 001: 2S                -492.332181577 Ry
:2PP001: 2P*               -465.429778560 Ry
:2P 001: 2P                -430.032989489 Ry
:3S 001: 3S                -105.430543339 Ry
:3PP001: 3P*                -93.967901790 Ry
:3P 001: 3P                 -86.960597694 Ry
:3DD001: 3D*                -66.886774274 Ry
:3D 001: 3D                 -65.375372420 Ry
:4S 001: 4S                 -20.120152856 Ry
:4PP001: 4P*                -15.827540639 Ry
:4P 001: 4P                 -14.301091202 Ry
:4DD001: 4D*                 -7.236182384 Ry
:4D 001: 4D                  -6.967159275 Ry
:CINT001 Core Integral Atom   1   45.998428

       DENSITY AT NUCLEUS
        JATOM        VALENCE       SEMI-CORE          CORE           TOTAL
:RTO001:   1      647.997996        0.000000   656819.801716   657467.799711
     
       CHARGES OF NEW CHARGE DENSITY
:NTO   : INTERSTITIAL CHARGE =     7.829786
:NPC   : PW Pseudocharge     =    17.748144
:NTO001: CHARGE SPHERE  1    =    55.083535

:NEC01: NUCLEAR AND ELECTRONIC CHARGE    118.00000   117.99686
     
       CHARGES OF OLD CHARGE DENSITY
:OTO   : INTERSTITIAL CHARGE =     6.592171
:OPC   : PW Pseudocharge     =    16.098270
:OTO001: CHARGE SPHERE  1    =    55.704536

:NEC02: NUCLEAR AND ELECTRONIC CHARGE    118.00000   118.00124
     
       CONVERGENCE TEST
:DTO001: DIFFERENCE IN SPHERE  1 =  1.0761487

:DIS  :  CHARGE DISTANCE       ( 1.0761487 for atom    1 spin 1)      1.0761487
 PW Mixed is          375
 
******************************************************
* MULTISECANT MIXING VER9 RELEASE 10.4.0              *
* Standard Mode with controls                        *
* Fixed density scale                                *
* Regularization       1.000E-04                     *
* Trust Upper Limit    5.000E+00                     *
* Max Number of Memory Steps    8                    *
******************************************************
 
:PWTMP   2.5438E+02  1.9467E+02  3.5631E+02
:PLANE:  PW TOTAL      4.9880 DISTAN   6.84E-01  1.37E+01 %
:CHARG:  CLM/ATOM   1382.0538 DISTAN   1.56E+00  1.13E-01 %
INFO: Reducing dbase  2.50000E-02 1.07615E+00 2.40993E-02
 
Step History
        DMIX         DMIXT        Red     Pred      Trust     Lambda    MagRel    MagAbs     Beta
  1   3.5000E-02   3.5000E-02 -1.00E+00  1.00E+00 -1.00E+01  1.00E+00  3.50E-02  3.50E-02  1.00E+00
:INFO :  Note, Pratt in use
INFO: Reducing dbase  2.40993E-02 1.07615E+00 2.32310E-02
:TRUST:  Step 3.75E-02  Charge 7.50E-02 (e) CTO  2.50E-01 (e) PW  3.50E-01 (e)
:DIRM :  MEMORY  0/ 8 SCALE   1.000
Performing Pseudo Compensation
Final Pseudo Compensation Rescaling     1.00000E+00
:MIX  :   PRATT  REGULARIZATION:  1.00E-04 GREED: 0.02500                  
     
       CHARGES OF MIXED CHARGE DENSITY
:CTO   : INTERSTITIAL CHARGE =     6.621978
:CPC   : PW Pseudocharge     =    17.022384
:CTO001: CHARGE SPHERE  1    =    55.689011

:NEC03: NUCLEAR AND ELECTRONIC CHARGE    118.00000   118.00000

PW CHANGE     H    K    L      Current       Change    Residue
:PTO001:      0    0    0  6.63585898E-02  2.689E-03  8.145E-03
:PTO003:      0    2    0  1.62959594E-02  1.179E-03  2.427E-03
:PTO004:     -1    1    0  7.87797492E-02  6.254E-03  9.055E-03
:PTO005:      0    2   -1 -9.14957187E-02 -7.373E-03 -8.941E-03
:PTO006:      0    0   -2 -4.74598861E-02 -3.829E-03 -4.455E-03
:PTO007:     -1    1   -1 -9.73303857E-02 -8.617E-03 -8.589E-03
:PTO008:      0    2   -2 -1.50044525E-02 -1.698E-03 -1.643E-03
:PTO009:     -1    1   -2 -7.34390182E-02 -9.148E-03 -9.638E-03
:PTO011:     -1    3    0 -1.10846565E-02 -1.737E-03 -1.950E-03
:PTO012:     -1    3   -1 -4.79763730E-02 -8.497E-03 -1.000E-02
:PTO013:      0    4    0 -8.51657958E-03 -1.742E-03 -1.865E-03
:PTO014:      0    2   -3  1.91625279E-02  3.965E-03  5.036E-03

:ENE  : ********** TOTAL ENERGY IN Ry =       -36944.35189335

       TOTAL FORCE IN mRy/a.u. = |F|     Fx             Fy             Fz     with/without FOR in case.in2
:FOR001:   1.ATOM        106.927          0.000          0.000       -106.927 partial forces
       TOTAL FORCE WITH RESPECT TO GLOBAL CARTESIAN COORDINATES:
:FCA001:   1.ATOM                         0.000       -106.927          0.000 partial forces
       TOTAL FORCE WITH RESPECT TO THE GLOBAL COORDINATE SYSTEM:
:FGL001:   1.ATOM                 0.000000000  -106.927457368     0.000000000 partial forces
 Flat Integration
 New Mode for Coulomb Integral
 Consistent 3/8+Simpson combinations
 Extension of core to zero
 LDM version in phi
 Fifth-order quadrature in outwin


            ---------
:ITE002:  2. ITERATION
            ---------

:NATO :    1 INDEPENDENT AND    2 TOTAL ATOMS IN UNITCELL
       SUBSTANCE: aU                                                          

       LATTICE                      = CXY 
:POT  : POTENTIAL OPTION EX_LDA EC_LDA VX_LDA VC_LDA
:LAT  : LATTICE CONSTANTS=  5.85246 11.87613 10.25291    1.571    1.571    1.571
:VOL  : UNIT CELL VOLUME =     356.31200
       MODE OF CALCULATION IS       = RELA
       NON-SPINPOLARIZED CALCULATION
:IFFT  : FFT-parameters:   48   96   80 Factor: 2.00


   CONVERGENCE PARAMETER FOR PSEUDOCHARGE: NCON=  9
   MAXIMAL VALUE OF RMT(JATOM)*ABSK(NKK) : RK  =27.59714


:VKCOUL :  VK-COUL convergence: 0.103E-06
       ATOMNUMBER=  1 Pr1        VCOUL-ZERO =  0.35387E+00
:EFG001:                        EFG         =    -0.35226   *10**21  V / m**2
                               V20  TOT/SRF=    -0.30507    -0.05325
                               V22  TOT/SRF=    -0.00581     0.00771
                               V22M TOT/SRF=     0.00000     0.00000
                               V21  TOT/SRF=     0.00000     0.00000
                               V21M TOT/SRF=     0.00000     0.00000

              0.17033    0.00000    0.00000        0.17033    0.00000    0.00000
              0.00000    0.18194    0.00000        0.00000    0.18194    0.00000
              0.00000    0.00000   -0.35226        0.00000    0.00000   -0.35226

         MAIN DIRECTIONS OF THE EFG   1.0000  0.0000  0.0000
                                      0.0000  1.0000  0.0000
                                      0.0000  0.0000  1.0000
:ANG001:  ANGLE WITH OLD X-AXIS =         0.0

:ETA001:                         ASYMM. ETA =     0.03296


     HELLMANN-FEYNMAN-FORCE IN mRy/a.u. = |F|  Fx       Fy             Fz
:FHF001:   1.ATOM    562.738286035482      0.000000000000      0.000000000000   -562.738286035482

:FIT001: LUSE= 13 SIGMA OF V-XC FIT FOR ATOM  1  0.8435289E-05
:FIT001: LUSE= 13 SIGMA OF V-XC FIT FOR ATOM  1  0.8435289E-05
:DEN  : DENSITY INTEGRAL  =        -14188.93316942   (Ry)
       ELS_POTENTIAL_AT Z=0 and Z=0.5:   0.85780   0.85780
       ELS_POTENTIAL_AT Y=0 and Y=0.5:   0.02328   0.02328
:VZERO:v0,v0c,v0x   0.19857   0.85780  -0.65922 v5,v5c,v5x   0.19857   0.85780  -0.65922
:VZERY:v0,v0c,v0x  -0.84752   0.02328  -0.87080 v5,v5c,v5x  -0.84752   0.02328  -0.87080
:VZERX:v0,v0c,v0x  -1.20992  -0.38724  -0.82268 v5,v5c,v5x  -1.20992  -0.38724  -0.82268
:LMAX-WF:   10   Non-Spherical LMAX:   4

          ATOMIC SPHERE DEPENDENT PARAMETERS FOR ATOM  Pr1       
:e__0001: OVERALL ENERGY PARAMETER IS    0.5000
          OVERALL BASIS SET ON ATOM IS LAPW
:E0_0001: E( 0)=    0.5000
             APW+lo
:E0_0001: E( 0)=   -1.7160   E(BOTTOM)=   -2.359   E(TOP)=   -1.073  4  5   209
             LOCAL ORBITAL
:E1_0001: E( 1)=    0.9000
             APW+lo
:E1_0001: E( 1)=   -0.2506   E(BOTTOM)=   -1.218   E(TOP)=    0.717  3  4   213
             LOCAL ORBITAL
:E3_0001: E( 3)=    0.7369   E(BOTTOM)=    0.737   E(TOP)= -200.000  0 -1    88
             APW+lo
:E2_0001: E( 2)=    0.5162   E(BOTTOM)=    0.516   E(TOP)= -200.000  2 -1    75
             APW+lo

       K=   0.06250   0.00000   0.06250            1
:RKM  : MATRIX SIZE   337LOs:  40  RKM= 8.49  WEIGHT= 4.00  PGR:    
       EIGENVALUES ARE:
:EIG00001:      -1.7189774   -1.6775348   -0.5070648   -0.3392565   -0.3022645
:EIG00006:      -0.2901871   -0.2770770   -0.2740269    0.6840823    0.7694291
:EIG00011:       0.9046944    0.9260995    0.9288458    0.9304133    0.9431082
:EIG00016:       0.9676664    0.9752609    0.9753464    0.9785289    0.9816200
:EIG00021:       0.9870952    0.9927519    0.9964367    1.0131657    1.0200075
:EIG00026:       1.0290517    1.1094100    1.1094856    1.1754336    1.2110856
:EIG00031:       1.2188940    1.3654695    1.3954306    1.4669506    1.7692093
:EIG00036:       1.8177359    1.8525853    1.9488806    2.0611818    2.1258260
       ********************************************************

:KPT   :      NUMBER OF K-POINTS:   288
:GAP (global)   :    0.0    Ry =     0.0   eV (metal)
         Bandranges (emin - emax) and occupancy:
:BAN00005:   5   -0.448514   -0.302265  2.00000000
:BAN00006:   6   -0.420987   -0.281402  2.00000000
:BAN00007:   7   -0.383860   -0.275291  2.00000000
:BAN00008:   8   -0.316940   -0.265962  2.00000000
:BAN00009:   9    0.676768    0.849244  2.00000000
:BAN00010:  10    0.755717    0.880679  2.00000000
:BAN00011:  11    0.780172    0.931524  2.00000000
:BAN00012:  12    0.853054    0.937577  2.00000000
:BAN00013:  13    0.882944    0.961982  1.53678170
:BAN00014:  14    0.914305    0.968513  0.46292862
:BAN00015:  15    0.937962    0.976984  0.00028968
:BAN00016:  16    0.948382    0.977793  0.00000000
:BAN00017:  17    0.961701    0.979913  0.00000000
:BAN00018:  18    0.966941    0.981823  0.00000000
:BAN00019:  19    0.973224    0.989118  0.00000000
:BAN00020:  20    0.979087    0.990019  0.00000000
        Energy to separate low and high energystates:    0.62677


:NOE  : NUMBER OF ELECTRONS          =   26.000

:FER  : F E R M I - ENERGY(TETRAH.M.)=   0.9381713234
:GMA  : POTENTIAL AND CHARGE CUT-OFF  12.00 Ry**.5

:POS001: ATOM   -1 X,Y,Z = 0.00000 0.89750 0.25000  MULT= 2  ZZ= 59.000  Pr1       

       LMMAX 16
       LM=   0 0  1 0  2 0  2 2  3 0  3 2  4 0  4 2  4 4  5 0  5 2  5 4  6 0  6 2  6 4  6 6

:CHA001: TOTAL VALENCE CHARGE INSIDE SPHERE   1 =   9.1999    (RMT=  2.3000 )
:PCS001: PARTIAL CHARGES SPHERE =  1 S,P,D,F,PX,PY,PZ,D-Z2,D-X2Y2,D-XY,D-XZ,D-YZ 
:QTL001: 1.9479 4.9905 0.8680 1.3922 1.6591 1.6591 1.6723 0.1698 0.1756 0.1680 0.1744 0.1802
        Q-s-low E-s-low   Q-p-low E-p-low   Q-d-low E-d-low   Q-f-low E-f-low
:EPL001:  1.8648 -1.6756    4.8802 -0.3710    0.0083 -0.4133    0.0024 -0.4232
        Q-s-hi  E-s-hi    Q-p-hi  E-p-hi    Q-d-hi  E-d-hi    Q-f-hi  E-f-hi 
:EPH001:  0.0831  0.8124    0.1102  0.8534    0.8597  0.8413    1.3898  0.9035

                      VXX         VYY         VZZ       UP TO R
:VZZ001:             4.22524     6.35162   -10.57686       2.300

:CHA  : TOTAL VALENCE CHARGE INSIDE UNIT CELL =      26.000000

:SUM  : SUM OF EIGENVALUES =          -2.642992921


        1.ATOM      Pr1                  14 CORE STATES
       CORE-FORCE in mRy/a.u. = |F|      Fx             Fy             Fz
:FCO001:   1.ATOM    462.649672042737      0.000000000000      0.000000000000    462.649672042737

:1S 001: 1S               -3066.599697516 Ry
:2S 001: 2S                -492.365026256 Ry
:2PP001: 2P*               -465.462688400 Ry
:2P 001: 2P                -430.065870394 Ry
:3S 001: 3S                -105.462141588 Ry
:3PP001: 3P*                -93.999600891 Ry
:3P 001: 3P                 -86.992131956 Ry
:3DD001: 3D*                -66.918610530 Ry
:3D 001: 3D                 -65.407165980 Ry
:4S 001: 4S                 -20.143964192 Ry
:4PP001: 4P*                -15.850877120 Ry
:4P 001: 4P                 -14.323688972 Ry
:4DD001: 4D*                 -7.257457662 Ry
:4D 001: 4D                  -6.988180771 Ry
:CINT001 Core Integral Atom   1   45.998448

       DENSITY AT NUCLEUS
        JATOM        VALENCE       SEMI-CORE          CORE           TOTAL
:RTO001:   1      648.338635        0.000000   656821.500935   657469.839570
     
       CHARGES OF NEW CHARGE DENSITY
:NTO   : INTERSTITIAL CHARGE =     7.600285
:NPC   : PW Pseudocharge     =    17.663672
:NTO001: CHARGE SPHERE  1    =    55.198304

:NEC01: NUCLEAR AND ELECTRONIC CHARGE    118.00000   117.99689
     
       CHARGES OF OLD CHARGE DENSITY
:OTO   : INTERSTITIAL CHARGE =     6.621977
:OPC   : PW Pseudocharge     =    17.022385
:OTO001: CHARGE SPHERE  1    =    55.689011

:NEC02: NUCLEAR AND ELECTRONIC CHARGE    118.00000   118.00000
     
       CONVERGENCE TEST
:DTO001: DIFFERENCE IN SPHERE  1 =  0.8483194

:DIS  :  CHARGE DISTANCE       ( 0.8483194 for atom    1 spin 1)      0.8483194
 PW Mixed is          375
 
******************************************************
* MULTISECANT MIXING VER9 RELEASE 10.4.0              *
* Slow Mode, cautious                                *
* Fixed density scale                                *
* Regularization       1.000E-04                     *
* Step Trust Radius    0.75000                       *
* Trust Upper Limit    2.000E+00                     *
* Max Number of Memory Steps   12                    *
******************************************************
 
:PWTMP   2.5438E+02  1.9467E+02  3.5631E+02
:PLANE:  PW TOTAL      5.3890 DISTAN   2.61E-01  4.85E+00 %
:CHARG:  CLM/ATOM   1382.0480 DISTAN   1.26E+00  9.10E-02 %
 
Step History
        DMIX         DMIXT        Red     Pred      Trust     Lambda    MagRel    MagAbs     Beta
  1   3.5000E-02   3.5000E-02 -1.00E+00  1.00E+00 -1.00E+01  1.00E+00  3.50E-02  3.50E-02  1.00E+00
  2   2.5000E-02   2.5000E-02 -1.00E+00  1.00E+00 -1.00E+01  1.00E+00  2.50E-02  4.26E-02  1.00E+00
:JACOBIANS    3.427E-01   1.755E-02
  
:TRUST:  Step 4.38E-02  Charge 7.50E-02 (e) CTO  2.50E-01 (e) PW  3.50E-01 (e)
:DIRM :  MEMORY  1/12 SCALE   1.000
:MIX  :   PRATT  REGULARIZATION:  1.00E-04 GREED: 0.04381  Expand 1.75  0.0438 Step           
     
       CHARGES OF MIXED CHARGE DENSITY
:CTO   : INTERSTITIAL CHARGE =     6.634096
:CPC   : PW Pseudocharge     =    17.384245
:CTO001: CHARGE SPHERE  1    =    55.682952

:NEC03: NUCLEAR AND ELECTRONIC CHARGE    118.00000   118.00000

PW CHANGE     H    K    L      Current       Change    Residue
:PTO001:      0    0    0  6.74081734E-02  1.050E-03  4.574E-03
:PTO003:      0    2    0  1.67560470E-02  4.601E-04  1.234E-03
:PTO004:     -1    1    0  8.12207733E-02  2.441E-03  2.854E-03
:PTO005:      0    2   -1 -9.43734101E-02 -2.878E-03 -1.562E-03
:PTO006:      0    0   -2 -4.89542540E-02 -1.494E-03 -6.457E-04
:PTO007:     -1    1   -1 -1.00693578E-01 -3.363E-03 -1.876E-04
:PTO008:      0    2   -2 -1.56670626E-02 -6.626E-04  4.595E-05
:PTO009:     -1    1   -2 -7.70092549E-02 -3.570E-03 -7.182E-04
:PTO011:     -1    3    0 -1.17623992E-02 -6.777E-04 -2.801E-04
:PTO012:     -1    3   -1 -5.12926232E-02 -3.316E-03 -1.671E-03
:PTO013:      0    4    0 -9.19645571E-03 -6.799E-04 -1.346E-04
:PTO014:      0    2   -3  2.07098862E-02  1.547E-03  1.076E-03

:ENE  : ********** TOTAL ENERGY IN Ry =       -36944.31838332

       TOTAL FORCE IN mRy/a.u. = |F|     Fx             Fy             Fz     with/without FOR in case.in2
:FOR001:   1.ATOM        100.089          0.000          0.000       -100.089 partial forces
       TOTAL FORCE WITH RESPECT TO GLOBAL CARTESIAN COORDINATES:
:FCA001:   1.ATOM                         0.000       -100.089          0.000 partial forces
       TOTAL FORCE WITH RESPECT TO THE GLOBAL COORDINATE SYSTEM:
:FGL001:   1.ATOM                 0.000000000  -100.088613993     0.000000000 partial forces
 Flat Integration
 New Mode for Coulomb Integral
 Consistent 3/8+Simpson combinations
 Extension of core to zero
 LDM version in phi
 Fifth-order quadrature in outwin


            ---------
:ITE003:  3. ITERATION
            ---------

:NATO :    1 INDEPENDENT AND    2 TOTAL ATOMS IN UNITCELL
       SUBSTANCE: aU                                                          

       LATTICE                      = CXY 
:POT  : POTENTIAL OPTION EX_LDA EC_LDA VX_LDA VC_LDA
:LAT  : LATTICE CONSTANTS=  5.85246 11.87613 10.25291    1.571    1.571    1.571
:VOL  : UNIT CELL VOLUME =     356.31200
       MODE OF CALCULATION IS       = RELA
       NON-SPINPOLARIZED CALCULATION
:IFFT  : FFT-parameters:   48   96   80 Factor: 2.00


   CONVERGENCE PARAMETER FOR PSEUDOCHARGE: NCON=  9
   MAXIMAL VALUE OF RMT(JATOM)*ABSK(NKK) : RK  =27.59714


:VKCOUL :  VK-COUL convergence: 0.104E-06
       ATOMNUMBER=  1 Pr1        VCOUL-ZERO =  0.35594E+00
:EFG001:                        EFG         =    -0.47021   *10**21  V / m**2
                               V20  TOT/SRF=    -0.40721    -0.05316
                               V22  TOT/SRF=    -0.01083     0.00745
                               V22M TOT/SRF=     0.00000     0.00000
                               V21  TOT/SRF=     0.00000     0.00000
                               V21M TOT/SRF=     0.00000     0.00000

              0.22427    0.00000    0.00000        0.22427    0.00000    0.00000
              0.00000    0.24594    0.00000        0.00000    0.24594    0.00000
              0.00000    0.00000   -0.47021        0.00000    0.00000   -0.47021

         MAIN DIRECTIONS OF THE EFG   1.0000  0.0000  0.0000
                                      0.0000  1.0000  0.0000
                                      0.0000  0.0000  1.0000
:ANG001:  ANGLE WITH OLD X-AXIS =         0.0

:ETA001:                         ASYMM. ETA =     0.04608


     HELLMANN-FEYNMAN-FORCE IN mRy/a.u. = |F|  Fx       Fy             Fz
:FHF001:   1.ATOM    563.781178749906      0.000000000000      0.000000000000   -563.781178749906

:FIT001: LUSE= 13 SIGMA OF V-XC FIT FOR ATOM  1  0.8542226E-05
:FIT001: LUSE= 13 SIGMA OF V-XC FIT FOR ATOM  1  0.8542226E-05
:DEN  : DENSITY INTEGRAL  =        -14187.88805510   (Ry)
       ELS_POTENTIAL_AT Z=0 and Z=0.5:   0.86092   0.86092
       ELS_POTENTIAL_AT Y=0 and Y=0.5:   0.02476   0.02476
:VZERO:v0,v0c,v0x   0.20126   0.86092  -0.65966 v5,v5c,v5x   0.20126   0.86092  -0.65966
:VZERY:v0,v0c,v0x  -0.84741   0.02476  -0.87217 v5,v5c,v5x  -0.84741   0.02476  -0.87217
:VZERX:v0,v0c,v0x  -1.21526  -0.38992  -0.82534 v5,v5c,v5x  -1.21526  -0.38992  -0.82534
:LMAX-WF:   10   Non-Spherical LMAX:   4

          ATOMIC SPHERE DEPENDENT PARAMETERS FOR ATOM  Pr1       
:e__0001: OVERALL ENERGY PARAMETER IS    0.7000
          OVERALL BASIS SET ON ATOM IS LAPW
:E0_0001: E( 0)=    0.7000
             APW+lo
:E0_0001: E( 0)=   -1.7184   E(BOTTOM)=   -2.361   E(TOP)=   -1.076  4  5   207
             LOCAL ORBITAL
:E1_0001: E( 1)=    1.1000
             APW+lo
:E1_0001: E( 1)=   -0.2524   E(BOTTOM)=   -1.219   E(TOP)=    0.714  3  4   216
             LOCAL ORBITAL
:E3_0001: E( 3)=    0.9448   E(BOTTOM)=    0.732   E(TOP)=    1.157  0  1   124
             APW+lo
:E2_0001: E( 2)=    0.7000   E(BOTTOM)=    0.516   E(TOP)= -200.000  2 -1   121
             APW+lo

       K=   0.06250   0.00000   0.06250            1
:RKM  : MATRIX SIZE   337LOs:  40  RKM= 8.49  WEIGHT= 4.00  PGR:    
       EIGENVALUES ARE:
:EIG00001:      -1.7208718   -1.6796144   -0.5074467   -0.3403403   -0.3034824
:EIG00006:      -0.2914013   -0.2782820   -0.2753241    0.6857248    0.7709182
:EIG00011:       0.9032170    0.9223081    0.9243757    0.9267433    0.9385897
:EIG00016:       0.9622725    0.9700795    0.9704167    0.9753771    0.9759990
:EIG00021:       0.9816895    0.9880226    0.9906565    1.0068923    1.0148141
:EIG00026:       1.0248975    1.1083670    1.1095636    1.1755187    1.2110619
:EIG00031:       1.2190206    1.3655963    1.3948519    1.4659785    1.7643723
:EIG00036:       1.8122858    1.8474864    1.9471794    2.0558766    2.1209917
:EIG00041:       2.2694039    2.3531739
       ********************************************************

:KPT   :      NUMBER OF K-POINTS:   288
:GAP (global)   :    0.0    Ry =     0.0   eV (metal)
         Bandranges (emin - emax) and occupancy:
:BAN00005:   5   -0.449182   -0.303482  2.00000000
:BAN00006:   6   -0.421705   -0.282652  2.00000000
:BAN00007:   7   -0.384710   -0.276570  2.00000000
:BAN00008:   8   -0.318000   -0.267291  2.00000000
:BAN00009:   9    0.678422    0.849291  2.00000000
:BAN00010:  10    0.757262    0.880038  2.00000000
:BAN00011:  11    0.781552    0.928176  2.00000000
:BAN00012:  12    0.853480    0.933620  2.00000000
:BAN00013:  13    0.881971    0.956620  1.54227686
:BAN00014:  14    0.911540    0.964220  0.45735258
:BAN00015:  15    0.933932    0.971310  0.00036235
:BAN00016:  16    0.944173    0.972269  0.00000000
:BAN00017:  17    0.956458    0.974322  0.00000000
:BAN00018:  18    0.961802    0.976172  0.00000000
:BAN00019:  19    0.968769    0.983693  0.00000000
:BAN00020:  20    0.974194    0.984335  0.00000000
        Energy to separate low and high energystates:    0.62842


:NOE  : NUMBER OF ELECTRONS          =   26.000

:FER  : F E R M I - ENERGY(TETRAH.M.)=   0.9340824297
:GMA  : POTENTIAL AND CHARGE CUT-OFF  12.00 Ry**.5

:POS001: ATOM   -1 X,Y,Z = 0.00000 0.89750 0.25000  MULT= 2  ZZ= 59.000  Pr1       

       LMMAX 16
       LM=   0 0  1 0  2 0  2 2  3 0  3 2  4 0  4 2  4 4  5 0  5 2  5 4  6 0  6 2  6 4  6 6

:CHA001: TOTAL VALENCE CHARGE INSIDE SPHERE   1 =   9.2484    (RMT=  2.3000 )
:PCS001: PARTIAL CHARGES SPHERE =  1 S,P,D,F,PX,PY,PZ,D-Z2,D-X2Y2,D-XY,D-XZ,D-YZ 
:QTL001: 1.9472 4.9901 0.8488 1.4610 1.6592 1.6590 1.6718 0.1656 0.1699 0.1652 0.1712 0.1769
        Q-s-low E-s-low   Q-p-low E-p-low   Q-d-low E-d-low   Q-f-low E-f-low
:EPL001:  1.8653 -1.6777    4.8839 -0.3719    0.0082 -0.4142    0.0024 -0.4242
        Q-s-hi  E-s-hi    Q-p-hi  E-p-hi    Q-d-hi  E-d-hi    Q-f-hi  E-f-hi 
:EPH001:  0.0819  0.8123    0.1062  0.8521    0.8406  0.8402    1.4586  0.9009

                      VXX         VYY         VZZ       UP TO R
:VZZ001:             3.62969     6.16213    -9.79182       2.300

:CHA  : TOTAL VALENCE CHARGE INSIDE UNIT CELL =      25.999992

:SUM  : SUM OF EIGENVALUES =          -2.667013636


        1.ATOM      Pr1                  14 CORE STATES
       CORE-FORCE in mRy/a.u. = |F|      Fx             Fy             Fz
:FCO001:   1.ATOM    466.345551230773      0.000000000000      0.000000000000    466.345551230773

:1S 001: 1S               -3066.612686417 Ry
:2S 001: 2S                -492.377824840 Ry
:2PP001: 2P*               -465.475512415 Ry
:2P 001: 2P                -430.078683116 Ry
:3S 001: 3S                -105.474453702 Ry
:3PP001: 3P*                -94.011952368 Ry
:3P 001: 3P                 -87.004419099 Ry
:3DD001: 3D*                -66.931015544 Ry
:3D 001: 3D                 -65.419554330 Ry
:4S 001: 4S                 -20.153237720 Ry
:4PP001: 4P*                -15.859965530 Ry
:4P 001: 4P                 -14.332489218 Ry
:4DD001: 4D*                 -7.265742797 Ry
:4D 001: 4D                  -6.996366953 Ry
:CINT001 Core Integral Atom   1   45.998455

       DENSITY AT NUCLEUS
        JATOM        VALENCE       SEMI-CORE          CORE           TOTAL
:RTO001:   1      648.415276        0.000000   656822.163924   657470.579200
     
       CHARGES OF NEW CHARGE DENSITY
:NTO   : INTERSTITIAL CHARGE =     7.503224
:NPC   : PW Pseudocharge     =    17.627443
:NTO001: CHARGE SPHERE  1    =    55.246839

:NEC01: NUCLEAR AND ELECTRONIC CHARGE    118.00000   117.99690
     
       CHARGES OF OLD CHARGE DENSITY
:OTO   : INTERSTITIAL CHARGE =     6.634096
:OPC   : PW Pseudocharge     =    17.384245
:OTO001: CHARGE SPHERE  1    =    55.682952

:NEC02: NUCLEAR AND ELECTRONIC CHARGE    118.00000   118.00000
     
       CONVERGENCE TEST
:DTO001: DIFFERENCE IN SPHERE  1 =  0.7473342

:DIS  :  CHARGE DISTANCE       ( 0.7473342 for atom    1 spin 1)      0.7473342
 PW Mixed is          375
 
******************************************************
* MULTISECANT MIXING VER9 RELEASE 10.4.0              *
* Standard Mode with controls                        *
* Fixed density scale                                *
* Regularization       1.000E-04                     *
* Trust Upper Limit    5.000E+00                     *
* Max Number of Memory Steps    8                    *
******************************************************
 
:PWTMP   2.5438E+02  1.9467E+02  3.5631E+02
:PLANE:  PW TOTAL      5.5495 DISTAN   2.19E-01  3.94E+00 %
:CHARG:  CLM/ATOM   1382.0457 DISTAN   1.13E+00  8.15E-02 %
 
Step History
        DMIX         DMIXT        Red     Pred      Trust     Lambda    MagRel    MagAbs     Beta
  1   3.5000E-02   3.5000E-02 -1.00E+00  1.00E+00 -1.00E+01  1.00E+00  3.50E-02  3.50E-02  1.00E+00
  2   2.5000E-02   2.5000E-02  7.53E-01  1.00E+00 -1.00E+01  1.00E+00  2.50E-02  4.26E-02  1.00E+00
  3   4.3813E-02   4.3813E-02 -1.00E+00  1.00E+00 -1.00E+01  1.00E+00  4.38E-02  5.63E-02  1.00E+00
:JACOBIANS    6.356E-01   1.404E-02
  
:NORMS:  1/Froebius, Min, Max, Used   0.8006E+00  0.4709E+00  0.9418E+00  0.8008E+00
:INFO :  Number of Memory Steps    2 Skipping    0
:INFO :  SLambda=    1.2799807151  Max    1.2799807151
:PREDicted Charge, CTotal, PW Trust    5.870E-03   1.174E-02   1.979E-01
:PREDicted DMix, Beta, BLim   2.1417E-02  8.5655E-01  9.0053E-01

Eigenvalues, unscaled except for SY+YY
   #     SY Real        SY Imag          SS             YY         SY+YY Real      SY+YY Imag
   1   1.362360E+00   0.000000E+00   1.281848E+00   1.998746E+00   3.742318E+00   0.000000E+00
   2  -2.242651E-14   0.000000E+00   0.000000E+00   1.253691E-03   1.476725E-03   0.000000E+00
 
:INFO :  Singular value  3.742E+00 Weight  1.000E+00 Projection -2.143E-01
:INFO :  Singular value  1.477E-03 Weight  9.820E-01 Projection -2.070E+01
:RANK :  ACTIVE   1.98/2  =  99.10 % ; YY RANK   1.98/2  =  98.76 %
 
:DLIM :  Beta Active  8.924E-01
:BLIM :  VZERO Control Off
:TRUST:  Step 2.78E-01  Charge 7.50E-02 (e) CTO  2.50E-01 (e) PW  3.50E-01 (e)
:DIRM :  MEMORY  2/8  SCALE   1.000 RED  0.89 PRED  1.00 NEXT  0.63 BETA  0.89
:TRAVE:  Charge 7.67E-03 (e) CTO  1.53E-02 (e) PW  2.15E-03 (e)
:DIRP :  |MSR1|= 1.543E-02 |PRATT|= 2.186E-01 ANGLE=  55.7 DEGREES
:DIRQ :  |MSR1|= 1.974E-02 |PRATT|= 1.126E+00 ANGLE=  53.8 DEGREES
:DIRT :  |MSR1|= 2.505E-02 |PRATT|= 1.147E+00 ANGLE=  58.4 DEGREES
:MIX  :   MSE1   REGULARIZATION:  2.00E-04 GREED: 0.02916  Newton 1.00  0.0218                
     
       CHARGES OF MIXED CHARGE DENSITY
:CTO   : INTERSTITIAL CHARGE =     6.649431
:CPC   : PW Pseudocharge     =    17.364970
:CTO001: CHARGE SPHERE  1    =    55.675284

:NEC03: NUCLEAR AND ELECTRONIC CHARGE    118.00000   118.00000

PW CHANGE     H    K    L      Current       Change    Residue
:PTO001:      0    0    0  6.73971156E-02 -1.106E-05  3.151E-03
:PTO003:      0    2    0  1.67605757E-02  4.529E-06  7.773E-04
:PTO004:     -1    1    0  8.10731572E-02 -1.476E-04  4.268E-04
:PTO005:      0    2   -1 -9.41666245E-02  2.068E-04  1.309E-03
:PTO006:      0    0   -2 -4.88317563E-02  1.225E-04  8.447E-04
:PTO007:     -1    1   -1 -1.00379118E-01  3.145E-04  3.103E-03
:PTO008:      0    2   -2 -1.55993465E-02  6.772E-05  7.095E-04
:PTO009:     -1    1   -2 -7.66868267E-02  3.224E-04  2.778E-03
:PTO011:     -1    3    0 -1.16988518E-02  6.355E-05  3.796E-04
:PTO012:     -1    3   -1 -5.10241023E-02  2.685E-04  1.593E-03
:PTO013:      0    4    0 -9.14172258E-03  5.473E-05  5.382E-04
:PTO014:      0    2   -3  2.05982822E-02 -1.116E-04 -4.715E-04

:ENE  : ********** TOTAL ENERGY IN Ry =       -36944.30745429

       TOTAL FORCE IN mRy/a.u. = |F|     Fx             Fy             Fz     with/without FOR in case.in2
:FOR001:   1.ATOM         97.436          0.000          0.000        -97.436 partial forces
       TOTAL FORCE WITH RESPECT TO GLOBAL CARTESIAN COORDINATES:
:FCA001:   1.ATOM                         0.000        -97.436          0.000 partial forces
       TOTAL FORCE WITH RESPECT TO THE GLOBAL COORDINATE SYSTEM:
:FGL001:   1.ATOM                 0.000000000   -97.435627519     0.000000000 partial forces
 Flat Integration
 New Mode for Coulomb Integral
 Consistent 3/8+Simpson combinations
 Extension of core to zero
 LDM version in phi
 Fifth-order quadrature in outwin


            ---------
:ITE004:  4. ITERATION
            ---------

:NATO :    1 INDEPENDENT AND    2 TOTAL ATOMS IN UNITCELL
       SUBSTANCE: aU                                                          

       LATTICE                      = CXY 
:POT  : POTENTIAL OPTION EX_LDA EC_LDA VX_LDA VC_LDA
:LAT  : LATTICE CONSTANTS=  5.85246 11.87613 10.25291    1.571    1.571    1.571
:VOL  : UNIT CELL VOLUME =     356.31200
       MODE OF CALCULATION IS       = RELA
       NON-SPINPOLARIZED CALCULATION
:IFFT  : FFT-parameters:   48   96   80 Factor: 2.00


   CONVERGENCE PARAMETER FOR PSEUDOCHARGE: NCON=  9
   MAXIMAL VALUE OF RMT(JATOM)*ABSK(NKK) : RK  =27.59714


:VKCOUL :  VK-COUL convergence: 0.105E-06
       ATOMNUMBER=  1 Pr1        VCOUL-ZERO =  0.35617E+00
:EFG001:                        EFG         =    -0.48367   *10**21  V / m**2
                               V20  TOT/SRF=    -0.41887    -0.05168
                               V22  TOT/SRF=    -0.02466     0.00685
                               V22M TOT/SRF=     0.00000     0.00000
                               V21  TOT/SRF=     0.00000     0.00000
                               V21M TOT/SRF=     0.00000     0.00000

              0.21718    0.00000    0.00000        0.21718    0.00000    0.00000
              0.00000    0.26649    0.00000        0.00000    0.26649    0.00000
              0.00000    0.00000   -0.48367        0.00000    0.00000   -0.48367

         MAIN DIRECTIONS OF THE EFG   1.0000  0.0000  0.0000
                                      0.0000  1.0000  0.0000
                                      0.0000  0.0000  1.0000
:ANG001:  ANGLE WITH OLD X-AXIS =         0.0

:ETA001:                         ASYMM. ETA =     0.10197


     HELLMANN-FEYNMAN-FORCE IN mRy/a.u. = |F|  Fx       Fy             Fz
:FHF001:   1.ATOM    563.202179187509      0.000000000000      0.000000000000   -563.202179187509

:FIT001: LUSE= 13 SIGMA OF V-XC FIT FOR ATOM  1  0.9185093E-05
:FIT001: LUSE= 13 SIGMA OF V-XC FIT FOR ATOM  1  0.9185093E-05
:DEN  : DENSITY INTEGRAL  =        -14187.08235671   (Ry)
       ELS_POTENTIAL_AT Z=0 and Z=0.5:   0.86255   0.86255
       ELS_POTENTIAL_AT Y=0 and Y=0.5:   0.02535   0.02535
:VZERO:v0,v0c,v0x   0.20231   0.86255  -0.66023 v5,v5c,v5x   0.20231   0.86255  -0.66023
:VZERY:v0,v0c,v0x  -0.84730   0.02535  -0.87265 v5,v5c,v5x  -0.84730   0.02535  -0.87265
:VZERX:v0,v0c,v0x  -1.21581  -0.39015  -0.82565 v5,v5c,v5x  -1.21581  -0.39015  -0.82565
:LMAX-WF:   10   Non-Spherical LMAX:   4

          ATOMIC SPHERE DEPENDENT PARAMETERS FOR ATOM  Pr1       
:e__0001: OVERALL ENERGY PARAMETER IS    0.7227
          OVERALL BASIS SET ON ATOM IS LAPW
:E0_0001: E( 0)=    0.7227
             APW+lo
:E0_0001: E( 0)=   -1.7220   E(BOTTOM)=   -2.364   E(TOP)=   -1.080  4  5   212
             LOCAL ORBITAL
:E1_0001: E( 1)=    1.1227
             APW+lo
:E1_0001: E( 1)=   -0.2556   E(BOTTOM)=   -1.221   E(TOP)=    0.710  3  4   215
             LOCAL ORBITAL
:E3_0001: E( 3)=    0.9391   E(BOTTOM)=    0.727   E(TOP)=    1.151  0  1   117
             APW+lo
:E2_0001: E( 2)=    0.7227   E(BOTTOM)=    0.514   E(TOP)= -200.000  2 -1   120
             APW+lo

       K=   0.06250   0.00000   0.06250            1
:RKM  : MATRIX SIZE   337LOs:  40  RKM= 8.49  WEIGHT= 4.00  PGR:    
       EIGENVALUES ARE:
:EIG00001:      -1.7241255   -1.6830560   -0.5091364   -0.3433592   -0.3066175
:EIG00006:      -0.2939512   -0.2807719   -0.2779591    0.6856795    0.7705861
:EIG00011:       0.9008573    0.9183948    0.9196341    0.9223555    0.9336006
:EIG00016:       0.9572375    0.9651491    0.9652268    0.9705666    0.9718329
:EIG00021:       0.9762871    0.9830116    0.9851369    1.0009485    1.0098549
:EIG00026:       1.0209310    1.1065775    1.1081353    1.1742336    1.2096660
:EIG00031:       1.2179760    1.3647212    1.3935523    1.4644638    1.7636840
:EIG00036:       1.8116151    1.8469064    1.9461552    2.0556865    2.1209527
:EIG00041:       2.2690157    2.3528841
       ********************************************************

:KPT   :      NUMBER OF K-POINTS:   288
:GAP (global)   :    0.0    Ry =     0.0   eV (metal)
         Bandranges (emin - emax) and occupancy:
:BAN00005:   5   -0.451261   -0.306618  2.00000000
:BAN00006:   6   -0.424094   -0.285236  2.00000000
:BAN00007:   7   -0.387269   -0.279185  2.00000000
:BAN00008:   8   -0.320517   -0.269953  2.00000000
:BAN00009:   9    0.678388    0.848056  2.00000000
:BAN00010:  10    0.757044    0.878090  2.00000000
:BAN00011:  11    0.781109    0.924239  2.00000000
:BAN00012:  12    0.852474    0.929562  2.00000000
:BAN00013:  13    0.879672    0.951379  1.53110091
:BAN00014:  14    0.908074    0.960759  0.46852435
:BAN00015:  15    0.929503    0.965616  0.00037474
:BAN00016:  16    0.939459    0.967082  0.00000000
:BAN00017:  17    0.951244    0.969541  0.00000000
:BAN00018:  18    0.956801    0.971039  0.00000000
:BAN00019:  19    0.963633    0.978251  0.00000000
:BAN00020:  20    0.969156    0.979331  0.00000000
        Energy to separate low and high energystates:    0.62839


:NOE  : NUMBER OF ELECTRONS          =   26.000

:FER  : F E R M I - ENERGY(TETRAH.M.)=   0.9296435354
:GMA  : POTENTIAL AND CHARGE CUT-OFF  12.00 Ry**.5

:POS001: ATOM   -1 X,Y,Z = 0.00000 0.89750 0.25000  MULT= 2  ZZ= 59.000  Pr1       

       LMMAX 16
       LM=   0 0  1 0  2 0  2 2  3 0  3 2  4 0  4 2  4 4  5 0  5 2  5 4  6 0  6 2  6 4  6 6

:CHA001: TOTAL VALENCE CHARGE INSIDE SPHERE   1 =   9.2839    (RMT=  2.3000 )
:PCS001: PARTIAL CHARGES SPHERE =  1 S,P,D,F,PX,PY,PZ,D-Z2,D-X2Y2,D-XY,D-XZ,D-YZ 
:QTL001: 1.9467 4.9905 0.8351 1.5103 1.6595 1.6591 1.6718 0.1629 0.1654 0.1633 0.1688 0.1747
        Q-s-low E-s-low   Q-p-low E-p-low   Q-d-low E-d-low   Q-f-low E-f-low
:EPL001:  1.8656 -1.6812    4.8871 -0.3743    0.0082 -0.4163    0.0024 -0.4263
        Q-s-hi  E-s-hi    Q-p-hi  E-p-hi    Q-d-hi  E-d-hi    Q-f-hi  E-f-hi 
:EPH001:  0.0811  0.8109    0.1033  0.8499    0.8269  0.8381    1.5079  0.8975

                      VXX         VYY         VZZ       UP TO R
:VZZ001:             3.60087     6.35751    -9.95838       2.300

:CHA  : TOTAL VALENCE CHARGE INSIDE UNIT CELL =      26.000000

:SUM  : SUM OF EIGENVALUES =          -2.727465865


        1.ATOM      Pr1                  14 CORE STATES
       CORE-FORCE in mRy/a.u. = |F|      Fx             Fy             Fz
:FCO001:   1.ATOM    473.885193594029      0.000000000000      0.000000000000    473.885193594029

:1S 001: 1S               -3066.621558994 Ry
:2S 001: 2S                -492.386292805 Ry
:2PP001: 2P*               -465.484015815 Ry
:2P 001: 2P                -430.087168875 Ry
:3S 001: 3S                -105.482869422 Ry
:3PP001: 3P*                -94.020375076 Ry
:3P 001: 3P                 -87.012829539 Ry
:3DD001: 3D*                -66.939422201 Ry
:3D 001: 3D                 -65.427958753 Ry
:4S 001: 4S                 -20.160847480 Ry
:4PP001: 4P*                -15.867501829 Ry
:4P 001: 4P                 -14.339920847 Ry
:4DD001: 4D*                 -7.272934175 Ry
:4D 001: 4D                  -7.003517032 Ry
:CINT001 Core Integral Atom   1   45.998460

       DENSITY AT NUCLEUS
        JATOM        VALENCE       SEMI-CORE          CORE           TOTAL
:RTO001:   1      648.518774        0.000000   656822.420060   657470.938834
     
       CHARGES OF NEW CHARGE DENSITY
:NTO   : INTERSTITIAL CHARGE =     7.432199
:NPC   : PW Pseudocharge     =    17.604085
:NTO001: CHARGE SPHERE  1    =    55.282360

:NEC01: NUCLEAR AND ELECTRONIC CHARGE    118.00000   117.99692
     
       CHARGES OF OLD CHARGE DENSITY
:OTO   : INTERSTITIAL CHARGE =     6.649431
:OPC   : PW Pseudocharge     =    17.364970
:OTO001: CHARGE SPHERE  1    =    55.675284

:NEC02: NUCLEAR AND ELECTRONIC CHARGE    118.00000   118.00000
     
       CONVERGENCE TEST
:DTO001: DIFFERENCE IN SPHERE  1 =  0.6817174

:DIS  :  CHARGE DISTANCE       ( 0.6817174 for atom    1 spin 1)      0.6817174
 PW Mixed is          375
 
******************************************************
* MULTISECANT MIXING VER9 RELEASE 10.4.0              *
* Slow Mode, cautious                                *
* Fixed density scale                                *
* Regularization       1.000E-04                     *
* Step Trust Radius    0.75000                       *
* Trust Upper Limit    2.000E+00                     *
* Max Number of Memory Steps   12                    *
******************************************************
 
:PWTMP   2.5438E+02  1.9467E+02  3.5631E+02
:PLANE:  PW TOTAL      5.5391 DISTAN   1.99E-01  3.59E+00 %
:CHARG:  CLM/ATOM   1382.0424 DISTAN   1.04E+00  7.50E-02 %
 
Step History
        DMIX         DMIXT        Red     Pred      Trust     Lambda    MagRel    MagAbs     Beta
  1   3.5000E-02   3.5000E-02 -1.00E+00  1.00E+00 -1.00E+01  1.00E+00  3.50E-02  3.50E-02  1.00E+00
  2   2.5000E-02   2.5000E-02  7.53E-01  1.00E+00 -1.00E+01  1.00E+00  2.50E-02  4.26E-02  1.00E+00
  3   4.3813E-02   4.3813E-02  8.93E-01  1.00E+00 -1.00E+01  1.28E+00  4.38E-02  5.63E-02  1.00E+00
  4   2.9162E-02   2.9162E-02 -1.00E+00  6.33E-01  2.78E-01  1.00E+00  2.18E-02  2.51E-02  8.92E-01
:JACOBIANS    8.157E-01   1.313E-01
  
:NORMS:  1/Froebius, Min, Max, Used   0.5761E+00  0.4181E+00  0.9913E+00  0.6201E+00
:INFO :  Number of Memory Steps    3 Skipping    0
:INFO :  SLambda=    1.9444471132  Max    1.9444471132
:PREDicted Charge, CTotal, PW Trust    8.582E-02   1.716E-01   4.911E-02
:PREDicted DMix, Beta, BLim   2.3683E-01  5.4498E+00  4.7785E-01

Eigenvalues, unscaled except for SY+YY
   #     SY Real        SY Imag          SS             YY         SY+YY Real      SY+YY Imag
   1   1.028661E+00   0.000000E+00   9.458541E-01   2.460139E+00   4.144727E+00   0.000000E+00
   2  -1.601216E-14   0.000000E+00   4.979633E-02   5.393735E-01   6.222776E-04   0.000000E+00
   3   1.308366E-01   0.000000E+00   4.484378E-17   4.872658E-04   1.109232E+00   0.000000E+00
 
:INFO :  Singular value  4.146E+00 Weight  1.000E+00 Projection -3.192E-01
:INFO :  Singular value  1.109E+00 Weight  1.000E+00 Projection -8.828E-01
:INFO :  Singular value  6.223E-04 Weight  8.648E-01 Projection -1.456E+00
:RANK :  ACTIVE   2.86/3  =  95.49 % ; YY RANK   2.80/3  =  93.23 %
 
:BLIM :  VZERO Control Off
:TRUST:  Step 1.88E-01  Charge 8.25E-02 (e) CTO  2.50E-01 (e) PW  3.50E-01 (e)
:DTRUS:  Lambda    2.277E+00 Increment    7.276E-12 Iterations   116 DMIX    6.497E-02
:INFOA:  Angle SubSpace to MSR1      8.00
:DIRM :  MEMORY  3/12 SCALE   1.000 RED  0.92 PRED  0.63 NEXT  0.37 
:INFO :  Limited by Atoms F by Step T

:TRAVE:  Charge 3.77E-02 (e) CTO  7.54E-02 (e) PW  3.89E-02 (e)
:DIRP :  |MSR1|= 5.952E-02 |PRATT|= 1.988E-01 ANGLE=  30.2 DEGREES
:DIRQ :  |MSR1|= 1.897E-01 |PRATT|= 1.037E+00 ANGLE=  51.5 DEGREES
:DIRT :  |MSR1|= 1.988E-01 |PRATT|= 1.056E+00 ANGLE=  50.8 DEGREES
:MIX  :   MSE1   REGULARIZATION:  2.46E-04 GREED: 0.07290  LMStep 0.89  0.1883 Step           
     
       CHARGES OF MIXED CHARGE DENSITY
:CTO   : INTERSTITIAL CHARGE =     6.784810
:CPC   : PW Pseudocharge     =    17.368062
:CTO001: CHARGE SPHERE  1    =    55.607595

:NEC03: NUCLEAR AND ELECTRONIC CHARGE    118.00000   118.00000

PW CHANGE     H    K    L      Current       Change    Residue
:PTO001:      0    0    0  6.77857381E-02  3.886E-04  2.897E-03
:PTO003:      0    2    0  1.70228610E-02  2.623E-04  7.241E-04
:PTO004:     -1    1    0  8.09890682E-02 -8.409E-05  5.804E-04
:PTO005:      0    2   -1 -9.36902674E-02  4.764E-04  1.085E-03
:PTO006:      0    0   -2 -4.84677399E-02  3.640E-04  6.851E-04
:PTO007:     -1    1   -1 -9.91919233E-02  1.187E-03  2.665E-03
:PTO008:      0    2   -2 -1.52844707E-02  3.149E-04  6.560E-04
:PTO009:     -1    1   -2 -7.55373993E-02  1.149E-03  2.347E-03
:PTO011:     -1    3    0 -1.14722539E-02  2.266E-04  2.925E-04
:PTO012:     -1    3   -1 -5.02217229E-02  8.024E-04  1.301E-03
:PTO013:      0    4    0 -8.96641030E-03  1.753E-04  4.793E-04
:PTO014:      0    2   -3  2.03520660E-02 -2.462E-04 -3.518E-04

:ENE  : ********** TOTAL ENERGY IN Ry =       -36944.29958277

       TOTAL FORCE IN mRy/a.u. = |F|     Fx             Fy             Fz     with/without FOR in case.in2
:FOR001:   1.ATOM         89.317          0.000          0.000        -89.317 partial forces
       TOTAL FORCE WITH RESPECT TO GLOBAL CARTESIAN COORDINATES:
:FCA001:   1.ATOM                         0.000        -89.317          0.000 partial forces
       TOTAL FORCE WITH RESPECT TO THE GLOBAL COORDINATE SYSTEM:
:FGL001:   1.ATOM                 0.000000000   -89.316985593     0.000000000 partial forces
 Flat Integration
 New Mode for Coulomb Integral
 Consistent 3/8+Simpson combinations
 Extension of core to zero
 LDM version in phi
 Fifth-order quadrature in outwin


            ---------
:ITE005:  5. ITERATION
            ---------

:NATO :    1 INDEPENDENT AND    2 TOTAL ATOMS IN UNITCELL
       SUBSTANCE: aU                                                          

       LATTICE                      = CXY 
:POT  : POTENTIAL OPTION EX_LDA EC_LDA VX_LDA VC_LDA
:LAT  : LATTICE CONSTANTS=  5.85246 11.87613 10.25291    1.571    1.571    1.571
:VOL  : UNIT CELL VOLUME =     356.31200
       MODE OF CALCULATION IS       = RELA
       NON-SPINPOLARIZED CALCULATION
:IFFT  : FFT-parameters:   48   96   80 Factor: 2.00


   CONVERGENCE PARAMETER FOR PSEUDOCHARGE: NCON=  9
   MAXIMAL VALUE OF RMT(JATOM)*ABSK(NKK) : RK  =27.59714


:VKCOUL :  VK-COUL convergence: 0.107E-06
       ATOMNUMBER=  1 Pr1        VCOUL-ZERO =  0.35934E+00
:EFG001:                        EFG         =    -1.31767   *10**21  V / m**2
                               V20  TOT/SRF=    -1.14114    -0.03969
                               V22  TOT/SRF=    -0.30122     0.00011
                               V22M TOT/SRF=     0.00000     0.00000
                               V21  TOT/SRF=     0.00000     0.00000
                               V21M TOT/SRF=     0.00000     0.00000

              0.35762    0.00000    0.00000        0.35762    0.00000    0.00000
              0.00000    0.96006    0.00000        0.00000    0.96006    0.00000
              0.00000    0.00000   -1.31767        0.00000    0.00000   -1.31767

         MAIN DIRECTIONS OF THE EFG   1.0000  0.0000  0.0000
                                      0.0000  1.0000  0.0000
                                      0.0000  0.0000  1.0000
:ANG001:  ANGLE WITH OLD X-AXIS =         0.0

:ETA001:                         ASYMM. ETA =     0.45720


     HELLMANN-FEYNMAN-FORCE IN mRy/a.u. = |F|  Fx       Fy             Fz
:FHF001:   1.ATOM    635.944483617363      0.000000000000      0.000000000000   -635.944483617363

:FIT001: LUSE= 13 SIGMA OF V-XC FIT FOR ATOM  1  0.1907590E-04
:FIT001: LUSE= 13 SIGMA OF V-XC FIT FOR ATOM  1  0.1907590E-04
:DEN  : DENSITY INTEGRAL  =        -14179.69778487   (Ry)
       ELS_POTENTIAL_AT Z=0 and Z=0.5:   0.87791   0.87791
       ELS_POTENTIAL_AT Y=0 and Y=0.5:   0.03187   0.03187
:VZERO:v0,v0c,v0x   0.21281   0.87791  -0.66510 v5,v5c,v5x   0.21281   0.87791  -0.66510
:VZERY:v0,v0c,v0x  -0.84551   0.03187  -0.87737 v5,v5c,v5x  -0.84551   0.03187  -0.87737
:VZERX:v0,v0c,v0x  -1.22278  -0.39333  -0.82946 v5,v5c,v5x  -1.22278  -0.39333  -0.82946
:LMAX-WF:   10   Non-Spherical LMAX:   4

          ATOMIC SPHERE DEPENDENT PARAMETERS FOR ATOM  Pr1       
:e__0001: OVERALL ENERGY PARAMETER IS    0.7273
          OVERALL BASIS SET ON ATOM IS LAPW
:E0_0001: E( 0)=    0.7273
             APW+lo
:E0_0001: E( 0)=   -1.7546   E(BOTTOM)=   -2.390   E(TOP)=   -1.119  4  5   203
             LOCAL ORBITAL
:E1_0001: E( 1)=    1.1273
             APW+lo
:E1_0001: E( 1)=   -0.2843   E(BOTTOM)=   -1.242   E(TOP)=    0.674  3  4   213
             LOCAL ORBITAL
:E3_0001: E( 3)=    0.8869   E(BOTTOM)=    0.682   E(TOP)=    1.092  0  1   123
             APW+lo
:E2_0001: E( 2)=    0.7273   E(BOTTOM)=    0.498   E(TOP)= -200.000  2 -1   121
             APW+lo

       K=   0.06250   0.00000   0.06250            1
:RKM  : MATRIX SIZE   337LOs:  40  RKM= 8.49  WEIGHT= 4.00  PGR:    
       EIGENVALUES ARE:
:EIG00001:      -1.7532266   -1.7138658   -0.5238408   -0.3699198   -0.3342079
:EIG00006:      -0.3169044   -0.3028005   -0.3016864    0.6860628    0.7680919
:EIG00011:       0.8712124    0.8755217    0.8763682    0.8838183    0.8893027
:EIG00016:       0.9106315    0.9157362    0.9175653    0.9226654    0.9234293
:EIG00021:       0.9320834    0.9340337    0.9370366    0.9475282    0.9743865
:EIG00026:       0.9963510    1.0931403    1.0974787    1.1640298    1.1983010
:EIG00031:       1.2097835    1.3578089    1.3826814    1.4520760    1.7586844
:EIG00036:       1.8066959    1.8429021    1.9381142    2.0548236    2.1219021
:EIG00041:       2.2667373    2.3515375
       ********************************************************

:KPT   :      NUMBER OF K-POINTS:   288
:GAP (global)   :    0.0    Ry =     0.0   eV (metal)
         Bandranges (emin - emax) and occupancy:
:BAN00004:   4   -0.499274   -0.369920  2.00000000
:BAN00005:   5   -0.468581   -0.334208  2.00000000
:BAN00006:   6   -0.445158   -0.308500  2.00000000
:BAN00007:   7   -0.409880   -0.302730  2.00000000
:BAN00008:   8   -0.342775   -0.293926  2.00000000
:BAN00009:   9    0.678859    0.835282  2.00000000
:BAN00010:  10    0.755547    0.856281  2.00000000
:BAN00011:  11    0.777538    0.884439  2.00000000
:BAN00012:  12    0.840747    0.891685  1.98144858
:BAN00013:  13    0.855083    0.903263  1.37717051
:BAN00014:  14    0.873357    0.910940  0.64138091
:BAN00015:  15    0.888364    0.914829  0.00000000
:BAN00016:  16    0.894378    0.918535  0.00000000
:BAN00017:  17    0.904744    0.923422  0.00000000
:BAN00018:  18    0.908912    0.925114  0.00000000
:BAN00019:  19    0.915535    0.929750  0.00000000
        Energy to separate low and high energystates:    0.62886


:NOE  : NUMBER OF ELECTRONS          =   26.000

:FER  : F E R M I - ENERGY(TETRAH.M.)=   0.8872970399
:GMA  : POTENTIAL AND CHARGE CUT-OFF  12.00 Ry**.5

:POS001: ATOM   -1 X,Y,Z = 0.00000 0.89750 0.25000  MULT= 2  ZZ= 59.000  Pr1       

       LMMAX 16
       LM=   0 0  1 0  2 0  2 2  3 0  3 2  4 0  4 2  4 4  5 0  5 2  5 4  6 0  6 2  6 4  6 6

:CHA001: TOTAL VALENCE CHARGE INSIDE SPHERE   1 =   9.6544    (RMT=  2.3000 )
:PCS001: PARTIAL CHARGES SPHERE =  1 S,P,D,F,PX,PY,PZ,D-Z2,D-X2Y2,D-XY,D-XZ,D-YZ 
:QTL001: 1.9406 4.9922 0.6937 2.0269 1.6616 1.6597 1.6709 0.1344 0.1240 0.1430 0.1419 0.1504
        Q-s-low E-s-low   Q-p-low E-p-low   Q-d-low E-d-low   Q-f-low E-f-low
:EPL001:  1.8689 -1.7121    4.9164 -0.3960    0.0076 -0.4341    0.0023 -0.4443
        Q-s-hi  E-s-hi    Q-p-hi  E-p-hi    Q-d-hi  E-d-hi    Q-f-hi  E-f-hi 
:EPH001:  0.0717  0.7977    0.0758  0.8284    0.6861  0.8179    2.0246  0.8639

                      VXX         VYY         VZZ       UP TO R
:VZZ001:             4.59507     8.64960   -13.24467       2.300

:CHA  : TOTAL VALENCE CHARGE INSIDE UNIT CELL =      26.000000

:SUM  : SUM OF EIGENVALUES =          -3.291693538


        1.ATOM      Pr1                  14 CORE STATES
       CORE-FORCE in mRy/a.u. = |F|      Fx             Fy             Fz
:FCO001:   1.ATOM    623.685663033388      0.000000000000      0.000000000000    623.685663033388

:1S 001: 1S               -3066.703823091 Ry
:2S 001: 2S                -492.464467292 Ry
:2PP001: 2P*               -465.562539736 Ry
:2P 001: 2P                -430.165516485 Ry
:3S 001: 3S                -105.560543870 Ry
:3PP001: 3P*                -94.098119531 Ry
:3P 001: 3P                 -87.090449080 Ry
:3DD001: 3D*                -67.017003818 Ry
:3D 001: 3D                 -65.505517975 Ry
:4S 001: 4S                 -20.230556570 Ry
:4PP001: 4P*                -15.936510982 Ry
:4P 001: 4P                 -14.407927619 Ry
:4DD001: 4D*                 -7.338668689 Ry
:4D 001: 4D                  -7.068859423 Ry
:CINT001 Core Integral Atom   1   45.998504

       DENSITY AT NUCLEUS
        JATOM        VALENCE       SEMI-CORE          CORE           TOTAL
:RTO001:   1      648.628043        0.000000   656824.929099   657473.557142
     
       CHARGES OF NEW CHARGE DENSITY
:NTO   : INTERSTITIAL CHARGE =     6.691115
:NPC   : PW Pseudocharge     =    17.357821
:NTO001: CHARGE SPHERE  1    =    55.652946

:NEC01: NUCLEAR AND ELECTRONIC CHARGE    118.00000   117.99701
     
       CHARGES OF OLD CHARGE DENSITY
:OTO   : INTERSTITIAL CHARGE =     6.784810
:OPC   : PW Pseudocharge     =    17.368062
:OTO001: CHARGE SPHERE  1    =    55.607595

:NEC02: NUCLEAR AND ELECTRONIC CHARGE    118.00000   118.00000
     
       CONVERGENCE TEST
:DTO001: DIFFERENCE IN SPHERE  1 =  0.0676051

:DIS  :  CHARGE DISTANCE       ( 0.0676051 for atom    1 spin 1)      0.0676051
 PW Mixed is          375
 
******************************************************
* MULTISECANT MIXING VER9 RELEASE 10.4.0              *
* Standard Mode with controls                        *
* Fixed density scale                                *
* Regularization       1.000E-04                     *
* Trust Upper Limit    5.000E+00                     *
* Max Number of Memory Steps    8                    *
******************************************************
 
:PWTMP   2.5438E+02  1.9467E+02  3.5631E+02
:PLANE:  PW TOTAL      5.5242 DISTAN   6.95E-02  1.26E+00 %
:CHARG:  CLM/ATOM   1382.0091 DISTAN   3.68E-01  2.66E-02 %
 
Step History
        DMIX         DMIXT        Red     Pred      Trust     Lambda    MagRel    MagAbs     Beta
  1   3.5000E-02   3.5000E-02 -1.00E+00  1.00E+00 -1.00E+01  1.00E+00  3.50E-02  3.50E-02  1.00E+00
  2   2.5000E-02   2.5000E-02  7.53E-01  1.00E+00 -1.00E+01  1.00E+00  2.50E-02  4.26E-02  1.00E+00
  3   4.3813E-02   4.3813E-02  8.93E-01  1.00E+00 -1.00E+01  1.28E+00  4.38E-02  5.63E-02  1.00E+00
  4   2.9162E-02   2.9162E-02  9.21E-01  6.33E-01  2.78E-01  1.94E+00  2.18E-02  2.51E-02  8.92E-01
  5   7.2904E-02   6.4970E-02 -1.00E+00  3.72E-01  1.88E-01  1.00E+00  1.88E-01  1.99E-01  1.00E+00
:JACOBIANS    8.742E-01   1.269E-01
  
:NORMS:  1/Froebius, Min, Max, Used   0.2628E+00  0.2247E+00  0.9932E+00  0.3111E+00
:INFO :  Number of Memory Steps    4 Skipping    0
:INFO :  SLambda=    2.7703084290  Max    2.7703084290
:PREDicted Charge, CTotal, PW Trust    6.822E-02   1.364E-01   5.082E-02
:PREDicted DMix, Beta, BLim   3.0512E-03  9.7099E-01  1.0202E+00

Eigenvalues, unscaled except for SY+YY
   #     SY Real        SY Imag          SS             YY         SY+YY Real      SY+YY Imag
   1   4.417886E-01   0.000000E+00   1.955436E-01   3.872744E+00   5.078315E+00   0.000000E+00
   2   1.108265E-01   0.000000E+00   8.061201E-02   1.271218E-01   4.524678E-01   0.000000E+00
   3  -1.118626E-15   0.000000E+00   3.032899E-06   1.170715E-04   1.295705E-04   0.000000E+00
   4   8.749277E-06   0.000000E+00   2.646427E-17   1.684548E-05   2.587175E-05   0.000000E+00
 
:INFO :  Singular value  5.079E+00 Weight  1.000E+00 Projection  1.621E-03
:INFO :  Singular value  4.524E-01 Weight  1.000E+00 Projection -7.500E-02
:INFO :  Singular value  1.325E-04 Weight  1.048E-01 Projection -8.069E-01
:INFO :  Singular value  2.529E-05 Weight  4.247E-03 Projection -2.210E-01
:RANK :  ACTIVE   2.11/4  =  52.73 % ; YY RANK   2.09/4  =  52.14 %
 
:DLIM :  Beta Active  9.782E-01
:BLIM :  VZERO Control Off
:TRUST:  Step 6.27E-01  Charge 8.25E-02 (e) CTO  2.50E-01 (e) PW  3.50E-01 (e)
:DIRM :  MEMORY  4/8  SCALE   1.000 RED  0.35 PRED  0.37 NEXT  1.00 BETA  0.98
:TRAVE:  Charge 1.96E-02 (e) CTO  3.92E-02 (e) PW  3.19E-02 (e)
:DIRP :  |MSR1|= 2.395E-02 |PRATT|= 6.950E-02 ANGLE=  63.0 DEGREES
:DIRQ :  |MSR1|= 1.272E-02 |PRATT|= 3.678E-01 ANGLE=   9.5 DEGREES
:DIRT :  |MSR1|= 2.712E-02 |PRATT|= 3.744E-01 ANGLE=  58.1 DEGREES
:MIX  :   MSE1   REGULARIZATION:  3.87E-04 GREED: 0.02916  Newton 1.00  0.0725                
     
       CHARGES OF MIXED CHARGE DENSITY
:CTO   : INTERSTITIAL CHARGE =     6.781864
:CPC   : PW Pseudocharge     =    17.325492
:CTO001: CHARGE SPHERE  1    =    55.609068

:NEC03: NUCLEAR AND ELECTRONIC CHARGE    118.00000   118.00000

PW CHANGE     H    K    L      Current       Change    Residue
:PTO001:      0    0    0  6.76579975E-02 -1.277E-04 -2.615E-04
:PTO003:      0    2    0  1.69731074E-02 -4.975E-05  5.016E-05
:PTO004:     -1    1    0  8.07225748E-02 -2.665E-04  6.360E-04
:PTO005:      0    2   -1 -9.33329411E-02  3.573E-04  4.144E-04
:PTO006:      0    0   -2 -4.82902151E-02  1.775E-04 -6.298E-05
:PTO007:     -1    1   -1 -9.87748741E-02  4.170E-04  2.603E-04
:PTO008:      0    2   -2 -1.51856254E-02  9.885E-05  5.216E-04
:PTO009:     -1    1   -2 -7.50984266E-02  4.390E-04  2.022E-04
:PTO011:     -1    3    0 -1.13935699E-02  7.868E-05 -1.018E-04
:PTO012:     -1    3   -1 -4.98118975E-02  4.098E-04  3.307E-04
:PTO013:      0    4    0 -8.87623052E-03  9.018E-05  2.485E-04
:PTO014:      0    2   -3  2.01647558E-02 -1.873E-04 -8.476E-05

:ENE  : ********** TOTAL ENERGY IN Ry =       -36944.26477700

       TOTAL FORCE IN mRy/a.u. = |F|     Fx             Fy             Fz     with/without FOR in case.in2
:FOR001:   1.ATOM         12.259          0.000          0.000        -12.259 partial forces
       TOTAL FORCE WITH RESPECT TO GLOBAL CARTESIAN COORDINATES:
:FCA001:   1.ATOM                         0.000        -12.259          0.000 partial forces
       TOTAL FORCE WITH RESPECT TO THE GLOBAL COORDINATE SYSTEM:
:FGL001:   1.ATOM                 0.000000000   -12.258820584     0.000000000 partial forces
 Flat Integration
 New Mode for Coulomb Integral
 Consistent 3/8+Simpson combinations
 Extension of core to zero
 LDM version in phi
 Fifth-order quadrature in outwin


            ---------
:ITE006:  6. ITERATION
            ---------

:NATO :    1 INDEPENDENT AND    2 TOTAL ATOMS IN UNITCELL
       SUBSTANCE: aU                                                          

       LATTICE                      = CXY 
:POT  : POTENTIAL OPTION EX_LDA EC_LDA VX_LDA VC_LDA
:LAT  : LATTICE CONSTANTS=  5.85246 11.87613 10.25291    1.571    1.571    1.571
:VOL  : UNIT CELL VOLUME =     356.31200
       MODE OF CALCULATION IS       = RELA
       NON-SPINPOLARIZED CALCULATION
:IFFT  : FFT-parameters:   48   96   80 Factor: 2.00


   CONVERGENCE PARAMETER FOR PSEUDOCHARGE: NCON=  9
   MAXIMAL VALUE OF RMT(JATOM)*ABSK(NKK) : RK  =27.59714


:VKCOUL :  VK-COUL convergence: 0.107E-06
       ATOMNUMBER=  1 Pr1        VCOUL-ZERO =  0.35918E+00
:EFG001:                        EFG         =    -1.71166   *10**21  V / m**2
                               V20  TOT/SRF=    -1.48234    -0.04037
                               V22  TOT/SRF=    -0.36225    -0.00046
                               V22M TOT/SRF=     0.00000     0.00000
                               V21  TOT/SRF=     0.00000     0.00000
                               V21M TOT/SRF=     0.00000     0.00000

              0.49358    0.00000    0.00000        0.49358    0.00000    0.00000
              0.00000    1.21808    0.00000        0.00000    1.21808    0.00000
              0.00000    0.00000   -1.71166        0.00000    0.00000   -1.71166

         MAIN DIRECTIONS OF THE EFG   1.0000  0.0000  0.0000
                                      0.0000  1.0000  0.0000
                                      0.0000  0.0000  1.0000
:ANG001:  ANGLE WITH OLD X-AXIS =         0.0

:ETA001:                         ASYMM. ETA =     0.42328


     HELLMANN-FEYNMAN-FORCE IN mRy/a.u. = |F|  Fx       Fy             Fz
:FHF001:   1.ATOM    669.465677199401      0.000000000000      0.000000000000   -669.465677199401

:FIT001: LUSE= 13 SIGMA OF V-XC FIT FOR ATOM  1  0.1973709E-04
:FIT001: LUSE= 13 SIGMA OF V-XC FIT FOR ATOM  1  0.1973709E-04
:DEN  : DENSITY INTEGRAL  =        -14179.80579928   (Ry)
       ELS_POTENTIAL_AT Z=0 and Z=0.5:   0.87740   0.87740
       ELS_POTENTIAL_AT Y=0 and Y=0.5:   0.03211   0.03211
:VZERO:v0,v0c,v0x   0.21246   0.87740  -0.66494 v5,v5c,v5x   0.21246   0.87740  -0.66494
:VZERY:v0,v0c,v0x  -0.84512   0.03211  -0.87723 v5,v5c,v5x  -0.84512   0.03211  -0.87723
:VZERX:v0,v0c,v0x  -1.22203  -0.39292  -0.82911 v5,v5c,v5x  -1.22203  -0.39292  -0.82911
:LMAX-WF:   10   Non-Spherical LMAX:   4

          ATOMIC SPHERE DEPENDENT PARAMETERS FOR ATOM  Pr1       
:e__0001: OVERALL ENERGY PARAMETER IS    0.7006
          OVERALL BASIS SET ON ATOM IS LAPW
:E0_0001: E( 0)=    0.7006
             APW+lo
:E0_0001: E( 0)=   -1.7544   E(BOTTOM)=   -2.390   E(TOP)=   -1.119  4  5   202
             LOCAL ORBITAL
:E1_0001: E( 1)=    1.1006
             APW+lo
:E1_0001: E( 1)=   -0.2841   E(BOTTOM)=   -1.242   E(TOP)=    0.674  3  4   211
             LOCAL ORBITAL
:E3_0001: E( 3)=    0.8874   E(BOTTOM)=    0.682   E(TOP)=    1.093  0  1   119
             APW+lo
:E2_0001: E( 2)=    0.7006   E(BOTTOM)=    0.498   E(TOP)= -200.000  2 -1   123
             APW+lo

       K=   0.06250   0.00000   0.06250            1
:RKM  : MATRIX SIZE   337LOs:  40  RKM= 8.49  WEIGHT= 4.00  PGR:    
       EIGENVALUES ARE:
:EIG00001:      -1.7530524   -1.7136871   -0.5237950   -0.3696327   -0.3338921
:EIG00006:      -0.3169860   -0.3027404   -0.3017729    0.6858115    0.7679556
:EIG00011:       0.8716383    0.8762036    0.8767903    0.8840613    0.8899931
:EIG00016:       0.9109557    0.9162421    0.9179576    0.9230035    0.9241028
:EIG00021:       0.9327097    0.9345885    0.9372766    0.9483029    0.9744542
:EIG00026:       0.9963264    1.0931647    1.0974958    1.1639430    1.1982463
:EIG00031:       1.2096349    1.3576378    1.3825599    1.4521330    1.7585087
:EIG00036:       1.8065173    1.8427390    1.9380712    2.0544805    2.1217348
:EIG00041:       2.2666708    2.3513814
       ********************************************************

:KPT   :      NUMBER OF K-POINTS:   288
:GAP (global)   :    0.0    Ry =     0.0   eV (metal)
         Bandranges (emin - emax) and occupancy:
:BAN00004:   4   -0.499118   -0.369633  2.00000000
:BAN00005:   5   -0.468505   -0.333892  2.00000000
:BAN00006:   6   -0.445037   -0.308579  2.00000000
:BAN00007:   7   -0.409810   -0.302740  2.00000000
:BAN00008:   8   -0.342697   -0.294011  2.00000000
:BAN00009:   9    0.678604    0.835258  2.00000000
:BAN00010:  10    0.755333    0.856517  2.00000000
:BAN00011:  11    0.777363    0.884675  2.00000000
:BAN00012:  12    0.840707    0.892038  1.98211424
:BAN00013:  13    0.855259    0.903842  1.37862486
:BAN00014:  14    0.873689    0.911475  0.63926090
:BAN00015:  15    0.888865    0.915400  0.00000000
:BAN00016:  16    0.894890    0.918966  0.00000000
:BAN00017:  17    0.905355    0.923961  0.00000000
:BAN00018:  18    0.909539    0.925480  0.00000000
:BAN00019:  19    0.915995    0.930319  0.00000000
        Energy to separate low and high energystates:    0.62860


:NOE  : NUMBER OF ELECTRONS          =   26.000

:FER  : F E R M I - ENERGY(TETRAH.M.)=   0.8877487071
:GMA  : POTENTIAL AND CHARGE CUT-OFF  12.00 Ry**.5

:POS001: ATOM   -1 X,Y,Z = 0.00000 0.89750 0.25000  MULT= 2  ZZ= 59.000  Pr1       

       LMMAX 16
       LM=   0 0  1 0  2 0  2 2  3 0  3 2  4 0  4 2  4 4  5 0  5 2  5 4  6 0  6 2  6 4  6 6

:CHA001: TOTAL VALENCE CHARGE INSIDE SPHERE   1 =   9.6478    (RMT=  2.3000 )
:PCS001: PARTIAL CHARGES SPHERE =  1 S,P,D,F,PX,PY,PZ,D-Z2,D-X2Y2,D-XY,D-XZ,D-YZ 
:QTL001: 1.9407 4.9923 0.6961 2.0176 1.6616 1.6598 1.6709 0.1348 0.1246 0.1435 0.1423 0.1508
        Q-s-low E-s-low   Q-p-low E-p-low   Q-d-low E-d-low   Q-f-low E-f-low
:EPL001:  1.8689 -1.7120    4.9160 -0.3960    0.0076 -0.4340    0.0023 -0.4441
        Q-s-hi  E-s-hi    Q-p-hi  E-p-hi    Q-d-hi  E-d-hi    Q-f-hi  E-f-hi 
:EPH001:  0.0718  0.7977    0.0763  0.8286    0.6885  0.8180    2.0153  0.8642

                      VXX         VYY         VZZ       UP TO R
:VZZ001:             4.50110     8.30720   -12.80830       2.300

:CHA  : TOTAL VALENCE CHARGE INSIDE UNIT CELL =      26.000000

:SUM  : SUM OF EIGENVALUES =          -3.288955285


        1.ATOM      Pr1                  14 CORE STATES
       CORE-FORCE in mRy/a.u. = |F|      Fx             Fy             Fz
:FCO001:   1.ATOM    659.567790995880      0.000000000000      0.000000000000    659.567790995880

:1S 001: 1S               -3066.702689354 Ry
:2S 001: 2S                -492.463079596 Ry
:2PP001: 2P*               -465.561171120 Ry
:2P 001: 2P                -430.164137562 Ry
:3S 001: 3S                -105.559222988 Ry
:3PP001: 3P*                -94.096794525 Ry
:3P 001: 3P                 -87.089131136 Ry
:3DD001: 3D*                -67.015656436 Ry
:3D 001: 3D                 -65.504173007 Ry
:4S 001: 4S                 -20.229614338 Ry
:4PP001: 4P*                -15.935592454 Ry
:4P 001: 4P                 -14.407046952 Ry
:4DD001: 4D*                 -7.337845826 Ry
:4D 001: 4D                  -7.068048781 Ry
:CINT001 Core Integral Atom   1   45.998504

       DENSITY AT NUCLEUS
        JATOM        VALENCE       SEMI-CORE          CORE           TOTAL
:RTO001:   1      648.662255        0.000000   656824.886487   657473.548742
     
       CHARGES OF NEW CHARGE DENSITY
:NTO   : INTERSTITIAL CHARGE =     6.704454
:NPC   : PW Pseudocharge     =    17.362263
:NTO001: CHARGE SPHERE  1    =    55.646276

:NEC01: NUCLEAR AND ELECTRONIC CHARGE    118.00000   117.99701
     
       CHARGES OF OLD CHARGE DENSITY
:OTO   : INTERSTITIAL CHARGE =     6.781864
:OPC   : PW Pseudocharge     =    17.325492
:OTO001: CHARGE SPHERE  1    =    55.609068

:NEC02: NUCLEAR AND ELECTRONIC CHARGE    118.00000   118.00000
     
       CONVERGENCE TEST
:DTO001: DIFFERENCE IN SPHERE  1 =  0.0639119

:DIS  :  CHARGE DISTANCE       ( 0.0639119 for atom    1 spin 1)      0.0639119
 PW Mixed is          375
 
******************************************************
* MULTISECANT MIXING VER9 RELEASE 10.4.0              *
* Slow Mode, cautious                                *
* Fixed density scale                                *
* Regularization       1.000E-04                     *
* Step Trust Radius    0.75000                       *
* Trust Upper Limit    2.000E+00                     *
* Max Number of Memory Steps   12                    *
******************************************************
 
:PWTMP   2.5438E+02  1.9467E+02  3.5631E+02
:PLANE:  PW TOTAL      5.5048 DISTAN   6.18E-02  1.12E+00 %
:CHARG:  CLM/ATOM   1382.0072 DISTAN   3.47E-01  2.51E-02 %
 
Step History
        DMIX         DMIXT        Red     Pred      Trust     Lambda    MagRel    MagAbs     Beta
  1   3.5000E-02   3.5000E-02 -1.00E+00  1.00E+00 -1.00E+01  1.00E+00  3.50E-02  3.50E-02  1.00E+00
  2   2.5000E-02   2.5000E-02  7.53E-01  1.00E+00 -1.00E+01  1.00E+00  2.50E-02  4.26E-02  1.00E+00
  3   4.3813E-02   4.3813E-02  8.93E-01  1.00E+00 -1.00E+01  1.28E+00  4.38E-02  5.63E-02  1.00E+00
  4   2.9162E-02   2.9162E-02  9.21E-01  6.33E-01  2.78E-01  1.94E+00  2.18E-02  2.51E-02  8.92E-01
  5   7.2904E-02   6.4970E-02  3.55E-01  3.72E-01  1.88E-01  2.77E+00  1.88E-01  1.99E-01  1.00E+00
  6   2.9162E-02   2.9162E-02 -1.00E+00  1.00E+00  6.27E-01  1.00E+00  7.25E-02  2.71E-02  9.78E-01
:JACOBIANS    9.173E-01   3.050E-01
  
:NORMS:  1/Froebius, Min, Max, Used   0.3840E+00  0.3661E+00  0.9935E+00  0.4015E+00
:INFO :  Number of Memory Steps    5 Skipping    0
:INFO :  SLambda=    1.4860912057  Max    1.4860912057
:PREDicted Charge, CTotal, PW Trust    5.969E-03   1.194E-02   2.906E-02
:PREDicted DMix, Beta, BLim   4.0948E-01  5.0033E+00  5.2590E-01

Eigenvalues, unscaled except for SY+YY
   #     SY Real        SY Imag          SS             YY         SY+YY Real      SY+YY Imag
   1   7.202509E-01   0.000000E+00   5.693150E-01   4.248799E+00   5.077403E+00   0.000000E+00
   2   3.305860E-01   0.000000E+00   1.502915E-01   6.707655E-01   1.396432E+00   0.000000E+00
   3   3.470100E-02   0.000000E+00   1.768444E-02   8.032767E-02   1.392479E-01   0.000000E+00
   4   1.666890E-16   0.000000E+00   2.832421E-07   9.062008E-05   2.092620E-05   0.000000E+00
   5   7.261499E-06   0.000000E+00  -6.211822E-18   1.685944E-05   1.150549E-04   0.000000E+00
 
:INFO :  Singular value  5.078E+00 Weight  1.000E+00 Projection  1.977E-02
:INFO :  Singular value  1.396E+00 Weight  1.000E+00 Projection -2.196E-01
:INFO :  Singular value  1.392E-01 Weight  1.000E+00 Projection  8.875E-01
:INFO :  Singular value  1.166E-04 Weight  7.002E-02 Projection -1.206E+00
:INFO :  Singular value  2.065E-05 Weight  2.357E-03 Projection -6.990E-02
:RANK :  ACTIVE   3.07/5  =  61.45 % ; YY RANK   3.05/5  =  60.90 %
 
:BLIM :  VZERO Control Off
:TRUST:  Step 6.65E-01  Charge 8.25E-02 (e) CTO  2.26E-01 (e) PW  2.80E-01 (e)
:DIRM :  MEMORY  5/12 SCALE   1.000 RED  0.94 PRED  1.00 NEXT  0.68 
:TRAVE:  Charge 1.37E-02 (e) CTO  2.74E-02 (e) PW  1.94E-02 (e)
:DIRP :  |MSR1|= 4.028E-02 |PRATT|= 6.182E-02 ANGLE=  27.5 DEGREES
:DIRQ :  |MSR1|= 1.854E-01 |PRATT|= 3.471E-01 ANGLE=  14.2 DEGREES
:DIRT :  |MSR1|= 1.897E-01 |PRATT|= 3.526E-01 ANGLE=  15.1 DEGREES
:MIX  :   MSE1   REGULARIZATION:  4.25E-04 GREED: 0.07290  Newton 1.00  0.5381                
     
       CHARGES OF MIXED CHARGE DENSITY
:CTO   : INTERSTITIAL CHARGE =     6.766142
:CPC   : PW Pseudocharge     =    17.328696
:CTO001: CHARGE SPHERE  1    =    55.616929

:NEC03: NUCLEAR AND ELECTRONIC CHARGE    118.00000   118.00000

PW CHANGE     H    K    L      Current       Change    Residue
:PTO001:      0    0    0  6.76228633E-02 -3.513E-05 -8.389E-05
:PTO003:      0    2    0  1.70240460E-02  5.094E-05  7.268E-05
:PTO004:     -1    1    0  8.10082414E-02  2.857E-04  8.703E-04
:PTO005:      0    2   -1 -9.31017812E-02  2.312E-04  2.728E-05
:PTO006:      0    0   -2 -4.82588562E-02  3.136E-05 -2.341E-04
:PTO007:     -1    1   -1 -9.84583570E-02  3.165E-04 -1.559E-04
:PTO008:      0    2   -2 -1.48797136E-02  3.059E-04  4.200E-04
:PTO009:     -1    1   -2 -7.48003411E-02  2.981E-04 -2.169E-04
:PTO011:     -1    3    0 -1.14280230E-02 -3.445E-05 -2.008E-04
:PTO012:     -1    3   -1 -4.95334639E-02  2.784E-04 -8.067E-05
:PTO013:      0    4    0 -8.73779097E-03  1.384E-04  1.502E-04
:PTO014:      0    2   -3  2.00976178E-02 -6.714E-05  1.072E-04

:ENE  : ********** TOTAL ENERGY IN Ry =       -36944.26461682

       TOTAL FORCE IN mRy/a.u. = |F|     Fx             Fy             Fz     with/without FOR in case.in2
:FOR001:   1.ATOM          9.898          0.000          0.000         -9.898 partial forces
       TOTAL FORCE WITH RESPECT TO GLOBAL CARTESIAN COORDINATES:
:FCA001:   1.ATOM                         0.000         -9.898          0.000 partial forces
       TOTAL FORCE WITH RESPECT TO THE GLOBAL COORDINATE SYSTEM:
:FGL001:   1.ATOM                 0.000000000    -9.897886204     0.000000000 partial forces
 Flat Integration
 New Mode for Coulomb Integral
 Consistent 3/8+Simpson combinations
 Extension of core to zero
 LDM version in phi
 Fifth-order quadrature in outwin


            ---------
:ITE007:  7. ITERATION
            ---------

:NATO :    1 INDEPENDENT AND    2 TOTAL ATOMS IN UNITCELL
       SUBSTANCE: aU                                                          

       LATTICE                      = CXY 
:POT  : POTENTIAL OPTION EX_LDA EC_LDA VX_LDA VC_LDA
:LAT  : LATTICE CONSTANTS=  5.85246 11.87613 10.25291    1.571    1.571    1.571
:VOL  : UNIT CELL VOLUME =     356.31200
       MODE OF CALCULATION IS       = RELA
       NON-SPINPOLARIZED CALCULATION
:IFFT  : FFT-parameters:   48   96   80 Factor: 2.00


   CONVERGENCE PARAMETER FOR PSEUDOCHARGE: NCON=  9
   MAXIMAL VALUE OF RMT(JATOM)*ABSK(NKK) : RK  =27.59714


:VKCOUL :  VK-COUL convergence: 0.140E-06
       ATOMNUMBER=  1 Pr1        VCOUL-ZERO =  0.36055E+00
:EFG001:                        EFG         =    -7.09135   *10**21  V / m**2
                               V20  TOT/SRF=    -6.14129    -0.04744
                               V22  TOT/SRF=    -1.15614    -0.00814
                               V22M TOT/SRF=     0.00000     0.00000
                               V21  TOT/SRF=     0.00000     0.00000
                               V21M TOT/SRF=     0.00000     0.00000

              2.38954    0.00000    0.00000        2.38954    0.00000    0.00000
              0.00000    4.70182    0.00000        0.00000    4.70182    0.00000
              0.00000    0.00000   -7.09135        0.00000    0.00000   -7.09135

         MAIN DIRECTIONS OF THE EFG   1.0000  0.0000  0.0000
                                      0.0000  1.0000  0.0000
                                      0.0000  0.0000  1.0000
:ANG001:  ANGLE WITH OLD X-AXIS =         0.0

:ETA001:                         ASYMM. ETA =     0.32607


     HELLMANN-FEYNMAN-FORCE IN mRy/a.u. = |F|  Fx       Fy             Fz
:FHF001:   1.ATOM   1188.575718820454      0.000000000000      0.000000000000  -1188.575718820454

:FIT001: LUSE= 13 SIGMA OF V-XC FIT FOR ATOM  1  0.4193932E-04
:FIT001: LUSE= 13 SIGMA OF V-XC FIT FOR ATOM  1  0.4193932E-04
:DEN  : DENSITY INTEGRAL  =        -14179.33133831   (Ry)
       ELS_POTENTIAL_AT Z=0 and Z=0.5:   0.87617   0.87617
       ELS_POTENTIAL_AT Y=0 and Y=0.5:   0.03747   0.03747
:VZERO:v0,v0c,v0x   0.21264   0.87617  -0.66353 v5,v5c,v5x   0.21264   0.87617  -0.66353
:VZERY:v0,v0c,v0x  -0.84015   0.03747  -0.87762 v5,v5c,v5x  -0.84015   0.03747  -0.87762
:VZERX:v0,v0c,v0x  -1.22077  -0.39208  -0.82868 v5,v5c,v5x  -1.22077  -0.39208  -0.82868
:LMAX-WF:   10   Non-Spherical LMAX:   4

          ATOMIC SPHERE DEPENDENT PARAMETERS FOR ATOM  Pr1       
:e__0001: OVERALL ENERGY PARAMETER IS    0.6920
          OVERALL BASIS SET ON ATOM IS LAPW
:E0_0001: E( 0)=    0.6920
             APW+lo
:E0_0001: E( 0)=   -1.7566   E(BOTTOM)=   -2.392   E(TOP)=   -1.122  4  5   204
             LOCAL ORBITAL
:E1_0001: E( 1)=    1.0920
             APW+lo
:E1_0001: E( 1)=   -0.2860   E(BOTTOM)=   -1.243   E(TOP)=    0.671  3  4   208
             LOCAL ORBITAL
:E3_0001: E( 3)=    0.8837   E(BOTTOM)=    0.679   E(TOP)=    1.089  0  1   122
             APW+lo
:E2_0001: E( 2)=    0.6920   E(BOTTOM)=    0.497   E(TOP)= -200.000  2 -1   119
             APW+lo

       K=   0.06250   0.00000   0.06250            1
:RKM  : MATRIX SIZE   337LOs:  40  RKM= 8.49  WEIGHT= 4.00  PGR:    
       EIGENVALUES ARE:
:EIG00001:      -1.7550016   -1.7159140   -0.5244487   -0.3692403   -0.3334132
:EIG00006:      -0.3205312   -0.3054902   -0.3047277    0.6850882    0.7680531
:EIG00011:       0.8697662    0.8733505    0.8753180    0.8794796    0.8897437
:EIG00016:       0.9054009    0.9122349    0.9127797    0.9175471    0.9217129
:EIG00021:       0.9292162    0.9314766    0.9322095    0.9466955    0.9712885
:EIG00026:       0.9944597    1.0928324    1.0979975    1.1631741    1.1976494
:EIG00031:       1.2082492    1.3560651    1.3807427    1.4520944    1.7574323
:EIG00036:       1.8053007    1.8418931    1.9372233    2.0521682    2.1215009
:EIG00041:       2.2672175    2.3506755
       ********************************************************

:KPT   :      NUMBER OF K-POINTS:   288
:GAP (global)   :    0.0    Ry =     0.0   eV (metal)
         Bandranges (emin - emax) and occupancy:
:BAN00004:   4   -0.499048   -0.369240  2.00000000
:BAN00005:   5   -0.469112   -0.333413  2.00000000
:BAN00006:   6   -0.445594   -0.312155  2.00000000
:BAN00007:   7   -0.411090   -0.305443  2.00000000
:BAN00008:   8   -0.344218   -0.297766  2.00000000
:BAN00009:   9    0.677848    0.833068  2.00000000
:BAN00010:  10    0.754671    0.855054  2.00000000
:BAN00011:  11    0.776773    0.881838  2.00000000
:BAN00012:  12    0.838568    0.888160  1.98294500
:BAN00013:  13    0.852957    0.900868  1.37257368
:BAN00014:  14    0.870526    0.908020  0.64448132
:BAN00015:  15    0.885950    0.911682  0.00000000
:BAN00016:  16    0.891991    0.914680  0.00000000
:BAN00017:  17    0.903182    0.919255  0.00000000
:BAN00018:  18    0.906673    0.921040  0.00000000
:BAN00019:  19    0.912730    0.927685  0.00000000
        Energy to separate low and high energystates:    0.62785


:NOE  : NUMBER OF ELECTRONS          =   26.000

:FER  : F E R M I - ENERGY(TETRAH.M.)=   0.8847430357
:GMA  : POTENTIAL AND CHARGE CUT-OFF  12.00 Ry**.5

:POS001: ATOM   -1 X,Y,Z = 0.00000 0.89750 0.25000  MULT= 2  ZZ= 59.000  Pr1       

       LMMAX 16
       LM=   0 0  1 0  2 0  2 2  3 0  3 2  4 0  4 2  4 4  5 0  5 2  5 4  6 0  6 2  6 4  6 6

:CHA001: TOTAL VALENCE CHARGE INSIDE SPHERE   1 =   9.6724    (RMT=  2.3000 )
:PCS001: PARTIAL CHARGES SPHERE =  1 S,P,D,F,PX,PY,PZ,D-Z2,D-X2Y2,D-XY,D-XZ,D-YZ 
:QTL001: 1.9402 4.9927 0.6847 2.0537 1.6624 1.6599 1.6705 0.1314 0.1219 0.1431 0.1392 0.1490
        Q-s-low E-s-low   Q-p-low E-p-low   Q-d-low E-d-low   Q-f-low E-f-low
:EPL001:  1.8691 -1.7141    4.9178 -0.3974    0.0075 -0.4344    0.0023 -0.4443
        Q-s-hi  E-s-hi    Q-p-hi  E-p-hi    Q-d-hi  E-d-hi    Q-f-hi  E-f-hi 
:EPH001:  0.0711  0.7962    0.0749  0.8267    0.6772  0.8164    2.0515  0.8617

                      VXX         VYY         VZZ       UP TO R
:VZZ001:             3.02152     5.14862    -8.17014       2.300

:CHA  : TOTAL VALENCE CHARGE INSIDE UNIT CELL =      26.000000

:SUM  : SUM OF EIGENVALUES =          -3.330655012


        1.ATOM      Pr1                  14 CORE STATES
       CORE-FORCE in mRy/a.u. = |F|      Fx             Fy             Fz
[...]
:OTO001: CHARGE SPHERE  1    =    55.639565

:NEC02: NUCLEAR AND ELECTRONIC CHARGE    118.00000   118.00000
     
       CONVERGENCE TEST
:DTO001: DIFFERENCE IN SPHERE  1 =  0.0001080

:DIS  :  CHARGE DISTANCE       ( 0.0001080 for atom    1 spin 1)      0.0001080
 PW Mixed is          375
 
******************************************************
* MULTISECANT MIXING VER9 RELEASE 10.4.0              *
* Standard Mode with controls                        *
* Fixed density scale                                *
* Regularization       1.000E-04                     *
* Trust Upper Limit    5.000E+00                     *
* Max Number of Memory Steps    8                    *
******************************************************
 
:PWTMP   2.5438E+02  1.9467E+02  3.5631E+02
:PLANE:  PW TOTAL      5.5118 DISTAN   1.47E-04  2.66E-03 %
:CHARG:  CLM/ATOM   1381.9556 DISTAN   3.00E-04  2.17E-05 %
 
Step History
        DMIX         DMIXT        Red     Pred      Trust     Lambda    MagRel    MagAbs     Beta
  6   2.9162E-02   2.9162E-02  9.42E-01  1.00E+00  6.27E-01  1.49E+00  7.25E-02  2.71E-02  9.78E-01
  7   7.2904E-02   7.2904E-02  4.94E-01  6.83E-01  6.65E-01  9.97E-01  5.38E-01  1.90E-01  1.00E+00
  8   7.0619E-02   7.0619E-02  8.09E-01  6.82E-01  8.87E-01  1.50E+00  3.07E-01  5.35E-02  1.00E+00
  9   1.7655E-01   1.7655E-01  4.61E-01  5.75E-01  1.10E+00  1.91E+00  5.92E-01  8.34E-02  1.00E+00
 10   2.0342E-01   2.0342E-01  5.66E-01  6.74E-01  1.46E+00  1.98E+00  4.44E-01  2.89E-02  9.23E-01
 11   2.0959E-01   2.0959E-01  4.45E-01  3.29E-01  2.67E+00  1.90E+00  3.29E-01  1.21E-02  9.82E-01
 12   2.3552E-01   2.3552E-01  1.86E-01  2.92E-01  3.55E+00  7.29E-01  2.73E-01  4.46E-03  1.00E+00
 13   2.9576E-01   2.9576E-01  4.88E-01  4.70E-01  4.74E+00  1.09E+00  6.14E-01  1.87E-03  1.00E+00
 14   3.4403E-01   3.4403E-01 -1.00E+00  4.57E-01  6.32E+00  1.00E+00  5.10E-01  7.55E-04  1.00E+00
:JACOBIANS    1.145E+00   2.845E+00
  
:NORMS:  1/Froebius, Min, Max, Used   0.6662E+00  0.5466E+00  0.1022E+01  0.8247E+00
:INFO :  Number of Memory Steps    8 Skipping    5
:INFO :  SLambda=    1.3591239364  Max    1.3591239364
:PREDicted Charge, CTotal, PW Trust    3.006E-05   6.012E-05   4.563E-04
:PREDicted DMix, Beta, BLim   4.3341E-01  9.8652E-01  1.0592E+00

Eigenvalues, unscaled except for SY+YY
   #     SY Real        SY Imag          SS             YY         SY+YY Real      SY+YY Imag
   1   2.289333E+00   0.000000E+00   2.229747E+00   3.278451E+00   5.801727E+00   0.000000E+00
   2   1.081377E+00   0.000000E+00   8.581378E-01   2.157246E+00   3.671339E+00   0.000000E+00
   3   5.146997E-01   0.000000E+00   3.461100E-01   1.112737E+00   2.063586E+00   0.000000E+00
   4   2.378085E-01   0.000000E+00   4.931807E-02   8.645931E-01   1.440419E+00   0.000000E+00
   5   1.260901E-01   0.000000E+00   4.255719E-02   4.317984E-01   6.398607E-01   0.000000E+00
   6   5.865081E-02   0.000000E+00   2.249554E-02   1.323079E-01   2.134623E-01   0.000000E+00
   7   4.447077E-03   0.000000E+00   2.153363E-03   1.826052E-02   2.477764E-02   0.000000E+00
   8   2.768040E-03   0.000000E+00   4.052913E-04   4.605872E-03   9.685395E-03   0.000000E+00
 
:INFO :  Singular value  5.811E+00 Weight  1.000E+00 Projection -5.396E-05
:INFO :  Singular value  3.682E+00 Weight  1.000E+00 Projection  4.159E-05
:INFO :  Singular value  2.058E+00 Weight  1.000E+00 Projection  3.792E-05
:INFO :  Singular value  1.439E+00 Weight  1.000E+00 Projection  1.386E-04
:INFO :  Singular value  6.396E-01 Weight  1.000E+00 Projection -3.609E-04
:INFO :  Singular value  2.134E-01 Weight  1.000E+00 Projection -1.725E-04
:INFO :  Singular value  2.478E-02 Weight  9.998E-01 Projection -9.464E-05
:INFO :  Singular value  9.683E-03 Weight  9.989E-01 Projection -1.154E-03
:RANK :  ACTIVE   8.00/8  =  99.98 % ; YY RANK   7.99/8  =  99.93 %
 
:DLIM :  Beta Active  9.899E-01
:BLIM :  VZERO Control Off
:TRUST:  Step 8.43E+00  Charge 1.30E-02 (e) CTO  3.56E-02 (e) PW  4.40E-02 (e)
:DIRM :  MEMORY  8/8  SCALE   1.000 RED  0.23 PRED  0.46 NEXT  0.50 BETA  0.99
:TRAVE:  Charge 3.23E-04 (e) CTO  6.46E-04 (e) PW  9.58E-04 (e)
:DIRP :  |MSR1|= 1.055E-04 |PRATT|= 1.467E-04 ANGLE=  24.0 DEGREES
:DIRQ :  |MSR1|= 1.752E-04 |PRATT|= 3.002E-04 ANGLE=  23.4 DEGREES
:DIRT :  |MSR1|= 2.045E-04 |PRATT|= 3.342E-04 ANGLE=  24.1 DEGREES
:MIX  :   MSE1   REGULARIZATION:  3.28E-04 GREED: 0.35000  Newton 1.00  0.6120                
     
       CHARGES OF MIXED CHARGE DENSITY
:CTO   : INTERSTITIAL CHARGE =     6.720849
:CPC   : PW Pseudocharge     =    17.362570
:CTO001: CHARGE SPHERE  1    =    55.639576

:NEC03: NUCLEAR AND ELECTRONIC CHARGE    118.00000   118.00000

PW CHANGE     H    K    L      Current       Change    Residue
:PTO001:      0    0    0  6.75908152E-02 -5.548E-08 -8.655E-07
:PTO003:      0    2    0  1.68813295E-02 -1.761E-07 -6.163E-07
:PTO004:     -1    1    0  8.12313036E-02  4.974E-07 -1.737E-07
:PTO005:      0    2   -1 -9.34784144E-02 -5.049E-07  8.994E-08
:PTO006:      0    0   -2 -4.84409120E-02 -1.875E-07  2.614E-07
:PTO007:     -1    1   -1 -9.90027153E-02 -7.320E-07 -1.172E-08
:PTO008:      0    2   -2 -1.48356253E-02 -2.308E-07  2.318E-08
:PTO009:     -1    1   -2 -7.52676517E-02 -2.162E-06 -2.587E-06
:PTO011:     -1    3    0 -1.17536935E-02 -2.343E-07 -3.014E-07
:PTO012:     -1    3   -1 -4.99339636E-02 -2.299E-06 -3.125E-06
:PTO013:      0    4    0 -8.78566613E-03 -3.762E-07 -4.256E-07
:PTO014:      0    2   -3  2.02423262E-02  1.044E-06  1.378E-06

:ENE  : ********** TOTAL ENERGY IN Ry =       -36944.26393188

       TOTAL FORCE IN mRy/a.u. = |F|     Fx             Fy             Fz     with/without FOR in case.in2
:FOR001:   1.ATOM         12.998          0.000          0.000        -12.998 partial forces
       TOTAL FORCE WITH RESPECT TO GLOBAL CARTESIAN COORDINATES:
:FCA001:   1.ATOM                         0.000        -12.998          0.000 partial forces
       TOTAL FORCE WITH RESPECT TO THE GLOBAL COORDINATE SYSTEM:
:FGL001:   1.ATOM                 0.000000000   -12.998018838     0.000000000 partial forces
 Flat Integration
 New Mode for Coulomb Integral
 Consistent 3/8+Simpson combinations
 Extension of core to zero
 LDM version in phi
 Fifth-order quadrature in outwin


            ---------
:ITE015: 15. ITERATION
            ---------

:NATO :    1 INDEPENDENT AND    2 TOTAL ATOMS IN UNITCELL
       SUBSTANCE: aU                                                          

       LATTICE                      = CXY 
:POT  : POTENTIAL OPTION EX_LDA EC_LDA VX_LDA VC_LDA
:LAT  : LATTICE CONSTANTS=  5.85246 11.87613 10.25291    1.571    1.571    1.571
:VOL  : UNIT CELL VOLUME =     356.31200
       MODE OF CALCULATION IS       = RELA
       NON-SPINPOLARIZED CALCULATION
:IFFT  : FFT-parameters:   48   96   80 Factor: 2.00


   CONVERGENCE PARAMETER FOR PSEUDOCHARGE: NCON=  9
   MAXIMAL VALUE OF RMT(JATOM)*ABSK(NKK) : RK  =27.59714


:VKCOUL :  VK-COUL convergence: 0.186E-06
       ATOMNUMBER=  1 Pr1        VCOUL-ZERO =  0.36031E+00
:EFG001:                        EFG         =    -9.68399   *10**21  V / m**2
                               V20  TOT/SRF=    -8.38658    -0.04840
                               V22  TOT/SRF=    -1.96615    -0.00644
                               V22M TOT/SRF=     0.00000     0.00000
                               V21  TOT/SRF=     0.00000     0.00000
                               V21M TOT/SRF=     0.00000     0.00000

              2.87584    0.00000    0.00000        2.87584    0.00000    0.00000
              0.00000    6.80815    0.00000        0.00000    6.80815    0.00000
              0.00000    0.00000   -9.68399        0.00000    0.00000   -9.68399

         MAIN DIRECTIONS OF THE EFG   1.0000  0.0000  0.0000
                                      0.0000  1.0000  0.0000
                                      0.0000  0.0000  1.0000
:ANG001:  ANGLE WITH OLD X-AXIS =         0.0

:ETA001:                         ASYMM. ETA =     0.40606


     HELLMANN-FEYNMAN-FORCE IN mRy/a.u. = |F|  Fx       Fy             Fz
:FHF001:   1.ATOM   1655.537356392492      0.000000000000      0.000000000000  -1655.537356392492

:FIT001: LUSE= 13 SIGMA OF V-XC FIT FOR ATOM  1  0.5852789E-04
:FIT001: LUSE= 13 SIGMA OF V-XC FIT FOR ATOM  1  0.5852789E-04
:DEN  : DENSITY INTEGRAL  =        -14179.53348837   (Ry)
       ELS_POTENTIAL_AT Z=0 and Z=0.5:   0.87197   0.87197
       ELS_POTENTIAL_AT Y=0 and Y=0.5:   0.03554   0.03554
:VZERO:v0,v0c,v0x   0.21064   0.87197  -0.66133 v5,v5c,v5x   0.21064   0.87197  -0.66133
:VZERY:v0,v0c,v0x  -0.84071   0.03554  -0.87625 v5,v5c,v5x  -0.84071   0.03554  -0.87625
:VZERX:v0,v0c,v0x  -1.21939  -0.39190  -0.82749 v5,v5c,v5x  -1.21939  -0.39190  -0.82749
:LMAX-WF:   10   Non-Spherical LMAX:   4

          ATOMIC SPHERE DEPENDENT PARAMETERS FOR ATOM  Pr1       
:e__0001: OVERALL ENERGY PARAMETER IS    0.6871
          OVERALL BASIS SET ON ATOM IS LAPW
:E0_0001: E( 0)=    0.6871
             APW+lo
:E0_0001: E( 0)=   -1.7540   E(BOTTOM)=   -2.389   E(TOP)=   -1.119  4  5   205
             LOCAL ORBITAL
:E1_0001: E( 1)=    1.0871
             APW+lo
:E1_0001: E( 1)=   -0.2836   E(BOTTOM)=   -1.242   E(TOP)=    0.675  3  4   209
             LOCAL ORBITAL
:E3_0001: E( 3)=    0.8866   E(BOTTOM)=    0.681   E(TOP)=    1.092  0  1   126
             APW+lo
:E2_0001: E( 2)=    0.6871   E(BOTTOM)=    0.498   E(TOP)= -200.000  2 -1   119
             APW+lo

       K=   0.06250   0.00000   0.06250            1
:RKM  : MATRIX SIZE   337LOs:  40  RKM= 8.49  WEIGHT= 4.00  PGR:    
       EIGENVALUES ARE:
:EIG00001:      -1.7526369   -1.7133438   -0.5234875   -0.3676776   -0.3319414
:EIG00006:      -0.3180014   -0.3029028   -0.3028154    0.6839495    0.7675350
:EIG00011:       0.8717500    0.8762248    0.8767956    0.8821744    0.8911664
:EIG00016:       0.9086979    0.9151038    0.9159928    0.9207438    0.9239440
:EIG00021:       0.9320996    0.9343966    0.9352223    0.9485995    0.9732485
:EIG00026:       0.9953760    1.0928548    1.0978759    1.1633689    1.1980473
:EIG00031:       1.2081204    1.3558657    1.3812385    1.4523215    1.7563923
:EIG00036:       1.8040661    1.8406758    1.9375500    2.0513538    2.1199795
:EIG00041:       2.2663027    2.3496062
       ********************************************************

:KPT   :      NUMBER OF K-POINTS:   288
:GAP (global)   :    0.0    Ry =     0.0   eV (metal)
         Bandranges (emin - emax) and occupancy:
:BAN00004:   4   -0.497917   -0.367678  2.00000000
:BAN00005:   5   -0.467942   -0.331941  2.00000000
:BAN00006:   6   -0.444155   -0.309585  2.00000000
:BAN00007:   7   -0.409468   -0.302903  2.00000000
:BAN00008:   8   -0.342510   -0.295055  2.00000000
:BAN00009:   9    0.676684    0.833430  2.00000000
:BAN00010:  10    0.753941    0.855913  2.00000000
:BAN00011:  11    0.776360    0.883667  2.00000000
:BAN00012:  12    0.839502    0.890599  1.98344331
:BAN00013:  13    0.854334    0.903387  1.37939223
:BAN00014:  14    0.872552    0.910967  0.63716446
:BAN00015:  15    0.888108    0.914719  0.00000000
:BAN00016:  16    0.894188    0.917794  0.00000000
:BAN00017:  17    0.905328    0.922337  0.00000000
:BAN00018:  18    0.909476    0.924183  0.00000000
:BAN00019:  19    0.915351    0.929609  0.00000000
        Energy to separate low and high energystates:    0.62668


:NOE  : NUMBER OF ELECTRONS          =   26.000

:FER  : F E R M I - ENERGY(TETRAH.M.)=   0.8870529340
:GMA  : POTENTIAL AND CHARGE CUT-OFF  12.00 Ry**.5

:POS001: ATOM   -1 X,Y,Z = 0.00000 0.89750 0.25000  MULT= 2  ZZ= 59.000  Pr1       

       LMMAX 16
       LM=   0 0  1 0  2 0  2 2  3 0  3 2  4 0  4 2  4 4  5 0  5 2  5 4  6 0  6 2  6 4  6 6

:CHA001: TOTAL VALENCE CHARGE INSIDE SPHERE   1 =   9.6411    (RMT=  2.3000 )
:PCS001: PARTIAL CHARGES SPHERE =  1 S,P,D,F,PX,PY,PZ,D-Z2,D-X2Y2,D-XY,D-XZ,D-YZ 
:QTL001: 1.9408 4.9920 0.6945 2.0128 1.6620 1.6596 1.6705 0.1337 0.1240 0.1446 0.1414 0.1509
        Q-s-low E-s-low   Q-p-low E-p-low   Q-d-low E-d-low   Q-f-low E-f-low
:EPL001:  1.8688 -1.7115    4.9148 -0.3957    0.0076 -0.4331    0.0023 -0.4423
        Q-s-hi  E-s-hi    Q-p-hi  E-p-hi    Q-d-hi  E-d-hi    Q-f-hi  E-f-hi 
:EPH001:  0.0720  0.7964    0.0772  0.8275    0.6869  0.8171    2.0105  0.8635

                      VXX         VYY         VZZ       UP TO R
:VZZ001:             2.84846     6.77825    -9.62671       2.300

:CHA  : TOTAL VALENCE CHARGE INSIDE UNIT CELL =      26.000000

:SUM  : SUM OF EIGENVALUES =          -3.293117727


        1.ATOM      Pr1                  14 CORE STATES
       CORE-FORCE in mRy/a.u. = |F|      Fx             Fy             Fz
:FCO001:   1.ATOM   1642.574012268875      0.000000000000      0.000000000000   1642.574012268875

:1S 001: 1S               -3066.712370032 Ry
:2S 001: 2S                -492.466467370 Ry
:2PP001: 2P*               -465.565036781 Ry
:2P 001: 2P                -430.167743586 Ry
:3S 001: 3S                -105.562600680 Ry
:3PP001: 3P*                -94.100209031 Ry
:3P 001: 3P                 -87.092482580 Ry
:3DD001: 3D*                -67.018744443 Ry
:3D 001: 3D                 -65.507259531 Ry
:4S 001: 4S                 -20.231312085 Ry
:4PP001: 4P*                -15.937263991 Ry
:4P 001: 4P                 -14.408679758 Ry
:4DD001: 4D*                 -7.339288634 Ry
:4D 001: 4D                  -7.069471623 Ry
:CINT001 Core Integral Atom   1   45.998506

       DENSITY AT NUCLEUS
        JATOM        VALENCE       SEMI-CORE          CORE           TOTAL
:RTO001:   1      648.805093        0.000000   656826.052413   657474.857505
     
       CHARGES OF NEW CHARGE DENSITY
:NTO   : INTERSTITIAL CHARGE =     6.717841
:NPC   : PW Pseudocharge     =    17.354718
:NTO001: CHARGE SPHERE  1    =    55.639584

:NEC01: NUCLEAR AND ELECTRONIC CHARGE    118.00000   117.99701
     
       CHARGES OF OLD CHARGE DENSITY
:OTO   : INTERSTITIAL CHARGE =     6.720849
:OPC   : PW Pseudocharge     =    17.362570
:OTO001: CHARGE SPHERE  1    =    55.639576

:NEC02: NUCLEAR AND ELECTRONIC CHARGE    118.00000   118.00000
     
       CONVERGENCE TEST
:DTO001: DIFFERENCE IN SPHERE  1 =  0.0000560

:DIS  :  CHARGE DISTANCE       ( 0.0000560 for atom    1 spin 1)      0.0000560
 PW Mixed is          375
 
******************************************************
* MULTISECANT MIXING VER9 RELEASE 10.4.0              *
* Standard Mode with controls                        *
* Fixed density scale                                *
* Regularization       1.000E-04                     *
* Trust Upper Limit    5.000E+00                     *
* Max Number of Memory Steps    8                    *
******************************************************
 
:PWTMP   2.5438E+02  1.9467E+02  3.5631E+02
:PLANE:  PW TOTAL      5.5118 DISTAN   5.44E-05  9.86E-04 %
:CHARG:  CLM/ATOM   1381.9556 DISTAN   1.01E-04  7.30E-06 %
 
Step History
        DMIX         DMIXT        Red     Pred      Trust     Lambda    MagRel    MagAbs     Beta
  7   7.2904E-02   7.2904E-02  4.94E-01  6.83E-01  6.65E-01  9.97E-01  5.38E-01  1.90E-01  1.00E+00
  8   7.0619E-02   7.0619E-02  8.09E-01  6.82E-01  8.87E-01  1.50E+00  3.07E-01  5.35E-02  1.00E+00
  9   1.7655E-01   1.7655E-01  4.61E-01  5.75E-01  1.10E+00  1.91E+00  5.92E-01  8.34E-02  1.00E+00
 10   2.0342E-01   2.0342E-01  5.66E-01  6.74E-01  1.46E+00  1.98E+00  4.44E-01  2.89E-02  9.23E-01
 11   2.0959E-01   2.0959E-01  4.45E-01  3.29E-01  2.67E+00  1.90E+00  3.29E-01  1.21E-02  9.82E-01
 12   2.3552E-01   2.3552E-01  1.86E-01  2.92E-01  3.55E+00  7.29E-01  2.73E-01  4.46E-03  1.00E+00
 13   2.9576E-01   2.9576E-01  4.88E-01  4.70E-01  4.74E+00  1.09E+00  6.14E-01  1.87E-03  1.00E+00
 14   3.4403E-01   3.4403E-01  2.25E-01  4.57E-01  6.32E+00  1.36E+00  5.10E-01  7.55E-04  1.00E+00
 15   3.5000E-01   3.5000E-01 -1.00E+00  5.04E-01  8.43E+00  1.00E+00  6.12E-01  2.04E-04  9.90E-01
:JACOBIANS    1.135E+00   3.068E+00
  
:NORMS:  1/Froebius, Min, Max, Used   0.6319E+00  0.5522E+00  0.9889E+00  0.7066E+00
:INFO :  Number of Memory Steps    8 Skipping    6
:INFO :  SLambda=    1.7700261127  Max    1.7700261127
:PREDicted Charge, CTotal, PW Trust    2.696E-05   5.392E-05   2.536E-05
:PREDicted DMix, Beta, BLim   2.5095E-01  1.0898E+00  5.0629E+00

Eigenvalues, unscaled except for SY+YY
   #     SY Real        SY Imag          SS             YY         SY+YY Real      SY+YY Imag
   1   1.814118E+00   0.000000E+00   1.628441E+00   3.261779E+00   5.805648E+00   0.000000E+00
   2   1.303486E+00   0.000000E+00   1.028773E+00   2.033429E+00   4.299998E+00   0.000000E+00
   3   5.208583E-01   0.000000E+00   3.852526E-01   1.426075E+00   2.587098E+00   0.000000E+00
   4   2.863301E-01   0.000000E+00   9.153174E-02   9.263101E-01   1.871585E+00   0.000000E+00
   5   7.557244E-02   0.000000E+00   3.379757E-02   1.861107E-01   3.372710E-01   0.000000E+00
   6   5.686124E-02   0.000000E+00   2.043401E-02   1.304294E-01   2.382692E-01   0.000000E+00
   7   1.550025E-02   0.000000E+00   5.616131E-03   2.718782E-02   5.878298E-02   0.000000E+00
   8   2.230531E-03   0.000000E+00   5.107655E-04   8.679312E-03   1.412718E-02   0.000000E+00
 
:INFO :  Singular value  5.830E+00 Weight  1.000E+00 Projection  1.872E-05
:INFO :  Singular value  4.302E+00 Weight  1.000E+00 Projection  1.438E-05
:INFO :  Singular value  2.591E+00 Weight  1.000E+00 Projection -3.585E-07
:INFO :  Singular value  1.862E+00 Weight  1.000E+00 Projection -1.507E-06
:INFO :  Singular value  3.372E-01 Weight  1.000E+00 Projection -1.264E-06
:INFO :  Singular value  2.382E-01 Weight  1.000E+00 Projection -1.064E-04
:INFO :  Singular value  5.882E-02 Weight  1.000E+00 Projection  3.314E-04
:INFO :  Singular value  1.411E-02 Weight  9.995E-01 Projection -2.624E-04
:RANK :  ACTIVE   8.00/8  =  99.99 % ; YY RANK   8.00/8  =  99.98 %
 
:BLIM :  VZERO Control Off
:TRUST:  Step 1.12E+01  Charge 1.04E-02 (e) CTO  2.84E-02 (e) PW  3.52E-02 (e)
:DIRM :  MEMORY  8/8  SCALE   1.000 RED  0.34 PRED  0.50 NEXT  0.79 
:TRAVE:  Charge 1.68E-04 (e) CTO  3.35E-04 (e) PW  4.95E-04 (e)
:DIRP :  |MSR1|= 4.055E-05 |PRATT|= 5.437E-05 ANGLE=  37.1 DEGREES
:DIRQ :  |MSR1|= 4.807E-05 |PRATT|= 1.009E-04 ANGLE=  20.5 DEGREES
:DIRT :  |MSR1|= 6.289E-05 |PRATT|= 1.146E-04 ANGLE=  29.1 DEGREES
:MIX  :   MSE1   REGULARIZATION:  3.26E-04 GREED: 0.28763  Newton 1.00  0.5489                
     
       CHARGES OF MIXED CHARGE DENSITY
:CTO   : INTERSTITIAL CHARGE =     6.720825
:CPC   : PW Pseudocharge     =    17.362535
:CTO001: CHARGE SPHERE  1    =    55.639588

:NEC03: NUCLEAR AND ELECTRONIC CHARGE    118.00000   118.00000

PW CHANGE     H    K    L      Current       Change    Residue
:PTO001:      0    0    0  6.75906497E-02 -1.655E-07 -4.047E-07
:PTO003:      0    2    0  1.68812303E-02 -9.919E-08 -2.302E-07
:PTO004:     -1    1    0  8.12312537E-02 -4.989E-08 -5.421E-07
:PTO005:      0    2   -1 -9.34784221E-02 -7.697E-09  6.108E-07
:PTO006:      0    0   -2 -4.84408599E-02  5.206E-08  4.126E-07
:PTO007:     -1    1   -1 -9.90028552E-02 -1.399E-07  5.848E-07
:PTO008:      0    2   -2 -1.48356498E-02 -2.446E-08  1.945E-07
:PTO009:     -1    1   -2 -7.52684832E-02 -8.314E-07 -5.462E-07
:PTO011:     -1    3    0 -1.17538275E-02 -1.341E-07 -3.703E-08
:PTO012:     -1    3   -1 -4.99349573E-02 -9.937E-07 -9.689E-07
:PTO013:      0    4    0 -8.78576748E-03 -1.014E-07 -6.033E-09
:PTO014:      0    2   -3  2.02426939E-02  3.677E-07  3.175E-07

:ENE  : ********** TOTAL ENERGY IN Ry =       -36944.26393183

       TOTAL FORCE IN mRy/a.u. = |F|     Fx             Fy             Fz     with/without FOR in case.in2
:FOR001:   1.ATOM         12.963          0.000          0.000        -12.963 partial forces
       TOTAL FORCE WITH RESPECT TO GLOBAL CARTESIAN COORDINATES:
:FCA001:   1.ATOM                         0.000        -12.963          0.000 partial forces
       TOTAL FORCE WITH RESPECT TO THE GLOBAL COORDINATE SYSTEM:
:FGL001:   1.ATOM                 0.000000000   -12.963344124     0.000000000 partial forces
