
------- case.scf0 --------
 Flat Integration
 New Mode for Coulomb Integral
 Consistent 3/8+Simpson combinations
 Extension of core to zero
 LDM version in phi
 Fifth-order quadrature in outwin


            ---------
:ITE011: 11. ITERATION
            ---------

:NATO :    2 INDEPENDENT AND    4 TOTAL ATOMS IN UNITCELL
       SUBSTANCE: FeSe                                                        

       LATTICE                      = P   
:POT  : POTENTIAL OPTION EX_LDA EC_LDA VX_LDA VC_LDA
:LAT  : LATTICE CONSTANTS=  7.12881  7.12881 10.43450    1.571    1.571    1.571
:VOL  : UNIT CELL VOLUME =     530.28024
       MODE OF CALCULATION IS       = RELA
       NON-SPINPOLARIZED CALCULATION
:IFFT  : FFT-parameters:   60   60   80 Factor: 2.00


   CONVERGENCE PARAMETER FOR PSEUDOCHARGE: NCON=  9
   MAXIMAL VALUE OF RMT(JATOM)*ABSK(NKK) : RK  =25.91023


:VKCOUL :  VK-COUL convergence: 0.300E-06
       ATOMNUMBER=  1 Fe         VCOUL-ZERO =  0.22035E+00
:EFG001:                        EFG         =    -0.65812   *10**21  V / m**2
                               V20  TOT/SRF=    -0.56995    -0.08509
                               V22  TOT/SRF=     0.00000     0.00000
                               V22M TOT/SRF=     0.00000     0.00000
                               V21  TOT/SRF=     0.00000     0.00000
                               V21M TOT/SRF=     0.00000     0.00000

              0.32906    0.00000    0.00000        0.32906    0.00000    0.00000
              0.00000    0.32906    0.00000        0.00000    0.32906    0.00000
              0.00000    0.00000   -0.65812        0.00000    0.00000   -0.65812

         MAIN DIRECTIONS OF THE EFG   1.0000  0.0000  0.0000
                                      0.0000  1.0000  0.0000
                                      0.0000  0.0000  1.0000
:ANG001:  ANGLE WITH OLD X-AXIS =         0.0

:ETA001:                         ASYMM. ETA =     0.00000


       ATOMNUMBER=  2 Se         VCOUL-ZERO =  0.30783E-01
:EFG002:                        EFG         =    -6.57977   *10**21  V / m**2
                               V20  TOT/SRF=    -5.69825    -0.02362
                               V22  TOT/SRF=     0.00000     0.00000
                               V22M TOT/SRF=     0.00000     0.00000
                               V21  TOT/SRF=     0.00000     0.00000
                               V21M TOT/SRF=     0.00000     0.00000

              3.28988    0.00000    0.00000        3.28988    0.00000    0.00000
              0.00000    3.28988    0.00000        0.00000    3.28988    0.00000
              0.00000    0.00000   -6.57977        0.00000    0.00000   -6.57977

         MAIN DIRECTIONS OF THE EFG   1.0000  0.0000  0.0000
                                      0.0000  1.0000  0.0000
                                      0.0000  0.0000  1.0000
:ANG002:  ANGLE WITH OLD X-AXIS =         0.0

:ETA002:                         ASYMM. ETA =     0.00000


     HELLMANN-FEYNMAN-FORCE IN mRy/a.u. = |F|  Fx       Fy             Fz
:FHF001:   1.ATOM      0.000000000000      0.000000000000      0.000000000000      0.000000000000

     HELLMANN-FEYNMAN-FORCE IN mRy/a.u. = |F|  Fx       Fy             Fz
:FHF002:   2.ATOM   1314.224006763154      0.000000000000      0.000000000000   1314.224006763154

:FIT001: LUSE= 13 SIGMA OF V-XC FIT FOR ATOM  1  0.2604726E-02
:FIT001: LUSE= 13 SIGMA OF V-XC FIT FOR ATOM  1  0.2604726E-02
:FIT002: LUSE= 13 SIGMA OF V-XC FIT FOR ATOM  2  0.5452782E-03
:FIT002: LUSE= 13 SIGMA OF V-XC FIT FOR ATOM  2  0.5452782E-03
:DEN  : DENSITY INTEGRAL  =         -6217.75574078   (Ry)
       ELS_POTENTIAL_AT Z=0 and Z=0.5:  -0.75839   0.68529
       ELS_POTENTIAL_AT Y=0 and Y=0.5:   0.00000   0.00000
:VZERO:v0,v0c,v0x  -1.60338  -0.75839  -0.84499 v5,v5c,v5x   0.24919   0.68529  -0.43610
:VZERY:v0,v0c,v0x  -0.69994   0.00000  -0.69994 v5,v5c,v5x  -0.69994   0.00000  -0.69994
:VZERX:v0,v0c,v0x   0.11718   0.78599  -0.66881 v5,v5c,v5x   0.11718   0.78599  -0.66881

------- case.scf1 --------
:LMAX-WF:   10   Non-Spherical LMAX:   4

          ATOMIC SPHERE DEPENDENT PARAMETERS FOR ATOM  Fe        
:e__0001: OVERALL ENERGY PARAMETER IS    0.1826
          OVERALL BASIS SET ON ATOM IS LAPW
:E1_0001: E( 1)=    0.1826
             APW+lo
:E1_0001: E( 1)=   -3.4830   E(BOTTOM)=   -3.575   E(TOP)=   -3.391  1  2   146
             LOCAL ORBITAL
:E2_0001: E( 2)=    0.2991   E(BOTTOM)=   -0.063   E(TOP)=    0.661  0  1   141
             APW+lo
:E0_0001: E( 0)=    0.1826
             APW+lo

          ATOMIC SPHERE DEPENDENT PARAMETERS FOR ATOM  Se        
:e__0002: OVERALL ENERGY PARAMETER IS    0.1826
          OVERALL BASIS SET ON ATOM IS LAPW
:E2_0002: E( 2)=    0.1826
             APW+lo
:E2_0002: E( 2)=   -3.1837   E(BOTTOM)=   -3.228   E(TOP)=   -3.140  0  1   139
             LOCAL ORBITAL
:E0_0002: E( 0)=    0.5826
             APW+lo
:E0_0002: E( 0)=   -1.0200   E(BOTTOM)=   -1.662   E(TOP)= -200.000  3 -1   187
             LOCAL ORBITAL
:E1_0002: E( 1)=    0.1826
             APW+lo

       K=   0.04545   0.04545   0.07143            1
:RKM  : MATRIX SIZE   582LOs:  54  RKM= 7.97  WEIGHT= 8.00  PGR:    
       EIGENVALUES ARE:
:EIG00001:      -3.4762210   -3.4759879   -3.4668874   -3.4666542   -3.4483214
:EIG00006:      -3.4463867   -3.1744461   -3.1739821   -3.1735664   -3.1735363
:EIG00011:      -3.1725895   -3.1725763   -3.1724333   -3.1724278   -3.1716102
:EIG00016:      -3.1715612   -0.7083136   -0.6173234   -0.0331288    0.0586174
:EIG00021:       0.0741625    0.0786574    0.1158821    0.1204764    0.1836357
:EIG00026:       0.3423652    0.3675532    0.3757495    0.3907300    0.3943854
:EIG00031:       0.4387556    0.4999698    0.5668915    0.5764052    0.6297988
:EIG00036:       0.7442286    0.8182896    0.9210522    0.9453678    0.9521799
:EIG00041:       1.2008046    1.2869267    1.3275974    1.3276943    1.3594073
:EIG00046:       1.3655462    1.4166516    1.4414869    1.4646411    1.4898962
 
:EIG00051:       1.6384529    1.6518361    1.7242520    1.7559332    1.8498572
       ********************************************************

:KPT   :      NUMBER OF K-POINTS:    84

------- case.scf2 --------
:GMA  : POTENTIAL AND CHARGE CUT-OFF  12.00 Ry**.5




:POS001: at.nr.  -1 position = 0.25000 0.75000 0.00000  multiplicity =  2

       lmmax  8
       lm=   0 0  2 0 -3 2  4 0  4 4 -5 2  6 0  6 4




:POS002: at.nr.  -2 position = 0.25000 0.75000 0.00000  multiplicity =  2

       lmmax 10
       lm=   0 0  1 0  2 0  3 0  4 0  4 4  5 0  5 4  6 0  6 4
:FER gutzwiller fermi energy   0.38196
:EORB          0.216117248
:SUM sum of gutz band energies       -102.840291341

:CHA001: total charge inside sphere   1 =    12.736344
:PCS001: partial charges sphere =  1 s,p,d,f,pz,pxy,,d-z2,d-xy,d-x2y2,d-xz,yz 
:QTL001: 0.2789 6.2750 6.1541 0.0228 2.0698 4.2052 0.0000 1.3653 1.2845 1.1549 2.3495 0.0000
:VZZ001: efg inside sphere   1 =     2.237387      up to r =   2.16000

:CHA002: total charge inside sphere   2 =    13.513224
:PCS002: partial charges sphere =  2 s,p,d,f,pz,pxy,,d-z2,d-xy,d-x2y2,d-xz,yz 
:QTL002: 1.3558 2.083310.0545 0.0160 0.7104 1.3729 0.0000 2.0097 2.0116 2.0119 4.0213 0.0000
:VZZ002: efg inside sphere   2 =    -5.439816      up to r =   2.05000

:CHA  : total charge inside unit cell =      60.000011

------- case.scfc --------

        1.ATOM      Fe                    5 CORE STATES
:1S 001: 1S                -512.218903261 Ry
:2S 001: 2S                 -59.152509431 Ry
:2PP001: 2P*                -50.954625748 Ry
:2P 001: 2P                 -50.039414110 Ry
:3S 001: 3S                  -5.924156831 Ry

        2.ATOM      Se                    7 CORE STATES
       CORE-FORCE in mRy/a.u. = |F|      Fx             Fy             Fz
:FCO002:   2.ATOM   1090.649901526891      0.000000000000      0.000000000000  -1090.649901526891

:1S 002: 1S                -916.481362805 Ry
:2S 002: 2S                -117.141607805 Ry
:2PP002: 2P*               -105.116718053 Ry
:2P 002: 2P                -102.053485713 Ry
:3S 002: 3S                 -14.874450320 Ry
:3PP002: 3P*                -10.761646389 Ry
:3P 002: 3P                 -10.329243818 Ry

------- case.scfm --------
:CINT001 Core Integral Atom   1   11.997102
:CINT002 Core Integral Atom   2   17.999407

       DENSITY AT NUCLEUS
        JATOM        VALENCE       SEMI-CORE          CORE           TOTAL
:RTO001:   1        6.124774        0.000000    14798.014313    14804.139087
:RTO002:   2       55.690238        0.000000    38924.673441    38980.363678
     
       CHARGES OF NEW CHARGE DENSITY
:NTO   : INTERSTITIAL CHARGE =     7.500740
:NPC   : PW Pseudocharge     =    14.170077
:NTO001: CHARGE SPHERE  1    =    24.733446
:NTO002: CHARGE SPHERE  2    =    31.512631

:NEC01: NUCLEAR AND ELECTRONIC CHARGE    120.00000   119.99289
     
       CHARGES OF OLD CHARGE DENSITY
:OTO   : INTERSTITIAL CHARGE =     7.568646
:OPC   : PW Pseudocharge     =    14.187943
:OTO001: CHARGE SPHERE  1    =    24.732678
:OTO002: CHARGE SPHERE  2    =    31.482999

:NEC02: NUCLEAR AND ELECTRONIC CHARGE    120.00000   120.00000
     
       CONVERGENCE TEST
:DTO001: DIFFERENCE IN SPHERE  1 =  0.0797652
:DTO002: DIFFERENCE IN SPHERE  2 =  0.0228165

:DIS  :  CHARGE DISTANCE       ( 0.0797652 for atom    1 spin 1)      0.0512908
 PW Mixed is          365
 
******************************************************
* MULTISECANT MIXING VER9 RELEASE 10.4.0              *
* Standard Mode with controls                        *
* Fixed density scale                                *
* Regularization       1.000E-04                     *
* Trust Upper Limit    5.000E+00                     *
* Max Number of Memory Steps    8                    *
******************************************************
 
:PWTMP   3.7368E+02  3.2249E+02  5.3028E+02
:PLANE:  PW TOTAL      3.7597 DISTAN   5.25E-02  1.40E+00 %
:CHARG:  CLM/ATOM    303.3378 DISTAN   8.86E-02  2.92E-02 %
 
Step History
        DMIX         DMIXT        Red     Pred      Trust     Lambda    MagRel    MagAbs     Beta
  1   3.5000E-02   3.5000E-02 -1.00E+00  1.00E+00 -1.00E+01  1.00E+00  3.50E-02  3.50E-02  1.00E+00
:INFO :  Note, Pratt in use
:TRUST:  Step 3.75E-02  Charge 7.50E-02 (e) CTO  2.50E-01 (e) PW  3.50E-01 (e)
:DIRM :  MEMORY  0/ 8 SCALE   1.000
Performing Pseudo Compensation
Final Pseudo Compensation Rescaling     9.98929E-01
:MIX  :   PRATT  REGULARIZATION:  1.00E-04 GREED: 0.02500                  
     
       CHARGES OF MIXED CHARGE DENSITY
:CTO   : INTERSTITIAL CHARGE =     7.567126
:CPC   : PW Pseudocharge     =    14.209669
:CTO001: CHARGE SPHERE  1    =    24.732697
:CTO002: CHARGE SPHERE  2    =    31.483740

:NEC03: NUCLEAR AND ELECTRONIC CHARGE    120.00000   120.00000

PW CHANGE     H    K    L      Current       Change    Residue
:PTO001:      0    0    0  4.10665783E-02  3.810E-05 -1.230E-04
:PTO002:      0    0   -1  2.62728939E-02 -6.280E-05 -5.844E-04
:PTO004:     -1    0   -1 -9.16370521E-02 -5.047E-04 -9.703E-04
:PTO005:      0    0   -2 -1.02420723E-02 -1.519E-04 -2.663E-04
:PTO006:     -1   -1    0 -2.11396150E-02 -3.002E-04 -5.300E-04
:PTO007:     -1   -1   -1  1.25721324E-02 -1.667E-04 -3.131E-04
:PTO008:     -1    0   -2 -1.15589397E-02 -9.681E-05 -2.680E-04
:PTO009:     -1   -1   -2  2.82051346E-02  2.560E-04  5.769E-04
:PTO010:     -2    0    0 -1.32072953E-02 -1.295E-04 -2.351E-04
:PTO011:      0    0   -3 -1.55939264E-03 -2.857E-05  1.214E-04
:PTO012:     -2    0   -1 -1.10525504E-03 -2.761E-05 -5.584E-04
:PTO014:     -1    0   -3  9.56534975E-03  2.024E-04  2.104E-04

:ENE  : ********** TOTAL ENERGY IN Ry =       -14790.26098657

       TOTAL FORCE IN mRy/a.u. = |F|     Fx             Fy             Fz     with/without FOR in case.in2
:FOR001:   1.ATOM          0.000          0.000          0.000          0.000 partial forces
:FOR002:   2.ATOM        223.574          0.000          0.000        223.574 partial forces
       TOTAL FORCE WITH RESPECT TO GLOBAL CARTESIAN COORDINATES:
:FCA001:   1.ATOM                         0.000          0.000          0.000 partial forces
:FCA002:   2.ATOM                         0.000          0.000        223.574 partial forces
       TOTAL FORCE WITH RESPECT TO THE GLOBAL COORDINATE SYSTEM:
:FGL001:   1.ATOM                 0.000000000     0.000000000     0.000000000 partial forces
:FGL002:   2.ATOM                 0.000000000     0.000000000   223.574105236 partial forces

------- case.scf0 --------
 Flat Integration
 New Mode for Coulomb Integral
 Consistent 3/8+Simpson combinations
 Extension of core to zero
 LDM version in phi
 Fifth-order quadrature in outwin


            ---------
:ITE012: 12. ITERATION
            ---------

:NATO :    2 INDEPENDENT AND    4 TOTAL ATOMS IN UNITCELL
       SUBSTANCE: FeSe                                                        

       LATTICE                      = P   
:POT  : POTENTIAL OPTION EX_LDA EC_LDA VX_LDA VC_LDA
:LAT  : LATTICE CONSTANTS=  7.12881  7.12881 10.43450    1.571    1.571    1.571
:VOL  : UNIT CELL VOLUME =     530.28024
       MODE OF CALCULATION IS       = RELA
       NON-SPINPOLARIZED CALCULATION
:IFFT  : FFT-parameters:   60   60   80 Factor: 2.00


   CONVERGENCE PARAMETER FOR PSEUDOCHARGE: NCON=  9
   MAXIMAL VALUE OF RMT(JATOM)*ABSK(NKK) : RK  =25.91023


:VKCOUL :  VK-COUL convergence: 0.302E-06
       ATOMNUMBER=  1 Fe         VCOUL-ZERO =  0.21976E+00
:EFG001:                        EFG         =    -0.58901   *10**21  V / m**2
                               V20  TOT/SRF=    -0.51010    -0.08537
                               V22  TOT/SRF=     0.00000     0.00000
                               V22M TOT/SRF=     0.00000     0.00000
                               V21  TOT/SRF=     0.00000     0.00000
                               V21M TOT/SRF=     0.00000     0.00000

              0.29451    0.00000    0.00000        0.29451    0.00000    0.00000
              0.00000    0.29451    0.00000        0.00000    0.29451    0.00000
              0.00000    0.00000   -0.58901        0.00000    0.00000   -0.58901

         MAIN DIRECTIONS OF THE EFG   1.0000  0.0000  0.0000
                                      0.0000  1.0000  0.0000
                                      0.0000  0.0000  1.0000
:ANG001:  ANGLE WITH OLD X-AXIS =         0.0

:ETA001:                         ASYMM. ETA =     0.00000


       ATOMNUMBER=  2 Se         VCOUL-ZERO =  0.30802E-01
:EFG002:                        EFG         =    -6.55205   *10**21  V / m**2
                               V20  TOT/SRF=    -5.67424    -0.02374
                               V22  TOT/SRF=     0.00000     0.00000
                               V22M TOT/SRF=     0.00000     0.00000
                               V21  TOT/SRF=     0.00000     0.00000
                               V21M TOT/SRF=     0.00000     0.00000

              3.27602    0.00000    0.00000        3.27602    0.00000    0.00000
              0.00000    3.27602    0.00000        0.00000    3.27602    0.00000
              0.00000    0.00000   -6.55205        0.00000    0.00000   -6.55205

         MAIN DIRECTIONS OF THE EFG   1.0000  0.0000  0.0000
                                      0.0000  1.0000  0.0000
                                      0.0000  0.0000  1.0000
:ANG002:  ANGLE WITH OLD X-AXIS =         0.0

:ETA002:                         ASYMM. ETA =     0.00000


     HELLMANN-FEYNMAN-FORCE IN mRy/a.u. = |F|  Fx       Fy             Fz
:FHF001:   1.ATOM      0.000000000000      0.000000000000      0.000000000000      0.000000000000

     HELLMANN-FEYNMAN-FORCE IN mRy/a.u. = |F|  Fx       Fy             Fz
:FHF002:   2.ATOM   1322.897430439539      0.000000000000      0.000000000000   1322.897430439539

:FIT001: LUSE= 13 SIGMA OF V-XC FIT FOR ATOM  1  0.2606271E-02
:FIT001: LUSE= 13 SIGMA OF V-XC FIT FOR ATOM  1  0.2606271E-02
:FIT002: LUSE= 13 SIGMA OF V-XC FIT FOR ATOM  2  0.5438968E-03
:FIT002: LUSE= 13 SIGMA OF V-XC FIT FOR ATOM  2  0.5438968E-03
:DEN  : DENSITY INTEGRAL  =         -6217.83026379   (Ry)
       ELS_POTENTIAL_AT Z=0 and Z=0.5:  -0.75633   0.68574
       ELS_POTENTIAL_AT Y=0 and Y=0.5:   0.00000   0.00000
:VZERO:v0,v0c,v0x  -1.60072  -0.75633  -0.84439 v5,v5c,v5x   0.24955   0.68574  -0.43620
:VZERY:v0,v0c,v0x  -0.69995   0.00000  -0.69995 v5,v5c,v5x  -0.69995   0.00000  -0.69995
:VZERX:v0,v0c,v0x   0.11723   0.78583  -0.66860 v5,v5c,v5x   0.11723   0.78583  -0.66860

------- case.scf1 --------
:LMAX-WF:   10   Non-Spherical LMAX:   4

          ATOMIC SPHERE DEPENDENT PARAMETERS FOR ATOM  Fe        
:e__0001: OVERALL ENERGY PARAMETER IS    0.1826
          OVERALL BASIS SET ON ATOM IS LAPW
:E1_0001: E( 1)=    0.1826
             APW+lo
:E1_0001: E( 1)=   -3.4825   E(BOTTOM)=   -3.575   E(TOP)=   -3.390  1  2   147
             LOCAL ORBITAL
:E2_0001: E( 2)=    0.2995   E(BOTTOM)=   -0.063   E(TOP)=    0.662  0  1   136
             APW+lo
:E0_0001: E( 0)=    0.1826
             APW+lo

          ATOMIC SPHERE DEPENDENT PARAMETERS FOR ATOM  Se        
:e__0002: OVERALL ENERGY PARAMETER IS    0.1826
          OVERALL BASIS SET ON ATOM IS LAPW
:E2_0002: E( 2)=    0.1826
             APW+lo
:E2_0002: E( 2)=   -3.1833   E(BOTTOM)=   -3.228   E(TOP)=   -3.139  0  1   142
             LOCAL ORBITAL
:E0_0002: E( 0)=    0.5826
             APW+lo
:E0_0002: E( 0)=   -1.0200   E(BOTTOM)=   -1.661   E(TOP)= -200.000  3 -1   185
             LOCAL ORBITAL
:E1_0002: E( 1)=    0.1826
             APW+lo

       K=   0.04545   0.04545   0.07143            1
:RKM  : MATRIX SIZE   582LOs:  54  RKM= 7.97  WEIGHT= 8.00  PGR:    
       EIGENVALUES ARE:
:EIG00001:      -3.4755526   -3.4753193   -3.4662105   -3.4659771   -3.4479310
:EIG00006:      -3.4459947   -3.1740091   -3.1735447   -3.1731285   -3.1730985
:EIG00011:      -3.1721537   -3.1721405   -3.1719971   -3.1719916   -3.1711756
:EIG00016:      -3.1711265   -0.7083281   -0.6172625   -0.0330686    0.0587211
:EIG00021:       0.0742241    0.0787200    0.1158788    0.1204804    0.1839116
:EIG00026:       0.3425975    0.3678346    0.3762571    0.3909835    0.3946707
:EIG00031:       0.4393117    0.5001768    0.5671487    0.5767153    0.6298225
:EIG00036:       0.7444292    0.8183244    0.9210030    0.9453836    0.9521888
:EIG00041:       1.2008200    1.2868774    1.3274436    1.3277804    1.3594391
:EIG00046:       1.3656157    1.4166688    1.4414797    1.4647230    1.4899024
 
:EIG00051:       1.6385609    1.6519832    1.7241574    1.7559243    1.8498588
       ********************************************************

:KPT   :      NUMBER OF K-POINTS:    84

------- case.scf2 --------
:GMA  : POTENTIAL AND CHARGE CUT-OFF  12.00 Ry**.5




:POS001: at.nr.  -1 position = 0.25000 0.75000 0.00000  multiplicity =  2

       lmmax  8
       lm=   0 0  2 0 -3 2  4 0  4 4 -5 2  6 0  6 4




:POS002: at.nr.  -2 position = 0.25000 0.75000 0.00000  multiplicity =  2

       lmmax 10
       lm=   0 0  1 0  2 0  3 0  4 0  4 4  5 0  5 4  6 0  6 4
:FER gutzwiller fermi energy   0.38217
:EORB          0.217942549
:SUM sum of gutz band energies       -102.822215737

:CHA001: total charge inside sphere   1 =    12.735111
:PCS001: partial charges sphere =  1 s,p,d,f,pz,pxy,,d-z2,d-xy,d-x2y2,d-xz,yz 
:QTL001: 0.2790 6.2751 6.1526 0.0228 2.0698 4.2053 0.0000 1.3653 1.2839 1.1538 2.3496 0.0000
:VZZ001: efg inside sphere   1 =     2.176685      up to r =   2.16000

:CHA002: total charge inside sphere   2 =    13.513147
:PCS002: partial charges sphere =  2 s,p,d,f,pz,pxy,,d-z2,d-xy,d-x2y2,d-xz,yz 
:QTL002: 1.3558 2.083210.0546 0.0160 0.7104 1.3728 0.0000 2.0097 2.0116 2.0119 4.0213 0.0000
:VZZ002: efg inside sphere   2 =    -5.438468      up to r =   2.05000

:CHA  : total charge inside unit cell =      60.000000

------- case.scfc --------

        1.ATOM      Fe                    5 CORE STATES
:1S 001: 1S                -512.217150062 Ry
:2S 001: 2S                 -59.150891918 Ry
:2PP001: 2P*                -50.952974620 Ry
:2P 001: 2P                 -50.037766198 Ry
:3S 001: 3S                  -5.923512117 Ry

        2.ATOM      Se                    7 CORE STATES
       CORE-FORCE in mRy/a.u. = |F|      Fx             Fy             Fz
:FCO002:   2.ATOM   1094.153409749940      0.000000000000      0.000000000000  -1094.153409749940

:1S 002: 1S                -916.480716260 Ry
:2S 002: 2S                -117.141041918 Ry
:2PP002: 2P*               -105.116139656 Ry
:2P 002: 2P                -102.052909041 Ry
:3S 002: 3S                 -14.873996374 Ry
:3PP002: 3P*                -10.761194370 Ry
:3P 002: 3P                 -10.328794730 Ry

------- case.scfm --------
:CINT001 Core Integral Atom   1   11.997100
:CINT002 Core Integral Atom   2   17.999407

       DENSITY AT NUCLEUS
        JATOM        VALENCE       SEMI-CORE          CORE           TOTAL
:RTO001:   1        6.128187        0.000000    14797.993677    14804.121863
:RTO002:   2       55.685732        0.000000    38924.668463    38980.354195
     
       CHARGES OF NEW CHARGE DENSITY
:NTO   : INTERSTITIAL CHARGE =     7.503586
:NPC   : PW Pseudocharge     =    14.172155
:NTO001: CHARGE SPHERE  1    =    24.732211
:NTO002: CHARGE SPHERE  2    =    31.512554

:NEC01: NUCLEAR AND ELECTRONIC CHARGE    120.00000   119.99312
     
       CHARGES OF OLD CHARGE DENSITY
:OTO   : INTERSTITIAL CHARGE =     7.567126
:OPC   : PW Pseudocharge     =    14.209669
:OTO001: CHARGE SPHERE  1    =    24.732697
:OTO002: CHARGE SPHERE  2    =    31.483740

:NEC02: NUCLEAR AND ELECTRONIC CHARGE    120.00000   120.00000
     
       CONVERGENCE TEST
:DTO001: DIFFERENCE IN SPHERE  1 =  0.0732781
:DTO002: DIFFERENCE IN SPHERE  2 =  0.0219760

:DIS  :  CHARGE DISTANCE       ( 0.0732781 for atom    1 spin 1)      0.0476270
 PW Mixed is          365
 
******************************************************
* MULTISECANT MIXING VER9 RELEASE 10.4.0              *
* Slow Mode, cautious                                *
* Fixed density scale                                *
* Regularization       1.000E-04                     *
* Step Trust Radius    0.75000                       *
* Trust Upper Limit    2.000E+00                     *
* Max Number of Memory Steps   12                    *
******************************************************
 
:PWTMP   3.7368E+02  3.2249E+02  5.3028E+02
:PLANE:  PW TOTAL      3.7712 DISTAN   4.02E-02  1.07E+00 %
:CHARG:  CLM/ATOM    303.3380 DISTAN   8.36E-02  2.75E-02 %
 
Step History
        DMIX         DMIXT        Red     Pred      Trust     Lambda    MagRel    MagAbs     Beta
  1   3.5000E-02   3.5000E-02 -1.00E+00  1.00E+00 -1.00E+01  1.00E+00  3.50E-02  3.50E-02  1.00E+00
  2   2.5000E-02   2.5000E-02 -1.00E+00  1.00E+00 -1.00E+01  1.00E+00  2.50E-02  4.62E-03  1.00E+00
:JACOBIANS    3.933E-01   3.620E-02
  
:NORMS:  1/Froebius, Min, Max, Used   0.7995E+00  0.7995E+00  0.8588E+00  0.7995E+00
:INFO :  Number of Memory Steps    1 Skipping    0
:PREDicted Charge, CTotal, PW Trust    3.125E-03   6.411E-03   5.183E-02
:PREDicted DMix, Beta, BLim   1.0000E-02  4.2181E+00  5.0884E-01

Eigenvalues, unscaled except for SY+YY
   #     SY Real        SY Imag          SS             YY         SY+YY Real      SY+YY Imag
   1   8.588269E-01   0.000000E+00   7.995282E-01   1.000000E+00   1.858827E+00   0.000000E+00
 
:BLIM :  VZERO Control Off
:TRUST:  Step 4.29E-01  Charge 7.50E-02 (e) CTO  2.50E-01 (e) PW  3.50E-01 (e)
:DIRM :  MEMORY  1/12 SCALE   1.000 RED  0.93 PRED  1.00 NEXT  0.89 
:TRAVE:  Charge 2.91E-03 (e) CTO  5.76E-03 (e) PW  3.79E-02 (e)
:DIRP :  |MSR1|= 6.880E-02 |PRATT|= 4.020E-02 ANGLE=  70.4 DEGREES
:DIRQ :  |MSR1|= 1.695E-02 |PRATT|= 1.671E-01 ANGLE=   0.2 DEGREES
:DIRT :  |MSR1|= 7.085E-02 |PRATT|= 1.719E-01 ANGLE=  72.0 DEGREES
:MIX  :   MSR1   REGULARIZATION:  1.00E-04 GREED: 0.02000  Newton 1.00  0.4122                
     
       CHARGES OF MIXED CHARGE DENSITY
:CTO   : INTERSTITIAL CHARGE =     7.561368
:CPC   : PW Pseudocharge     =    14.277805
:CTO001: CHARGE SPHERE  1    =    24.732669
:CTO002: CHARGE SPHERE  2    =    31.486647

:NEC03: NUCLEAR AND ELECTRONIC CHARGE    120.00000   120.00000

PW CHANGE     H    K    L      Current       Change    Residue
:PTO001:      0    0    0  4.11842096E-02  1.176E-04 -1.531E-04
:PTO002:      0    0   -1  2.60659766E-02 -2.069E-04 -5.030E-04
:PTO004:     -1    0   -1 -9.32367577E-02 -1.600E-03 -4.509E-04
:PTO005:      0    0   -2 -1.07229793E-02 -4.809E-04 -1.088E-04
:PTO006:     -1   -1    0 -2.20902748E-02 -9.507E-04 -2.224E-04
:PTO007:     -1   -1   -1  1.20431514E-02 -5.290E-04 -1.510E-04
:PTO008:     -1    0   -2 -1.18683775E-02 -3.094E-04 -1.795E-04
:PTO009:     -1   -1   -2  2.90179444E-02  8.128E-04  3.097E-04
:PTO010:     -2    0    0 -1.36174094E-02 -4.101E-04 -1.005E-04
:PTO011:      0    0   -3 -1.64682312E-03 -8.743E-05  1.460E-04
:PTO012:     -2    0   -1 -1.20268677E-03 -9.743E-05 -5.279E-04
:PTO014:     -1    0   -3  1.02035207E-02  6.382E-04  4.484E-06

:ENE  : ********** TOTAL ENERGY IN Ry =       -14790.26076591

       TOTAL FORCE IN mRy/a.u. = |F|     Fx             Fy             Fz     with/without FOR in case.in2
:FOR001:   1.ATOM          0.000          0.000          0.000          0.000 partial forces
:FOR002:   2.ATOM        228.744          0.000          0.000        228.744 partial forces
       TOTAL FORCE WITH RESPECT TO GLOBAL CARTESIAN COORDINATES:
:FCA001:   1.ATOM                         0.000          0.000          0.000 partial forces
:FCA002:   2.ATOM                         0.000          0.000        228.744 partial forces
       TOTAL FORCE WITH RESPECT TO THE GLOBAL COORDINATE SYSTEM:
:FGL001:   1.ATOM                 0.000000000     0.000000000     0.000000000 partial forces
:FGL002:   2.ATOM                 0.000000000     0.000000000   228.744020690 partial forces

------- case.scf0 --------
 Flat Integration
 New Mode for Coulomb Integral
 Consistent 3/8+Simpson combinations
 Extension of core to zero
 LDM version in phi
 Fifth-order quadrature in outwin


            ---------
:ITE013: 13. ITERATION
            ---------

:NATO :    2 INDEPENDENT AND    4 TOTAL ATOMS IN UNITCELL
       SUBSTANCE: FeSe                                                        

       LATTICE                      = P   
:POT  : POTENTIAL OPTION EX_LDA EC_LDA VX_LDA VC_LDA
:LAT  : LATTICE CONSTANTS=  7.12881  7.12881 10.43450    1.571    1.571    1.571
:VOL  : UNIT CELL VOLUME =     530.28024
       MODE OF CALCULATION IS       = RELA
       NON-SPINPOLARIZED CALCULATION
:IFFT  : FFT-parameters:   60   60   80 Factor: 2.00


   CONVERGENCE PARAMETER FOR PSEUDOCHARGE: NCON=  9
   MAXIMAL VALUE OF RMT(JATOM)*ABSK(NKK) : RK  =25.91023


:VKCOUL :  VK-COUL convergence: 0.306E-06
       ATOMNUMBER=  1 Fe         VCOUL-ZERO =  0.21746E+00
:EFG001:                        EFG         =    -0.32224   *10**21  V / m**2
                               V20  TOT/SRF=    -0.27907    -0.08644
                               V22  TOT/SRF=     0.00000     0.00000
                               V22M TOT/SRF=     0.00000     0.00000
                               V21  TOT/SRF=     0.00000     0.00000
                               V21M TOT/SRF=     0.00000     0.00000

              0.16112    0.00000    0.00000        0.16112    0.00000    0.00000
              0.00000    0.16112    0.00000        0.00000    0.16112    0.00000
              0.00000    0.00000   -0.32224        0.00000    0.00000   -0.32224

         MAIN DIRECTIONS OF THE EFG   1.0000  0.0000  0.0000
                                      0.0000  1.0000  0.0000
                                      0.0000  0.0000  1.0000
:ANG001:  ANGLE WITH OLD X-AXIS =         0.0

:ETA001:                         ASYMM. ETA =     0.00000


       ATOMNUMBER=  2 Se         VCOUL-ZERO =  0.30924E-01
:EFG002:                        EFG         =    -6.44288   *10**21  V / m**2
                               V20  TOT/SRF=    -5.57970    -0.02419
                               V22  TOT/SRF=     0.00000     0.00000
                               V22M TOT/SRF=     0.00000     0.00000
                               V21  TOT/SRF=     0.00000     0.00000
                               V21M TOT/SRF=     0.00000     0.00000

              3.22144    0.00000    0.00000        3.22144    0.00000    0.00000
              0.00000    3.22144    0.00000        0.00000    3.22144    0.00000
              0.00000    0.00000   -6.44288        0.00000    0.00000   -6.44288

         MAIN DIRECTIONS OF THE EFG   1.0000  0.0000  0.0000
                                      0.0000  1.0000  0.0000
                                      0.0000  0.0000  1.0000
:ANG002:  ANGLE WITH OLD X-AXIS =         0.0

:ETA002:                         ASYMM. ETA =     0.00000


     HELLMANN-FEYNMAN-FORCE IN mRy/a.u. = |F|  Fx       Fy             Fz
:FHF001:   1.ATOM      0.000000000000      0.000000000000      0.000000000000      0.000000000000

     HELLMANN-FEYNMAN-FORCE IN mRy/a.u. = |F|  Fx       Fy             Fz
:FHF002:   2.ATOM   1355.455997083747      0.000000000000      0.000000000000   1355.455997083747

:FIT001: LUSE= 13 SIGMA OF V-XC FIT FOR ATOM  1  0.2612235E-02
:FIT001: LUSE= 13 SIGMA OF V-XC FIT FOR ATOM  1  0.2612235E-02
:FIT002: LUSE= 13 SIGMA OF V-XC FIT FOR ATOM  2  0.5384960E-03
:FIT002: LUSE= 13 SIGMA OF V-XC FIT FOR ATOM  2  0.5384960E-03
:DEN  : DENSITY INTEGRAL  =         -6218.11123503   (Ry)
       ELS_POTENTIAL_AT Z=0 and Z=0.5:  -0.75009   0.68753
       ELS_POTENTIAL_AT Y=0 and Y=0.5:   0.00000   0.00000
:VZERO:v0,v0c,v0x  -1.59253  -0.75009  -0.84244 v5,v5c,v5x   0.25096   0.68753  -0.43657
:VZERY:v0,v0c,v0x  -0.69998   0.00000  -0.69998 v5,v5c,v5x  -0.69998   0.00000  -0.69998
:VZERX:v0,v0c,v0x   0.11733   0.78525  -0.66792 v5,v5c,v5x   0.11733   0.78525  -0.66792

------- case.scf1 --------
:LMAX-WF:   10   Non-Spherical LMAX:   4

          ATOMIC SPHERE DEPENDENT PARAMETERS FOR ATOM  Fe        
:e__0001: OVERALL ENERGY PARAMETER IS    0.1826
          OVERALL BASIS SET ON ATOM IS LAPW
:E1_0001: E( 1)=    0.1826
             APW+lo
:E1_0001: E( 1)=   -3.4804   E(BOTTOM)=   -3.573   E(TOP)=   -3.388  1  2   149
             LOCAL ORBITAL
:E2_0001: E( 2)=    0.3008   E(BOTTOM)=   -0.062   E(TOP)=    0.664  0  1   132
             APW+lo
:E0_0001: E( 0)=    0.1826
             APW+lo

          ATOMIC SPHERE DEPENDENT PARAMETERS FOR ATOM  Se        
:e__0002: OVERALL ENERGY PARAMETER IS    0.1826
          OVERALL BASIS SET ON ATOM IS LAPW
:E2_0002: E( 2)=    0.1826
             APW+lo
:E2_0002: E( 2)=   -3.1816   E(BOTTOM)=   -3.226   E(TOP)=   -3.137  0  1   140
             LOCAL ORBITAL
:E0_0002: E( 0)=    0.5826
             APW+lo
:E0_0002: E( 0)=   -1.0200   E(BOTTOM)=   -1.661   E(TOP)= -200.000  3 -1   186
             LOCAL ORBITAL
:E1_0002: E( 1)=    0.1826
             APW+lo

       K=   0.04545   0.04545   0.07143            1
:RKM  : MATRIX SIZE   582LOs:  54  RKM= 7.97  WEIGHT= 8.00  PGR:    
       EIGENVALUES ARE:
:EIG00001:      -3.4731165   -3.4728824   -3.4637425   -3.4635083   -3.4465740
:EIG00006:      -3.4446318   -3.1722705   -3.1718052   -3.1713865   -3.1713566
:EIG00011:      -3.1704204   -3.1704072   -3.1702625   -3.1702570   -3.1694465
:EIG00016:      -3.1693974   -0.7083464   -0.6169872   -0.0328182    0.0591054
:EIG00021:       0.0744418    0.0789411    0.1158802    0.1205086    0.1848879
:EIG00026:       0.3433986    0.3688387    0.3780985    0.3918707    0.3956667
:EIG00031:       0.4413380    0.5009703    0.5680976    0.5778602    0.6299377
:EIG00036:       0.7451756    0.8184449    0.9208307    0.9454681    0.9522468
:EIG00041:       1.2009074    1.2867016    1.3268670    1.3281313    1.3595865
:EIG00046:       1.3659061    1.4167555    1.4414727    1.4650645    1.4899565
 
:EIG00051:       1.6390001    1.6525767    1.7238147    1.7559128    1.8499030
       ********************************************************

:KPT   :      NUMBER OF K-POINTS:    84

------- case.scf2 --------
:GMA  : POTENTIAL AND CHARGE CUT-OFF  12.00 Ry**.5




:POS001: at.nr.  -1 position = 0.25000 0.75000 0.00000  multiplicity =  2

       lmmax  8
       lm=   0 0  2 0 -3 2  4 0  4 4 -5 2  6 0  6 4




:POS002: at.nr.  -2 position = 0.25000 0.75000 0.00000  multiplicity =  2

       lmmax 10
       lm=   0 0  1 0  2 0  3 0  4 0  4 4  5 0  5 4  6 0  6 4
:FER gutzwiller fermi energy   0.38252
:EORB          0.231758722
:SUM sum of gutz band energies       -102.760488775

:CHA001: total charge inside sphere   1 =    12.732860
:PCS001: partial charges sphere =  1 s,p,d,f,pz,pxy,,d-z2,d-xy,d-x2y2,d-xz,yz 
:QTL001: 0.2794 6.2757 6.1492 0.0228 2.0699 4.2058 0.0000 1.3657 1.2819 1.1500 2.3517 0.0000
:VZZ001: efg inside sphere   1 =     1.924904      up to r =   2.16000

:CHA002: total charge inside sphere   2 =    13.511416
:PCS002: partial charges sphere =  2 s,p,d,f,pz,pxy,,d-z2,d-xy,d-x2y2,d-xz,yz 
:QTL002: 1.3556 2.081110.0550 0.0161 0.7096 1.3715 0.0000 2.0098 2.0117 2.0120 4.0215 0.0000
:VZZ002: efg inside sphere   2 =    -5.425039      up to r =   2.05000

:CHA  : total charge inside unit cell =      60.000000

------- case.scfc --------

        1.ATOM      Fe                    5 CORE STATES
:1S 001: 1S                -512.210719692 Ry
:2S 001: 2S                 -59.144941960 Ry
:2PP001: 2P*                -50.946902625 Ry
:2P 001: 2P                 -50.031705910 Ry
:3S 001: 3S                  -5.921178398 Ry

        2.ATOM      Se                    7 CORE STATES
       CORE-FORCE in mRy/a.u. = |F|      Fx             Fy             Fz
:FCO002:   2.ATOM   1107.047651585830      0.000000000000      0.000000000000  -1107.047651585830

:1S 002: 1S                -916.478184745 Ry
:2S 002: 2S                -117.138819397 Ry
:2PP002: 2P*               -105.113869502 Ry
:2P 002: 2P                -102.050645454 Ry
:3S 002: 3S                 -14.872192637 Ry
:3PP002: 3P*                -10.759398081 Ry
:3P 002: 3P                 -10.327009487 Ry

------- case.scfm --------
:CINT001 Core Integral Atom   1   11.997093
:CINT002 Core Integral Atom   2   17.999407

       DENSITY AT NUCLEUS
        JATOM        VALENCE       SEMI-CORE          CORE           TOTAL
:RTO001:   1        6.140696        0.000000    14797.917174    14804.057870
:RTO002:   2       55.667883        0.000000    38924.649636    38980.317518
     
       CHARGES OF NEW CHARGE DENSITY
:NTO   : INTERSTITIAL CHARGE =     7.511175
:NPC   : PW Pseudocharge     =    14.177560
:NTO001: CHARGE SPHERE  1    =    24.729952
:NTO002: CHARGE SPHERE  2    =    31.510822

:NEC01: NUCLEAR AND ELECTRONIC CHARGE    120.00000   119.99272
     
       CHARGES OF OLD CHARGE DENSITY
:OTO   : INTERSTITIAL CHARGE =     7.561368
:OPC   : PW Pseudocharge     =    14.277805
:OTO001: CHARGE SPHERE  1    =    24.732669
:OTO002: CHARGE SPHERE  2    =    31.486647

:NEC02: NUCLEAR AND ELECTRONIC CHARGE    120.00000   120.00000
     
       CONVERGENCE TEST
:DTO001: DIFFERENCE IN SPHERE  1 =  0.0517794
:DTO002: DIFFERENCE IN SPHERE  2 =  0.0179292

:DIS  :  CHARGE DISTANCE       ( 0.0517794 for atom    1 spin 1)      0.0348543
 PW Mixed is          365
 
******************************************************
* MULTISECANT MIXING VER9 RELEASE 10.4.0              *
* Slow Mode, cautious                                *
* Fixed density scale                                *
* Regularization       1.000E-04                     *
* Step Trust Radius    0.75000                       *
* Trust Upper Limit    2.000E+00                     *
* Max Number of Memory Steps   12                    *
******************************************************
 
:PWTMP   3.7368E+02  3.2249E+02  5.3028E+02
:PLANE:  PW TOTAL      3.8078 DISTAN   6.77E-02  1.78E+00 %
:CHARG:  CLM/ATOM    303.3388 DISTAN   6.57E-02  2.17E-02 %
 
Step History
        DMIX         DMIXT        Red     Pred      Trust     Lambda    MagRel    MagAbs     Beta
  1   3.5000E-02   3.5000E-02 -1.00E+00  1.00E+00 -1.00E+01  1.00E+00  3.50E-02  3.50E-02  1.00E+00
  2   2.5000E-02   2.5000E-02  9.30E-01  1.00E+00 -1.00E+01  1.00E+00  2.50E-02  4.62E-03  1.00E+00
  3   2.0000E-02   2.0000E-02 -1.00E+00  8.86E-01  4.29E-01  1.00E+00  4.12E-01  7.09E-02  1.00E+00
:JACOBIANS    5.946E-01   1.084E-01
  
:NORMS:  1/Froebius, Min, Max, Used   0.8750E+00  0.6819E+00  0.9088E+00  0.8750E+00
:INFO :  Number of Memory Steps    2 Skipping    0
:INFO :  SLambda=    0.2660796853  Max    0.2660796853
:PREDicted Charge, CTotal, PW Trust    6.573E-03   1.170E-02   2.059E-02
:PREDicted DMix, Beta, BLim   1.4014E-01  8.3581E-01  3.9416E-01

Eigenvalues, unscaled except for SY+YY
   #     SY Real        SY Imag          SS             YY         SY+YY Real      SY+YY Imag
   1   1.680811E+00   0.000000E+00   1.531208E+00   1.999882E+00   2.447111E+00   0.000000E+00
   2   5.784194E-05   0.000000E+00   3.858148E-05   1.175949E-04   1.337878E-04   0.000000E+00
 
:INFO :  Singular value  2.447E+00 Weight  1.000E+00 Projection -4.148E-05
:INFO :  Singular value  1.338E-04 Weight  3.092E-01 Projection -3.687E+00
:RANK :  ACTIVE   1.31/2  =  65.46 % ; YY RANK   1.26/2  =  62.85 %
 
:DLIM :  Beta Active  8.769E-01
:BLIM :  VZERO Control Off
:TRUST:  Step 4.99E-01  Charge 7.50E-02 (e) CTO  2.50E-01 (e) PW  3.50E-01 (e)
:DIRM :  MEMORY  2/12 SCALE   1.000 RED  0.86 PRED  0.89 NEXT  0.81 BETA  0.88
:TRAVE:  Charge 3.28E-03 (e) CTO  6.50E-03 (e) PW  2.80E-02 (e)
:DIRP :  |MSR1|= 1.890E-02 |PRATT|= 6.767E-02 ANGLE=  12.2 DEGREES
:DIRQ :  |MSR1|= 2.140E-02 |PRATT|= 1.314E-01 ANGLE=   1.7 DEGREES
:DIRT :  |MSR1|= 2.855E-02 |PRATT|= 1.478E-01 ANGLE=  15.8 DEGREES
:MIX  :   MSD1   REGULARIZATION:  2.00E-04 GREED: 0.05000  Newton 1.00  0.1932                
     
       CHARGES OF MIXED CHARGE DENSITY
:CTO   : INTERSTITIAL CHARGE =     7.554133
:CPC   : PW Pseudocharge     =    14.255243
:CTO001: CHARGE SPHERE  1    =    24.732635
:CTO002: CHARGE SPHERE  2    =    31.490299

:NEC03: NUCLEAR AND ELECTRONIC CHARGE    120.00000   120.00000

PW CHANGE     H    K    L      Current       Change    Residue
:PTO001:      0    0    0  4.11280194E-02 -5.619E-05 -2.441E-04
:PTO002:      0    0   -1  2.60532270E-02 -1.275E-05 -2.178E-04
:PTO004:     -1    0   -1 -9.28431864E-02  3.936E-04  1.219E-03
:PTO005:      0    0   -2 -1.05980753E-02  1.249E-04  3.996E-04
:PTO006:     -1   -1    0 -2.18476067E-02  2.427E-04  7.687E-04
:PTO007:     -1   -1   -1  1.21676271E-02  1.245E-04  3.707E-04
:PTO008:     -1    0   -2 -1.18209664E-02  4.741E-05  9.349E-05
:PTO009:     -1   -1   -2  2.88334328E-02 -1.845E-04 -5.435E-04
:PTO010:     -2    0    0 -1.35152062E-02  1.022E-04  3.268E-04
:PTO011:      0    0   -3 -1.59919974E-03  4.762E-05  2.179E-04
:PTO012:     -2    0   -1 -1.26847587E-03 -6.579E-05 -4.228E-04
:PTO014:     -1    0   -3  1.00192892E-02 -1.842E-04 -6.475E-04

:ENE  : ********** TOTAL ENERGY IN Ry =       -14790.25968004

       TOTAL FORCE IN mRy/a.u. = |F|     Fx             Fy             Fz     with/without FOR in case.in2
:FOR001:   1.ATOM          0.000          0.000          0.000          0.000 partial forces
:FOR002:   2.ATOM        248.408          0.000          0.000        248.408 partial forces
       TOTAL FORCE WITH RESPECT TO GLOBAL CARTESIAN COORDINATES:
:FCA001:   1.ATOM                         0.000          0.000          0.000 partial forces
:FCA002:   2.ATOM                         0.000          0.000        248.408 partial forces
       TOTAL FORCE WITH RESPECT TO THE GLOBAL COORDINATE SYSTEM:
:FGL001:   1.ATOM                 0.000000000     0.000000000     0.000000000 partial forces
:FGL002:   2.ATOM                 0.000000000     0.000000000   248.408345498 partial forces

------- case.scf0 --------
 Flat Integration
 New Mode for Coulomb Integral
 Consistent 3/8+Simpson combinations
 Extension of core to zero
 LDM version in phi
 Fifth-order quadrature in outwin


            ---------
:ITE014: 14. ITERATION
            ---------

:NATO :    2 INDEPENDENT AND    4 TOTAL ATOMS IN UNITCELL
       SUBSTANCE: FeSe                                                        

       LATTICE                      = P   
:POT  : POTENTIAL OPTION EX_LDA EC_LDA VX_LDA VC_LDA
:LAT  : LATTICE CONSTANTS=  7.12881  7.12881 10.43450    1.571    1.571    1.571
:VOL  : UNIT CELL VOLUME =     530.28024
       MODE OF CALCULATION IS       = RELA
       NON-SPINPOLARIZED CALCULATION
:IFFT  : FFT-parameters:   60   60   80 Factor: 2.00


   CONVERGENCE PARAMETER FOR PSEUDOCHARGE: NCON=  9
   MAXIMAL VALUE OF RMT(JATOM)*ABSK(NKK) : RK  =25.91023


:VKCOUL :  VK-COUL convergence: 0.305E-06
       ATOMNUMBER=  1 Fe         VCOUL-ZERO =  0.21499E+00
:EFG001:                        EFG         =     0.01637   *10**21  V / m**2
                               V20  TOT/SRF=     0.01418    -0.08741
                               V22  TOT/SRF=     0.00000     0.00000
                               V22M TOT/SRF=     0.00000     0.00000
                               V21  TOT/SRF=     0.00000     0.00000
                               V21M TOT/SRF=     0.00000     0.00000

             -0.00819    0.00000    0.00000       -0.00819    0.00000    0.00000
              0.00000   -0.00819    0.00000        0.00000   -0.00819    0.00000
              0.00000    0.00000    0.01637        0.00000    0.00000    0.01637

         MAIN DIRECTIONS OF THE EFG   1.0000  0.0000  0.0000
                                      0.0000  1.0000  0.0000
                                      0.0000  0.0000  1.0000
:ANG001:  ANGLE WITH OLD X-AXIS =         0.0

:ETA001:                         ASYMM. ETA =     0.00000


       ATOMNUMBER=  2 Se         VCOUL-ZERO =  0.31332E-01
:EFG002:                        EFG         =    -6.27558   *10**21  V / m**2
                               V20  TOT/SRF=    -5.43481    -0.02474
                               V22  TOT/SRF=     0.00000     0.00000
                               V22M TOT/SRF=     0.00000     0.00000
                               V21  TOT/SRF=     0.00000     0.00000
                               V21M TOT/SRF=     0.00000     0.00000

              3.13779    0.00000    0.00000        3.13779    0.00000    0.00000
              0.00000    3.13779    0.00000        0.00000    3.13779    0.00000
              0.00000    0.00000   -6.27558        0.00000    0.00000   -6.27558

         MAIN DIRECTIONS OF THE EFG   1.0000  0.0000  0.0000
                                      0.0000  1.0000  0.0000
                                      0.0000  0.0000  1.0000
:ANG002:  ANGLE WITH OLD X-AXIS =         0.0

:ETA002:                         ASYMM. ETA =     0.00000


     HELLMANN-FEYNMAN-FORCE IN mRy/a.u. = |F|  Fx       Fy             Fz
:FHF001:   1.ATOM      0.000000000000      0.000000000000      0.000000000000      0.000000000000

     HELLMANN-FEYNMAN-FORCE IN mRy/a.u. = |F|  Fx       Fy             Fz
:FHF002:   2.ATOM   1378.997748007809      0.000000000000      0.000000000000   1378.997748007809

:FIT001: LUSE= 13 SIGMA OF V-XC FIT FOR ATOM  1  0.2619243E-02
:FIT001: LUSE= 13 SIGMA OF V-XC FIT FOR ATOM  1  0.2619243E-02
:FIT002: LUSE= 13 SIGMA OF V-XC FIT FOR ATOM  2  0.5310124E-03
:FIT002: LUSE= 13 SIGMA OF V-XC FIT FOR ATOM  2  0.5310124E-03
:DEN  : DENSITY INTEGRAL  =         -6218.46051964   (Ry)
       ELS_POTENTIAL_AT Z=0 and Z=0.5:  -0.75348   0.68977
       ELS_POTENTIAL_AT Y=0 and Y=0.5:   0.00000   0.00000
:VZERO:v0,v0c,v0x  -1.59616  -0.75348  -0.84268 v5,v5c,v5x   0.25269   0.68977  -0.43708
:VZERY:v0,v0c,v0x  -0.69992   0.00000  -0.69992 v5,v5c,v5x  -0.69992   0.00000  -0.69992
:VZERX:v0,v0c,v0x   0.11686   0.78490  -0.66804 v5,v5c,v5x   0.11686   0.78490  -0.66804

------- case.scf1 --------
:LMAX-WF:   10   Non-Spherical LMAX:   4

          ATOMIC SPHERE DEPENDENT PARAMETERS FOR ATOM  Fe        
:e__0001: OVERALL ENERGY PARAMETER IS    0.1826
          OVERALL BASIS SET ON ATOM IS LAPW
:E1_0001: E( 1)=    0.1826
             APW+lo
:E1_0001: E( 1)=   -3.4778   E(BOTTOM)=   -3.571   E(TOP)=   -3.385  1  2   151
             LOCAL ORBITAL
:E2_0001: E( 2)=    0.3026   E(BOTTOM)=   -0.061   E(TOP)=    0.667  0  1   138
             APW+lo
:E0_0001: E( 0)=    0.1826
             APW+lo

          ATOMIC SPHERE DEPENDENT PARAMETERS FOR ATOM  Se        
:e__0002: OVERALL ENERGY PARAMETER IS    0.1826
          OVERALL BASIS SET ON ATOM IS LAPW
:E2_0002: E( 2)=    0.1826
             APW+lo
:E2_0002: E( 2)=   -3.1793   E(BOTTOM)=   -3.224   E(TOP)=   -3.135  0  1   140
             LOCAL ORBITAL
:E0_0002: E( 0)=    0.5826
             APW+lo
:E0_0002: E( 0)=   -1.0200   E(BOTTOM)=   -1.660   E(TOP)= -200.000  3 -1   179
             LOCAL ORBITAL
:E1_0002: E( 1)=    0.1826
             APW+lo

       K=   0.04545   0.04545   0.07143            1
:RKM  : MATRIX SIZE   582LOs:  54  RKM= 7.97  WEIGHT= 8.00  PGR:    
       EIGENVALUES ARE:
:EIG00001:      -3.4699635   -3.4697284   -3.4605520   -3.4603168   -3.4448705
:EIG00006:      -3.4429214   -3.1699745   -3.1695084   -3.1690856   -3.1690558
:EIG00011:      -3.1681380   -3.1681248   -3.1679786   -3.1679731   -3.1671720
:EIG00016:      -3.1671228   -0.7080852   -0.6163783   -0.0323022    0.0598248
:EIG00021:       0.0749347    0.0794366    0.1161376    0.1207989    0.1863406
:EIG00026:       0.3445096    0.3701825    0.3805773    0.3931050    0.3970345
:EIG00031:       0.4440322    0.5021068    0.5694110    0.5794136    0.6302976
:EIG00036:       0.7463285    0.8187820    0.9208180    0.9457879    0.9525399
:EIG00041:       1.2012542    1.2867197    1.3264286    1.3287277    1.3599610
:EIG00046:       1.3664429    1.4170840    1.4416761    1.4656639    1.4902305
 
:EIG00051:       1.6397114    1.6534663    1.7236056    1.7560772    1.8501758
       ********************************************************

:KPT   :      NUMBER OF K-POINTS:    84

------- case.scf2 --------
:GMA  : POTENTIAL AND CHARGE CUT-OFF  12.00 Ry**.5




:POS001: at.nr.  -1 position = 0.25000 0.75000 0.00000  multiplicity =  2

       lmmax  8
       lm=   0 0  2 0 -3 2  4 0  4 4 -5 2  6 0  6 4




:POS002: at.nr.  -2 position = 0.25000 0.75000 0.00000  multiplicity =  2

       lmmax 10
       lm=   0 0  1 0  2 0  3 0  4 0  4 4  5 0  5 4  6 0  6 4
:FER gutzwiller fermi energy   0.38314
:EORB          0.247973099
:SUM sum of gutz band energies       -102.673366788

:CHA001: total charge inside sphere   1 =    12.730434
:PCS001: partial charges sphere =  1 s,p,d,f,pz,pxy,,d-z2,d-xy,d-x2y2,d-xz,yz 
:QTL001: 0.2800 6.2765 6.1455 0.0229 2.0700 4.2064 0.0000 1.3663 1.2795 1.1451 2.3546 0.0000
:VZZ001: efg inside sphere   1 =     1.604306      up to r =   2.16000

:CHA002: total charge inside sphere   2 =    13.509219
:PCS002: partial charges sphere =  2 s,p,d,f,pz,pxy,,d-z2,d-xy,d-x2y2,d-xz,yz 
:QTL002: 1.3553 2.078710.0554 0.0162 0.7088 1.3699 0.0000 2.0099 2.0118 2.0120 4.0217 0.0000
:VZZ002: efg inside sphere   2 =    -5.411964      up to r =   2.05000

:CHA  : total charge inside unit cell =      60.000000

------- case.scfc --------

        1.ATOM      Fe                    5 CORE STATES
:1S 001: 1S                -512.203509115 Ry
:2S 001: 2S                 -59.138010867 Ry
:2PP001: 2P*                -50.939868755 Ry
:2P 001: 2P                 -50.024682263 Ry
:3S 001: 3S                  -5.918207402 Ry

        2.ATOM      Se                    7 CORE STATES
       CORE-FORCE in mRy/a.u. = |F|      Fx             Fy             Fz
:FCO002:   2.ATOM   1112.300699950463      0.000000000000      0.000000000000  -1112.300699950463

:1S 002: 1S                -916.475114937 Ry
:2S 002: 2S                -117.136085870 Ry
:2PP002: 2P*               -105.111086799 Ry
:2P 002: 2P                -102.047869531 Ry
:3S 002: 3S                 -14.869825965 Ry
:3PP002: 3P*                -10.757040088 Ry
:3P 002: 3P                 -10.324661951 Ry

------- case.scfm --------
:CINT001 Core Integral Atom   1   11.997085
:CINT002 Core Integral Atom   2   17.999406

       DENSITY AT NUCLEUS
        JATOM        VALENCE       SEMI-CORE          CORE           TOTAL
:RTO001:   1        6.155666        0.000000    14797.834483    14803.990149
:RTO002:   2       55.644557        0.000000    38924.631247    38980.275805
     
       CHARGES OF NEW CHARGE DENSITY
:NTO   : INTERSTITIAL CHARGE =     7.520431
:NPC   : PW Pseudocharge     =    14.183635
:NTO001: CHARGE SPHERE  1    =    24.727519
:NTO002: CHARGE SPHERE  2    =    31.508625

:NEC01: NUCLEAR AND ELECTRONIC CHARGE    120.00000   119.99272
     
       CHARGES OF OLD CHARGE DENSITY
:OTO   : INTERSTITIAL CHARGE =     7.554133
:OPC   : PW Pseudocharge     =    14.255243
:OTO001: CHARGE SPHERE  1    =    24.732635
:OTO002: CHARGE SPHERE  2    =    31.490299

:NEC02: NUCLEAR AND ELECTRONIC CHARGE    120.00000   120.00000
     
       CONVERGENCE TEST
:DTO001: DIFFERENCE IN SPHERE  1 =  0.0279619
:DTO002: DIFFERENCE IN SPHERE  2 =  0.0132534

:DIS  :  CHARGE DISTANCE       ( 0.0279619 for atom    1 spin 1)      0.0206076
 PW Mixed is          365
 
******************************************************
* MULTISECANT MIXING VER9 RELEASE 10.4.0              *
* Standard Mode with controls                        *
* Fixed density scale                                *
* Regularization       1.000E-04                     *
* Trust Upper Limit    5.000E+00                     *
* Max Number of Memory Steps    8                    *
******************************************************
 
:PWTMP   3.7368E+02  3.2249E+02  5.3028E+02
:PLANE:  PW TOTAL      3.7963 DISTAN   5.06E-02  1.33E+00 %
:CHARG:  CLM/ATOM    303.3396 DISTAN   4.49E-02  1.48E-02 %
 
Step History
        DMIX         DMIXT        Red     Pred      Trust     Lambda    MagRel    MagAbs     Beta
  1   3.5000E-02   3.5000E-02 -1.00E+00  1.00E+00 -1.00E+01  1.00E+00  3.50E-02  3.50E-02  1.00E+00
  2   2.5000E-02   2.5000E-02  9.30E-01  1.00E+00 -1.00E+01  1.00E+00  2.50E-02  4.62E-03  1.00E+00
  3   2.0000E-02   2.0000E-02  8.60E-01  8.86E-01  4.29E-01  2.66E-01  4.12E-01  7.09E-02  1.00E+00
  4   5.0000E-02   5.0000E-02 -1.00E+00  8.14E-01  4.99E-01  1.00E+00  1.93E-01  2.85E-02  8.77E-01
:JACOBIANS    8.083E-01   2.649E-01
  
:NORMS:  1/Froebius, Min, Max, Used   0.6280E+00  0.5086E+00  0.1002E+01  0.6504E+00
:INFO :  Number of Memory Steps    3 Skipping    0
:INFO :  SLambda=    1.7060567252  Max    1.7060567252
:PREDicted Charge, CTotal, PW Trust    1.087E-02   2.148E-02   6.596E-02
:PREDicted DMix, Beta, BLim   5.5813E-01  2.8208E+00  8.0366E-01

Eigenvalues, unscaled except for SY+YY
   #     SY Real        SY Imag          SS             YY         SY+YY Real      SY+YY Imag
   1   1.239236E+00   0.000000E+00   8.485668E-01   2.469864E+00   4.537408E+00   0.000000E+00
   2   1.393245E-06   0.000000E+00   3.344778E-01   5.300990E-01   4.164959E-05   0.000000E+00
   3   4.612445E-01   0.000000E+00   5.753530E-08   3.743744E-05   1.363669E+00   0.000000E+00
 
:INFO :  Singular value  4.540E+00 Weight  1.000E+00 Projection  3.113E-02
:INFO :  Singular value  1.363E+00 Weight  1.000E+00 Projection -1.054E-01
:INFO :  Singular value  4.165E-05 Weight  2.765E-02 Projection -1.471E-01
:RANK :  ACTIVE   2.03/3  =  67.59 % ; YY RANK   2.02/3  =  67.42 %
 
:BLIM :  VZERO Control Off
:TRUST:  Step 6.65E-01  Charge 7.50E-02 (e) CTO  2.50E-01 (e) PW  3.50E-01 (e)
:DIRM :  MEMORY  3/8  SCALE   1.000 RED  0.70 PRED  0.81 NEXT  0.46 
:TRAVE:  Charge 5.48E-03 (e) CTO  9.74E-03 (e) PW  3.60E-02 (e)
:DIRP :  |MSR1|= 5.322E-02 |PRATT|= 5.062E-02 ANGLE=  16.2 DEGREES
:DIRQ :  |MSR1|= 4.129E-02 |PRATT|= 8.976E-02 ANGLE=   3.1 DEGREES
:DIRT :  |MSR1|= 6.736E-02 |PRATT|= 1.031E-01 ANGLE=  25.1 DEGREES
:MIX  :   MSE1   REGULARIZATION:  2.47E-04 GREED: 0.12500  Newton 1.00  0.6537                
     
       CHARGES OF MIXED CHARGE DENSITY
:CTO   : INTERSTITIAL CHARGE =     7.541152
:CPC   : PW Pseudocharge     =    14.195912
:CTO001: CHARGE SPHERE  1    =    24.731436
:CTO002: CHARGE SPHERE  2    =    31.497988

:NEC03: NUCLEAR AND ELECTRONIC CHARGE    120.00000   120.00000

PW CHANGE     H    K    L      Current       Change    Residue
:PTO001:      0    0    0  4.09916537E-02 -1.364E-04 -1.590E-04
:PTO002:      0    0   -1  2.60768230E-02  2.360E-05 -1.162E-04
:PTO004:     -1    0   -1 -9.16927769E-02  1.150E-03  9.208E-04
:PTO005:      0    0   -2 -1.02354977E-02  3.626E-04  3.082E-04
:PTO006:     -1   -1    0 -2.11445649E-02  7.030E-04  5.806E-04
:PTO007:     -1   -1   -1  1.25232500E-02  3.556E-04  2.453E-04
:PTO008:     -1    0   -2 -1.16817583E-02  1.392E-04  1.376E-05
:PTO009:     -1   -1   -2  2.82837203E-02 -5.497E-04 -4.090E-04
:PTO010:     -2    0    0 -1.32175401E-02  2.977E-04  2.461E-04
:PTO011:      0    0   -3 -1.48205583E-03  1.171E-04  1.533E-04
:PTO012:     -2    0   -1 -1.40788514E-03 -1.394E-04 -3.474E-04
:PTO014:     -1    0   -3  9.50287190E-03 -5.164E-04 -4.801E-04

:ENE  : ********** TOTAL ENERGY IN Ry =       -14790.25862248

       TOTAL FORCE IN mRy/a.u. = |F|     Fx             Fy             Fz     with/without FOR in case.in2
:FOR001:   1.ATOM          0.000          0.000          0.000          0.000 partial forces
:FOR002:   2.ATOM        266.697          0.000          0.000        266.697 partial forces
       TOTAL FORCE WITH RESPECT TO GLOBAL CARTESIAN COORDINATES:
:FCA001:   1.ATOM                         0.000          0.000          0.000 partial forces
:FCA002:   2.ATOM                         0.000          0.000        266.697 partial forces
       TOTAL FORCE WITH RESPECT TO THE GLOBAL COORDINATE SYSTEM:
:FGL001:   1.ATOM                 0.000000000     0.000000000     0.000000000 partial forces
:FGL002:   2.ATOM                 0.000000000     0.000000000   266.697048057 partial forces

------- case.scf0 --------
 Flat Integration
 New Mode for Coulomb Integral
 Consistent 3/8+Simpson combinations
 Extension of core to zero
 LDM version in phi
 Fifth-order quadrature in outwin


            ---------
:ITE015: 15. ITERATION
            ---------

:NATO :    2 INDEPENDENT AND    4 TOTAL ATOMS IN UNITCELL
       SUBSTANCE: FeSe                                                        

       LATTICE                      = P   
:POT  : POTENTIAL OPTION EX_LDA EC_LDA VX_LDA VC_LDA
:LAT  : LATTICE CONSTANTS=  7.12881  7.12881 10.43450    1.571    1.571    1.571
:VOL  : UNIT CELL VOLUME =     530.28024
       MODE OF CALCULATION IS       = RELA
       NON-SPINPOLARIZED CALCULATION
:IFFT  : FFT-parameters:   60   60   80 Factor: 2.00


   CONVERGENCE PARAMETER FOR PSEUDOCHARGE: NCON=  9
   MAXIMAL VALUE OF RMT(JATOM)*ABSK(NKK) : RK  =25.91023


:VKCOUL :  VK-COUL convergence: 0.301E-06
       ATOMNUMBER=  1 Fe         VCOUL-ZERO =  0.21005E+00
:EFG001:                        EFG         =     0.67650   *10**21  V / m**2
                               V20  TOT/SRF=     0.58587    -0.08905
                               V22  TOT/SRF=     0.00000     0.00000
                               V22M TOT/SRF=     0.00000     0.00000
                               V21  TOT/SRF=     0.00000     0.00000
                               V21M TOT/SRF=     0.00000     0.00000

             -0.33825    0.00000    0.00000       -0.33825    0.00000    0.00000
              0.00000   -0.33825    0.00000        0.00000   -0.33825    0.00000
              0.00000    0.00000    0.67650        0.00000    0.00000    0.67650

         MAIN DIRECTIONS OF THE EFG   1.0000  0.0000  0.0000
                                      0.0000  1.0000  0.0000
                                      0.0000  0.0000  1.0000
:ANG001:  ANGLE WITH OLD X-AXIS =         0.0

:ETA001:                         ASYMM. ETA =     0.00000


       ATOMNUMBER=  2 Se         VCOUL-ZERO =  0.32326E-01
:EFG002:                        EFG         =    -5.89155   *10**21  V / m**2
                               V20  TOT/SRF=    -5.10224    -0.02579
                               V22  TOT/SRF=     0.00000     0.00000
                               V22M TOT/SRF=     0.00000     0.00000
                               V21  TOT/SRF=     0.00000     0.00000
                               V21M TOT/SRF=     0.00000     0.00000

              2.94578    0.00000    0.00000        2.94578    0.00000    0.00000
              0.00000    2.94578    0.00000        0.00000    2.94578    0.00000
              0.00000    0.00000   -5.89155        0.00000    0.00000   -5.89155

         MAIN DIRECTIONS OF THE EFG   1.0000  0.0000  0.0000
                                      0.0000  1.0000  0.0000
                                      0.0000  0.0000  1.0000
:ANG002:  ANGLE WITH OLD X-AXIS =         0.0

:ETA002:                         ASYMM. ETA =     0.00000


     HELLMANN-FEYNMAN-FORCE IN mRy/a.u. = |F|  Fx       Fy             Fz
:FHF001:   1.ATOM      0.000000000000      0.000000000000      0.000000000000      0.000000000000

     HELLMANN-FEYNMAN-FORCE IN mRy/a.u. = |F|  Fx       Fy             Fz
:FHF002:   2.ATOM   1401.467893999284      0.000000000000      0.000000000000   1401.467893999284

:FIT001: LUSE= 13 SIGMA OF V-XC FIT FOR ATOM  1  0.2632265E-02
:FIT001: LUSE= 13 SIGMA OF V-XC FIT FOR ATOM  1  0.2632265E-02
:FIT002: LUSE= 13 SIGMA OF V-XC FIT FOR ATOM  2  0.5147619E-03
:FIT002: LUSE= 13 SIGMA OF V-XC FIT FOR ATOM  2  0.5147619E-03
:DEN  : DENSITY INTEGRAL  =         -6218.99454214   (Ry)
       ELS_POTENTIAL_AT Z=0 and Z=0.5:  -0.76233   0.69429
       ELS_POTENTIAL_AT Y=0 and Y=0.5:   0.00000   0.00000
:VZERO:v0,v0c,v0x  -1.60601  -0.76233  -0.84368 v5,v5c,v5x   0.25616   0.69429  -0.43813
:VZERY:v0,v0c,v0x  -0.69983   0.00000  -0.69983 v5,v5c,v5x  -0.69983   0.00000  -0.69983
:VZERX:v0,v0c,v0x   0.11591   0.78440  -0.66849 v5,v5c,v5x   0.11591   0.78440  -0.66849

------- case.scf1 --------
:LMAX-WF:   10   Non-Spherical LMAX:   4

          ATOMIC SPHERE DEPENDENT PARAMETERS FOR ATOM  Fe        
:e__0001: OVERALL ENERGY PARAMETER IS    0.1826
          OVERALL BASIS SET ON ATOM IS LAPW
:E1_0001: E( 1)=    0.1826
             APW+lo
:E1_0001: E( 1)=   -3.4748   E(BOTTOM)=   -3.568   E(TOP)=   -3.382  1  2   147
             LOCAL ORBITAL
:E2_0001: E( 2)=    0.3043   E(BOTTOM)=   -0.061   E(TOP)=    0.670  0  1   134
             APW+lo
:E0_0001: E( 0)=    0.1826
             APW+lo

          ATOMIC SPHERE DEPENDENT PARAMETERS FOR ATOM  Se        
:e__0002: OVERALL ENERGY PARAMETER IS    0.1826
          OVERALL BASIS SET ON ATOM IS LAPW
:E2_0002: E( 2)=    0.1826
             APW+lo
:E2_0002: E( 2)=   -3.1747   E(BOTTOM)=   -3.219   E(TOP)=   -3.130  0  1   139
             LOCAL ORBITAL
:E0_0002: E( 0)=    0.5826
             APW+lo
:E0_0002: E( 0)=   -1.0200   E(BOTTOM)=   -1.658   E(TOP)= -200.000  3 -1   183
             LOCAL ORBITAL
:E1_0002: E( 1)=    0.1826
             APW+lo

       K=   0.04545   0.04545   0.07143            1
:RKM  : MATRIX SIZE   582LOs:  54  RKM= 7.97  WEIGHT= 8.00  PGR:    
       EIGENVALUES ARE:
:EIG00001:      -3.4659473   -3.4657108   -3.4564789   -3.4562421   -3.4438314
:EIG00006:      -3.4418700   -3.1653691   -3.1649061   -3.1644681   -3.1644383
:EIG00011:      -3.1635745   -3.1635613   -3.1634136   -3.1634081   -3.1626258
:EIG00016:      -3.1625770   -0.7074545   -0.6150558   -0.0314638    0.0607274
:EIG00021:       0.0753083    0.0798059    0.1164701    0.1211838    0.1878069
:EIG00026:       0.3451358    0.3713990    0.3836494    0.3940154    0.3980612
:EIG00031:       0.4474497    0.5038874    0.5710849    0.5813971    0.6308932
:EIG00036:       0.7478478    0.8189008    0.9206470    0.9463269    0.9530401
:EIG00041:       1.2019243    1.2865987    1.3254730    1.3297372    1.3606234
:EIG00046:       1.3673828    1.4175907    1.4419653    1.4667599    1.4907614
 
:EIG00051:       1.6409942    1.6551118    1.7231386    1.7563146    1.8508047
       ********************************************************

:KPT   :      NUMBER OF K-POINTS:    84

------- case.scf2 --------
:GMA  : POTENTIAL AND CHARGE CUT-OFF  12.00 Ry**.5




:POS001: at.nr.  -1 position = 0.25000 0.75000 0.00000  multiplicity =  2

       lmmax  8
       lm=   0 0  2 0 -3 2  4 0  4 4 -5 2  6 0  6 4




:POS002: at.nr.  -2 position = 0.25000 0.75000 0.00000  multiplicity =  2

       lmmax 10
       lm=   0 0  1 0  2 0  3 0  4 0  4 4  5 0  5 4  6 0  6 4
:FER gutzwiller fermi energy   0.38402
:EORB          0.260137439
:SUM sum of gutz band energies       -102.529162903

:CHA001: total charge inside sphere   1 =    12.729654
:PCS001: partial charges sphere =  1 s,p,d,f,pz,pxy,,d-z2,d-xy,d-x2y2,d-xz,yz 
:QTL001: 0.2812 6.2779 6.1420 0.0229 2.0702 4.2077 0.0000 1.3683 1.2749 1.1365 2.3623 0.0000
:VZZ001: efg inside sphere   1 =     0.945783      up to r =   2.16000

:CHA002: total charge inside sphere   2 =    13.503401
:PCS002: partial charges sphere =  2 s,p,d,f,pz,pxy,,d-z2,d-xy,d-x2y2,d-xz,yz 
:QTL002: 1.3546 2.072610.0561 0.0163 0.7066 1.3661 0.0000 2.0100 2.0119 2.0121 4.0221 0.0000
:VZZ002: efg inside sphere   2 =    -5.364649      up to r =   2.05000

:CHA  : total charge inside unit cell =      60.000000

------- case.scfc --------

        1.ATOM      Fe                    5 CORE STATES
:1S 001: 1S                -512.194613399 Ry
:2S 001: 2S                 -59.128871545 Ry
:2PP001: 2P*                -50.930662185 Ry
:2P 001: 2P                 -50.015483618 Ry
:3S 001: 3S                  -5.914720467 Ry

        2.ATOM      Se                    7 CORE STATES
       CORE-FORCE in mRy/a.u. = |F|      Fx             Fy             Fz
:FCO002:   2.ATOM   1106.862144894734      0.000000000000      0.000000000000  -1106.862144894734

:1S 002: 1S                -916.469344444 Ry
:2S 002: 2S                -117.130909469 Ry
:2PP002: 2P*               -105.105829284 Ry
:2P 002: 2P                -102.042623193 Ry
:3S 002: 3S                 -14.865095693 Ry
:3PP002: 3P*                -10.752326156 Ry
:3P 002: 3P                 -10.319962792 Ry

------- case.scfm --------
:CINT001 Core Integral Atom   1   11.997072
:CINT002 Core Integral Atom   2   17.999406

       DENSITY AT NUCLEUS
        JATOM        VALENCE       SEMI-CORE          CORE           TOTAL
:RTO001:   1        6.188127        0.000000    14797.720477    14803.908604
:RTO002:   2       55.592707        0.000000    38924.603686    38980.196394
     
       CHARGES OF NEW CHARGE DENSITY
:NTO   : INTERSTITIAL CHARGE =     7.534162
:NPC   : PW Pseudocharge     =    14.189746
:NTO001: CHARGE SPHERE  1    =    24.726726
:NTO002: CHARGE SPHERE  2    =    31.502807

:NEC01: NUCLEAR AND ELECTRONIC CHARGE    120.00000   119.99323
     
       CHARGES OF OLD CHARGE DENSITY
:OTO   : INTERSTITIAL CHARGE =     7.541152
:OPC   : PW Pseudocharge     =    14.195912
:OTO001: CHARGE SPHERE  1    =    24.731436
:OTO002: CHARGE SPHERE  2    =    31.497988

:NEC02: NUCLEAR AND ELECTRONIC CHARGE    120.00000   120.00000
     
       CONVERGENCE TEST
:DTO001: DIFFERENCE IN SPHERE  1 =  0.0146541
:DTO002: DIFFERENCE IN SPHERE  2 =  0.0051294

:DIS  :  CHARGE DISTANCE       ( 0.0146541 for atom    1 spin 1)      0.0098918
 PW Mixed is          365
 
******************************************************
* MULTISECANT MIXING VER9 RELEASE 10.4.0              *
* Standard Mode with controls                        *
* Fixed density scale                                *
* Regularization       1.000E-04                     *
* Trust Upper Limit    5.000E+00                     *
* Max Number of Memory Steps    8                    *
******************************************************
 
:PWTMP   3.7368E+02  3.2249E+02  5.3028E+02
:PLANE:  PW TOTAL      3.7655 DISTAN   1.02E-02  2.70E-01 %
:CHARG:  CLM/ATOM    303.3404 DISTAN   1.61E-02  5.31E-03 %
 
Step History
        DMIX         DMIXT        Red     Pred      Trust     Lambda    MagRel    MagAbs     Beta
  1   3.5000E-02   3.5000E-02 -1.00E+00  1.00E+00 -1.00E+01  1.00E+00  3.50E-02  3.50E-02  1.00E+00
  2   2.5000E-02   2.5000E-02  9.30E-01  1.00E+00 -1.00E+01  1.00E+00  2.50E-02  4.62E-03  1.00E+00
  3   2.0000E-02   2.0000E-02  8.60E-01  8.86E-01  4.29E-01  2.66E-01  4.12E-01  7.09E-02  1.00E+00
  4   5.0000E-02   5.0000E-02  6.97E-01  8.14E-01  4.99E-01  1.71E+00  1.93E-01  2.85E-02  8.77E-01
  5   1.2500E-01   1.2500E-01 -1.00E+00  4.57E-01  6.65E-01  1.00E+00  6.54E-01  6.74E-02  1.00E+00
:JACOBIANS    9.266E-01   5.491E-01
  
:NORMS:  1/Froebius, Min, Max, Used   0.6095E+00  0.5188E+00  0.1001E+01  0.6419E+00
:INFO :  Number of Memory Steps    4 Skipping    0
:INFO :  SLambda=    0.5394415026  Max    0.5394415026
:PREDicted Charge, CTotal, PW Trust    1.145E-02   1.487E-02   4.624E-02
:PREDicted DMix, Beta, BLim   3.2899E-01  1.1694E+00  1.6084E+00

Eigenvalues, unscaled except for SY+YY
   #     SY Real        SY Imag          SS             YY         SY+YY Real      SY+YY Imag
   1   1.853346E+00   0.000000E+00   1.213460E+00   3.629883E+00   4.621314E+00   0.000000E+00
   2   3.373061E-01   0.000000E+00   2.722249E-01   3.688296E-01   5.590971E-01   0.000000E+00
   3   3.359162E-07   0.000000E+00   1.871336E-04   1.282152E-03   5.750096E-06   0.000000E+00
   4   4.931920E-04   0.000000E+00   2.100287E-08   5.332356E-06   1.578450E-03   0.000000E+00
 
:INFO :  Singular value  4.622E+00 Weight  1.000E+00 Projection  3.226E-03
:INFO :  Singular value  5.591E-01 Weight  1.000E+00 Projection -3.879E-03
:INFO :  Singular value  1.579E-03 Weight  9.498E-01 Projection -8.254E-01
:INFO :  Singular value  5.750E-06 Weight  2.508E-04 Projection  1.060E-03
:RANK :  ACTIVE   2.95/4  =  73.75 % ; YY RANK   2.93/4  =  73.15 %
 
:BLIM :  VZERO Control Off
:TRUST:  Step 1.09E+00  Charge 6.00E-02 (e) CTO  2.00E-01 (e) PW  2.80E-01 (e)
:DIRM :  MEMORY  4/8  SCALE   1.000 RED  0.33 PRED  0.46 NEXT  0.42 
:TRAVE:  Charge 4.09E-03 (e) CTO  6.04E-03 (e) PW  1.94E-02 (e)
:DIRP :  |MSR1|= 6.629E-03 |PRATT|= 1.018E-02 ANGLE=  34.5 DEGREES
:DIRQ :  |MSR1|= 1.650E-02 |PRATT|= 3.224E-02 ANGLE=  19.5 DEGREES
:DIRT :  |MSR1|= 1.778E-02 |PRATT|= 3.381E-02 ANGLE=  22.1 DEGREES
:MIX  :   MSD1   REGULARIZATION:  3.63E-04 GREED: 0.20512  Newton 1.00  0.5260                
     
       CHARGES OF MIXED CHARGE DENSITY
:CTO   : INTERSTITIAL CHARGE =     7.538817
:CPC   : PW Pseudocharge     =    14.193775
:CTO001: CHARGE SPHERE  1    =    24.729912
:CTO002: CHARGE SPHERE  2    =    31.500680

:NEC03: NUCLEAR AND ELECTRONIC CHARGE    120.00000   120.00000

PW CHANGE     H    K    L      Current       Change    Residue
:PTO001:      0    0    0  4.09832208E-02 -8.433E-06  1.201E-05
:PTO002:      0    0   -1  2.60804051E-02  3.582E-06  1.606E-05
:PTO004:     -1    0   -1 -9.16136798E-02  7.910E-05 -6.059E-06
:PTO005:      0    0   -2 -1.02030086E-02  3.249E-05  1.528E-05
:PTO006:     -1   -1    0 -2.10987026E-02  4.586E-05 -6.087E-06
:PTO007:     -1   -1   -1  1.24967001E-02 -2.655E-05 -1.070E-04
:PTO008:     -1    0   -2 -1.17562042E-02 -7.445E-05 -1.756E-04
:PTO009:     -1   -1   -2  2.82677497E-02 -1.597E-05  4.092E-05
:PTO010:     -2    0    0 -1.31997249E-02  1.782E-05 -5.007E-06
:PTO011:      0    0   -3 -1.46962318E-03  1.243E-05  6.201E-06
:PTO012:     -2    0   -1 -1.51078012E-03 -1.029E-04 -1.875E-04
:PTO014:     -1    0   -3  9.47002064E-03 -3.285E-05  4.902E-06

:ENE  : ********** TOTAL ENERGY IN Ry =       -14790.25761500

       TOTAL FORCE IN mRy/a.u. = |F|     Fx             Fy             Fz     with/without FOR in case.in2
:FOR001:   1.ATOM          0.000          0.000          0.000          0.000 partial forces
:FOR002:   2.ATOM        294.606          0.000          0.000        294.606 partial forces
       TOTAL FORCE WITH RESPECT TO GLOBAL CARTESIAN COORDINATES:
:FCA001:   1.ATOM                         0.000          0.000          0.000 partial forces
:FCA002:   2.ATOM                         0.000          0.000        294.606 partial forces
       TOTAL FORCE WITH RESPECT TO THE GLOBAL COORDINATE SYSTEM:
:FGL001:   1.ATOM                 0.000000000     0.000000000     0.000000000 partial forces
:FGL002:   2.ATOM                 0.000000000     0.000000000   294.605749105 partial forces

------- case.scf0 --------
 Flat Integration
 New Mode for Coulomb Integral
 Consistent 3/8+Simpson combinations
 Extension of core to zero
 LDM version in phi
 Fifth-order quadrature in outwin


            ---------
:ITE016: 16. ITERATION
            ---------

:NATO :    2 INDEPENDENT AND    4 TOTAL ATOMS IN UNITCELL
       SUBSTANCE: FeSe                                                        

       LATTICE                      = P   
:POT  : POTENTIAL OPTION EX_LDA EC_LDA VX_LDA VC_LDA
:LAT  : LATTICE CONSTANTS=  7.12881  7.12881 10.43450    1.571    1.571    1.571
:VOL  : UNIT CELL VOLUME =     530.28024
       MODE OF CALCULATION IS       = RELA
       NON-SPINPOLARIZED CALCULATION
:IFFT  : FFT-parameters:   60   60   80 Factor: 2.00


   CONVERGENCE PARAMETER FOR PSEUDOCHARGE: NCON=  9
   MAXIMAL VALUE OF RMT(JATOM)*ABSK(NKK) : RK  =25.91023


:VKCOUL :  VK-COUL convergence: 0.301E-06
       ATOMNUMBER=  1 Fe         VCOUL-ZERO =  0.20885E+00
:EFG001:                        EFG         =     0.80859   *10**21  V / m**2
                               V20  TOT/SRF=     0.70026    -0.08833
                               V22  TOT/SRF=     0.00000     0.00000
                               V22M TOT/SRF=     0.00000     0.00000
                               V21  TOT/SRF=     0.00000     0.00000
                               V21M TOT/SRF=     0.00000     0.00000

             -0.40430    0.00000    0.00000       -0.40430    0.00000    0.00000
              0.00000   -0.40430    0.00000        0.00000   -0.40430    0.00000
              0.00000    0.00000    0.80859        0.00000    0.00000    0.80859

         MAIN DIRECTIONS OF THE EFG   1.0000  0.0000  0.0000
                                      0.0000  1.0000  0.0000
                                      0.0000  0.0000  1.0000
:ANG001:  ANGLE WITH OLD X-AXIS =         0.0

:ETA001:                         ASYMM. ETA =     0.00000


       ATOMNUMBER=  2 Se         VCOUL-ZERO =  0.32690E-01
:EFG002:                        EFG         =    -5.61544   *10**21  V / m**2
                               V20  TOT/SRF=    -4.86311    -0.02590
                               V22  TOT/SRF=     0.00000     0.00000
                               V22M TOT/SRF=     0.00000     0.00000
                               V21  TOT/SRF=     0.00000     0.00000
                               V21M TOT/SRF=     0.00000     0.00000

              2.80772    0.00000    0.00000        2.80772    0.00000    0.00000
              0.00000    2.80772    0.00000        0.00000    2.80772    0.00000
              0.00000    0.00000   -5.61544        0.00000    0.00000   -5.61544

         MAIN DIRECTIONS OF THE EFG   1.0000  0.0000  0.0000
                                      0.0000  1.0000  0.0000
                                      0.0000  0.0000  1.0000
:ANG002:  ANGLE WITH OLD X-AXIS =         0.0

:ETA002:                         ASYMM. ETA =     0.00000


     HELLMANN-FEYNMAN-FORCE IN mRy/a.u. = |F|  Fx       Fy             Fz
:FHF001:   1.ATOM      0.000000000000      0.000000000000      0.000000000000      0.000000000000

     HELLMANN-FEYNMAN-FORCE IN mRy/a.u. = |F|  Fx       Fy             Fz
:FHF002:   2.ATOM   1335.062636162436      0.000000000000      0.000000000000   1335.062636162436

:FIT001: LUSE= 13 SIGMA OF V-XC FIT FOR ATOM  1  0.2632683E-02
:FIT001: LUSE= 13 SIGMA OF V-XC FIT FOR ATOM  1  0.2632683E-02
:FIT002: LUSE= 13 SIGMA OF V-XC FIT FOR ATOM  2  0.5057789E-03
:FIT002: LUSE= 13 SIGMA OF V-XC FIT FOR ATOM  2  0.5057789E-03
:DEN  : DENSITY INTEGRAL  =         -6218.88566093   (Ry)
       ELS_POTENTIAL_AT Z=0 and Z=0.5:  -0.76334   0.69513
       ELS_POTENTIAL_AT Y=0 and Y=0.5:   0.00000   0.00000
:VZERO:v0,v0c,v0x  -1.60725  -0.76334  -0.84391 v5,v5c,v5x   0.25663   0.69513  -0.43849
:VZERY:v0,v0c,v0x  -0.69990   0.00000  -0.69990 v5,v5c,v5x  -0.69990   0.00000  -0.69990
:VZERX:v0,v0c,v0x   0.11579   0.78440  -0.66860 v5,v5c,v5x   0.11579   0.78440  -0.66860

------- case.scf1 --------
:LMAX-WF:   10   Non-Spherical LMAX:   4

          ATOMIC SPHERE DEPENDENT PARAMETERS FOR ATOM  Fe        
:e__0001: OVERALL ENERGY PARAMETER IS    0.1826
          OVERALL BASIS SET ON ATOM IS LAPW
:E1_0001: E( 1)=    0.1826
             APW+lo
:E1_0001: E( 1)=   -3.4767   E(BOTTOM)=   -3.570   E(TOP)=   -3.384  1  2   144
             LOCAL ORBITAL
:E2_0001: E( 2)=    0.3026   E(BOTTOM)=   -0.063   E(TOP)=    0.668  0  1   138
             APW+lo
:E0_0001: E( 0)=    0.1826
             APW+lo

          ATOMIC SPHERE DEPENDENT PARAMETERS FOR ATOM  Se        
:e__0002: OVERALL ENERGY PARAMETER IS    0.1826
          OVERALL BASIS SET ON ATOM IS LAPW
:E2_0002: E( 2)=    0.1826
             APW+lo
:E2_0002: E( 2)=   -3.1740   E(BOTTOM)=   -3.218   E(TOP)=   -3.130  0  1   139
             LOCAL ORBITAL
:E0_0002: E( 0)=    0.5826
             APW+lo
:E0_0002: E( 0)=   -1.0200   E(BOTTOM)=   -1.657   E(TOP)= -200.000  3 -1   181
             LOCAL ORBITAL
:E1_0002: E( 1)=    0.1826
             APW+lo

       K=   0.04545   0.04545   0.07143            1
:RKM  : MATRIX SIZE   582LOs:  54  RKM= 7.97  WEIGHT= 8.00  PGR:    
       EIGENVALUES ARE:
:EIG00001:      -3.4674850   -3.4672487   -3.4580246   -3.4577880   -3.4464509
:EIG00006:      -3.4444892   -3.1646368   -3.1641794   -3.1637265   -3.1636965
:EIG00011:      -3.1628990   -3.1628859   -3.1627398   -3.1627342   -3.1619676
:EIG00016:      -3.1619196   -0.7071465   -0.6146213   -0.0316061    0.0603951
:EIG00021:       0.0746835    0.0791657    0.1163397    0.1210492    0.1867128
:EIG00026:       0.3433950    0.3698768    0.3824195    0.3924087    0.3963607
:EIG00031:       0.4461556    0.5036207    0.5703290    0.5804946    0.6307898
:EIG00036:       0.7473457    0.8182173    0.9203192    0.9462331    0.9529649
:EIG00041:       1.2020314    1.2863572    1.3251885    1.3295959    1.3605520
:EIG00046:       1.3672952    1.4174506    1.4418122    1.4667448    1.4907436
 
:EIG00051:       1.6409916    1.6551601    1.7228851    1.7561156    1.8509441
       ********************************************************

:KPT   :      NUMBER OF K-POINTS:    84

------- case.scf2 --------
:GMA  : POTENTIAL AND CHARGE CUT-OFF  12.00 Ry**.5




:POS001: at.nr.  -1 position = 0.25000 0.75000 0.00000  multiplicity =  2

       lmmax  8
       lm=   0 0  2 0 -3 2  4 0  4 4 -5 2  6 0  6 4




:POS002: at.nr.  -2 position = 0.25000 0.75000 0.00000  multiplicity =  2

       lmmax 10
       lm=   0 0  1 0  2 0  3 0  4 0  4 4  5 0  5 4  6 0  6 4
:FER gutzwiller fermi energy   0.38416
:EORB          0.233758009
:SUM sum of gutz band energies       -102.530845788

:CHA001: total charge inside sphere   1 =    12.730981
:PCS001: partial charges sphere =  1 s,p,d,f,pz,pxy,,d-z2,d-xy,d-x2y2,d-xz,yz 
:QTL001: 0.2816 6.2784 6.1424 0.0229 2.0704 4.2080 0.0000 1.3693 1.2731 1.1346 2.3653 0.0000
:VZZ001: efg inside sphere   1 =     0.719464      up to r =   2.16000

:CHA002: total charge inside sphere   2 =    13.501690
:PCS002: partial charges sphere =  2 s,p,d,f,pz,pxy,,d-z2,d-xy,d-x2y2,d-xz,yz 
:QTL002: 1.3544 2.071310.0561 0.0163 0.7061 1.3652 0.0000 2.0099 2.0119 2.0121 4.0221 0.0000
:VZZ002: efg inside sphere   2 =    -5.373969      up to r =   2.05000

:CHA  : total charge inside unit cell =      60.000000

------- case.scfc --------

        1.ATOM      Fe                    5 CORE STATES
:1S 001: 1S                -512.200020378 Ry
:2S 001: 2S                 -59.132704544 Ry
:2PP001: 2P*                -50.934723854 Ry
:2P 001: 2P                 -50.019525355 Ry
:3S 001: 3S                  -5.916673712 Ry

        2.ATOM      Se                    7 CORE STATES
       CORE-FORCE in mRy/a.u. = |F|      Fx             Fy             Fz
:FCO002:   2.ATOM   1058.662131454568      0.000000000000      0.000000000000  -1058.662131454568

:1S 002: 1S                -916.469345346 Ry
:2S 002: 2S                -117.130864605 Ry
:2PP002: 2P*               -105.105807910 Ry
:2P 002: 2P                -102.042598544 Ry
:3S 002: 3S                 -14.864389596 Ry
:3PP002: 3P*                -10.751620377 Ry
:3P 002: 3P                 -10.319243642 Ry

------- case.scfm --------
:CINT001 Core Integral Atom   1   11.997074
:CINT002 Core Integral Atom   2   17.999406

       DENSITY AT NUCLEUS
        JATOM        VALENCE       SEMI-CORE          CORE           TOTAL
:RTO001:   1        6.198817        0.000000    14797.767395    14803.966212
:RTO002:   2       55.572507        0.000000    38924.621638    38980.194145
     
       CHARGES OF NEW CHARGE DENSITY
:NTO   : INTERSTITIAL CHARGE =     7.534640
:NPC   : PW Pseudocharge     =    14.185879
:NTO001: CHARGE SPHERE  1    =    24.728055
:NTO002: CHARGE SPHERE  2    =    31.501096

:NEC01: NUCLEAR AND ELECTRONIC CHARGE    120.00000   119.99294
     
       CHARGES OF OLD CHARGE DENSITY
:OTO   : INTERSTITIAL CHARGE =     7.538817
:OPC   : PW Pseudocharge     =    14.193775
:OTO001: CHARGE SPHERE  1    =    24.729912
:OTO002: CHARGE SPHERE  2    =    31.500680

:NEC02: NUCLEAR AND ELECTRONIC CHARGE    120.00000   120.00000
     
       CONVERGENCE TEST
:DTO001: DIFFERENCE IN SPHERE  1 =  0.0061904
:DTO002: DIFFERENCE IN SPHERE  2 =  0.0011735

:DIS  :  CHARGE DISTANCE       ( 0.0061904 for atom    1 spin 1)      0.0036819
 PW Mixed is          365
 
******************************************************
* MULTISECANT MIXING VER9 RELEASE 10.4.0              *
* Standard Mode with controls                        *
* Fixed density scale                                *
* Regularization       1.000E-04                     *
* Trust Upper Limit    5.000E+00                     *
* Max Number of Memory Steps    8                    *
******************************************************
 
:PWTMP   3.7368E+02  3.2249E+02  5.3028E+02
:PLANE:  PW TOTAL      3.7635 DISTAN   4.51E-03  1.20E-01 %
:CHARG:  CLM/ATOM    303.3392 DISTAN   5.62E-03  1.85E-03 %
 
Step History
        DMIX         DMIXT        Red     Pred      Trust     Lambda    MagRel    MagAbs     Beta
  1   3.5000E-02   3.5000E-02 -1.00E+00  1.00E+00 -1.00E+01  1.00E+00  3.50E-02  3.50E-02  1.00E+00
  2   2.5000E-02   2.5000E-02  9.30E-01  1.00E+00 -1.00E+01  1.00E+00  2.50E-02  4.62E-03  1.00E+00
  3   2.0000E-02   2.0000E-02  8.60E-01  8.86E-01  4.29E-01  2.66E-01  4.12E-01  7.09E-02  1.00E+00
  4   5.0000E-02   5.0000E-02  6.97E-01  8.14E-01  4.99E-01  1.71E+00  1.93E-01  2.85E-02  8.77E-01
  5   1.2500E-01   1.2500E-01  3.28E-01  4.57E-01  6.65E-01  5.39E-01  6.54E-01  6.74E-02  1.00E+00
  6   2.0512E-01   2.0512E-01 -1.00E+00  4.24E-01  1.09E+00  1.00E+00  5.26E-01  1.78E-02  1.00E+00
:JACOBIANS    1.005E+00   7.759E-01
  
:NORMS:  1/Froebius, Min, Max, Used   0.6526E+00  0.4819E+00  0.1003E+01  0.6620E+00
:INFO :  Number of Memory Steps    5 Skipping    0
:INFO :  SLambda=    1.0000000000  Max    1.0000000000
:PREDicted Charge, CTotal, PW Trust    3.058E-03   1.964E-03   1.085E-05
:PREDicted DMix, Beta, BLim   1.7911E-01  1.1359E+00  6.8718E-01

Eigenvalues, unscaled except for SY+YY
   #     SY Real        SY Imag          SS             YY         SY+YY Real      SY+YY Imag
   1   2.421817E+00   0.000000E+00   1.743857E+00   3.978809E+00   6.374885E+00   0.000000E+00
   2   3.207683E-01   0.000000E+00   2.577912E-01   7.315638E-01   1.072313E+00   0.000000E+00
   3   2.751631E-01   0.000000E+00   1.280099E-01   2.894943E-01   5.704145E-01   0.000000E+00
   4   1.050970E-07   0.000000E+00   7.279983E-06   1.315965E-04   1.867083E-06   0.000000E+00
   5   2.864521E-05   0.000000E+00   6.839105E-09   1.704564E-06   1.630222E-04   0.000000E+00
 
:INFO :  Singular value  6.376E+00 Weight  1.000E+00 Projection -5.210E-04
:INFO :  Singular value  1.072E+00 Weight  1.000E+00 Projection -1.145E-02
:INFO :  Singular value  5.704E-01 Weight  1.000E+00 Projection -7.472E-03
:INFO :  Singular value  1.631E-04 Weight  1.438E-01 Projection -2.751E-02
[...]
  9   2.6524E-01   2.6524E-01 -1.00E+00  2.50E-01  2.36E+00  1.00E+00  2.50E-01  9.80E-04  9.13E-01
:JACOBIANS    1.216E+00   1.769E+00
  
:NORMS:  1/Froebius, Min, Max, Used   0.6638E+00  0.4679E+00  0.1002E+01  0.7117E+00
:INFO :  Number of Memory Steps    8 Skipping    0
:INFO :  SLambda=    1.5861426354  Max    1.5861426354
:PREDicted Charge, CTotal, PW Trust    1.192E-04   3.814E-05   4.836E-04
:PREDicted DMix, Beta, BLim   1.9521E-01  1.1389E+00  2.7362E+00

Eigenvalues, unscaled except for SY+YY
   #     SY Real        SY Imag          SS             YY         SY+YY Real      SY+YY Imag
   1   2.504038E+00   0.000000E+00   2.041756E+00   4.031491E+00   7.707017E+00   0.000000E+00
   2   1.428574E+00   0.000000E+00   9.648445E-01   2.505350E+00   4.939505E+00   0.000000E+00
   3   5.414841E-01   0.000000E+00   3.280688E-01   9.889285E-01   1.949114E+00   0.000000E+00
   4   3.063530E-01   0.000000E+00   1.829271E-01   3.362734E-01   8.410472E-01   0.000000E+00
   5   3.239779E-02   0.000000E+00   7.152924E-03   1.375696E-01   1.967884E-01   0.000000E+00
   6   1.410263E-04   0.000000E+00   5.845138E-05   3.821457E-04   6.078329E-04   0.000000E+00
   7   3.856954E-08   0.000000E+00   2.533878E-07   4.631094E-06   7.918762E-07   0.000000E+00
   8   9.567723E-07   0.000000E+00   1.878712E-09   7.310796E-07   6.134353E-06   0.000000E+00
 
:INFO :  Singular value  7.710E+00 Weight  1.000E+00 Projection  8.093E-05
:INFO :  Singular value  4.948E+00 Weight  1.000E+00 Projection  1.083E-04
:INFO :  Singular value  1.949E+00 Weight  1.000E+00 Projection -2.682E-04
:INFO :  Singular value  8.416E-01 Weight  1.000E+00 Projection -1.450E-05
:INFO :  Singular value  1.962E-01 Weight  1.000E+00 Projection -1.130E-04
:INFO :  Singular value  6.079E-04 Weight  6.945E-01 Projection -8.272E-03
:INFO :  Singular value  6.135E-06 Weight  2.315E-04 Projection -8.145E-06
:INFO :  Singular value  7.917E-07 Weight  3.857E-06 Projection -5.807E-07
:RANK :  ACTIVE   5.69/8  =  71.18 % ; YY RANK   5.47/8  =  68.42 %
 
:BLIM :  VZERO Control Off
:TRUST:  Step 3.15E+00  Charge 2.46E-02 (e) CTO  8.19E-02 (e) PW  1.15E-01 (e)
:DIRM :  MEMORY  8/8  SCALE   1.000 RED  0.14 PRED  0.25 NEXT  0.66 
:TRAVE:  Charge 4.76E-04 (e) CTO  6.41E-04 (e) PW  1.77E-03 (e)
:DIRP :  |MSR1|= 1.284E-04 |PRATT|= 2.390E-04 ANGLE=  38.3 DEGREES
:DIRQ :  |MSR1|= 2.157E-04 |PRATT|= 5.012E-04 ANGLE=  11.5 DEGREES
:DIRT :  |MSR1|= 2.511E-04 |PRATT|= 5.553E-04 ANGLE=  21.1 DEGREES
:MIX  :   MSE1   REGULARIZATION:  4.03E-04 GREED: 0.22669  Newton 1.00  0.4522                
     
       CHARGES OF MIXED CHARGE DENSITY
:CTO   : INTERSTITIAL CHARGE =     7.540824
:CPC   : PW Pseudocharge     =    14.197706
:CTO001: CHARGE SPHERE  1    =    24.728330
:CTO002: CHARGE SPHERE  2    =    31.501258

:NEC03: NUCLEAR AND ELECTRONIC CHARGE    120.00000   120.00000

PW CHANGE     H    K    L      Current       Change    Residue
:PTO001:      0    0    0  4.09944187E-02 -4.883E-07 -1.273E-06
:PTO002:      0    0   -1  2.60828445E-02  3.345E-07  7.442E-07
:PTO004:     -1    0   -1 -9.16545471E-02  3.376E-06  4.946E-06
:PTO005:      0    0   -2 -1.02165593E-02  7.970E-07  7.394E-07
:PTO006:     -1   -1    0 -2.11357270E-02  8.017E-07 -7.874E-07
:PTO007:     -1   -1   -1  1.24393297E-02 -2.917E-07 -2.960E-06
:PTO008:     -1    0   -2 -1.18163231E-02  4.645E-07  2.286E-07
:PTO009:     -1   -1   -2  2.83111828E-02 -5.580E-07  8.616E-07
:PTO010:     -2    0    0 -1.32102132E-02  1.273E-06  2.289E-06
:PTO011:      0    0   -3 -1.47202939E-03  4.110E-07  6.583E-07
:PTO012:     -2    0   -1 -1.57425549E-03  1.740E-07  9.194E-07
:PTO014:     -1    0   -3  9.50645237E-03 -1.684E-07  1.727E-06

:ENE  : ********** TOTAL ENERGY IN Ry =       -14790.25882332

       TOTAL FORCE IN mRy/a.u. = |F|     Fx             Fy             Fz     with/without FOR in case.in2
:FOR001:   1.ATOM          0.000          0.000          0.000          0.000 partial forces
:FOR002:   2.ATOM        264.844          0.000          0.000        264.844 partial forces
       TOTAL FORCE WITH RESPECT TO GLOBAL CARTESIAN COORDINATES:
:FCA001:   1.ATOM                         0.000          0.000          0.000 partial forces
:FCA002:   2.ATOM                         0.000          0.000        264.844 partial forces
       TOTAL FORCE WITH RESPECT TO THE GLOBAL COORDINATE SYSTEM:
:FGL001:   1.ATOM                 0.000000000     0.000000000     0.000000000 partial forces
:FGL002:   2.ATOM                 0.000000000     0.000000000   264.843719976 partial forces

------- case.scf0 --------
 Flat Integration
 New Mode for Coulomb Integral
 Consistent 3/8+Simpson combinations
 Extension of core to zero
 LDM version in phi
 Fifth-order quadrature in outwin


            ---------
:ITE020: 20. ITERATION
            ---------

:NATO :    2 INDEPENDENT AND    4 TOTAL ATOMS IN UNITCELL
       SUBSTANCE: FeSe                                                        

       LATTICE                      = P   
:POT  : POTENTIAL OPTION EX_LDA EC_LDA VX_LDA VC_LDA
:LAT  : LATTICE CONSTANTS=  7.12881  7.12881 10.43450    1.571    1.571    1.571
:VOL  : UNIT CELL VOLUME =     530.28024
       MODE OF CALCULATION IS       = RELA
       NON-SPINPOLARIZED CALCULATION
:IFFT  : FFT-parameters:   60   60   80 Factor: 2.00


   CONVERGENCE PARAMETER FOR PSEUDOCHARGE: NCON=  9
   MAXIMAL VALUE OF RMT(JATOM)*ABSK(NKK) : RK  =25.91023


:VKCOUL :  VK-COUL convergence: 0.301E-06
       ATOMNUMBER=  1 Fe         VCOUL-ZERO =  0.20835E+00
:EFG001:                        EFG         =     0.63463   *10**21  V / m**2
                               V20  TOT/SRF=     0.54961    -0.08814
                               V22  TOT/SRF=     0.00000     0.00000
                               V22M TOT/SRF=     0.00000     0.00000
                               V21  TOT/SRF=     0.00000     0.00000
                               V21M TOT/SRF=     0.00000     0.00000

             -0.31731    0.00000    0.00000       -0.31731    0.00000    0.00000
              0.00000   -0.31731    0.00000        0.00000   -0.31731    0.00000
              0.00000    0.00000    0.63463        0.00000    0.00000    0.63463

         MAIN DIRECTIONS OF THE EFG   1.0000  0.0000  0.0000
                                      0.0000  1.0000  0.0000
                                      0.0000  0.0000  1.0000
:ANG001:  ANGLE WITH OLD X-AXIS =         0.0

:ETA001:                         ASYMM. ETA =     0.00000


       ATOMNUMBER=  2 Se         VCOUL-ZERO =  0.32716E-01
:EFG002:                        EFG         =    -5.41242   *10**21  V / m**2
                               V20  TOT/SRF=    -4.68730    -0.02560
                               V22  TOT/SRF=     0.00000     0.00000
                               V22M TOT/SRF=     0.00000     0.00000
                               V21  TOT/SRF=     0.00000     0.00000
                               V21M TOT/SRF=     0.00000     0.00000

              2.70621    0.00000    0.00000        2.70621    0.00000    0.00000
              0.00000    2.70621    0.00000        0.00000    2.70621    0.00000
              0.00000    0.00000   -5.41242        0.00000    0.00000   -5.41242

         MAIN DIRECTIONS OF THE EFG   1.0000  0.0000  0.0000
                                      0.0000  1.0000  0.0000
                                      0.0000  0.0000  1.0000
:ANG002:  ANGLE WITH OLD X-AXIS =         0.0

:ETA002:                         ASYMM. ETA =     0.00000


     HELLMANN-FEYNMAN-FORCE IN mRy/a.u. = |F|  Fx       Fy             Fz
:FHF001:   1.ATOM      0.000000000000      0.000000000000      0.000000000000      0.000000000000

     HELLMANN-FEYNMAN-FORCE IN mRy/a.u. = |F|  Fx       Fy             Fz
:FHF002:   2.ATOM   1295.864204887825      0.000000000000      0.000000000000   1295.864204887825

:FIT001: LUSE= 13 SIGMA OF V-XC FIT FOR ATOM  1  0.2629922E-02
:FIT001: LUSE= 13 SIGMA OF V-XC FIT FOR ATOM  1  0.2629922E-02
:FIT002: LUSE= 13 SIGMA OF V-XC FIT FOR ATOM  2  0.4996704E-03
:FIT002: LUSE= 13 SIGMA OF V-XC FIT FOR ATOM  2  0.4996704E-03
:DEN  : DENSITY INTEGRAL  =         -6218.75415202   (Ry)
       ELS_POTENTIAL_AT Z=0 and Z=0.5:  -0.76371   0.69548
       ELS_POTENTIAL_AT Y=0 and Y=0.5:   0.00000   0.00000
:VZERO:v0,v0c,v0x  -1.60773  -0.76371  -0.84401 v5,v5c,v5x   0.25677   0.69548  -0.43871
:VZERY:v0,v0c,v0x  -0.70002   0.00000  -0.70002 v5,v5c,v5x  -0.70002   0.00000  -0.70002
:VZERX:v0,v0c,v0x   0.11581   0.78454  -0.66873 v5,v5c,v5x   0.11581   0.78454  -0.66873

------- case.scf1 --------
:LMAX-WF:   10   Non-Spherical LMAX:   4

          ATOMIC SPHERE DEPENDENT PARAMETERS FOR ATOM  Fe        
:e__0001: OVERALL ENERGY PARAMETER IS    0.1826
          OVERALL BASIS SET ON ATOM IS LAPW
:E1_0001: E( 1)=    0.1826
             APW+lo
:E1_0001: E( 1)=   -3.4785   E(BOTTOM)=   -3.571   E(TOP)=   -3.386  1  2   150
             LOCAL ORBITAL
:E2_0001: E( 2)=    0.3011   E(BOTTOM)=   -0.064   E(TOP)=    0.666  0  1   139
             APW+lo
:E0_0001: E( 0)=    0.1826
             APW+lo

          ATOMIC SPHERE DEPENDENT PARAMETERS FOR ATOM  Se        
:e__0002: OVERALL ENERGY PARAMETER IS    0.1826
          OVERALL BASIS SET ON ATOM IS LAPW
:E2_0002: E( 2)=    0.1826
             APW+lo
:E2_0002: E( 2)=   -3.1742   E(BOTTOM)=   -3.219   E(TOP)=   -3.130  0  1   137
             LOCAL ORBITAL
:E0_0002: E( 0)=    0.5826
             APW+lo
:E0_0002: E( 0)=   -1.0200   E(BOTTOM)=   -1.657   E(TOP)= -200.000  3 -1   183
             LOCAL ORBITAL
:E1_0002: E( 1)=    0.1826
             APW+lo

       K=   0.04545   0.04545   0.07143            1
:RKM  : MATRIX SIZE   582LOs:  54  RKM= 7.97  WEIGHT= 8.00  PGR:    
       EIGENVALUES ARE:
:EIG00001:      -3.4693378   -3.4691018   -3.4598890   -3.4596526   -3.4482059
:EIG00006:      -3.4462450   -3.1648157   -3.1643612   -3.1638970   -3.1638668
:EIG00011:      -3.1631320   -3.1631191   -3.1629742   -3.1629686   -3.1622161
:EIG00016:      -3.1621684   -0.7072001   -0.6146687   -0.0318948    0.0598322
:EIG00021:       0.0740622    0.0785373    0.1160452    0.1207435    0.1854015
:EIG00026:       0.3421283    0.3686982    0.3808134    0.3911184    0.3949689
:EIG00031:       0.4444852    0.5031327    0.5695540    0.5795735    0.6306087
:EIG00036:       0.7466557    0.8177316    0.9201286    0.9460282    0.9527635
:EIG00041:       1.2019606    1.2861364    1.3249953    1.3293809    1.3604043
:EIG00046:       1.3671416    1.4172355    1.4416540    1.4666280    1.4906445
 
:EIG00051:       1.6408346    1.6550127    1.7227678    1.7559815    1.8509472
       ********************************************************

:KPT   :      NUMBER OF K-POINTS:    84

------- case.scf2 --------
:GMA  : POTENTIAL AND CHARGE CUT-OFF  12.00 Ry**.5




:POS001: at.nr.  -1 position = 0.25000 0.75000 0.00000  multiplicity =  2

       lmmax  8
       lm=   0 0  2 0 -3 2  4 0  4 4 -5 2  6 0  6 4




:POS002: at.nr.  -2 position = 0.25000 0.75000 0.00000  multiplicity =  2

       lmmax 10
       lm=   0 0  1 0  2 0  3 0  4 0  4 4  5 0  5 4  6 0  6 4
:FER gutzwiller fermi energy   0.38432
:EORB          0.208926341
:SUM sum of gutz band energies       -102.553300950

:CHA001: total charge inside sphere   1 =    12.730911
:PCS001: partial charges sphere =  1 s,p,d,f,pz,pxy,,d-z2,d-xy,d-x2y2,d-xz,yz 
:QTL001: 0.2819 6.2787 6.1417 0.0229 2.0705 4.2083 0.0000 1.3690 1.2731 1.1349 2.3648 0.0000
:VZZ001: efg inside sphere   1 =     0.752420      up to r =   2.16000

:CHA002: total charge inside sphere   2 =    13.502073
:PCS002: partial charges sphere =  2 s,p,d,f,pz,pxy,,d-z2,d-xy,d-x2y2,d-xz,yz 
:QTL002: 1.3543 2.071910.0560 0.0163 0.7063 1.3655 0.0000 2.0099 2.0119 2.0121 4.0220 0.0000
:VZZ002: efg inside sphere   2 =    -5.381689      up to r =   2.05000

:CHA  : total charge inside unit cell =      60.000000

------- case.scfc --------

        1.ATOM      Fe                    5 CORE STATES
:1S 001: 1S                -512.203685662 Ry
:2S 001: 2S                 -59.135887952 Ry
:2PP001: 2P*                -50.937992087 Ry
:2P 001: 2P                 -50.022786086 Ry
:3S 001: 3S                  -5.918572857 Ry

        2.ATOM      Se                    7 CORE STATES
       CORE-FORCE in mRy/a.u. = |F|      Fx             Fy             Fz
:FCO002:   2.ATOM   1031.213407676255      0.000000000000      0.000000000000  -1031.213407676255

:1S 002: 1S                -916.469673305 Ry
:2S 002: 2S                -117.131222995 Ry
:2PP002: 2P*               -105.106162767 Ry
:2P 002: 2P                -102.042953781 Ry
:3S 002: 3S                 -14.864620994 Ry
:3PP002: 3P*                -10.751847286 Ry
:3P 002: 3P                 -10.319465458 Ry

------- case.scfm --------
:CINT001 Core Integral Atom   1   11.997077
:CINT002 Core Integral Atom   2   17.999406

       DENSITY AT NUCLEUS
        JATOM        VALENCE       SEMI-CORE          CORE           TOTAL
:RTO001:   1        6.204274        0.000000    14797.796024    14804.000298
:RTO002:   2       55.570466        0.000000    38924.626405    38980.196871
     
       CHARGES OF NEW CHARGE DENSITY
:NTO   : INTERSTITIAL CHARGE =     7.534348
:NPC   : PW Pseudocharge     =    14.184843
:NTO001: CHARGE SPHERE  1    =    24.727988
:NTO002: CHARGE SPHERE  2    =    31.501478

:NEC01: NUCLEAR AND ELECTRONIC CHARGE    120.00000   119.99328
     
       CHARGES OF OLD CHARGE DENSITY
:OTO   : INTERSTITIAL CHARGE =     7.540824
:OPC   : PW Pseudocharge     =    14.197706
:OTO001: CHARGE SPHERE  1    =    24.728330
:OTO002: CHARGE SPHERE  2    =    31.501258

:NEC02: NUCLEAR AND ELECTRONIC CHARGE    120.00000   120.00000
     
       CONVERGENCE TEST
:DTO001: DIFFERENCE IN SPHERE  1 =  0.0004406
:DTO002: DIFFERENCE IN SPHERE  2 =  0.0001500

:DIS  :  CHARGE DISTANCE       ( 0.0004406 for atom    1 spin 1)      0.0002953
 PW Mixed is          365
 
******************************************************
* MULTISECANT MIXING VER9 RELEASE 10.4.0              *
* Standard Mode with controls                        *
* Fixed density scale                                *
* Regularization       1.000E-04                     *
* Trust Upper Limit    5.000E+00                     *
* Max Number of Memory Steps    8                    *
******************************************************
 
:PWTMP   3.7368E+02  3.2249E+02  5.3028E+02
:PLANE:  PW TOTAL      3.7650 DISTAN   1.97E-04  5.23E-03 %
:CHARG:  CLM/ATOM    303.3389 DISTAN   3.47E-04  1.15E-04 %
 
Step History
        DMIX         DMIXT        Red     Pred      Trust     Lambda    MagRel    MagAbs     Beta
  2   2.5000E-02   2.5000E-02  9.30E-01  1.00E+00 -1.00E+01  1.00E+00  2.50E-02  4.62E-03  1.00E+00
  3   2.0000E-02   2.0000E-02  8.60E-01  8.86E-01  4.29E-01  2.66E-01  4.12E-01  7.09E-02  1.00E+00
  4   5.0000E-02   5.0000E-02  6.97E-01  8.14E-01  4.99E-01  1.71E+00  1.93E-01  2.85E-02  8.77E-01
  5   1.2500E-01   1.2500E-01  3.28E-01  4.57E-01  6.65E-01  5.39E-01  6.54E-01  6.74E-02  1.00E+00
  6   2.0512E-01   2.0512E-01  3.58E-01  4.24E-01  1.09E+00  1.00E+00  5.26E-01  1.78E-02  1.00E+00
  7   1.6115E-01   1.6115E-01  3.95E-01  4.91E-01  1.45E+00  7.36E-01  4.82E-01  5.84E-03  1.00E+00
  8   3.5000E-01   3.5000E-01  8.19E-01  6.23E-01  1.93E+00  1.10E+00  8.17E-01  3.91E-03  1.00E+00
  9   2.6524E-01   2.6524E-01  1.42E-01  2.50E-01  2.36E+00  1.59E+00  2.50E-01  9.80E-04  9.13E-01
 10   2.2669E-01   2.2669E-01 -1.00E+00  6.56E-01  3.15E+00  1.00E+00  4.52E-01  2.51E-04  1.00E+00
:JACOBIANS    1.299E+00   2.082E+00
  
:NORMS:  1/Froebius, Min, Max, Used   0.6487E+00  0.5283E+00  0.1003E+01  0.7231E+00
:INFO :  Number of Memory Steps    8 Skipping    1
:INFO :  SLambda=    1.6331878243  Max    1.6331878243
:PREDicted Charge, CTotal, PW Trust    2.004E-04   1.408E-04   1.179E-04
:PREDicted DMix, Beta, BLim   4.8222E-01  1.5764E+00  3.9738E+00

Eigenvalues, unscaled except for SY+YY
   #     SY Real        SY Imag          SS             YY         SY+YY Real      SY+YY Imag
   1   2.225672E+00   0.000000E+00   1.937544E+00   3.705672E+00   6.707555E+00   0.000000E+00
   2   1.405483E+00   0.000000E+00   9.601444E-01   2.635583E+00   5.321509E+00   0.000000E+00
   3   6.855372E-01   0.000000E+00   3.518633E-01   1.258368E+00   2.577024E+00   0.000000E+00
   4   1.506137E-01   0.000000E+00   9.879304E-02   2.198351E-01   4.452538E-01   0.000000E+00
   5   2.455041E-02   0.000000E+00   1.318671E-02   1.730479E-01   2.833810E-01   0.000000E+00
   6   7.637223E-03   0.000000E+00   4.462420E-03   7.105011E-03   1.334708E-02   0.000000E+00
   7   8.319174E-07   0.000000E+00   2.312058E-05   3.854791E-04   5.033060E-06   0.000000E+00
   8   1.333014E-04   0.000000E+00   1.754527E-07   3.673600E-06   6.614953E-04   0.000000E+00
 
:INFO :  Singular value  6.713E+00 Weight  1.000E+00 Projection -8.270E-05
:INFO :  Singular value  5.343E+00 Weight  1.000E+00 Projection  2.418E-04
:INFO :  Singular value  2.574E+00 Weight  1.000E+00 Projection -8.784E-05
:INFO :  Singular value  4.465E-01 Weight  1.000E+00 Projection  1.039E-04
:INFO :  Singular value  2.843E-01 Weight  1.000E+00 Projection -5.017E-04
:INFO :  Singular value  1.326E-02 Weight  9.992E-01 Projection -4.480E-03
:INFO :  Singular value  6.592E-04 Weight  7.599E-01 Projection -9.776E-03
:INFO :  Singular value  5.033E-06 Weight  1.844E-04 Projection -9.518E-06
:RANK :  ACTIVE   6.76/8  =  84.49 % ; YY RANK   6.52/8  =  81.46 %
 
:BLIM :  VZERO Control Off
:TRUST:  Step 3.26E+00  Charge 1.79E-02 (e) CTO  5.96E-02 (e) PW  8.34E-02 (e)
:DIRM :  MEMORY  8/8  SCALE   1.000 RED  1.30 PRED  0.66 NEXT  0.36 
:TRAVE:  Charge 3.31E-04 (e) CTO  3.84E-04 (e) PW  9.30E-04 (e)
:DIRP :  |MSR1|= 1.424E-04 |PRATT|= 1.968E-04 ANGLE=  23.0 DEGREES
:DIRQ :  |MSR1|= 3.452E-04 |PRATT|= 6.949E-04 ANGLE=  39.7 DEGREES
:DIRT :  |MSR1|= 3.734E-04 |PRATT|= 7.223E-04 ANGLE=  38.7 DEGREES
:MIX  :   MSE1   REGULARIZATION:  3.71E-04 GREED: 0.35000  Newton 1.00  0.5170                
     
       CHARGES OF MIXED CHARGE DENSITY
:CTO   : INTERSTITIAL CHARGE =     7.540950
:CPC   : PW Pseudocharge     =    14.197434
:CTO001: CHARGE SPHERE  1    =    24.728145
:CTO002: CHARGE SPHERE  2    =    31.501380

:NEC03: NUCLEAR AND ELECTRONIC CHARGE    120.00000   120.00000

PW CHANGE     H    K    L      Current       Change    Residue
:PTO001:      0    0    0  4.09941442E-02 -2.745E-07  6.193E-08
:PTO002:      0    0   -1  2.60823301E-02 -5.144E-07 -8.056E-07
:PTO004:     -1    0   -1 -9.16534867E-02  1.060E-06 -6.033E-07
:PTO005:      0    0   -2 -1.02169398E-02 -3.806E-07 -1.086E-06
:PTO006:     -1   -1    0 -2.11374064E-02 -1.679E-06 -3.051E-06
:PTO007:     -1   -1   -1  1.24371171E-02 -2.213E-06 -3.269E-06
:PTO008:     -1    0   -2 -1.18155258E-02  7.973E-07  8.031E-07
:PTO009:     -1   -1   -2  2.83115255E-02  3.427E-07  8.753E-07
:PTO010:     -2    0    0 -1.32089411E-02  1.272E-06  1.120E-06
:PTO011:      0    0   -3 -1.47169700E-03  3.324E-07  2.516E-07
:PTO012:     -2    0   -1 -1.57335898E-03  8.965E-07  1.075E-06
:PTO014:     -1    0   -3  9.50741616E-03  9.638E-07  1.580E-06

:ENE  : ********** TOTAL ENERGY IN Ry =       -14790.25883285

       TOTAL FORCE IN mRy/a.u. = |F|     Fx             Fy             Fz     with/without FOR in case.in2
:FOR001:   1.ATOM          0.000          0.000          0.000          0.000 partial forces
:FOR002:   2.ATOM        264.651          0.000          0.000        264.651 partial forces
       TOTAL FORCE WITH RESPECT TO GLOBAL CARTESIAN COORDINATES:
:FCA001:   1.ATOM                         0.000          0.000          0.000 partial forces
:FCA002:   2.ATOM                         0.000          0.000        264.651 partial forces
       TOTAL FORCE WITH RESPECT TO THE GLOBAL COORDINATE SYSTEM:
:FGL001:   1.ATOM                 0.000000000     0.000000000     0.000000000 partial forces
:FGL002:   2.ATOM                 0.000000000     0.000000000   264.650797212 partial forces
