
:LABEL1: Calculations in /home/ykent/GWIEN/example/Pr/V1/case
:LABEL2: on didymium-2.cmpgroup.ameslab.gov at Wed Jul  8 15:59:45 CDT 2020
:LABEL3: using WIEN2k_19.1 (Release 25/6/2019) in /home/ykent/opt/src/WIEN2k_19.1
:LABEL4: using the command: run_lapw -cc 0.0001

:LABEL1: Calculations in /home/ykent/GWIEN/example/Pr/V1/case
:LABEL2: on didymium-2.cmpgroup.ameslab.gov at Wed Jul  8 16:07:54 CDT 2020
:LABEL3: using WIEN2k_19.1 (Release 25/6/2019) in /home/ykent/opt/src/WIEN2k_19.1
:LABEL4: using the command: run_lapw -cc 0.0001
 Flat Integration
 New Mode for Coulomb Integral
 Consistent 3/8+Simpson combinations
 Extension of core to zero
 LDM version in phi
 Fifth-order quadrature in outwin


            ---------
:ITE001:  1. ITERATION
            ---------

:NATO :    1 INDEPENDENT AND    1 TOTAL ATOMS IN UNITCELL
       SUBSTANCE: blebleble                                                   

       LATTICE                      = F   
:POT  : POTENTIAL OPTION EX_LDA EC_LDA VX_LDA VC_LDA
:LAT  : LATTICE CONSTANTS=  7.62940  7.62940  7.62940    1.571    1.571    1.571
:VOL  : UNIT CELL VOLUME =     111.02254
       MODE OF CALCULATION IS       = RELA
       NON-SPINPOLARIZED CALCULATION
:IFFT  : FFT-parameters:   60   60   60 Factor: 2.00


   CONVERGENCE PARAMETER FOR PSEUDOCHARGE: NCON=  9
   MAXIMAL VALUE OF RMT(JATOM)*ABSK(NKK) : RK  =29.97764


:VKCOUL :  VK-COUL convergence: 0.350E-05
       ATOMNUMBER=  1 Pr         VCOUL-ZERO =  0.95199E+00
:FIT001: LUSE= 13 SIGMA OF V-XC FIT FOR ATOM  1  0.7048785E-04
:FIT001: LUSE= 13 SIGMA OF V-XC FIT FOR ATOM  1  0.7048785E-04
:DEN  : DENSITY INTEGRAL  =         -7131.13429743   (Ry)
       ELS_POTENTIAL_AT Z=0 and Z=0.5:  -2.93937  -2.93937
       ELS_POTENTIAL_AT Y=0 and Y=0.5:   0.00000   0.00000
:VZERO:v0,v0c,v0x  -4.08762  -2.93937  -1.14825 v5,v5c,v5x  -4.08762  -2.93937  -1.14825
:VZERY:v0,v0c,v0x  -0.95440   0.00000  -0.95440 v5,v5c,v5x  -0.95440   0.00000  -0.95440
:VZERX:v0,v0c,v0x  -0.95440   0.00000  -0.95440 v5,v5c,v5x  -0.95440   0.00000  -0.95440
:LMAX-WF:   10   Non-Spherical LMAX:   4

          ATOMIC SPHERE DEPENDENT PARAMETERS FOR ATOM  Pr        
:e__0001: OVERALL ENERGY PARAMETER IS    0.5000
          OVERALL BASIS SET ON ATOM IS LAPW
:E0_0001: E( 0)=    0.5000
             APW+lo
:E0_0001: E( 0)=   -1.1875   E(BOTTOM)=   -1.602   E(TOP)=   -0.773  4  5   260
             LOCAL ORBITAL
:E1_0001: E( 1)=    0.9000
             APW+lo
:E1_0001: E( 1)=    0.1729   E(BOTTOM)=   -0.520   E(TOP)=    0.866  3  4   255
             LOCAL ORBITAL
:E3_0001: E( 3)=    1.3770   E(BOTTOM)=    1.377   E(TOP)= -200.000  0 -1   136
             APW+lo
:E2_0001: E( 2)=    1.0125   E(BOTTOM)=    1.012   E(TOP)= -200.000  2 -1   100
             APW+lo

       K=   0.00000   0.00000   0.00000            1
:RKM  : MATRIX SIZE    85LOs:  20  RKM= 8.24  WEIGHT= 1.00  PGR:    
       EIGENVALUES ARE:
:EIG00001:      -1.3080570    0.3894145    0.3894145    0.3894145    1.3726283
:EIG00006:       1.3929564    1.5160351    1.5160351    1.5160351    1.5388163
:EIG00011:       1.5388163    1.5388163    1.6529675    1.6529675    1.6529675
:EIG00016:       1.9735730    1.9735730
       ********************************************************

:KPT   :      NUMBER OF K-POINTS:   165
:GAP (global)   :    0.0    Ry =     0.0   eV (metal)
         Bandranges (emin - emax) and occupancy:
:BAN00001:   1   -1.308057   -1.092763  2.00000000
:BAN00002:   2   -0.192142    0.389414  2.00000000
:BAN00003:   3   -0.026923    0.389414  2.00000000
:BAN00004:   4    0.125645    0.389414  2.00000000
:BAN00005:   5    1.033360    1.375027  2.00000000
:BAN00006:   6    1.077713    1.502670  1.99796511
:BAN00007:   7    1.457233    1.565548  0.97177730
:BAN00008:   8    1.487270    1.577951  0.03026971
:BAN00009:   9    1.510085    1.587287  0.00000000
:BAN00010:  10    1.525998    1.620577  0.00000000
:BAN00011:  11    1.536650    1.637913  0.00000000
:BAN00012:  12    1.538816    1.667955  0.00000000
:BAN00013:  13    1.608366    1.715881  0.00000000
        Energy to separate low and high energystates:    0.98336


:NOE  : NUMBER OF ELECTRONS          =   13.000

:FER  : F E R M I - ENERGY(TETRAH.M.)=   1.5003249941
:GMA  : POTENTIAL AND CHARGE CUT-OFF  12.00 Ry**.5

:POS001: ATOM    1 X,Y,Z = 0.00000 0.00000 0.50000  MULT= 1  ZZ= 59.000  Pr        

       LMMAX  5
       LM=   0 0  4 0  4 4  6 0  6 4

:CHA001: TOTAL VALENCE CHARGE INSIDE SPHERE   1 =  10.6344    (RMT=  2.5000 )
:PCS001: PARTIAL CHARGES SPHERE =  1 S,P,D,F,      D-EG,D-T2G 
:QTL001: 2.0642 5.2952 1.6989 1.5547 0.0000 0.0000 0.0000 0.6356 1.0633 0.0000 0.0000 0.0000
        Q-s-low E-s-low   Q-p-low E-p-low   Q-d-low E-d-low   Q-f-low E-f-low
:EPL001:  1.9282 -1.1267    5.1303  0.1282    0.0855  0.0655    0.0305  0.0898
        Q-s-hi  E-s-hi    Q-p-hi  E-p-hi    Q-d-hi  E-d-hi    Q-f-hi  E-f-hi 
:EPH001:  0.1360  1.3538    0.1649  1.3327    1.6134  1.2950    1.5242  1.4018

:CHA  : TOTAL VALENCE CHARGE INSIDE UNIT CELL =      13.000012

:SUM  : SUM OF EIGENVALUES =           5.084548849



   QTL-B VALUE .EQ.    9.38686   in Band of energy    1.40296   ATOM=    1   L=  0
    Most likely no ghostbands, but adjust Energy-parameters for this ATOM and L


:WARN : QTL-B value eq.   9.39 in Band of energy   1.40296  ATOM=    1  L=  0
:WARN : You should change the E-parameter for this atom and L-value in case.in1 (or try the -in1new switch)

        1.ATOM      Pr                   14 CORE STATES
:1S 001: 1S               -3065.928087178 Ry
:2S 001: 2S                -491.694346407 Ry
:2PP001: 2P*               -464.791818605 Ry
:2P 001: 2P                -429.395076291 Ry
:3S 001: 3S                -104.795380518 Ry
:3PP001: 3P*                -93.332548535 Ry
:3P 001: 3P                 -86.325523224 Ry
:3DD001: 3D*                -66.251099030 Ry
:3D 001: 3D                 -64.739775532 Ry
:4S 001: 4S                 -19.498211969 Ry
:4PP001: 4P*                -15.206738460 Ry
:4P 001: 4P                 -13.681924117 Ry
:4DD001: 4D*                 -6.620893447 Ry
:4D 001: 4D                  -6.352550311 Ry
:CINT001 Core Integral Atom   1   45.999430

       DENSITY AT NUCLEUS
        JATOM        VALENCE       SEMI-CORE          CORE           TOTAL
:RTO001:   1      645.019317        0.000000   656816.487688   657461.507005
     
       CHARGES OF NEW CHARGE DENSITY
:NTO   : INTERSTITIAL CHARGE =     2.365600
:NPC   : PW Pseudocharge     =     9.014652
:NTO001: CHARGE SPHERE  1    =    56.633816

:NEC01: NUCLEAR AND ELECTRONIC CHARGE     59.00000    58.99942
     
       CHARGES OF OLD CHARGE DENSITY
:OTO   : INTERSTITIAL CHARGE =     1.937086
:OPC   : PW Pseudocharge     =     7.902152
:OTO001: CHARGE SPHERE  1    =    57.063537

:NEC02: NUCLEAR AND ELECTRONIC CHARGE     59.00000    59.00062
     
       CONVERGENCE TEST
:DTO001: DIFFERENCE IN SPHERE  1 =  1.1534906

:DIS  :  CHARGE DISTANCE       ( 1.1534906 for atom    1 spin 1)      1.1534906
 PW Mixed is           29
 
******************************************************
* MULTISECANT MIXING VER9 RELEASE 10.4.0              *
* Standard Mode with controls                        *
* Fixed density scale                                *
* Regularization       1.000E-04                     *
* Trust Upper Limit    5.000E+00                     *
* Max Number of Memory Steps    8                    *
******************************************************
 
:PWTMP   4.5573E+01  1.2500E+02  1.1102E+02
:PLANE:  PW TOTAL      2.6147 DISTAN   4.08E-01  1.56E+01 %
:CHARG:  CLM/ATOM    977.2659 DISTAN   1.16E+00  1.19E-01 %
INFO: Reducing dbase  2.50000E-02 1.15349E+00 2.32773E-02
 
Step History
        DMIX         DMIXT        Red     Pred      Trust     Lambda    MagRel    MagAbs     Beta
  1   3.5000E-02   3.5000E-02 -1.00E+00  1.00E+00 -1.00E+01  1.00E+00  3.50E-02  3.50E-02  1.00E+00
:INFO :  Note, Pratt in use
INFO: Reducing dbase  2.32773E-02 1.15349E+00 2.16733E-02
:TRUST:  Step 3.75E-02  Charge 7.50E-02 (e) CTO  2.50E-01 (e) PW  3.50E-01 (e)
:DIRM :  MEMORY  0/ 8 SCALE   1.000
Performing Pseudo Compensation
Final Pseudo Compensation Rescaling     1.00000E+00
:MIX  :   PRATT  REGULARIZATION:  1.00E-04 GREED: 0.02500                  
     
       CHARGES OF MIXED CHARGE DENSITY
:CTO   : INTERSTITIAL CHARGE =     1.947206
:CPC   : PW Pseudocharge     =     8.529166
:CTO001: CHARGE SPHERE  1    =    57.052794

:NEC03: NUCLEAR AND ELECTRONIC CHARGE     59.00000    59.00000

PW CHANGE     H    K    L      Current       Change    Residue
:PTO001:      0    0    0  9.43625634E-02  5.767E-03  1.393E-02
:PTO002:     -1   -1   -1 -1.78637196E-01 -2.293E-02 -2.278E-02
:PTO003:      0    0   -2  9.13074509E-02  1.351E-02  8.503E-03
:PTO004:      0   -2   -2  3.10378961E-02  1.014E-02  1.351E-02
:PTO005:     -1   -1   -3 -1.50696474E-03 -8.590E-03 -7.613E-03
:PTO006:     -2   -2   -2 -2.10576628E-03  2.083E-03  1.318E-03
:PTO007:      0    0   -4 -3.32089590E-03  2.959E-04 -7.780E-04
:PTO008:     -1   -3   -3  9.61645450E-03  1.156E-04  2.096E-04
:PTO009:      0   -2   -4 -8.26196782E-03 -3.987E-04 -1.367E-03
:PTO010:     -2   -2   -4 -3.92176195E-03 -1.001E-03 -3.278E-03
:PTO011:     -3   -3   -3  7.17842323E-04  4.009E-04  1.140E-03
:PTO012:     -1   -1   -5  2.15229797E-03  1.201E-03  3.369E-03

:ENE  : *WARNING** TOTAL ENERGY IN Ry =       -18472.19603142

 Flat Integration
 New Mode for Coulomb Integral
 Consistent 3/8+Simpson combinations
 Extension of core to zero
 LDM version in phi
 Fifth-order quadrature in outwin


            ---------
:ITE002:  2. ITERATION
            ---------

:NATO :    1 INDEPENDENT AND    1 TOTAL ATOMS IN UNITCELL
       SUBSTANCE: blebleble                                                   

       LATTICE                      = F   
:POT  : POTENTIAL OPTION EX_LDA EC_LDA VX_LDA VC_LDA
:LAT  : LATTICE CONSTANTS=  7.62940  7.62940  7.62940    1.571    1.571    1.571
:VOL  : UNIT CELL VOLUME =     111.02254
       MODE OF CALCULATION IS       = RELA
       NON-SPINPOLARIZED CALCULATION
:IFFT  : FFT-parameters:   60   60   60 Factor: 2.00


   CONVERGENCE PARAMETER FOR PSEUDOCHARGE: NCON=  9
   MAXIMAL VALUE OF RMT(JATOM)*ABSK(NKK) : RK  =29.97764


:VKCOUL :  VK-COUL convergence: 0.113E-06
       ATOMNUMBER=  1 Pr         VCOUL-ZERO =  0.98004E+00
:FIT001: LUSE= 13 SIGMA OF V-XC FIT FOR ATOM  1  0.7020408E-04
:FIT001: LUSE= 13 SIGMA OF V-XC FIT FOR ATOM  1  0.7020408E-04
:DEN  : DENSITY INTEGRAL  =         -7130.97915071   (Ry)
       ELS_POTENTIAL_AT Z=0 and Z=0.5:  -3.05070  -3.05070
       ELS_POTENTIAL_AT Y=0 and Y=0.5:   0.00000   0.00000
:VZERO:v0,v0c,v0x  -4.23188  -3.05070  -1.18119 v5,v5c,v5x  -4.23188  -3.05070  -1.18119
:VZERY:v0,v0c,v0x  -0.96693   0.00000  -0.96693 v5,v5c,v5x  -0.96693   0.00000  -0.96693
:VZERX:v0,v0c,v0x  -0.96693   0.00000  -0.96693 v5,v5c,v5x  -0.96693   0.00000  -0.96693
:LMAX-WF:   10   Non-Spherical LMAX:   4

          ATOMIC SPHERE DEPENDENT PARAMETERS FOR ATOM  Pr        
:e__0001: OVERALL ENERGY PARAMETER IS    0.7000
          OVERALL BASIS SET ON ATOM IS LAPW
:E0_0001: E( 0)=    0.7000
             APW+lo
:E0_0001: E( 0)=   -1.1716   E(BOTTOM)=   -1.584   E(TOP)=   -0.760  4  5   259
             LOCAL ORBITAL
:E1_0001: E( 1)=    1.1000
             APW+lo
:E1_0001: E( 1)=    0.1906   E(BOTTOM)=   -0.500   E(TOP)=    0.881  3  4   257
             LOCAL ORBITAL
:E3_0001: E( 3)=    1.5554   E(BOTTOM)=    1.387   E(TOP)=    1.724  0  1   184
             APW+lo
:E2_0001: E( 2)=    1.0347   E(BOTTOM)=    1.035   E(TOP)= -200.000  2 -1   125
             APW+lo

       K=   0.00000   0.00000   0.00000            1
:RKM  : MATRIX SIZE    85LOs:  20  RKM= 8.24  WEIGHT= 1.00  PGR:    
       EIGENVALUES ARE:
:EIG00001:      -1.2906172    0.4067780    0.4067780    0.4067780    1.3950912
:EIG00006:       1.4055859    1.5246449    1.5246449    1.5246449    1.5617301
:EIG00011:       1.5617301    1.5617301    1.6569744    1.6569744    1.6569744
:EIG00016:       1.9950854    1.9950854
       ********************************************************

:KPT   :      NUMBER OF K-POINTS:   165
:GAP (global)   :    0.0    Ry =     0.0   eV (metal)
         Bandranges (emin - emax) and occupancy:
:BAN00001:   1   -1.290617   -1.076857  2.00000000
:BAN00002:   2   -0.171084    0.406778  2.00000000
:BAN00003:   3   -0.006653    0.406778  2.00000000
:BAN00004:   4    0.145205    0.406778  2.00000000
:BAN00005:   5    1.057942    1.395091  2.00000000
:BAN00006:   6    1.101852    1.514715  1.99990657
:BAN00007:   7    1.471817    1.573327  0.96917637
:BAN00008:   8    1.498781    1.584648  0.03090770
:BAN00009:   9    1.522960    1.593889  0.00000000
:BAN00010:  10    1.539755    1.626518  0.00000000
:BAN00011:  11    1.550598    1.642551  0.00000000
:BAN00012:  12    1.561730    1.678199  0.00000000
:BAN00013:  13    1.614364    1.732351  0.00000000
        Energy to separate low and high energystates:    1.00794


:NOE  : NUMBER OF ELECTRONS          =   13.000

:FER  : F E R M I - ENERGY(TETRAH.M.)=   1.5132360096
:GMA  : POTENTIAL AND CHARGE CUT-OFF  12.00 Ry**.5

:POS001: ATOM    1 X,Y,Z = 0.00000 0.00000 0.50000  MULT= 1  ZZ= 59.000  Pr        

       LMMAX  5
       LM=   0 0  4 0  4 4  6 0  6 4

:CHA001: TOTAL VALENCE CHARGE INSIDE SPHERE   1 =  10.6843    (RMT=  2.5000 )
:PCS001: PARTIAL CHARGES SPHERE =  1 S,P,D,F,      D-EG,D-T2G 
:QTL001: 2.0612 5.2951 1.6341 1.6738 0.0000 0.0000 0.0000 0.6053 1.0288 0.0000 0.0000 0.0000
        Q-s-low E-s-low   Q-p-low E-p-low   Q-d-low E-d-low   Q-f-low E-f-low
:EPL001:  1.9289 -1.1106    5.1375  0.1474    0.0843  0.0845    0.0312  0.1089
        Q-s-hi  E-s-hi    Q-p-hi  E-p-hi    Q-d-hi  E-d-hi    Q-f-hi  E-f-hi 
:EPH001:  0.1323  1.3716    0.1576  1.3505    1.5497  1.3100    1.6426  1.4197

:CHA  : TOTAL VALENCE CHARGE INSIDE UNIT CELL =      12.999991

:SUM  : SUM OF EIGENVALUES =           5.329150251



   QTL-B VALUE .EQ.    4.47826   in Band of energy    1.42527   ATOM=    1   L=  0
    Most likely no ghostbands, but adjust Energy-parameters for this ATOM and L


:WARN : QTL-B value eq.   4.48 in Band of energy   1.42527  ATOM=    1  L=  0
:WARN : You should change the E-parameter for this atom and L-value in case.in1 (or try the -in1new switch)

        1.ATOM      Pr                   14 CORE STATES
:1S 001: 1S               -3065.942206166 Ry
:2S 001: 2S                -491.707681394 Ry
:2PP001: 2P*               -464.805268878 Ry
:2P 001: 2P                -429.408478204 Ry
:3S 001: 3S                -104.807175644 Ry
:3PP001: 3P*                -93.344462913 Ry
:3P 001: 3P                 -86.337253425 Ry
:3DD001: 3D*                -66.263168397 Ry
:3D 001: 3D                 -64.751796158 Ry
:4S 001: 4S                 -19.501750885 Ry
:4PP001: 4P*                -15.209779307 Ry
:4P 001: 4P                 -13.684189559 Ry
:4DD001: 4D*                 -6.621755134 Ry
:4D 001: 4D                  -6.353143971 Ry
:CINT001 Core Integral Atom   1   45.999439

       DENSITY AT NUCLEUS
        JATOM        VALENCE       SEMI-CORE          CORE           TOTAL
:RTO001:   1      645.357302        0.000000   656818.330826   657463.688128
     
       CHARGES OF NEW CHARGE DENSITY
:NTO   : INTERSTITIAL CHARGE =     2.315713
:NPC   : PW Pseudocharge     =     8.946386
:NTO001: CHARGE SPHERE  1    =    56.683690

:NEC01: NUCLEAR AND ELECTRONIC CHARGE     59.00000    58.99940
     
       CHARGES OF OLD CHARGE DENSITY
:OTO   : INTERSTITIAL CHARGE =     1.947206
:OPC   : PW Pseudocharge     =     8.529166
:OTO001: CHARGE SPHERE  1    =    57.052794

:NEC02: NUCLEAR AND ELECTRONIC CHARGE     59.00000    59.00000
     
       CONVERGENCE TEST
:DTO001: DIFFERENCE IN SPHERE  1 =  0.9851748

:DIS  :  CHARGE DISTANCE       ( 0.9851748 for atom    1 spin 1)      0.9851748
 PW Mixed is           29
 
******************************************************
* MULTISECANT MIXING VER9 RELEASE 10.4.0              *
* Slow Mode, cautious                                *
* Fixed density scale                                *
* Regularization       1.000E-04                     *
* Step Trust Radius    0.75000                       *
* Trust Upper Limit    2.000E+00                     *
* Max Number of Memory Steps   12                    *
******************************************************
 
:PWTMP   4.5573E+01  1.2500E+02  1.1102E+02
:PLANE:  PW TOTAL      2.8690 DISTAN   1.80E-01  6.26E+00 %
:CHARG:  CLM/ATOM    977.2607 DISTAN   9.92E-01  1.01E-01 %
 
Step History
        DMIX         DMIXT        Red     Pred      Trust     Lambda    MagRel    MagAbs     Beta
  1   3.5000E-02   3.5000E-02 -1.00E+00  1.00E+00 -1.00E+01  1.00E+00  3.50E-02  3.50E-02  1.00E+00
  2   2.5000E-02   2.5000E-02 -1.00E+00  1.00E+00 -1.00E+01  1.00E+00  2.50E-02  3.07E-02  1.00E+00
:JACOBIANS    3.603E-01   2.106E-02
  
:TRUST:  Step 3.88E-02  Charge 7.50E-02 (e) CTO  2.50E-01 (e) PW  3.50E-01 (e)
:DIRM :  MEMORY  1/12 SCALE   1.000
:MIX  :   PRATT  REGULARIZATION:  1.00E-04 GREED: 0.03879  Expand 1.55  0.0388                
     
       CHARGES OF MIXED CHARGE DENSITY
:CTO   : INTERSTITIAL CHARGE =     1.964573
:CPC   : PW Pseudocharge     =     9.546891
:CTO001: CHARGE SPHERE  1    =    57.035427

:NEC03: NUCLEAR AND ELECTRONIC CHARGE     59.00000    59.00000

PW CHANGE     H    K    L      Current       Change    Residue
:PTO001:      0    0    0  1.03685823E-01  9.323E-03  7.103E-03
:PTO002:     -1   -1   -1 -2.15699956E-01 -3.706E-02 -1.705E-04
:PTO003:      0    0   -2  1.13143020E-01  2.184E-02 -4.793E-03
:PTO004:      0   -2   -2  4.74343173E-02  1.640E-02  3.836E-03
:PTO005:     -1   -1   -3 -1.53935154E-02 -1.389E-02  7.755E-04
:PTO006:     -2   -2   -2  1.26185721E-03  3.368E-03 -6.364E-04
:PTO007:      0    0   -4 -2.84255198E-03  4.783E-04 -1.085E-03
:PTO008:     -1   -3   -3  9.80340638E-03  1.870E-04  3.132E-05
:PTO009:      0   -2   -4 -8.90644904E-03 -6.445E-04 -9.778E-04
:PTO010:     -2   -2   -4 -5.53994639E-03 -1.618E-03 -2.261E-03
:PTO011:     -3   -3   -3  1.36585542E-03  6.480E-04  7.233E-04
:PTO012:     -1   -1   -5  4.09435049E-03  1.942E-03  2.188E-03

:ENE  : *WARNING** TOTAL ENERGY IN Ry =       -18472.17567048


:LABEL1: Calculations in /home/ykent/GWIEN/example/Pr/V1/case
:LABEL2: on didymium-2.cmpgroup.ameslab.gov at Wed Jul  8 16:08:04 CDT 2020
:LABEL3: using WIEN2k_19.1 (Release 25/6/2019) in /home/ykent/opt/src/WIEN2k_19.1
:LABEL4: using the command: run_lapw -cc 0.0001
 Flat Integration
 New Mode for Coulomb Integral
 Consistent 3/8+Simpson combinations
 Extension of core to zero
 LDM version in phi
 Fifth-order quadrature in outwin


            ---------
:ITE003:  3. ITERATION
            ---------

:NATO :    1 INDEPENDENT AND    1 TOTAL ATOMS IN UNITCELL
       SUBSTANCE: blebleble                                                   

       LATTICE                      = F   
:POT  : POTENTIAL OPTION EX_LDA EC_LDA VX_LDA VC_LDA
:LAT  : LATTICE CONSTANTS=  7.62940  7.62940  7.62940    1.571    1.571    1.571
:VOL  : UNIT CELL VOLUME =     111.02254
       MODE OF CALCULATION IS       = RELA
       NON-SPINPOLARIZED CALCULATION
:IFFT  : FFT-parameters:   60   60   60 Factor: 2.00


   CONVERGENCE PARAMETER FOR PSEUDOCHARGE: NCON=  9
   MAXIMAL VALUE OF RMT(JATOM)*ABSK(NKK) : RK  =29.97764


:VKCOUL :  VK-COUL convergence: 0.109E-06
       ATOMNUMBER=  1 Pr         VCOUL-ZERO =  0.10258E+01
:FIT001: LUSE= 13 SIGMA OF V-XC FIT FOR ATOM  1  0.7002250E-04
:FIT001: LUSE= 13 SIGMA OF V-XC FIT FOR ATOM  1  0.7002250E-04
:DEN  : DENSITY INTEGRAL  =         -7130.75685560   (Ry)
       ELS_POTENTIAL_AT Z=0 and Z=0.5:  -3.23212  -3.23212
       ELS_POTENTIAL_AT Y=0 and Y=0.5:   0.00000   0.00000
:VZERO:v0,v0c,v0x  -4.46171  -3.23212  -1.22960 v5,v5c,v5x  -4.46171  -3.23212  -1.22960
:VZERY:v0,v0c,v0x  -0.98597   0.00000  -0.98597 v5,v5c,v5x  -0.98597   0.00000  -0.98597
:VZERX:v0,v0c,v0x  -0.98597   0.00000  -0.98597 v5,v5c,v5x  -0.98597   0.00000  -0.98597
:LMAX-WF:   10   Non-Spherical LMAX:   4

          ATOMIC SPHERE DEPENDENT PARAMETERS FOR ATOM  Pr        
:e__0001: OVERALL ENERGY PARAMETER IS    0.9000
          OVERALL BASIS SET ON ATOM IS LAPW
:E0_0001: E( 0)=    0.9000
             APW+lo
:E0_0001: E( 0)=   -1.1455   E(BOTTOM)=   -1.554   E(TOP)=   -0.737  4  5   266
             LOCAL ORBITAL
:E1_0001: E( 1)=    1.3000
             APW+lo
:E1_0001: E( 1)=    0.2197   E(BOTTOM)=   -0.466   E(TOP)=    0.906  3  4   263
             LOCAL ORBITAL
:E3_0001: E( 3)=    1.5667   E(BOTTOM)=    1.403   E(TOP)=    1.730  0  1   165
             APW+lo
:E2_0001: E( 2)=    1.0711   E(BOTTOM)=    1.071   E(TOP)= -200.000  2 -1   120
             APW+lo

       K=   0.00000   0.00000   0.00000            1
:RKM  : MATRIX SIZE    85LOs:  20  RKM= 8.24  WEIGHT= 1.00  PGR:    
       EIGENVALUES ARE:
:EIG00001:      -1.2620200    0.4351135    0.4351135    0.4351135    1.4258593
:EIG00006:       1.4319530    1.5387722    1.5387722    1.5387722    1.5992376
:EIG00011:       1.5992376    1.5992376    1.6649510    1.6649510    1.6649510
:EIG00016:       2.0303361    2.0303361    2.5360798
       ********************************************************

:KPT   :      NUMBER OF K-POINTS:   165
:GAP (global)   :    0.0    Ry =     0.0   eV (metal)
         Bandranges (emin - emax) and occupancy:
:BAN00001:   1   -1.262020   -1.051181  2.00000000
:BAN00002:   2   -0.136836    0.435114  2.00000000
:BAN00003:   3    0.026482    0.435114  2.00000000
:BAN00004:   4    0.177078    0.435114  2.00000000
:BAN00005:   5    1.098156    1.425859  2.00000000
:BAN00006:   6    1.141330    1.532306  1.99999832
:BAN00007:   7    1.494776    1.586138  0.96609882
:BAN00008:   8    1.517138    1.595982  0.03390780
:BAN00009:   9    1.538772    1.605173 -0.00000493
:BAN00010:  10    1.557618    1.635656  0.00000000
:BAN00011:  11    1.572765    1.651278  0.00000000
:BAN00012:  12    1.599238    1.696682  0.00000000
:BAN00013:  13    1.624864    1.765310  0.00000000
:BAN00014:  14    1.664951    2.423158  0.00000000
        Energy to separate low and high energystates:    1.04816


:NOE  : NUMBER OF ELECTRONS          =   13.000

:FER  : F E R M I - ENERGY(TETRAH.M.)=   1.5317576176
:GMA  : POTENTIAL AND CHARGE CUT-OFF  12.00 Ry**.5

:POS001: ATOM    1 X,Y,Z = 0.00000 0.00000 0.50000  MULT= 1  ZZ= 59.000  Pr        

       LMMAX  5
       LM=   0 0  4 0  4 4  6 0  6 4

:CHA001: TOTAL VALENCE CHARGE INSIDE SPHERE   1 =  10.7559    (RMT=  2.5000 )
:PCS001: PARTIAL CHARGES SPHERE =  1 S,P,D,F,      D-EG,D-T2G 
:QTL001: 2.0532 5.2938 1.5581 1.8319 0.0000 0.0000 0.0000 0.5767 0.9814 0.0000 0.0000 0.0000
        Q-s-low E-s-low   Q-p-low E-p-low   Q-d-low E-d-low   Q-f-low E-f-low
:EPL001:  1.9299 -1.0846    5.1491  0.1786    0.0826  0.1155    0.0307  0.1397
        Q-s-hi  E-s-hi    Q-p-hi  E-p-hi    Q-d-hi  E-d-hi    Q-f-hi  E-f-hi 
:EPH001:  0.1233  1.3973    0.1447  1.3779    1.4755  1.3381    1.8012  1.4455

:CHA  : TOTAL VALENCE CHARGE INSIDE UNIT CELL =      13.000000

:SUM  : SUM OF EIGENVALUES =           5.723032701



   QTL-B VALUE .EQ.    2.32698   in Band of energy   -0.13684   ATOM=    1   L=  1
    Most likely no ghostbands, but adjust Energy-parameters for this ATOM and L


:WARN : QTL-B value eq.   2.33 in Band of energy  -0.13684  ATOM=    1  L=  1
:WARN : You should change the E-parameter for this atom and L-value in case.in1 (or try the -in1new switch)

        1.ATOM      Pr                   14 CORE STATES
:1S 001: 1S               -3065.964569616 Ry
:2S 001: 2S                -491.728777445 Ry
:2PP001: 2P*               -464.826551300 Ry
:2P 001: 2P                -429.429682449 Ry
:3S 001: 3S                -104.825782394 Ry
:3PP001: 3P*                -93.363262461 Ry
:3P 001: 3P                 -86.355755250 Ry
:3DD001: 3D*                -66.282218554 Ry
:3D 001: 3D                 -64.770767527 Ry
:4S 001: 4S                 -19.507015712 Ry
:4PP001: 4P*                -15.214240820 Ry
:4P 001: 4P                 -13.687398848 Ry
:4DD001: 4D*                 -6.622704303 Ry
:4D 001: 4D                  -6.353660710 Ry
:CINT001 Core Integral Atom   1   45.999453

       DENSITY AT NUCLEUS
        JATOM        VALENCE       SEMI-CORE          CORE           TOTAL
:RTO001:   1      644.580535        0.000000   656821.308683   657465.889218
     
       CHARGES OF NEW CHARGE DENSITY
:NTO   : INTERSTITIAL CHARGE =     2.244038
:NPC   : PW Pseudocharge     =     8.847693
:NTO001: CHARGE SPHERE  1    =    56.755388

:NEC01: NUCLEAR AND ELECTRONIC CHARGE     59.00000    58.99943
     
       CHARGES OF OLD CHARGE DENSITY
:OTO   : INTERSTITIAL CHARGE =     1.964573
:OPC   : PW Pseudocharge     =     9.546891
:OTO001: CHARGE SPHERE  1    =    57.035427

:NEC02: NUCLEAR AND ELECTRONIC CHARGE     59.00000    59.00000
     
       CONVERGENCE TEST
:DTO001: DIFFERENCE IN SPHERE  1 =  0.7327970

:DIS  :  CHARGE DISTANCE       ( 0.7327970 for atom    1 spin 1)      0.7327970
 PW Mixed is           29
 
******************************************************
* MULTISECANT MIXING VER9 RELEASE 10.4.0              *
* Standard Mode with controls                        *
* Fixed density scale                                *
* Regularization       1.000E-04                     *
* Trust Upper Limit    5.000E+00                     *
* Max Number of Memory Steps    8                    *
******************************************************
 
:PWTMP   4.5573E+01  1.2500E+02  1.1102E+02
:PLANE:  PW TOTAL      3.2909 DISTAN   4.34E-01  1.32E+01 %
:CHARG:  CLM/ATOM    977.2525 DISTAN   7.42E-01  7.59E-02 %
 
Step History
        DMIX         DMIXT        Red     Pred      Trust     Lambda    MagRel    MagAbs     Beta
  1   3.5000E-02   3.5000E-02 -1.00E+00  1.00E+00 -1.00E+01  1.00E+00  3.50E-02  3.50E-02  1.00E+00
:INFO :  Note, Pratt in use
:TRUST:  Step 3.75E-02  Charge 7.50E-02 (e) CTO  2.50E-01 (e) PW  3.50E-01 (e)
:DIRM :  MEMORY  0/ 8 SCALE   1.000
Performing Pseudo Compensation
Final Pseudo Compensation Rescaling     1.00000E+00
:MIX  :   PRATT  REGULARIZATION:  1.00E-04 GREED: 0.02500                  
     
       CHARGES OF MIXED CHARGE DENSITY
:CTO   : INTERSTITIAL CHARGE =     1.971574
:CPC   : PW Pseudocharge     =     8.958465
:CTO001: CHARGE SPHERE  1    =    57.028426

:NEC03: NUCLEAR AND ELECTRONIC CHARGE     59.00000    59.00000

PW CHANGE     H    K    L      Current       Change    Residue
:PTO001:      0    0    0  9.84488259E-02 -5.237E-03 -3.755E-03
:PTO002:     -1   -1   -1 -1.88172917E-01  2.753E-02  3.690E-02
:PTO003:      0    0   -2  9.53503475E-02 -1.779E-02 -2.653E-02
:PTO004:      0   -2   -2  2.93722152E-02 -1.806E-02 -1.276E-02
:PTO005:     -1   -1   -3  5.30980482E-03  2.070E-02  1.488E-02
:PTO006:     -2   -2   -2 -4.37712492E-03 -5.639E-03 -4.043E-03
:PTO007:      0    0   -4 -4.51218949E-03 -1.670E-03 -1.569E-03
:PTO008:     -1   -3   -3  1.22691542E-02  2.466E-03 -5.196E-05
:PTO009:      0   -2   -4 -1.04795658E-02 -1.573E-03 -4.396E-04
:PTO010:     -2   -2   -4 -4.95942179E-03  5.805E-04 -6.849E-04
:PTO011:     -3   -3   -3  9.51501179E-04 -4.144E-04  7.413E-05
:PTO012:     -1   -1   -5  2.85275946E-03 -1.242E-03  2.812E-04

:ENE  : *WARNING** TOTAL ENERGY IN Ry =       -18472.15182943

 Flat Integration
 New Mode for Coulomb Integral
 Consistent 3/8+Simpson combinations
 Extension of core to zero
 LDM version in phi
 Fifth-order quadrature in outwin


            ---------
:ITE004:  4. ITERATION
            ---------

:NATO :    1 INDEPENDENT AND    1 TOTAL ATOMS IN UNITCELL
       SUBSTANCE: blebleble                                                   

       LATTICE                      = F   
:POT  : POTENTIAL OPTION EX_LDA EC_LDA VX_LDA VC_LDA
:LAT  : LATTICE CONSTANTS=  7.62940  7.62940  7.62940    1.571    1.571    1.571
:VOL  : UNIT CELL VOLUME =     111.02254
       MODE OF CALCULATION IS       = RELA
       NON-SPINPOLARIZED CALCULATION
:IFFT  : FFT-parameters:   60   60   60 Factor: 2.00


   CONVERGENCE PARAMETER FOR PSEUDOCHARGE: NCON=  9
   MAXIMAL VALUE OF RMT(JATOM)*ABSK(NKK) : RK  =29.97764


:VKCOUL :  VK-COUL convergence: 0.946E-07
       ATOMNUMBER=  1 Pr         VCOUL-ZERO =  0.10179E+01
:FIT001: LUSE= 13 SIGMA OF V-XC FIT FOR ATOM  1  0.7017557E-04
:FIT001: LUSE= 13 SIGMA OF V-XC FIT FOR ATOM  1  0.7017557E-04
:DEN  : DENSITY INTEGRAL  =         -7129.14363435   (Ry)
       ELS_POTENTIAL_AT Z=0 and Z=0.5:  -3.18469  -3.18469
       ELS_POTENTIAL_AT Y=0 and Y=0.5:   0.00000   0.00000
:VZERO:v0,v0c,v0x  -4.37954  -3.18469  -1.19485 v5,v5c,v5x  -4.37954  -3.18469  -1.19485
:VZERY:v0,v0c,v0x  -0.97800   0.00000  -0.97800 v5,v5c,v5x  -0.97800   0.00000  -0.97800
:VZERX:v0,v0c,v0x  -0.97800   0.00000  -0.97800 v5,v5c,v5x  -0.97800   0.00000  -0.97800
:LMAX-WF:   10   Non-Spherical LMAX:   4

          ATOMIC SPHERE DEPENDENT PARAMETERS FOR ATOM  Pr        
:e__0001: OVERALL ENERGY PARAMETER IS    1.1000
          OVERALL BASIS SET ON ATOM IS LAPW
:E0_0001: E( 0)=    1.1000
             APW+lo
:E0_0001: E( 0)=   -1.1614   E(BOTTOM)=   -1.569   E(TOP)=   -0.754  4  5   265
             LOCAL ORBITAL
:E1_0001: E( 1)=    1.5000
             APW+lo
:E1_0001: E( 1)=    0.2050   E(BOTTOM)=   -0.479   E(TOP)=    0.889  3  4   262
             LOCAL ORBITAL
:E3_0001: E( 3)=    1.5449   E(BOTTOM)=    1.383   E(TOP)=    1.707  0  1   145
             APW+lo
:E2_0001: E( 2)=    1.1000   E(BOTTOM)=    1.059   E(TOP)= -200.000  2 -1   116
             APW+lo

       K=   0.00000   0.00000   0.00000            1
:RKM  : MATRIX SIZE    85LOs:  20  RKM= 8.24  WEIGHT= 1.00  PGR:    
       EIGENVALUES ARE:
:EIG00001:      -1.2769083    0.4201245    0.4201245    0.4201245    1.4075940
:EIG00006:       1.4204174    1.5181019    1.5181019    1.5181019    1.5879329
:EIG00011:       1.5879329    1.5879329    1.6419440    1.6419440    1.6419440
:EIG00016:       2.0178834    2.0178834    2.5217196
       ********************************************************

:KPT   :      NUMBER OF K-POINTS:   165
:GAP (global)   :    0.0    Ry =     0.0   eV (metal)
         Bandranges (emin - emax) and occupancy:
:BAN00001:   1   -1.276908   -1.067232  2.00000000
:BAN00002:   2   -0.149457    0.420125  2.00000000
:BAN00003:   3    0.013418    0.420125  2.00000000
:BAN00004:   4    0.163501    0.420125  2.00000000
:BAN00005:   5    1.087902    1.407594  2.00000000
:BAN00006:   6    1.130863    1.511818  2.00000000
:BAN00007:   7    1.477358    1.564922  0.96551330
:BAN00008:   8    1.498024    1.574256  0.03450005
:BAN00009:   9    1.518102    1.583411 -0.00001335
:BAN00010:  10    1.539152    1.613093  0.00000000
:BAN00011:  11    1.554919    1.629857  0.00000000
:BAN00012:  12    1.587933    1.678084  0.00000000
:BAN00013:  13    1.609487    1.752379  0.00000000
:BAN00014:  14    1.641944    2.409168  0.00000000
        Energy to separate low and high energystates:    1.03790


:NOE  : NUMBER OF ELECTRONS          =   13.000

:FER  : F E R M I - ENERGY(TETRAH.M.)=   1.5126001040
:GMA  : POTENTIAL AND CHARGE CUT-OFF  12.00 Ry**.5

:POS001: ATOM    1 X,Y,Z = 0.00000 0.00000 0.50000  MULT= 1  ZZ= 59.000  Pr        

       LMMAX  5
       LM=   0 0  4 0  4 4  6 0  6 4

:CHA001: TOTAL VALENCE CHARGE INSIDE SPHERE   1 =  10.7853    (RMT=  2.5000 )
:PCS001: PARTIAL CHARGES SPHERE =  1 S,P,D,F,      D-EG,D-T2G 
:QTL001: 2.0497 5.2933 1.5282 1.8956 0.0000 0.0000 0.0000 0.5658 0.9624 0.0000 0.0000 0.0000
        Q-s-low E-s-low   Q-p-low E-p-low   Q-d-low E-d-low   Q-f-low E-f-low
:EPL001:  1.9303 -1.1005    5.1537  0.1648    0.0819  0.1015    0.0305  0.1257
        Q-s-hi  E-s-hi    Q-p-hi  E-p-hi    Q-d-hi  E-d-hi    Q-f-hi  E-f-hi 
:EPH001:  0.1194  1.3809    0.1396  1.3626    1.4463  1.3232    1.8650  1.4290

:CHA  : TOTAL VALENCE CHARGE INSIDE UNIT CELL =      13.000000

:SUM  : SUM OF EIGENVALUES =           5.537405756



   QTL-B VALUE .EQ.    2.21193   in Band of energy    1.35192   ATOM=    1   L=  3
    Most likely no ghostbands, but adjust Energy-parameters for this ATOM and L


:WARN : QTL-B value eq.   2.21 in Band of energy   1.35192  ATOM=    1  L=  3
:WARN : You should change the E-parameter for this atom and L-value in case.in1 (or try the -in1new switch)

        1.ATOM      Pr                   14 CORE STATES
:1S 001: 1S               -3065.998964637 Ry
:2S 001: 2S                -491.762614593 Ry
:2PP001: 2P*               -464.860457755 Ry
:2P 001: 2P                -429.463558416 Ry
:3S 001: 3S                -104.858812347 Ry
:3PP001: 3P*                -93.396358869 Ry
:3P 001: 3P                 -86.388745793 Ry
:3DD001: 3D*                -66.315389113 Ry
:3D 001: 3D                 -64.803911013 Ry
:4S 001: 4S                 -19.535105267 Ry
:4PP001: 4P*                -15.242025445 Ry
:4P 001: 4P                 -13.714711087 Ry
:4DD001: 4D*                 -6.649150955 Ry
:4D 001: 4D                  -6.379942996 Ry
:CINT001 Core Integral Atom   1   45.999458

       DENSITY AT NUCLEUS
        JATOM        VALENCE       SEMI-CORE          CORE           TOTAL
:RTO001:   1      644.108616        0.000000   656822.425337   657466.533953
     
       CHARGES OF NEW CHARGE DENSITY
:NTO   : INTERSTITIAL CHARGE =     2.214683
:NPC   : PW Pseudocharge     =     8.807936
:NTO001: CHARGE SPHERE  1    =    56.784748

:NEC01: NUCLEAR AND ELECTRONIC CHARGE     59.00000    58.99943
     
       CHARGES OF OLD CHARGE DENSITY
:OTO   : INTERSTITIAL CHARGE =     1.971574
:OPC   : PW Pseudocharge     =     8.958465
:OTO001: CHARGE SPHERE  1    =    57.028426

:NEC02: NUCLEAR AND ELECTRONIC CHARGE     59.00000    59.00000
     
       CONVERGENCE TEST
:DTO001: DIFFERENCE IN SPHERE  1 =  0.6320832

:DIS  :  CHARGE DISTANCE       ( 0.6320832 for atom    1 spin 1)      0.6320832
 PW Mixed is           29
 
******************************************************
* MULTISECANT MIXING VER9 RELEASE 10.4.0              *
* Slow Mode, cautious                                *
* Fixed density scale                                *
* Regularization       1.000E-04                     *
* Step Trust Radius    0.75000                       *
* Trust Upper Limit    2.000E+00                     *
* Max Number of Memory Steps   12                    *
******************************************************
 
:PWTMP   4.5573E+01  1.2500E+02  1.1102E+02
:PLANE:  PW TOTAL      3.0010 DISTAN   1.29E-01  4.30E+00 %
:CHARG:  CLM/ATOM    977.2489 DISTAN   6.43E-01  6.58E-02 %
 
Step History
        DMIX         DMIXT        Red     Pred      Trust     Lambda    MagRel    MagAbs     Beta
  1   3.5000E-02   3.5000E-02 -1.00E+00  1.00E+00 -1.00E+01  1.00E+00  3.50E-02  3.50E-02  1.00E+00
  2   2.5000E-02   2.5000E-02 -1.00E+00  1.00E+00 -1.00E+01  1.00E+00  2.50E-02  2.15E-02  1.00E+00
:JACOBIANS    4.666E-01   6.856E-03
  
:TRUST:  Step 3.08E-02  Charge 7.50E-02 (e) CTO  2.50E-01 (e) PW  3.50E-01 (e)
:DIRM :  MEMORY  1/12 SCALE   1.000
:MIX  :   PRATT  REGULARIZATION:  1.00E-04 GREED: 0.03084  Expand 1.23  0.0308                
     
       CHARGES OF MIXED CHARGE DENSITY
:CTO   : INTERSTITIAL CHARGE =     1.976007
:CPC   : PW Pseudocharge     =     8.585867
:CTO001: CHARGE SPHERE  1    =    57.023993

:NEC03: NUCLEAR AND ELECTRONIC CHARGE     59.00000    59.00000

PW CHANGE     H    K    L      Current       Change    Residue
:PTO001:      0    0    0  9.51327010E-02 -3.316E-03  8.594E-04
:PTO002:     -1   -1   -1 -1.70742488E-01  1.743E-02  9.389E-03
:PTO003:      0    0   -2  8.40838281E-02 -1.127E-02 -8.703E-03
:PTO004:      0   -2   -2  1.79350899E-02 -1.144E-02  5.168E-03
:PTO005:     -1   -1   -3  1.84193791E-02  1.311E-02 -5.674E-03
:PTO006:     -2   -2   -2 -7.94779156E-03 -3.571E-03  1.556E-03
:PTO007:      0    0   -4 -5.56942266E-03 -1.057E-03  9.520E-05
:PTO008:     -1   -3   -3  1.38304934E-02  1.561E-03 -2.446E-03
:PTO009:      0   -2   -4 -1.14756810E-02 -9.961E-04  1.071E-03
:PTO010:     -2   -2   -4 -4.59182711E-03  3.676E-04 -1.299E-03
:PTO011:     -3   -3   -3  6.89127431E-04 -2.624E-04  4.922E-04
:PTO012:     -1   -1   -5  2.06657012E-03 -7.862E-04  1.541E-03

:ENE  : *WARNING** TOTAL ENERGY IN Ry =       -18472.14425193

 Flat Integration
 New Mode for Coulomb Integral
 Consistent 3/8+Simpson combinations
 Extension of core to zero
 LDM version in phi
 Fifth-order quadrature in outwin


            ---------
:ITE005:  5. ITERATION
            ---------

:NATO :    1 INDEPENDENT AND    1 TOTAL ATOMS IN UNITCELL
       SUBSTANCE: blebleble                                                   

       LATTICE                      = F   
:POT  : POTENTIAL OPTION EX_LDA EC_LDA VX_LDA VC_LDA
:LAT  : LATTICE CONSTANTS=  7.62940  7.62940  7.62940    1.571    1.571    1.571
:VOL  : UNIT CELL VOLUME =     111.02254
       MODE OF CALCULATION IS       = RELA
       NON-SPINPOLARIZED CALCULATION
:IFFT  : FFT-parameters:   60   60   60 Factor: 2.00


   CONVERGENCE PARAMETER FOR PSEUDOCHARGE: NCON=  9
   MAXIMAL VALUE OF RMT(JATOM)*ABSK(NKK) : RK  =29.97764


:VKCOUL :  VK-COUL convergence: 0.859E-07
       ATOMNUMBER=  1 Pr         VCOUL-ZERO =  0.10129E+01
:FIT001: LUSE= 13 SIGMA OF V-XC FIT FOR ATOM  1  0.7031577E-04
:FIT001: LUSE= 13 SIGMA OF V-XC FIT FOR ATOM  1  0.7031577E-04
:DEN  : DENSITY INTEGRAL  =         -7128.12223756   (Ry)
       ELS_POTENTIAL_AT Z=0 and Z=0.5:  -3.15467  -3.15467
       ELS_POTENTIAL_AT Y=0 and Y=0.5:   0.00000   0.00000
:VZERO:v0,v0c,v0x  -4.32541  -3.15467  -1.17075 v5,v5c,v5x  -4.32541  -3.15467  -1.17075
:VZERY:v0,v0c,v0x  -0.97256   0.00000  -0.97256 v5,v5c,v5x  -0.97256   0.00000  -0.97256
:VZERX:v0,v0c,v0x  -0.97256   0.00000  -0.97256 v5,v5c,v5x  -0.97256   0.00000  -0.97256
:LMAX-WF:   10   Non-Spherical LMAX:   4

          ATOMIC SPHERE DEPENDENT PARAMETERS FOR ATOM  Pr        
:e__0001: OVERALL ENERGY PARAMETER IS    1.3000
          OVERALL BASIS SET ON ATOM IS LAPW
:E0_0001: E( 0)=    1.3000
             APW+lo
:E0_0001: E( 0)=   -1.1714   E(BOTTOM)=   -1.578   E(TOP)=   -0.765  4  5   262
             LOCAL ORBITAL
:E1_0001: E( 1)=    1.7000
             APW+lo
:E1_0001: E( 1)=    0.1957   E(BOTTOM)=   -0.488   E(TOP)=    0.879  3  4   262
             LOCAL ORBITAL
:E3_0001: E( 3)=    1.5311   E(BOTTOM)=    1.370   E(TOP)=    1.692  0  1   123
             APW+lo
:E2_0001: E( 2)=    1.3000   E(BOTTOM)=    1.052   E(TOP)= -200.000  2 -1   123
             APW+lo

       K=   0.00000   0.00000   0.00000            1
:RKM  : MATRIX SIZE    85LOs:  20  RKM= 8.24  WEIGHT= 1.00  PGR:    
       EIGENVALUES ARE:
:EIG00001:      -1.2863401    0.4106304    0.4106304    0.4106304    1.3959751
:EIG00006:       1.4131193    1.5049802    1.5049802    1.5049802    1.5807242
:EIG00011:       1.5807242    1.5807242    1.6273665    1.6273665    1.6273665
:EIG00016:       2.0093206    2.0093206    2.5126815    2.8799109    2.9149740
:EIG00021:       2.9149740    2.9149740
       ********************************************************

:KPT   :      NUMBER OF K-POINTS:   165
:GAP (global)   :    0.0    Ry =     0.0   eV (metal)
         Bandranges (emin - emax) and occupancy:
:BAN00001:   1   -1.286340   -1.077390  2.00000000
:BAN00002:   2   -0.157451    0.410630  2.00000000
:BAN00003:   3    0.005189    0.410630  2.00000000
:BAN00004:   4    0.154940    0.410630  2.00000000
:BAN00005:   5    1.081414    1.395975  2.00000000
:BAN00006:   6    1.124234    1.498807  2.00000000
:BAN00007:   7    1.466216    1.551445  0.96504769
:BAN00008:   8    1.485850    1.560477  0.03497086
:BAN00009:   9    1.504980    1.569607 -0.00001854
:BAN00010:  10    1.528104    1.598794  0.00000000
:BAN00011:  11    1.543444    1.617192  0.00000000
:BAN00012:  12    1.580724    1.666397  0.00000000
:BAN00013:  13    1.595812    1.744155  0.00000000
:BAN00014:  14    1.627367    2.397721  0.00000000
        Energy to separate low and high energystates:    1.03141


:NOE  : NUMBER OF ELECTRONS          =   13.000

:FER  : F E R M I - ENERGY(TETRAH.M.)=   1.5004290770
:GMA  : POTENTIAL AND CHARGE CUT-OFF  12.00 Ry**.5

:POS001: ATOM    1 X,Y,Z = 0.00000 0.00000 0.50000  MULT= 1  ZZ= 59.000  Pr        

       LMMAX  5
       LM=   0 0  4 0  4 4  6 0  6 4

:CHA001: TOTAL VALENCE CHARGE INSIDE SPHERE   1 =  10.8047    (RMT=  2.5000 )
:PCS001: PARTIAL CHARGES SPHERE =  1 S,P,D,F,      D-EG,D-T2G 
:QTL001: 2.0471 5.2929 1.5092 1.9372 0.0000 0.0000 0.0000 0.5590 0.9502 0.0000 0.0000 0.0000
        Q-s-low E-s-low   Q-p-low E-p-low   Q-d-low E-d-low   Q-f-low E-f-low
:EPL001:  1.9306 -1.1105    5.1566  0.1560    0.0816  0.0924    0.0304  0.1169
        Q-s-hi  E-s-hi    Q-p-hi  E-p-hi    Q-d-hi  E-d-hi    Q-f-hi  E-f-hi 
:EPH001:  0.1165  1.3701    0.1363  1.3528    1.4276  1.3136    1.9068  1.4185

:CHA  : TOTAL VALENCE CHARGE INSIDE UNIT CELL =      13.000000

:SUM  : SUM OF EIGENVALUES =           5.419566265



   QTL-B VALUE .EQ.    2.17483   in Band of energy    1.34244   ATOM=    1   L=  3
    Most likely no ghostbands, but adjust Energy-parameters for this ATOM and L


:WARN : QTL-B value eq.   2.17 in Band of energy   1.34244  ATOM=    1  L=  3
:WARN : You should change the E-parameter for this atom and L-value in case.in1 (or try the -in1new switch)

        1.ATOM      Pr                   14 CORE STATES
:1S 001: 1S               -3066.020743951 Ry
:2S 001: 2S                -491.784040653 Ry
:2PP001: 2P*               -464.881927703 Ry
:2P 001: 2P                -429.485009057 Ry
:3S 001: 3S                -104.879727281 Ry
:3PP001: 3P*                -93.417315886 Ry
:3P 001: 3P                 -86.409635775 Ry
:3DD001: 3D*                -66.336393088 Ry
:3D 001: 3D                 -64.824897844 Ry
:4S 001: 4S                 -19.552892323 Ry
:4PP001: 4P*                -15.259619585 Ry
:4P 001: 4P                 -13.732006228 Ry
:4DD001: 4D*                 -6.665898854 Ry
:4D 001: 4D                  -6.396586899 Ry
:CINT001 Core Integral Atom   1   45.999462

       DENSITY AT NUCLEUS
        JATOM        VALENCE       SEMI-CORE          CORE           TOTAL
:RTO001:   1      643.645456        0.000000   656823.132257   657466.777713
     
       CHARGES OF NEW CHARGE DENSITY
:NTO   : INTERSTITIAL CHARGE =     2.195282
:NPC   : PW Pseudocharge     =     8.782112
:NTO001: CHARGE SPHERE  1    =    56.804153

:NEC01: NUCLEAR AND ELECTRONIC CHARGE     59.00000    58.99943
     
       CHARGES OF OLD CHARGE DENSITY
:OTO   : INTERSTITIAL CHARGE =     1.976007
:OPC   : PW Pseudocharge     =     8.585867
:OTO001: CHARGE SPHERE  1    =    57.023993

:NEC02: NUCLEAR AND ELECTRONIC CHARGE     59.00000    59.00000
     
       CONVERGENCE TEST
:DTO001: DIFFERENCE IN SPHERE  1 =  0.5672496

:DIS  :  CHARGE DISTANCE       ( 0.5672496 for atom    1 spin 1)      0.5672496
 PW Mixed is           29
 
******************************************************
* MULTISECANT MIXING VER9 RELEASE 10.4.0              *
* Slow Mode, cautious                                *
* Fixed density scale                                *
* Regularization       1.000E-04                     *
* Step Trust Radius    0.75000                       *
* Trust Upper Limit    2.000E+00                     *
* Max Number of Memory Steps   12                    *
******************************************************
 
:PWTMP   4.5573E+01  1.2500E+02  1.1102E+02
:PLANE:  PW TOTAL      2.8256 DISTAN   1.94E-01  6.86E+00 %
:CHARG:  CLM/ATOM    977.2466 DISTAN   5.80E-01  5.93E-02 %
 
Step History
        DMIX         DMIXT        Red     Pred      Trust     Lambda    MagRel    MagAbs     Beta
  1   3.5000E-02   3.5000E-02 -1.00E+00  1.00E+00 -1.00E+01  1.00E+00  3.50E-02  3.50E-02  1.00E+00
  2   2.5000E-02   2.5000E-02  7.63E-01  1.00E+00 -1.00E+01  1.00E+00  2.50E-02  2.15E-02  1.00E+00
  3   3.0844E-02   3.0844E-02 -1.00E+00  1.00E+00 -1.00E+01  1.00E+00  3.08E-02  2.02E-02  1.00E+00
:JACOBIANS    6.988E-01   1.038E-02
  
:NORMS:  1/Froebius, Min, Max, Used   0.9740E+00  0.4918E+00  0.9837E+00  0.9740E+00
:INFO :  Number of Memory Steps    2 Skipping    0
:INFO :  SLambda=    0.0245595892  Max    0.0245595892
:PREDicted Charge, CTotal, PW Trust    4.557E-03   4.557E-03   1.554E-01
:PREDicted DMix, Beta, BLim   5.0313E-02  1.0073E+00  3.4162E-01

Eigenvalues, unscaled except for SY+YY
   #     SY Real        SY Imag          SS             YY         SY+YY Real      SY+YY Imag
   1   1.889024E+00   0.000000E+00   1.897493E+00   1.999986E+00   2.046380E+00   0.000000E+00
   2   0.000000E+00   0.000000E+00  -1.110223E-16   1.378673E-05   1.379969E-05   0.000000E+00
 
:INFO :  Singular value  2.046E+00 Weight  1.000E+00 Projection  2.233E-04
:INFO :  Singular value  1.380E-05 Weight  4.738E-03 Projection -6.728E-01
:RANK :  ACTIVE   1.00/2  =  50.24 % ; YY RANK   1.00/2  =  50.24 %
 
:BLIM :  VZERO Control Off
:TRUST:  Step 2.07E-01  Charge 7.50E-02 (e) CTO  2.50E-01 (e) PW  3.50E-01 (e)
:DIRM :  MEMORY  2/12 SCALE   1.000 RED  0.93 PRED  1.00 NEXT  1.00 
:TRAVE:  Charge 8.82E-03 (e) CTO  8.82E-03 (e) PW  7.36E-03 (e)
:DIRP :  |MSR1|= 8.384E-03 |PRATT|= 1.938E-01 ANGLE=   2.7 DEGREES
:DIRQ :  |MSR1|= 2.328E-02 |PRATT|= 5.795E-01 ANGLE=   0.1 DEGREES
:DIRT :  |MSR1|= 2.474E-02 |PRATT|= 6.110E-01 ANGLE=   1.6 DEGREES
:MIX  :   MSD1   REGULARIZATION:  2.00E-04 GREED: 0.04037  Newton 1.00  0.0405                
     
       CHARGES OF MIXED CHARGE DENSITY
:CTO   : INTERSTITIAL CHARGE =     1.984829
:CPC   : PW Pseudocharge     =     8.594977
:CTO001: CHARGE SPHERE  1    =    57.015171

:NEC03: NUCLEAR AND ELECTRONIC CHARGE     59.00000    59.00000

PW CHANGE     H    K    L      Current       Change    Residue
:PTO001:      0    0    0  9.52942176E-02  1.615E-04  3.768E-03
:PTO002:     -1   -1   -1 -1.71119648E-01 -3.772E-04 -8.035E-03
:PTO003:      0    0   -2  8.42223623E-02  1.385E-04  2.588E-03
:PTO004:      0   -2   -2  1.86344127E-02  6.993E-04  1.650E-02
:PTO005:     -1   -1   -3  1.76284624E-02 -7.909E-04 -1.865E-02
:PTO006:     -2   -2   -2 -7.73225428E-03  2.155E-04  5.088E-03
:PTO007:      0    0   -4 -5.52018145E-03  4.924E-05  1.145E-03
:PTO008:     -1   -3   -3  1.36676526E-02 -1.628E-04 -3.942E-03
:PTO009:      0   -2   -4 -1.13922796E-02  8.340E-05  2.011E-03
:PTO010:     -2   -2   -4 -4.66196828E-03 -7.014E-05 -1.697E-03
:PTO011:     -3   -3   -3  7.20663820E-04  3.154E-05  7.590E-04
:PTO012:     -1   -1   -5  2.16380446E-03  9.723E-05  2.343E-03

:ENE  : *WARNING** TOTAL ENERGY IN Ry =       -18472.13988652

 Flat Integration
 New Mode for Coulomb Integral
 Consistent 3/8+Simpson combinations
 Extension of core to zero
 LDM version in phi
 Fifth-order quadrature in outwin


            ---------
:ITE006:  6. ITERATION
            ---------

:NATO :    1 INDEPENDENT AND    1 TOTAL ATOMS IN UNITCELL
       SUBSTANCE: blebleble                                                   

       LATTICE                      = F   
:POT  : POTENTIAL OPTION EX_LDA EC_LDA VX_LDA VC_LDA
:LAT  : LATTICE CONSTANTS=  7.62940  7.62940  7.62940    1.571    1.571    1.571
:VOL  : UNIT CELL VOLUME =     111.02254
       MODE OF CALCULATION IS       = RELA
       NON-SPINPOLARIZED CALCULATION
:IFFT  : FFT-parameters:   60   60   60 Factor: 2.00


   CONVERGENCE PARAMETER FOR PSEUDOCHARGE: NCON=  9
   MAXIMAL VALUE OF RMT(JATOM)*ABSK(NKK) : RK  =29.97764


:VKCOUL :  VK-COUL convergence: 0.851E-07
       ATOMNUMBER=  1 Pr         VCOUL-ZERO =  0.10147E+01
:FIT001: LUSE= 13 SIGMA OF V-XC FIT FOR ATOM  1  0.7083710E-04
:FIT001: LUSE= 13 SIGMA OF V-XC FIT FOR ATOM  1  0.7083710E-04
:DEN  : DENSITY INTEGRAL  =         -7126.80884271   (Ry)
       ELS_POTENTIAL_AT Z=0 and Z=0.5:  -3.15998  -3.15998
       ELS_POTENTIAL_AT Y=0 and Y=0.5:   0.00000   0.00000
:VZERO:v0,v0c,v0x  -4.33094  -3.15998  -1.17096 v5,v5c,v5x  -4.33094  -3.15998  -1.17096
:VZERY:v0,v0c,v0x  -0.97317   0.00000  -0.97317 v5,v5c,v5x  -0.97317   0.00000  -0.97317
:VZERX:v0,v0c,v0x  -0.97317   0.00000  -0.97317 v5,v5c,v5x  -0.97317   0.00000  -0.97317
:LMAX-WF:   10   Non-Spherical LMAX:   4

          ATOMIC SPHERE DEPENDENT PARAMETERS FOR ATOM  Pr        
:e__0001: OVERALL ENERGY PARAMETER IS    1.3003
          OVERALL BASIS SET ON ATOM IS LAPW
:E0_0001: E( 0)=    1.3003
             APW+lo
:E0_0001: E( 0)=   -1.1798   E(BOTTOM)=   -1.585   E(TOP)=   -0.775  4  5   262
             LOCAL ORBITAL
:E1_0001: E( 1)=    1.7003
             APW+lo
:E1_0001: E( 1)=    0.1888   E(BOTTOM)=   -0.492   E(TOP)=    0.870  3  4   255
             LOCAL ORBITAL
:E3_0001: E( 3)=    1.5154   E(BOTTOM)=    1.357   E(TOP)=    1.674  0  1   124
             APW+lo
:E2_0001: E( 2)=    1.3003   E(BOTTOM)=    1.049   E(TOP)= -200.000  2 -1   123
             APW+lo

       K=   0.00000   0.00000   0.00000            1
:RKM  : MATRIX SIZE    85LOs:  20  RKM= 8.24  WEIGHT= 1.00  PGR:    
       EIGENVALUES ARE:
:EIG00001:      -1.2934764    0.4033813    0.4033813    0.4033813    1.3845208
:EIG00006:       1.4102895    1.4905864    1.4905864    1.4905864    1.5781915
:EIG00011:       1.5781915    1.5781915    1.6101691    1.6101691    1.6101691
:EIG00016:       2.0055672    2.0055672    2.5066191    2.8805117    2.9117439
:EIG00021:       2.9117439    2.9117439
       ********************************************************

:KPT   :      NUMBER OF K-POINTS:   165
:GAP (global)   :    0.0    Ry =     0.0   eV (metal)
         Bandranges (emin - emax) and occupancy:
:BAN00001:   1   -1.293476   -1.085983  2.00000000
:BAN00002:   2   -0.161720    0.403381  2.00000000
:BAN00003:   3    0.000352    0.403381  2.00000000
:BAN00004:   4    0.149453    0.403381  2.00000000
:BAN00005:   5    1.080150    1.384521  2.00000000
:BAN00006:   6    1.122734    1.484632  2.00000000
:BAN00007:   7    1.455566    1.536338  0.96329503
:BAN00008:   8    1.473257    1.544814  0.03670985
:BAN00009:   9    1.490586    1.553891 -0.00000488
:BAN00010:  10    1.517540    1.582133  0.00000000
:BAN00011:  11    1.532025    1.602486  0.00000000
:BAN00012:  12    1.566354    1.655292  0.00000000
:BAN00013:  13    1.579204    1.739788  0.00000000
:BAN00014:  14    1.610169    2.392655  0.00000000
        Energy to separate low and high energystates:    1.03015


:NOE  : NUMBER OF ELECTRONS          =   13.000

:FER  : F E R M I - ENERGY(TETRAH.M.)=   1.4880715681
:GMA  : POTENTIAL AND CHARGE CUT-OFF  12.00 Ry**.5

:POS001: ATOM    1 X,Y,Z = 0.00000 0.00000 0.50000  MULT= 1  ZZ= 59.000  Pr        

       LMMAX  5
       LM=   0 0  4 0  4 4  6 0  6 4

:CHA001: TOTAL VALENCE CHARGE INSIDE SPHERE   1 =  10.8464    (RMT=  2.5000 )
:PCS001: PARTIAL CHARGES SPHERE =  1 S,P,D,F,      D-EG,D-T2G 
:QTL001: 2.0397 5.2921 1.4696 2.0273 0.0000 0.0000 0.0000 0.5459 0.9238 0.0000 0.0000 0.0000
        Q-s-low E-s-low   Q-p-low E-p-low   Q-d-low E-d-low   Q-f-low E-f-low
:EPL001:  1.9311 -1.1189    5.1624  0.1502    0.0808  0.0865    0.0302  0.1109
        Q-s-hi  E-s-hi    Q-p-hi  E-p-hi    Q-d-hi  E-d-hi    Q-f-hi  E-f-hi 
:EPH001:  0.1086  1.3573    0.1297  1.3447    1.3889  1.3062    1.9971  1.4093

:CHA  : TOTAL VALENCE CHARGE INSIDE UNIT CELL =      13.000000

:SUM  : SUM OF EIGENVALUES =           5.335601729



   QTL-B VALUE .EQ.    2.10840   in Band of energy    1.28785   ATOM=    1   L=  3
    Most likely no ghostbands, but adjust Energy-parameters for this ATOM and L


:WARN : QTL-B value eq.   2.11 in Band of energy   1.28785  ATOM=    1  L=  3
:WARN : You should change the E-parameter for this atom and L-value in case.in1 (or try the -in1new switch)

        1.ATOM      Pr                   14 CORE STATES
:1S 001: 1S               -3066.051484915 Ry
:2S 001: 2S                -491.814023702 Ry
:2PP001: 2P*               -464.911993962 Ry
:2P 001: 2P                -429.515037287 Ry
:3S 001: 3S                -104.908876343 Ry
:3PP001: 3P*                -93.446538120 Ry
:3P 001: 3P                 -86.438738093 Ry
:3DD001: 3D*                -66.365682968 Ry
:3D 001: 3D                 -64.854158052 Ry
:4S 001: 4S                 -19.576242070 Ry
:4PP001: 4P*                -15.282603545 Ry
:4P 001: 4P                 -13.754426526 Ry
:4DD001: 4D*                 -6.687272799 Ry
:4D 001: 4D                  -6.417763429 Ry
:CINT001 Core Integral Atom   1   45.999468

       DENSITY AT NUCLEUS
        JATOM        VALENCE       SEMI-CORE          CORE           TOTAL
:RTO001:   1      641.903350        0.000000   656824.459796   657466.363146
     
       CHARGES OF NEW CHARGE DENSITY
:NTO   : INTERSTITIAL CHARGE =     2.153587
:NPC   : PW Pseudocharge     =     8.724014
:NTO001: CHARGE SPHERE  1    =    56.845854

:NEC01: NUCLEAR AND ELECTRONIC CHARGE     59.00000    58.99944
     
       CHARGES OF OLD CHARGE DENSITY
:OTO   : INTERSTITIAL CHARGE =     1.984829
:OPC   : PW Pseudocharge     =     8.594977
:OTO001: CHARGE SPHERE  1    =    57.015171

:NEC02: NUCLEAR AND ELECTRONIC CHARGE     59.00000    59.00000
     
       CONVERGENCE TEST
:DTO001: DIFFERENCE IN SPHERE  1 =  0.4357576

:DIS  :  CHARGE DISTANCE       ( 0.4357576 for atom    1 spin 1)      0.4357576
 PW Mixed is           29
 
******************************************************
* MULTISECANT MIXING VER9 RELEASE 10.4.0              *
* Standard Mode with controls                        *
* Fixed density scale                                *
* Regularization       1.000E-04                     *
* Trust Upper Limit    5.000E+00                     *
* Max Number of Memory Steps    8                    *
******************************************************
 
:PWTMP   4.5573E+01  1.2500E+02  1.1102E+02
:PLANE:  PW TOTAL      2.8308 DISTAN   1.72E-01  6.08E+00 %
:CHARG:  CLM/ATOM    977.2418 DISTAN   4.51E-01  4.62E-02 %
 
Step History
        DMIX         DMIXT        Red     Pred      Trust     Lambda    MagRel    MagAbs     Beta
  1   3.5000E-02   3.5000E-02 -1.00E+00  1.00E+00 -1.00E+01  1.00E+00  3.50E-02  3.50E-02  1.00E+00
  2   2.5000E-02   2.5000E-02  7.63E-01  1.00E+00 -1.00E+01  1.00E+00  2.50E-02  2.15E-02  1.00E+00
  3   3.0844E-02   3.0844E-02  9.32E-01  1.00E+00 -1.00E+01  2.46E-02  3.08E-02  2.02E-02  1.00E+00
  4   4.0368E-02   4.0368E-02 -1.00E+00  9.96E-01  2.07E-01  1.00E+00  4.05E-02  2.47E-02  1.00E+00
:JACOBIANS    8.473E-01   8.151E-02
  
:NORMS:  1/Froebius, Min, Max, Used   0.6893E+00  0.3958E+00  0.9940E+00  0.7726E+00
:INFO :  Number of Memory Steps    3 Skipping    0
:INFO :  SLambda=    1.7293897946  Max    1.7293897946
:PREDicted Charge, CTotal, PW Trust    3.624E-02   3.624E-02   9.259E-02
:PREDicted DMix, Beta, BLim   1.9381E-01  2.5845E+00  4.1165E-01

Eigenvalues, unscaled except for SY+YY
   #     SY Real        SY Imag          SS             YY         SY+YY Real      SY+YY Imag
   1   1.417515E+00   0.000000E+00   1.395226E+00   2.337131E+00   4.574795E+00   0.000000E+00
   2   2.424032E-15   0.000000E+00   3.031952E-02   6.628680E-01   9.416078E-07   0.000000E+00
   3   1.666109E-01   0.000000E+00   1.105602E-16   8.927423E-07   1.164774E+00   0.000000E+00
 
:INFO :  Singular value  4.578E+00 Weight  1.000E+00 Projection -2.971E-02
:INFO :  Singular value  1.164E+00 Weight  1.000E+00 Projection -4.794E-01
:INFO :  Singular value  9.416E-07 Weight  1.623E-05 Projection  1.744E-03
:RANK :  ACTIVE   2.00/3  =  66.67 % ; YY RANK   2.00/3  =  66.67 %
 
:BLIM :  VZERO Control Off
:TRUST:  Step 3.05E-01  Charge 7.50E-02 (e) CTO  2.50E-01 (e) PW  3.50E-01 (e)
:DIRM :  MEMORY  3/8  SCALE   1.000 RED  0.79 PRED  1.00 NEXT  0.47 
:TRAVE:  Charge 1.84E-02 (e) CTO  1.84E-02 (e) PW  4.05E-02 (e)
:DIRP :  |MSR1|= 1.124E-01 |PRATT|= 1.722E-01 ANGLE=  23.9 DEGREES
:DIRQ :  |MSR1|= 7.754E-02 |PRATT|= 4.512E-01 ANGLE=   9.1 DEGREES
:DIRT :  |MSR1|= 1.365E-01 |PRATT|= 4.830E-01 ANGLE=  37.6 DEGREES
:MIX  :   MSE1   REGULARIZATION:  2.34E-04 GREED: 0.10092  Newton 1.00  0.2827                
     
       CHARGES OF MIXED CHARGE DENSITY
:CTO   : INTERSTITIAL CHARGE =     2.012813
:CPC   : PW Pseudocharge     =     8.746251
:CTO001: CHARGE SPHERE  1    =    56.987187

:NEC03: NUCLEAR AND ELECTRONIC CHARGE     59.00000    59.00000

PW CHANGE     H    K    L      Current       Change    Residue
:PTO001:      0    0    0  9.69088317E-02  1.615E-03  2.708E-03
:PTO002:     -1   -1   -1 -1.78942998E-01 -7.823E-03 -7.457E-03
:PTO003:      0    0   -2  8.87422803E-02  4.520E-03  2.353E-03
:PTO004:      0   -2   -2  2.60079426E-02  7.374E-03  1.536E-02
:PTO005:     -1   -1   -3  9.22263903E-03 -8.406E-03 -1.738E-02
:PTO006:     -2   -2   -2 -5.45683793E-03  2.275E-03  4.706E-03
:PTO007:      0    0   -4 -4.91304318E-03  6.071E-04  1.070E-03
:PTO008:     -1   -3   -3  1.23541586E-02 -1.313E-03 -3.603E-03
:PTO009:      0   -2   -4 -1.06671929E-02  7.251E-04  1.800E-03
:PTO010:     -2   -2   -4 -5.18147248E-03 -5.195E-04 -1.699E-03
:PTO011:     -3   -3   -3  9.79786825E-04  2.591E-04  7.402E-04
:PTO012:     -1   -1   -5  2.95032768E-03  7.865E-04  2.274E-03

:ENE  : *WARNING** TOTAL ENERGY IN Ry =       -18472.13292587

 Flat Integration
 New Mode for Coulomb Integral
 Consistent 3/8+Simpson combinations
 Extension of core to zero
 LDM version in phi
 Fifth-order quadrature in outwin


            ---------
:ITE007:  7. ITERATION
            ---------

:NATO :    1 INDEPENDENT AND    1 TOTAL ATOMS IN UNITCELL
       SUBSTANCE: blebleble                                                   

       LATTICE                      = F   
:POT  : POTENTIAL OPTION EX_LDA EC_LDA VX_LDA VC_LDA
:LAT  : LATTICE CONSTANTS=  7.62940  7.62940  7.62940    1.571    1.571    1.571
:VOL  : UNIT CELL VOLUME =     111.02254
       MODE OF CALCULATION IS       = RELA
       NON-SPINPOLARIZED CALCULATION
:IFFT  : FFT-parameters:   60   60   60 Factor: 2.00


   CONVERGENCE PARAMETER FOR PSEUDOCHARGE: NCON=  9
   MAXIMAL VALUE OF RMT(JATOM)*ABSK(NKK) : RK  =29.97764


:VKCOUL :  VK-COUL convergence: 0.864E-07
       ATOMNUMBER=  1 Pr         VCOUL-ZERO =  0.10201E+01
:FIT001: LUSE= 13 SIGMA OF V-XC FIT FOR ATOM  1  0.7557135E-04
:FIT001: LUSE= 13 SIGMA OF V-XC FIT FOR ATOM  1  0.7557135E-04
:DEN  : DENSITY INTEGRAL  =         -7122.87074032   (Ry)
       ELS_POTENTIAL_AT Z=0 and Z=0.5:  -3.18363  -3.18363
       ELS_POTENTIAL_AT Y=0 and Y=0.5:   0.00000   0.00000
:VZERO:v0,v0c,v0x  -4.36288  -3.18363  -1.17926 v5,v5c,v5x  -4.36288  -3.18363  -1.17926
:VZERY:v0,v0c,v0x  -0.97669   0.00000  -0.97669 v5,v5c,v5x  -0.97669   0.00000  -0.97669
:VZERX:v0,v0c,v0x  -0.97669   0.00000  -0.97669 v5,v5c,v5x  -0.97669   0.00000  -0.97669
:LMAX-WF:   10   Non-Spherical LMAX:   4

          ATOMIC SPHERE DEPENDENT PARAMETERS FOR ATOM  Pr        
:e__0001: OVERALL ENERGY PARAMETER IS    1.2921
          OVERALL BASIS SET ON ATOM IS LAPW
:E0_0001: E( 0)=    1.2921
             APW+lo
:E0_0001: E( 0)=   -1.2071   E(BOTTOM)=   -1.607   E(TOP)=   -0.807  4  5   256
             LOCAL ORBITAL
:E1_0001: E( 1)=    1.6921
             APW+lo
:E1_0001: E( 1)=    0.1663   E(BOTTOM)=   -0.508   E(TOP)=    0.841  3  4   260
             LOCAL ORBITAL
:E3_0001: E( 3)=    1.4660   E(BOTTOM)=    1.315   E(TOP)=    1.618  0  1   115
             APW+lo
:E2_0001: E( 2)=    1.2921   E(BOTTOM)=    1.038   E(TOP)= -200.000  2 -1   123
             APW+lo

       K=   0.00000   0.00000   0.00000            1
:RKM  : MATRIX SIZE    85LOs:  20  RKM= 8.24  WEIGHT= 1.00  PGR:    
       EIGENVALUES ARE:
:EIG00001:      -1.3169193    0.3796018    0.3796018    0.3796018    1.3476941
:EIG00006:       1.4009762    1.4447712    1.4447712    1.4447712    1.5562516
:EIG00011:       1.5562516    1.5562516    1.5697951    1.5697951    1.5697951
:EIG00016:       1.9929914    1.9929914    2.4892059    2.8819010    2.9019843
:EIG00021:       2.9019843    2.9019843
       ********************************************************

:KPT   :      NUMBER OF K-POINTS:   165
:GAP (global)   :    0.0    Ry =     0.0   eV (metal)
         Bandranges (emin - emax) and occupancy:
:BAN00001:   1   -1.316919   -1.114031  2.00000000
:BAN00002:   2   -0.175979    0.379602  2.00000000
:BAN00003:   3   -0.015742    0.379602  2.00000000
:BAN00004:   4    0.131234    0.379602  2.00000000
:BAN00005:   5    1.075350    1.347694  2.00000000
:BAN00006:   6    1.117789    1.439537  2.00000000
:BAN00007:   7    1.420009    1.487604  0.95524796
:BAN00008:   8    1.432481    1.495363  0.04155137
:BAN00009:   9    1.444771    1.512085  0.00320068
:BAN00010:  10    1.474722    1.556252  0.00000000
:BAN00011:  11    1.495067    1.556252  0.00000000
:BAN00012:  12    1.514767    1.621927  0.00000000
:BAN00013:  13    1.527129    1.726078  0.00000000
:BAN00014:  14    1.559749    2.375835  0.00000000
        Energy to separate low and high energystates:    1.02535


:NOE  : NUMBER OF ELECTRONS          =   13.000

:FER  : F E R M I - ENERGY(TETRAH.M.)=   1.4468931144
:GMA  : POTENTIAL AND CHARGE CUT-OFF  12.00 Ry**.5

:POS001: ATOM    1 X,Y,Z = 0.00000 0.00000 0.50000  MULT= 1  ZZ= 59.000  Pr        

       LMMAX  5
       LM=   0 0  4 0  4 4  6 0  6 4

:CHA001: TOTAL VALENCE CHARGE INSIDE SPHERE   1 =  10.9727    (RMT=  2.5000 )
:PCS001: PARTIAL CHARGES SPHERE =  1 S,P,D,F,      D-EG,D-T2G 
:QTL001: 2.0224 5.2908 1.3465 2.2969 0.0000 0.0000 0.0000 0.5020 0.8444 0.0000 0.0000 0.0000
        Q-s-low E-s-low   Q-p-low E-p-low   Q-d-low E-d-low   Q-f-low E-f-low
:EPL001:  1.9327 -1.1464    5.1810  0.1311    0.0779  0.0670    0.0294  0.0913
        Q-s-hi  E-s-hi    Q-p-hi  E-p-hi    Q-d-hi  E-d-hi    Q-f-hi  E-f-hi 
:EPH001:  0.0897  1.3214    0.1098  1.3187    1.2685  1.2828    2.2674  1.3771

:CHA  : TOTAL VALENCE CHARGE INSIDE UNIT CELL =      13.000000

:SUM  : SUM OF EIGENVALUES =           5.054351790


        1.ATOM      Pr                   14 CORE STATES
:1S 001: 1S               -3066.141949591 Ry
:2S 001: 2S                -491.901303852 Ry
:2PP001: 2P*               -464.999542340 Ry
:2P 001: 2P                -429.602451311 Ry
:3S 001: 3S                -104.994954595 Ry
:3PP001: 3P*                -93.532764475 Ry
:3P 001: 3P                 -86.524695862 Ry
:3DD001: 3D*                -66.451899656 Ry
:3D 001: 3D                 -64.940317239 Ry
:4S 001: 4S                 -19.647692137 Ry
:4PP001: 4P*                -15.353056911 Ry
:4P 001: 4P                 -13.823374815 Ry
:4DD001: 4D*                 -6.753274600 Ry
:4D 001: 4D                  -6.483223857 Ry
:CINT001 Core Integral Atom   1   45.999487

       DENSITY AT NUCLEUS
        JATOM        VALENCE       SEMI-CORE          CORE           TOTAL
:RTO001:   1      638.935758        0.000000   656828.019616   657466.955374
     
       CHARGES OF NEW CHARGE DENSITY
:NTO   : INTERSTITIAL CHARGE =     2.027294
:NPC   : PW Pseudocharge     =     8.550615
:NTO001: CHARGE SPHERE  1    =    56.972165

:NEC01: NUCLEAR AND ELECTRONIC CHARGE     59.00000    58.99946
     
       CHARGES OF OLD CHARGE DENSITY
:OTO   : INTERSTITIAL CHARGE =     2.012813
:OPC   : PW Pseudocharge     =     8.746251
:OTO001: CHARGE SPHERE  1    =    56.987187

:NEC02: NUCLEAR AND ELECTRONIC CHARGE     59.00000    59.00000
     
       CONVERGENCE TEST
:DTO001: DIFFERENCE IN SPHERE  1 =  0.1539713

:DIS  :  CHARGE DISTANCE       ( 0.1539713 for atom    1 spin 1)      0.1539713
 PW Mixed is           29
 
******************************************************
* MULTISECANT MIXING VER9 RELEASE 10.4.0              *
* Standard Mode with controls                        *
* Fixed density scale                                *
* Regularization       1.000E-04                     *
* Trust Upper Limit    5.000E+00                     *
* Max Number of Memory Steps    8                    *
******************************************************
 
:PWTMP   4.5573E+01  1.2500E+02  1.1102E+02
:PLANE:  PW TOTAL      2.9100 DISTAN   8.07E-02  2.77E+00 %
:CHARG:  CLM/ATOM    977.2229 DISTAN   1.81E-01  1.85E-02 %
 
Step History
        DMIX         DMIXT        Red     Pred      Trust     Lambda    MagRel    MagAbs     Beta
  1   3.5000E-02   3.5000E-02 -1.00E+00  1.00E+00 -1.00E+01  1.00E+00  3.50E-02  3.50E-02  1.00E+00
  2   2.5000E-02   2.5000E-02  7.63E-01  1.00E+00 -1.00E+01  1.00E+00  2.50E-02  2.15E-02  1.00E+00
  3   3.0844E-02   3.0844E-02  9.32E-01  1.00E+00 -1.00E+01  2.46E-02  3.08E-02  2.02E-02  1.00E+00
  4   4.0368E-02   4.0368E-02  7.90E-01  9.96E-01  2.07E-01  1.73E+00  4.05E-02  2.47E-02  1.00E+00
  5   1.0092E-01   1.0092E-01 -1.00E+00  4.70E-01  3.05E-01  1.00E+00  2.83E-01  1.37E-01  1.00E+00
:JACOBIANS    9.277E-01   1.665E-01
  
:NORMS:  1/Froebius, Min, Max, Used   0.3675E+00  0.3460E+00  0.9935E+00  0.3905E+00
:INFO :  Number of Memory Steps    4 Skipping    0
:INFO :  SLambda=    1.3500965452  Max    1.3500965452
:PREDicted Charge, CTotal, PW Trust    3.068E-02   3.068E-02   6.864E-02
:PREDicted DMix, Beta, BLim   1.8405E-01  1.2134E+00  8.7336E-01

Eigenvalues, unscaled except for SY+YY
   #     SY Real        SY Imag          SS             YY         SY+YY Real      SY+YY Imag
   1   5.467944E-01   0.000000E+00   4.294236E-01   3.587247E+00   4.323511E+00   0.000000E+00
   2   4.103691E-01   0.000000E+00   1.108140E-01   4.125786E-01   9.685866E-01   0.000000E+00
   3   6.427236E-16   0.000000E+00   5.796357E-05   1.739284E-04   2.064938E-07   0.000000E+00
   4   1.060088E-04   0.000000E+00  -2.858147E-17   2.054808E-07   3.087628E-04   0.000000E+00
 
:INFO :  Singular value  4.325E+00 Weight  1.000E+00 Projection  6.577E-05
:INFO :  Singular value  9.683E-01 Weight  1.000E+00 Projection -1.490E-02
:INFO :  Singular value  3.088E-04 Weight  4.256E-01 Projection -6.163E+00
:INFO :  Singular value  2.065E-07 Weight  3.314E-07 Projection  1.397E-05
:RANK :  ACTIVE   2.43/4  =  60.64 % ; YY RANK   2.19/4  =  54.76 %
 
:BLIM :  VZERO Control Off
:TRUST:  Step 5.65E-01  Charge 7.50E-02 (e) CTO  2.00E-01 (e) PW  2.80E-01 (e)
:DIRM :  MEMORY  4/8  SCALE   1.000 RED  0.41 PRED  0.47 NEXT  0.68 
:TRAVE:  Charge 1.15E-02 (e) CTO  1.15E-02 (e) PW  2.62E-02 (e)
:DIRP :  |MSR1|= 3.556E-02 |PRATT|= 8.070E-02 ANGLE=  35.1 DEGREES
:DIRQ :  |MSR1|= 6.195E-02 |PRATT|= 1.813E-01 ANGLE=   2.1 DEGREES
:DIRT :  |MSR1|= 7.143E-02 |PRATT|= 1.984E-01 ANGLE=  16.8 DEGREES
:MIX  :   MSE1   REGULARIZATION:  3.59E-04 GREED: 0.12611  Newton 1.00  0.3600                
     
       CHARGES OF MIXED CHARGE DENSITY
:CTO   : INTERSTITIAL CHARGE =     2.017480
:CPC   : PW Pseudocharge     =     8.712395
:CTO001: CHARGE SPHERE  1    =    56.982520

:NEC03: NUCLEAR AND ELECTRONIC CHARGE     59.00000    59.00000

PW CHANGE     H    K    L      Current       Change    Residue
:PTO001:      0    0    0  9.66459154E-02 -2.629E-04 -1.606E-03
:PTO002:     -1   -1   -1 -1.80269711E-01 -1.327E-03  6.806E-04
:PTO003:      0    0   -2  8.90307390E-02  2.885E-04 -2.122E-03
:PTO004:      0   -2   -2  2.94925814E-02  3.485E-03  7.073E-03
:PTO005:     -1   -1   -3  5.25772840E-03 -3.965E-03 -8.014E-03
:PTO006:     -2   -2   -2 -4.37188868E-03  1.085E-03  2.171E-03
:PTO007:      0    0   -4 -4.67682873E-03  2.362E-04  4.070E-04
:PTO008:     -1   -3   -3  1.15550245E-02 -7.991E-04 -1.881E-03
:PTO009:      0   -2   -4 -1.03192360E-02  3.480E-04  7.356E-04
:PTO010:     -2   -2   -4 -5.68393583E-03 -5.025E-04 -1.372E-03
:PTO011:     -3   -3   -3  1.17967844E-03  1.999E-04  5.143E-04
:PTO012:     -1   -1   -5  3.56645879E-03  6.161E-04  1.584E-03

:ENE  : ********** TOTAL ENERGY IN Ry =       -18472.12294788

 Flat Integration
 New Mode for Coulomb Integral
 Consistent 3/8+Simpson combinations
 Extension of core to zero
 LDM version in phi
 Fifth-order quadrature in outwin


            ---------
:ITE008:  8. ITERATION
            ---------

:NATO :    1 INDEPENDENT AND    1 TOTAL ATOMS IN UNITCELL
       SUBSTANCE: blebleble                                                   

       LATTICE                      = F   
:POT  : POTENTIAL OPTION EX_LDA EC_LDA VX_LDA VC_LDA
:LAT  : LATTICE CONSTANTS=  7.62940  7.62940  7.62940    1.571    1.571    1.571
:VOL  : UNIT CELL VOLUME =     111.02254
       MODE OF CALCULATION IS       = RELA
       NON-SPINPOLARIZED CALCULATION
:IFFT  : FFT-parameters:   60   60   60 Factor: 2.00


   CONVERGENCE PARAMETER FOR PSEUDOCHARGE: NCON=  9
   MAXIMAL VALUE OF RMT(JATOM)*ABSK(NKK) : RK  =29.97764


:VKCOUL :  VK-COUL convergence: 0.902E-07
       ATOMNUMBER=  1 Pr         VCOUL-ZERO =  0.10142E+01
:FIT001: LUSE= 13 SIGMA OF V-XC FIT FOR ATOM  1  0.8541439E-04
:FIT001: LUSE= 13 SIGMA OF V-XC FIT FOR ATOM  1  0.8541439E-04
:DEN  : DENSITY INTEGRAL  =         -7122.60294059   (Ry)
       ELS_POTENTIAL_AT Z=0 and Z=0.5:  -3.17008  -3.17008
       ELS_POTENTIAL_AT Y=0 and Y=0.5:   0.00000   0.00000
:VZERO:v0,v0c,v0x  -4.34617  -3.17008  -1.17609 v5,v5c,v5x  -4.34617  -3.17008  -1.17609
:VZERY:v0,v0c,v0x  -0.97553   0.00000  -0.97553 v5,v5c,v5x  -0.97553   0.00000  -0.97553
:VZERX:v0,v0c,v0x  -0.97553   0.00000  -0.97553 v5,v5c,v5x  -0.97553   0.00000  -0.97553
:LMAX-WF:   10   Non-Spherical LMAX:   4

          ATOMIC SPHERE DEPENDENT PARAMETERS FOR ATOM  Pr        
:e__0001: OVERALL ENERGY PARAMETER IS    1.2620
          OVERALL BASIS SET ON ATOM IS LAPW
:E0_0001: E( 0)=    1.2620
             APW+lo
:E0_0001: E( 0)=   -1.2196   E(BOTTOM)=   -1.619   E(TOP)=   -0.821  4  5   260
             LOCAL ORBITAL
:E1_0001: E( 1)=    1.6620
             APW+lo
:E1_0001: E( 1)=    0.1545   E(BOTTOM)=   -0.519   E(TOP)=    0.828  3  4   254
             LOCAL ORBITAL
:E3_0001: E( 3)=    1.4546   E(BOTTOM)=    1.303   E(TOP)=    1.606  0  1   117
             APW+lo
:E2_0001: E( 2)=    1.2620   E(BOTTOM)=    1.028   E(TOP)= -200.000  2 -1   121
             APW+lo

       K=   0.00000   0.00000   0.00000            1
:RKM  : MATRIX SIZE    85LOs:  20  RKM= 8.24  WEIGHT= 1.00  PGR:    
       EIGENVALUES ARE:
:EIG00001:      -1.3287886    0.3675621    0.3675621    0.3675621    1.3376106
:EIG00006:       1.3917985    1.4332449    1.4332449    1.4332449    1.5447538
:EIG00011:       1.5447538    1.5447538    1.5610006    1.5610006    1.5610006
:EIG00016:       1.9827367    1.9827367    2.4824998    2.8737857    2.8935860
:EIG00021:       2.8935860    2.8935860
       ********************************************************

:KPT   :      NUMBER OF K-POINTS:   165
:GAP (global)   :    0.0    Ry =     0.0   eV (metal)
         Bandranges (emin - emax) and occupancy:
:BAN00001:   1   -1.328789   -1.126630  2.00000000
:BAN00002:   2   -0.186399    0.367562  2.00000000
:BAN00003:   3   -0.026477    0.367562  2.00000000
:BAN00004:   4    0.120063    0.367562  2.00000000
:BAN00005:   5    1.065770    1.337611  2.00000000
:BAN00006:   6    1.109948    1.428364  2.00000000
:BAN00007:   7    1.409328    1.476259  0.95487039
:BAN00008:   8    1.421474    1.483958  0.04168997
:BAN00009:   9    1.433245    1.500968  0.00343963
:BAN00010:  10    1.463257    1.544754  0.00000000
:BAN00011:  11    1.485300    1.544754  0.00000000
:BAN00012:  12    1.503022    1.611894  0.00000000
:BAN00013:  13    1.516052    1.716080  0.00000000
:BAN00014:  14    1.548248    2.364714  0.00000000
        Energy to separate low and high energystates:    1.01577


:NOE  : NUMBER OF ELECTRONS          =   13.000

:FER  : F E R M I - ENERGY(TETRAH.M.)=   1.4357948578
:GMA  : POTENTIAL AND CHARGE CUT-OFF  12.00 Ry**.5

:POS001: ATOM    1 X,Y,Z = 0.00000 0.00000 0.50000  MULT= 1  ZZ= 59.000  Pr        

       LMMAX  5
       LM=   0 0  4 0  4 4  6 0  6 4

:CHA001: TOTAL VALENCE CHARGE INSIDE SPHERE   1 =  10.9817    (RMT=  2.5000 )
:PCS001: PARTIAL CHARGES SPHERE =  1 S,P,D,F,      D-EG,D-T2G 
:QTL001: 2.0217 5.2927 1.3398 2.3115 0.0000 0.0000 0.0000 0.5006 0.8392 0.0000 0.0000 0.0000
        Q-s-low E-s-low   Q-p-low E-p-low   Q-d-low E-d-low   Q-f-low E-f-low
:EPL001:  1.9329 -1.1589    5.1842  0.1199    0.0774  0.0558    0.0293  0.0800
        Q-s-hi  E-s-hi    Q-p-hi  E-p-hi    Q-d-hi  E-d-hi    Q-f-hi  E-f-hi 
:EPH001:  0.0888  1.3113    0.1084  1.3085    1.2624  1.2730    2.2822  1.3666

:CHA  : TOTAL VALENCE CHARGE INSIDE UNIT CELL =      13.000000

:SUM  : SUM OF EIGENVALUES =           4.912832692


        1.ATOM      Pr                   14 CORE STATES
:1S 001: 1S               -3066.140683587 Ry
:2S 001: 2S                -491.897198035 Ry
:2PP001: 2P*               -464.995521121 Ry
:2P 001: 2P                -429.598359073 Ry
:3S 001: 3S                -104.994585573 Ry
:3PP001: 3P*                -93.532186132 Ry
:3P 001: 3P                 -86.524393471 Ry
:3DD001: 3D*                -66.450694830 Ry
:3D 001: 3D                 -64.939205991 Ry
:4S 001: 4S                 -19.656224858 Ry
:4PP001: 4P*                -15.361929719 Ry
:4P 001: 4P                 -13.832868524 Ry
:4DD001: 4D*                 -6.763428889 Ry
:4D 001: 4D                  -6.493550199 Ry
:CINT001 Core Integral Atom   1   45.999487

       DENSITY AT NUCLEUS
        JATOM        VALENCE       SEMI-CORE          CORE           TOTAL
:RTO001:   1      639.198331        0.000000   656826.651989   657465.850320
     
       CHARGES OF NEW CHARGE DENSITY
:NTO   : INTERSTITIAL CHARGE =     2.018256
:NPC   : PW Pseudocharge     =     8.541817
:NTO001: CHARGE SPHERE  1    =    56.981202

:NEC01: NUCLEAR AND ELECTRONIC CHARGE     59.00000    58.99946
     
       CHARGES OF OLD CHARGE DENSITY
:OTO   : INTERSTITIAL CHARGE =     2.017480
:OPC   : PW Pseudocharge     =     8.712395
:OTO001: CHARGE SPHERE  1    =    56.982520

:NEC02: NUCLEAR AND ELECTRONIC CHARGE     59.00000    59.00000
     
       CONVERGENCE TEST
:DTO001: DIFFERENCE IN SPHERE  1 =  0.0939361

:DIS  :  CHARGE DISTANCE       ( 0.0939361 for atom    1 spin 1)      0.0939361
 PW Mixed is           29
 
******************************************************
* MULTISECANT MIXING VER9 RELEASE 10.4.0              *
* Standard Mode with controls                        *
* Fixed density scale                                *
* Regularization       1.000E-04                     *
* Trust Upper Limit    5.000E+00                     *
* Max Number of Memory Steps    8                    *
******************************************************
 
:PWTMP   4.5573E+01  1.2500E+02  1.1102E+02
:PLANE:  PW TOTAL      2.9129 DISTAN   5.68E-02  1.95E+00 %
:CHARG:  CLM/ATOM    977.2093 DISTAN   1.11E-01  1.14E-02 %
 
Step History
        DMIX         DMIXT        Red     Pred      Trust     Lambda    MagRel    MagAbs     Beta
  1   3.5000E-02   3.5000E-02 -1.00E+00  1.00E+00 -1.00E+01  1.00E+00  3.50E-02  3.50E-02  1.00E+00
  2   2.5000E-02   2.5000E-02  7.63E-01  1.00E+00 -1.00E+01  1.00E+00  2.50E-02  2.15E-02  1.00E+00
  3   3.0844E-02   3.0844E-02  9.32E-01  1.00E+00 -1.00E+01  2.46E-02  3.08E-02  2.02E-02  1.00E+00
  4   4.0368E-02   4.0368E-02  7.90E-01  9.96E-01  2.07E-01  1.73E+00  4.05E-02  2.47E-02  1.00E+00
  5   1.0092E-01   1.0092E-01  4.11E-01  4.70E-01  3.05E-01  1.35E+00  2.83E-01  1.37E-01  1.00E+00
  6   1.2611E-01   1.2611E-01 -1.00E+00  6.80E-01  5.65E-01  1.00E+00  3.60E-01  7.14E-02  1.00E+00
:JACOBIANS    1.024E+00   5.113E-01
  
:NORMS:  1/Froebius, Min, Max, Used   0.5281E+00  0.4144E+00  0.9944E+00  0.5281E+00
:INFO :  Number of Memory Steps    5 Skipping    0
:INFO :  SLambda=    0.9996932870  Max    0.9996932870
:PREDicted Charge, CTotal, PW Trust    1.065E-02   1.065E-02   6.770E-02
:PREDicted DMix, Beta, BLim   7.4385E-01  2.0161E+00  1.7480E+00

Eigenvalues, unscaled except for SY+YY
   #     SY Real        SY Imag          SS             YY         SY+YY Real      SY+YY Imag
   1   9.525038E-01   0.000000E+00   9.385021E-01   3.619554E+00   4.253243E+00   0.000000E+00
   2   5.288420E-01   0.000000E+00   3.875366E-01   1.039926E+00   1.906793E+00   0.000000E+00
   3   3.458235E-01   0.000000E+00   6.858772E-02   3.404726E-01   6.665253E-01   0.000000E+00
   4   6.487061E-16   0.000000E+00   6.272615E-07   4.764048E-05   1.965509E-07   0.000000E+00
   5   5.118160E-06   0.000000E+00  -1.968558E-17   1.964955E-07   5.251553E-05   0.000000E+00
 
:INFO :  Singular value  4.270E+00 Weight  1.000E+00 Projection -1.451E-02
:INFO :  Singular value  1.901E+00 Weight  1.000E+00 Projection -9.064E-02
:INFO :  Singular value  6.659E-01 Weight  1.000E+00 Projection  1.238E-01
:INFO :  Singular value  5.252E-05 Weight  2.062E-02 Projection -3.150E-02
:INFO :  Singular value  1.966E-07 Weight  2.949E-07 Projection  8.601E-07
:RANK :  ACTIVE   3.02/5  =  60.41 % ; YY RANK   3.02/5  =  60.34 %
 
:BLIM :  VZERO Control Off
:TRUST:  Step 1.08E+00  Charge 6.00E-02 (e) CTO  1.60E-01 (e) PW  2.24E-01 (e)
:DIRM :  MEMORY  5/8  SCALE   1.000 RED  0.63 PRED  0.68 NEXT  0.35 
:TRAVE:  Charge 6.94E-03 (e) CTO  6.94E-03 (e) PW  4.15E-02 (e)
:DIRP :  |MSR1|= 4.737E-02 |PRATT|= 5.675E-02 ANGLE=   1.3 DEGREES
:DIRQ :  |MSR1|= 9.074E-02 |PRATT|= 1.110E-01 ANGLE=   1.6 DEGREES
:DIRT :  |MSR1|= 1.024E-01 |PRATT|= 1.246E-01 ANGLE=   1.6 DEGREES
:MIX  :   MSD1   REGULARIZATION:  3.62E-04 GREED: 0.31526  Newton 1.00  0.8213                
     
       CHARGES OF MIXED CHARGE DENSITY
:CTO   : INTERSTITIAL CHARGE =     2.019816
:CPC   : PW Pseudocharge     =     8.571719
:CTO001: CHARGE SPHERE  1    =    56.980184

:NEC03: NUCLEAR AND ELECTRONIC CHARGE     59.00000    59.00000

PW CHANGE     H    K    L      Current       Change    Residue
:PTO001:      0    0    0  9.53998610E-02 -1.246E-03 -1.504E-03
:PTO002:     -1   -1   -1 -1.78561935E-01  1.708E-03  1.935E-03
:PTO003:      0    0   -2  8.71596475E-02 -1.871E-03 -2.188E-03
:PTO004:      0   -2   -2  3.24214986E-02  2.929E-03  3.570E-03
:PTO005:     -1   -1   -3  1.90522006E-03 -3.353E-03 -4.086E-03
:PTO006:     -2   -2   -2 -3.50429448E-03  8.676E-04  1.037E-03
:PTO007:      0    0   -4 -4.52531495E-03  1.515E-04  1.888E-04
:PTO008:     -1   -3   -3  1.06944842E-02 -8.605E-04 -1.023E-03
:PTO009:      0   -2   -4 -1.00038124E-02  3.154E-04  3.744E-04
:PTO010:     -2   -2   -4 -6.42219523E-03 -7.383E-04 -9.058E-04
:PTO011:     -3   -3   -3  1.44706426E-03  2.674E-04  3.281E-04
:PTO012:     -1   -1   -5  4.36681685E-03  8.004E-04  9.755E-04

:ENE  : ********** TOTAL ENERGY IN Ry =       -18472.12228224

 Flat Integration
 New Mode for Coulomb Integral
 Consistent 3/8+Simpson combinations
 Extension of core to zero
 LDM version in phi
 Fifth-order quadrature in outwin


            ---------
:ITE009:  9. ITERATION
            ---------

:NATO :    1 INDEPENDENT AND    1 TOTAL ATOMS IN UNITCELL
       SUBSTANCE: blebleble                                                   

       LATTICE                      = F   
:POT  : POTENTIAL OPTION EX_LDA EC_LDA VX_LDA VC_LDA
:LAT  : LATTICE CONSTANTS=  7.62940  7.62940  7.62940    1.571    1.571    1.571
:VOL  : UNIT CELL VOLUME =     111.02254
       MODE OF CALCULATION IS       = RELA
       NON-SPINPOLARIZED CALCULATION
:IFFT  : FFT-parameters:   60   60   60 Factor: 2.00


   CONVERGENCE PARAMETER FOR PSEUDOCHARGE: NCON=  9
   MAXIMAL VALUE OF RMT(JATOM)*ABSK(NKK) : RK  =29.97764


:VKCOUL :  VK-COUL convergence: 0.108E-06
       ATOMNUMBER=  1 Pr         VCOUL-ZERO =  0.10019E+01
:FIT001: LUSE= 13 SIGMA OF V-XC FIT FOR ATOM  1  0.1069142E-03
:FIT001: LUSE= 13 SIGMA OF V-XC FIT FOR ATOM  1  0.1069142E-03
:DEN  : DENSITY INTEGRAL  =         -7122.23389815   (Ry)
       ELS_POTENTIAL_AT Z=0 and Z=0.5:  -3.13642  -3.13642
       ELS_POTENTIAL_AT Y=0 and Y=0.5:   0.00000   0.00000
:VZERO:v0,v0c,v0x  -4.30243  -3.13642  -1.16601 v5,v5c,v5x  -4.30243  -3.13642  -1.16601
:VZERY:v0,v0c,v0x  -0.97198   0.00000  -0.97198 v5,v5c,v5x  -0.97198   0.00000  -0.97198
:VZERX:v0,v0c,v0x  -0.97198   0.00000  -0.97198 v5,v5c,v5x  -0.97198   0.00000  -0.97198
:LMAX-WF:   10   Non-Spherical LMAX:   4

          ATOMIC SPHERE DEPENDENT PARAMETERS FOR ATOM  Pr        
:e__0001: OVERALL ENERGY PARAMETER IS    1.2445
          OVERALL BASIS SET ON ATOM IS LAPW
:E0_0001: E( 0)=    1.2445
             APW+lo
:E0_0001: E( 0)=   -1.2384   E(BOTTOM)=   -1.637   E(TOP)=   -0.840  4  5   259
             LOCAL ORBITAL
:E1_0001: E( 1)=    1.6445
             APW+lo
:E1_0001: E( 1)=    0.1363   E(BOTTOM)=   -0.536   E(TOP)=    0.809  3  4   261
             LOCAL ORBITAL
[...]
:BAN00002:   2   -0.206541    0.345971  2.00000000
:BAN00003:   3   -0.046898    0.345971  2.00000000
:BAN00004:   4    0.099195    0.345971  2.00000000
:BAN00005:   5    1.045565    1.319692  2.00000000
:BAN00006:   6    1.092761    1.409482  2.00000000
:BAN00007:   7    1.390500    1.457419  0.95375560
:BAN00008:   8    1.402513    1.465054  0.04242634
:BAN00009:   9    1.413898    1.482490  0.00381806
:BAN00010:  10    1.444042    1.526013  0.00000000
:BAN00011:  11    1.466598    1.526013  0.00000000
:BAN00012:  12    1.483791    1.593582  0.00000000
:BAN00013:  13    1.497746    1.696242  0.00000000
:BAN00014:  14    1.529515    2.343498  0.00000000
        Energy to separate low and high energystates:    0.99557


:NOE  : NUMBER OF ELECTRONS          =   13.000

:FER  : F E R M I - ENERGY(TETRAH.M.)=   1.4167700121
:GMA  : POTENTIAL AND CHARGE CUT-OFF  12.00 Ry**.5

:POS001: ATOM    1 X,Y,Z = 0.00000 0.00000 0.50000  MULT= 1  ZZ= 59.000  Pr        

       LMMAX  5
       LM=   0 0  4 0  4 4  6 0  6 4

:CHA001: TOTAL VALENCE CHARGE INSIDE SPHERE   1 =  10.9846    (RMT=  2.5000 )
:PCS001: PARTIAL CHARGES SPHERE =  1 S,P,D,F,      D-EG,D-T2G 
:QTL001: 2.0217 5.2951 1.3399 2.3119 0.0000 0.0000 0.0000 0.5023 0.8376 0.0000 0.0000 0.0000
        Q-s-low E-s-low   Q-p-low E-p-low   Q-d-low E-d-low   Q-f-low E-f-low
:EPL001:  1.9331 -1.1808    5.1871  0.0991    0.0769  0.0349    0.0291  0.0593
        Q-s-hi  E-s-hi    Q-p-hi  E-p-hi    Q-d-hi  E-d-hi    Q-f-hi  E-f-hi 
:EPH001:  0.0886  1.2926    0.1080  1.2893    1.2630  1.2543    2.2828  1.3476

:CHA  : TOTAL VALENCE CHARGE INSIDE UNIT CELL =      13.000000

:SUM  : SUM OF EIGENVALUES =           4.650439211


        1.ATOM      Pr                   14 CORE STATES
:1S 001: 1S               -3066.157193746 Ry
:2S 001: 2S                -491.905325989 Ry
:2PP001: 2P*               -465.004597537 Ry
:2P 001: 2P                -429.607011778 Ry
:3S 001: 3S                -105.001384519 Ry
:3PP001: 3P*                -93.539053805 Ry
:3P 001: 3P                 -86.531288616 Ry
:3DD001: 3D*                -66.457231382 Ry
:3D 001: 3D                 -64.945748805 Ry
:4S 001: 4S                 -19.670548322 Ry
:4PP001: 4P*                -15.376747317 Ry
:4P 001: 4P                 -13.848476169 Ry
:4DD001: 4D*                 -6.780022752 Ry
:4D 001: 4D                  -6.510372885 Ry
:CINT001 Core Integral Atom   1   45.999486

       DENSITY AT NUCLEUS
        JATOM        VALENCE       SEMI-CORE          CORE           TOTAL
:RTO001:   1      639.570424        0.000000   656826.402506   657465.972930
     
       CHARGES OF NEW CHARGE DENSITY
:NTO   : INTERSTITIAL CHARGE =     2.015371
:NPC   : PW Pseudocharge     =     8.542120
:NTO001: CHARGE SPHERE  1    =    56.984086

:NEC01: NUCLEAR AND ELECTRONIC CHARGE     59.00000    58.99946
     
       CHARGES OF OLD CHARGE DENSITY
:OTO   : INTERSTITIAL CHARGE =     2.016230
:OPC   : PW Pseudocharge     =     8.546699
:OTO001: CHARGE SPHERE  1    =    56.983770

:NEC02: NUCLEAR AND ELECTRONIC CHARGE     59.00000    59.00000
     
       CONVERGENCE TEST
:DTO001: DIFFERENCE IN SPHERE  1 =  0.0007626

:DIS  :  CHARGE DISTANCE       ( 0.0007626 for atom    1 spin 1)      0.0007626
 PW Mixed is           29
 
******************************************************
* MULTISECANT MIXING VER9 RELEASE 10.4.0              *
* Standard Mode with controls                        *
* Fixed density scale                                *
* Regularization       1.000E-04                     *
* Trust Upper Limit    5.000E+00                     *
* Max Number of Memory Steps    8                    *
******************************************************
 
:PWTMP   4.5573E+01  1.2500E+02  1.1102E+02
:PLANE:  PW TOTAL      2.8721 DISTAN   7.65E-04  2.66E-02 %
:CHARG:  CLM/ATOM    977.1716 DISTAN   1.02E-03  1.04E-04 %
 
Step History
        DMIX         DMIXT        Red     Pred      Trust     Lambda    MagRel    MagAbs     Beta
  2   2.5000E-02   2.5000E-02  7.63E-01  1.00E+00 -1.00E+01  1.00E+00  2.50E-02  2.15E-02  1.00E+00
  3   3.0844E-02   3.0844E-02  9.32E-01  1.00E+00 -1.00E+01  2.46E-02  3.08E-02  2.02E-02  1.00E+00
  4   4.0368E-02   4.0368E-02  7.90E-01  9.96E-01  2.07E-01  1.73E+00  4.05E-02  2.47E-02  1.00E+00
  5   1.0092E-01   1.0092E-01  4.11E-01  4.70E-01  3.05E-01  1.35E+00  2.83E-01  1.37E-01  1.00E+00
  6   1.2611E-01   1.2611E-01  6.28E-01  6.80E-01  5.65E-01  1.00E+00  3.60E-01  7.14E-02  1.00E+00
  7   3.1526E-01   3.1526E-01  2.12E-01  3.52E-01  1.08E+00  1.22E+00  8.21E-01  1.02E-01  1.00E+00
  8   3.5000E-01   3.5000E-01  2.06E-01  2.56E-01  3.29E+00  1.60E+00  7.81E-01  2.06E-02  1.00E+00
  9   1.7667E-01   1.7667E-01  5.45E-01  5.69E-01  4.38E+00  1.65E+00  2.70E-01  1.47E-03  9.60E-01
 10   2.2346E-01   2.2346E-01 -1.00E+00  1.08E+00  5.84E+00  1.00E+00  5.87E-01  1.74E-03  1.00E+00
:JACOBIANS    1.323E+00   1.996E+00
  
:NORMS:  1/Froebius, Min, Max, Used   0.6818E+00  0.5413E+00  0.9957E+00  0.8101E+00
:INFO :  Number of Memory Steps    8 Skipping    1
:INFO :  SLambda=    0.9008036864  Max    0.9008036864
:PREDicted Charge, CTotal, PW Trust    4.554E-04   4.554E-04   1.525E-03
:PREDicted DMix, Beta, BLim   4.9374E-01  1.1914E+00  3.0685E+00

Eigenvalues, unscaled except for SY+YY
   #     SY Real        SY Imag          SS             YY         SY+YY Real      SY+YY Imag
   1   2.505404E+00   0.000000E+00   2.449277E+00   3.732404E+00   4.674375E+00   0.000000E+00
   2   1.012592E+00   0.000000E+00   6.776892E-01   2.789164E+00   4.947447E+00   0.000000E+00
   3   6.108005E-01   0.000000E+00   3.900362E-01   8.776486E-01   1.406798E+00   0.000000E+00
   4   3.001712E-01   0.000000E+00   1.590010E-01   4.628048E-01   8.137765E-01   0.000000E+00
   5   9.565249E-02   0.000000E+00   4.210942E-02   1.107580E-01   2.064255E-01   0.000000E+00
   6   5.711507E-03   0.000000E+00   1.176549E-03   2.719422E-02   3.209022E-02   0.000000E+00
   7   4.655612E-07   0.000000E+00   5.042685E-07   2.460318E-05   2.020428E-06   0.000000E+00
   8   3.172972E-06   0.000000E+00   1.137870E-07   1.550033E-06   2.745346E-05   0.000000E+00
 
:INFO :  Singular value  5.107E+00 Weight  1.000E+00 Projection  2.441E-04
:INFO :  Singular value  4.541E+00 Weight  1.000E+00 Projection -1.030E-04
:INFO :  Singular value  1.404E+00 Weight  1.000E+00 Projection  7.761E-05
:INFO :  Singular value  8.141E-01 Weight  1.000E+00 Projection  1.780E-03
:INFO :  Singular value  2.064E-01 Weight  1.000E+00 Projection -2.210E-04
:INFO :  Singular value  3.206E-02 Weight  9.999E-01 Projection -2.336E-06
:INFO :  Singular value  2.747E-05 Weight  5.389E-03 Projection  7.502E-05
:INFO :  Singular value  2.019E-06 Weight  2.926E-05 Projection  1.513E-06
:RANK :  ACTIVE   6.01/8  =  75.07 % ; YY RANK   6.00/8  =  75.05 %
 
:BLIM :  VZERO Control Off
:TRUST:  Step 7.79E+00  Charge 2.46E-02 (e) CTO  6.55E-02 (e) PW  9.18E-02 (e)
:DIRM :  MEMORY  8/8  SCALE   1.000 RED  0.43 PRED  1.08 NEXT  0.10 
:TRAVE:  Charge 8.16E-04 (e) CTO  8.16E-04 (e) PW  4.00E-03 (e)
:DIRP :  |MSR1|= 7.096E-04 |PRATT|= 7.650E-04 ANGLE=   3.6 DEGREES
:DIRQ :  |MSR1|= 9.554E-04 |PRATT|= 1.018E-03 ANGLE=  15.9 DEGREES
:DIRT :  |MSR1|= 1.190E-03 |PRATT|= 1.273E-03 ANGLE=  12.9 DEGREES
:MIX  :   MSD1   REGULARIZATION:  3.73E-04 GREED: 0.35000  Newton 1.00  0.9347                
     
       CHARGES OF MIXED CHARGE DENSITY
:CTO   : INTERSTITIAL CHARGE =     2.016018
:CPC   : PW Pseudocharge     =     8.544636
:CTO001: CHARGE SPHERE  1    =    56.983982

:NEC03: NUCLEAR AND ELECTRONIC CHARGE     59.00000    59.00000

PW CHANGE     H    K    L      Current       Change    Residue
:PTO001:      0    0    0  9.51217118E-02 -2.049E-05 -2.332E-05
:PTO002:     -1   -1   -1 -1.78398286E-01  1.787E-05  2.006E-05
:PTO003:      0    0   -2  8.71539976E-02  4.428E-06  5.670E-06
:PTO004:      0   -2   -2  3.30572789E-02  4.942E-05  4.954E-05
:PTO005:     -1   -1   -3  1.08991563E-03 -6.329E-05 -6.387E-05
:PTO006:     -2   -2   -2 -3.40662075E-03  4.564E-06  3.691E-06
:PTO007:      0    0   -4 -4.45668093E-03  5.983E-06  6.289E-06
:PTO008:     -1   -3   -3  1.05950389E-02 -7.702E-06 -7.318E-06
:PTO009:      0   -2   -4 -9.94211759E-03  6.429E-06  6.419E-06
:PTO010:     -2   -2   -4 -6.62813493E-03 -1.624E-05 -1.701E-05
:PTO011:     -3   -3   -3  1.52450380E-03  6.381E-06  6.651E-06
:PTO012:     -1   -1   -5  4.54443370E-03  1.318E-05  1.355E-05

:ENE  : ********** TOTAL ENERGY IN Ry =       -18472.12202877

 Flat Integration
 New Mode for Coulomb Integral
 Consistent 3/8+Simpson combinations
 Extension of core to zero
 LDM version in phi
 Fifth-order quadrature in outwin


            ---------
:ITE013: 13. ITERATION
            ---------

:NATO :    1 INDEPENDENT AND    1 TOTAL ATOMS IN UNITCELL
       SUBSTANCE: blebleble                                                   

       LATTICE                      = F   
:POT  : POTENTIAL OPTION EX_LDA EC_LDA VX_LDA VC_LDA
:LAT  : LATTICE CONSTANTS=  7.62940  7.62940  7.62940    1.571    1.571    1.571
:VOL  : UNIT CELL VOLUME =     111.02254
       MODE OF CALCULATION IS       = RELA
       NON-SPINPOLARIZED CALCULATION
:IFFT  : FFT-parameters:   60   60   60 Factor: 2.00


   CONVERGENCE PARAMETER FOR PSEUDOCHARGE: NCON=  9
   MAXIMAL VALUE OF RMT(JATOM)*ABSK(NKK) : RK  =29.97764


:VKCOUL :  VK-COUL convergence: 0.116E-06
       ATOMNUMBER=  1 Pr         VCOUL-ZERO =  0.99808E+00
:FIT001: LUSE= 13 SIGMA OF V-XC FIT FOR ATOM  1  0.1040286E-03
:FIT001: LUSE= 13 SIGMA OF V-XC FIT FOR ATOM  1  0.1040286E-03
:DEN  : DENSITY INTEGRAL  =         -7121.81851272   (Ry)
       ELS_POTENTIAL_AT Z=0 and Z=0.5:  -3.12490  -3.12490
       ELS_POTENTIAL_AT Y=0 and Y=0.5:   0.00000   0.00000
:VZERO:v0,v0c,v0x  -4.29000  -3.12490  -1.16510 v5,v5c,v5x  -4.29000  -3.12490  -1.16510
:VZERY:v0,v0c,v0x  -0.97101   0.00000  -0.97101 v5,v5c,v5x  -0.97101   0.00000  -0.97101
:VZERX:v0,v0c,v0x  -0.97101   0.00000  -0.97101 v5,v5c,v5x  -0.97101   0.00000  -0.97101
:LMAX-WF:   10   Non-Spherical LMAX:   4

          ATOMIC SPHERE DEPENDENT PARAMETERS FOR ATOM  Pr        
:e__0001: OVERALL ENERGY PARAMETER IS    1.2173
          OVERALL BASIS SET ON ATOM IS LAPW
:E0_0001: E( 0)=    1.2173
             APW+lo
:E0_0001: E( 0)=   -1.2418   E(BOTTOM)=   -1.640   E(TOP)=   -0.843  4  5   260
             LOCAL ORBITAL
:E1_0001: E( 1)=    1.6173
             APW+lo
:E1_0001: E( 1)=    0.1329   E(BOTTOM)=   -0.540   E(TOP)=    0.806  3  4   253
             LOCAL ORBITAL
:E3_0001: E( 3)=    1.4353   E(BOTTOM)=    1.284   E(TOP)=    1.587  0  1   121
             APW+lo
:E2_0001: E( 2)=    1.2173   E(BOTTOM)=    1.008   E(TOP)= -200.000  2 -1   121
             APW+lo

       K=   0.00000   0.00000   0.00000            1
:RKM  : MATRIX SIZE    85LOs:  20  RKM= 8.24  WEIGHT= 1.00  PGR:    
       EIGENVALUES ARE:
:EIG00001:      -1.3503604    0.3457234    0.3457234    0.3457234    1.3194469
:EIG00006:       1.3724758    1.4136699    1.4136699    1.4136699    1.5257862
:EIG00011:       1.5257862    1.5257862    1.5424523    1.5424523    1.5424523
:EIG00016:       1.9622941    1.9622941    2.4673970    2.8548154    2.8750948
:EIG00021:       2.8750948    2.8750948
       ********************************************************

:KPT   :      NUMBER OF K-POINTS:   165
:GAP (global)   :    0.0    Ry =     0.0   eV (metal)
         Bandranges (emin - emax) and occupancy:
:BAN00001:   1   -1.350360   -1.148825  2.00000000
:BAN00002:   2   -0.206796    0.345723  2.00000000
:BAN00003:   3   -0.047151    0.345723  2.00000000
:BAN00004:   4    0.098943    0.345723  2.00000000
:BAN00005:   5    1.045305    1.319447  2.00000000
:BAN00006:   6    1.092498    1.409249  2.00000000
:BAN00007:   7    1.390262    1.457189  0.95376271
:BAN00008:   8    1.402278    1.464825  0.04242205
:BAN00009:   9    1.413670    1.482256  0.00381524
:BAN00010:  10    1.443814    1.525786  0.00000000
:BAN00011:  11    1.466349    1.525786  0.00000000
:BAN00012:  12    1.483567    1.593336  0.00000000
:BAN00013:  13    1.497511    1.695988  0.00000000
:BAN00014:  14    1.529288    2.343255  0.00000000
        Energy to separate low and high energystates:    0.99531


:NOE  : NUMBER OF ELECTRONS          =   13.000

:FER  : F E R M I - ENERGY(TETRAH.M.)=   1.4165370472
:GMA  : POTENTIAL AND CHARGE CUT-OFF  12.00 Ry**.5

:POS001: ATOM    1 X,Y,Z = 0.00000 0.00000 0.50000  MULT= 1  ZZ= 59.000  Pr        

       LMMAX  5
       LM=   0 0  4 0  4 4  6 0  6 4

:CHA001: TOTAL VALENCE CHARGE INSIDE SPHERE   1 =  10.9845    (RMT=  2.5000 )
:PCS001: PARTIAL CHARGES SPHERE =  1 S,P,D,F,      D-EG,D-T2G 
:QTL001: 2.0217 5.2951 1.3400 2.3117 0.0000 0.0000 0.0000 0.5024 0.8376 0.0000 0.0000 0.0000
        Q-s-low E-s-low   Q-p-low E-p-low   Q-d-low E-d-low   Q-f-low E-f-low
:EPL001:  1.9331 -1.1810    5.1871  0.0988    0.0769  0.0347    0.0291  0.0591
        Q-s-hi  E-s-hi    Q-p-hi  E-p-hi    Q-d-hi  E-d-hi    Q-f-hi  E-f-hi 
:EPH001:  0.0886  1.2924    0.1080  1.2890    1.2631  1.2540    2.2826  1.3474

:CHA  : TOTAL VALENCE CHARGE INSIDE UNIT CELL =      13.000000

:SUM  : SUM OF EIGENVALUES =           4.647203140


        1.ATOM      Pr                   14 CORE STATES
:1S 001: 1S               -3066.157260936 Ry
:2S 001: 2S                -491.905427728 Ry
:2PP001: 2P*               -465.004686182 Ry
:2P 001: 2P                -429.607104736 Ry
:3S 001: 3S                -105.001585975 Ry
:3PP001: 3P*                -93.539250905 Ry
:3P 001: 3P                 -86.531488827 Ry
:3DD001: 3D*                -66.457419903 Ry
:3D 001: 3D                 -64.945938861 Ry
:4S 001: 4S                 -19.670756512 Ry
:4PP001: 4P*                -15.376955778 Ry
:4P 001: 4P                 -13.848685489 Ry
:4DD001: 4D*                 -6.780233948 Ry
:4D 001: 4D                  -6.510584498 Ry
:CINT001 Core Integral Atom   1   45.999486

       DENSITY AT NUCLEUS
        JATOM        VALENCE       SEMI-CORE          CORE           TOTAL
:RTO001:   1      639.569945        0.000000   656826.388660   657465.958604
     
       CHARGES OF NEW CHARGE DENSITY
:NTO   : INTERSTITIAL CHARGE =     2.015456
:NPC   : PW Pseudocharge     =     8.542252
:NTO001: CHARGE SPHERE  1    =    56.984000

:NEC01: NUCLEAR AND ELECTRONIC CHARGE     59.00000    58.99946
     
       CHARGES OF OLD CHARGE DENSITY
:OTO   : INTERSTITIAL CHARGE =     2.016018
:OPC   : PW Pseudocharge     =     8.544636
:OTO001: CHARGE SPHERE  1    =    56.983982

:NEC02: NUCLEAR AND ELECTRONIC CHARGE     59.00000    59.00000
     
       CONVERGENCE TEST
:DTO001: DIFFERENCE IN SPHERE  1 =  0.0000304

:DIS  :  CHARGE DISTANCE       ( 0.0000304 for atom    1 spin 1)      0.0000304
 PW Mixed is           29
 
******************************************************
* MULTISECANT MIXING VER9 RELEASE 10.4.0              *
* Standard Mode with controls                        *
* Fixed density scale                                *
* Regularization       1.000E-04                     *
* Trust Upper Limit    5.000E+00                     *
* Max Number of Memory Steps    8                    *
******************************************************
 
:PWTMP   4.5573E+01  1.2500E+02  1.1102E+02
:PLANE:  PW TOTAL      2.8717 DISTAN   2.93E-05  1.02E-03 %
:CHARG:  CLM/ATOM    977.1716 DISTAN   9.70E-05  9.92E-06 %
 
Step History
        DMIX         DMIXT        Red     Pred      Trust     Lambda    MagRel    MagAbs     Beta
  3   3.0844E-02   3.0844E-02  9.32E-01  1.00E+00 -1.00E+01  2.46E-02  3.08E-02  2.02E-02  1.00E+00
  4   4.0368E-02   4.0368E-02  7.90E-01  9.96E-01  2.07E-01  1.73E+00  4.05E-02  2.47E-02  1.00E+00
  5   1.0092E-01   1.0092E-01  4.11E-01  4.70E-01  3.05E-01  1.35E+00  2.83E-01  1.37E-01  1.00E+00
  6   1.2611E-01   1.2611E-01  6.28E-01  6.80E-01  5.65E-01  1.00E+00  3.60E-01  7.14E-02  1.00E+00
  7   3.1526E-01   3.1526E-01  2.12E-01  3.52E-01  1.08E+00  1.22E+00  8.21E-01  1.02E-01  1.00E+00
  8   3.5000E-01   3.5000E-01  2.06E-01  2.56E-01  3.29E+00  1.60E+00  7.81E-01  2.06E-02  1.00E+00
  9   1.7667E-01   1.7667E-01  5.45E-01  5.69E-01  4.38E+00  1.65E+00  2.70E-01  1.47E-03  9.60E-01
 10   2.2346E-01   2.2346E-01  4.29E-01  1.08E+00  5.84E+00  9.01E-01  5.87E-01  1.74E-03  1.00E+00
 11   3.5000E-01   3.5000E-01 -1.00E+00  9.75E-02  7.79E+00  1.00E+00  9.35E-01  1.19E-03  1.00E+00
:JACOBIANS    1.419E+00   2.332E+00
  
:NORMS:  1/Froebius, Min, Max, Used   0.7670E+00  0.5968E+00  0.9998E+00  0.9226E+00
:INFO :  Number of Memory Steps    8 Skipping    2
:INFO :  SLambda=    1.1156156454  Max    1.1156156454
:PREDicted Charge, CTotal, PW Trust    2.186E-04   2.186E-04   9.833E-04
:PREDicted DMix, Beta, BLim   3.1803E-01  1.0104E+00  9.6491E+00

Eigenvalues, unscaled except for SY+YY
   #     SY Real        SY Imag          SS             YY         SY+YY Real      SY+YY Imag
   1   2.532038E+00   0.000000E+00   2.531274E+00   2.973675E+00   5.554728E+00   0.000000E+00
   2   1.825221E+00   0.000000E+00   1.609324E+00   2.486793E+00   4.424205E+00   0.000000E+00
   3   5.294584E-01   5.616506E-02   3.813476E-01   1.646472E+00   2.531342E+00   0.000000E+00
   4   5.294584E-01  -5.616506E-02   1.781606E-01   8.554825E-01   1.492801E+00   0.000000E+00
   5   1.046669E-02   0.000000E+00   4.699612E-03   2.627040E-02   3.561404E-02   0.000000E+00
   6   4.328648E-03   0.000000E+00   9.210041E-04   1.098262E-02   1.986640E-02   0.000000E+00
   7   1.384105E-06   0.000000E+00   1.461306E-04   3.137614E-04   1.200966E-05   0.000000E+00
   8   1.986976E-04   0.000000E+00   1.861394E-07   9.507783E-06   5.322728E-04   0.000000E+00
 
:INFO :  Singular value  5.578E+00 Weight  1.000E+00 Projection  7.716E-06
:INFO :  Singular value  4.439E+00 Weight  1.000E+00 Projection -2.480E-05
:INFO :  Singular value  2.522E+00 Weight  1.000E+00 Projection  1.050E-05
:INFO :  Singular value  1.488E+00 Weight  1.000E+00 Projection  1.121E-05
:INFO :  Singular value  3.561E-02 Weight  9.999E-01 Projection  2.767E-04
:INFO :  Singular value  1.986E-02 Weight  9.998E-01 Projection -2.400E-04
:INFO :  Singular value  5.326E-04 Weight  7.623E-01 Projection -2.741E-03
:INFO :  Singular value  1.200E-05 Weight  1.626E-03 Projection -1.855E-05
:RANK :  ACTIVE   6.76/8  =  84.55 % ; YY RANK   6.53/8  =  81.59 %
 
:BLIM :  VZERO Control Off
:TRUST:  Step 1.41E+01  Charge 1.97E-02 (e) CTO  5.24E-02 (e) PW  7.34E-02 (e)
:DIRM :  MEMORY  8/8  SCALE   1.000 RED  0.08 PRED  0.10 NEXT  0.47 
:TRAVE:  Charge 4.13E-04 (e) CTO  4.13E-04 (e) PW  2.02E-03 (e)
:DIRP :  |MSR1|= 2.630E-05 |PRATT|= 2.933E-05 ANGLE=  19.9 DEGREES
:DIRQ :  |MSR1|= 4.432E-05 |PRATT|= 9.696E-05 ANGLE=  19.5 DEGREES
:DIRT :  |MSR1|= 5.153E-05 |PRATT|= 1.013E-04 ANGLE=  23.8 DEGREES
:MIX  :   MSE1   REGULARIZATION:  2.97E-04 GREED: 0.30287  Newton 1.00  0.5087                
     
       CHARGES OF MIXED CHARGE DENSITY
:CTO   : INTERSTITIAL CHARGE =     2.016008
:CPC   : PW Pseudocharge     =     8.544556
:CTO001: CHARGE SPHERE  1    =    56.983992

:NEC03: NUCLEAR AND ELECTRONIC CHARGE     59.00000    59.00000

PW CHANGE     H    K    L      Current       Change    Residue
:PTO001:      0    0    0  9.51209000E-02 -8.118E-07 -8.776E-07
:PTO002:     -1   -1   -1 -1.78396380E-01  1.906E-06  1.744E-06
:PTO003:      0    0   -2  8.71540788E-02  8.120E-08  1.048E-06
:PTO004:      0   -2   -2  3.30577796E-02  5.007E-07  6.826E-07
:PTO005:     -1   -1   -3  1.08958186E-03 -3.338E-07 -3.198E-07
:PTO006:     -2   -2   -2 -3.40715950E-03 -5.388E-07 -7.957E-07
:PTO007:      0    0   -4 -4.45653317E-03  1.478E-07  2.488E-07
:PTO008:     -1   -3   -3  1.05949693E-02 -6.958E-08 -2.736E-08
:PTO009:      0   -2   -4 -9.94197913E-03  1.385E-07  1.342E-07
:PTO010:     -2   -2   -4 -6.62862024E-03 -4.853E-07 -6.047E-07
:PTO011:     -3   -3   -3  1.52467781E-03  1.740E-07  2.047E-07
:PTO012:     -1   -1   -5  4.54471781E-03  2.841E-07  3.314E-07

:ENE  : ********** TOTAL ENERGY IN Ry =       -18472.12202938

