
:LABEL1: Calculations in /home/ykent/GWIEN/example/Pr/aU/V18/case
:LABEL2: on didymium-2.cmpgroup.ameslab.gov at Fri Jul 10 13:27:54 CDT 2020
:LABEL3: using WIEN2k_19.1 (Release 25/6/2019) in /home/ykent/opt/src/WIEN2k_19.1
:LABEL4: using the command: run_lapw -cc 0.0001
 Flat Integration
 New Mode for Coulomb Integral
 Consistent 3/8+Simpson combinations
 Extension of core to zero
 LDM version in phi
 Fifth-order quadrature in outwin


            ---------
:ITE001:  1. ITERATION
            ---------

:NATO :    1 INDEPENDENT AND    2 TOTAL ATOMS IN UNITCELL
       SUBSTANCE: aU                                                          

       LATTICE                      = CXY 
:POT  : POTENTIAL OPTION EX_LDA EC_LDA VX_LDA VC_LDA
:LAT  : LATTICE CONSTANTS=  6.48990 13.16965 11.36963    1.571    1.571    1.571
:VOL  : UNIT CELL VOLUME =     485.88001
       MODE OF CALCULATION IS       = RELA
       NON-SPINPOLARIZED CALCULATION
:IFFT  : FFT-parameters:   54  108   90 Factor: 2.00


   CONVERGENCE PARAMETER FOR PSEUDOCHARGE: NCON=  9
   MAXIMAL VALUE OF RMT(JATOM)*ABSK(NKK) : RK  =27.59923


:VKCOUL :  VK-COUL convergence: 0.101E-06
       ATOMNUMBER=  1 Pr1        VCOUL-ZERO =  0.50646E-01
:EFG001:                        EFG         =    -0.02689   *10**21  V / m**2
                               V20  TOT/SRF=    -0.02329    -0.03009
                               V22  TOT/SRF=     0.00419     0.00512
                               V22M TOT/SRF=     0.00000     0.00000
                               V21  TOT/SRF=     0.00000     0.00000
                               V21M TOT/SRF=     0.00000     0.00000

              0.01763    0.00000    0.00000        0.01763    0.00000    0.00000
              0.00000    0.00926    0.00000        0.00000    0.00926    0.00000
              0.00000    0.00000   -0.02689        0.00000    0.00000   -0.02689

         MAIN DIRECTIONS OF THE EFG   1.0000  0.0000  0.0000
                                      0.0000  1.0000  0.0000
                                      0.0000  0.0000  1.0000
:ANG001:  ANGLE WITH OLD X-AXIS =         0.0

:ETA001:                         ASYMM. ETA =     0.31146


     HELLMANN-FEYNMAN-FORCE IN mRy/a.u. = |F|  Fx       Fy             Fz
:FHF001:   1.ATOM    306.657483011850      0.000000000000      0.000000000000   -306.657483011850

:FIT001: LUSE= 13 SIGMA OF V-XC FIT FOR ATOM  1  0.2344598E-05
:FIT001: LUSE= 13 SIGMA OF V-XC FIT FOR ATOM  1  0.2344598E-05
:DEN  : DENSITY INTEGRAL  =        -14150.43321870   (Ry)
       ELS_POTENTIAL_AT Z=0 and Z=0.5:   0.69953   0.69953
       ELS_POTENTIAL_AT Y=0 and Y=0.5:   0.06239   0.06239
:VZERO:v0,v0c,v0x   0.12976   0.69953  -0.56977 v5,v5c,v5x   0.12976   0.69953  -0.56977
:VZERY:v0,v0c,v0x  -0.69945   0.06239  -0.76184 v5,v5c,v5x  -0.69945   0.06239  -0.76184
:VZERX:v0,v0c,v0x  -1.09287  -0.36684  -0.72602 v5,v5c,v5x  -1.09287  -0.36684  -0.72602
:LMAX-WF:   10   Non-Spherical LMAX:   4

          ATOMIC SPHERE DEPENDENT PARAMETERS FOR ATOM  Pr1       
:e__0001: OVERALL ENERGY PARAMETER IS    0.3000
          OVERALL BASIS SET ON ATOM IS LAPW
:E0_0001: E( 0)=    0.3000
             APW+lo
:E0_0001: E( 0)=   -2.0422   E(BOTTOM)=   -2.680   E(TOP)=   -1.404  4  5   178
             LOCAL ORBITAL
:E1_0001: E( 1)=    0.7000
             APW+lo
:E1_0001: E( 1)=   -0.5739   E(BOTTOM)=   -1.535   E(TOP)=    0.387  3  4   193
             LOCAL ORBITAL
:E3_0001: E( 3)=    0.6194   E(BOTTOM)=    0.409   E(TOP)=    0.830  0  1   129
             APW+lo
:E2_0001: E( 2)=    0.3000   E(BOTTOM)=    0.204   E(TOP)= -200.000  2 -1    90
             APW+lo

       K=   0.06250   0.00000   0.06250            1
:RKM  : MATRIX SIZE   453LOs:  40  RKM= 8.49  WEIGHT= 4.00  PGR:    
       EIGENVALUES ARE:
:EIG00001:      -2.0138075   -2.0000965   -0.7439571   -0.6673878   -0.6506549
:EIG00006:      -0.6453393   -0.6394237   -0.6383385    0.3767975    0.5163346
:EIG00011:       0.6217100    0.6257776    0.6270439    0.6311277    0.6335559
:EIG00016:       0.6457386    0.6501385    0.6505252    0.6537878    0.6559279
:EIG00021:       0.6602309    0.6620231    0.6643328    0.6686396    0.6893529
:EIG00026:       0.6990572    0.7734941    0.7888789    0.8099408    0.8459982
:EIG00031:       0.8629700    0.9456926    0.9917241    1.0354309    1.3236087
:EIG00036:       1.3316989    1.4193605    1.4217865    1.5785112    1.6297313
:EIG00041:       1.6926316    1.7947377    1.8726077    1.8870867    1.9878755
       ********************************************************

:KPT   :      NUMBER OF K-POINTS:   288
:GAP (global)   :    0.0    Ry =     0.0   eV (metal)
         Bandranges (emin - emax) and occupancy:
:BAN00004:   4   -0.727755   -0.667388  2.00000000
:BAN00005:   5   -0.717696   -0.650655  2.00000000
:BAN00006:   6   -0.702827   -0.641682  2.00000000
:BAN00007:   7   -0.683756   -0.639003  2.00000000
:BAN00008:   8   -0.656360   -0.634978  2.00000000
:BAN00009:   9    0.371841    0.588096  2.00000000
:BAN00010:  10    0.481037    0.600770  2.00000000
:BAN00011:  11    0.552165    0.622387  2.00000000
:BAN00012:  12    0.594938    0.629199  2.00000000
:BAN00013:  13    0.613255    0.641580  1.58566726
:BAN00014:  14    0.624402    0.646629  0.41433274
:BAN00015:  15    0.631747    0.650242  0.00000000
:BAN00016:  16    0.637823    0.650660  0.00000000
:BAN00017:  17    0.641898    0.651570  0.00000000
:BAN00018:  18    0.644612    0.652479  0.00000000
:BAN00019:  19    0.647763    0.655769  0.00000000
        Energy to separate low and high energystates:    0.32184


:NOE  : NUMBER OF ELECTRONS          =   26.000

:FER  : F E R M I - ENERGY(TETRAH.M.)=   0.6314502708
:GMA  : POTENTIAL AND CHARGE CUT-OFF  12.00 Ry**.5

:POS001: ATOM   -1 X,Y,Z = 0.00000 0.89750 0.25000  MULT= 2  ZZ= 59.000  Pr1       

       LMMAX 16
       LM=   0 0  1 0  2 0  2 2  3 0  3 2  4 0  4 2  4 4  5 0  5 2  5 4  6 0  6 2  6 4  6 6

:CHA001: TOTAL VALENCE CHARGE INSIDE SPHERE   1 =   9.2341    (RMT=  2.3000 )
:PCS001: PARTIAL CHARGES SPHERE =  1 S,P,D,F,PX,PY,PZ,D-Z2,D-X2Y2,D-XY,D-XZ,D-YZ 
:QTL001: 1.9426 5.0187 0.5981 1.6744 1.6686 1.6700 1.6801 0.1129 0.1201 0.1214 0.1163 0.1274
        Q-s-low E-s-low   Q-p-low E-p-low   Q-d-low E-d-low   Q-f-low E-f-low
:EPL001:  1.8680 -2.0002    4.9409 -0.6812    0.0016 -0.7093    0.0004 -0.7197
        Q-s-hi  E-s-hi    Q-p-hi  E-p-hi    Q-d-hi  E-d-hi    Q-f-hi  E-f-hi 
:EPH001:  0.0746  0.5161    0.0778  0.5617    0.5965  0.5744    1.6740  0.6150

                      VXX         VYY         VZZ       UP TO R
:VZZ001:             2.04053     4.85895    -6.89948       2.300

:CHA  : TOTAL VALENCE CHARGE INSIDE UNIT CELL =      26.000000

:SUM  : SUM OF EIGENVALUES =         -10.392564449


        1.ATOM      Pr1                  14 CORE STATES
       CORE-FORCE in mRy/a.u. = |F|      Fx             Fy             Fz
:FCO001:   1.ATOM    249.818434192137      0.000000000000      0.000000000000    249.818434192137

:1S 001: 1S               -3066.930153750 Ry
:2S 001: 2S                -492.695828143 Ry
:2PP001: 2P*               -465.793465125 Ry
:2P 001: 2P                -430.396661063 Ry
:3S 001: 3S                -105.793332131 Ry
:3PP001: 3P*                -94.330751720 Ry
:3P 001: 3P                 -87.323358058 Ry
:3DD001: 3D*                -67.249727549 Ry
:3D 001: 3D                 -65.738300526 Ry
:4S 001: 4S                 -20.478676723 Ry
:4PP001: 4P*                -16.185695289 Ry
:4P 001: 4P                 -14.658715849 Ry
:4DD001: 4D*                 -7.592550020 Ry
:4D 001: 4D                  -7.323306532 Ry
:CINT001 Core Integral Atom   1   45.998473

       DENSITY AT NUCLEUS
        JATOM        VALENCE       SEMI-CORE          CORE           TOTAL
:RTO001:   1      647.699500        0.000000   656820.873261   657468.572762
     
       CHARGES OF NEW CHARGE DENSITY
:NTO   : INTERSTITIAL CHARGE =     7.531783
:NPC   : PW Pseudocharge     =    17.056926
:NTO001: CHARGE SPHERE  1    =    55.232581

:NEC01: NUCLEAR AND ELECTRONIC CHARGE    118.00000   117.99695
     
       CHARGES OF OLD CHARGE DENSITY
:OTO   : INTERSTITIAL CHARGE =     6.944395
:OPC   : PW Pseudocharge     =    15.746461
:OTO001: CHARGE SPHERE  1    =    55.528431

:NEC02: NUCLEAR AND ELECTRONIC CHARGE    118.00000   118.00126
     
       CONVERGENCE TEST
:DTO001: DIFFERENCE IN SPHERE  1 =  0.4774566

:DIS  :  CHARGE DISTANCE       ( 0.4774566 for atom    1 spin 1)      0.4774566
 PW Mixed is          506
 
******************************************************
* MULTISECANT MIXING VER9 RELEASE 10.4.0              *
* Standard Mode with controls                        *
* Fixed density scale                                *
* Regularization       1.000E-04                     *
* Trust Upper Limit    5.000E+00                     *
* Max Number of Memory Steps    8                    *
******************************************************
 
:PWTMP   3.8395E+02  1.9467E+02  4.8588E+02
:PLANE:  PW TOTAL      4.1885 DISTAN   5.11E-01  1.22E+01 %
:CHARG:  CLM/ATOM   1382.0511 DISTAN   8.67E-01  6.28E-02 %
 
Step History
        DMIX         DMIXT        Red     Pred      Trust     Lambda    MagRel    MagAbs     Beta
  1   3.5000E-02   3.5000E-02 -1.00E+00  1.00E+00 -1.00E+01  1.00E+00  3.50E-02  3.50E-02  1.00E+00
:INFO :  Note, Pratt in use
:TRUST:  Step 3.75E-02  Charge 7.50E-02 (e) CTO  2.50E-01 (e) PW  3.50E-01 (e)
:DIRM :  MEMORY  0/ 8 SCALE   1.000
Performing Pseudo Compensation
Final Pseudo Compensation Rescaling     1.00000E+00
:MIX  :   PRATT  REGULARIZATION:  1.00E-04 GREED: 0.02500                  
     
       CHARGES OF MIXED CHARGE DENSITY
:CTO   : INTERSTITIAL CHARGE =     6.957931
:CPC   : PW Pseudocharge     =    16.619269
:CTO001: CHARGE SPHERE  1    =    55.521035

:NEC03: NUCLEAR AND ELECTRONIC CHARGE    118.00000   118.00000

PW CHANGE     H    K    L      Current       Change    Residue
:PTO001:      0    0    0  4.85247382E-02  1.833E-03  3.935E-03
:PTO003:      0    2    0  1.34363907E-02  8.628E-04  1.839E-03
:PTO004:     -1    1    0  6.65236094E-02  4.627E-03  6.661E-03
:PTO005:      0    2   -1 -7.76468961E-02 -5.473E-03 -6.764E-03
:PTO006:      0    0   -2 -4.02983666E-02 -2.843E-03 -3.351E-03
:PTO007:     -1    1   -1 -8.47016460E-02 -6.491E-03 -7.029E-03
:PTO008:      0    2   -2 -1.40301668E-02 -1.329E-03 -1.626E-03
:PTO009:     -1    1   -2 -7.07727334E-02 -7.254E-03 -9.353E-03
:PTO011:     -1    3    0 -1.15434824E-02 -1.414E-03 -1.625E-03
:PTO012:     -1    3   -1 -5.22477172E-02 -7.058E-03 -9.461E-03
:PTO013:      0    4    0 -9.80234590E-03 -1.470E-03 -1.621E-03
:PTO014:      0    2   -3  2.21097533E-02  3.346E-03  4.244E-03

:ENE  : ********** TOTAL ENERGY IN Ry =       -36944.16477968

       TOTAL FORCE IN mRy/a.u. = |F|     Fx             Fy             Fz     with/without FOR in case.in2
:FOR001:   1.ATOM         56.839          0.000          0.000        -56.839 partial forces
       TOTAL FORCE WITH RESPECT TO GLOBAL CARTESIAN COORDINATES:
:FCA001:   1.ATOM                         0.000        -56.839          0.000 partial forces
       TOTAL FORCE WITH RESPECT TO THE GLOBAL COORDINATE SYSTEM:
:FGL001:   1.ATOM                 0.000000000   -56.839048820     0.000000000 partial forces
 Flat Integration
 New Mode for Coulomb Integral
 Consistent 3/8+Simpson combinations
 Extension of core to zero
 LDM version in phi
 Fifth-order quadrature in outwin


            ---------
:ITE002:  2. ITERATION
            ---------

:NATO :    1 INDEPENDENT AND    2 TOTAL ATOMS IN UNITCELL
       SUBSTANCE: aU                                                          

       LATTICE                      = CXY 
:POT  : POTENTIAL OPTION EX_LDA EC_LDA VX_LDA VC_LDA
:LAT  : LATTICE CONSTANTS=  6.48990 13.16965 11.36963    1.571    1.571    1.571
:VOL  : UNIT CELL VOLUME =     485.88001
       MODE OF CALCULATION IS       = RELA
       NON-SPINPOLARIZED CALCULATION
:IFFT  : FFT-parameters:   54  108   90 Factor: 2.00


   CONVERGENCE PARAMETER FOR PSEUDOCHARGE: NCON=  9
   MAXIMAL VALUE OF RMT(JATOM)*ABSK(NKK) : RK  =27.59923


:VKCOUL :  VK-COUL convergence: 0.586E-07
       ATOMNUMBER=  1 Pr1        VCOUL-ZERO =  0.53338E-01
:EFG001:                        EFG         =    -0.19932   *10**21  V / m**2
                               V20  TOT/SRF=    -0.17261    -0.02967
                               V22  TOT/SRF=    -0.03144     0.00443
                               V22M TOT/SRF=     0.00000     0.00000
                               V21  TOT/SRF=     0.00000     0.00000
                               V21M TOT/SRF=     0.00000     0.00000

              0.06822    0.00000    0.00000        0.06822    0.00000    0.00000
              0.00000    0.13110    0.00000        0.00000    0.13110    0.00000
              0.00000    0.00000   -0.19932        0.00000    0.00000   -0.19932

         MAIN DIRECTIONS OF THE EFG   1.0000  0.0000  0.0000
                                      0.0000  1.0000  0.0000
                                      0.0000  0.0000  1.0000
:ANG001:  ANGLE WITH OLD X-AXIS =         0.0

:ETA001:                         ASYMM. ETA =     0.31548


     HELLMANN-FEYNMAN-FORCE IN mRy/a.u. = |F|  Fx       Fy             Fz
:FHF001:   1.ATOM    311.890285161154      0.000000000000      0.000000000000   -311.890285161154

:FIT001: LUSE= 13 SIGMA OF V-XC FIT FOR ATOM  1  0.2335559E-05
:FIT001: LUSE= 13 SIGMA OF V-XC FIT FOR ATOM  1  0.2335559E-05
:DEN  : DENSITY INTEGRAL  =        -14149.26947807   (Ry)
       ELS_POTENTIAL_AT Z=0 and Z=0.5:   0.70389   0.70389
       ELS_POTENTIAL_AT Y=0 and Y=0.5:   0.06580   0.06580
:VZERO:v0,v0c,v0x   0.13362   0.70389  -0.57027 v5,v5c,v5x   0.13362   0.70389  -0.57027
:VZERY:v0,v0c,v0x  -0.69764   0.06580  -0.76344 v5,v5c,v5x  -0.69764   0.06580  -0.76344
:VZERX:v0,v0c,v0x  -1.10335  -0.37218  -0.73117 v5,v5c,v5x  -1.10335  -0.37218  -0.73117
:LMAX-WF:   10   Non-Spherical LMAX:   4

          ATOMIC SPHERE DEPENDENT PARAMETERS FOR ATOM  Pr1       
:e__0001: OVERALL ENERGY PARAMETER IS    0.3876
          OVERALL BASIS SET ON ATOM IS LAPW
:E0_0001: E( 0)=    0.3876
             APW+lo
:E0_0001: E( 0)=   -2.0445   E(BOTTOM)=   -2.682   E(TOP)=   -1.407  4  5   178
             LOCAL ORBITAL
:E1_0001: E( 1)=    0.7876
             APW+lo
:E1_0001: E( 1)=   -0.5756   E(BOTTOM)=   -1.535   E(TOP)=    0.384  3  4   199
             LOCAL ORBITAL
:E3_0001: E( 3)=    0.6131   E(BOTTOM)=    0.404   E(TOP)=    0.822  0  1   125
             APW+lo
:E2_0001: E( 2)=    0.3876   E(BOTTOM)=    0.204   E(TOP)= -200.000  2 -1    92
             APW+lo

       K=   0.06250   0.00000   0.06250            1
:RKM  : MATRIX SIZE   453LOs:  40  RKM= 8.49  WEIGHT= 4.00  PGR:    
       EIGENVALUES ARE:
:EIG00001:      -2.0158363   -2.0022221   -0.7441728   -0.6683933   -0.6517432
:EIG00006:      -0.6463986   -0.6402642   -0.6394516    0.3796698    0.5187873
:EIG00011:       0.6182779    0.6211376    0.6218525    0.6257631    0.6282860
:EIG00016:       0.6398848    0.6443062    0.6445647    0.6477151    0.6500810
:EIG00021:       0.6544121    0.6563670    0.6582543    0.6624245    0.6879251
:EIG00026:       0.6992285    0.7743872    0.7902490    0.8116700    0.8473913
:EIG00031:       0.8642058    0.9470599    0.9927446    1.0363022    1.3248632
:EIG00036:       1.3337566    1.4216195    1.4237698    1.5809528    1.6324297
:EIG00041:       1.6949228    1.7970283    1.8744528    1.8891737    1.9890812
:EIG00046:       2.0410688    2.0539409
 
       ********************************************************

:KPT   :      NUMBER OF K-POINTS:   288
:GAP (global)   :    0.0    Ry =     0.0   eV (metal)
         Bandranges (emin - emax) and occupancy:
:BAN00004:   4   -0.728349   -0.668393  2.00000000
:BAN00005:   5   -0.718379   -0.651743  2.00000000
:BAN00006:   6   -0.703485   -0.642767  2.00000000
:BAN00007:   7   -0.684594   -0.640107  2.00000000
:BAN00008:   8   -0.657339   -0.636112  2.00000000
:BAN00009:   9    0.374721    0.588961  2.00000000
:BAN00010:  10    0.483695    0.600125  2.00000000
:BAN00011:  11    0.554093    0.618792  2.00000000
:BAN00012:  12    0.595065    0.625624  2.00000000
:BAN00013:  13    0.610620    0.635882  1.57495473
:BAN00014:  14    0.620237    0.641203  0.42504527
:BAN00015:  15    0.627012    0.644038  0.00000000
:BAN00016:  16    0.632640    0.644795  0.00000000
:BAN00017:  17    0.636625    0.645612  0.00000000
:BAN00018:  18    0.638917    0.646551  0.00000000
:BAN00019:  19    0.642022    0.649778  0.00000000
        Energy to separate low and high energystates:    0.32472


:NOE  : NUMBER OF ELECTRONS          =   26.000

:FER  : F E R M I - ENERGY(TETRAH.M.)=   0.6267545152
:GMA  : POTENTIAL AND CHARGE CUT-OFF  12.00 Ry**.5

:POS001: ATOM   -1 X,Y,Z = 0.00000 0.89750 0.25000  MULT= 2  ZZ= 59.000  Pr1       

       LMMAX 16
       LM=   0 0  1 0  2 0  2 2  3 0  3 2  4 0  4 2  4 4  5 0  5 2  5 4  6 0  6 2  6 4  6 6

:CHA001: TOTAL VALENCE CHARGE INSIDE SPHERE   1 =   9.3346    (RMT=  2.3000 )
:PCS001: PARTIAL CHARGES SPHERE =  1 S,P,D,F,PX,PY,PZ,D-Z2,D-X2Y2,D-XY,D-XZ,D-YZ 
:QTL001: 1.9419 5.0177 0.5648 1.8099 1.6687 1.6698 1.6793 0.1055 0.1102 0.1174 0.1101 0.1215
        Q-s-low E-s-low   Q-p-low E-p-low   Q-d-low E-d-low   Q-f-low E-f-low
:EPL001:  1.8685 -2.0024    4.9451 -0.6820    0.0016 -0.7098    0.0004 -0.7201
        Q-s-hi  E-s-hi    Q-p-hi  E-p-hi    Q-d-hi  E-d-hi    Q-f-hi  E-f-hi 
:EPH001:  0.0734  0.5171    0.0726  0.5598    0.5632  0.5729    1.8095  0.6114

                      VXX         VYY         VZZ       UP TO R
:VZZ001:             1.49230     4.44150    -5.93381       2.300

:CHA  : TOTAL VALENCE CHARGE INSIDE UNIT CELL =      26.000000

:SUM  : SUM OF EIGENVALUES =         -10.415593164


        1.ATOM      Pr1                  14 CORE STATES
       CORE-FORCE in mRy/a.u. = |F|      Fx             Fy             Fz
:FCO001:   1.ATOM    261.339288394754      0.000000000000      0.000000000000    261.339288394754

:1S 001: 1S               -3066.945173975 Ry
:2S 001: 2S                -492.710416176 Ry
:2PP001: 2P*               -465.808113973 Ry
:2P 001: 2P                -430.411283492 Ry
:3S 001: 3S                -105.807151932 Ry
:3PP001: 3P*                -94.344627492 Ry
:3P 001: 3P                 -87.337149929 Ry
:3DD001: 3D*                -67.263678207 Ry
:3D 001: 3D                 -65.752228436 Ry
:4S 001: 4S                 -20.488927748 Ry
:4PP001: 4P*                -16.195738032 Ry
:4P 001: 4P                 -14.668431493 Ry
:4DD001: 4D*                 -7.601683896 Ry
:4D 001: 4D                  -7.332328249 Ry
:CINT001 Core Integral Atom   1   45.998482

       DENSITY AT NUCLEUS
        JATOM        VALENCE       SEMI-CORE          CORE           TOTAL
:RTO001:   1      647.880707        0.000000   656821.686737   657469.567444
     
       CHARGES OF NEW CHARGE DENSITY
:NTO   : INTERSTITIAL CHARGE =     7.330775
:NPC   : PW Pseudocharge     =    17.000924
:NTO001: CHARGE SPHERE  1    =    55.333094

:NEC01: NUCLEAR AND ELECTRONIC CHARGE    118.00000   117.99696
     
       CHARGES OF OLD CHARGE DENSITY
:OTO   : INTERSTITIAL CHARGE =     6.957931
:OPC   : PW Pseudocharge     =    16.619269
:OTO001: CHARGE SPHERE  1    =    55.521035

:NEC02: NUCLEAR AND ELECTRONIC CHARGE    118.00000   118.00000
     
       CONVERGENCE TEST
:DTO001: DIFFERENCE IN SPHERE  1 =  0.3057950

:DIS  :  CHARGE DISTANCE       ( 0.3057950 for atom    1 spin 1)      0.3057950
 PW Mixed is          506
 
******************************************************
* MULTISECANT MIXING VER9 RELEASE 10.4.0              *
* Slow Mode, cautious                                *
* Fixed density scale                                *
* Regularization       1.000E-04                     *
* Step Trust Radius    0.75000                       *
* Trust Upper Limit    2.000E+00                     *
* Max Number of Memory Steps   12                    *
******************************************************
 
:PWTMP   3.8395E+02  1.9467E+02  4.8588E+02
:PLANE:  PW TOTAL      4.5193 DISTAN   1.37E-01  3.03E+00 %
:CHARG:  CLM/ATOM   1382.0469 DISTAN   7.08E-01  5.12E-02 %
 
Step History
        DMIX         DMIXT        Red     Pred      Trust     Lambda    MagRel    MagAbs     Beta
  1   3.5000E-02   3.5000E-02 -1.00E+00  1.00E+00 -1.00E+01  1.00E+00  3.50E-02  3.50E-02  1.00E+00
  2   2.5000E-02   2.5000E-02 -1.00E+00  1.00E+00 -1.00E+01  1.00E+00  2.50E-02  2.52E-02  1.00E+00
:JACOBIANS    3.560E-01   9.883E-03
  
:TRUST:  Step 3.19E-02  Charge 7.50E-02 (e) CTO  2.50E-01 (e) PW  3.50E-01 (e)
:DIRM :  MEMORY  1/12 SCALE   1.000
:MIX  :   PRATT  REGULARIZATION:  1.00E-04 GREED: 0.03187  Expand 1.27  0.0319                
     
       CHARGES OF MIXED CHARGE DENSITY
:CTO   : INTERSTITIAL CHARGE =     6.966414
:CPC   : PW Pseudocharge     =    17.121439
:CTO001: CHARGE SPHERE  1    =    55.516793

:NEC03: NUCLEAR AND ELECTRONIC CHARGE    118.00000   118.00000

PW CHANGE     H    K    L      Current       Change    Residue
:PTO001:      0    0    0  4.95757225E-02  1.051E-03  1.574E-03
:PTO003:      0    2    0  1.39311692E-02  4.948E-04  9.071E-04
:PTO004:     -1    1    0  6.91771520E-02  2.654E-03  1.937E-03
:PTO005:      0    2   -1 -8.07858011E-02 -3.139E-03 -1.288E-03
:PTO006:      0    0   -2 -4.19285325E-02 -1.630E-03 -5.128E-04
:PTO007:     -1    1   -1 -8.84241537E-02 -3.723E-03 -6.281E-04
:PTO008:      0    2   -2 -1.47923942E-02 -7.622E-04 -2.948E-04
:PTO009:     -1    1   -2 -7.49326734E-02 -4.160E-03 -2.214E-03
:PTO011:     -1    3    0 -1.23543006E-02 -8.108E-04 -2.323E-04
:PTO012:     -1    3   -1 -5.62952966E-02 -4.048E-03 -2.426E-03
:PTO013:      0    4    0 -1.06453793E-02 -8.430E-04 -1.668E-04
:PTO014:      0    2   -3  2.40285761E-02  1.919E-03  9.044E-04

:ENE  : ********** TOTAL ENERGY IN Ry =       -36944.15816490

       TOTAL FORCE IN mRy/a.u. = |F|     Fx             Fy             Fz     with/without FOR in case.in2
:FOR001:   1.ATOM         50.551          0.000          0.000        -50.551 partial forces
       TOTAL FORCE WITH RESPECT TO GLOBAL CARTESIAN COORDINATES:
:FCA001:   1.ATOM                         0.000        -50.551          0.000 partial forces
       TOTAL FORCE WITH RESPECT TO THE GLOBAL COORDINATE SYSTEM:
:FGL001:   1.ATOM                 0.000000000   -50.550996766     0.000000000 partial forces
 Flat Integration
 New Mode for Coulomb Integral
 Consistent 3/8+Simpson combinations
 Extension of core to zero
 LDM version in phi
 Fifth-order quadrature in outwin


            ---------
:ITE003:  3. ITERATION
            ---------

:NATO :    1 INDEPENDENT AND    2 TOTAL ATOMS IN UNITCELL
       SUBSTANCE: aU                                                          

       LATTICE                      = CXY 
:POT  : POTENTIAL OPTION EX_LDA EC_LDA VX_LDA VC_LDA
:LAT  : LATTICE CONSTANTS=  6.48990 13.16965 11.36963    1.571    1.571    1.571
:VOL  : UNIT CELL VOLUME =     485.88001
       MODE OF CALCULATION IS       = RELA
       NON-SPINPOLARIZED CALCULATION
:IFFT  : FFT-parameters:   54  108   90 Factor: 2.00


   CONVERGENCE PARAMETER FOR PSEUDOCHARGE: NCON=  9
   MAXIMAL VALUE OF RMT(JATOM)*ABSK(NKK) : RK  =27.59923


:VKCOUL :  VK-COUL convergence: 0.592E-07
       ATOMNUMBER=  1 Pr1        VCOUL-ZERO =  0.54879E-01
:EFG001:                        EFG         =    -0.29821   *10**21  V / m**2
                               V20  TOT/SRF=    -0.25825    -0.02944
                               V22  TOT/SRF=    -0.05187     0.00404
                               V22M TOT/SRF=     0.00000     0.00000
                               V21  TOT/SRF=     0.00000     0.00000
                               V21M TOT/SRF=     0.00000     0.00000

              0.09724    0.00000    0.00000        0.09724    0.00000    0.00000
              0.00000    0.20097    0.00000        0.00000    0.20097    0.00000
              0.00000    0.00000   -0.29821        0.00000    0.00000   -0.29821

         MAIN DIRECTIONS OF THE EFG   1.0000  0.0000  0.0000
                                      0.0000  1.0000  0.0000
                                      0.0000  0.0000  1.0000
:ANG001:  ANGLE WITH OLD X-AXIS =         0.0

:ETA001:                         ASYMM. ETA =     0.34787


     HELLMANN-FEYNMAN-FORCE IN mRy/a.u. = |F|  Fx       Fy             Fz
:FHF001:   1.ATOM    315.062197908814      0.000000000000      0.000000000000   -315.062197908814

:FIT001: LUSE= 13 SIGMA OF V-XC FIT FOR ATOM  1  0.2370368E-05
:FIT001: LUSE= 13 SIGMA OF V-XC FIT FOR ATOM  1  0.2370368E-05
:DEN  : DENSITY INTEGRAL  =        -14148.60231631   (Ry)
       ELS_POTENTIAL_AT Z=0 and Z=0.5:   0.70646   0.70646
       ELS_POTENTIAL_AT Y=0 and Y=0.5:   0.06777   0.06777
:VZERO:v0,v0c,v0x   0.13591   0.70646  -0.57056 v5,v5c,v5x   0.13591   0.70646  -0.57056
:VZERY:v0,v0c,v0x  -0.69660   0.06777  -0.76437 v5,v5c,v5x  -0.69660   0.06777  -0.76437
:VZERX:v0,v0c,v0x  -1.10928  -0.37528  -0.73400 v5,v5c,v5x  -1.10928  -0.37528  -0.73400
:LMAX-WF:   10   Non-Spherical LMAX:   4

          ATOMIC SPHERE DEPENDENT PARAMETERS FOR ATOM  Pr1       
:e__0001: OVERALL ENERGY PARAMETER IS    0.4137
          OVERALL BASIS SET ON ATOM IS LAPW
:E0_0001: E( 0)=    0.4137
             APW+lo
:E0_0001: E( 0)=   -2.0459   E(BOTTOM)=   -2.683   E(TOP)=   -1.409  4  5   177
             LOCAL ORBITAL
:E1_0001: E( 1)=    0.8137
             APW+lo
:E1_0001: E( 1)=   -0.5767   E(BOTTOM)=   -1.536   E(TOP)=    0.382  3  4   199
             LOCAL ORBITAL
:E3_0001: E( 3)=    0.6095   E(BOTTOM)=    0.401   E(TOP)=    0.818  0  1   122
             APW+lo
:E2_0001: E( 2)=    0.4137   E(BOTTOM)=    0.204   E(TOP)= -200.000  2 -1    90
             APW+lo

       K=   0.06250   0.00000   0.06250            1
:RKM  : MATRIX SIZE   453LOs:  40  RKM= 8.49  WEIGHT= 4.00  PGR:    
       EIGENVALUES ARE:
:EIG00001:      -2.0169980   -2.0034396   -0.7442877   -0.6689617   -0.6523594
:EIG00006:      -0.6469993   -0.6407395   -0.6400831    0.3813635    0.5202236
:EIG00011:       0.6160857    0.6184081    0.6188536    0.6226567    0.6252730
:EIG00016:       0.6365172    0.6409390    0.6411290    0.6442247    0.6466861
:EIG00021:       0.6509753    0.6530599    0.6546963    0.6588616    0.6873785
:EIG00026:       0.6995536    0.7749968    0.7910881    0.8126996    0.8482368
:EIG00031:       0.8649603    0.9478896    0.9933761    1.0368508    1.3256465
:EIG00036:       1.3349969    1.4229808    1.4249758    1.5824128    1.6340402
:EIG00041:       1.6962934    1.7984095    1.8756133    1.8904629    1.9899736
:EIG00046:       2.0422997    2.0554640
 
       ********************************************************

:KPT   :      NUMBER OF K-POINTS:   288
:GAP (global)   :    0.0    Ry =     0.0   eV (metal)
         Bandranges (emin - emax) and occupancy:
:BAN00004:   4   -0.728681   -0.668962  2.00000000
:BAN00005:   5   -0.718762   -0.652359  2.00000000
:BAN00006:   6   -0.703854   -0.643382  2.00000000
:BAN00007:   7   -0.685066   -0.640734  2.00000000
:BAN00008:   8   -0.657884   -0.636755  2.00000000
:BAN00009:   9    0.376420    0.589322  2.00000000
:BAN00010:  10    0.485262    0.599556  2.00000000
:BAN00011:  11    0.555191    0.616501  2.00000000
:BAN00012:  12    0.594977    0.623526  2.00000000
:BAN00013:  13    0.608973    0.632602  1.56577413
:BAN00014:  14    0.617769    0.638156  0.43422587
:BAN00015:  15    0.624260    0.640466  0.00000000
:BAN00016:  16    0.629660    0.641250  0.00000000
:BAN00017:  17    0.633428    0.642277  0.00000000
:BAN00018:  18    0.635640    0.643265  0.00000000
:BAN00019:  19    0.638738    0.646523  0.00000000
        Energy to separate low and high energystates:    0.32642


:NOE  : NUMBER OF ELECTRONS          =   26.000

:FER  : F E R M I - ENERGY(TETRAH.M.)=   0.6239706480
:GMA  : POTENTIAL AND CHARGE CUT-OFF  12.00 Ry**.5

:POS001: ATOM   -1 X,Y,Z = 0.00000 0.89750 0.25000  MULT= 2  ZZ= 59.000  Pr1       

       LMMAX 16
       LM=   0 0  1 0  2 0  2 2  3 0  3 2  4 0  4 2  4 4  5 0  5 2  5 4  6 0  6 2  6 4  6 6

:CHA001: TOTAL VALENCE CHARGE INSIDE SPHERE   1 =   9.3942    (RMT=  2.3000 )
:PCS001: PARTIAL CHARGES SPHERE =  1 S,P,D,F,PX,PY,PZ,D-Z2,D-X2Y2,D-XY,D-XZ,D-YZ 
:QTL001: 1.9415 5.0172 0.5453 1.8900 1.6688 1.6696 1.6788 0.1013 0.1048 0.1150 0.1065 0.1178
        Q-s-low E-s-low   Q-p-low E-p-low   Q-d-low E-d-low   Q-f-low E-f-low
:EPL001:  1.8688 -2.0036    4.9475 -0.6825    0.0016 -0.7101    0.0004 -0.7204
        Q-s-hi  E-s-hi    Q-p-hi  E-p-hi    Q-d-hi  E-d-hi    Q-f-hi  E-f-hi 
:EPH001:  0.0728  0.5177    0.0696  0.5588    0.5437  0.5721    1.8895  0.6093

                      VXX         VYY         VZZ       UP TO R
:VZZ001:             1.27013     4.02702    -5.29715       2.300

:CHA  : TOTAL VALENCE CHARGE INSIDE UNIT CELL =      26.000000

:SUM  : SUM OF EIGENVALUES =         -10.429579570


        1.ATOM      Pr1                  14 CORE STATES
       CORE-FORCE in mRy/a.u. = |F|      Fx             Fy             Fz
:FCO001:   1.ATOM    268.081673091334      0.000000000000      0.000000000000    268.081673091334

:1S 001: 1S               -3066.953790472 Ry
:2S 001: 2S                -492.718784821 Ry
:2PP001: 2P*               -465.816517493 Ry
:2P 001: 2P                -430.419671862 Ry
:3S 001: 3S                -105.815080011 Ry
:3PP001: 3P*                -94.352587671 Ry
:3P 001: 3P                 -87.345061992 Ry
:3DD001: 3D*                -67.271681335 Ry
:3D 001: 3D                 -65.760218518 Ry
:4S 001: 4S                 -20.494809388 Ry
:4PP001: 4P*                -16.201500297 Ry
:4P 001: 4P                 -14.674006220 Ry
:4DD001: 4D*                 -7.606925327 Ry
:4D 001: 4D                  -7.337505390 Ry
:CINT001 Core Integral Atom   1   45.998487

       DENSITY AT NUCLEUS
        JATOM        VALENCE       SEMI-CORE          CORE           TOTAL
:RTO001:   1      647.974875        0.000000   656822.153184   657470.128059
     
       CHARGES OF NEW CHARGE DENSITY
:NTO   : INTERSTITIAL CHARGE =     7.211507
:NPC   : PW Pseudocharge     =    16.968271
:NTO001: CHARGE SPHERE  1    =    55.392733

:NEC01: NUCLEAR AND ELECTRONIC CHARGE    118.00000   117.99697
     
       CHARGES OF OLD CHARGE DENSITY
:OTO   : INTERSTITIAL CHARGE =     6.966414
:OPC   : PW Pseudocharge     =    17.121439
:OTO001: CHARGE SPHERE  1    =    55.516793

:NEC02: NUCLEAR AND ELECTRONIC CHARGE    118.00000   118.00000
     
       CONVERGENCE TEST
:DTO001: DIFFERENCE IN SPHERE  1 =  0.2085266

:DIS  :  CHARGE DISTANCE       ( 0.2085266 for atom    1 spin 1)      0.2085266
 PW Mixed is          506
 
******************************************************
* MULTISECANT MIXING VER9 RELEASE 10.4.0              *
* Slow Mode, cautious                                *
* Fixed density scale                                *
* Regularization       1.000E-04                     *
* Step Trust Radius    0.75000                       *
* Trust Upper Limit    2.000E+00                     *
* Max Number of Memory Steps   12                    *
******************************************************
 
:PWTMP   3.8395E+02  1.9467E+02  4.8588E+02
:PLANE:  PW TOTAL      4.7141 DISTAN   1.73E-01  3.66E+00 %
:CHARG:  CLM/ATOM   1382.0445 DISTAN   6.40E-01  4.63E-02 %
 
Step History
        DMIX         DMIXT        Red     Pred      Trust     Lambda    MagRel    MagAbs     Beta
  1   3.5000E-02   3.5000E-02 -1.00E+00  1.00E+00 -1.00E+01  1.00E+00  3.50E-02  3.50E-02  1.00E+00
  2   2.5000E-02   2.5000E-02  7.16E-01  1.00E+00 -1.00E+01  1.00E+00  2.50E-02  2.52E-02  1.00E+00
  3   3.1875E-02   3.1875E-02 -1.00E+00  1.00E+00 -1.00E+01  1.00E+00  3.19E-02  2.30E-02  1.00E+00
:JACOBIANS    5.453E-01   1.457E-02
  
:NORMS:  1/Froebius, Min, Max, Used   0.8347E+00  0.3851E+00  0.8347E+00  0.8347E+00
:INFO :  Number of Memory Steps    2 Skipping    0
:INFO :  SLambda=    0.0490280558  Max    0.0490280558
:PREDicted Charge, CTotal, PW Trust    3.723E-03   7.446E-03   1.796E-01
:PREDicted DMix, Beta, BLim   4.0726E-02  8.5483E-01  4.7525E-01

Eigenvalues, unscaled except for SY+YY
   #     SY Real        SY Imag          SS             YY         SY+YY Real      SY+YY Imag
   1   1.441145E+00   0.000000E+00   1.393326E+00   1.999769E+00   2.070425E+00   0.000000E+00
   2  -1.110223E-14   0.000000E+00   0.000000E+00   2.307316E-04   2.312739E-04   0.000000E+00
 
:INFO :  Singular value  2.070E+00 Weight  1.000E+00 Projection  6.517E-04
:INFO :  Singular value  2.313E-04 Weight  5.722E-01 Projection -9.883E+00
:RANK :  ACTIVE   1.57/2  =  78.61 % ; YY RANK   1.57/2  =  78.55 %
 
:DLIM :  Beta Active  8.911E-01
:BLIM :  VZERO Control Off
:TRUST:  Step 2.10E-01  Charge 7.50E-02 (e) CTO  2.50E-01 (e) PW  3.50E-01 (e)
:DIRM :  MEMORY  2/12 SCALE   1.000 RED  0.92 PRED  1.00 NEXT  0.94 BETA  0.89
:TRAVE:  Charge 3.07E-03 (e) CTO  6.14E-03 (e) PW  2.56E-02 (e)
:DIRP :  |MSR1|= 3.501E-02 |PRATT|= 1.725E-01 ANGLE=  28.0 DEGREES
:DIRQ :  |MSR1|= 2.019E-02 |PRATT|= 6.401E-01 ANGLE=  14.6 DEGREES
:DIRT :  |MSR1|= 4.042E-02 |PRATT|= 6.629E-01 ANGLE=  48.3 DEGREES
:MIX  :   MSD1   REGULARIZATION:  2.00E-04 GREED: 0.03583  Newton 1.00  0.0610                
     
       CHARGES OF MIXED CHARGE DENSITY
:CTO   : INTERSTITIAL CHARGE =     6.972552
:CPC   : PW Pseudocharge     =    17.051396
:CTO001: CHARGE SPHERE  1    =    55.513724

:NEC03: NUCLEAR AND ELECTRONIC CHARGE    118.00000   118.00000

PW CHANGE     H    K    L      Current       Change    Residue
:PTO001:      0    0    0  4.94441979E-02 -1.315E-04  2.101E-04
:PTO003:      0    2    0  1.38842516E-02 -4.692E-05  3.778E-04
:PTO004:     -1    1    0  6.88053278E-02 -3.718E-04 -7.766E-04
:PTO005:      0    2   -1 -8.03234506E-02  4.624E-04  1.838E-03
:PTO006:      0    0   -2 -4.16805571E-02  2.480E-04  1.112E-03
:PTO007:     -1    1   -1 -8.78328586E-02  5.913E-04  3.047E-03
:PTO008:      0    2   -2 -1.46770203E-02  1.154E-04  4.691E-04
:PTO009:     -1    1   -2 -7.43248405E-02  6.078E-04  1.887E-03
:PTO011:     -1    3    0 -1.22268322E-02  1.275E-04  5.711E-04
:PTO012:     -1    3   -1 -5.57110548E-02  5.842E-04  1.616E-03
:PTO013:      0    4    0 -1.05155899E-02  1.298E-04  6.627E-04
:PTO014:      0    2   -3  2.37479342E-02 -2.806E-04 -1.006E-03

:ENE  : ********** TOTAL ENERGY IN Ry =       -36944.15563728

       TOTAL FORCE IN mRy/a.u. = |F|     Fx             Fy             Fz     with/without FOR in case.in2
:FOR001:   1.ATOM         46.981          0.000          0.000        -46.981 partial forces
       TOTAL FORCE WITH RESPECT TO GLOBAL CARTESIAN COORDINATES:
:FCA001:   1.ATOM                         0.000        -46.981          0.000 partial forces
       TOTAL FORCE WITH RESPECT TO THE GLOBAL COORDINATE SYSTEM:
:FGL001:   1.ATOM                 0.000000000   -46.980524817     0.000000000 partial forces
 Flat Integration
 New Mode for Coulomb Integral
 Consistent 3/8+Simpson combinations
 Extension of core to zero
 LDM version in phi
 Fifth-order quadrature in outwin


            ---------
:ITE004:  4. ITERATION
            ---------

:NATO :    1 INDEPENDENT AND    2 TOTAL ATOMS IN UNITCELL
       SUBSTANCE: aU                                                          

       LATTICE                      = CXY 
:POT  : POTENTIAL OPTION EX_LDA EC_LDA VX_LDA VC_LDA
:LAT  : LATTICE CONSTANTS=  6.48990 13.16965 11.36963    1.571    1.571    1.571
:VOL  : UNIT CELL VOLUME =     485.88001
       MODE OF CALCULATION IS       = RELA
       NON-SPINPOLARIZED CALCULATION
:IFFT  : FFT-parameters:   54  108   90 Factor: 2.00


   CONVERGENCE PARAMETER FOR PSEUDOCHARGE: NCON=  9
   MAXIMAL VALUE OF RMT(JATOM)*ABSK(NKK) : RK  =27.59923


:VKCOUL :  VK-COUL convergence: 0.574E-07
       ATOMNUMBER=  1 Pr1        VCOUL-ZERO =  0.54487E-01
:EFG001:                        EFG         =    -0.42086   *10**21  V / m**2
                               V20  TOT/SRF=    -0.36448    -0.02849
                               V22  TOT/SRF=    -0.02035     0.00372
                               V22M TOT/SRF=     0.00000     0.00000
                               V21  TOT/SRF=     0.00000     0.00000
                               V21M TOT/SRF=     0.00000     0.00000

              0.19008    0.00000    0.00000        0.19008    0.00000    0.00000
              0.00000    0.23078    0.00000        0.00000    0.23078    0.00000
              0.00000    0.00000   -0.42086        0.00000    0.00000   -0.42086

         MAIN DIRECTIONS OF THE EFG   1.0000  0.0000  0.0000
                                      0.0000  1.0000  0.0000
                                      0.0000  0.0000  1.0000
:ANG001:  ANGLE WITH OLD X-AXIS =         0.0

:ETA001:                         ASYMM. ETA =     0.09671


     HELLMANN-FEYNMAN-FORCE IN mRy/a.u. = |F|  Fx       Fy             Fz
:FHF001:   1.ATOM    324.557877638183      0.000000000000      0.000000000000   -324.557877638183

:FIT001: LUSE= 13 SIGMA OF V-XC FIT FOR ATOM  1  0.2548379E-05
:FIT001: LUSE= 13 SIGMA OF V-XC FIT FOR ATOM  1  0.2548379E-05
:DEN  : DENSITY INTEGRAL  =        -14147.92365548   (Ry)
       ELS_POTENTIAL_AT Z=0 and Z=0.5:   0.70694   0.70694
       ELS_POTENTIAL_AT Y=0 and Y=0.5:   0.06831   0.06831
:VZERO:v0,v0c,v0x   0.13613   0.70694  -0.57081 v5,v5c,v5x   0.13613   0.70694  -0.57081
:VZERY:v0,v0c,v0x  -0.69626   0.06831  -0.76457 v5,v5c,v5x  -0.69626   0.06831  -0.76457
:VZERX:v0,v0c,v0x  -1.10889  -0.37502  -0.73386 v5,v5c,v5x  -1.10889  -0.37502  -0.73386
:LMAX-WF:   10   Non-Spherical LMAX:   4

          ATOMIC SPHERE DEPENDENT PARAMETERS FOR ATOM  Pr1       
:e__0001: OVERALL ENERGY PARAMETER IS    0.4206
          OVERALL BASIS SET ON ATOM IS LAPW
:E0_0001: E( 0)=    0.4206
             APW+lo
:E0_0001: E( 0)=   -2.0485   E(BOTTOM)=   -2.685   E(TOP)=   -1.412  4  5   179
             LOCAL ORBITAL
:E1_0001: E( 1)=    0.8206
             APW+lo
:E1_0001: E( 1)=   -0.5791   E(BOTTOM)=   -1.537   E(TOP)=    0.379  3  4   196
             LOCAL ORBITAL
:E3_0001: E( 3)=    0.6052   E(BOTTOM)=    0.397   E(TOP)=    0.813  0  1   124
             APW+lo
:E2_0001: E( 2)=    0.4206   E(BOTTOM)=    0.203   E(TOP)= -200.000  2 -1    90
             APW+lo

       K=   0.06250   0.00000   0.06250            1
:RKM  : MATRIX SIZE   453LOs:  40  RKM= 8.49  WEIGHT= 4.00  PGR:    
       EIGENVALUES ARE:
:EIG00001:      -2.0194627   -2.0059543   -0.7458608   -0.6712002   -0.6546319
:EIG00006:      -0.6489041   -0.6426265   -0.6420187    0.3810648    0.5196680
:EIG00011:       0.6129757    0.6149944    0.6150236    0.6187517    0.6213678
:EIG00016:       0.6326520    0.6369989    0.6370330    0.6400866    0.6424141
:EIG00021:       0.6469435    0.6490388    0.6503541    0.6545482    0.6855622
:EIG00026:       0.6983854    0.7739139    0.7900585    0.8119539    0.8472382
:EIG00031:       0.8639011    0.9470377    0.9923154    1.0356881    1.3246832
:EIG00036:       1.3343288    1.4223463    1.4243097    1.5819355    1.6338208
:EIG00041:       1.6958055    1.7979603    1.8748576    1.8899865    1.9890859
:EIG00046:       2.0417049    2.0550947    2.1174824
 
       ********************************************************

:KPT   :      NUMBER OF K-POINTS:   288
:GAP (global)   :    0.0    Ry =     0.0   eV (metal)
         Bandranges (emin - emax) and occupancy:
:BAN00004:   4   -0.730418   -0.671200  2.00000000
:BAN00005:   5   -0.720519   -0.654632  2.00000000
:BAN00006:   6   -0.705795   -0.645297  2.00000000
:BAN00007:   7   -0.687155   -0.642626  2.00000000
:BAN00008:   8   -0.659784   -0.638698  2.00000000
:BAN00009:   9    0.376124    0.587997  2.00000000
:BAN00010:  10    0.484856    0.597646  2.00000000
:BAN00011:  11    0.554357    0.614149  2.00000000
:BAN00012:  12    0.593306    0.620203  2.00000000
:BAN00013:  13    0.606119    0.628582  1.55307228
:BAN00014:  14    0.614326    0.634197  0.44692771
:BAN00015:  15    0.620569    0.636353  0.00000000
:BAN00016:  16    0.625883    0.636962  0.00000000
:BAN00017:  17    0.629595    0.638603  0.00000000
:BAN00018:  18    0.631751    0.639315  0.00000000
:BAN00019:  19    0.634729    0.642469  0.00000000
        Energy to separate low and high energystates:    0.32612


:NOE  : NUMBER OF ELECTRONS          =   26.000

:FER  : F E R M I - ENERGY(TETRAH.M.)=   0.6203124428
:GMA  : POTENTIAL AND CHARGE CUT-OFF  12.00 Ry**.5

:POS001: ATOM   -1 X,Y,Z = 0.00000 0.89750 0.25000  MULT= 2  ZZ= 59.000  Pr1       

       LMMAX 16
       LM=   0 0  1 0  2 0  2 2  3 0  3 2  4 0  4 2  4 4  5 0  5 2  5 4  6 0  6 2  6 4  6 6

:CHA001: TOTAL VALENCE CHARGE INSIDE SPHERE   1 =   9.4382    (RMT=  2.3000 )
:PCS001: PARTIAL CHARGES SPHERE =  1 S,P,D,F,PX,PY,PZ,D-Z2,D-X2Y2,D-XY,D-XZ,D-YZ 
:QTL001: 1.9412 5.0170 0.5306 1.9491 1.6689 1.6696 1.6785 0.0983 0.1005 0.1132 0.1037 0.1150
        Q-s-low E-s-low   Q-p-low E-p-low   Q-d-low E-d-low   Q-f-low E-f-low
:EPL001:  1.8690 -2.0061    4.9494 -0.6844    0.0016 -0.7115    0.0004 -0.7219
        Q-s-hi  E-s-hi    Q-p-hi  E-p-hi    Q-d-hi  E-d-hi    Q-f-hi  E-f-hi 
:EPH001:  0.0722  0.5166    0.0676  0.5565    0.5291  0.5699    1.9487  0.6062

                      VXX         VYY         VZZ       UP TO R
:VZZ001:             1.34941     4.24371    -5.59311       2.300

:CHA  : TOTAL VALENCE CHARGE INSIDE UNIT CELL =      26.000000

:SUM  : SUM OF EIGENVALUES =         -10.481340975


        1.ATOM      Pr1                  14 CORE STATES
       CORE-FORCE in mRy/a.u. = |F|      Fx             Fy             Fz
:FCO001:   1.ATOM    285.092286626765      0.000000000000      0.000000000000    285.092286626765

:1S 001: 1S               -3066.962188117 Ry
:2S 001: 2S                -492.726669108 Ry
:2PP001: 2P*               -465.824470210 Ry
:2P 001: 2P                -430.427594620 Ry
:3S 001: 3S                -105.822432797 Ry
:3PP001: 3P*                -94.359974766 Ry
:3P 001: 3P                 -87.352404649 Ry
:3DD001: 3D*                -67.279106362 Ry
:3D 001: 3D                 -65.767630731 Ry
:4S 001: 4S                 -20.500651679 Ry
:4PP001: 4P*                -16.207262590 Ry
:4P 001: 4P                 -14.679640501 Ry
:4DD001: 4D*                 -7.612328581 Ry
:4D 001: 4D                  -7.342864280 Ry
:CINT001 Core Integral Atom   1   45.998490

       DENSITY AT NUCLEUS
        JATOM        VALENCE       SEMI-CORE          CORE           TOTAL
:RTO001:   1      648.039906        0.000000   656822.552181   657470.592087
     
       CHARGES OF NEW CHARGE DENSITY
:NTO   : INTERSTITIAL CHARGE =     7.123552
:NPC   : PW Pseudocharge     =    16.943938
:NTO001: CHARGE SPHERE  1    =    55.436714

:NEC01: NUCLEAR AND ELECTRONIC CHARGE    118.00000   117.99698
     
       CHARGES OF OLD CHARGE DENSITY
:OTO   : INTERSTITIAL CHARGE =     6.972552
:OPC   : PW Pseudocharge     =    17.051396
:OTO001: CHARGE SPHERE  1    =    55.513724

:NEC02: NUCLEAR AND ELECTRONIC CHARGE    118.00000   118.00000
     
       CONVERGENCE TEST
:DTO001: DIFFERENCE IN SPHERE  1 =  0.1420230

:DIS  :  CHARGE DISTANCE       ( 0.1420230 for atom    1 spin 1)      0.1420230
 PW Mixed is          506
 
******************************************************
* MULTISECANT MIXING VER9 RELEASE 10.4.0              *
* Standard Mode with controls                        *
* Fixed density scale                                *
* Regularization       1.000E-04                     *
* Trust Upper Limit    5.000E+00                     *
* Max Number of Memory Steps    8                    *
******************************************************
 
:PWTMP   3.8395E+02  1.9467E+02  4.8588E+02
:PLANE:  PW TOTAL      4.6855 DISTAN   1.40E-01  3.00E+00 %
:CHARG:  CLM/ATOM   1382.0404 DISTAN   5.91E-01  4.28E-02 %
 
Step History
        DMIX         DMIXT        Red     Pred      Trust     Lambda    MagRel    MagAbs     Beta
  1   3.5000E-02   3.5000E-02 -1.00E+00  1.00E+00 -1.00E+01  1.00E+00  3.50E-02  3.50E-02  1.00E+00
  2   2.5000E-02   2.5000E-02  7.16E-01  1.00E+00 -1.00E+01  1.00E+00  2.50E-02  2.52E-02  1.00E+00
  3   3.1875E-02   3.1875E-02  9.19E-01  1.00E+00 -1.00E+01  4.90E-02  3.19E-02  2.30E-02  1.00E+00
  4   3.5832E-02   3.5832E-02 -1.00E+00  9.39E-01  2.10E-01  1.00E+00  6.10E-02  4.04E-02  8.91E-01
:JACOBIANS    7.609E-01   5.022E-02
  
:NORMS:  1/Froebius, Min, Max, Used   0.5923E+00  0.3524E+00  0.9829E+00  0.6592E+00
:INFO :  Number of Memory Steps    3 Skipping    0
:INFO :  SLambda=    1.7378439163  Max    1.7378439163
:PREDicted Charge, CTotal, PW Trust    1.175E-02   2.350E-02   1.487E-01
:PREDicted DMix, Beta, BLim   1.3184E-01  3.3207E+00  2.8192E-01

Eigenvalues, unscaled except for SY+YY
   #     SY Real        SY Imag          SS             YY         SY+YY Real      SY+YY Imag
   1   1.052956E+00   0.000000E+00   1.012336E+00   2.329411E+00   3.743694E+00   0.000000E+00
   2  -4.427755E-15   0.000000E+00   4.006477E-02   6.704299E-01   1.592468E-04   0.000000E+00
   3   1.071026E-01   0.000000E+00   3.084880E-17   1.588387E-04   1.272149E+00   0.000000E+00
 
:INFO :  Singular value  3.744E+00 Weight  1.000E+00 Projection -7.662E-03
:INFO :  Singular value  1.272E+00 Weight  1.000E+00 Projection -3.746E-01
:INFO :  Singular value  1.592E-04 Weight  3.185E-01 Projection -2.309E+00
:RANK :  ACTIVE   2.32/3  =  77.28 % ; YY RANK   2.32/3  =  77.25 %
 
:BLIM :  VZERO Control Off
:TRUST:  Step 3.55E-01  Charge 7.50E-02 (e) CTO  2.50E-01 (e) PW  3.50E-01 (e)
:DIRM :  MEMORY  3/8  SCALE   1.000 RED  0.92 PRED  0.94 NEXT  0.92 
:TRAVE:  Charge 3.31E-03 (e) CTO  6.63E-03 (e) PW  7.18E-02 (e)
:DIRP :  |MSR1|= 1.498E-01 |PRATT|= 1.404E-01 ANGLE=  32.0 DEGREES
:DIRQ :  |MSR1|= 9.822E-02 |PRATT|= 5.915E-01 ANGLE=  15.4 DEGREES
:DIRT :  |MSR1|= 1.791E-01 |PRATT|= 6.079E-01 ANGLE=  47.3 DEGREES
:MIX  :   MSE1   REGULARIZATION:  2.33E-04 GREED: 0.08261  Newton 1.00  0.2947                
     
       CHARGES OF MIXED CHARGE DENSITY
:CTO   : INTERSTITIAL CHARGE =     6.979670
:CPC   : PW Pseudocharge     =    16.750005
:CTO001: CHARGE SPHERE  1    =    55.510165

:NEC03: NUCLEAR AND ELECTRONIC CHARGE    118.00000   118.00000

PW CHANGE     H    K    L      Current       Change    Residue
:PTO001:      0    0    0  4.88385499E-02 -6.056E-04  1.106E-04
:PTO003:      0    2    0  1.36786527E-02 -2.056E-04  3.637E-04
:PTO004:     -1    1    0  6.72279515E-02 -1.577E-03 -4.647E-04
:PTO005:      0    2   -1 -7.83493150E-02  1.974E-03  1.375E-03
:PTO006:      0    0   -2 -4.06235936E-02  1.057E-03  8.535E-04
:PTO007:     -1    1   -1 -8.53251152E-02  2.508E-03  2.376E-03
:PTO008:      0    2   -2 -1.41794408E-02  4.976E-04  3.748E-04
:PTO009:     -1    1   -2 -7.17807526E-02  2.544E-03  1.212E-03
:PTO011:     -1    3    0 -1.16919337E-02  5.349E-04  4.230E-04
:PTO012:     -1    3   -1 -5.32455658E-02  2.465E-03  1.051E-03
:PTO013:      0    4    0 -9.95887894E-03  5.567E-04  5.257E-04
:PTO014:      0    2   -3  2.25569484E-02 -1.191E-03 -7.191E-04

:ENE  : ********** TOTAL ENERGY IN Ry =       -36944.15413136

       TOTAL FORCE IN mRy/a.u. = |F|     Fx             Fy             Fz     with/without FOR in case.in2
:FOR001:   1.ATOM         39.466          0.000          0.000        -39.466 partial forces
       TOTAL FORCE WITH RESPECT TO GLOBAL CARTESIAN COORDINATES:
:FCA001:   1.ATOM                         0.000        -39.466          0.000 partial forces
       TOTAL FORCE WITH RESPECT TO THE GLOBAL COORDINATE SYSTEM:
:FGL001:   1.ATOM                 0.000000000   -39.465591011     0.000000000 partial forces
 Flat Integration
 New Mode for Coulomb Integral
 Consistent 3/8+Simpson combinations
 Extension of core to zero
 LDM version in phi
 Fifth-order quadrature in outwin


            ---------
:ITE005:  5. ITERATION
            ---------

:NATO :    1 INDEPENDENT AND    2 TOTAL ATOMS IN UNITCELL
       SUBSTANCE: aU                                                          

       LATTICE                      = CXY 
:POT  : POTENTIAL OPTION EX_LDA EC_LDA VX_LDA VC_LDA
:LAT  : LATTICE CONSTANTS=  6.48990 13.16965 11.36963    1.571    1.571    1.571
:VOL  : UNIT CELL VOLUME =     485.88001
       MODE OF CALCULATION IS       = RELA
       NON-SPINPOLARIZED CALCULATION
:IFFT  : FFT-parameters:   54  108   90 Factor: 2.00


   CONVERGENCE PARAMETER FOR PSEUDOCHARGE: NCON=  9
   MAXIMAL VALUE OF RMT(JATOM)*ABSK(NKK) : RK  =27.59923


:VKCOUL :  VK-COUL convergence: 0.501E-07
       ATOMNUMBER=  1 Pr1        VCOUL-ZERO =  0.53309E-01
:EFG001:                        EFG         =    -1.22801   *10**21  V / m**2
                               V20  TOT/SRF=    -1.06349    -0.02507
                               V22  TOT/SRF=    -0.02854     0.00176
                               V22M TOT/SRF=     0.00000     0.00000
                               V21  TOT/SRF=     0.00000     0.00000
                               V21M TOT/SRF=     0.00000     0.00000

              0.58546    0.00000    0.00000        0.58546    0.00000    0.00000
              0.00000    0.64255    0.00000        0.00000    0.64255    0.00000
              0.00000    0.00000   -1.22801        0.00000    0.00000   -1.22801

         MAIN DIRECTIONS OF THE EFG   1.0000  0.0000  0.0000
                                      0.0000  1.0000  0.0000
                                      0.0000  0.0000  1.0000
:ANG001:  ANGLE WITH OLD X-AXIS =         0.0

:ETA001:                         ASYMM. ETA =     0.04649


     HELLMANN-FEYNMAN-FORCE IN mRy/a.u. = |F|  Fx       Fy             Fz
:FHF001:   1.ATOM    412.025375487553      0.000000000000      0.000000000000   -412.025375487553

:FIT001: LUSE= 13 SIGMA OF V-XC FIT FOR ATOM  1  0.6092236E-05
:FIT001: LUSE= 13 SIGMA OF V-XC FIT FOR ATOM  1  0.6092236E-05
:DEN  : DENSITY INTEGRAL  =        -14147.01500146   (Ry)
       ELS_POTENTIAL_AT Z=0 and Z=0.5:   0.70757   0.70757
       ELS_POTENTIAL_AT Y=0 and Y=0.5:   0.07085   0.07085
:VZERO:v0,v0c,v0x   0.13626   0.70757  -0.57131 v5,v5c,v5x   0.13626   0.70757  -0.57131
:VZERY:v0,v0c,v0x  -0.69418   0.07085  -0.76504 v5,v5c,v5x  -0.69418   0.07085  -0.76504
:VZERX:v0,v0c,v0x  -1.10622  -0.37344  -0.73278 v5,v5c,v5x  -1.10622  -0.37344  -0.73278
:LMAX-WF:   10   Non-Spherical LMAX:   4

          ATOMIC SPHERE DEPENDENT PARAMETERS FOR ATOM  Pr1       
:e__0001: OVERALL ENERGY PARAMETER IS    0.4204
          OVERALL BASIS SET ON ATOM IS LAPW
:E0_0001: E( 0)=    0.4204
             APW+lo
:E0_0001: E( 0)=   -2.0529   E(BOTTOM)=   -2.688   E(TOP)=   -1.417  4  5   174
             LOCAL ORBITAL
:E1_0001: E( 1)=    0.8204
             APW+lo
:E1_0001: E( 1)=   -0.5831   E(BOTTOM)=   -1.541   E(TOP)=    0.375  3  4   198
             LOCAL ORBITAL
:E3_0001: E( 3)=    0.5993   E(BOTTOM)=    0.392   E(TOP)=    0.807  0  1   118
             APW+lo
:E2_0001: E( 2)=    0.4204   E(BOTTOM)=    0.200   E(TOP)= -200.000  2 -1    92
             APW+lo

       K=   0.06250   0.00000   0.06250            1
:RKM  : MATRIX SIZE   453LOs:  40  RKM= 8.49  WEIGHT= 4.00  PGR:    
       EIGENVALUES ARE:
:EIG00001:      -2.0235257   -2.0101262   -0.7480468   -0.6755905   -0.6590562
:EIG00006:      -0.6522082   -0.6454329   -0.6454087    0.3800312    0.5180987
:EIG00011:       0.6086072    0.6098735    0.6105671    0.6130005    0.6161081
:EIG00016:       0.6276138    0.6311226    0.6317396    0.6344630    0.6361443
:EIG00021:       0.6409302    0.6435651    0.6436609    0.6488457    0.6826690
:EIG00026:       0.6963285    0.7719931    0.7878281    0.8106701    0.8449266
:EIG00031:       0.8615161    0.9455323    0.9903161    1.0336103    1.3228030
:EIG00036:       1.3326053    1.4206632    1.4226146    1.5805007    1.6334449
:EIG00041:       1.6948503    1.7970569    1.8728155    1.8891626    1.9872449
:EIG00046:       2.0403654    2.0540911    2.1156397
 
       ********************************************************

:KPT   :      NUMBER OF K-POINTS:   288
:GAP (global)   :    0.0    Ry =     0.0   eV (metal)
         Bandranges (emin - emax) and occupancy:
:BAN00004:   4   -0.733533   -0.675590  2.00000000
:BAN00005:   5   -0.723633   -0.659056  2.00000000
:BAN00006:   6   -0.709285   -0.648618  2.00000000
:BAN00007:   7   -0.691172   -0.645433  2.00000000
:BAN00008:   8   -0.663064   -0.642100  2.00000000
:BAN00009:   9    0.375093    0.586009  2.00000000
:BAN00010:  10    0.483622    0.594942  2.00000000
:BAN00011:  11    0.552280    0.610493  2.00000000
:BAN00012:  12    0.590749    0.615409  1.99989411
:BAN00013:  13    0.601547    0.623208  1.51367259
:BAN00014:  14    0.609456    0.628020  0.48643330
:BAN00015:  15    0.615563    0.629999  0.00000000
:BAN00016:  16    0.620673    0.631367  0.00000000
:BAN00017:  17    0.624095    0.633169  0.00000000
:BAN00018:  18    0.626157    0.633758  0.00000000
:BAN00019:  19    0.629290    0.636744  0.00000000
        Energy to separate low and high energystates:    0.32509


:NOE  : NUMBER OF ELECTRONS          =   26.000

:FER  : F E R M I - ENERGY(TETRAH.M.)=   0.6150494532
:GMA  : POTENTIAL AND CHARGE CUT-OFF  12.00 Ry**.5

:POS001: ATOM   -1 X,Y,Z = 0.00000 0.89750 0.25000  MULT= 2  ZZ= 59.000  Pr1       

       LMMAX 16
       LM=   0 0  1 0  2 0  2 2  3 0  3 2  4 0  4 2  4 4  5 0  5 2  5 4  6 0  6 2  6 4  6 6

:CHA001: TOTAL VALENCE CHARGE INSIDE SPHERE   1 =   9.4907    (RMT=  2.3000 )
:PCS001: PARTIAL CHARGES SPHERE =  1 S,P,D,F,PX,PY,PZ,D-Z2,D-X2Y2,D-XY,D-XZ,D-YZ 
:QTL001: 1.9408 5.0176 0.5120 2.0201 1.6693 1.6697 1.6786 0.0951 0.0936 0.1111 0.0999 0.1123
        Q-s-low E-s-low   Q-p-low E-p-low   Q-d-low E-d-low   Q-f-low E-f-low
:EPL001:  1.8693 -2.0103    4.9522 -0.6877    0.0015 -0.7129    0.0004 -0.7233
        Q-s-hi  E-s-hi    Q-p-hi  E-p-hi    Q-d-hi  E-d-hi    Q-f-hi  E-f-hi 
:EPH001:  0.0715  0.5144    0.0654  0.5532    0.5105  0.5665    2.0197  0.6018

                      VXX         VYY         VZZ       UP TO R
:VZZ001:             3.73268     4.49829    -8.23096       2.300

:CHA  : TOTAL VALENCE CHARGE INSIDE UNIT CELL =      26.000000

:SUM  : SUM OF EIGENVALUES =         -10.567539607


        1.ATOM      Pr1                  14 CORE STATES
       CORE-FORCE in mRy/a.u. = |F|      Fx             Fy             Fz
:FCO001:   1.ATOM    403.009471495986      0.000000000000      0.000000000000    403.009471495986

:1S 001: 1S               -3066.975465270 Ry
:2S 001: 2S                -492.737522596 Ry
:2PP001: 2P*               -465.835634335 Ry
:2P 001: 2P                -430.438621477 Ry
:3S 001: 3S                -105.831583111 Ry
:3PP001: 3P*                -94.369221020 Ry
:3P 001: 3P                 -87.361552055 Ry
:3DD001: 3D*                -67.288424914 Ry
:3D 001: 3D                 -65.776917735 Ry
:4S 001: 4S                 -20.508060965 Ry
:4PP001: 4P*                -16.214623481 Ry
:4P 001: 4P                 -14.686910434 Ry
:4DD001: 4D*                 -7.619411685 Ry
:4D 001: 4D                  -7.349912930 Ry
:CINT001 Core Integral Atom   1   45.998494

       DENSITY AT NUCLEUS
        JATOM        VALENCE       SEMI-CORE          CORE           TOTAL
:RTO001:   1      648.089332        0.000000   656823.313083   657471.402415
     
       CHARGES OF NEW CHARGE DENSITY
:NTO   : INTERSTITIAL CHARGE =     7.018644
:NPC   : PW Pseudocharge     =    16.913175
:NTO001: CHARGE SPHERE  1    =    55.489171

:NEC01: NUCLEAR AND ELECTRONIC CHARGE    118.00000   117.99699
     
       CHARGES OF OLD CHARGE DENSITY
:OTO   : INTERSTITIAL CHARGE =     6.979670
:OPC   : PW Pseudocharge     =    16.750005
:OTO001: CHARGE SPHERE  1    =    55.510165

:NEC02: NUCLEAR AND ELECTRONIC CHARGE    118.00000   118.00000
     
       CONVERGENCE TEST
:DTO001: DIFFERENCE IN SPHERE  1 =  0.0761968

:DIS  :  CHARGE DISTANCE       ( 0.0761968 for atom    1 spin 1)      0.0761968
 PW Mixed is          506
 
******************************************************
* MULTISECANT MIXING VER9 RELEASE 10.4.0              *
* Standard Mode with controls                        *
* Fixed density scale                                *
* Regularization       1.000E-04                     *
* Trust Upper Limit    5.000E+00                     *
* Max Number of Memory Steps    8                    *
******************************************************
 
:PWTMP   3.8395E+02  1.9467E+02  4.8588E+02
:PLANE:  PW TOTAL      4.5641 DISTAN   7.23E-02  1.58E+00 %
:CHARG:  CLM/ATOM   1382.0222 DISTAN   4.72E-01  3.41E-02 %
 
Step History
        DMIX         DMIXT        Red     Pred      Trust     Lambda    MagRel    MagAbs     Beta
  1   3.5000E-02   3.5000E-02 -1.00E+00  1.00E+00 -1.00E+01  1.00E+00  3.50E-02  3.50E-02  1.00E+00
  2   2.5000E-02   2.5000E-02  7.16E-01  1.00E+00 -1.00E+01  1.00E+00  2.50E-02  2.52E-02  1.00E+00
  3   3.1875E-02   3.1875E-02  9.19E-01  1.00E+00 -1.00E+01  4.90E-02  3.19E-02  2.30E-02  1.00E+00
  4   3.5832E-02   3.5832E-02  9.17E-01  9.39E-01  2.10E-01  1.74E+00  6.10E-02  4.04E-02  8.91E-01
  5   8.2611E-02   8.2611E-02 -1.00E+00  9.17E-01  3.55E-01  1.00E+00  2.95E-01  1.79E-01  1.00E+00
:JACOBIANS    8.796E-01   2.410E-01
  
:NORMS:  1/Froebius, Min, Max, Used   0.5678E+00  0.3577E+00  0.9936E+00  0.5866E+00
:INFO :  Number of Memory Steps    4 Skipping    0
:INFO :  SLambda=    0.8912082039  Max    0.8912082039
:PREDicted Charge, CTotal, PW Trust    3.648E-03   7.295E-03   6.541E-02
:PREDicted DMix, Beta, BLim   3.0604E-01  1.4347E+00  5.4178E-01

Eigenvalues, unscaled except for SY+YY
   #     SY Real        SY Imag          SS             YY         SY+YY Real      SY+YY Imag
   1   1.048797E+00   0.000000E+00   1.020587E+00   2.965493E+00   3.495162E+00   0.000000E+00
   2   3.685287E-01   0.000000E+00   2.689969E-01   1.022250E+00   1.754055E+00   0.000000E+00
   3  -7.553518E-15   0.000000E+00   1.998750E-04   1.216254E-02   9.511008E-05   0.000000E+00
   4   2.408047E-03   0.000000E+00   5.980955E-17   9.478704E-05   1.596604E-02   0.000000E+00
 
:INFO :  Singular value  3.496E+00 Weight  1.000E+00 Projection -1.331E-01
:INFO :  Singular value  1.753E+00 Weight  1.000E+00 Projection  1.972E-02
:INFO :  Singular value  1.597E-02 Weight  9.997E-01 Projection -2.648E+00
:INFO :  Singular value  9.511E-05 Weight  9.327E-02 Projection -9.819E-01
:RANK :  ACTIVE   3.09/4  =  77.32 % ; YY RANK   3.09/4  =  77.30 %
 
:BLIM :  VZERO Control Off
:TRUST:  Step 4.52E-01  Charge 6.00E-02 (e) CTO  2.00E-01 (e) PW  3.50E-01 (e)
:DTRUS:  Lambda    3.969E-01 Increment    7.276E-12 Iterations   101 DMIX    1.783E-01
:INFOA:  Angle SubSpace to MSR1      2.82
:DIRM :  MEMORY  4/8  SCALE   1.000 RED  0.79 PRED  0.92 NEXT  0.85 
:INFO :  Limited by Atoms F by Step T

:TRAVE:  Charge 2.87E-03 (e) CTO  5.73E-03 (e) PW  5.57E-02 (e)
:DIRP :  |MSR1|= 3.735E-02 |PRATT|= 7.230E-02 ANGLE=  13.2 DEGREES
:DIRQ :  |MSR1|= 2.124E-01 |PRATT|= 4.718E-01 ANGLE=   8.8 DEGREES
:DIRT :  |MSR1|= 2.157E-01 |PRATT|= 4.773E-01 ANGLE=   9.0 DEGREES
:MIX  :   MSD1   REGULARIZATION:  2.97E-04 GREED: 0.18202  LMStep 0.89  0.4518 Step           
     
       CHARGES OF MIXED CHARGE DENSITY
:CTO   : INTERSTITIAL CHARGE =     6.984510
:CPC   : PW Pseudocharge     =    16.844147
:CTO001: CHARGE SPHERE  1    =    55.507745

:NEC03: NUCLEAR AND ELECTRONIC CHARGE    118.00000   118.00000

PW CHANGE     H    K    L      Current       Change    Residue
:PTO001:      0    0    0  4.90422663E-02  2.037E-04  4.372E-04
:PTO003:      0    2    0  1.38094815E-02  1.308E-04  3.008E-04
:PTO004:     -1    1    0  6.77027512E-02  4.748E-04  9.017E-04
:PTO005:      0    2   -1 -7.87816232E-02 -4.323E-04 -6.084E-04
:PTO006:      0    0   -2 -4.08287986E-02 -2.052E-04 -2.720E-04
:PTO007:     -1    1   -1 -8.56680186E-02 -3.429E-04 -3.908E-04
:PTO008:      0    2   -2 -1.42085706E-02 -2.913E-05 -2.838E-05
:PTO009:     -1    1   -2 -7.26266508E-02 -8.459E-04 -1.496E-03
:PTO011:     -1    3    0 -1.18402082E-02 -1.483E-04 -2.356E-04
:PTO012:     -1    3   -1 -5.39520517E-02 -7.065E-04 -1.286E-03
:PTO013:      0    4    0 -1.00239929E-02 -6.511E-05 -4.509E-05
:PTO014:      0    2   -3  2.28748959E-02  3.179E-04  5.014E-04

:ENE  : ********** TOTAL ENERGY IN Ry =       -36944.15231668

       TOTAL FORCE IN mRy/a.u. = |F|     Fx             Fy             Fz     with/without FOR in case.in2
:FOR001:   1.ATOM          9.016          0.000          0.000         -9.016 partial forces
       TOTAL FORCE WITH RESPECT TO GLOBAL CARTESIAN COORDINATES:
:FCA001:   1.ATOM                         0.000         -9.016          0.000 partial forces
       TOTAL FORCE WITH RESPECT TO THE GLOBAL COORDINATE SYSTEM:
:FGL001:   1.ATOM                 0.000000000    -9.015903992     0.000000000 partial forces
 Flat Integration
 New Mode for Coulomb Integral
 Consistent 3/8+Simpson combinations
 Extension of core to zero
 LDM version in phi
 Fifth-order quadrature in outwin


            ---------
:ITE006:  6. ITERATION
            ---------

:NATO :    1 INDEPENDENT AND    2 TOTAL ATOMS IN UNITCELL
       SUBSTANCE: aU                                                          

       LATTICE                      = CXY 
:POT  : POTENTIAL OPTION EX_LDA EC_LDA VX_LDA VC_LDA
:LAT  : LATTICE CONSTANTS=  6.48990 13.16965 11.36963    1.571    1.571    1.571
:VOL  : UNIT CELL VOLUME =     485.88001
       MODE OF CALCULATION IS       = RELA
       NON-SPINPOLARIZED CALCULATION
:IFFT  : FFT-parameters:   54  108   90 Factor: 2.00


   CONVERGENCE PARAMETER FOR PSEUDOCHARGE: NCON=  9
   MAXIMAL VALUE OF RMT(JATOM)*ABSK(NKK) : RK  =27.59923


:VKCOUL :  VK-COUL convergence: 0.950E-07
       ATOMNUMBER=  1 Pr1        VCOUL-ZERO =  0.53118E-01
:EFG001:                        EFG         =    -4.59804   *10**21  V / m**2
                               V20  TOT/SRF=    -3.98202    -0.02593
                               V22  TOT/SRF=     0.36927     0.00136
                               V22M TOT/SRF=     0.00000     0.00000
                               V21  TOT/SRF=     0.00000     0.00000
                               V21M TOT/SRF=     0.00000     0.00000

              2.66829    0.00000    0.00000        2.66829    0.00000    0.00000
              0.00000    1.92975    0.00000        0.00000    1.92975    0.00000
              0.00000    0.00000   -4.59804        0.00000    0.00000   -4.59804

         MAIN DIRECTIONS OF THE EFG   1.0000  0.0000  0.0000
                                      0.0000  1.0000  0.0000
                                      0.0000  0.0000  1.0000
:ANG001:  ANGLE WITH OLD X-AXIS =         0.0

:ETA001:                         ASYMM. ETA =     0.16062


     HELLMANN-FEYNMAN-FORCE IN mRy/a.u. = |F|  Fx       Fy             Fz
:FHF001:   1.ATOM    797.844007198856      0.000000000000      0.000000000000   -797.844007198856

:FIT001: LUSE= 13 SIGMA OF V-XC FIT FOR ATOM  1  0.2431815E-04
:FIT001: LUSE= 13 SIGMA OF V-XC FIT FOR ATOM  1  0.2431815E-04
:DEN  : DENSITY INTEGRAL  =        -14146.48747797   (Ry)
       ELS_POTENTIAL_AT Z=0 and Z=0.5:   0.70955   0.70955
       ELS_POTENTIAL_AT Y=0 and Y=0.5:   0.07456   0.07456
:VZERO:v0,v0c,v0x   0.13779   0.70955  -0.57176 v5,v5c,v5x   0.13779   0.70955  -0.57176
:VZERY:v0,v0c,v0x  -0.69137   0.07456  -0.76593 v5,v5c,v5x  -0.69137   0.07456  -0.76593
:VZERX:v0,v0c,v0x  -1.10806  -0.37416  -0.73390 v5,v5c,v5x  -1.10806  -0.37416  -0.73390
:LMAX-WF:   10   Non-Spherical LMAX:   4

          ATOMIC SPHERE DEPENDENT PARAMETERS FOR ATOM  Pr1       
:e__0001: OVERALL ENERGY PARAMETER IS    0.4168
          OVERALL BASIS SET ON ATOM IS LAPW
:E0_0001: E( 0)=    0.4168
             APW+lo
:E0_0001: E( 0)=   -2.0559   E(BOTTOM)=   -2.691   E(TOP)=   -1.421  4  5   176
             LOCAL ORBITAL
:E1_0001: E( 1)=    0.8168
             APW+lo
:E1_0001: E( 1)=   -0.5858   E(BOTTOM)=   -1.543   E(TOP)=    0.371  3  4   191
             LOCAL ORBITAL
:E3_0001: E( 3)=    0.5960   E(BOTTOM)=    0.389   E(TOP)=    0.803  0  1   126
             APW+lo
:E2_0001: E( 2)=    0.4168   E(BOTTOM)=    0.198   E(TOP)= -200.000  2 -1    91
             APW+lo

       K=   0.06250   0.00000   0.06250            1
:RKM  : MATRIX SIZE   453LOs:  40  RKM= 8.49  WEIGHT= 4.00  PGR:    
       EIGENVALUES ARE:
:EIG00001:      -2.0262908   -2.0129872   -0.7502993   -0.6771778   -0.6606284
:EIG00006:      -0.6545338   -0.6484427   -0.6477938    0.3806496    0.5181455
:EIG00011:       0.6073010    0.6074340    0.6075638    0.6105052    0.6140551
:EIG00016:       0.6238065    0.6274484    0.6275838    0.6302325    0.6331081
:EIG00021:       0.6367862    0.6413989    0.6414067    0.6457918    0.6813791
:EIG00026:       0.6963166    0.7714563    0.7876378    0.8105801    0.8445955
:EIG00031:       0.8611412    0.9446554    0.9891337    1.0327022    1.3221106
:EIG00036:       1.3328940    1.4208799    1.4227608    1.5804827    1.6342628
:EIG00041:       1.6957500    1.7976349    1.8724557    1.8897331    1.9871346
:EIG00046:       2.0406690    2.0543319    2.1156878
 
       ********************************************************

:KPT   :      NUMBER OF K-POINTS:   288
:GAP (global)   :    0.0    Ry =     0.0   eV (metal)
         Bandranges (emin - emax) and occupancy:
:BAN00004:   4   -0.735530   -0.677178  2.00000000
:BAN00005:   5   -0.725713   -0.660628  2.00000000
:BAN00006:   6   -0.711174   -0.650955  2.00000000
:BAN00007:   7   -0.692782   -0.648377  2.00000000
:BAN00008:   8   -0.665369   -0.644505  2.00000000
:BAN00009:   9    0.375712    0.585312  2.00000000
:BAN00010:  10    0.483994    0.593750  2.00000000
:BAN00011:  11    0.551960    0.608799  2.00000000
:BAN00012:  12    0.589926    0.612567  1.99993407
:BAN00013:  13    0.599931    0.620228  1.50147995
:BAN00014:  14    0.606466    0.625109  0.49858597
:BAN00015:  15    0.613046    0.626646  0.00000000
:BAN00016:  16    0.617524    0.628079  0.00000000
:BAN00017:  17    0.620767    0.630460  0.00000000
:BAN00018:  18    0.623442    0.630754  0.00000000
:BAN00019:  19    0.626505    0.633439  0.00000000
        Energy to separate low and high energystates:    0.32571


:NOE  : NUMBER OF ELECTRONS          =   26.000

:FER  : F E R M I - ENERGY(TETRAH.M.)=   0.6123308156
:GMA  : POTENTIAL AND CHARGE CUT-OFF  12.00 Ry**.5

:POS001: ATOM   -1 X,Y,Z = 0.00000 0.89750 0.25000  MULT= 2  ZZ= 59.000  Pr1       

       LMMAX 16
       LM=   0 0  1 0  2 0  2 2  3 0  3 2  4 0  4 2  4 4  5 0  5 2  5 4  6 0  6 2  6 4  6 6

:CHA001: TOTAL VALENCE CHARGE INSIDE SPHERE   1 =   9.5343    (RMT=  2.3000 )
:PCS001: PARTIAL CHARGES SPHERE =  1 S,P,D,F,PX,PY,PZ,D-Z2,D-X2Y2,D-XY,D-XZ,D-YZ 
:QTL001: 1.9404 5.0184 0.4986 2.0766 1.6701 1.6699 1.6784 0.0920 0.0900 0.1100 0.0969 0.1096
        Q-s-low E-s-low   Q-p-low E-p-low   Q-d-low E-d-low   Q-f-low E-f-low
:EPL001:  1.8696 -2.0131    4.9550 -0.6899    0.0015 -0.7146    0.0004 -0.7236
        Q-s-hi  E-s-hi    Q-p-hi  E-p-hi    Q-d-hi  E-d-hi    Q-f-hi  E-f-hi 
:EPH001:  0.0709  0.5141    0.0633  0.5518    0.4971  0.5651    2.0762  0.5995

                      VXX         VYY         VZZ       UP TO R
:VZZ001:             0.62655     4.24858    -4.87513       2.300

:CHA  : TOTAL VALENCE CHARGE INSIDE UNIT CELL =      26.000000

:SUM  : SUM OF EIGENVALUES =         -10.615143011


        1.ATOM      Pr1                  14 CORE STATES
       CORE-FORCE in mRy/a.u. = |F|      Fx             Fy             Fz
:FCO001:   1.ATOM    802.720293875058      0.000000000000      0.000000000000    802.720293875058

:1S 001: 1S               -3066.988158562 Ry
:2S 001: 2S                -492.745222209 Ry
:2PP001: 2P*               -465.843962533 Ry
:2P 001: 2P                -430.446670069 Ry
:3S 001: 3S                -105.836161128 Ry
:3PP001: 3P*                -94.373965831 Ry
:3P 001: 3P                 -87.366143853 Ry
:3DD001: 3D*                -67.293269289 Ry
:3D 001: 3D                 -65.781710538 Ry
:4S 001: 4S                 -20.511543583 Ry
:4PP001: 4P*                -16.218163871 Ry
:4P 001: 4P                 -14.690507539 Ry
:4DD001: 4D*                 -7.623059963 Ry
:4D 001: 4D                  -7.353574066 Ry
:CINT001 Core Integral Atom   1   45.998495

       DENSITY AT NUCLEUS
        JATOM        VALENCE       SEMI-CORE          CORE           TOTAL
:RTO001:   1      648.106290        0.000000   656824.354689   657472.460978
     
       CHARGES OF NEW CHARGE DENSITY
:NTO   : INTERSTITIAL CHARGE =     6.931484
:NPC   : PW Pseudocharge     =    16.894252
:NTO001: CHARGE SPHERE  1    =    55.532753

:NEC01: NUCLEAR AND ELECTRONIC CHARGE    118.00000   117.99699
     
       CHARGES OF OLD CHARGE DENSITY
:OTO   : INTERSTITIAL CHARGE =     6.984510
:OPC   : PW Pseudocharge     =    16.844147
:OTO001: CHARGE SPHERE  1    =    55.507745

:NEC02: NUCLEAR AND ELECTRONIC CHARGE    118.00000   118.00000
     
       CONVERGENCE TEST
:DTO001: DIFFERENCE IN SPHERE  1 =  0.0582912

:DIS  :  CHARGE DISTANCE       ( 0.0582912 for atom    1 spin 1)      0.0582912
 PW Mixed is          506
 
******************************************************
* MULTISECANT MIXING VER9 RELEASE 10.4.0              *
* Standard Mode with controls                        *
* Fixed density scale                                *
* Regularization       1.000E-04                     *
* Trust Upper Limit    5.000E+00                     *
* Max Number of Memory Steps    8                    *
******************************************************
 
:PWTMP   3.8395E+02  1.9467E+02  4.8588E+02
:PLANE:  PW TOTAL      4.5927 DISTAN   3.49E-02  7.61E-01 %
:CHARG:  CLM/ATOM   1381.9853 DISTAN   2.76E-01  1.99E-02 %
 
Step History
        DMIX         DMIXT        Red     Pred      Trust     Lambda    MagRel    MagAbs     Beta
  1   3.5000E-02   3.5000E-02 -1.00E+00  1.00E+00 -1.00E+01  1.00E+00  3.50E-02  3.50E-02  1.00E+00
  2   2.5000E-02   2.5000E-02  7.16E-01  1.00E+00 -1.00E+01  1.00E+00  2.50E-02  2.52E-02  1.00E+00
  3   3.1875E-02   3.1875E-02  9.19E-01  1.00E+00 -1.00E+01  4.90E-02  3.19E-02  2.30E-02  1.00E+00
  4   3.5832E-02   3.5832E-02  9.17E-01  9.39E-01  2.10E-01  1.74E+00  6.10E-02  4.04E-02  8.91E-01
  5   8.2611E-02   8.2611E-02  7.85E-01  9.17E-01  3.55E-01  8.91E-01  2.95E-01  1.79E-01  1.00E+00
  6   1.8202E-01   1.7827E-01 -1.00E+00  8.54E-01  4.52E-01  1.00E+00  4.52E-01  2.16E-01  1.00E+00
:JACOBIANS    9.424E-01   6.096E-01
  
:NORMS:  1/Froebius, Min, Max, Used   0.6865E+00  0.3982E+00  0.9933E+00  0.6865E+00
:INFO :  Number of Memory Steps    5 Skipping    0
:INFO :  SLambda=    0.6708519569  Max    0.6708519569
:PREDicted Charge, CTotal, PW Trust    7.498E-04   1.500E-03   6.147E-02
:PREDicted DMix, Beta, BLim   3.8874E-01  1.5025E+00  1.1644E+00

Eigenvalues, unscaled except for SY+YY
   #     SY Real        SY Imag          SS             YY         SY+YY Real      SY+YY Imag
   1   2.035463E+00   0.000000E+00   1.899257E+00   4.052177E+00   5.377853E+00   0.000000E+00
   2   4.655005E-01   0.000000E+00   4.499167E-01   6.197793E-01   9.342632E-01   0.000000E+00
   3   4.969380E-02   0.000000E+00   6.958503E-03   3.229253E-01   3.933312E-01   0.000000E+00
   4  -4.400966E-15   0.000000E+00   4.995791E-05   5.065717E-03   5.253672E-05   0.000000E+00
   5   6.548679E-04   0.000000E+00  -1.262728E-16   5.229392E-05   6.052627E-03   0.000000E+00
 
:INFO :  Singular value  5.379E+00 Weight  1.000E+00 Projection -7.425E-02
:INFO :  Singular value  9.342E-01 Weight  1.000E+00 Projection -8.312E-02
:INFO :  Singular value  3.932E-01 Weight  1.000E+00 Projection -7.321E-02
:INFO :  Singular value  6.053E-03 Weight  9.955E-01 Projection -2.733E+00
:INFO :  Singular value  5.254E-05 Weight  1.653E-02 Projection -1.502E-01
:RANK :  ACTIVE   4.01/5  =  80.24 % ; YY RANK   4.01/5  =  80.20 %
 
:BLIM :  VZERO Control Off
:TRUST:  Step 7.66E-01  Charge 6.00E-02 (e) CTO  2.00E-01 (e) PW  3.50E-01 (e)
:DIRM :  MEMORY  5/8  SCALE   1.000 RED  0.58 PRED  0.85 NEXT  0.57 
:TRAVE:  Charge 2.61E-03 (e) CTO  5.21E-03 (e) PW  3.83E-02 (e)
:DIRP :  |MSR1|= 2.716E-02 |PRATT|= 3.493E-02 ANGLE=  13.4 DEGREES
:DIRQ :  |MSR1|= 1.849E-01 |PRATT|= 2.756E-01 ANGLE=  26.1 DEGREES
:DIRT :  |MSR1|= 1.868E-01 |PRATT|= 2.778E-01 ANGLE=  26.0 DEGREES
:MIX  :   MSD1   REGULARIZATION:  4.05E-04 GREED: 0.25438  Newton 1.00  0.6725                
     
       CHARGES OF MIXED CHARGE DENSITY
:CTO   : INTERSTITIAL CHARGE =     6.979822
:CPC   : PW Pseudocharge     =    16.900951
:CTO001: CHARGE SPHERE  1    =    55.510089

:NEC03: NUCLEAR AND ELECTRONIC CHARGE    118.00000   118.00000

PW CHANGE     H    K    L      Current       Change    Residue
:PTO001:      0    0    0  4.91495284E-02  1.073E-04  1.528E-05
:PTO003:      0    2    0  1.38183067E-02  8.825E-06 -4.417E-05
:PTO004:     -1    1    0  6.79489974E-02  2.462E-04  2.924E-04
:PTO005:      0    2   -1 -7.90476990E-02 -2.661E-04 -3.487E-04
:PTO006:      0    0   -2 -4.09132426E-02 -8.444E-05 -3.584E-05
:PTO007:     -1    1   -1 -8.58626929E-02 -1.947E-04 -2.938E-04
:PTO008:      0    2   -2 -1.41662311E-02  4.234E-05  7.497E-05
:PTO009:     -1    1   -2 -7.31655328E-02 -5.389E-04 -6.392E-04
:PTO011:     -1    3    0 -1.19985107E-02 -1.583E-04 -2.586E-04
:PTO012:     -1    3   -1 -5.43911100E-02 -4.391E-04 -6.176E-04
:PTO013:      0    4    0 -1.00582750E-02 -3.428E-05 -5.928E-05
:PTO014:      0    2   -3  2.30420751E-02  1.672E-04  1.494E-04

:ENE  : ********** TOTAL ENERGY IN Ry =       -36944.15195280

       TOTAL FORCE IN mRy/a.u. = |F|     Fx             Fy             Fz     with/without FOR in case.in2
:FOR001:   1.ATOM          4.876          0.000          0.000          4.876 partial forces
       TOTAL FORCE WITH RESPECT TO GLOBAL CARTESIAN COORDINATES:
:FCA001:   1.ATOM                         0.000          4.876          0.000 partial forces
       TOTAL FORCE WITH RESPECT TO THE GLOBAL COORDINATE SYSTEM:
:FGL001:   1.ATOM                 0.000000000     4.876286676     0.000000000 partial forces
 Flat Integration
 New Mode for Coulomb Integral
 Consistent 3/8+Simpson combinations
 Extension of core to zero
 LDM version in phi
 Fifth-order quadrature in outwin


            ---------
:ITE007:  7. ITERATION
            ---------

:NATO :    1 INDEPENDENT AND    2 TOTAL ATOMS IN UNITCELL
       SUBSTANCE: aU                                                          

       LATTICE                      = CXY 
:POT  : POTENTIAL OPTION EX_LDA EC_LDA VX_LDA VC_LDA
:LAT  : LATTICE CONSTANTS=  6.48990 13.16965 11.36963    1.571    1.571    1.571
:VOL  : UNIT CELL VOLUME =     485.88001
       MODE OF CALCULATION IS       = RELA
       NON-SPINPOLARIZED CALCULATION
:IFFT  : FFT-parameters:   54  108   90 Factor: 2.00


   CONVERGENCE PARAMETER FOR PSEUDOCHARGE: NCON=  9
   MAXIMAL VALUE OF RMT(JATOM)*ABSK(NKK) : RK  =27.59923


:VKCOUL :  VK-COUL convergence: 0.141E-06
       ATOMNUMBER=  1 Pr1        VCOUL-ZERO =  0.52924E-01
:EFG001:                        EFG         =    -6.71640   *10**21  V / m**2
                               V20  TOT/SRF=    -5.81658    -0.02395
                               V22  TOT/SRF=     0.16405    -0.00023
                               V22M TOT/SRF=     0.00000     0.00000
                               V21  TOT/SRF=     0.00000     0.00000
                               V21M TOT/SRF=     0.00000     0.00000

              3.52226    0.00000    0.00000        3.52226    0.00000    0.00000
              0.00000    3.19415    0.00000        0.00000    3.19415    0.00000
              0.00000    0.00000   -6.71640        0.00000    0.00000   -6.71640

         MAIN DIRECTIONS OF THE EFG   1.0000  0.0000  0.0000
                                      0.0000  1.0000  0.0000
                                      0.0000  0.0000  1.0000
:ANG001:  ANGLE WITH OLD X-AXIS =         0.0

:ETA001:                         ASYMM. ETA =     0.04885


     HELLMANN-FEYNMAN-FORCE IN mRy/a.u. = |F|  Fx       Fy             Fz
:FHF001:   1.ATOM   1258.031463851334      0.000000000000      0.000000000000  -1258.031463851334

:FIT001: LUSE= 13 SIGMA OF V-XC FIT FOR ATOM  1  0.4973068E-04
:FIT001: LUSE= 13 SIGMA OF V-XC FIT FOR ATOM  1  0.4973068E-04
:DEN  : DENSITY INTEGRAL  =        -14146.77412389   (Ry)
       ELS_POTENTIAL_AT Z=0 and Z=0.5:   0.71102   0.71102
       ELS_POTENTIAL_AT Y=0 and Y=0.5:   0.07481   0.07481
:VZERO:v0,v0c,v0x   0.13912   0.71102  -0.57190 v5,v5c,v5x   0.13912   0.71102  -0.57190
:VZERY:v0,v0c,v0x  -0.69117   0.07481  -0.76598 v5,v5c,v5x  -0.69117   0.07481  -0.76598
:VZERX:v0,v0c,v0x  -1.10906  -0.37463  -0.73443 v5,v5c,v5x  -1.10906  -0.37463  -0.73443
:LMAX-WF:   10   Non-Spherical LMAX:   4

          ATOMIC SPHERE DEPENDENT PARAMETERS FOR ATOM  Pr1       
:e__0001: OVERALL ENERGY PARAMETER IS    0.4138
          OVERALL BASIS SET ON ATOM IS LAPW
:E0_0001: E( 0)=    0.4138
             APW+lo
:E0_0001: E( 0)=   -2.0558   E(BOTTOM)=   -2.691   E(TOP)=   -1.420  4  5   177
             LOCAL ORBITAL
:E1_0001: E( 1)=    0.8138
             APW+lo
:E1_0001: E( 1)=   -0.5859   E(BOTTOM)=   -1.543   E(TOP)=    0.372  3  4   196
             LOCAL ORBITAL
:E3_0001: E( 3)=    0.5978   E(BOTTOM)=    0.390   E(TOP)=    0.806  0  1   124
             APW+lo
:E2_0001: E( 2)=    0.4138   E(BOTTOM)=    0.198   E(TOP)= -200.000  2 -1    89
             APW+lo

       K=   0.06250   0.00000   0.06250            1
:RKM  : MATRIX SIZE   453LOs:  40  RKM= 8.49  WEIGHT= 4.00  PGR:    
       EIGENVALUES ARE:
:EIG00001:      -2.0261800   -2.0128983   -0.7494821   -0.6778838   -0.6614190
:EIG00006:      -0.6545503   -0.6478260   -0.6477474    0.3812376    0.5185561
:EIG00011:       0.6086031    0.6094242    0.6098303    0.6120526    0.6159246
:EIG00016:       0.6261672    0.6290552    0.6296898    0.6324563    0.6347014
:EIG00021:       0.6383293    0.6423346    0.6433785    0.6479754    0.6822643
:EIG00026:       0.6967163    0.7723728    0.7877490    0.8112363    0.8446068
:EIG00031:       0.8610939    0.9451741    0.9895827    1.0330305    1.3226054
:EIG00036:       1.3332786    1.4214767    1.4231152    1.5813072    1.6349771
:EIG00041:       1.6967160    1.7984799    1.8730896    1.8905167    1.9872886
:EIG00046:       2.0414843    2.0545622
 
       ********************************************************

:KPT   :      NUMBER OF K-POINTS:   288
:GAP (global)   :    0.0    Ry =     0.0   eV (metal)
         Bandranges (emin - emax) and occupancy:
:BAN00004:   4   -0.735529   -0.677884  2.00000000
:BAN00005:   5   -0.725614   -0.661419  2.00000000
:BAN00006:   6   -0.711267   -0.650978  2.00000000
:BAN00007:   7   -0.693373   -0.647826  2.00000000
:BAN00008:   8   -0.665298   -0.644536  2.00000000
:BAN00009:   9    0.376295    0.586509  2.00000000
:BAN00010:  10    0.484477    0.594630  2.00000000
:BAN00011:  11    0.552274    0.610306  2.00000000
:BAN00012:  12    0.591038    0.614541  1.99965451
:BAN00013:  13    0.600834    0.622493  1.45415346
:BAN00014:  14    0.608191    0.626330  0.54619202
:BAN00015:  15    0.615325    0.628745  0.00000000
:BAN00016:  16    0.619174    0.630502  0.00000000
:BAN00017:  17    0.622506    0.631857  0.00000000
:BAN00018:  18    0.624932    0.632982  0.00000000
:BAN00019:  19    0.628372    0.635288  0.00000000
        Energy to separate low and high energystates:    0.32629


:NOE  : NUMBER OF ELECTRONS          =   26.000

:FER  : F E R M I - ENERGY(TETRAH.M.)=   0.6139414022
:GMA  : POTENTIAL AND CHARGE CUT-OFF  12.00 Ry**.5

:POS001: ATOM   -1 X,Y,Z = 0.00000 0.89750 0.25000  MULT= 2  ZZ= 59.000  Pr1       

       LMMAX 16
       LM=   0 0  1 0  2 0  2 2  3 0  3 2  4 0  4 2  4 4  5 0  5 2  5 4  6 0  6 2  6 4  6 6

:CHA001: TOTAL VALENCE CHARGE INSIDE SPHERE   1 =   9.5139    (RMT=  2.3000 )
:PCS001: PARTIAL CHARGES SPHERE =  1 S,P,D,F,PX,PY,PZ,D-Z2,D-X2Y2,D-XY,D-XZ,D-YZ 
:QTL001: 1.9405 5.0197 0.5054 2.0480 1.6703 1.6703 1.6791 0.0940 0.0903 0.1112 0.0981 0.1118
        Q-s-low E-s-low   Q-p-low E-p-low   Q-d-low E-d-low   Q-f-low E-f-low
:EPL001:  1.8696 -2.0131    4.9553 -0.6899    0.0015 -0.7133    0.0004 -0.7225
        Q-s-hi  E-s-hi    Q-p-hi  E-p-hi    Q-d-hi  E-d-hi    Q-f-hi  E-f-hi 
[...]

:NEC02: NUCLEAR AND ELECTRONIC CHARGE    118.00000   118.00000
     
       CONVERGENCE TEST
:DTO001: DIFFERENCE IN SPHERE  1 =  0.0001310

:DIS  :  CHARGE DISTANCE       ( 0.0001310 for atom    1 spin 1)      0.0001310
 PW Mixed is          506
 
******************************************************
* MULTISECANT MIXING VER9 RELEASE 10.4.0              *
* Standard Mode with controls                        *
* Fixed density scale                                *
* Regularization       1.000E-04                     *
* Trust Upper Limit    5.000E+00                     *
* Max Number of Memory Steps    8                    *
******************************************************
 
:PWTMP   3.8395E+02  1.9467E+02  4.8588E+02
:PLANE:  PW TOTAL      4.6111 DISTAN   6.27E-05  1.36E-03 %
:CHARG:  CLM/ATOM   1381.9469 DISTAN   2.30E-04  1.66E-05 %
 
Step History
        DMIX         DMIXT        Red     Pred      Trust     Lambda    MagRel    MagAbs     Beta
  6   1.8202E-01   1.7827E-01  5.82E-01  8.54E-01  4.52E-01  6.71E-01  4.52E-01  2.16E-01  1.00E+00
  7   2.5438E-01   2.5438E-01  3.30E-01  5.66E-01  7.66E-01  5.01E-01  6.72E-01  1.87E-01  1.00E+00
  8   2.2477E-01   2.2477E-01  4.68E-01  6.89E-01  1.02E+00  6.85E-01  5.02E-01  4.60E-02  1.00E+00
  9   2.5943E-01   2.5943E-01  5.47E-01  7.39E-01  1.36E+00  1.03E+00  3.28E-01  1.40E-02  1.00E+00
 10   2.6716E-01   2.6716E-01  4.56E-01  3.83E-01  1.81E+00  1.54E+00  4.28E-01  1.00E-02  1.00E+00
 11   2.9720E-01   2.9720E-01  3.02E-01  3.09E-01  2.42E+00  1.85E+00  2.02E-01  2.16E-03  1.00E+00
 12   2.3569E-01   2.3569E-01  5.16E-01  4.62E-01  3.23E+00  1.84E+00  4.40E-01  1.42E-03  1.00E+00
 13   3.5000E-01   3.5000E-01  4.36E-01  2.69E-01  4.30E+00  1.94E+00  5.65E-01  9.43E-04  1.00E+00
 14   2.1407E-01   2.1407E-01 -1.00E+00  3.03E-01  5.74E+00  1.00E+00  1.37E-01  9.96E-05  9.66E-01
:JACOBIANS    7.749E-01   3.113E+00
  
:NORMS:  1/Froebius, Min, Max, Used   0.5773E+00  0.4870E+00  0.9810E+00  0.6619E+00
:INFO :  Number of Memory Steps    8 Skipping    5
:INFO :  SLambda=    2.0535576580  Max    2.0535576580
:PREDicted Charge, CTotal, PW Trust    1.936E-06   3.872E-06   7.216E-05
:PREDicted DMix, Beta, BLim   1.7630E-01  1.3016E+00  2.1226E+00

Eigenvalues, unscaled except for SY+YY
   #     SY Real        SY Imag          SS             YY         SY+YY Real      SY+YY Imag
   1   1.825289E+00   0.000000E+00   1.614286E+00   3.685018E+00   6.552096E+00   0.000000E+00
   2   1.092751E+00   0.000000E+00   7.653603E-01   2.024469E+00   4.908106E+00   0.000000E+00
   3   3.764937E-01   0.000000E+00   2.151366E-01   1.042994E+00   1.753345E+00   0.000000E+00
   4   1.171397E-01   8.179114E-03   4.392633E-02   7.956259E-01   1.164493E+00   0.000000E+00
   5   1.171397E-01  -8.179114E-03   1.771650E-02   3.128308E-01   7.097226E-01   0.000000E+00
   6   2.302467E-02   0.000000E+00   5.628168E-03   1.011059E-01   1.590689E-01   0.000000E+00
   7   5.596378E-03   0.000000E+00   3.407967E-03   2.352535E-02   4.727088E-02   0.000000E+00
   8   9.853329E-03   0.000000E+00   1.183767E-03   1.443016E-02   3.152700E-02   0.000000E+00
 
:INFO :  Singular value  6.572E+00 Weight  1.000E+00 Projection -3.481E-05
:INFO :  Singular value  4.906E+00 Weight  1.000E+00 Projection -4.219E-05
:INFO :  Singular value  1.757E+00 Weight  1.000E+00 Projection  1.392E-05
:INFO :  Singular value  1.165E+00 Weight  1.000E+00 Projection  1.258E-04
:INFO :  Singular value  7.067E-01 Weight  1.000E+00 Projection -1.259E-04
:INFO :  Singular value  1.590E-01 Weight  1.000E+00 Projection -6.036E-05
:INFO :  Singular value  4.732E-02 Weight  9.999E-01 Projection -7.159E-05
:INFO :  Singular value  3.148E-02 Weight  9.999E-01 Projection -6.563E-04
:RANK :  ACTIVE   8.00/8  = 100.00 % ; YY RANK   8.00/8  =  99.99 %
 
:BLIM :  VZERO Control Off
:TRUST:  Step 7.65E+00  Charge 1.01E-02 (e) CTO  3.36E-02 (e) PW  5.87E-02 (e)
:DIRM :  MEMORY  8/8  SCALE   1.000 RED  0.33 PRED  0.30 NEXT  0.60 
:TRAVE:  Charge 5.37E-05 (e) CTO  1.07E-04 (e) PW  2.41E-04 (e)
:DIRP :  |MSR1|= 1.679E-05 |PRATT|= 6.270E-05 ANGLE=  79.9 DEGREES
:DIRQ :  |MSR1|= 7.462E-05 |PRATT|= 2.295E-04 ANGLE=  31.3 DEGREES
:DIRT :  |MSR1|= 7.648E-05 |PRATT|= 2.380E-04 ANGLE=  35.5 DEGREES
:MIX  :   MSE1   REGULARIZATION:  3.69E-04 GREED: 0.21724  Newton 1.00  0.3214                
     
       CHARGES OF MIXED CHARGE DENSITY
:CTO   : INTERSTITIAL CHARGE =     6.974355
:CPC   : PW Pseudocharge     =    16.916080
:CTO001: CHARGE SPHERE  1    =    55.512823

:NEC03: NUCLEAR AND ELECTRONIC CHARGE    118.00000   118.00000

PW CHANGE     H    K    L      Current       Change    Residue
:PTO001:      0    0    0  4.91694143E-02  7.990E-10  1.811E-08
:PTO003:      0    2    0  1.37796334E-02  1.910E-09  9.985E-08
:PTO004:     -1    1    0  6.79518390E-02  7.497E-08  8.638E-07
:PTO005:      0    2   -1 -7.90920955E-02  6.075E-08 -7.891E-07
:PTO006:      0    0   -2 -4.09382982E-02  1.107E-07 -2.423E-07
:PTO007:     -1    1   -1 -8.59932522E-02  3.386E-07 -4.371E-07
:PTO008:      0    2   -2 -1.41691276E-02  2.498E-07  3.395E-07
:PTO009:     -1    1   -2 -7.33586601E-02  8.983E-08 -1.064E-06
:PTO011:     -1    3    0 -1.21018732E-02 -1.855E-08 -3.093E-07
:PTO012:     -1    3   -1 -5.45139789E-02 -1.133E-07 -1.427E-06
:PTO013:      0    4    0 -1.00526227E-02  6.161E-08 -1.180E-07
:PTO014:      0    2   -3  2.30482650E-02 -1.869E-08  5.113E-07

:ENE  : ********** TOTAL ENERGY IN Ry =       -36944.15175038

       TOTAL FORCE IN mRy/a.u. = |F|     Fx             Fy             Fz     with/without FOR in case.in2
:FOR001:   1.ATOM         28.221          0.000          0.000        -28.221 partial forces
       TOTAL FORCE WITH RESPECT TO GLOBAL CARTESIAN COORDINATES:
:FCA001:   1.ATOM                         0.000        -28.221          0.000 partial forces
       TOTAL FORCE WITH RESPECT TO THE GLOBAL COORDINATE SYSTEM:
:FGL001:   1.ATOM                 0.000000000   -28.220568219     0.000000000 partial forces
 Flat Integration
 New Mode for Coulomb Integral
 Consistent 3/8+Simpson combinations
 Extension of core to zero
 LDM version in phi
 Fifth-order quadrature in outwin


            ---------
:ITE015: 15. ITERATION
            ---------

:NATO :    1 INDEPENDENT AND    2 TOTAL ATOMS IN UNITCELL
       SUBSTANCE: aU                                                          

       LATTICE                      = CXY 
:POT  : POTENTIAL OPTION EX_LDA EC_LDA VX_LDA VC_LDA
:LAT  : LATTICE CONSTANTS=  6.48990 13.16965 11.36963    1.571    1.571    1.571
:VOL  : UNIT CELL VOLUME =     485.88001
       MODE OF CALCULATION IS       = RELA
       NON-SPINPOLARIZED CALCULATION
:IFFT  : FFT-parameters:   54  108   90 Factor: 2.00


   CONVERGENCE PARAMETER FOR PSEUDOCHARGE: NCON=  9
   MAXIMAL VALUE OF RMT(JATOM)*ABSK(NKK) : RK  =27.59923


:VKCOUL :  VK-COUL convergence: 0.155E-06
       ATOMNUMBER=  1 Pr1        VCOUL-ZERO =  0.52734E-01
:EFG001:                        EFG         =    -7.76212   *10**21  V / m**2
                               V20  TOT/SRF=    -6.72219    -0.02530
                               V22  TOT/SRF=    -0.05787     0.00026
                               V22M TOT/SRF=     0.00000     0.00000
                               V21  TOT/SRF=     0.00000     0.00000
                               V21M TOT/SRF=     0.00000     0.00000

              3.82319    0.00000    0.00000        3.82319    0.00000    0.00000
              0.00000    3.93893    0.00000        0.00000    3.93893    0.00000
              0.00000    0.00000   -7.76212        0.00000    0.00000   -7.76212

         MAIN DIRECTIONS OF THE EFG   1.0000  0.0000  0.0000
                                      0.0000  1.0000  0.0000
                                      0.0000  0.0000  1.0000
:ANG001:  ANGLE WITH OLD X-AXIS =         0.0

:ETA001:                         ASYMM. ETA =     0.01491


     HELLMANN-FEYNMAN-FORCE IN mRy/a.u. = |F|  Fx       Fy             Fz
:FHF001:   1.ATOM   1336.306607039350      0.000000000000      0.000000000000  -1336.306607039350

:FIT001: LUSE= 13 SIGMA OF V-XC FIT FOR ATOM  1  0.5750490E-04
:FIT001: LUSE= 13 SIGMA OF V-XC FIT FOR ATOM  1  0.5750490E-04
:DEN  : DENSITY INTEGRAL  =        -14146.71525668   (Ry)
       ELS_POTENTIAL_AT Z=0 and Z=0.5:   0.71094   0.71094
       ELS_POTENTIAL_AT Y=0 and Y=0.5:   0.07394   0.07394
:VZERO:v0,v0c,v0x   0.13929   0.71094  -0.57166 v5,v5c,v5x   0.13929   0.71094  -0.57166
:VZERY:v0,v0c,v0x  -0.69189   0.07394  -0.76584 v5,v5c,v5x  -0.69189   0.07394  -0.76584
:VZERX:v0,v0c,v0x  -1.10929  -0.37497  -0.73431 v5,v5c,v5x  -1.10929  -0.37497  -0.73431
:LMAX-WF:   10   Non-Spherical LMAX:   4

          ATOMIC SPHERE DEPENDENT PARAMETERS FOR ATOM  Pr1       
:e__0001: OVERALL ENERGY PARAMETER IS    0.4141
          OVERALL BASIS SET ON ATOM IS LAPW
:E0_0001: E( 0)=    0.4141
             APW+lo
:E0_0001: E( 0)=   -2.0557   E(BOTTOM)=   -2.691   E(TOP)=   -1.420  4  5   179
             LOCAL ORBITAL
:E1_0001: E( 1)=    0.8141
             APW+lo
:E1_0001: E( 1)=   -0.5858   E(BOTTOM)=   -1.543   E(TOP)=    0.372  3  4   194
             LOCAL ORBITAL
:E3_0001: E( 3)=    0.5979   E(BOTTOM)=    0.390   E(TOP)=    0.806  0  1   117
             APW+lo
:E2_0001: E( 2)=    0.4141   E(BOTTOM)=    0.198   E(TOP)= -200.000  2 -1    93
             APW+lo

       K=   0.06250   0.00000   0.06250            1
:RKM  : MATRIX SIZE   453LOs:  40  RKM= 8.49  WEIGHT= 4.00  PGR:    
       EIGENVALUES ARE:
:EIG00001:      -2.0260652   -2.0127684   -0.7495569   -0.6775550   -0.6611073
:EIG00006:      -0.6546482   -0.6479109   -0.6477496    0.3813897    0.5187561
:EIG00011:       0.6084846    0.6096149    0.6097774    0.6120662    0.6159986
:EIG00016:       0.6261469    0.6294067    0.6299160    0.6326460    0.6350512
:EIG00021:       0.6387402    0.6423420    0.6430323    0.6481620    0.6822245
:EIG00026:       0.6966645    0.7725184    0.7879594    0.8112367    0.8448327
:EIG00031:       0.8613127    0.9451459    0.9896334    1.0330411    1.3226395
:EIG00036:       1.3333857    1.4217360    1.4230980    1.5814409    1.6347839
:EIG00041:       1.6967946    1.7985521    1.8734097    1.8905140    1.9873456
:EIG00046:       2.0416701    2.0545599
 
       ********************************************************

:KPT   :      NUMBER OF K-POINTS:   288
:GAP (global)   :    0.0    Ry =     0.0   eV (metal)
         Bandranges (emin - emax) and occupancy:
:BAN00004:   4   -0.735574   -0.677555  2.00000000
:BAN00005:   5   -0.725688   -0.661107  2.00000000
:BAN00006:   6   -0.711107   -0.651078  2.00000000
:BAN00007:   7   -0.693146   -0.647911  2.00000000
:BAN00008:   8   -0.665272   -0.644622  2.00000000
:BAN00009:   9    0.376447    0.586565  2.00000000
:BAN00010:  10    0.484639    0.594824  2.00000000
:BAN00011:  11    0.552502    0.610456  2.00000000
:BAN00012:  12    0.591077    0.614728  1.99965494
:BAN00013:  13    0.600923    0.622599  1.47617444
:BAN00014:  14    0.608434    0.626754  0.52417062
:BAN00015:  15    0.615342    0.628836  0.00000000
:BAN00016:  16    0.619446    0.630335  0.00000000
:BAN00017:  17    0.622744    0.631987  0.00000000
:BAN00018:  18    0.624920    0.632877  0.00000000
:BAN00019:  19    0.628413    0.635482  0.00000000
        Energy to separate low and high energystates:    0.32645


:NOE  : NUMBER OF ELECTRONS          =   26.000

:FER  : F E R M I - ENERGY(TETRAH.M.)=   0.6141093060
:GMA  : POTENTIAL AND CHARGE CUT-OFF  12.00 Ry**.5

:POS001: ATOM   -1 X,Y,Z = 0.00000 0.89750 0.25000  MULT= 2  ZZ= 59.000  Pr1       

       LMMAX 16
       LM=   0 0  1 0  2 0  2 2  3 0  3 2  4 0  4 2  4 4  5 0  5 2  5 4  6 0  6 2  6 4  6 6

:CHA001: TOTAL VALENCE CHARGE INSIDE SPHERE   1 =   9.5144    (RMT=  2.3000 )
:PCS001: PARTIAL CHARGES SPHERE =  1 S,P,D,F,PX,PY,PZ,D-Z2,D-X2Y2,D-XY,D-XZ,D-YZ 
:QTL001: 1.9405 5.0195 0.5059 2.0482 1.6702 1.6702 1.6791 0.0938 0.0910 0.1112 0.0982 0.1117
        Q-s-low E-s-low   Q-p-low E-p-low   Q-d-low E-d-low   Q-f-low E-f-low
:EPL001:  1.8696 -2.0129    4.9553 -0.6898    0.0015 -0.7138    0.0004 -0.7227
        Q-s-hi  E-s-hi    Q-p-hi  E-p-hi    Q-d-hi  E-d-hi    Q-f-hi  E-f-hi 
:EPH001:  0.0710  0.5150    0.0643  0.5533    0.5044  0.5663    2.0478  0.6012

                      VXX         VYY         VZZ       UP TO R
:VZZ001:             3.80790     3.92756    -7.73546       2.300

:CHA  : TOTAL VALENCE CHARGE INSIDE UNIT CELL =      26.000000

:SUM  : SUM OF EIGENVALUES =         -10.601565063


        1.ATOM      Pr1                  14 CORE STATES
       CORE-FORCE in mRy/a.u. = |F|      Fx             Fy             Fz
:FCO001:   1.ATOM   1308.082261847505      0.000000000000      0.000000000000   1308.082261847505

:1S 001: 1S               -3066.992786833 Ry
:2S 001: 2S                -492.744844891 Ry
:2PP001: 2P*               -465.844180028 Ry
:2P 001: 2P                -430.446615399 Ry
:3S 001: 3S                -105.832835596 Ry
:3PP001: 3P*                -94.370797664 Ry
:3P 001: 3P                 -87.362832414 Ry
:3DD001: 3D*                -67.290189061 Ry
:3D 001: 3D                 -65.778582448 Ry
:4S 001: 4S                 -20.507843397 Ry
:4PP001: 4P*                -16.214602509 Ry
:4P 001: 4P                 -14.687118052 Ry
:4DD001: 4D*                 -7.619974023 Ry
:4D 001: 4D                  -7.350545335 Ry
:CINT001 Core Integral Atom   1   45.998492

       DENSITY AT NUCLEUS
        JATOM        VALENCE       SEMI-CORE          CORE           TOTAL
:RTO001:   1      648.039434        0.000000   656825.199328   657473.238763
     
       CHARGES OF NEW CHARGE DENSITY
:NTO   : INTERSTITIAL CHARGE =     6.971293
:NPC   : PW Pseudocharge     =    16.908889
:NTO001: CHARGE SPHERE  1    =    55.512845

:NEC01: NUCLEAR AND ELECTRONIC CHARGE    118.00000   117.99698
     
       CHARGES OF OLD CHARGE DENSITY
:OTO   : INTERSTITIAL CHARGE =     6.974355
:OPC   : PW Pseudocharge     =    16.916080
:OTO001: CHARGE SPHERE  1    =    55.512823

:NEC02: NUCLEAR AND ELECTRONIC CHARGE    118.00000   118.00000
     
       CONVERGENCE TEST
:DTO001: DIFFERENCE IN SPHERE  1 =  0.0000594

:DIS  :  CHARGE DISTANCE       ( 0.0000594 for atom    1 spin 1)      0.0000594
 PW Mixed is          506
 
******************************************************
* MULTISECANT MIXING VER9 RELEASE 10.4.0              *
* Standard Mode with controls                        *
* Fixed density scale                                *
* Regularization       1.000E-04                     *
* Trust Upper Limit    5.000E+00                     *
* Max Number of Memory Steps    8                    *
******************************************************
 
:PWTMP   3.8395E+02  1.9467E+02  4.8588E+02
:PLANE:  PW TOTAL      4.6111 DISTAN   6.35E-05  1.38E-03 %
:CHARG:  CLM/ATOM   1381.9469 DISTAN   1.10E-04  7.93E-06 %
 
Step History
        DMIX         DMIXT        Red     Pred      Trust     Lambda    MagRel    MagAbs     Beta
  7   2.5438E-01   2.5438E-01  3.30E-01  5.66E-01  7.66E-01  5.01E-01  6.72E-01  1.87E-01  1.00E+00
  8   2.2477E-01   2.2477E-01  4.68E-01  6.89E-01  1.02E+00  6.85E-01  5.02E-01  4.60E-02  1.00E+00
  9   2.5943E-01   2.5943E-01  5.47E-01  7.39E-01  1.36E+00  1.03E+00  3.28E-01  1.40E-02  1.00E+00
 10   2.6716E-01   2.6716E-01  4.56E-01  3.83E-01  1.81E+00  1.54E+00  4.28E-01  1.00E-02  1.00E+00
 11   2.9720E-01   2.9720E-01  3.02E-01  3.09E-01  2.42E+00  1.85E+00  2.02E-01  2.16E-03  1.00E+00
 12   2.3569E-01   2.3569E-01  5.16E-01  4.62E-01  3.23E+00  1.84E+00  4.40E-01  1.42E-03  1.00E+00
 13   3.5000E-01   3.5000E-01  4.36E-01  2.69E-01  4.30E+00  1.94E+00  5.65E-01  9.43E-04  1.00E+00
 14   2.1407E-01   2.1407E-01  3.27E-01  3.03E-01  5.74E+00  2.05E+00  1.37E-01  9.96E-05  9.66E-01
 15   2.1724E-01   2.1724E-01 -1.00E+00  5.96E-01  7.65E+00  1.00E+00  3.21E-01  7.65E-05  1.00E+00
:JACOBIANS    6.030E-01   3.367E+00
  
:NORMS:  1/Froebius, Min, Max, Used   0.5415E+00  0.4912E+00  0.9647E+00  0.5415E+00
:INFO :  Number of Memory Steps    8 Skipping    6
:INFO :  SLambda=    2.0360335297  Max    2.0360335297
:PREDicted Charge, CTotal, PW Trust    1.382E-05   2.764E-05   4.563E-05
:PREDicted DMix, Beta, BLim   6.3079E-01  1.7603E+00  6.4063E-01

Eigenvalues, unscaled except for SY+YY
   #     SY Real        SY Imag          SS             YY         SY+YY Real      SY+YY Imag
   1   1.584094E+00   0.000000E+00   1.189422E+00   4.067321E+00   6.784645E+00   0.000000E+00
   2   8.693428E-01   0.000000E+00   6.241530E-01   1.732465E+00   3.864777E+00   0.000000E+00
   3   6.131375E-01   0.000000E+00   4.078442E-01   1.072971E+00   2.141644E+00   0.000000E+00
   4   1.665599E-01   0.000000E+00   8.634126E-02   6.445136E-01   1.173587E+00   0.000000E+00
   5   9.361865E-02   0.000000E+00   2.469798E-02   2.562535E-01   5.080924E-01   0.000000E+00
   6   3.428811E-02   0.000000E+00   7.742958E-03   1.294134E-01   2.585949E-01   0.000000E+00
   7   2.160473E-02   0.000000E+00   4.930429E-03   9.086580E-02   1.484741E-01   0.000000E+00
   8   2.405018E-03   0.000000E+00   5.578451E-04   6.196548E-03   1.226343E-02   0.000000E+00
 
:INFO :  Singular value  6.801E+00 Weight  1.000E+00 Projection -2.155E-05
:INFO :  Singular value  3.872E+00 Weight  1.000E+00 Projection  3.315E-05
:INFO :  Singular value  2.144E+00 Weight  1.000E+00 Projection  6.609E-05
:INFO :  Singular value  1.173E+00 Weight  1.000E+00 Projection -9.778E-06
:INFO :  Singular value  5.067E-01 Weight  1.000E+00 Projection -3.586E-05
:INFO :  Singular value  2.584E-01 Weight  1.000E+00 Projection  9.020E-05
:INFO :  Singular value  1.483E-01 Weight  1.000E+00 Projection -1.932E-04
:INFO :  Singular value  1.226E-02 Weight  9.989E-01 Projection  6.864E-04
:RANK :  ACTIVE   8.00/8  =  99.99 % ; YY RANK   8.00/8  =  99.95 %
 
:BLIM :  VZERO Control Off
:TRUST:  Step 1.02E+01  Charge 8.05E-03 (e) CTO  2.68E-02 (e) PW  4.70E-02 (e)
:DIRM :  MEMORY  8/8  SCALE   1.000 RED  0.53 PRED  0.60 NEXT  0.41 
:TRAVE:  Charge 2.74E-05 (e) CTO  5.47E-05 (e) PW  1.40E-04 (e)
:DIRP :  |MSR1|= 4.681E-05 |PRATT|= 6.354E-05 ANGLE=   6.8 DEGREES
:DIRQ :  |MSR1|= 7.244E-05 |PRATT|= 1.096E-04 ANGLE=  30.5 DEGREES
:DIRT :  |MSR1|= 8.624E-05 |PRATT|= 1.267E-04 ANGLE=  26.3 DEGREES
:MIX  :   MSE1   REGULARIZATION:  4.07E-04 GREED: 0.35000  Newton 1.00  0.6806                
     
       CHARGES OF MIXED CHARGE DENSITY
:CTO   : INTERSTITIAL CHARGE =     6.974357
:CPC   : PW Pseudocharge     =    16.916177
:CTO001: CHARGE SPHERE  1    =    55.512822

:NEC03: NUCLEAR AND ELECTRONIC CHARGE    118.00000   118.00000

PW CHANGE     H    K    L      Current       Change    Residue
:PTO001:      0    0    0  4.91696178E-02  2.035E-07  1.645E-07
:PTO003:      0    2    0  1.37797044E-02  7.098E-08  4.364E-08
:PTO004:     -1    1    0  6.79524079E-02  5.690E-07  7.192E-07
:PTO005:      0    2   -1 -7.90927388E-02 -6.433E-07 -8.908E-07
:PTO006:      0    0   -2 -4.09385798E-02 -2.816E-07 -4.176E-07
:PTO007:     -1    1   -1 -8.59938162E-02 -5.639E-07 -9.240E-07
:PTO008:      0    2   -2 -1.41690660E-02  6.160E-08  4.119E-08
:PTO009:     -1    1   -2 -7.33594735E-02 -8.134E-07 -1.198E-06
:PTO011:     -1    3    0 -1.21021125E-02 -2.393E-07 -3.696E-07
:PTO012:     -1    3   -1 -5.45149425E-02 -9.636E-07 -1.292E-06
:PTO013:      0    4    0 -1.00527470E-02 -1.243E-07 -1.822E-07
:PTO014:      0    2   -3  2.30486597E-02  3.947E-07  5.371E-07

:ENE  : ********** TOTAL ENERGY IN Ry =       -36944.15175040

       TOTAL FORCE IN mRy/a.u. = |F|     Fx             Fy             Fz     with/without FOR in case.in2
:FOR001:   1.ATOM         28.224          0.000          0.000        -28.224 partial forces
       TOTAL FORCE WITH RESPECT TO GLOBAL CARTESIAN COORDINATES:
:FCA001:   1.ATOM                         0.000        -28.224          0.000 partial forces
       TOTAL FORCE WITH RESPECT TO THE GLOBAL COORDINATE SYSTEM:
:FGL001:   1.ATOM                 0.000000000   -28.224345192     0.000000000 partial forces
