
:LABEL1: Calculations in /home/ykent/GWIEN/example/Pr/aU/V15/case
:LABEL2: on didymium-2.cmpgroup.ameslab.gov at Fri Jul 10 14:12:04 CDT 2020
:LABEL3: using WIEN2k_19.1 (Release 25/6/2019) in /home/ykent/opt/src/WIEN2k_19.1
:LABEL4: using the command: run_lapw -so -i 70 -cc 0.0001

:LABEL1: Calculations in /home/ykent/GWIEN/example/Pr/aU/V15/case
:LABEL2: on didymium-2.cmpgroup.ameslab.gov at Fri Jul 10 14:18:54 CDT 2020
:LABEL3: using WIEN2k_19.1 (Release 25/6/2019) in /home/ykent/opt/src/WIEN2k_19.1
:LABEL4: using the command: run_lapw -so -i 70 -cc 0.0001
 Flat Integration
 New Mode for Coulomb Integral
 Consistent 3/8+Simpson combinations
 Extension of core to zero
 LDM version in phi
 Fifth-order quadrature in outwin


            ---------
:ITE013: 13. ITERATION
            ---------

:NATO :    1 INDEPENDENT AND    2 TOTAL ATOMS IN UNITCELL
       SUBSTANCE: aU                                                          

       LATTICE                      = CXY 
:POT  : POTENTIAL OPTION EX_LDA EC_LDA VX_LDA VC_LDA
:LAT  : LATTICE CONSTANTS=  6.26593 12.71516 10.97726    1.571    1.571    1.571
:VOL  : UNIT CELL VOLUME =     437.29197
       MODE OF CALCULATION IS       = RELA
       NON-SPINPOLARIZED CALCULATION
:IFFT  : FFT-parameters:   48  100   90 Factor: 2.00


   CONVERGENCE PARAMETER FOR PSEUDOCHARGE: NCON=  9
   MAXIMAL VALUE OF RMT(JATOM)*ABSK(NKK) : RK  =27.59083


:VKCOUL :  VK-COUL convergence: 0.196E-06
       ATOMNUMBER=  1 Pr1        VCOUL-ZERO =  0.15097E+00
:EFG001:                        EFG         =    -8.65357   *10**21  V / m**2
                               V20  TOT/SRF=    -7.49421    -0.03268
                               V22  TOT/SRF=    -0.48860    -0.00143
                               V22M TOT/SRF=     0.00000     0.00000
                               V21  TOT/SRF=     0.00000     0.00000
                               V21M TOT/SRF=     0.00000     0.00000

              3.83818    0.00000    0.00000        3.83818    0.00000    0.00000
              0.00000    4.81539    0.00000        0.00000    4.81539    0.00000
              0.00000    0.00000   -8.65357        0.00000    0.00000   -8.65357

         MAIN DIRECTIONS OF THE EFG   1.0000  0.0000  0.0000
                                      0.0000  1.0000  0.0000
                                      0.0000  0.0000  1.0000
:ANG001:  ANGLE WITH OLD X-AXIS =         0.0

:ETA001:                         ASYMM. ETA =     0.11293


     HELLMANN-FEYNMAN-FORCE IN mRy/a.u. = |F|  Fx       Fy             Fz
:FHF001:   1.ATOM   1477.692124875561      0.000000000000      0.000000000000  -1477.692124875561

:FIT001: LUSE= 13 SIGMA OF V-XC FIT FOR ATOM  1  0.5759823E-04
:FIT001: LUSE= 13 SIGMA OF V-XC FIT FOR ATOM  1  0.5759823E-04
:DEN  : DENSITY INTEGRAL  =        -14156.64183404   (Ry)
       ELS_POTENTIAL_AT Z=0 and Z=0.5:   0.76259   0.76259
       ELS_POTENTIAL_AT Y=0 and Y=0.5:   0.06307   0.06307
:VZERO:v0,v0c,v0x   0.16242   0.76259  -0.60017 v5,v5c,v5x   0.16242   0.76259  -0.60017
:VZERY:v0,v0c,v0x  -0.73918   0.06307  -0.80226 v5,v5c,v5x  -0.73918   0.06307  -0.80226
:VZERX:v0,v0c,v0x  -1.14644  -0.38172  -0.76472 v5,v5c,v5x  -1.14644  -0.38172  -0.76472
:LMAX-WF:   10   Non-Spherical LMAX:   4

          ATOMIC SPHERE DEPENDENT PARAMETERS FOR ATOM  Pr1       
:e__0001: OVERALL ENERGY PARAMETER IS    0.4978
          OVERALL BASIS SET ON ATOM IS LAPW
:E0_0001: E( 0)=    0.4978
             APW+lo
:E0_0001: E( 0)=   -1.9619   E(BOTTOM)=   -2.597   E(TOP)=   -1.327  4  5   187
             LOCAL ORBITAL
:E1_0001: E( 1)=    0.8978
             APW+lo
:E1_0001: E( 1)=   -0.4916   E(BOTTOM)=   -1.449   E(TOP)=    0.466  3  4   197
             LOCAL ORBITAL
:E3_0001: E( 3)=    0.6860   E(BOTTOM)=    0.480   E(TOP)=    0.892  0  1   122
             APW+lo
:E2_0001: E( 2)=    0.4978   E(BOTTOM)=    0.292   E(TOP)= -200.000  2 -1    90
             APW+lo

       K=   0.06250   0.00000   0.06250            1
:RKM  : MATRIX SIZE   421LOs:  40  RKM= 8.50  WEIGHT= 4.00  PGR:    
       EIGENVALUES ARE:
:EIG00001:      -1.9390125   -1.9195281   -0.6761696   -0.5813386   -0.5597385
:EIG00006:      -0.5513226   -0.5423718   -0.5422070    0.4700745    0.5956269
:EIG00011:       0.6894879    0.6914330    0.6916958    0.6945883    0.6998912
:EIG00016:       0.7124654    0.7166379    0.7169383    0.7201198    0.7234774
:EIG00021:       0.7279385    0.7316078    0.7321286    0.7389980    0.7707628
:EIG00026:       0.7872947    0.8733298    0.8841054    0.9251518    0.9502737
:EIG00031:       0.9657306    1.0679494    1.1108670    1.1624177    1.4658098
:EIG00036:       1.4873934    1.5520833    1.5664668    1.7285770    1.7842738
:EIG00041:       1.8729146    1.9712227    2.0624754    2.0785421    2.1965651
:EIG00046:       2.2311281    2.2482580    2.3364406    2.3786430    2.4868616
 
:EIG00051:       2.5373335    2.5937878    2.6143781    2.7024690    2.7408181
:EIG00056:       2.8080684    2.8270381    2.8908558    2.9684102    3.0457487
:EIG00061:       3.0959994    3.1314509    3.2649237    3.3077205    3.3391299
:EIG00066:       3.4507088    3.5014423    3.5611397    3.5732212    3.5998320
:EIG00071:       3.6087558    3.6625068    3.7001086    3.7811301    3.7955149
:EIG00076:       3.8419664    3.8567176    3.9085447    3.9361846    3.9696036
:EIG00081:       3.9702503    4.0210594    4.0375972    4.1258008    4.1552018
:EIG00086:       4.1554469    4.2579719    4.2846818    4.3195301    4.3266529
:EIG00091:       4.3629963    4.4143514    4.4202428    4.4540580    4.4670810
:EIG00096:       4.5011004    4.5505578    4.5629805    4.5854211    4.6548213
 
:EIG00101:       4.7412014    4.8607393    4.8826455    4.9622664    4.9770749
:EIG00106:       4.9831602    5.0421818    5.0825746    5.1019023    5.1302942
:EIG00111:       5.2224803    5.2684734    5.3058622    5.3731632    5.4114111
:EIG00116:       5.4644946    5.4842572    5.5071499    5.5595097    5.6031869
:EIG00121:       5.6234103    5.6699631    5.7457177    5.7516164    5.8139974
:EIG00126:       5.9007386    5.9579512    5.9683686    5.9863245    6.0524225
:EIG00131:       6.0739331    6.1338125    6.1459476    6.1467700    6.1978640
:EIG00136:       6.2877486    6.2902850    6.3505650    6.3616032    6.3941633
:EIG00141:       6.4214276    6.4536852    6.4924123    6.4993782    6.5704040
:EIG00146:       6.5817813    6.5967525    6.6505460    6.6670921    6.7117129
 
:EIG00151:       6.7660096    6.7896734    6.8496906    6.9038768    6.9805527
:EIG00156:       7.0602963    7.1519412    7.1607580    7.1857963    7.2739544
:EIG00161:       7.3314552    7.3884297    7.3998461    7.4412267    7.4471354
:EIG00166:       7.4919712    7.5040027    7.5049046    7.5786878    7.6572412
:EIG00171:       7.6605975    7.7021435    7.7403172    7.7568860    7.8250082
:EIG00176:       7.8371911    7.8816992    7.8840623    7.9435264    7.9645671
:EIG00181:       7.9978278    8.0170024    8.0193461    8.0893003    8.0996952
:EIG00186:       8.1135122
       ********************************************************

:KPT   :      NUMBER OF K-POINTS:   288
   0.0   0.0 angle (M,z), angle (M,x) deg
 
        SPIN-ORBIT EIGENVALUES:
     K=   0.06250   0.00000   0.06250            1
      MATRIX SIZE=  372   WEIGHT= 4.00
     EIGENVALUES ARE:
          -1.9390127   -1.9390127   -1.9195282   -1.9195282   -0.7545137
          -0.7545137   -0.7005261   -0.7005261   -0.5663924   -0.5663924
          -0.4897573   -0.4897573   -0.4864484   -0.4864484   -0.4756777
          -0.4756777    0.4701239    0.4701239    0.5954972    0.5954972
           0.6842107    0.6842107    0.6865957    0.6865957    0.6874595
           0.6874595    0.6900174    0.6900174    0.6945912    0.6945912
           0.7004930    0.7004930    0.7145157    0.7145157    0.7222979
           0.7222979    0.7268513    0.7268513    0.7278312    0.7278312

           0.7325868    0.7325868    0.7364265    0.7364265    0.7371627
           0.7371627    0.7436980    0.7436980    0.7717052    0.7717052
           0.7873320    0.7873320    0.8712376    0.8712376    0.8858378
           0.8858378    0.9254200    0.9254200    0.9506371    0.9506371
           0.9658860    0.9658860    1.0678180    1.0678180    1.1111433
           1.1111433    1.1625413    1.1625414    1.4659688    1.4659688
           1.4874860    1.4874860    1.5520384    1.5520385    1.5665396
           1.5665396    1.7282387    1.7282387    1.7837587    1.7837587

           1.8729061    1.8729061    1.9700918    1.9700918    2.0607840
           2.0607840    2.0796582    2.0796582    2.1969202    2.1969202
           2.2309944    2.2309944    2.2468600    2.2468600    2.3360009
           2.3360009    2.3796778    2.3796778    2.4866848    2.4866848
           2.5367403    2.5367403    2.5912205    2.5912205    2.6160228
           2.6160228    2.7024970    2.7024970    2.7420762    2.7420762
           2.8081996    2.8081996    2.8265442    2.8265442    2.8915040
           2.8915040    2.9689353    2.9689353    3.0455890    3.0455890

           3.0959437    3.0959437    3.1357639    3.1357639    3.2647973
           3.2647973    3.3077623    3.3077623    3.3393494    3.3393494
           3.4507436    3.4507436    3.5015175    3.5015175    3.5613436
           3.5613436    3.5727129    3.5727129    3.6000172    3.6000172
           3.6090210    3.6090210    3.6624282    3.6624282    3.7001775
           3.7001775    3.7800994    3.7800994    3.7967119    3.7967119
           3.8421202    3.8421202    3.8585840    3.8585840    3.9086425
           3.9086425    3.9365320    3.9365320    3.9698616    3.9698616

           3.9703743    3.9703743    4.0211039    4.0211039    4.0380401
           4.0380401    4.1258071    4.1258071    4.1547420    4.1547420
           4.1562575    4.1562575    4.2579676    4.2579676    4.2848386
           4.2848386    4.3195401    4.3195401    4.3267421    4.3267421
           4.3630338    4.3630338    4.4143549    4.4143549    4.4203224
           4.4203224    4.4540044    4.4540044    4.4670362    4.4670362

       ********************************************************
:GAP (global)   :    0.0    Ry =     0.0   eV (metal)
:GAP (this spin):    0.0    Ry =     0.0   eV (metal)
         Bandranges (emin - emax) and occupancy:
:BAN00018:  18    0.464469    0.660628  1.00000000
:BAN00019:  19    0.572966    0.673002  1.00000000
:BAN00020:  20    0.572966    0.673002  1.00000000
:BAN00021:  21    0.621761    0.689929  1.00000000
:BAN00022:  22    0.621761    0.689929  1.00000000
:BAN00023:  23    0.666817    0.692716  0.99993485
:BAN00024:  24    0.666817    0.692716  0.99993485
:BAN00025:  25    0.676996    0.700034  0.76615913
:BAN00026:  26    0.676996    0.700034  0.76615897
:BAN00027:  27    0.688833    0.701223  0.23390621
:BAN00028:  28    0.688833    0.701223  0.23390598
:BAN00029:  29    0.693632    0.705005  0.00000000
:BAN00030:  30    0.693632    0.705005  0.00000000
:BAN00031:  31    0.697794    0.711882  0.00000000
:BAN00032:  32    0.697794    0.711882  0.00000000
:BAN00033:  33    0.703420    0.719433  0.00000000
        Energy to separate low and high energystates:    0.41447


:NOE  : NUMBER OF ELECTRONS          =   26.000

:FER  : F E R M I - ENERGY(TETRAH.M.)=   0.6926563892
:GMA  : POTENTIAL AND CHARGE CUT-OFF  12.00 Ry**.5

:POS001: ATOM   -1 X,Y,Z = 0.00000 0.89750 0.25000  MULT= 2  ZZ= 59.000  Pr1       

       LMMAX 16
       LM=   0 0  1 0  2 0  2 2  3 0  3 2  4 0  4 2  4 4  5 0  5 2  5 4  6 0  6 2  6 4  6 6

:CHA001: TOTAL VALENCE CHARGE INSIDE SPHERE   1 =   9.6258    (RMT=  2.3000 )
:PCS001: PARTIAL CHARGES SPHERE =  1 S,P,D,F,PX,PY,PZ,D-Z2,D-X2Y2,D-XY,D-XZ,D-YZ 
:QTL001: 1.9409 5.0046 0.5364 2.1435 1.6657 1.6649 1.6740 0.0998 0.0954 0.1177 0.1056 0.1179
        Q-s-low E-s-low   Q-p-low E-p-low   Q-d-low E-d-low   Q-f-low E-f-low
:EPL001:  1.8693 -1.9193    4.9387 -0.6039    0.0027 -0.6026    0.0008 -0.6150
        Q-s-hi  E-s-hi    Q-p-hi  E-p-hi    Q-d-hi  E-d-hi    Q-f-hi  E-f-hi 
:EPH001:  0.0716  0.5998    0.0659  0.6351    0.5337  0.6410    2.1427  0.6782

                      VXX         VYY         VZZ       UP TO R
:VZZ001:             3.45745     3.81089    -7.26833       2.300

:CHA  : TOTAL VALENCE CHARGE INSIDE UNIT CELL =      26.000000

:SUM  : SUM OF EIGENVALUES =          -8.388985603


        1.ATOM      Pr1                  14 CORE STATES
       CORE-FORCE in mRy/a.u. = |F|      Fx             Fy             Fz
:FCO001:   1.ATOM   1452.268359545020      0.000000000000      0.000000000000   1452.268359545020

:1S 001: 1S               -3066.908016613 Ry
:2S 001: 2S                -492.661214727 Ry
:2PP001: 2P*               -465.760210347 Ry
:2P 001: 2P                -430.362768810 Ry
:3S 001: 3S                -105.752421505 Ry
:3PP001: 3P*                -94.290240398 Ry
:3P 001: 3P                 -87.282372701 Ry
:3DD001: 3D*                -67.209313842 Ry
:3D 001: 3D                 -65.697755334 Ry
:4S 001: 4S                 -20.425023826 Ry
:4PP001: 4P*                -16.131461459 Ry
:4P 001: 4P                 -14.603540715 Ry
:4DD001: 4D*                 -7.535495439 Ry
:4D 001: 4D                  -7.265910765 Ry
:CINT001 Core Integral Atom   1   45.998500

       DENSITY AT NUCLEUS
        JATOM        VALENCE       SEMI-CORE          CORE           TOTAL
:RTO001:   1      648.710697        0.000000   656825.488130   657474.198828
     
       CHARGES OF NEW CHARGE DENSITY
:NTO   : INTERSTITIAL CHARGE =     6.748477
:NPC   : PW Pseudocharge     =    16.958511
:NTO001: CHARGE SPHERE  1    =    55.624261

:NEC01: NUCLEAR AND ELECTRONIC CHARGE    118.00000   117.99700
     
       CHARGES OF OLD CHARGE DENSITY
:OTO   : INTERSTITIAL CHARGE =     6.913263
:OPC   : PW Pseudocharge     =    17.026369
:OTO001: CHARGE SPHERE  1    =    55.543369

:NEC02: NUCLEAR AND ELECTRONIC CHARGE    118.00000   118.00000
     
       CONVERGENCE TEST
:DTO001: DIFFERENCE IN SPHERE  1 =  0.1434352

:DIS  :  CHARGE DISTANCE       ( 0.1434352 for atom    1 spin 1)      0.1434352
 PW Mixed is          455
 
******************************************************
* MULTISECANT MIXING VER9 RELEASE 10.4.0              *
* Standard Mode with controls                        *
* Fixed density scale                                *
* Regularization       1.000E-04                     *
* Trust Upper Limit    5.000E+00                     *
* Max Number of Memory Steps    8                    *
******************************************************
 
:PWTMP   3.3536E+02  1.9467E+02  4.3729E+02
:PLANE:  PW TOTAL      4.8869 DISTAN   2.60E-02  5.33E-01 %
:CHARG:  CLM/ATOM   1381.9521 DISTAN   2.18E-01  1.58E-02 %
 
Step History
        DMIX         DMIXT        Red     Pred      Trust     Lambda    MagRel    MagAbs     Beta
  1   3.5000E-02   3.5000E-02 -1.00E+00  1.00E+00 -1.00E+01  1.00E+00  3.50E-02  3.50E-02  1.00E+00
:INFO :  Note, Pratt in use
:TRUST:  Step 3.75E-02  Charge 7.50E-02 (e) CTO  2.50E-01 (e) PW  3.50E-01 (e)
:DIRM :  MEMORY  0/ 8 SCALE   1.000
Performing Pseudo Compensation
Final Pseudo Compensation Rescaling     1.00000E+00
:MIX  :   PRATT  REGULARIZATION:  1.00E-04 GREED: 0.02500                  
     
       CHARGES OF MIXED CHARGE DENSITY
:CTO   : INTERSTITIAL CHARGE =     6.909218
:CPC   : PW Pseudocharge     =    17.011538
:CTO001: CHARGE SPHERE  1    =    55.545391

:NEC03: NUCLEAR AND ELECTRONIC CHARGE    118.00000   118.00000

PW CHANGE     H    K    L      Current       Change    Residue
:PTO001:      0    0    0  5.47020239E-02 -4.317E-05 -5.079E-04
:PTO003:      0    2    0  1.47750490E-02 -1.031E-05  2.820E-05
:PTO004:     -1    1    0  7.22255383E-02 -5.807E-05 -1.136E-04
:PTO005:      0    2   -1 -8.37489235E-02  6.387E-05 -2.641E-05
:PTO006:      0    0   -2 -4.33799640E-02  3.435E-05  3.429E-05
:PTO007:     -1    1   -1 -9.02528131E-02  7.088E-05  3.410E-05
:PTO008:      0    2   -2 -1.45094787E-02  1.164E-05  3.473E-05
:PTO009:     -1    1   -2 -7.43743089E-02  5.137E-05 -5.396E-06
:PTO011:     -1    3    0 -1.19853738E-02  8.419E-06  6.284E-05
:PTO012:     -1    3   -1 -5.33171740E-02  2.578E-05 -1.038E-05
:PTO013:      0    4    0 -9.65590677E-03  3.339E-06 -9.327E-06
:PTO014:      0    2   -3  2.22291653E-02 -8.262E-06 -1.496E-05

:ENE  : ********** TOTAL ENERGY IN Ry =       -36944.25710039

       TOTAL FORCE IN mRy/a.u. = |F|     Fx             Fy             Fz     with/without FOR in case.in2
:FOR001:   1.ATOM         25.424          0.000          0.000        -25.424 partial forces
       TOTAL FORCE WITH RESPECT TO GLOBAL CARTESIAN COORDINATES:
:FCA001:   1.ATOM                         0.000        -25.424          0.000 partial forces
       TOTAL FORCE WITH RESPECT TO THE GLOBAL COORDINATE SYSTEM:
:FGL001:   1.ATOM                 0.000000000   -25.423765331     0.000000000 partial forces
 Flat Integration
 New Mode for Coulomb Integral
 Consistent 3/8+Simpson combinations
 Extension of core to zero
 LDM version in phi
 Fifth-order quadrature in outwin


            ---------
:ITE014: 14. ITERATION
            ---------

:NATO :    1 INDEPENDENT AND    2 TOTAL ATOMS IN UNITCELL
       SUBSTANCE: aU                                                          

       LATTICE                      = CXY 
:POT  : POTENTIAL OPTION EX_LDA EC_LDA VX_LDA VC_LDA
:LAT  : LATTICE CONSTANTS=  6.26593 12.71516 10.97726    1.571    1.571    1.571
:VOL  : UNIT CELL VOLUME =     437.29197
       MODE OF CALCULATION IS       = RELA
       NON-SPINPOLARIZED CALCULATION
:IFFT  : FFT-parameters:   48  100   90 Factor: 2.00


   CONVERGENCE PARAMETER FOR PSEUDOCHARGE: NCON=  9
   MAXIMAL VALUE OF RMT(JATOM)*ABSK(NKK) : RK  =27.59083


:VKCOUL :  VK-COUL convergence: 0.196E-06
       ATOMNUMBER=  1 Pr1        VCOUL-ZERO =  0.15081E+00
:EFG001:                        EFG         =    -8.61979   *10**21  V / m**2
                               V20  TOT/SRF=    -7.46496    -0.03253
                               V22  TOT/SRF=    -0.48076    -0.00136
                               V22M TOT/SRF=     0.00000     0.00000
                               V21  TOT/SRF=     0.00000     0.00000
                               V21M TOT/SRF=     0.00000     0.00000

              3.82914    0.00000    0.00000        3.82914    0.00000    0.00000
              0.00000    4.79065    0.00000        0.00000    4.79065    0.00000
              0.00000    0.00000   -8.61979        0.00000    0.00000   -8.61979

         MAIN DIRECTIONS OF THE EFG   1.0000  0.0000  0.0000
                                      0.0000  1.0000  0.0000
                                      0.0000  0.0000  1.0000
:ANG001:  ANGLE WITH OLD X-AXIS =         0.0

:ETA001:                         ASYMM. ETA =     0.11155


     HELLMANN-FEYNMAN-FORCE IN mRy/a.u. = |F|  Fx       Fy             Fz
:FHF001:   1.ATOM   1477.089418234007      0.000000000000      0.000000000000  -1477.089418234007

:FIT001: LUSE= 13 SIGMA OF V-XC FIT FOR ATOM  1  0.5734609E-04
:FIT001: LUSE= 13 SIGMA OF V-XC FIT FOR ATOM  1  0.5734609E-04
:DEN  : DENSITY INTEGRAL  =        -14157.04935179   (Ry)
       ELS_POTENTIAL_AT Z=0 and Z=0.5:   0.76201   0.76201
       ELS_POTENTIAL_AT Y=0 and Y=0.5:   0.06302   0.06302
:VZERO:v0,v0c,v0x   0.16197   0.76201  -0.60004 v5,v5c,v5x   0.16197   0.76201  -0.60004
:VZERY:v0,v0c,v0x  -0.73906   0.06302  -0.80207 v5,v5c,v5x  -0.73906   0.06302  -0.80207
:VZERX:v0,v0c,v0x  -1.14594  -0.38140  -0.76455 v5,v5c,v5x  -1.14594  -0.38140  -0.76455
:LMAX-WF:   10   Non-Spherical LMAX:   4

          ATOMIC SPHERE DEPENDENT PARAMETERS FOR ATOM  Pr1       
:e__0001: OVERALL ENERGY PARAMETER IS    0.4944
          OVERALL BASIS SET ON ATOM IS LAPW
:E0_0001: E( 0)=    0.4944
             APW+lo
:E0_0001: E( 0)=   -1.9607   E(BOTTOM)=   -2.596   E(TOP)=   -1.325  4  5   188
             LOCAL ORBITAL
:E1_0001: E( 1)=    0.8944
             APW+lo
:E1_0001: E( 1)=   -0.4905   E(BOTTOM)=   -1.448   E(TOP)=    0.467  3  4   193
             LOCAL ORBITAL
:E3_0001: E( 3)=    0.6885   E(BOTTOM)=    0.482   E(TOP)=    0.895  0  1   123
             APW+lo
:E2_0001: E( 2)=    0.4944   E(BOTTOM)=    0.293   E(TOP)= -200.000  2 -1    90
             APW+lo

       K=   0.06250   0.00000   0.06250            1
:RKM  : MATRIX SIZE   421LOs:  40  RKM= 8.50  WEIGHT= 4.00  PGR:    
       EIGENVALUES ARE:
:EIG00001:      -1.9378418   -1.9183252   -0.6754637   -0.5805239   -0.5588946
:EIG00006:      -0.5503957   -0.5414317   -0.5413093    0.4698949    0.5955646
:EIG00011:       0.6914435    0.6935702    0.6938113    0.6966769    0.7019485
:EIG00016:       0.7148270    0.7190145    0.7193352    0.7225195    0.7257817
:EIG00021:       0.7303815    0.7339391    0.7343992    0.7414093    0.7716175
:EIG00026:       0.7877747    0.8737025    0.8842830    0.9253336    0.9504591
:EIG00031:       0.9659673    1.0681992    1.1112123    1.1627949    1.4658402
:EIG00036:       1.4875848    1.5520465    1.5665816    1.7284965    1.7841882
:EIG00041:       1.8729143    1.9712109    2.0624899    2.0785954    2.1966942
:EIG00046:       2.2311478    2.2481424    2.3364537    2.3785891    2.4868827
 
:EIG00051:       2.5373499    2.5938369    2.6143664    2.7025538    2.7409681
:EIG00056:       2.8080307    2.8269479    2.8911854    2.9684278    3.0458399
:EIG00061:       3.0959208    3.1316302    3.2650434    3.3075117    3.3390225
:EIG00066:       3.4507515    3.5012999    3.5611937    3.5732606    3.5996311
:EIG00071:       3.6085909    3.6624022    3.7000144    3.7810359    3.7953871
:EIG00076:       3.8419894    3.8565395    3.9084551    3.9360377    3.9695564
:EIG00081:       3.9700722    4.0208566    4.0374180    4.1256288    4.1551834
:EIG00086:       4.1552031    4.2576477    4.2844858    4.3193703    4.3266080
:EIG00091:       4.3627759    4.4142476    4.4199814    4.4540402    4.4671157
:EIG00096:       4.5008626    4.5503213    4.5627666    4.5853119    4.6545942
 
:EIG00101:       4.7411047    4.8605652    4.8825636    4.9621430    4.9768498
:EIG00106:       4.9829502    5.0419665    5.0823930    5.1017904    5.1300496
:EIG00111:       5.2222302    5.2681994    5.3059796    5.3731740    5.4112619
:EIG00116:       5.4643853    5.4840839    5.5070203    5.5595487    5.6032773
:EIG00121:       5.6235122    5.6697671    5.7457522    5.7514165    5.8139455
:EIG00126:       5.9005897    5.9579373    5.9682926    5.9861834    6.0522783
:EIG00131:       6.0739377    6.1336369    6.1458940    6.1466315    6.1978575
:EIG00136:       6.2876490    6.2900989    6.3503203    6.3613951    6.3940645
:EIG00141:       6.4213462    6.4537704    6.4922346    6.4991935    6.5701896
:EIG00146:       6.5815777    6.5966117    6.6504245    6.6674468    6.7114713
 
:EIG00151:       6.7657435    6.7895951    6.8494434    6.9038912    6.9804554
:EIG00156:       7.0602122    7.1518065    7.1605811    7.1855955    7.2738500
:EIG00161:       7.3312747    7.3884399    7.3996953    7.4411507    7.4471848
:EIG00166:       7.4918598    7.5039419    7.5048137    7.5785905    7.6572598
:EIG00171:       7.6606543    7.7021392    7.7403099    7.7568919    7.8250016
:EIG00176:       7.8371908    7.8816831    7.8842228    7.9435167    7.9644926
:EIG00181:       7.9976990    8.0170286    8.0191746    8.0894683    8.0995578
:EIG00186:       8.1133527
       ********************************************************

:KPT   :      NUMBER OF K-POINTS:   288
   0.0   0.0 angle (M,z), angle (M,x) deg
 
        SPIN-ORBIT EIGENVALUES:
     K=   0.06250   0.00000   0.06250            1
      MATRIX SIZE=  372   WEIGHT= 4.00
     EIGENVALUES ARE:
          -1.9378420   -1.9378420   -1.9183253   -1.9183253   -0.7536704
          -0.7536704   -0.6995692   -0.6995692   -0.5656382   -0.5656382
          -0.4888965   -0.4888965   -0.4856011   -0.4856011   -0.4748063
          -0.4748063    0.4699445    0.4699445    0.5954376    0.5954376
           0.6862720    0.6862720    0.6887754    0.6887754    0.6896268
           0.6896268    0.6921839    0.6921839    0.6967723    0.6967723
           0.7029042    0.7029042    0.7166152    0.7166152    0.7246129
           0.7246129    0.7292173    0.7292173    0.7301384    0.7301384

           0.7348693    0.7348693    0.7386687    0.7386687    0.7394879
           0.7394880    0.7460974    0.7460974    0.7726445    0.7726445
           0.7878518    0.7878518    0.8716185    0.8716186    0.8860256
           0.8860257    0.9256030    0.9256030    0.9508234    0.9508234
           0.9661219    0.9661219    1.0680687    1.0680687    1.1114877
           1.1114877    1.1629180    1.1629180    1.4660007    1.4660007
           1.4876762    1.4876762    1.5520023    1.5520023    1.5666539
           1.5666539    1.7281589    1.7281589    1.7836732    1.7836732

           1.8729061    1.8729061    1.9700815    1.9700815    2.0608037
           2.0608037    2.0797051    2.0797052    2.1970479    2.1970479
           2.2310131    2.2310131    2.2467490    2.2467490    2.3360102
           2.3360102    2.3796286    2.3796286    2.4867072    2.4867072
           2.5367550    2.5367550    2.5912637    2.5912637    2.6160172
           2.6160172    2.7025796    2.7025796    2.7422211    2.7422211
           2.8081634    2.8081634    2.8264579    2.8264579    2.8918287
           2.8918287    2.9689548    2.9689548    3.0456836    3.0456836

           3.0958671    3.0958671    3.1359374    3.1359374    3.2649165
           3.2649165    3.3075536    3.3075536    3.3392421    3.3392421
           3.4507865    3.4507865    3.5013755    3.5013755    3.5613966
           3.5613966    3.5727503    3.5727503    3.5998166    3.5998166
           3.6088572    3.6088572    3.6623228    3.6623228    3.7000834
           3.7000834    3.7800025    3.7800025    3.7965882    3.7965882
           3.8421415    3.8421415    3.8584068    3.8584068    3.9085528
           3.9085528    3.9363867    3.9363867    3.9697977    3.9697977

           3.9702112    3.9702112    4.0209013    4.0209013    4.0378612
           4.0378612    4.1256353    4.1256353    4.1546076    4.1546076
           4.1561292    4.1561292    4.2576435    4.2576435    4.2846427
           4.2846427    4.3193807    4.3193807    4.3266967    4.3266967
           4.3628136    4.3628136    4.4142497    4.4142497    4.4200634
           4.4200634    4.4539856    4.4539856    4.4670703    4.4670703

       ********************************************************
:GAP (global)   :    0.0    Ry =     0.0   eV (metal)
:GAP (this spin):    0.0    Ry =     0.0   eV (metal)
         Bandranges (emin - emax) and occupancy:
:BAN00018:  18    0.464287    0.661768  1.00000000
:BAN00019:  19    0.572854    0.674348  1.00000000
:BAN00020:  20    0.572854    0.674348  1.00000000
:BAN00021:  21    0.621852    0.692058  1.00000000
:BAN00022:  22    0.621852    0.692058  1.00000000
:BAN00023:  23    0.667677    0.694842  0.99993126
:BAN00024:  24    0.667677    0.694842  0.99993126
:BAN00025:  25    0.678544    0.702391  0.76630331
:BAN00026:  26    0.678544    0.702391  0.76630317
:BAN00027:  27    0.690975    0.703619  0.23376562
:BAN00028:  28    0.690975    0.703619  0.23376537
:BAN00029:  29    0.695845    0.706925  0.00000000
:BAN00030:  30    0.695845    0.706925  0.00000000
:BAN00031:  31    0.700059    0.713706  0.00000000
:BAN00032:  32    0.700059    0.713706  0.00000000
:BAN00033:  33    0.705746    0.721149  0.00000000
        Energy to separate low and high energystates:    0.41429


:NOE  : NUMBER OF ELECTRONS          =   26.000

:FER  : F E R M I - ENERGY(TETRAH.M.)=   0.6947804399
:GMA  : POTENTIAL AND CHARGE CUT-OFF  12.00 Ry**.5

:POS001: ATOM   -1 X,Y,Z = 0.00000 0.89750 0.25000  MULT= 2  ZZ= 59.000  Pr1       

       LMMAX 16
       LM=   0 0  1 0  2 0  2 2  3 0  3 2  4 0  4 2  4 4  5 0  5 2  5 4  6 0  6 2  6 4  6 6

:CHA001: TOTAL VALENCE CHARGE INSIDE SPHERE   1 =   9.5960    (RMT=  2.3000 )
:PCS001: PARTIAL CHARGES SPHERE =  1 S,P,D,F,PX,PY,PZ,D-Z2,D-X2Y2,D-XY,D-XZ,D-YZ 
:QTL001: 1.9412 5.0049 0.5463 2.1032 1.6657 1.6650 1.6743 0.1020 0.0976 0.1190 0.1077 0.1200
        Q-s-low E-s-low   Q-p-low E-p-low   Q-d-low E-d-low   Q-f-low E-f-low
:EPL001:  1.8692 -1.9181    4.9375 -0.6031    0.0027 -0.6017    0.0008 -0.6142
        Q-s-hi  E-s-hi    Q-p-hi  E-p-hi    Q-d-hi  E-d-hi    Q-f-hi  E-f-hi 
:EPH001:  0.0720  0.6003    0.0674  0.6363    0.5436  0.6421    2.1024  0.6800

                      VXX         VYY         VZZ       UP TO R
:VZZ001:             3.67954     4.00646    -7.68600       2.300

:CHA  : TOTAL VALENCE CHARGE INSIDE UNIT CELL =      26.000000

:SUM  : SUM OF EIGENVALUES =          -8.364401945


        1.ATOM      Pr1                  14 CORE STATES
       CORE-FORCE in mRy/a.u. = |F|      Fx             Fy             Fz
:FCO001:   1.ATOM   1451.806703136432      0.000000000000      0.000000000000   1451.806703136432

:1S 001: 1S               -3066.903289504 Ry
:2S 001: 2S                -492.656475825 Ry
:2PP001: 2P*               -465.755473971 Ry
:2P 001: 2P                -430.358031618 Ry
:3S 001: 3S                -105.747789070 Ry
:3PP001: 3P*                -94.285597764 Ry
:3P 001: 3P                 -87.277749134 Ry
:3DD001: 3D*                -67.204655674 Ry
:3D 001: 3D                 -65.693101846 Ry
:4S 001: 4S                 -20.421404112 Ry
:4PP001: 4P*                -16.127905481 Ry
:4P 001: 4P                 -14.600083386 Ry
:4DD001: 4D*                 -7.532213173 Ry
:4D 001: 4D                  -7.262662206 Ry
:CINT001 Core Integral Atom   1   45.998498

       DENSITY AT NUCLEUS
        JATOM        VALENCE       SEMI-CORE          CORE           TOTAL
:RTO001:   1      648.715494        0.000000   656825.279428   657473.994922
     
       CHARGES OF NEW CHARGE DENSITY
:NTO   : INTERSTITIAL CHARGE =     6.808003
:NPC   : PW Pseudocharge     =    16.975924
:NTO001: CHARGE SPHERE  1    =    55.594496

:NEC01: NUCLEAR AND ELECTRONIC CHARGE    118.00000   117.99699
     
       CHARGES OF OLD CHARGE DENSITY
:OTO   : INTERSTITIAL CHARGE =     6.909218
:OPC   : PW Pseudocharge     =    17.011538
:OTO001: CHARGE SPHERE  1    =    55.545391

:NEC02: NUCLEAR AND ELECTRONIC CHARGE    118.00000   118.00000
     
       CONVERGENCE TEST
:DTO001: DIFFERENCE IN SPHERE  1 =  0.0901012

:DIS  :  CHARGE DISTANCE       ( 0.0901012 for atom    1 spin 1)      0.0901012
 PW Mixed is          455
 
******************************************************
* MULTISECANT MIXING VER9 RELEASE 10.4.0              *
* Slow Mode, cautious                                *
* Fixed density scale                                *
* Regularization       1.000E-04                     *
* Step Trust Radius    0.75000                       *
* Trust Upper Limit    2.000E+00                     *
* Max Number of Memory Steps   12                    *
******************************************************
 
:PWTMP   3.3536E+02  1.9467E+02  4.3729E+02
:PLANE:  PW TOTAL      4.8833 DISTAN   1.52E-02  3.12E-01 %
:CHARG:  CLM/ATOM   1381.9524 DISTAN   1.48E-01  1.07E-02 %
 
Step History
        DMIX         DMIXT        Red     Pred      Trust     Lambda    MagRel    MagAbs     Beta
  1   3.5000E-02   3.5000E-02 -1.00E+00  1.00E+00 -1.00E+01  1.00E+00  3.50E-02  3.50E-02  1.00E+00
  2   2.5000E-02   2.5000E-02 -1.00E+00  1.00E+00 -1.00E+01  1.00E+00  2.50E-02  5.49E-03  1.00E+00
:JACOBIANS    2.980E-03   3.319E-02
  
:TRUST:  Step 2.83E-02  Charge 7.50E-02 (e) CTO  2.50E-01 (e) PW  3.50E-01 (e)
:DIRM :  MEMORY  1/12 SCALE   1.000
:MIX  :   PRATT  REGULARIZATION:  1.00E-04 GREED: 0.02828  Expand 1.13  0.0283                
     
       CHARGES OF MIXED CHARGE DENSITY
:CTO   : INTERSTITIAL CHARGE =     6.902342
:CPC   : PW Pseudocharge     =    16.986321
:CTO001: CHARGE SPHERE  1    =    55.548829

:NEC03: NUCLEAR AND ELECTRONIC CHARGE    118.00000   118.00000

PW CHANGE     H    K    L      Current       Change    Residue
:PTO001:      0    0    0  5.46286335E-02 -7.339E-05 -2.889E-04
:PTO003:      0    2    0  1.47575279E-02 -1.752E-05  2.365E-05
:PTO004:     -1    1    0  7.21267991E-02 -9.874E-05 -4.049E-05
:PTO005:      0    2   -1 -8.36403334E-02  1.086E-04 -7.570E-05
:PTO006:      0    0   -2 -4.33215588E-02  5.841E-05 -3.053E-06
:PTO007:     -1    1   -1 -9.01323085E-02  1.205E-04 -1.619E-05
:PTO008:      0    2   -2 -1.44896901E-02  1.979E-05  1.992E-05
:PTO009:     -1    1   -2 -7.42869638E-02  8.735E-05 -4.133E-05
:PTO011:     -1    3    0 -1.19710605E-02  1.431E-05  4.289E-05
:PTO012:     -1    3   -1 -5.32733372E-02  4.384E-05 -2.296E-05
:PTO013:      0    4    0 -9.65023038E-03  5.676E-06 -5.939E-06
:PTO014:      0    2   -3  2.22151176E-02 -1.405E-05 -4.879E-06

:ENE  : ********** TOTAL ENERGY IN Ry =       -36944.25652915

       TOTAL FORCE IN mRy/a.u. = |F|     Fx             Fy             Fz     with/without FOR in case.in2
:FOR001:   1.ATOM         25.283          0.000          0.000        -25.283 partial forces
       TOTAL FORCE WITH RESPECT TO GLOBAL CARTESIAN COORDINATES:
:FCA001:   1.ATOM                         0.000        -25.283          0.000 partial forces
       TOTAL FORCE WITH RESPECT TO THE GLOBAL COORDINATE SYSTEM:
:FGL001:   1.ATOM                 0.000000000   -25.282715098     0.000000000 partial forces
 Flat Integration
 New Mode for Coulomb Integral
 Consistent 3/8+Simpson combinations
 Extension of core to zero
 LDM version in phi
 Fifth-order quadrature in outwin


            ---------
:ITE015: 15. ITERATION
            ---------

:NATO :    1 INDEPENDENT AND    2 TOTAL ATOMS IN UNITCELL
       SUBSTANCE: aU                                                          

       LATTICE                      = CXY 
:POT  : POTENTIAL OPTION EX_LDA EC_LDA VX_LDA VC_LDA
:LAT  : LATTICE CONSTANTS=  6.26593 12.71516 10.97726    1.571    1.571    1.571
:VOL  : UNIT CELL VOLUME =     437.29197
       MODE OF CALCULATION IS       = RELA
       NON-SPINPOLARIZED CALCULATION
:IFFT  : FFT-parameters:   48  100   90 Factor: 2.00


   CONVERGENCE PARAMETER FOR PSEUDOCHARGE: NCON=  9
   MAXIMAL VALUE OF RMT(JATOM)*ABSK(NKK) : RK  =27.59083


:VKCOUL :  VK-COUL convergence: 0.195E-06
       ATOMNUMBER=  1 Pr1        VCOUL-ZERO =  0.15054E+00
:EFG001:                        EFG         =    -8.56237   *10**21  V / m**2
                               V20  TOT/SRF=    -7.41523    -0.03228
                               V22  TOT/SRF=    -0.46742    -0.00123
                               V22M TOT/SRF=     0.00000     0.00000
                               V21  TOT/SRF=     0.00000     0.00000
                               V21M TOT/SRF=     0.00000     0.00000

              3.81377    0.00000    0.00000        3.81377    0.00000    0.00000
              0.00000    4.74860    0.00000        0.00000    4.74860    0.00000
              0.00000    0.00000   -8.56237        0.00000    0.00000   -8.56237

         MAIN DIRECTIONS OF THE EFG   1.0000  0.0000  0.0000
                                      0.0000  1.0000  0.0000
                                      0.0000  0.0000  1.0000
:ANG001:  ANGLE WITH OLD X-AXIS =         0.0

:ETA001:                         ASYMM. ETA =     0.10918


     HELLMANN-FEYNMAN-FORCE IN mRy/a.u. = |F|  Fx       Fy             Fz
:FHF001:   1.ATOM   1476.064694720619      0.000000000000      0.000000000000  -1476.064694720619

:FIT001: LUSE= 13 SIGMA OF V-XC FIT FOR ATOM  1  0.5691845E-04
:FIT001: LUSE= 13 SIGMA OF V-XC FIT FOR ATOM  1  0.5691845E-04
:DEN  : DENSITY INTEGRAL  =        -14157.74225343   (Ry)
       ELS_POTENTIAL_AT Z=0 and Z=0.5:   0.76103   0.76103
       ELS_POTENTIAL_AT Y=0 and Y=0.5:   0.06292   0.06292
:VZERO:v0,v0c,v0x   0.16120   0.76103  -0.59982 v5,v5c,v5x   0.16120   0.76103  -0.59982
:VZERY:v0,v0c,v0x  -0.73884   0.06292  -0.80176 v5,v5c,v5x  -0.73884   0.06292  -0.80176
:VZERX:v0,v0c,v0x  -1.14509  -0.38085  -0.76425 v5,v5c,v5x  -1.14509  -0.38085  -0.76425
:LMAX-WF:   10   Non-Spherical LMAX:   4

          ATOMIC SPHERE DEPENDENT PARAMETERS FOR ATOM  Pr1       
:e__0001: OVERALL ENERGY PARAMETER IS    0.4946
          OVERALL BASIS SET ON ATOM IS LAPW
:E0_0001: E( 0)=    0.4946
             APW+lo
:E0_0001: E( 0)=   -1.9585   E(BOTTOM)=   -2.594   E(TOP)=   -1.323  4  5   187
             LOCAL ORBITAL
:E1_0001: E( 1)=    0.8946
             APW+lo
:E1_0001: E( 1)=   -0.4886   E(BOTTOM)=   -1.447   E(TOP)=    0.469  3  4   195
             LOCAL ORBITAL
:E3_0001: E( 3)=    0.6926   E(BOTTOM)=    0.485   E(TOP)=    0.900  0  1   119
             APW+lo
:E2_0001: E( 2)=    0.4946   E(BOTTOM)=    0.294   E(TOP)= -200.000  2 -1    90
             APW+lo

       K=   0.06250   0.00000   0.06250            1
:RKM  : MATRIX SIZE   421LOs:  40  RKM= 8.50  WEIGHT= 4.00  PGR:    
       EIGENVALUES ARE:
:EIG00001:      -1.9358523   -1.9162807   -0.6742649   -0.5791398   -0.5574606
:EIG00006:      -0.5488208   -0.5398340   -0.5397839    0.4695899    0.5954529
:EIG00011:       0.6947111    0.6971956    0.6973892    0.7002018    0.7054301
:EIG00016:       0.7188355    0.7230489    0.7234044    0.7265918    0.7296913
:EIG00021:       0.7345292    0.7378724    0.7382124    0.7455099    0.7731572
:EIG00026:       0.7886499    0.8743576    0.8845890    0.9256449    0.9507766
:EIG00031:       0.9663720    1.0686236    1.1117982    1.1634330    1.4658963
:EIG00036:       1.4879056    1.5519862    1.5667748    1.7283603    1.7840417
:EIG00041:       1.8729124    1.9711864    2.0624998    2.0786743    2.1968695
:EIG00046:       2.2311604    2.2479312    2.3364597    2.3784672    2.4868856
 
:EIG00051:       2.5373423    2.5938944    2.6143092    2.7026432    2.7411676
:EIG00056:       2.8079369    2.8267711    2.8916328    2.9684218    3.0459723
:EIG00061:       3.0957142    3.1318700    3.2651455    3.3071159    3.3387847
:EIG00066:       3.4507341    3.5009929    3.5612470    3.5732705    3.5992674
:EIG00071:       3.6082658    3.6621707    3.6998062    3.7808523    3.7951325
:EIG00076:       3.8419335    3.8562084    3.9082137    3.9357667    3.9694140
:EIG00081:       3.9697333    4.0204634    4.0370842    4.1252839    4.1546913
:EIG00086:       4.1551579    4.2570713    4.2841195    4.3190666    4.3263966
:EIG00091:       4.3623496    4.4139869    4.4195030    4.4538902    4.4670453
:EIG00096:       4.5004202    4.5498857    4.5623473    4.5850379    4.6541537
 
:EIG00101:       4.7408530    4.8601720    4.8823462    4.9618406    4.9763942
:EIG00106:       4.9825110    5.0415236    5.0820270    5.1014888    5.1295795
:EIG00111:       5.2217378    5.2676929    5.3059659    5.3730217    5.4109051
:EIG00116:       5.4640815    5.4837044    5.5066924    5.5593958    5.6031528
:EIG00121:       5.6234344    5.6693163    5.7455401    5.7509904    5.8136981
:EIG00126:       5.9001996    5.9577192    5.9680445    5.9858262    6.0519407
:EIG00131:       6.0737120    6.1332590    6.1456177    6.1462739    6.1976287
:EIG00136:       6.2872961    6.2896734    6.3498236    6.3609529    6.3937172
:EIG00141:       6.4210443    6.4535704    6.4918483    6.4987317    6.5696974
:EIG00146:       6.5811125    6.5962042    6.6500337    6.6674770    6.7109650
 
:EIG00151:       6.7652078    6.7892300    6.8489198    6.9036786    6.9801120
:EIG00156:       7.0599067    7.1514310    7.1601369    7.1851140    7.2734841
:EIG00161:       7.3308218    7.3882681    7.3993043    7.4408054    7.4470093
:EIG00166:       7.4914653    7.5036391    7.5044571    7.5782223    7.6569422
:EIG00171:       7.6604082    7.7018237    7.7400033    7.7566054    7.8246997
:EIG00176:       7.8368705    7.8813783    7.8841631    7.9432140    7.9641653
:EIG00181:       7.9972594    8.0167741    8.0187016    8.0893173    8.0991459
:EIG00186:       8.1129167
       ********************************************************

:KPT   :      NUMBER OF K-POINTS:   288
   0.0   0.0 angle (M,z), angle (M,x) deg
 
        SPIN-ORBIT EIGENVALUES:
     K=   0.06250   0.00000   0.06250            1
      MATRIX SIZE=  372   WEIGHT= 4.00
     EIGENVALUES ARE:
          -1.9358525   -1.9358525   -1.9162809   -1.9162809   -0.7522391
          -0.7522391   -0.6979444   -0.6979444   -0.5643569   -0.5643569
          -0.4874339   -0.4874339   -0.4841614   -0.4841614   -0.4733257
          -0.4733257    0.4696397    0.4696397    0.5953299    0.5953299
           0.6897326    0.6897326    0.6924701    0.6924701    0.6932955
           0.6932955    0.6958448    0.6958448    0.7004558    0.7004558
           0.7069985    0.7069985    0.7201624    0.7201624    0.7285355
           0.7285355    0.7332309    0.7332309    0.7340515    0.7340515

           0.7387202    0.7387202    0.7424348    0.7424348    0.7434310
           0.7434310    0.7501761    0.7501761    0.7743380    0.7743380
           0.7888039    0.7888039    0.8722859    0.8722860    0.8863517
           0.8863518    0.9259163    0.9259163    0.9511425    0.9511425
           0.9665256    0.9665256    1.0684943    1.0684943    1.1120722
           1.1120722    1.1635551    1.1635551    1.4660591    1.4660591
           1.4879950    1.4879950    1.5519431    1.5519431    1.5668464
           1.5668464    1.7280238    1.7280238    1.7835267    1.7835267

           1.8729045    1.8729045    1.9700593    1.9700593    2.0608228
           2.0608228    2.0797729    2.0797729    2.1972214    2.1972214
           2.2310239    2.2310239    2.2465449    2.2465449    2.3360093
           2.3360093    2.3795141    2.3795141    2.4867116    2.4867116
           2.5367454    2.5367454    2.5913080    2.5913080    2.6159720
           2.6159720    2.7026651    2.7026651    2.7424131    2.7424131
           2.8080724    2.8080724    2.8262861    2.8262861    2.8922685
           2.8922685    2.9689523    2.9689523    3.0458195    3.0458195

           3.0956638    3.0956638    3.1361696    3.1361696    3.2650178
           3.2650178    3.3071580    3.3071580    3.3390049    3.3390049
           3.4507691    3.4507691    3.5010695    3.5010695    3.5614476
           3.5614476    3.5727573    3.5727573    3.5994535    3.5994535
           3.6085338    3.6085338    3.6620902    3.6620902    3.6998752
           3.6998752    3.7798131    3.7798131    3.7963413    3.7963413
           3.8420829    3.8420829    3.8580778    3.8580778    3.9083115
           3.9083115    3.9361182    3.9361182    3.9696071    3.9696071

           3.9699179    3.9699179    4.0205086    4.0205086    4.0375280
           4.0375280    4.1252910    4.1252910    4.1542837    4.1542837
           4.1559151    4.1559151    4.2570672    4.2570672    4.2842765
           4.2842765    4.3190772    4.3190772    4.3264854    4.3264854
           4.3623874    4.3623874    4.4139867    4.4139867    4.4195881
           4.4195881    4.4538343    4.4538343    4.4669989    4.4669989

       ********************************************************
:GAP (global)   :    0.0    Ry =     0.0   eV (metal)
:GAP (this spin):    0.0    Ry =     0.0   eV (metal)
         Bandranges (emin - emax) and occupancy:
:BAN00018:  18    0.463977    0.663621  1.00000000
:BAN00019:  19    0.572664    0.676518  1.00000000
:BAN00020:  20    0.572664    0.676518  1.00000000
:BAN00021:  21    0.621986    0.695616  1.00000000
:BAN00022:  22    0.621986    0.695616  1.00000000
:BAN00023:  23    0.669058    0.698370  1.00000000
:BAN00024:  24    0.669058    0.698370  1.00000000
:BAN00025:  25    0.681112    0.706391  0.76615711
:BAN00026:  26    0.681112    0.706391  0.76615689
:BAN00027:  27    0.694604    0.707686  0.23384311
:BAN00028:  28    0.694604    0.707686  0.23384288
:BAN00029:  29    0.699589    0.710208  0.00000000
:BAN00030:  30    0.699589    0.710208  0.00000000
:BAN00031:  31    0.703868    0.716855  0.00000000
:BAN00032:  32    0.703868    0.716855  0.00000000
:BAN00033:  33    0.709668    0.723878  0.00000000
        Energy to separate low and high energystates:    0.41398


:NOE  : NUMBER OF ELECTRONS          =   26.000

:FER  : F E R M I - ENERGY(TETRAH.M.)=   0.6983856462
:GMA  : POTENTIAL AND CHARGE CUT-OFF  12.00 Ry**.5

:POS001: ATOM   -1 X,Y,Z = 0.00000 0.89750 0.25000  MULT= 2  ZZ= 59.000  Pr1       

       LMMAX 16
       LM=   0 0  1 0  2 0  2 2  3 0  3 2  4 0  4 2  4 4  5 0  5 2  5 4  6 0  6 2  6 4  6 6

:CHA001: TOTAL VALENCE CHARGE INSIDE SPHERE   1 =   9.5465    (RMT=  2.3000 )
:PCS001: PARTIAL CHARGES SPHERE =  1 S,P,D,F,PX,PY,PZ,D-Z2,D-X2Y2,D-XY,D-XZ,D-YZ 
:QTL001: 1.9417 5.0055 0.5628 2.0361 1.6656 1.6651 1.6747 0.1056 0.1014 0.1213 0.1110 0.1235
        Q-s-low E-s-low   Q-p-low E-p-low   Q-d-low E-d-low   Q-f-low E-f-low
:EPL001:  1.8690 -1.9161    4.9355 -0.6017    0.0028 -0.6003    0.0008 -0.6129
        Q-s-hi  E-s-hi    Q-p-hi  E-p-hi    Q-d-hi  E-d-hi    Q-f-hi  E-f-hi 
:EPH001:  0.0727  0.6010    0.0700  0.6382    0.5600  0.6440    2.0353  0.6831

                      VXX         VYY         VZZ       UP TO R
:VZZ001:             4.05817     4.33174    -8.38991       2.300

:CHA  : TOTAL VALENCE CHARGE INSIDE UNIT CELL =      26.000000

:SUM  : SUM OF EIGENVALUES =          -8.323136804


        1.ATOM      Pr1                  14 CORE STATES
       CORE-FORCE in mRy/a.u. = |F|      Fx             Fy             Fz
:FCO001:   1.ATOM   1451.021751283369      0.000000000000      0.000000000000   1451.021751283369

:1S 001: 1S               -3066.895252459 Ry
:2S 001: 2S                -492.648418731 Ry
:2PP001: 2P*               -465.747421172 Ry
:2P 001: 2P                -430.349977432 Ry
:3S 001: 3S                -105.739912991 Ry
:3PP001: 3P*                -94.277704345 Ry
:3P 001: 3P                 -87.269888132 Ry
:3DD001: 3D*                -67.196735845 Ry
:3D 001: 3D                 -65.685189973 Ry
:4S 001: 4S                 -20.415249946 Ry
:4PP001: 4P*                -16.121859710 Ry
:4P 001: 4P                 -14.594205363 Ry
:4DD001: 4D*                 -7.526632947 Ry
:4D 001: 4D                  -7.257139301 Ry
:CINT001 Core Integral Atom   1   45.998493

       DENSITY AT NUCLEUS
        JATOM        VALENCE       SEMI-CORE          CORE           TOTAL
:RTO001:   1      648.708591        0.000000   656824.924562   657473.633153
     
       CHARGES OF NEW CHARGE DENSITY
:NTO   : INTERSTITIAL CHARGE =     6.907051
:NPC   : PW Pseudocharge     =    17.004923
:NTO001: CHARGE SPHERE  1    =    55.544967

:NEC01: NUCLEAR AND ELECTRONIC CHARGE    118.00000   117.99699
     
       CHARGES OF OLD CHARGE DENSITY
:OTO   : INTERSTITIAL CHARGE =     6.902342
:OPC   : PW Pseudocharge     =    16.986321
:OTO001: CHARGE SPHERE  1    =    55.548829

:NEC02: NUCLEAR AND ELECTRONIC CHARGE    118.00000   118.00000
     
       CONVERGENCE TEST
:DTO001: DIFFERENCE IN SPHERE  1 =  0.0091732

:DIS  :  CHARGE DISTANCE       ( 0.0091732 for atom    1 spin 1)      0.0091732
 PW Mixed is          455
 
******************************************************
* MULTISECANT MIXING VER9 RELEASE 10.4.0              *
* Slow Mode, cautious                                *
* Fixed density scale                                *
* Regularization       1.000E-04                     *
* Step Trust Radius    0.75000                       *
* Trust Upper Limit    2.000E+00                     *
* Max Number of Memory Steps   12                    *
******************************************************
 
:PWTMP   3.3536E+02  1.9467E+02  4.3729E+02
:PLANE:  PW TOTAL      4.8772 DISTAN   8.47E-03  1.74E-01 %
:CHARG:  CLM/ATOM   1381.9529 DISTAN   6.86E-02  4.96E-03 %
 
Step History
        DMIX         DMIXT        Red     Pred      Trust     Lambda    MagRel    MagAbs     Beta
  1   3.5000E-02   3.5000E-02 -1.00E+00  1.00E+00 -1.00E+01  1.00E+00  3.50E-02  3.50E-02  1.00E+00
  2   2.5000E-02   2.5000E-02  6.75E-01  1.00E+00 -1.00E+01  1.00E+00  2.50E-02  5.49E-03  1.00E+00
  3   2.8284E-02   2.8284E-02 -1.00E+00  1.00E+00 -1.00E+01  1.00E+00  2.83E-02  4.20E-03  1.00E+00
:JACOBIANS    4.543E-03   5.033E-02
  
:NORMS:  1/Froebius, Min, Max, Used   0.9012E-01  0.4338E-01  0.9012E-01  0.9012E-01
:INFO :  Number of Memory Steps    2 Skipping    0
:INFO :  SLambda=    1.8743385384  Max    1.8743385384
:PREDicted Charge, CTotal, PW Trust    3.646E-03   7.292E-03   1.515E-02
:PREDicted DMix, Beta, BLim   5.1639E-02  7.9954E-01  3.1507E-01

Eigenvalues, unscaled except for SY+YY
   #     SY Real        SY Imag          SS             YY         SY+YY Real      SY+YY Imag
   1  -5.412337E-16   0.000000E+00   1.624283E-02   1.999995E+00   5.359300E-06   0.000000E+00
   2   1.468769E-01   0.000000E+00   0.000000E+00   5.244201E-06   2.275292E+00   0.000000E+00
 
:INFO :  Singular value  2.275E+00 Weight  1.000E+00 Projection -3.183E-03
:INFO :  Singular value  5.359E-06 Weight  7.175E-04 Projection  1.385E-03
:RANK :  ACTIVE   1.00/2  =  50.04 % ; YY RANK   1.00/2  =  50.03 %
 
:DLIM :  Beta Active  8.497E-01
:BLIM :  VZERO Control Off
:TRUST:  Step 3.33E-01  Charge 7.50E-02 (e) CTO  2.50E-01 (e) PW  3.50E-01 (e)
:DIRM :  MEMORY  2/12 SCALE   1.000 RED  0.47 PRED  1.00 NEXT  1.00 BETA  0.85
:TRAVE:  Charge 1.29E-04 (e) CTO  2.58E-04 (e) PW  2.84E-04 (e)
:DIRP :  |MSR1|= 1.974E-04 |PRATT|= 8.473E-03 ANGLE=  27.2 DEGREES
:DIRQ :  |MSR1|= 2.860E-03 |PRATT|= 6.855E-02 ANGLE=   1.5 DEGREES
:DIRT :  |MSR1|= 2.867E-03 |PRATT|= 6.907E-02 ANGLE=   4.3 DEGREES
:MIX  :   MSE1   REGULARIZATION:  2.00E-04 GREED: 0.04039  Newton 1.00  0.0415                
     
       CHARGES OF MIXED CHARGE DENSITY
:CTO   : INTERSTITIAL CHARGE =     6.902599
:CPC   : PW Pseudocharge     =    16.986701
:CTO001: CHARGE SPHERE  1    =    55.548700

:NEC03: NUCLEAR AND ELECTRONIC CHARGE    118.00000   118.00000

PW CHANGE     H    K    L      Current       Change    Residue
:PTO001:      0    0    0  5.46300919E-02  1.458E-06  7.717E-05
:PTO003:      0    2    0  1.47577143E-02  1.864E-07  1.769E-05
:PTO004:     -1    1    0  7.21273094E-02  5.103E-07  8.085E-05
:PTO005:      0    2   -1 -8.36437645E-02 -3.431E-06 -1.616E-04
:PTO006:      0    0   -2 -4.33225820E-02 -1.023E-06 -6.599E-05
:PTO007:     -1    1   -1 -9.01330825E-02 -7.740E-07 -1.045E-04
:PTO008:      0    2   -2 -1.44893168E-02  3.732E-07 -4.428E-06
:PTO009:     -1    1   -2 -7.42885348E-02 -1.571E-06 -1.009E-04
:PTO011:     -1    3    0 -1.19702670E-02  7.935E-07  1.028E-05
:PTO012:     -1    3   -1 -5.32738569E-02 -5.197E-07 -4.429E-05
:PTO013:      0    4    0 -9.65010129E-03  1.291E-07 -1.140E-06
:PTO014:      0    2   -3  2.22151903E-02  7.264E-08  1.153E-05

:ENE  : ********** TOTAL ENERGY IN Ry =       -36944.25613669

       TOTAL FORCE IN mRy/a.u. = |F|     Fx             Fy             Fz     with/without FOR in case.in2
:FOR001:   1.ATOM         25.043          0.000          0.000        -25.043 partial forces
       TOTAL FORCE WITH RESPECT TO GLOBAL CARTESIAN COORDINATES:
:FCA001:   1.ATOM                         0.000        -25.043          0.000 partial forces
       TOTAL FORCE WITH RESPECT TO THE GLOBAL COORDINATE SYSTEM:
:FGL001:   1.ATOM                 0.000000000   -25.042943437     0.000000000 partial forces
 Flat Integration
 New Mode for Coulomb Integral
 Consistent 3/8+Simpson combinations
 Extension of core to zero
 LDM version in phi
 Fifth-order quadrature in outwin


            ---------
:ITE016: 16. ITERATION
            ---------

:NATO :    1 INDEPENDENT AND    2 TOTAL ATOMS IN UNITCELL
       SUBSTANCE: aU                                                          

       LATTICE                      = CXY 
:POT  : POTENTIAL OPTION EX_LDA EC_LDA VX_LDA VC_LDA
:LAT  : LATTICE CONSTANTS=  6.26593 12.71516 10.97726    1.571    1.571    1.571
:VOL  : UNIT CELL VOLUME =     437.29197
       MODE OF CALCULATION IS       = RELA
       NON-SPINPOLARIZED CALCULATION
:IFFT  : FFT-parameters:   48  100   90 Factor: 2.00


   CONVERGENCE PARAMETER FOR PSEUDOCHARGE: NCON=  9
   MAXIMAL VALUE OF RMT(JATOM)*ABSK(NKK) : RK  =27.59083


:VKCOUL :  VK-COUL convergence: 0.195E-06
       ATOMNUMBER=  1 Pr1        VCOUL-ZERO =  0.15054E+00
:EFG001:                        EFG         =    -8.55626   *10**21  V / m**2
                               V20  TOT/SRF=    -7.40994    -0.03224
                               V22  TOT/SRF=    -0.45358    -0.00115
                               V22M TOT/SRF=     0.00000     0.00000
                               V21  TOT/SRF=     0.00000     0.00000
                               V21M TOT/SRF=     0.00000     0.00000

              3.82455    0.00000    0.00000        3.82455    0.00000    0.00000
              0.00000    4.73171    0.00000        0.00000    4.73171    0.00000
              0.00000    0.00000   -8.55626        0.00000    0.00000   -8.55626

         MAIN DIRECTIONS OF THE EFG   1.0000  0.0000  0.0000
                                      0.0000  1.0000  0.0000
                                      0.0000  0.0000  1.0000
:ANG001:  ANGLE WITH OLD X-AXIS =         0.0

:ETA001:                         ASYMM. ETA =     0.10602


     HELLMANN-FEYNMAN-FORCE IN mRy/a.u. = |F|  Fx       Fy             Fz
:FHF001:   1.ATOM   1475.514380912590      0.000000000000      0.000000000000  -1475.514380912590

:FIT001: LUSE= 13 SIGMA OF V-XC FIT FOR ATOM  1  0.5658856E-04
:FIT001: LUSE= 13 SIGMA OF V-XC FIT FOR ATOM  1  0.5658856E-04
:DEN  : DENSITY INTEGRAL  =        -14157.73950971   (Ry)
       ELS_POTENTIAL_AT Z=0 and Z=0.5:   0.76105   0.76105
       ELS_POTENTIAL_AT Y=0 and Y=0.5:   0.06292   0.06292
:VZERO:v0,v0c,v0x   0.16121   0.76105  -0.59983 v5,v5c,v5x   0.16121   0.76105  -0.59983
:VZERY:v0,v0c,v0x  -0.73885   0.06292  -0.80178 v5,v5c,v5x  -0.73885   0.06292  -0.80178
:VZERX:v0,v0c,v0x  -1.14512  -0.38087  -0.76426 v5,v5c,v5x  -1.14512  -0.38087  -0.76426
:LMAX-WF:   10   Non-Spherical LMAX:   4

          ATOMIC SPHERE DEPENDENT PARAMETERS FOR ATOM  Pr1       
:e__0001: OVERALL ENERGY PARAMETER IS    0.4971
          OVERALL BASIS SET ON ATOM IS LAPW
:E0_0001: E( 0)=    0.4971
             APW+lo
:E0_0001: E( 0)=   -1.9585   E(BOTTOM)=   -2.594   E(TOP)=   -1.323  4  5   184
             LOCAL ORBITAL
:E1_0001: E( 1)=    0.8971
             APW+lo
:E1_0001: E( 1)=   -0.4886   E(BOTTOM)=   -1.447   E(TOP)=    0.469  3  4   197
             LOCAL ORBITAL
:E3_0001: E( 3)=    0.6927   E(BOTTOM)=    0.485   E(TOP)=    0.900  0  1   116
             APW+lo
:E2_0001: E( 2)=    0.4971   E(BOTTOM)=    0.294   E(TOP)= -200.000  2 -1    89
             APW+lo

       K=   0.06250   0.00000   0.06250            1
:RKM  : MATRIX SIZE   421LOs:  40  RKM= 8.50  WEIGHT= 4.00  PGR:    
       EIGENVALUES ARE:
:EIG00001:      -1.9358506   -1.9162785   -0.6742830   -0.5791432   -0.5574637
:EIG00006:      -0.5487954   -0.5398079   -0.5398031    0.4696041    0.5954577
:EIG00011:       0.6947445    0.6971765    0.6974222    0.7002292    0.7054197
:EIG00016:       0.7188660    0.7230696    0.7234276    0.7266123    0.7296878
:EIG00021:       0.7345490    0.7379144    0.7382546    0.7454919    0.7731770
:EIG00026:       0.7886747    0.8743577    0.8845881    0.9256482    0.9507867
:EIG00031:       0.9663840    1.0686305    1.1118028    1.1634249    1.4659174
:EIG00036:       1.4879107    1.5519931    1.5667908    1.7283834    1.7840554
:EIG00041:       1.8729182    1.9711965    2.0625107    2.0786814    2.1968558
:EIG00046:       2.2311650    2.2479385    2.3364656    2.3784672    2.4868855
 
:EIG00051:       2.5373379    2.5938812    2.6143044    2.7026275    2.7411566
:EIG00056:       2.8079357    2.8267690    2.8915961    2.9684218    3.0459711
:EIG00061:       3.0956935    3.1318474    3.2651171    3.3071054    3.3387699
:EIG00066:       3.4507064    3.5009706    3.5612474    3.5732645    3.5992672
:EIG00071:       3.6082617    3.6621599    3.6998001    3.7808533    3.7951324
:EIG00076:       3.8419091    3.8562136    3.9081870    3.9357698    3.9694021
:EIG00081:       3.9697292    4.0204560    4.0370828    4.1252724    4.1546850
:EIG00086:       4.1551498    4.2570758    4.2841207    4.3190644    4.3263547
:EIG00091:       4.3623393    4.4139613    4.4195005    4.4538510    4.4670071
:EIG00096:       4.5004158    4.5498785    4.5623337    4.5850134    4.6541438
 
:EIG00101:       4.7408241    4.8601427    4.8823205    4.9618126    4.9763761
:EIG00106:       4.9824913    5.0415046    5.0820157    5.1014527    5.1295692
:EIG00111:       5.2217208    5.2676897    5.3058872    5.3729650    5.4108749
:EIG00116:       5.4640406    5.4836796    5.5066578    5.5593161    5.6030514
:EIG00121:       5.6233418    5.6692793    5.7454421    5.7509656    5.8136415
:EIG00126:       5.9001558    5.9576531    5.9679993    5.9857842    6.0519130
:EIG00131:       6.0736292    6.1332361    6.1455479    6.1462338    6.1975522
:EIG00136:       6.2872319    6.2896422    6.3498013    6.3609279    6.3936567
:EIG00141:       6.4209866    6.4534426    6.4918232    6.4986814    6.5696574
:EIG00146:       6.5810774    6.5961435    6.6499658    6.6672516    6.7109357
 
:EIG00151:       6.7651865    6.7891465    6.8488885    6.9035940    6.9800510
:EIG00156:       7.0598506    7.1513833    7.1600875    7.1850616    7.2734224
:EIG00161:       7.3307718    7.3882019    7.3992595    7.4407276    7.4469144
:EIG00166:       7.4913923    7.5035676    7.5043850    7.5781484    7.6568126
:EIG00171:       7.6602801    7.7017103    7.7398894    7.7564950    7.8245862
:EIG00176:       7.8367469    7.8812714    7.8840409    7.9431066    7.9640947
:EIG00181:       7.9971805    8.0166603    8.0186391    8.0891484    8.0990827
:EIG00186:       8.1128593
       ********************************************************

:KPT   :      NUMBER OF K-POINTS:   288
   0.0   0.0 angle (M,z), angle (M,x) deg
 
        SPIN-ORBIT EIGENVALUES:
     K=   0.06250   0.00000   0.06250            1
      MATRIX SIZE=  372   WEIGHT= 4.00
     EIGENVALUES ARE:
          -1.9358507   -1.9358507   -1.9162787   -1.9162787   -0.7522470
          -0.7522470   -0.6979436   -0.6979436   -0.5643610   -0.5643610
          -0.4874200   -0.4874200   -0.4841532   -0.4841532   -0.4733302
          -0.4733302    0.4696539    0.4696539    0.5953347    0.5953347
           0.6897624    0.6897624    0.6924678    0.6924678    0.6933227
           0.6933227    0.6958618    0.6958618    0.7004564    0.7004564
           0.7070225    0.7070225    0.7201744    0.7201744    0.7285623
           0.7285623    0.7332525    0.7332525    0.7340596    0.7340596

           0.7387445    0.7387446    0.7424671    0.7424671    0.7434621
           0.7434621    0.7501641    0.7501641    0.7743586    0.7743586
           0.7888290    0.7888290    0.8722849    0.8722850    0.8863517
           0.8863518    0.9259195    0.9259195    0.9511527    0.9511527
           0.9665375    0.9665375    1.0685011    1.0685011    1.1120769
           1.1120769    1.1635470    1.1635470    1.4660801    1.4660801
           1.4880002    1.4880002    1.5519500    1.5519500    1.5668623
           1.5668623    1.7280469    1.7280469    1.7835404    1.7835404

           1.8729102    1.8729102    1.9700693    1.9700693    2.0608331
           2.0608331    2.0797802    2.0797802    2.1972080    2.1972080
           2.2310285    2.2310285    2.2465519    2.2465519    2.3360151
           2.3360151    2.3795138    2.3795138    2.4867112    2.4867112
           2.5367415    2.5367415    2.5912957    2.5912957    2.6159664
           2.6159664    2.7026493    2.7026493    2.7424025    2.7424025
           2.8080712    2.8080712    2.8262833    2.8262833    2.8922319
           2.8922319    2.9689524    2.9689524    3.0458173    3.0458173

           3.0956431    3.0956431    3.1361480    3.1361480    3.2649893
           3.2649893    3.3071474    3.3071474    3.3389902    3.3389902
           3.4507414    3.4507414    3.5010473    3.5010473    3.5614478
           3.5614478    3.5727512    3.5727512    3.5994532    3.5994532
           3.6085297    3.6085297    3.6620793    3.6620793    3.6998691
           3.6998691    3.7798139    3.7798139    3.7963412    3.7963412
           3.8420584    3.8420584    3.8580831    3.8580831    3.9082849
           3.9082849    3.9361213    3.9361213    3.9695978    3.9695978

           3.9699114    3.9699114    4.0205013    4.0205013    4.0375266
           4.0375266    4.1252795    4.1252795    4.1542769    4.1542769
           4.1559075    4.1559075    4.2570717    4.2570717    4.2842777
           4.2842777    4.3190748    4.3190748    4.3264438    4.3264438
           4.3623771    4.3623771    4.4139613    4.4139613    4.4195852
           4.4195852    4.4537954    4.4537954    4.4669607    4.4669607

       ********************************************************
:GAP (global)   :    0.0    Ry =     0.0   eV (metal)
:GAP (this spin):    0.0    Ry =     0.0   eV (metal)
         Bandranges (emin - emax) and occupancy:
:BAN00018:  18    0.463991    0.663641  1.00000000
:BAN00019:  19    0.572674    0.676525  1.00000000
:BAN00020:  20    0.572674    0.676525  1.00000000
:BAN00021:  21    0.621998    0.695612  1.00000000
:BAN00022:  22    0.621998    0.695612  1.00000000
:BAN00023:  23    0.669065    0.698393  1.00000000
:BAN00024:  24    0.669065    0.698393  1.00000000
:BAN00025:  25    0.681142    0.706396  0.76597570
:BAN00026:  26    0.681142    0.706396  0.76597545
:BAN00027:  27    0.694604    0.707708  0.23402452
:BAN00028:  28    0.694604    0.707708  0.23402432
:BAN00029:  29    0.699597    0.710219  0.00000000
:BAN00030:  30    0.699597    0.710219  0.00000000
:BAN00031:  31    0.703878    0.716890  0.00000000
:BAN00032:  32    0.703878    0.716890  0.00000000
:BAN00033:  33    0.709694    0.723886  0.00000000
        Energy to separate low and high energystates:    0.41399


:NOE  : NUMBER OF ELECTRONS          =   26.000

:FER  : F E R M I - ENERGY(TETRAH.M.)=   0.6983983779
:GMA  : POTENTIAL AND CHARGE CUT-OFF  12.00 Ry**.5

:POS001: ATOM   -1 X,Y,Z = 0.00000 0.89750 0.25000  MULT= 2  ZZ= 59.000  Pr1       

       LMMAX 16
       LM=   0 0  1 0  2 0  2 2  3 0  3 2  4 0  4 2  4 4  5 0  5 2  5 4  6 0  6 2  6 4  6 6

:CHA001: TOTAL VALENCE CHARGE INSIDE SPHERE   1 =   9.5464    (RMT=  2.3000 )
:PCS001: PARTIAL CHARGES SPHERE =  1 S,P,D,F,PX,PY,PZ,D-Z2,D-X2Y2,D-XY,D-XZ,D-YZ 
:QTL001: 1.9417 5.0055 0.5629 2.0360 1.6656 1.6651 1.6747 0.1056 0.1014 0.1213 0.1111 0.1235
        Q-s-low E-s-low   Q-p-low E-p-low   Q-d-low E-d-low   Q-f-low E-f-low
:EPL001:  1.8690 -1.9161    4.9355 -0.6017    0.0028 -0.6003    0.0008 -0.6129
        Q-s-hi  E-s-hi    Q-p-hi  E-p-hi    Q-d-hi  E-d-hi    Q-f-hi  E-f-hi 
:EPH001:  0.0727  0.6010    0.0700  0.6382    0.5601  0.6440    2.0352  0.6831

                      VXX         VYY         VZZ       UP TO R
:VZZ001:             3.97831     4.43343    -8.41175       2.300

:CHA  : TOTAL VALENCE CHARGE INSIDE UNIT CELL =      26.000000

:SUM  : SUM OF EIGENVALUES =          -8.322990121


        1.ATOM      Pr1                  14 CORE STATES
       CORE-FORCE in mRy/a.u. = |F|      Fx             Fy             Fz
:FCO001:   1.ATOM   1450.358661326271      0.000000000000      0.000000000000   1450.358661326271

:1S 001: 1S               -3066.895412614 Ry
:2S 001: 2S                -492.648531839 Ry
:2PP001: 2P*               -465.747544688 Ry
:2P 001: 2P                -430.350097052 Ry
:3S 001: 3S                -105.739939557 Ry
:3PP001: 3P*                -94.277735501 Ry
:3P 001: 3P                 -87.269914950 Ry
:3DD001: 3D*                -67.196774655 Ry
:3D 001: 3D                 -65.685227190 Ry
:4S 001: 4S                 -20.415225121 Ry
:4PP001: 4P*                -16.121835528 Ry
:4P 001: 4P                 -14.594180794 Ry
:4DD001: 4D*                 -7.526610188 Ry
:4D 001: 4D                  -7.257116567 Ry
:CINT001 Core Integral Atom   1   45.998493

       DENSITY AT NUCLEUS
        JATOM        VALENCE       SEMI-CORE          CORE           TOTAL
:RTO001:   1      648.707496        0.000000   656824.942753   657473.650249
     
       CHARGES OF NEW CHARGE DENSITY
:NTO   : INTERSTITIAL CHARGE =     6.907174
:NPC   : PW Pseudocharge     =    17.005034
:NTO001: CHARGE SPHERE  1    =    55.544906

:NEC01: NUCLEAR AND ELECTRONIC CHARGE    118.00000   117.99699
     
       CHARGES OF OLD CHARGE DENSITY
:OTO   : INTERSTITIAL CHARGE =     6.902599
:OPC   : PW Pseudocharge     =    16.986701
:OTO001: CHARGE SPHERE  1    =    55.548700

:NEC02: NUCLEAR AND ELECTRONIC CHARGE    118.00000   118.00000
     
       CONVERGENCE TEST
:DTO001: DIFFERENCE IN SPHERE  1 =  0.0086810

:DIS  :  CHARGE DISTANCE       ( 0.0086810 for atom    1 spin 1)      0.0086810
 PW Mixed is          455
 
******************************************************
* MULTISECANT MIXING VER9 RELEASE 10.4.0              *
* Standard Mode with controls                        *
* Fixed density scale                                *
* Regularization       1.000E-04                     *
* Trust Upper Limit    5.000E+00                     *
* Max Number of Memory Steps    8                    *
******************************************************
 
:PWTMP   3.3536E+02  1.9467E+02  4.3729E+02
:PLANE:  PW TOTAL      4.8773 DISTAN   8.31E-03  1.70E-01 %
:CHARG:  CLM/ATOM   1381.9527 DISTAN   6.48E-02  4.69E-03 %
 
Step History
        DMIX         DMIXT        Red     Pred      Trust     Lambda    MagRel    MagAbs     Beta
  1   3.5000E-02   3.5000E-02 -1.00E+00  1.00E+00 -1.00E+01  1.00E+00  3.50E-02  3.50E-02  1.00E+00
  2   2.5000E-02   2.5000E-02  6.75E-01  1.00E+00 -1.00E+01  1.00E+00  2.50E-02  5.49E-03  1.00E+00
  3   2.8284E-02   2.8284E-02  4.66E-01  1.00E+00 -1.00E+01  1.87E+00  2.83E-02  4.20E-03  1.00E+00
  4   4.0390E-02   4.0390E-02 -1.00E+00  9.99E-01  3.33E-01  1.00E+00  4.15E-02  2.87E-03  8.50E-01
:JACOBIANS    6.230E-03   2.468E-01
  
:NORMS:  1/Froebius, Min, Max, Used   0.3135E+00  0.1543E+00  0.3773E+00  0.3709E+00
:INFO :  Number of Memory Steps    3 Skipping    0
:INFO :  SLambda=    1.2873211761  Max    1.2873211761
:PREDicted Charge, CTotal, PW Trust    1.715E-03   3.429E-03   4.007E-03
:PREDicted DMix, Beta, BLim   3.7350E-01  6.2669E+00  4.3284E-01

Eigenvalues, unscaled except for SY+YY
   #     SY Real        SY Imag          SS             YY         SY+YY Real      SY+YY Imag
   1  -5.551115E-16   0.000000E+00   2.802367E-01   2.037515E+00   5.236349E-06   0.000000E+00
   2   1.359579E-01   0.000000E+00   1.461134E-02   9.624794E-01   2.288100E+00   0.000000E+00
   3   3.924338E-01   0.000000E+00   8.289655E-18   5.155937E-06   1.392104E+00   0.000000E+00
 
:INFO :  Singular value  2.288E+00 Weight  1.000E+00 Projection -1.644E-02
:INFO :  Singular value  1.392E+00 Weight  1.000E+00 Projection -5.743E-02
:INFO :  Singular value  5.236E-06 Weight  6.600E-04 Projection -1.488E-03
:RANK :  ACTIVE   2.00/3  =  66.69 % ; YY RANK   2.00/3  =  66.69 %
 
:BLIM :  VZERO Control Off
:TRUST:  Step 4.17E-01  Charge 7.50E-02 (e) CTO  2.50E-01 (e) PW  3.50E-01 (e)
:DTRUS:  Lambda    8.903E-02 Increment    7.276E-12 Iterations    97 DMIX    9.657E-02
:INFOA:  Angle SubSpace to MSR1      1.47
:DIRM :  MEMORY  3/8  SCALE   1.000 RED  0.95 PRED  1.00 NEXT  0.74 
:INFO :  Limited by Atoms F by Step T

:TRAVE:  Charge 7.32E-04 (e) CTO  1.46E-03 (e) PW  2.06E-03 (e)
:DIRP :  |MSR1|= 2.346E-03 |PRATT|= 8.312E-03 ANGLE=  15.3 DEGREES
:DIRQ :  |MSR1|= 2.710E-02 |PRATT|= 6.476E-02 ANGLE=   6.0 DEGREES
:DIRT :  |MSR1|= 2.720E-02 |PRATT|= 6.529E-02 ANGLE=   6.6 DEGREES
:MIX  :   MSE1   REGULARIZATION:  2.04E-04 GREED: 0.10098  LMStep 0.81  0.4167 Step           
     
       CHARGES OF MIXED CHARGE DENSITY
:CTO   : INTERSTITIAL CHARGE =     6.905269
:CPC   : PW Pseudocharge     =    16.992668
:CTO001: CHARGE SPHERE  1    =    55.547365

:NEC03: NUCLEAR AND ELECTRONIC CHARGE    118.00000   118.00000

PW CHANGE     H    K    L      Current       Change    Residue
:PTO001:      0    0    0  5.46498411E-02  1.975E-05  7.625E-05
:PTO003:      0    2    0  1.47627524E-02  5.038E-06  1.878E-05
:PTO004:     -1    1    0  7.21453211E-02  1.801E-05  8.401E-05
:PTO005:      0    2   -1 -8.36856757E-02 -4.191E-05 -1.566E-04
:PTO006:      0    0   -2 -4.33362945E-02 -1.371E-05 -6.356E-05
:PTO007:     -1    1   -1 -9.01539797E-02 -2.090E-05 -1.056E-04
:PTO008:      0    2   -2 -1.44868258E-02  2.491E-06 -4.317E-06
:PTO009:     -1    1   -2 -7.43112169E-02 -2.268E-05 -9.857E-05
:PTO011:     -1    3    0 -1.19627881E-02  7.479E-06  1.020E-05
:PTO012:     -1    3   -1 -5.32838436E-02 -9.987E-06 -4.443E-05
:PTO013:      0    4    0 -9.64892375E-03  1.178E-06 -8.507E-07
:PTO014:      0    2   -3  2.22153123E-02  1.220E-07  9.856E-06

:ENE  : ********** TOTAL ENERGY IN Ry =       -36944.25614542

       TOTAL FORCE IN mRy/a.u. = |F|     Fx             Fy             Fz     with/without FOR in case.in2
:FOR001:   1.ATOM         25.156          0.000          0.000        -25.156 partial forces
       TOTAL FORCE WITH RESPECT TO GLOBAL CARTESIAN COORDINATES:
:FCA001:   1.ATOM                         0.000        -25.156          0.000 partial forces
       TOTAL FORCE WITH RESPECT TO THE GLOBAL COORDINATE SYSTEM:
:FGL001:   1.ATOM                 0.000000000   -25.155719586     0.000000000 partial forces
 Flat Integration
 New Mode for Coulomb Integral
 Consistent 3/8+Simpson combinations
 Extension of core to zero
 LDM version in phi
 Fifth-order quadrature in outwin


            ---------
:ITE017: 17. ITERATION
            ---------

:NATO :    1 INDEPENDENT AND    2 TOTAL ATOMS IN UNITCELL
       SUBSTANCE: aU                                                          

       LATTICE                      = CXY 
:POT  : POTENTIAL OPTION EX_LDA EC_LDA VX_LDA VC_LDA
:LAT  : LATTICE CONSTANTS=  6.26593 12.71516 10.97726    1.571    1.571    1.571
:VOL  : UNIT CELL VOLUME =     437.29197
       MODE OF CALCULATION IS       = RELA
       NON-SPINPOLARIZED CALCULATION
:IFFT  : FFT-parameters:   48  100   90 Factor: 2.00


   CONVERGENCE PARAMETER FOR PSEUDOCHARGE: NCON=  9
   MAXIMAL VALUE OF RMT(JATOM)*ABSK(NKK) : RK  =27.59083


:VKCOUL :  VK-COUL convergence: 0.190E-06
       ATOMNUMBER=  1 Pr1        VCOUL-ZERO =  0.15060E+00
:EFG001:                        EFG         =    -8.52174   *10**21  V / m**2
                               V20  TOT/SRF=    -7.38004    -0.03195
                               V22  TOT/SRF=    -0.42288    -0.00086
                               V22M TOT/SRF=     0.00000     0.00000
                               V21  TOT/SRF=     0.00000     0.00000
                               V21M TOT/SRF=     0.00000     0.00000

              3.83799    0.00000    0.00000        3.83799    0.00000    0.00000
              0.00000    4.68376    0.00000        0.00000    4.68376    0.00000
              0.00000    0.00000   -8.52174        0.00000    0.00000   -8.52174

         MAIN DIRECTIONS OF THE EFG   1.0000  0.0000  0.0000
                                      0.0000  1.0000  0.0000
                                      0.0000  0.0000  1.0000
:ANG001:  ANGLE WITH OLD X-AXIS =         0.0

:ETA001:                         ASYMM. ETA =     0.09925


     HELLMANN-FEYNMAN-FORCE IN mRy/a.u. = |F|  Fx       Fy             Fz
:FHF001:   1.ATOM   1469.303820490200      0.000000000000      0.000000000000  -1469.303820490200

:FIT001: LUSE= 13 SIGMA OF V-XC FIT FOR ATOM  1  0.5349377E-04
:FIT001: LUSE= 13 SIGMA OF V-XC FIT FOR ATOM  1  0.5349377E-04
:DEN  : DENSITY INTEGRAL  =        -14157.69931272   (Ry)
       ELS_POTENTIAL_AT Z=0 and Z=0.5:   0.76135   0.76135
       ELS_POTENTIAL_AT Y=0 and Y=0.5:   0.06300   0.06300
:VZERO:v0,v0c,v0x   0.16141   0.76135  -0.59994 v5,v5c,v5x   0.16141   0.76135  -0.59994
:VZERY:v0,v0c,v0x  -0.73892   0.06300  -0.80192 v5,v5c,v5x  -0.73892   0.06300  -0.80192
:VZERX:v0,v0c,v0x  -1.14538  -0.38102  -0.76436 v5,v5c,v5x  -1.14538  -0.38102  -0.76436
:LMAX-WF:   10   Non-Spherical LMAX:   4

          ATOMIC SPHERE DEPENDENT PARAMETERS FOR ATOM  Pr1       
:e__0001: OVERALL ENERGY PARAMETER IS    0.4980
          OVERALL BASIS SET ON ATOM IS LAPW
:E0_0001: E( 0)=    0.4980
             APW+lo
:E0_0001: E( 0)=   -1.9585   E(BOTTOM)=   -2.594   E(TOP)=   -1.323  4  5   187
             LOCAL ORBITAL
:E1_0001: E( 1)=    0.8980
             APW+lo
:E1_0001: E( 1)=   -0.4886   E(BOTTOM)=   -1.447   E(TOP)=    0.469  3  4   194
             LOCAL ORBITAL
:E3_0001: E( 3)=    0.6927   E(BOTTOM)=    0.485   E(TOP)=    0.900  0  1   119
             APW+lo
:E2_0001: E( 2)=    0.4980   E(BOTTOM)=    0.294   E(TOP)= -200.000  2 -1    87
             APW+lo

       K=   0.06250   0.00000   0.06250            1
:RKM  : MATRIX SIZE   421LOs:  40  RKM= 8.50  WEIGHT= 4.00  PGR:    
       EIGENVALUES ARE:
:EIG00001:      -1.9358532   -1.9162818   -0.6743159   -0.5791332   -0.5574541
:EIG00006:      -0.5487496   -0.5398537   -0.5397615    0.4697763    0.5955633
:EIG00011:       0.6948543    0.6971755    0.6975482    0.7003467    0.7054651
:EIG00016:       0.7190066    0.7231935    0.7235486    0.7267239    0.7297430
:EIG00021:       0.7346711    0.7380722    0.7383931    0.7455080    0.7732713
:EIG00026:       0.7888047    0.8744410    0.8846522    0.9257379    0.9508840
:EIG00031:       0.9664734    1.0687364    1.1118862    1.1634548    1.4661144
:EIG00036:       1.4880093    1.5521453    1.5669505    1.7286152    1.7842475
:EIG00041:       1.8730486    1.9713545    2.0626780    2.0788278    2.1969690
:EIG00046:       2.2313153    2.2481086    2.3366130    2.3786260    2.4870351
 
:EIG00051:       2.5374467    2.5939608    2.6144171    2.7027382    2.7412535
:EIG00056:       2.8080526    2.8268824    2.8916626    2.9685586    3.0460734
:EIG00061:       3.0958293    3.1319331    3.2652313    3.3072402    3.3388902
:EIG00066:       3.4508234    3.5010895    3.5613868    3.5734019    3.5994184
:EIG00071:       3.6084081    3.6622828    3.6999416    3.7809856    3.7952948
:EIG00076:       3.8420435    3.8563925    3.9083137    3.9359168    3.9695286
:EIG00081:       3.9698694    4.0206067    4.0372177    4.1254043    4.1548420
:EIG00086:       4.1552613    4.2572691    4.2842836    4.3192135    4.3264810
:EIG00091:       4.3624891    4.4140802    4.4196507    4.4539596    4.4671451
:EIG00096:       4.5005741    4.5500060    4.5624679    4.5851464    4.6542877
 
:EIG00101:       4.7409379    4.8602787    4.8824312    4.9619402    4.9765300
:EIG00106:       4.9826497    5.0416556    5.0821544    5.1015741    5.1297155
:EIG00111:       5.2218763    5.2678559    5.3059899    5.3730851    5.4110121
:EIG00116:       5.4641455    5.4838216    5.5067837    5.5594199    5.6031507
:EIG00121:       5.6234344    5.6694233    5.7455634    5.7511102    5.8137511
:EIG00126:       5.9003015    5.9577860    5.9680964    5.9858904    6.0520464
:EIG00131:       6.0737538    6.1333643    6.1456470    6.1463634    6.1976699
:EIG00136:       6.2873603    6.2897933    6.3499442    6.3610611    6.3937893
:EIG00141:       6.4210929    6.4535319    6.4919465    6.4988138    6.5698008
:EIG00146:       6.5812286    6.5962534    6.6500781    6.6672812    6.7110690
 
:EIG00151:       6.7653408    6.7892670    6.8490325    6.9037227    6.9801839
:EIG00156:       7.0599735    7.1515131    7.1602175    7.1851738    7.2735551
:EIG00161:       7.3308943    7.3883077    7.3993858    7.4408491    7.4470083
:EIG00166:       7.4915131    7.5036735    7.5045039    7.5782622    7.6569190
:EIG00171:       7.6603808    7.7018123    7.7399725    7.7565778    7.8246638
:EIG00176:       7.8368264    7.8813572    7.8841324    7.9432063    7.9642154
:EIG00181:       7.9973142    8.0167530    8.0187829    8.0892297    8.0992109
:EIG00186:       8.1129834
       ********************************************************

:KPT   :      NUMBER OF K-POINTS:   288
   0.0   0.0 angle (M,z), angle (M,x) deg
 
        SPIN-ORBIT EIGENVALUES:
     K=   0.06250   0.00000   0.06250            1
      MATRIX SIZE=  372   WEIGHT= 4.00
     EIGENVALUES ARE:
          -1.9358534   -1.9358534   -1.9162820   -1.9162820   -0.7522608
          -0.7522608   -0.6979436   -0.6979436   -0.5643584   -0.5643584
          -0.4873887   -0.4873887   -0.4841291   -0.4841291   -0.4733456
          -0.4733456    0.4698260    0.4698260    0.5954402    0.5954402
           0.6898657    0.6898657    0.6925114    0.6925114    0.6934366
           0.6934366    0.6959567    0.6959567    0.7005262    0.7005262
           0.7071425    0.7071425    0.7202678    0.7202679    0.7286970
           0.7286970    0.7333650    0.7333650    0.7341432    0.7341433

           0.7388552    0.7388552    0.7426061    0.7426061    0.7435921
           0.7435921    0.7501982    0.7501982    0.7744544    0.7744544
           0.7889590    0.7889590    0.8723608    0.8723608    0.8864225
           0.8864225    0.9260088    0.9260088    0.9512498    0.9512498
           0.9666271    0.9666271    1.0686067    1.0686067    1.1121605
           1.1121605    1.1635771    1.1635771    1.4662765    1.4662765
           1.4880993    1.4880993    1.5521025    1.5521025    1.5670218
           1.5670218    1.7282784    1.7282784    1.7837324    1.7837324

           1.8730409    1.8730409    1.9702270    1.9702270    2.0609975
           2.0609975    2.0799292    2.0799292    2.1973214    2.1973214
           2.2311788    2.2311788    2.2467213    2.2467213    2.3361630
           2.3361630    2.3796718    2.3796718    2.4868598    2.4868598
           2.5368512    2.5368512    2.5913807    2.5913807    2.6160749
           2.6160749    2.7027600    2.7027600    2.7424997    2.7424997
           2.8081882    2.8081882    2.8263960    2.8263960    2.8922989
           2.8922989    2.9690890    2.9690890    3.0459191    3.0459191

           3.0957786    3.0957786    3.1362346    3.1362346    3.2651035
           3.2651035    3.3072823    3.3072823    3.3391106    3.3391106
           3.4508585    3.4508585    3.5011662    3.5011662    3.5615873
           3.5615873    3.5728889    3.5728889    3.5996041    3.5996041
           3.6086760    3.6086760    3.6622023    3.6622023    3.7000105
           3.7000105    3.7799483    3.7799483    3.7965010    3.7965010
           3.8421930    3.8421930    3.8582617    3.8582617    3.9084117
           3.9084117    3.9362681    3.9362681    3.9697289    3.9697289

           3.9700473    3.9700473    4.0206519    4.0206519    4.0376615
           4.0376615    4.1254114    4.1254114    4.1544192    4.1544192
           4.1560339    4.1560339    4.2572650    4.2572650    4.2844406
           4.2844406    4.3192238    4.3192238    4.3265701    4.3265701
           4.3625268    4.3625268    4.4140805    4.4140805    4.4197351
           4.4197351    4.4539044    4.4539044    4.4670983    4.4670983

       ********************************************************
:GAP (global)   :    0.0    Ry =     0.0   eV (metal)
:GAP (this spin):    0.0    Ry =     0.0   eV (metal)
         Bandranges (emin - emax) and occupancy:
:BAN00018:  18    0.464165    0.663787  1.00000000
:BAN00019:  19    0.572813    0.676627  1.00000000
:BAN00020:  20    0.572813    0.676627  1.00000000
:BAN00021:  21    0.622122    0.695653  1.00000000
:BAN00022:  22    0.622122    0.695653  1.00000000
:BAN00023:  23    0.669158    0.698504  0.99998140
:BAN00024:  24    0.669158    0.698504  0.99998139
:BAN00025:  25    0.681277    0.706443  0.76619694
:BAN00026:  26    0.681277    0.706443  0.76619672
:BAN00027:  27    0.694653    0.707794  0.23382187
:BAN00028:  28    0.694653    0.707794  0.23382167
:BAN00029:  29    0.699669    0.710312  0.00000000
:BAN00030:  30    0.699669    0.710312  0.00000000
:BAN00031:  31    0.703974    0.717035  0.00000000
:BAN00032:  32    0.703974    0.717035  0.00000000
:BAN00033:  33    0.709803    0.723978  0.00000000
        Energy to separate low and high energystates:    0.41417


:NOE  : NUMBER OF ELECTRONS          =   26.000

:FER  : F E R M I - ENERGY(TETRAH.M.)=   0.6984855712
:GMA  : POTENTIAL AND CHARGE CUT-OFF  12.00 Ry**.5

[...]
:PTO013:      0    4    0 -9.65014299E-03 -3.232E-07 -2.822E-07
:PTO014:      0    2   -3  2.22248541E-02  7.911E-07  9.086E-07

:ENE  : ********** TOTAL ENERGY IN Ry =       -36944.25614406

       TOTAL FORCE IN mRy/a.u. = |F|     Fx             Fy             Fz     with/without FOR in case.in2
:FOR001:   1.ATOM         26.277          0.000          0.000        -26.277 partial forces
       TOTAL FORCE WITH RESPECT TO GLOBAL CARTESIAN COORDINATES:
:FCA001:   1.ATOM                         0.000        -26.277          0.000 partial forces
       TOTAL FORCE WITH RESPECT TO THE GLOBAL COORDINATE SYSTEM:
:FGL001:   1.ATOM                 0.000000000   -26.276557342     0.000000000 partial forces
 Flat Integration
 New Mode for Coulomb Integral
 Consistent 3/8+Simpson combinations
 Extension of core to zero
 LDM version in phi
 Fifth-order quadrature in outwin


            ---------
:ITE022: 22. ITERATION
            ---------

:NATO :    1 INDEPENDENT AND    2 TOTAL ATOMS IN UNITCELL
       SUBSTANCE: aU                                                          

       LATTICE                      = CXY 
:POT  : POTENTIAL OPTION EX_LDA EC_LDA VX_LDA VC_LDA
:LAT  : LATTICE CONSTANTS=  6.26593 12.71516 10.97726    1.571    1.571    1.571
:VOL  : UNIT CELL VOLUME =     437.29197
       MODE OF CALCULATION IS       = RELA
       NON-SPINPOLARIZED CALCULATION
:IFFT  : FFT-parameters:   48  100   90 Factor: 2.00


   CONVERGENCE PARAMETER FOR PSEUDOCHARGE: NCON=  9
   MAXIMAL VALUE OF RMT(JATOM)*ABSK(NKK) : RK  =27.59083


:VKCOUL :  VK-COUL convergence: 0.184E-06
       ATOMNUMBER=  1 Pr1        VCOUL-ZERO =  0.15094E+00
:EFG001:                        EFG         =    -8.43084   *10**21  V / m**2
                               V20  TOT/SRF=    -7.30132    -0.03163
                               V22  TOT/SRF=    -0.40950    -0.00078
                               V22M TOT/SRF=     0.00000     0.00000
                               V21  TOT/SRF=     0.00000     0.00000
                               V21M TOT/SRF=     0.00000     0.00000

              3.80592    0.00000    0.00000        3.80592    0.00000    0.00000
              0.00000    4.62492    0.00000        0.00000    4.62492    0.00000
              0.00000    0.00000   -8.43084        0.00000    0.00000   -8.43084

         MAIN DIRECTIONS OF THE EFG   1.0000  0.0000  0.0000
                                      0.0000  1.0000  0.0000
                                      0.0000  0.0000  1.0000
:ANG001:  ANGLE WITH OLD X-AXIS =         0.0

:ETA001:                         ASYMM. ETA =     0.09714


     HELLMANN-FEYNMAN-FORCE IN mRy/a.u. = |F|  Fx       Fy             Fz
:FHF001:   1.ATOM   1463.250612089141      0.000000000000      0.000000000000  -1463.250612089141

:FIT001: LUSE= 13 SIGMA OF V-XC FIT FOR ATOM  1  0.4957184E-04
:FIT001: LUSE= 13 SIGMA OF V-XC FIT FOR ATOM  1  0.4957184E-04
:DEN  : DENSITY INTEGRAL  =        -14157.70101602   (Ry)
       ELS_POTENTIAL_AT Z=0 and Z=0.5:   0.76194   0.76194
       ELS_POTENTIAL_AT Y=0 and Y=0.5:   0.06328   0.06328
:VZERO:v0,v0c,v0x   0.16188   0.76194  -0.60006 v5,v5c,v5x   0.16188   0.76194  -0.60006
:VZERY:v0,v0c,v0x  -0.73892   0.06328  -0.80220 v5,v5c,v5x  -0.73892   0.06328  -0.80220
:VZERX:v0,v0c,v0x  -1.14595  -0.38141  -0.76454 v5,v5c,v5x  -1.14595  -0.38141  -0.76454
:LMAX-WF:   10   Non-Spherical LMAX:   4

          ATOMIC SPHERE DEPENDENT PARAMETERS FOR ATOM  Pr1       
:e__0001: OVERALL ENERGY PARAMETER IS    0.4988
          OVERALL BASIS SET ON ATOM IS LAPW
:E0_0001: E( 0)=    0.4988
             APW+lo
:E0_0001: E( 0)=   -1.9582   E(BOTTOM)=   -2.594   E(TOP)=   -1.322  4  5   184
             LOCAL ORBITAL
:E1_0001: E( 1)=    0.8988
             APW+lo
:E1_0001: E( 1)=   -0.4883   E(BOTTOM)=   -1.446   E(TOP)=    0.470  3  4   197
             LOCAL ORBITAL
:E3_0001: E( 3)=    0.6931   E(BOTTOM)=    0.486   E(TOP)=    0.901  0  1   121
             APW+lo
:E2_0001: E( 2)=    0.4988   E(BOTTOM)=    0.294   E(TOP)= -200.000  2 -1    89
             APW+lo

       K=   0.06250   0.00000   0.06250            1
:RKM  : MATRIX SIZE   421LOs:  40  RKM= 8.50  WEIGHT= 4.00  PGR:    
       EIGENVALUES ARE:
:EIG00001:      -1.9355827   -1.9160138   -0.6740153   -0.5788590   -0.5571808
:EIG00006:      -0.5484895   -0.5395703   -0.5395034    0.4702063    0.5959423
:EIG00011:       0.6952004    0.6975318    0.6979177    0.7007214    0.7058503
:EIG00016:       0.7193982    0.7235782    0.7239380    0.7271133    0.7300972
:EIG00021:       0.7350567    0.7384365    0.7387638    0.7458963    0.7736174
:EIG00026:       0.7891632    0.8748093    0.8849879    0.9261044    0.9512340
:EIG00031:       0.9668057    1.0691116    1.1122359    1.1637767    1.4665561
:EIG00036:       1.4883819    1.5525647    1.5673658    1.7290932    1.7847169
:EIG00041:       1.8734477    1.9717760    2.0630900    2.0792419    2.1973630
:EIG00046:       2.2317189    2.2485494    2.3370138    2.3790568    2.4874388
 
:EIG00051:       2.5378075    2.5943292    2.6147835    2.7031274    2.7415960
:EIG00056:       2.8084216    2.8272551    2.8919942    2.9689418    3.0464379
:EIG00061:       3.0962289    3.1322957    3.2655996    3.3076525    3.3392736
:EIG00066:       3.4512026    3.5014919    3.5617708    3.5737877    3.5998360
:EIG00071:       3.6088063    3.6626581    3.7003314    3.7813810    3.7957095
:EIG00076:       3.8424292    3.8568320    3.9087013    3.9363261    3.9699022
:EIG00081:       3.9702755    4.0210018    4.0376138    4.1257993    4.1552535
:EIG00086:       4.1556383    4.2577238    4.2846960    4.3196328    4.3268620
:EIG00091:       4.3629059    4.4144715    4.4200623    4.4543348    4.4675429
:EIG00096:       4.5009992    4.5504053    4.5628695    4.5855405    4.6546922
 
:EIG00101:       4.7413312    4.8606791    4.8828204    4.9623362    4.9769446
:EIG00106:       4.9830670    5.0420659    5.0825531    5.1019636    5.1301227
:EIG00111:       5.2223010    5.2682786    5.3063677    5.3734640    5.4114054
:EIG00116:       5.4645196    5.4842289    5.5071755    5.5597868    5.6035143
:EIG00121:       5.6238063    5.6698437    5.7459573    5.7515239    5.8141294
:EIG00126:       5.9007126    5.9581876    5.9684740    5.9862745    6.0524450
:EIG00131:       6.0741447    6.1337624    6.1460242    6.1467637    6.1980437
:EIG00136:       6.2877551    6.2902089    6.3503551    6.3614494    6.3941861
:EIG00141:       6.4214684    6.4538855    6.4923385    6.4992045    6.5702046
:EIG00146:       6.5816441    6.5966342    6.6504722    6.6675857    6.7114648
 
:EIG00151:       6.7657517    6.7896550    6.8494417    6.9041266    6.9805879
:EIG00156:       7.0603609    7.1519047    7.1606179    7.1855642    7.2739422
:EIG00161:       7.3312776    7.3886734    7.3997814    7.4412460    7.4473647
:EIG00166:       7.4919035    7.5040447    7.5048900    7.5786503    7.6572888
:EIG00171:       7.6607537    7.7021773    7.7403355    7.7569219    7.8250216
:EIG00176:       7.8371737    7.8817196    7.8844887    7.9435804    7.9646013
:EIG00181:       7.9977211    8.0171188    8.0191964    8.0895921    8.0996114
:EIG00186:       8.1133772
       ********************************************************

:KPT   :      NUMBER OF K-POINTS:   288
   0.0   0.0 angle (M,z), angle (M,x) deg
 
        SPIN-ORBIT EIGENVALUES:
     K=   0.06250   0.00000   0.06250            1
      MATRIX SIZE=  372   WEIGHT= 4.00
     EIGENVALUES ARE:
          -1.9355829   -1.9355829   -1.9160139   -1.9160139   -0.7519769
          -0.7519769   -0.6976738   -0.6976738   -0.5640742   -0.5640742
          -0.4871228   -0.4871228   -0.4838599   -0.4838599   -0.4730685
          -0.4730685    0.4702560    0.4702560    0.5958192    0.5958192
           0.6902229    0.6902229    0.6928704    0.6928704    0.6937976
           0.6937976    0.6963346    0.6963346    0.7009100    0.7009100
           0.7075328    0.7075328    0.7206429    0.7206429    0.7290784
           0.7290784    0.7337486    0.7337486    0.7345141    0.7345141

           0.7392346    0.7392346    0.7429737    0.7429737    0.7439670
           0.7439670    0.7505847    0.7505847    0.7748017    0.7748017
           0.7893175    0.7893175    0.8727209    0.8727209    0.8867664
           0.8867665    0.9263752    0.9263752    0.9515994    0.9515994
           0.9669598    0.9669598    1.0689817    1.0689817    1.1125103
           1.1125103    1.1638991    1.1638991    1.4667177    1.4667177
           1.4884723    1.4884723    1.5525222    1.5525222    1.5674370
           1.5674370    1.7287564    1.7287564    1.7842016    1.7842016

           1.8734402    1.8734402    1.9706482    1.9706482    2.0614093
           2.0614093    2.0803432    2.0803432    2.1977157    2.1977157
           2.2315826    2.2315826    2.2471606    2.2471606    2.3365656
           2.3365656    2.3801013    2.3801013    2.4872629    2.4872629
           2.5372130    2.5372130    2.5917493    2.5917493    2.6164416
           2.6164416    2.7031489    2.7031489    2.7428428    2.7428428
           2.8085574    2.8085574    2.8267683    2.8267683    2.8926309
           2.8926309    2.9694722    2.9694722    3.0462833    3.0462833

           3.0961778    3.0961778    3.1365974    3.1365974    3.2654718
           3.2654718    3.3076946    3.3076946    3.3394939    3.3394939
           3.4512377    3.4512377    3.5015685    3.5015685    3.5619715
           3.5619715    3.5732753    3.5732753    3.6000213    3.6000213
           3.6090740    3.6090740    3.6625776    3.6625776    3.7004004
           3.7004004    3.7803453    3.7803453    3.7969140    3.7969140
           3.8425791    3.8425791    3.8587005    3.8587005    3.9087994
           3.9087994    3.9366772    3.9366772    3.9701124    3.9701124

           3.9704438    3.9704438    4.0210470    4.0210470    4.0380575
           4.0380575    4.1258064    4.1258064    4.1548194    4.1548194
           4.1564223    4.1564223    4.2577196    4.2577196    4.2848529
           4.2848529    4.3196430    4.3196430    4.3269513    4.3269513
           4.3629436    4.3629436    4.4144720    4.4144720    4.4201464
           4.4201464    4.4542800    4.4542800    4.4674958    4.4674958

       ********************************************************
:GAP (global)   :    0.0    Ry =     0.0   eV (metal)
:GAP (this spin):    0.0    Ry =     0.0   eV (metal)
         Bandranges (emin - emax) and occupancy:
:BAN00018:  18    0.464597    0.664190  1.00000000
:BAN00019:  19    0.573218    0.677012  1.00000000
:BAN00020:  20    0.573218    0.677012  1.00000000
:BAN00021:  21    0.622502    0.696032  1.00000000
:BAN00022:  22    0.622502    0.696032  1.00000000
:BAN00023:  23    0.669534    0.698885  0.99997297
:BAN00024:  24    0.669534    0.698885  0.99997297
:BAN00025:  25    0.681641    0.706809  0.76596893
:BAN00026:  26    0.681641    0.706809  0.76596867
:BAN00027:  27    0.695021    0.708157  0.23405832
:BAN00028:  28    0.695021    0.708157  0.23405814
:BAN00029:  29    0.700048    0.710689  0.00000000
:BAN00030:  30    0.700048    0.710689  0.00000000
:BAN00031:  31    0.704353    0.717404  0.00000000
:BAN00032:  32    0.704353    0.717404  0.00000000
:BAN00033:  33    0.710183    0.724356  0.00000000
        Energy to separate low and high energystates:    0.41460


:NOE  : NUMBER OF ELECTRONS          =   26.000

:FER  : F E R M I - ENERGY(TETRAH.M.)=   0.6988587916
:GMA  : POTENTIAL AND CHARGE CUT-OFF  12.00 Ry**.5

:POS001: ATOM   -1 X,Y,Z = 0.00000 0.89750 0.25000  MULT= 2  ZZ= 59.000  Pr1       

       LMMAX 16
       LM=   0 0  1 0  2 0  2 2  3 0  3 2  4 0  4 2  4 4  5 0  5 2  5 4  6 0  6 2  6 4  6 6

:CHA001: TOTAL VALENCE CHARGE INSIDE SPHERE   1 =   9.5473    (RMT=  2.3000 )
:PCS001: PARTIAL CHARGES SPHERE =  1 S,P,D,F,PX,PY,PZ,D-Z2,D-X2Y2,D-XY,D-XZ,D-YZ 
:QTL001: 1.9417 5.0056 0.5630 2.0366 1.6657 1.6651 1.6748 0.1057 0.1015 0.1212 0.1111 0.1235
        Q-s-low E-s-low   Q-p-low E-p-low   Q-d-low E-d-low   Q-f-low E-f-low
:EPL001:  1.8690 -1.9158    4.9357 -0.6014    0.0028 -0.6000    0.0008 -0.6127
        Q-s-hi  E-s-hi    Q-p-hi  E-p-hi    Q-d-hi  E-d-hi    Q-f-hi  E-f-hi 
:EPH001:  0.0727  0.6015    0.0699  0.6388    0.5603  0.6445    2.0359  0.6836

                      VXX         VYY         VZZ       UP TO R
:VZZ001:             3.78701     4.60678    -8.39379       2.300

:CHA  : TOTAL VALENCE CHARGE INSIDE UNIT CELL =      26.000000

:SUM  : SUM OF EIGENVALUES =          -8.313461338


        1.ATOM      Pr1                  14 CORE STATES
       CORE-FORCE in mRy/a.u. = |F|      Fx             Fy             Fz
:FCO001:   1.ATOM   1436.963562780848      0.000000000000      0.000000000000   1436.963562780848

:1S 001: 1S               -3066.898104752 Ry
:2S 001: 2S                -492.650483084 Ry
:2PP001: 2P*               -465.749661482 Ry
:2P 001: 2P                -430.352151856 Ry
:3S 001: 3S                -105.740450892 Ry
:3PP001: 3P*                -94.278324452 Ry
:3P 001: 3P                 -87.270428626 Ry
:3DD001: 3D*                -67.197495039 Ry
:3D 001: 3D                 -65.685920435 Ry
:4S 001: 4S                 -20.414722368 Ry
:4PP001: 4P*                -16.121338008 Ry
:4P 001: 4P                 -14.593666599 Ry
:4DD001: 4D*                 -7.526114900 Ry
:4D 001: 4D                  -7.256618815 Ry
:CINT001 Core Integral Atom   1   45.998493

       DENSITY AT NUCLEUS
        JATOM        VALENCE       SEMI-CORE          CORE           TOTAL
:RTO001:   1      648.694170        0.000000   656825.264623   657473.958793
     
       CHARGES OF NEW CHARGE DENSITY
:NTO   : INTERSTITIAL CHARGE =     6.905344
:NPC   : PW Pseudocharge     =    17.005954
:NTO001: CHARGE SPHERE  1    =    55.545821

:NEC01: NUCLEAR AND ELECTRONIC CHARGE    118.00000   117.99699
     
       CHARGES OF OLD CHARGE DENSITY
:OTO   : INTERSTITIAL CHARGE =     6.908303
:OPC   : PW Pseudocharge     =    17.013282
:OTO001: CHARGE SPHERE  1    =    55.545848

:NEC02: NUCLEAR AND ELECTRONIC CHARGE    118.00000   118.00000
     
       CONVERGENCE TEST
:DTO001: DIFFERENCE IN SPHERE  1 =  0.0000476

:DIS  :  CHARGE DISTANCE       ( 0.0000476 for atom    1 spin 1)      0.0000476
 PW Mixed is          455
 
******************************************************
* MULTISECANT MIXING VER9 RELEASE 10.4.0              *
* Standard Mode with controls                        *
* Fixed density scale                                *
* Regularization       1.000E-04                     *
* Trust Upper Limit    5.000E+00                     *
* Max Number of Memory Steps    8                    *
******************************************************
 
:PWTMP   3.3536E+02  1.9467E+02  4.3729E+02
:PLANE:  PW TOTAL      4.8841 DISTAN   2.75E-05  5.62E-04 %
:CHARG:  CLM/ATOM   1381.9489 DISTAN   8.10E-05  5.86E-06 %
 
Step History
        DMIX         DMIXT        Red     Pred      Trust     Lambda    MagRel    MagAbs     Beta
  2   2.5000E-02   2.5000E-02  6.75E-01  1.00E+00 -1.00E+01  1.00E+00  2.50E-02  5.49E-03  1.00E+00
  3   2.8284E-02   2.8284E-02  4.66E-01  1.00E+00 -1.00E+01  1.87E+00  2.83E-02  4.20E-03  1.00E+00
  4   4.0390E-02   4.0390E-02  9.45E-01  9.99E-01  3.33E-01  1.29E+00  4.15E-02  2.87E-03  8.50E-01
  5   1.0098E-01   9.6574E-02  5.55E-01  7.40E-01  4.17E-01  1.04E+00  4.17E-01  2.72E-02  1.00E+00
  6   2.4954E-01   2.3152E-01  3.07E-01  3.58E-01  6.90E-01  9.68E-01  6.90E-01  2.50E-02  1.00E+00
  7   1.6665E-01   1.6665E-01  3.44E-01  5.10E-01  1.29E+00  1.45E+00  8.33E-01  9.27E-03  1.00E+00
  8   1.6675E-01   1.6675E-01  6.03E-01  8.09E-01  1.77E+00  1.62E+00  3.04E-01  1.16E-03  1.00E+00
  9   3.5000E-01   3.5000E-01  3.82E-01  3.59E-01  3.13E+00  1.66E+00  6.52E-01  1.50E-03  1.00E+00
 10   3.5000E-01   3.5000E-01 -1.00E+00  1.61E-01  6.64E+00  1.00E+00  4.35E-01  3.83E-04  1.00E+00
:JACOBIANS    5.687E-01   1.963E+00
  
:NORMS:  1/Froebius, Min, Max, Used   0.8052E+00  0.4233E+00  0.9870E+00  0.9688E+00
:INFO :  Number of Memory Steps    8 Skipping    1
:INFO :  SLambda=    1.5742422600  Max    1.5742422600
:PREDicted Charge, CTotal, PW Trust    5.123E-06   1.025E-05   5.680E-04
:PREDicted DMix, Beta, BLim   1.8073E-01  1.0298E+00  1.0092E+01

Eigenvalues, unscaled except for SY+YY
   #     SY Real        SY Imag          SS             YY         SY+YY Real      SY+YY Imag
   1   3.941871E+00   0.000000E+00   3.844171E+00   4.095592E+00   1.029203E+01   0.000000E+00
   2   1.556760E+00   0.000000E+00   1.237797E+00   2.636309E+00   4.970830E+00   0.000000E+00
   3   2.146909E-01   0.000000E+00   9.896267E-02   9.802038E-01   1.388401E+00   0.000000E+00
   4   2.936394E-02   0.000000E+00   3.082045E-03   1.413637E-01   2.231574E-01   0.000000E+00
   5   1.770404E-02   0.000000E+00   2.320739E-03   1.120569E-01   1.582364E-01   0.000000E+00
   6   5.333436E-03   0.000000E+00   7.783262E-04   3.420067E-02   4.371661E-02   0.000000E+00
   7   9.751860E-05   0.000000E+00   3.608586E-05   2.739572E-04   4.287038E-04   0.000000E+00
   8   1.202048E-08   0.000000E+00   3.361338E-09   4.955439E-08   6.810739E-08   0.000000E+00
 
:INFO :  Singular value  1.029E+01 Weight  1.000E+00 Projection -5.951E-07
:INFO :  Singular value  4.973E+00 Weight  1.000E+00 Projection  2.076E-05
:INFO :  Singular value  1.388E+00 Weight  1.000E+00 Projection  6.127E-05
:INFO :  Singular value  2.232E-01 Weight  1.000E+00 Projection -7.062E-06
:INFO :  Singular value  1.582E-01 Weight  1.000E+00 Projection  9.899E-06
:INFO :  Singular value  4.372E-02 Weight  9.999E-01 Projection  1.125E-04
:INFO :  Singular value  4.287E-04 Weight  5.228E-01 Projection -1.996E-04
:INFO :  Singular value  6.811E-08 Weight  2.765E-08 Projection -1.232E-09
:RANK :  ACTIVE   6.52/8  =  81.53 % ; YY RANK   6.31/8  =  78.86 %
 
:BLIM :  VZERO Control Off
:TRUST:  Step 8.85E+00  Charge 3.07E-02 (e) CTO  1.02E-01 (e) PW  1.43E-01 (e)
:DIRM :  MEMORY  8/8  SCALE   1.000 RED  0.10 PRED  0.16 NEXT  0.40 
:TRAVE:  Charge 5.07E-05 (e) CTO  1.01E-04 (e) PW  6.08E-04 (e)
:DIRP :  |MSR1|= 1.699E-05 |PRATT|= 2.745E-05 ANGLE=  16.3 DEGREES
:DIRQ :  |MSR1|= 1.379E-05 |PRATT|= 8.098E-05 ANGLE=  38.8 DEGREES
:DIRT :  |MSR1|= 2.188E-05 |PRATT|= 8.551E-05 ANGLE=  45.2 DEGREES
:MIX  :   MSE1   REGULARIZATION:  4.10E-04 GREED: 0.24221  Newton 1.00  0.2558                
     
       CHARGES OF MIXED CHARGE DENSITY
:CTO   : INTERSTITIAL CHARGE =     6.908307
:CPC   : PW Pseudocharge     =    17.013342
:CTO001: CHARGE SPHERE  1    =    55.545847

:NEC03: NUCLEAR AND ELECTRONIC CHARGE    118.00000   118.00000

PW CHANGE     H    K    L      Current       Change    Residue
:PTO001:      0    0    0  5.47040654E-02  1.444E-07  3.458E-07
:PTO003:      0    2    0  1.47819447E-02  4.121E-08  9.596E-09
:PTO004:     -1    1    0  7.22291283E-02  2.517E-07  3.307E-07
:PTO005:      0    2   -1 -8.37998316E-02 -2.910E-07 -4.050E-07
:PTO006:      0    0   -2 -4.33882555E-02 -1.632E-07 -2.568E-07
:PTO007:     -1    1   -1 -9.02537093E-02 -3.348E-07 -4.804E-07
:PTO008:      0    2   -2 -1.44946122E-02 -6.064E-08 -9.865E-08
:PTO009:     -1    1   -2 -7.43816173E-02 -2.211E-07 -2.952E-07
:PTO011:     -1    3    0 -1.19590172E-02 -1.758E-08 -1.641E-08
:PTO012:     -1    3   -1 -5.33216770E-02 -9.591E-08 -7.081E-08
:PTO013:      0    4    0 -9.65016079E-03 -1.781E-08 -2.141E-08
:PTO014:      0    2   -3  2.22249023E-02  4.820E-08  9.845E-08

:ENE  : ********** TOTAL ENERGY IN Ry =       -36944.25614467

       TOTAL FORCE IN mRy/a.u. = |F|     Fx             Fy             Fz     with/without FOR in case.in2
:FOR001:   1.ATOM         26.287          0.000          0.000        -26.287 partial forces
       TOTAL FORCE WITH RESPECT TO GLOBAL CARTESIAN COORDINATES:
:FCA001:   1.ATOM                         0.000        -26.287          0.000 partial forces
       TOTAL FORCE WITH RESPECT TO THE GLOBAL COORDINATE SYSTEM:
:FGL001:   1.ATOM                 0.000000000   -26.287049308     0.000000000 partial forces
