
:LABEL1: Calculations in /home/ykent/GWIEN/example/Pr/V14/case
:LABEL2: on didymium-2.cmpgroup.ameslab.gov at Wed Jul  8 16:41:54 CDT 2020
:LABEL3: using WIEN2k_19.1 (Release 25/6/2019) in /home/ykent/opt/src/WIEN2k_19.1
:LABEL4: using the command: run_lapw -so -i 70 -cc 0.0001
 Flat Integration
 New Mode for Coulomb Integral
 Consistent 3/8+Simpson combinations
 Extension of core to zero
 LDM version in phi
 Fifth-order quadrature in outwin


            ---------
:ITE013: 13. ITERATION
            ---------

:NATO :    1 INDEPENDENT AND    1 TOTAL ATOMS IN UNITCELL
       SUBSTANCE: blebleble                                                   

       LATTICE                      = F   
:POT  : POTENTIAL OPTION EX_LDA EC_LDA VX_LDA VC_LDA
:LAT  : LATTICE CONSTANTS= 10.27741 10.27741 10.27741    1.571    1.571    1.571
:VOL  : UNIT CELL VOLUME =     271.38850
       MODE OF CALCULATION IS       = RELA
       NON-SPINPOLARIZED CALCULATION
:IFFT  : FFT-parameters:   80   80   80 Factor: 2.00


   CONVERGENCE PARAMETER FOR PSEUDOCHARGE: NCON=  9
   MAXIMAL VALUE OF RMT(JATOM)*ABSK(NKK) : RK  =29.95033


:VKCOUL :  VK-COUL convergence: 0.131E-06
       ATOMNUMBER=  1 Pr         VCOUL-ZERO =  0.14426E+00
:FIT001: LUSE= 13 SIGMA OF V-XC FIT FOR ATOM  1  0.5013152E-04
:FIT001: LUSE= 13 SIGMA OF V-XC FIT FOR ATOM  1  0.5013152E-04
:DEN  : DENSITY INTEGRAL  =         -7066.22001532   (Ry)
       ELS_POTENTIAL_AT Z=0 and Z=0.5:  -2.38557  -2.38557
       ELS_POTENTIAL_AT Y=0 and Y=0.5:   0.00000   0.00000
:VZERO:v0,v0c,v0x  -3.32735  -2.38557  -0.94178 v5,v5c,v5x  -3.32735  -2.38557  -0.94178
:VZERY:v0,v0c,v0x  -0.67725   0.00000  -0.67725 v5,v5c,v5x  -0.67725   0.00000  -0.67725
:VZERX:v0,v0c,v0x  -0.67725   0.00000  -0.67725 v5,v5c,v5x  -0.67725   0.00000  -0.67725
:LMAX-WF:   10   Non-Spherical LMAX:   4

          ATOMIC SPHERE DEPENDENT PARAMETERS FOR ATOM  Pr        
:e__0001: OVERALL ENERGY PARAMETER IS    0.2945
          OVERALL BASIS SET ON ATOM IS LAPW
:E0_0001: E( 0)=    0.2945
             APW+lo
:E0_0001: E( 0)=   -2.1924   E(BOTTOM)=   -2.573   E(TOP)=   -1.812  4  5   169
             LOCAL ORBITAL
:E1_0001: E( 1)=    0.6945
             APW+lo
:E1_0001: E( 1)=   -0.8044   E(BOTTOM)=   -1.450   E(TOP)=   -0.158  3  4   170
             LOCAL ORBITAL
:E3_0001: E( 3)=    0.4812   E(BOTTOM)=    0.339   E(TOP)=    0.623  0  1   114
             APW+lo
:E2_0001: E( 2)=    0.2945   E(BOTTOM)=    0.126   E(TOP)= -200.000  2 -1    97
             APW+lo

       K=   0.00000   0.00000   0.00000            1
:RKM  : MATRIX SIZE   189LOs:  20  RKM= 7.94  WEIGHT= 1.00  PGR:    
       EIGENVALUES ARE:
:EIG00001:      -2.1490559   -0.7926422   -0.7926422   -0.7926422    0.2458185
:EIG00006:       0.4852151    0.4987835    0.4987835    0.4987835    0.5184959
:EIG00011:       0.5184959    0.5184959    0.6199429    0.6199429    0.6199429
:EIG00016:       0.7694925    0.7694925    1.1634865    1.3704881    1.3704881
:EIG00021:       1.3704881    1.4770147    2.0618509    2.0618509    2.0618509
:EIG00026:       2.1171712    2.1171712    2.1171712    2.3451972    2.3451972
:EIG00031:       2.6532842    2.8295068    2.8295068    2.8295068    3.2417305
:EIG00036:       3.2417305    3.4698781    3.4698781    3.4698781    3.5061925
:EIG00041:       3.5061925    3.5061925    3.6643061    3.6643061    3.6643061
:EIG00046:       3.8740731    3.9221240    3.9221240    3.9221240    4.0184155
 
:EIG00051:       4.0184155    4.0396396    4.0396396    4.0396396    4.0586667
:EIG00056:       4.0586667    4.0586667    4.1631652    4.2084945    4.3388764
:EIG00061:       4.3388764    4.3388764    4.4080248    4.4080248    4.4080248
:EIG00066:       4.5950964    5.6025772    5.6025772    5.6138424    5.8854278
:EIG00071:       5.8854278    5.8854278    6.2994799    6.2994799    6.4637826
:EIG00076:       6.4637826    6.4637826    6.5298086    6.5298086    6.5298086
:EIG00081:       6.8413662    6.8413662    6.8413662    6.8415465    6.8415465
:EIG00086:       6.8415465    6.8803298    6.8803298    6.9405028    6.9405028
:EIG00091:       6.9405028    7.0376606    7.0376606    7.0376606    7.0459820
:EIG00096:       7.0459820    7.0459820    7.1095423    7.2057074    7.2500351
 
:EIG00101:       7.2500351    7.3070162    7.3070162    7.3070162    7.3324085
:EIG00106:       7.3324085    7.3324085    7.3417521    7.3417521    7.3417521
:EIG00111:       7.4127390    7.4127390    7.6487826    7.6999657
       ********************************************************

:KPT   :      NUMBER OF K-POINTS:   165
   0.0   0.0 angle (M,z), angle (M,x) deg
 
        SPIN-ORBIT EIGENVALUES:
     K=   0.00000   0.00000   0.00000            1
      MATRIX SIZE=  228   WEIGHT= 1.00
     EIGENVALUES ARE:
          -2.1490559   -2.1490559   -0.9387830   -0.9387830   -0.7242387
          -0.7242387   -0.7242387   -0.7242387    0.2458185    0.2458185
           0.4798124    0.4798124    0.4873412    0.4873412    0.4873412
           0.4873412    0.5105060    0.5105060    0.5196663    0.5196663
           0.5261023    0.5261023    0.5261023    0.5261023    0.6162253
           0.6162253    0.6162253    0.6162253    0.6261567    0.6261567
           0.7698992    0.7698992    0.7698992    0.7698992    1.1635356
           1.1635356    1.3651896    1.3651896    1.3728862    1.3728862

           1.3728862    1.3728862    1.4770147    1.4770147    2.0497093
           2.0497093    2.0570389    2.0570389    2.0570389    2.0570389
           2.0709845    2.0709845    2.1518346    2.1518346    2.1518346
           2.1518346    2.3454802    2.3454802    2.3454802    2.3454802
           2.6532842    2.6532842    2.8290775    2.8290775    2.8297351
           2.8297351    2.8297351    2.8297351    3.2417081    3.2417081
           3.2417081    3.2417081    3.4685868    3.4685868    3.4685868
           3.4685868    3.4726975    3.4726975    3.4776412    3.4776412

           3.5217530    3.5217530    3.5217530    3.5217530    3.6642990
           3.6642990    3.6643096    3.6643096    3.6643096    3.6643096
           3.8740731    3.8740731    3.9220830    3.9220830    3.9220830
           3.9220830    3.9222109    3.9222109    4.0184155    4.0184155
           4.0184155    4.0184155    4.0394889    4.0394889    4.0396974
           4.0396974    4.0396974    4.0396974    4.0583909    4.0583909
           4.0583909    4.0583909    4.0592678    4.0592678    4.1631713
           4.1631713    4.2084945    4.2084945    4.3388195    4.3388195

           4.3388195    4.3388195    4.3389939    4.3389939    4.4072885
           4.4072885    4.4084415    4.4084415    4.4084415    4.4084415

       ********************************************************
:GAP (global)   :    0.0    Ry =     0.0   eV (metal)
:GAP (this spin):    0.0    Ry =     0.0   eV (metal)
         Bandranges (emin - emax) and occupancy:
:BAN00004:   4   -0.965168   -0.938783  1.00000000
:BAN00005:   5   -0.772787   -0.724239  1.00000000
:BAN00006:   6   -0.772787   -0.724239  1.00000000
:BAN00007:   7   -0.755005   -0.724239  1.00000000
:BAN00008:   8   -0.755005   -0.724239  1.00000000
:BAN00009:   9    0.245819    0.468619  1.00000000
:BAN00010:  10    0.245819    0.468619  1.00000000
:BAN00011:  11    0.437102    0.485547  1.00000000
:BAN00012:  12    0.437102    0.485547  1.00000000
:BAN00013:  13    0.479444    0.489421  0.50000005
:BAN00014:  14    0.479444    0.489421  0.49999995
:BAN00015:  15    0.487341    0.496277  0.00000000
:BAN00016:  16    0.487341    0.496277  0.00000000
:BAN00017:  17    0.489582    0.514534  0.00000000
:BAN00018:  18    0.489582    0.514534  0.00000000
:BAN00019:  19    0.509988    0.519666  0.00000000
        Energy to separate low and high energystates:    0.19582


:NOE  : NUMBER OF ELECTRONS          =   13.000

:FER  : F E R M I - ENERGY(TETRAH.M.)=   0.4864978354
:GMA  : POTENTIAL AND CHARGE CUT-OFF  12.00 Ry**.5

:POS001: ATOM    1 X,Y,Z = 0.00000 0.00000 0.50000  MULT= 1  ZZ= 59.000  Pr        

       LMMAX  5
       LM=   0 0  4 0  4 4  6 0  6 4

:CHA001: TOTAL VALENCE CHARGE INSIDE SPHERE   1 =  10.2095    (RMT=  2.5000 )
:PCS001: PARTIAL CHARGES SPHERE =  1 S,P,D,F,      D-EG,D-T2G 
:QTL001: 2.0228 5.3507 0.4907 2.3452 0.0000 0.0000 0.0000 0.1803 0.3103 0.0000 0.0000 0.0000
        Q-s-low E-s-low   Q-p-low E-p-low   Q-d-low E-d-low   Q-f-low E-f-low
:EPL001:  1.9261 -2.1423    5.2953 -0.8227    0.0007 -0.8020    0.0002 -0.8058
        Q-s-hi  E-s-hi    Q-p-hi  E-p-hi    Q-d-hi  E-d-hi    Q-f-hi  E-f-hi 
:EPH001:  0.0968  0.3907    0.0554  0.4233    0.4900  0.4448    2.3450  0.4779

:CHA  : TOTAL VALENCE CHARGE INSIDE UNIT CELL =      13.000000

:SUM  : SUM OF EIGENVALUES =          -6.953464599


        1.ATOM      Pr                   14 CORE STATES
:1S 001: 1S               -3067.114197504 Ry
:2S 001: 2S                -492.865468794 Ry
:2PP001: 2P*               -465.965092937 Ry
:2P 001: 2P                -430.567426426 Ry
:3S 001: 3S                -105.950468616 Ry
:3PP001: 3P*                -94.488563100 Ry
:3P 001: 3P                 -87.480506051 Ry
:3DD001: 3D*                -67.408265956 Ry
:3D 001: 3D                 -65.896613950 Ry
:4S 001: 4S                 -20.627593787 Ry
:4PP001: 4P*                -16.334645738 Ry
:4P 001: 4P                 -14.807556299 Ry
:4DD001: 4D*                 -7.741243894 Ry
:4D 001: 4D                  -7.471957659 Ry
:CINT001 Core Integral Atom   1   45.999517

       DENSITY AT NUCLEUS
        JATOM        VALENCE       SEMI-CORE          CORE           TOTAL
:RTO001:   1      648.136329        0.000000   656824.911174   657473.047503
     
       CHARGES OF NEW CHARGE DENSITY
:NTO   : INTERSTITIAL CHARGE =     2.790463
:NPC   : PW Pseudocharge     =     7.505620
:NTO001: CHARGE SPHERE  1    =    56.209052

:NEC01: NUCLEAR AND ELECTRONIC CHARGE     59.00000    58.99952
     
       CHARGES OF OLD CHARGE DENSITY
:OTO   : INTERSTITIAL CHARGE =     2.954892
:OPC   : PW Pseudocharge     =     7.569291
:OTO001: CHARGE SPHERE  1    =    56.045108

:NEC02: NUCLEAR AND ELECTRONIC CHARGE     59.00000    59.00000
     
       CONVERGENCE TEST
:DTO001: DIFFERENCE IN SPHERE  1 =  0.2860071

:DIS  :  CHARGE DISTANCE       ( 0.2860071 for atom    1 spin 1)      0.2860071
 PW Mixed is           59
 
******************************************************
* MULTISECANT MIXING VER9 RELEASE 10.4.0              *
* Standard Mode with controls                        *
* Fixed density scale                                *
* Restart from converged density                     *
* Regularization       1.000E-04                     *
* Trust Upper Limit    5.000E+00                     *
* Max Number of Memory Steps    8                    *
******************************************************
 
:INFO : Forcing a restart
:PWTMP   2.0594E+02  1.2500E+02  2.7139E+02
:PLANE:  PW TOTAL      2.8320 DISTAN   3.39E-02  1.20E+00 %
:CHARG:  CLM/ATOM    977.1825 DISTAN   3.34E-01  3.42E-02 %
 
Step History
        DMIX         DMIXT        Red     Pred      Trust     Lambda    MagRel    MagAbs     Beta
  1   3.5000E-02   3.5000E-02 -1.00E+00  1.00E+00 -1.00E+01  1.00E+00  3.50E-02  3.50E-02  1.00E+00
:INFO :  Note, Pratt in use
:TRUST:  Step 1.84E-01  Charge 7.50E-02 (e) CTO  2.50E-01 (e) PW  3.50E-01 (e)
:DIRM :  MEMORY  0/ 8 SCALE   1.000
Performing Pseudo Compensation
Final Pseudo Compensation Rescaling     1.00000E+00
:MIX  :   PRATT  REGULARIZATION:  1.00E-04 GREED: 0.12288                  
     
       CHARGES OF MIXED CHARGE DENSITY
:CTO   : INTERSTITIAL CHARGE =     2.934747
:CPC   : PW Pseudocharge     =     7.538439
:CTO001: CHARGE SPHERE  1    =    56.065253

:NEC03: NUCLEAR AND ELECTRONIC CHARGE     59.00000    59.00000

PW CHANGE     H    K    L      Current       Change    Residue
:PTO001:      0    0    0  3.85911201E-02 -1.879E-04 -8.339E-04
:PTO002:     -1   -1   -1 -1.25902219E-01  4.523E-04  3.366E-04
:PTO003:      0    0   -2  7.56013125E-02 -2.369E-04  1.582E-04
:PTO004:      0   -2   -2  6.86051622E-02 -2.577E-04 -3.159E-04
:PTO005:     -1   -1   -3 -6.88762856E-02  1.707E-04 -1.146E-04
:PTO006:     -2   -2   -2  1.79453786E-02 -3.899E-05  2.484E-05
:PTO007:      0    0   -4  3.86256845E-03  1.998E-05  1.249E-04
:PTO008:     -1   -3   -3 -4.71682617E-03 -4.406E-05  1.441E-04
:PTO009:      0   -2   -4  1.60958321E-03  6.175E-05 -5.202E-05
:PTO010:     -2   -2   -4 -5.20086393E-03  7.952E-05  8.818E-05
:PTO011:     -3   -3   -3  2.43479549E-03 -2.838E-05 -8.390E-05
:PTO012:     -1   -1   -5  6.82683579E-03 -7.152E-05 -1.409E-04

:ENE  : ********** TOTAL ENERGY IN Ry =       -18472.09696503

 Flat Integration
 New Mode for Coulomb Integral
 Consistent 3/8+Simpson combinations
 Extension of core to zero
 LDM version in phi
 Fifth-order quadrature in outwin


            ---------
:ITE014: 14. ITERATION
            ---------

:NATO :    1 INDEPENDENT AND    1 TOTAL ATOMS IN UNITCELL
       SUBSTANCE: blebleble                                                   

       LATTICE                      = F   
:POT  : POTENTIAL OPTION EX_LDA EC_LDA VX_LDA VC_LDA
:LAT  : LATTICE CONSTANTS= 10.27741 10.27741 10.27741    1.571    1.571    1.571
:VOL  : UNIT CELL VOLUME =     271.38850
       MODE OF CALCULATION IS       = RELA
       NON-SPINPOLARIZED CALCULATION
:IFFT  : FFT-parameters:   80   80   80 Factor: 2.00


   CONVERGENCE PARAMETER FOR PSEUDOCHARGE: NCON=  9
   MAXIMAL VALUE OF RMT(JATOM)*ABSK(NKK) : RK  =29.95033


:VKCOUL :  VK-COUL convergence: 0.127E-06
       ATOMNUMBER=  1 Pr         VCOUL-ZERO =  0.14399E+00
:FIT001: LUSE= 13 SIGMA OF V-XC FIT FOR ATOM  1  0.4759827E-04
:FIT001: LUSE= 13 SIGMA OF V-XC FIT FOR ATOM  1  0.4759827E-04
:DEN  : DENSITY INTEGRAL  =         -7068.40197938   (Ry)
       ELS_POTENTIAL_AT Z=0 and Z=0.5:  -2.37166  -2.37166
       ELS_POTENTIAL_AT Y=0 and Y=0.5:   0.00000   0.00000
:VZERO:v0,v0c,v0x  -3.31250  -2.37166  -0.94083 v5,v5c,v5x  -3.31250  -2.37166  -0.94083
:VZERY:v0,v0c,v0x  -0.67598   0.00000  -0.67598 v5,v5c,v5x  -0.67598   0.00000  -0.67598
:VZERX:v0,v0c,v0x  -0.67598   0.00000  -0.67598 v5,v5c,v5x  -0.67598   0.00000  -0.67598
:LMAX-WF:   10   Non-Spherical LMAX:   4

          ATOMIC SPHERE DEPENDENT PARAMETERS FOR ATOM  Pr        
:e__0001: OVERALL ENERGY PARAMETER IS    0.2892
          OVERALL BASIS SET ON ATOM IS LAPW
:E0_0001: E( 0)=    0.2892
             APW+lo
:E0_0001: E( 0)=   -2.1774   E(BOTTOM)=   -2.561   E(TOP)=   -1.794  4  5   161
             LOCAL ORBITAL
:E1_0001: E( 1)=    0.6892
             APW+lo
:E1_0001: E( 1)=   -0.7917   E(BOTTOM)=   -1.441   E(TOP)=   -0.142  3  4   162
             LOCAL ORBITAL
:E3_0001: E( 3)=    0.5079   E(BOTTOM)=    0.363   E(TOP)=    0.653  0  1   122
             APW+lo
:E2_0001: E( 2)=    0.2892   E(BOTTOM)=    0.133   E(TOP)= -200.000  2 -1    90
             APW+lo

       K=   0.00000   0.00000   0.00000            1
:RKM  : MATRIX SIZE   189LOs:  20  RKM= 7.94  WEIGHT= 1.00  PGR:    
       EIGENVALUES ARE:
:EIG00001:      -2.1343754   -0.7811646   -0.7811646   -0.7811646    0.2456085
:EIG00006:       0.5097210    0.5247026    0.5247026    0.5247026    0.5459305
:EIG00011:       0.5459305    0.5459305    0.6229235    0.6229235    0.6229235
:EIG00016:       0.7739806    0.7739806    1.1655552    1.3712548    1.3712548
:EIG00021:       1.3712548    1.4744457    2.0660992    2.0660992    2.0660992
:EIG00026:       2.1202093    2.1202093    2.1202093    2.3477615    2.3477615
:EIG00031:       2.6549587    2.8301444    2.8301444    2.8301444    3.2436244
:EIG00036:       3.2436244    3.4710998    3.4710998    3.4710998    3.5059822
:EIG00041:       3.5059822    3.5059822    3.6646885    3.6646885    3.6646885
:EIG00046:       3.8750171    3.9209564    3.9209564    3.9209564    4.0167500
 
:EIG00051:       4.0167500    4.0384289    4.0384289    4.0384289    4.0575551
:EIG00056:       4.0575551    4.0575551    4.1613415    4.2085173    4.3367164
:EIG00061:       4.3367164    4.3367164    4.4063286    4.4063286    4.4063286
:EIG00066:       4.5931908    5.6030122    5.6030122    5.6139670    5.8851464
:EIG00071:       5.8851464    5.8851464    6.3040833    6.3040833    6.4682896
:EIG00076:       6.4682896    6.4682896    6.5326175    6.5326175    6.5326175
:EIG00081:       6.8415897    6.8415897    6.8415897    6.8429972    6.8429972
:EIG00086:       6.8429972    6.8793679    6.8793679    6.9398983    6.9398983
:EIG00091:       6.9398983    7.0377364    7.0377364    7.0377364    7.0456417
:EIG00096:       7.0456417    7.0456417    7.1089322    7.2048194    7.2505156
 
:EIG00101:       7.2505156    7.3055658    7.3055658    7.3055658    7.3302547
:EIG00106:       7.3302547    7.3302547    7.3403160    7.3403160    7.3403160
:EIG00111:       7.4114652    7.4114652    7.6457807    7.7012994
       ********************************************************

:KPT   :      NUMBER OF K-POINTS:   165
   0.0   0.0 angle (M,z), angle (M,x) deg
 
        SPIN-ORBIT EIGENVALUES:
     K=   0.00000   0.00000   0.00000            1
      MATRIX SIZE=  228   WEIGHT= 1.00
     EIGENVALUES ARE:
          -2.1343754   -2.1343754   -0.9266019   -0.9266019   -0.7131015
          -0.7131015   -0.7131015   -0.7131015    0.2456085    0.2456085
           0.5048168    0.5048168    0.5136348    0.5136348    0.5136348
           0.5136348    0.5362618    0.5362618    0.5466303    0.5466303
           0.5532241    0.5532241    0.5532241    0.5532241    0.6192600
           0.6192600    0.6192600    0.6192600    0.6290633    0.6290633
           0.7743728    0.7743728    0.7743728    0.7743728    1.1656094
           1.1656094    1.3660534    1.3660534    1.3736094    1.3736094

           1.3736094    1.3736094    1.4744457    1.4744457    2.0527816
           2.0527816    2.0612978    2.0612978    2.0612978    2.0612978
           2.0752093    2.0752093    2.1548423    2.1548423    2.1548423
           2.1548423    2.3480436    2.3480436    2.3480436    2.3480436
           2.6549587    2.6549587    2.8297065    2.8297065    2.8303773
           2.8303773    2.8303773    2.8303773    3.2436013    3.2436013
           3.2436013    3.2436013    3.4698049    3.4698049    3.4698049
           3.4698049    3.4739276    3.4739276    3.4773289    3.4773289

           3.5215998    3.5215998    3.5215999    3.5215999    3.6646815
           3.6646815    3.6646921    3.6646921    3.6646921    3.6646921
           3.8750171    3.8750171    3.9209160    3.9209160    3.9209160
           3.9209160    3.9210421    3.9210421    4.0167500    4.0167500
           4.0167500    4.0167500    4.0382751    4.0382751    4.0384876
           4.0384876    4.0384876    4.0384876    4.0572755    4.0572755
           4.0572755    4.0572755    4.0581653    4.0581653    4.1613477
           4.1613477    4.2085173    4.2085173    4.3366591    4.3366591

           4.3366591    4.3366591    4.3368349    4.3368349    4.4055906
           4.4055906    4.4067468    4.4067468    4.4067468    4.4067468

       ********************************************************
:GAP (global)   :    0.0    Ry =     0.0   eV (metal)
:GAP (this spin):    0.0    Ry =     0.0   eV (metal)
         Bandranges (emin - emax) and occupancy:
:BAN00004:   4   -0.953576   -0.926602  1.00000000
:BAN00005:   5   -0.762591   -0.713101  1.00000000
:BAN00006:   6   -0.762591   -0.713101  1.00000000
:BAN00007:   7   -0.744488   -0.713101  1.00000000
:BAN00008:   8   -0.744488   -0.713101  1.00000000
:BAN00009:   9    0.245608    0.480995  1.00000000
:BAN00010:  10    0.245608    0.480995  1.00000000
:BAN00011:  11    0.438581    0.508334  1.00000000
:BAN00012:  12    0.438581    0.508334  1.00000000
:BAN00013:  13    0.499517    0.515793  0.50000003
:BAN00014:  14    0.499517    0.515793  0.49999997
:BAN00015:  15    0.513319    0.518156  0.00000000
:BAN00016:  16    0.513319    0.518156  0.00000000
:BAN00017:  17    0.516112    0.539725  0.00000000
:BAN00018:  18    0.516112    0.539725  0.00000000
:BAN00019:  19    0.532634    0.546630  0.00000000
        Energy to separate low and high energystates:    0.19561


:NOE  : NUMBER OF ELECTRONS          =   13.000

:FER  : F E R M I - ENERGY(TETRAH.M.)=   0.5105506260
:GMA  : POTENTIAL AND CHARGE CUT-OFF  12.00 Ry**.5

:POS001: ATOM    1 X,Y,Z = 0.00000 0.00000 0.50000  MULT= 1  ZZ= 59.000  Pr        

       LMMAX  5
       LM=   0 0  4 0  4 4  6 0  6 4

:CHA001: TOTAL VALENCE CHARGE INSIDE SPHERE   1 =   9.8334    (RMT=  2.5000 )
:PCS001: PARTIAL CHARGES SPHERE =  1 S,P,D,F,      D-EG,D-T2G 
:QTL001: 2.0256 5.3603 0.6319 1.8154 0.0000 0.0000 0.0000 0.2231 0.4087 0.0000 0.0000 0.0000
        Q-s-low E-s-low   Q-p-low E-p-low   Q-d-low E-d-low   Q-f-low E-f-low
:EPL001:  1.9251 -2.1275    5.2855 -0.8117    0.0007 -0.7913    0.0002 -0.7951
        Q-s-hi  E-s-hi    Q-p-hi  E-p-hi    Q-d-hi  E-d-hi    Q-f-hi  E-f-hi 
:EPH001:  0.1005  0.3955    0.0748  0.4434    0.6312  0.4598    1.8152  0.4992

:CHA  : TOTAL VALENCE CHARGE INSIDE UNIT CELL =      13.000000

:SUM  : SUM OF EIGENVALUES =          -6.799149299


        1.ATOM      Pr                   14 CORE STATES
:1S 001: 1S               -3067.064690885 Ry
:2S 001: 2S                -492.815838956 Ry
:2PP001: 2P*               -465.915488995 Ry
:2P 001: 2P                -430.517814052 Ry
:3S 001: 3S                -105.901874290 Ry
:3PP001: 3P*                -94.439869561 Ry
:3P 001: 3P                 -87.431998310 Ry
:3DD001: 3D*                -67.359420772 Ry
:3D 001: 3D                 -65.847814369 Ry
:4S 001: 4S                 -20.588894089 Ry
:4PP001: 4P*                -16.296572209 Ry
:4P 001: 4P                 -14.770449797 Ry
:4DD001: 4D*                 -7.705864099 Ry
:4D 001: 4D                  -7.436909167 Ry
:CINT001 Core Integral Atom   1   45.999507

       DENSITY AT NUCLEUS
        JATOM        VALENCE       SEMI-CORE          CORE           TOTAL
:RTO001:   1      647.411011        0.000000   656822.869746   657470.280756
     
       CHARGES OF NEW CHARGE DENSITY
:NTO   : INTERSTITIAL CHARGE =     3.166612
:NPC   : PW Pseudocharge     =     7.626012
:NTO001: CHARGE SPHERE  1    =    55.832894

:NEC01: NUCLEAR AND ELECTRONIC CHARGE     59.00000    58.99951
     
       CHARGES OF OLD CHARGE DENSITY
:OTO   : INTERSTITIAL CHARGE =     2.934747
:OPC   : PW Pseudocharge     =     7.538439
:OTO001: CHARGE SPHERE  1    =    56.065253

:NEC02: NUCLEAR AND ELECTRONIC CHARGE     59.00000    59.00000
     
       CONVERGENCE TEST
:DTO001: DIFFERENCE IN SPHERE  1 =  0.3882455

:DIS  :  CHARGE DISTANCE       ( 0.3882455 for atom    1 spin 1)      0.3882455
 PW Mixed is           59
 
******************************************************
* MULTISECANT MIXING VER9 RELEASE 10.4.0              *
* Standard Mode with controls                        *
* Fixed density scale                                *
* Restart from converged density                     *
* Regularization       1.000E-04                     *
* Trust Upper Limit    5.000E+00                     *
* Max Number of Memory Steps    8                    *
******************************************************
 
:INFO : Forcing a restart
:PWTMP   2.0594E+02  1.2500E+02  2.7139E+02
:PLANE:  PW TOTAL      2.8212 DISTAN   4.76E-02  1.69E+00 %
:CHARG:  CLM/ATOM    977.1845 DISTAN   4.14E-01  4.24E-02 %
 
Step History
        DMIX         DMIXT        Red     Pred      Trust     Lambda    MagRel    MagAbs     Beta
  1   3.5000E-02   3.5000E-02 -1.00E+00  1.00E+00 -1.00E+01  1.00E+00  3.50E-02  3.50E-02  1.00E+00
  2   1.2288E-01   1.2288E-01 -1.00E+00  1.00E+00 -1.00E+01  1.00E+00  1.23E-01  4.13E-02  1.00E+00
:JACOBIANS    7.462E-04   2.631E-02
  
:NORMS:  1/Froebius, Min, Max, Used   0.3914E-02  0.3914E-02  0.5400E-01  0.3914E-02
:INFO :  Number of Memory Steps    1 Skipping    0
:PREDicted Charge, CTotal, PW Trust    8.741E-03   8.741E-03   1.019E-02
:PREDicted DMix, Beta, BLim   2.0480E-02  4.3392E-01  7.7154E-01

Eigenvalues, unscaled except for SY+YY
   #     SY Real        SY Imag          SS             YY         SY+YY Real      SY+YY Imag
   1   5.399948E-02   0.000000E+00   3.914333E-03   1.000000E+00   1.053999E+00   0.000000E+00
 
:DLIM :  Beta Active  8.000E-01
:BLIM :  VZERO Control Off
:TRUST:  Step 3.00E+00  Charge 6.82E-02 (e) CTO  2.27E-01 (e) PW  3.18E-01 (e)
:DIRM :  MEMORY  1/8  SCALE   1.000 RED  1.24 PRED  1.00 NEXT  0.43 BETA  0.80
:TRAVE:  Charge 9.52E-03 (e) CTO  9.52E-03 (e) PW  1.09E-02 (e)
:DIRP :  |MSR1|= 5.049E-03 |PRATT|= 4.759E-02 ANGLE=  44.0 DEGREES
:DIRQ :  |MSR1|= 1.632E-02 |PRATT|= 4.142E-01 ANGLE=  26.1 DEGREES
:DIRT :  |MSR1|= 1.709E-02 |PRATT|= 4.169E-01 ANGLE=  28.8 DEGREES
:MIX  :   MSR1   REGULARIZATION:  1.00E-04 GREED: 0.04971  Newton 1.00  0.0410                
     
       CHARGES OF MIXED CHARGE DENSITY
:CTO   : INTERSTITIAL CHARGE =     2.944269
:CPC   : PW Pseudocharge     =     7.552570
:CTO001: CHARGE SPHERE  1    =    56.055731

:NEC03: NUCLEAR AND ELECTRONIC CHARGE     59.00000    59.00000

PW CHANGE     H    K    L      Current       Change    Residue
:PTO001:      0    0    0  3.86782746E-02  8.715E-05  1.183E-03
:PTO002:     -1   -1   -1 -1.26103160E-01 -2.009E-04 -2.584E-04
:PTO003:      0    0   -2  7.57120760E-02  1.108E-04 -4.493E-05
:PTO004:      0   -2   -2  6.87146601E-02  1.095E-04  7.900E-05
:PTO005:     -1   -1   -3 -6.89471008E-02 -7.082E-05  4.513E-04
:PTO006:     -2   -2   -2  1.79618978E-02  1.652E-05 -8.510E-05
:PTO007:      0    0   -4  3.85348083E-03 -9.088E-06 -1.649E-04
:PTO008:     -1   -3   -3 -4.68655361E-03  3.027E-05  2.904E-04
:PTO009:      0   -2   -4  1.57125307E-03 -3.833E-05 -4.127E-04
:PTO010:     -2   -2   -4 -5.23869089E-03 -3.783E-05 -1.992E-04
:PTO011:     -3   -3   -3  2.44528845E-03  1.049E-05  1.137E-07
:PTO012:     -1   -1   -5  6.86117756E-03  3.434E-05  2.743E-04

:ENE  : ********** TOTAL ENERGY IN Ry =       -18472.09811599

 Flat Integration
 New Mode for Coulomb Integral
 Consistent 3/8+Simpson combinations
 Extension of core to zero
 LDM version in phi
 Fifth-order quadrature in outwin


            ---------
:ITE015: 15. ITERATION
            ---------

:NATO :    1 INDEPENDENT AND    1 TOTAL ATOMS IN UNITCELL
       SUBSTANCE: blebleble                                                   

       LATTICE                      = F   
:POT  : POTENTIAL OPTION EX_LDA EC_LDA VX_LDA VC_LDA
:LAT  : LATTICE CONSTANTS= 10.27741 10.27741 10.27741    1.571    1.571    1.571
:VOL  : UNIT CELL VOLUME =     271.38850
       MODE OF CALCULATION IS       = RELA
       NON-SPINPOLARIZED CALCULATION
:IFFT  : FFT-parameters:   80   80   80 Factor: 2.00


   CONVERGENCE PARAMETER FOR PSEUDOCHARGE: NCON=  9
   MAXIMAL VALUE OF RMT(JATOM)*ABSK(NKK) : RK  =29.95033


:VKCOUL :  VK-COUL convergence: 0.128E-06
       ATOMNUMBER=  1 Pr         VCOUL-ZERO =  0.14410E+00
:FIT001: LUSE= 13 SIGMA OF V-XC FIT FOR ATOM  1  0.4811455E-04
:FIT001: LUSE= 13 SIGMA OF V-XC FIT FOR ATOM  1  0.4811455E-04
:DEN  : DENSITY INTEGRAL  =         -7067.38116458   (Ry)
       ELS_POTENTIAL_AT Z=0 and Z=0.5:  -2.37810  -2.37810
       ELS_POTENTIAL_AT Y=0 and Y=0.5:   0.00000   0.00000
:VZERO:v0,v0c,v0x  -3.31945  -2.37810  -0.94135 v5,v5c,v5x  -3.31945  -2.37810  -0.94135
:VZERY:v0,v0c,v0x  -0.67658   0.00000  -0.67658 v5,v5c,v5x  -0.67658   0.00000  -0.67658
:VZERX:v0,v0c,v0x  -0.67658   0.00000  -0.67658 v5,v5c,v5x  -0.67658   0.00000  -0.67658
:LMAX-WF:   10   Non-Spherical LMAX:   4

          ATOMIC SPHERE DEPENDENT PARAMETERS FOR ATOM  Pr        
:e__0001: OVERALL ENERGY PARAMETER IS    0.3034
          OVERALL BASIS SET ON ATOM IS LAPW
:E0_0001: E( 0)=    0.3034
             APW+lo
:E0_0001: E( 0)=   -2.1844   E(BOTTOM)=   -2.566   E(TOP)=   -1.802  4  5   162
             LOCAL ORBITAL
:E1_0001: E( 1)=    0.7034
             APW+lo
:E1_0001: E( 1)=   -0.7976   E(BOTTOM)=   -1.445   E(TOP)=   -0.150  3  4   166
             LOCAL ORBITAL
:E3_0001: E( 3)=    0.4955   E(BOTTOM)=    0.352   E(TOP)=    0.639  0  1   116
             APW+lo
:E2_0001: E( 2)=    0.3034   E(BOTTOM)=    0.129   E(TOP)= -200.000  2 -1    93
             APW+lo

       K=   0.00000   0.00000   0.00000            1
:RKM  : MATRIX SIZE   189LOs:  20  RKM= 7.94  WEIGHT= 1.00  PGR:    
       EIGENVALUES ARE:
:EIG00001:      -2.1412178   -0.7865186   -0.7865186   -0.7865186    0.2457122
:EIG00006:       0.4983756    0.5126720    0.5126720    0.5126720    0.5331917
:EIG00011:       0.5331917    0.5331917    0.6215293    0.6215293    0.6215293
:EIG00016:       0.7718791    0.7718791    1.1645555    1.3708930    1.3708930
:EIG00021:       1.3708930    1.4756652    2.0638378    2.0638378    2.0638378
:EIG00026:       2.1187872    2.1187872    2.1187872    2.3462872    2.3462872
:EIG00031:       2.6541466    2.8298330    2.8298330    2.8298330    3.2422599
:EIG00036:       3.2422599    3.4701022    3.4701022    3.4701022    3.5060691
:EIG00041:       3.5060691    3.5060691    3.6643527    3.6643527    3.6643527
:EIG00046:       3.8744596    3.9214065    3.9214065    3.9214065    4.0175101
 
:EIG00051:       4.0175101    4.0389752    4.0389752    4.0389752    4.0580631
:EIG00056:       4.0580631    4.0580631    4.1621824    4.2083394    4.3376838
:EIG00061:       4.3376838    4.3376838    4.4071086    4.4071086    4.4071086
:EIG00066:       4.5940770    5.6021441    5.6021441    5.6134772    5.8851510
:EIG00071:       5.8851510    5.8851510    6.3000440    6.3000440    6.4642272
:EIG00076:       6.4642272    6.4642272    6.5308785    6.5308785    6.5308785
:EIG00081:       6.8408469    6.8408469    6.8408469    6.8410007    6.8410007
:EIG00086:       6.8410007    6.8796780    6.8796780    6.9400059    6.9400059
:EIG00091:       6.9400059    7.0371854    7.0371854    7.0371854    7.0455413
:EIG00096:       7.0455413    7.0455413    7.1087754    7.2051617    7.2494063
 
:EIG00101:       7.2494063    7.3060942    7.3060942    7.3060942    7.3312553
:EIG00106:       7.3312553    7.3312553    7.3407166    7.3407166    7.3407166
:EIG00111:       7.4116194    7.4116194    7.6471813    7.7000770    7.9958945
:EIG00116:       7.9958945    7.9958945
       ********************************************************

:KPT   :      NUMBER OF K-POINTS:   165
   0.0   0.0 angle (M,z), angle (M,x) deg
 
        SPIN-ORBIT EIGENVALUES:
     K=   0.00000   0.00000   0.00000            1
      MATRIX SIZE=  234   WEIGHT= 1.00
     EIGENVALUES ARE:
          -2.1412178   -2.1412178   -0.9323019   -0.9323019   -0.7183015
          -0.7183015   -0.7183015   -0.7183015    0.2457122    0.2457122
           0.4932427    0.4932427    0.5014309    0.5014309    0.5014309
           0.5014309    0.5243078    0.5243078    0.5341073    0.5341073
           0.5406292    0.5406292    0.5406292    0.5406292    0.6178383
           0.6178383    0.6178383    0.6178383    0.6277063    0.6277063
           0.7722783    0.7722783    0.7722783    0.7722783    1.1646073
           1.1646073    1.3656445    1.3656445    1.3732681    1.3732681

           1.3732681    1.3732681    1.4756652    1.4756652    2.0513170
           2.0513170    2.0590195    2.0590195    2.0590195    2.0590195
           2.0729797    2.0729797    2.1534378    2.1534378    2.1534378
           2.1534378    2.3465711    2.3465711    2.3465711    2.3465711
           2.6541466    2.6541466    2.8293991    2.8293991    2.8300637
           2.8300637    2.8300637    2.8300637    3.2422370    3.2422370
           3.2422370    3.2422370    3.4688056    3.4688056    3.4688056
           3.4688056    3.4729339    3.4729339    3.4774430    3.4774430

           3.5216661    3.5216661    3.5216661    3.5216661    3.6643456
           3.6643456    3.6643562    3.6643562    3.6643562    3.6643562
           3.8744596    3.8744596    3.9213657    3.9213657    3.9213657
           3.9213657    3.9214930    3.9214930    4.0175101    4.0175101
           4.0175101    4.0175101    4.0388229    4.0388229    4.0390335
           4.0390335    4.0390335    4.0390335    4.0577853    4.0577853
           4.0577853    4.0577853    4.0586690    4.0586690    4.1621885
           4.1621885    4.2083394    4.2083394    4.3376265    4.3376265

           4.3376265    4.3376265    4.3378021    4.3378021    4.4063703
           4.4063703    4.4075263    4.4075263    4.4075263    4.4075263

       ********************************************************
:GAP (global)   :    0.0    Ry =     0.0   eV (metal)
:GAP (this spin):    0.0    Ry =     0.0   eV (metal)
         Bandranges (emin - emax) and occupancy:
:BAN00004:   4   -0.958984   -0.932302  1.00000000
:BAN00005:   5   -0.767346   -0.718302  1.00000000
:BAN00006:   6   -0.767346   -0.718302  1.00000000
:BAN00007:   7   -0.749394   -0.718302  1.00000000
:BAN00008:   8   -0.749394   -0.718302  1.00000000
:BAN00009:   9    0.245712    0.476001  1.00000000
:BAN00010:  10    0.245712    0.476001  1.00000000
:BAN00011:  11    0.437897    0.497726  1.00000000
:BAN00012:  12    0.437897    0.497726  1.00000000
:BAN00013:  13    0.490576    0.503551  0.50000015
:BAN00014:  14    0.490576    0.503551  0.49999985
:BAN00015:  15    0.501431    0.507515  0.00000000
:BAN00016:  16    0.501431    0.507515  0.00000000
:BAN00017:  17    0.503774    0.528124  0.00000000
:BAN00018:  18    0.503774    0.528124  0.00000000
:BAN00019:  19    0.522346    0.534107  0.00000000
        Energy to separate low and high energystates:    0.19571


:NOE  : NUMBER OF ELECTRONS          =   13.000

:FER  : F E R M I - ENERGY(TETRAH.M.)=   0.4995176640
:GMA  : POTENTIAL AND CHARGE CUT-OFF  12.00 Ry**.5

:POS001: ATOM    1 X,Y,Z = 0.00000 0.00000 0.50000  MULT= 1  ZZ= 59.000  Pr        

       LMMAX  5
       LM=   0 0  4 0  4 4  6 0  6 4

:CHA001: TOTAL VALENCE CHARGE INSIDE SPHERE   1 =  10.0029    (RMT=  2.5000 )
:PCS001: PARTIAL CHARGES SPHERE =  1 S,P,D,F,      D-EG,D-T2G 
:QTL001: 2.0245 5.3556 0.5686 2.0540 0.0000 0.0000 0.0000 0.2035 0.3651 0.0000 0.0000 0.0000
        Q-s-low E-s-low   Q-p-low E-p-low   Q-d-low E-d-low   Q-f-low E-f-low
:EPL001:  1.9256 -2.1344    5.2901 -0.8168    0.0007 -0.7963    0.0002 -0.8001
        Q-s-hi  E-s-hi    Q-p-hi  E-p-hi    Q-d-hi  E-d-hi    Q-f-hi  E-f-hi 
:EPH001:  0.0990  0.3934    0.0655  0.4344    0.5679  0.4532    2.0538  0.4896

:CHA  : TOTAL VALENCE CHARGE INSIDE UNIT CELL =      13.000000

:SUM  : SUM OF EIGENVALUES =          -6.869233287


        1.ATOM      Pr                   14 CORE STATES
:1S 001: 1S               -3067.088114174 Ry
:2S 001: 2S                -492.839222043 Ry
:2PP001: 2P*               -465.938881472 Ry
:2P 001: 2P                -430.541202413 Ry
:3S 001: 3S                -105.924596456 Ry
:3PP001: 3P*                -94.462647445 Ry
:3P 001: 3P                 -87.454680598 Ry
:3DD001: 3D*                -67.382285071 Ry
:3D 001: 3D                 -65.870654121 Ry
:4S 001: 4S                 -20.606893418 Ry
:4PP001: 4P*                -16.314280482 Ry
:4P 001: 4P                 -14.787705905 Ry
:4DD001: 4D*                 -7.722317389 Ry
:4D 001: 4D                  -7.453207846 Ry
:CINT001 Core Integral Atom   1   45.999512

       DENSITY AT NUCLEUS
        JATOM        VALENCE       SEMI-CORE          CORE           TOTAL
:RTO001:   1      647.823298        0.000000   656823.860032   657471.683330
     
       CHARGES OF NEW CHARGE DENSITY
:NTO   : INTERSTITIAL CHARGE =     2.997086
:NPC   : PW Pseudocharge     =     7.571626
:NTO001: CHARGE SPHERE  1    =    56.002424

:NEC01: NUCLEAR AND ELECTRONIC CHARGE     59.00000    58.99951
     
       CHARGES OF OLD CHARGE DENSITY
:OTO   : INTERSTITIAL CHARGE =     2.944269
:OPC   : PW Pseudocharge     =     7.552570
:OTO001: CHARGE SPHERE  1    =    56.055731

:NEC02: NUCLEAR AND ELECTRONIC CHARGE     59.00000    59.00000
     
       CONVERGENCE TEST
:DTO001: DIFFERENCE IN SPHERE  1 =  0.0859234

:DIS  :  CHARGE DISTANCE       ( 0.0859234 for atom    1 spin 1)      0.0859234
 PW Mixed is           59
 
******************************************************
* MULTISECANT MIXING VER9 RELEASE 10.4.0              *
* Standard Mode with controls                        *
* Fixed density scale                                *
* Regularization       1.000E-04                     *
* Trust Upper Limit    5.000E+00                     *
* Max Number of Memory Steps    8                    *
******************************************************
 
:PWTMP   2.0594E+02  1.2500E+02  2.7139E+02
:PLANE:  PW TOTAL      2.8261 DISTAN   1.15E-02  4.07E-01 %
:CHARG:  CLM/ATOM    977.1832 DISTAN   1.61E-01  1.65E-02 %
 
Step History
        DMIX         DMIXT        Red     Pred      Trust     Lambda    MagRel    MagAbs     Beta
  1   3.5000E-02   3.5000E-02 -1.00E+00  1.00E+00 -1.00E+01  1.00E+00  3.50E-02  3.50E-02  1.00E+00
  2   1.2288E-01   1.2288E-01  1.24E+00  1.00E+00 -1.00E+01  1.00E+00  1.23E-01  4.13E-02  1.00E+00
  3   4.9709E-02   4.9709E-02 -1.00E+00  4.27E-01  3.00E+00  1.00E+00  4.10E-02  1.71E-02  8.00E-01
:JACOBIANS    1.236E-03   2.158E-01
  
:NORMS:  1/Froebius, Min, Max, Used   0.6574E-01  0.6241E-01  0.3525E+00  0.7852E-01
:INFO :  Number of Memory Steps    2 Skipping    0
:INFO :  SLambda=    3.0000000000  Max    3.0000000000
:PREDicted Charge, CTotal, PW Trust    1.519E-02   1.519E-02   1.606E-02
:PREDicted DMix, Beta, BLim   3.4450E-01  2.1933E+00  3.6917E-01

Eigenvalues, unscaled except for SY+YY
   #     SY Real        SY Imag          SS             YY         SY+YY Real      SY+YY Imag
   1   1.072966E-01   0.000000E+00   7.758435E-03   1.992042E+00   2.314020E+00   0.000000E+00
   2   2.845251E-03   0.000000E+00   8.848611E-04   7.957924E-03   1.640559E-02   0.000000E+00
 
:INFO :  Singular value  2.314E+00 Weight  1.000E+00 Projection  5.014E-02
:INFO :  Singular value  1.641E-02 Weight  9.999E-01 Projection -1.561E+00
:RANK :  ACTIVE   2.00/2  =  99.99 % ; YY RANK   2.00/2  =  99.97 %
 
:BLIM :  VZERO Control Off
:TRUST:  Step 8.18E-01  Charge 6.82E-02 (e) CTO  2.27E-01 (e) PW  3.18E-01 (e)
:DIRM :  MEMORY  2/8  SCALE   1.000 RED  0.39 PRED  0.43 NEXT  0.32 
:TRAVE:  Charge 7.48E-03 (e) CTO  7.48E-03 (e) PW  7.91E-03 (e)
:DIRP :  |MSR1|= 2.269E-03 |PRATT|= 1.150E-02 ANGLE=  29.7 DEGREES
:DIRQ :  |MSR1|= 5.122E-02 |PRATT|= 1.611E-01 ANGLE=  23.9 DEGREES
:DIRT :  |MSR1|= 5.127E-02 |PRATT|= 1.615E-01 ANGLE=  24.0 DEGREES
:MIX  :   MSE1   REGULARIZATION:  1.99E-04 GREED: 0.12427  Newton 1.00  0.3174                
     
       CHARGES OF MIXED CHARGE DENSITY
:CTO   : INTERSTITIAL CHARGE =     2.949712
:CPC   : PW Pseudocharge     =     7.557836
:CTO001: CHARGE SPHERE  1    =    56.050288

:NEC03: NUCLEAR AND ELECTRONIC CHARGE     59.00000    59.00000

PW CHANGE     H    K    L      Current       Change    Residue
:PTO001:      0    0    0  3.87177357E-02  3.946E-05  2.712E-04
:PTO002:     -1   -1   -1 -1.26141029E-01 -3.787E-05 -6.181E-07
:PTO003:      0    0   -2  7.57524201E-02  4.034E-05  1.972E-05
:PTO004:      0   -2   -2  6.86871374E-02 -2.752E-05 -9.726E-05
:PTO005:     -1   -1   -3 -6.88929854E-02  5.412E-05  2.178E-04
:PTO006:     -2   -2   -2  1.79488557E-02 -1.304E-05 -4.454E-05
:PTO007:      0    0   -4  3.84613576E-03 -7.345E-06 -3.913E-05
:PTO008:     -1   -3   -3 -4.59931166E-03  8.724E-05  2.112E-04
:PTO009:      0   -2   -4  1.48494089E-03 -8.631E-05 -2.332E-04
:PTO010:     -2   -2   -4 -5.27197476E-03 -3.328E-05 -7.600E-05
:PTO011:     -3   -3   -3  2.43745337E-03 -7.835E-06 -2.749E-05
:PTO012:     -1   -1   -5  6.88754061E-03  2.636E-05  8.625E-05

:ENE  : ********** TOTAL ENERGY IN Ry =       -18472.09560615

 Flat Integration
 New Mode for Coulomb Integral
 Consistent 3/8+Simpson combinations
 Extension of core to zero
 LDM version in phi
 Fifth-order quadrature in outwin


            ---------
:ITE016: 16. ITERATION
            ---------

:NATO :    1 INDEPENDENT AND    1 TOTAL ATOMS IN UNITCELL
       SUBSTANCE: blebleble                                                   

       LATTICE                      = F   
:POT  : POTENTIAL OPTION EX_LDA EC_LDA VX_LDA VC_LDA
:LAT  : LATTICE CONSTANTS= 10.27741 10.27741 10.27741    1.571    1.571    1.571
:VOL  : UNIT CELL VOLUME =     271.38850
       MODE OF CALCULATION IS       = RELA
       NON-SPINPOLARIZED CALCULATION
:IFFT  : FFT-parameters:   80   80   80 Factor: 2.00


   CONVERGENCE PARAMETER FOR PSEUDOCHARGE: NCON=  9
   MAXIMAL VALUE OF RMT(JATOM)*ABSK(NKK) : RK  =29.95033


:VKCOUL :  VK-COUL convergence: 0.119E-06
       ATOMNUMBER=  1 Pr         VCOUL-ZERO =  0.14414E+00
:FIT001: LUSE= 13 SIGMA OF V-XC FIT FOR ATOM  1  0.4463812E-04
:FIT001: LUSE= 13 SIGMA OF V-XC FIT FOR ATOM  1  0.4463812E-04
:DEN  : DENSITY INTEGRAL  =         -7066.84337983   (Ry)
       ELS_POTENTIAL_AT Z=0 and Z=0.5:  -2.38110  -2.38110
       ELS_POTENTIAL_AT Y=0 and Y=0.5:   0.00000   0.00000
:VZERO:v0,v0c,v0x  -3.32304  -2.38110  -0.94194 v5,v5c,v5x  -3.32304  -2.38110  -0.94194
:VZERY:v0,v0c,v0x  -0.67690   0.00000  -0.67690 v5,v5c,v5x  -0.67690   0.00000  -0.67690
:VZERX:v0,v0c,v0x  -0.67690   0.00000  -0.67690 v5,v5c,v5x  -0.67690   0.00000  -0.67690
:LMAX-WF:   10   Non-Spherical LMAX:   4

          ATOMIC SPHERE DEPENDENT PARAMETERS FOR ATOM  Pr        
:e__0001: OVERALL ENERGY PARAMETER IS    0.3008
          OVERALL BASIS SET ON ATOM IS LAPW
:E0_0001: E( 0)=    0.3008
             APW+lo
:E0_0001: E( 0)=   -2.1878   E(BOTTOM)=   -2.569   E(TOP)=   -1.806  4  5   159
             LOCAL ORBITAL
:E1_0001: E( 1)=    0.7008
             APW+lo
:E1_0001: E( 1)=   -0.8006   E(BOTTOM)=   -1.448   E(TOP)=   -0.154  3  4   166
             LOCAL ORBITAL
:E3_0001: E( 3)=    0.4895   E(BOTTOM)=    0.346   E(TOP)=    0.633  0  1   113
             APW+lo
:E2_0001: E( 2)=    0.3008   E(BOTTOM)=    0.128   E(TOP)= -200.000  2 -1    95
             APW+lo

       K=   0.00000   0.00000   0.00000            1
:RKM  : MATRIX SIZE   189LOs:  20  RKM= 7.94  WEIGHT= 1.00  PGR:    
       EIGENVALUES ARE:
:EIG00001:      -2.1445991   -0.7891908   -0.7891908   -0.7891908    0.2458223
:EIG00006:       0.4927982    0.5068670    0.5068670    0.5068670    0.5270580
:EIG00011:       0.5270580    0.5270580    0.6208047    0.6208047    0.6208047
:EIG00016:       0.7708344    0.7708344    1.1641196    1.3708326    1.3708326
:EIG00021:       1.3708326    1.4764045    2.0629678    2.0629678    2.0629678
:EIG00026:       2.1180999    2.1180999    2.1180999    2.3457953    2.3457953
:EIG00031:       2.6538091    2.8296875    2.8296875    2.8296875    3.2420362
:EIG00036:       3.2420362    3.4699691    3.4699691    3.4699691    3.5062003
:EIG00041:       3.5062003    3.5062003    3.6643066    3.6643066    3.6643066
:EIG00046:       3.8743790    3.9217322    3.9217322    3.9217322    4.0179091
 
:EIG00051:       4.0179091    4.0392614    4.0392614    4.0392614    4.0583733
:EIG00056:       4.0583733    4.0583733    4.1626136    4.2084200    4.3382825
:EIG00061:       4.3382825    4.3382825    4.4075599    4.4075599    4.4075599
:EIG00066:       4.5945766    5.6023083    5.6023083    5.6136515    5.8853058
:EIG00071:       5.8853058    5.8853058    6.2995697    6.2995697    6.4638124
:EIG00076:       6.4638124    6.4638124    6.5303612    6.5303612    6.5303612
:EIG00081:       6.8409555    6.8409555    6.8409555    6.8411913    6.8411913
:EIG00086:       6.8411913    6.8799462    6.8799462    6.9402228    6.9402228
:EIG00091:       6.9402228    7.0373603    7.0373603    7.0373603    7.0457171
:EIG00096:       7.0457171    7.0457171    7.1091798    7.2053758    7.2496336
 
:EIG00101:       7.2496336    7.3065574    7.3065574    7.3065574    7.3318390
:EIG00106:       7.3318390    7.3318390    7.3412262    7.3412262    7.3412262
:EIG00111:       7.4121395    7.4121395    7.6479329    7.6999922    7.9965842
:EIG00116:       7.9965842    7.9965842
       ********************************************************

:KPT   :      NUMBER OF K-POINTS:   165
   0.0   0.0 angle (M,z), angle (M,x) deg
 
        SPIN-ORBIT EIGENVALUES:
     K=   0.00000   0.00000   0.00000            1
      MATRIX SIZE=  234   WEIGHT= 1.00
     EIGENVALUES ARE:
          -2.1445991   -2.1445991   -0.9351304   -0.9351304   -0.7208973
          -0.7208973   -0.7208973   -0.7208973    0.2458223    0.2458223
           0.4875650    0.4875650    0.4955428    0.4955428    0.4955428
           0.4955428    0.5185398    0.5185398    0.5280677    0.5280677
           0.5345646    0.5345646    0.5345646    0.5345646    0.6171018
           0.6171018    0.6171018    0.6171018    0.6269983    0.6269983
           0.7712368    0.7712368    0.7712368    0.7712368    1.1641702
           1.1641702    1.3655626    1.3655626    1.3732172    1.3732172

           1.3732172    1.3732172    1.4764045    1.4764045    2.0506246
           2.0506246    2.0581510    2.0581510    2.0581510    2.0581510
           2.0721082    2.0721082    2.1527567    2.1527567    2.1527567
           2.1527567    2.3460789    2.3460789    2.3460789    2.3460789
           2.6538091    2.6538091    2.8292554    2.8292554    2.8299173
           2.8299173    2.8299173    2.8299173    3.2420135    3.2420135
           3.2420135    3.2420135    3.4686747    3.4686747    3.4686747
           3.4686747    3.4727960    3.4727960    3.4776033    3.4776033

           3.5217812    3.5217812    3.5217812    3.5217812    3.6642995
           3.6642995    3.6643102    3.6643102    3.6643102    3.6643102
           3.8743790    3.8743790    3.9216912    3.9216912    3.9216912
           3.9216912    3.9218190    3.9218190    4.0179091    4.0179091
           4.0179091    4.0179091    4.0391098    4.0391098    4.0393195
           4.0393195    4.0393195    4.0393195    4.0580962    4.0580962
           4.0580962    4.0580962    4.0589772    4.0589772    4.1626197
           4.1626197    4.2084200    4.2084200    4.3382254    4.3382254

           4.3382254    4.3382254    4.3384005    4.3384005    4.4068231
           4.4068231    4.4079766    4.4079766    4.4079766    4.4079766

       ********************************************************
:GAP (global)   :    0.0    Ry =     0.0   eV (metal)
:GAP (this spin):    0.0    Ry =     0.0   eV (metal)
         Bandranges (emin - emax) and occupancy:
:BAN00004:   4   -0.961677   -0.935130  1.00000000
:BAN00005:   5   -0.769724   -0.720897  1.00000000
:BAN00006:   6   -0.769724   -0.720897  1.00000000
:BAN00007:   7   -0.751846   -0.720897  1.00000000
:BAN00008:   8   -0.751846   -0.720897  1.00000000
:BAN00009:   9    0.245822    0.473145  1.00000000
:BAN00010:  10    0.245822    0.473145  1.00000000
:BAN00011:  11    0.437537    0.493111  1.00000000
:BAN00012:  12    0.437537    0.493111  1.00000000
:BAN00013:  13    0.486018    0.497628  0.50000005
:BAN00014:  14    0.486018    0.497628  0.49999995
:BAN00015:  15    0.495543    0.502764  0.00000000
:BAN00016:  16    0.495543    0.502764  0.00000000
:BAN00017:  17    0.497842    0.522424  0.00000000
:BAN00018:  18    0.497842    0.522424  0.00000000
:BAN00019:  19    0.517308    0.528068  0.00000000
        Energy to separate low and high energystates:    0.19582


:NOE  : NUMBER OF ELECTRONS          =   13.000

:FER  : F E R M I - ENERGY(TETRAH.M.)=   0.4941424358
:GMA  : POTENTIAL AND CHARGE CUT-OFF  12.00 Ry**.5

:POS001: ATOM    1 X,Y,Z = 0.00000 0.00000 0.50000  MULT= 1  ZZ= 59.000  Pr        

       LMMAX  5
       LM=   0 0  4 0  4 4  6 0  6 4

:CHA001: TOTAL VALENCE CHARGE INSIDE SPHERE   1 =  10.0912    (RMT=  2.5000 )
:PCS001: PARTIAL CHARGES SPHERE =  1 S,P,D,F,      D-EG,D-T2G 
:QTL001: 2.0239 5.3533 0.5355 2.1783 0.0000 0.0000 0.0000 0.1935 0.3420 0.0000 0.0000 0.0000
        Q-s-low E-s-low   Q-p-low E-p-low   Q-d-low E-d-low   Q-f-low E-f-low
:EPL001:  1.9258 -2.1378    5.2924 -0.8194    0.0007 -0.7988    0.0002 -0.8026
        Q-s-hi  E-s-hi    Q-p-hi  E-p-hi    Q-d-hi  E-d-hi    Q-f-hi  E-f-hi 
:EPH001:  0.0981  0.3923    0.0610  0.4297    0.5348  0.4497    2.1781  0.4848

:CHA  : TOTAL VALENCE CHARGE INSIDE UNIT CELL =      13.000000

:SUM  : SUM OF EIGENVALUES =          -6.904771149


        1.ATOM      Pr                   14 CORE STATES
:1S 001: 1S               -3067.102299738 Ry
:2S 001: 2S                -492.852726497 Ry
:2PP001: 2P*               -465.952535275 Ry
:2P 001: 2P                -430.554799916 Ry
:3S 001: 3S                -105.936560747 Ry
:3PP001: 3P*                -94.474704726 Ry
:3P 001: 3P                 -87.466627140 Ry
:3DD001: 3D*                -67.394492831 Ry
:3D 001: 3D                 -65.882826919 Ry
:4S 001: 4S                 -20.615646011 Ry
:4PP001: 4P*                -16.322890005 Ry
:4P 001: 4P                 -14.796073238 Ry
:4DD001: 4D*                 -7.730293214 Ry
:4D 001: 4D                  -7.461103494 Ry
:CINT001 Core Integral Atom   1   45.999514

       DENSITY AT NUCLEUS
        JATOM        VALENCE       SEMI-CORE          CORE           TOTAL
:RTO001:   1      647.968918        0.000000   656824.633226   657472.602143
     
       CHARGES OF NEW CHARGE DENSITY
:NTO   : INTERSTITIAL CHARGE =     2.908825
:NPC   : PW Pseudocharge     =     7.543939
:NTO001: CHARGE SPHERE  1    =    56.090688

:NEC01: NUCLEAR AND ELECTRONIC CHARGE     59.00000    58.99951
     
       CHARGES OF OLD CHARGE DENSITY
:OTO   : INTERSTITIAL CHARGE =     2.949712
:OPC   : PW Pseudocharge     =     7.557836
:OTO001: CHARGE SPHERE  1    =    56.050288

:NEC02: NUCLEAR AND ELECTRONIC CHARGE     59.00000    59.00000
     
       CONVERGENCE TEST
:DTO001: DIFFERENCE IN SPHERE  1 =  0.0724359

:DIS  :  CHARGE DISTANCE       ( 0.0724359 for atom    1 spin 1)      0.0724359
 PW Mixed is           59
 
******************************************************
* MULTISECANT MIXING VER9 RELEASE 10.4.0              *
* Standard Mode with controls                        *
* Fixed density scale                                *
* Regularization       1.000E-04                     *
* Trust Upper Limit    5.000E+00                     *
* Max Number of Memory Steps    8                    *
******************************************************
 
:PWTMP   2.0594E+02  1.2500E+02  2.7139E+02
:PLANE:  PW TOTAL      2.8274 DISTAN   8.18E-03  2.89E-01 %
:CHARG:  CLM/ATOM    977.1802 DISTAN   1.13E-01  1.16E-02 %
 
Step History
        DMIX         DMIXT        Red     Pred      Trust     Lambda    MagRel    MagAbs     Beta
  1   3.5000E-02   3.5000E-02 -1.00E+00  1.00E+00 -1.00E+01  1.00E+00  3.50E-02  3.50E-02  1.00E+00
  2   1.2288E-01   1.2288E-01  1.24E+00  1.00E+00 -1.00E+01  1.00E+00  1.23E-01  4.13E-02  1.00E+00
  3   4.9709E-02   4.9709E-02  3.87E-01  4.27E-01  3.00E+00  3.00E+00  4.10E-02  1.71E-02  8.00E-01
  4   1.2427E-01   1.2427E-01 -1.00E+00  3.15E-01  8.18E-01  1.00E+00  3.17E-01  5.13E-02  1.00E+00
:JACOBIANS    3.803E-03   6.283E-01
  
:NORMS:  1/Froebius, Min, Max, Used   0.2607E+00  0.2448E+00  0.9153E+00  0.2667E+00
:INFO :  Number of Memory Steps    3 Skipping    0
:INFO :  SLambda=    3.0000000000  Max    3.0000000000
:PREDicted Charge, CTotal, PW Trust    4.610E-03   4.610E-03   2.120E-03
:PREDicted DMix, Beta, BLim   3.1568E-01  2.3096E+00  8.8211E-01

Eigenvalues, unscaled except for SY+YY
   #     SY Real        SY Imag          SS             YY         SY+YY Real      SY+YY Imag
   1   2.182795E-01   0.000000E+00   1.962706E-01   2.758386E+00   3.192579E+00   0.000000E+00
   2   1.398224E-01   0.000000E+00   7.610664E-03   2.409478E-01   8.810532E-01   0.000000E+00
   3   6.978709E-05   0.000000E+00   7.333048E-06   6.659799E-04   8.829072E-04   0.000000E+00
 
:INFO :  Singular value  3.193E+00 Weight  1.000E+00 Projection -3.576E-02
:INFO :  Singular value  8.819E-01 Weight  1.000E+00 Projection -1.818E-01
:INFO :  Singular value  8.818E-04 Weight  9.109E-01 Projection -2.979E-01
:RANK :  ACTIVE   2.91/3  =  97.03 % ; YY RANK   2.85/3  =  95.12 %
 
:BLIM :  VZERO Control Off
:TRUST:  Step 1.40E+00  Charge 6.82E-02 (e) CTO  2.27E-01 (e) PW  3.18E-01 (e)
:DIRM :  MEMORY  3/8  SCALE   1.000 RED  0.70 PRED  0.32 NEXT  0.05 
:TRAVE:  Charge 4.15E-03 (e) CTO  4.15E-03 (e) PW  5.00E-03 (e)
:DIRP :  |MSR1|= 2.616E-03 |PRATT|= 8.178E-03 ANGLE=  65.1 DEGREES
:DIRQ :  |MSR1|= 6.698E-02 |PRATT|= 1.134E-01 ANGLE=  36.7 DEGREES
:DIRT :  |MSR1|= 6.704E-02 |PRATT|= 1.137E-01 ANGLE=  36.8 DEGREES
:MIX  :   MSE1   REGULARIZATION:  2.76E-04 GREED: 0.20499  Newton 1.00  0.5898                
     
       CHARGES OF MIXED CHARGE DENSITY
:CTO   : INTERSTITIAL CHARGE =     2.948898
:CPC   : PW Pseudocharge     =     7.554122
:CTO001: CHARGE SPHERE  1    =    56.051102

:NEC03: NUCLEAR AND ELECTRONIC CHARGE     59.00000    59.00000

PW CHANGE     H    K    L      Current       Change    Residue
:PTO001:      0    0    0  3.87010536E-02 -1.668E-05 -1.954E-04
:PTO002:     -1   -1   -1 -1.26044569E-01  9.646E-05  5.808E-05
:PTO003:      0    0   -2  7.57290365E-02 -2.338E-05  8.909E-05
:PTO004:      0   -2   -2  6.85745687E-02 -1.126E-04 -9.575E-05
:PTO005:     -1   -1   -3 -6.87822861E-02  1.107E-04 -1.991E-05
:PTO006:     -2   -2   -2  1.79242138E-02 -2.464E-05  8.909E-06
:PTO007:      0    0   -4  3.84470657E-03 -1.429E-06  3.125E-05
:PTO008:     -1   -3   -3 -4.51430654E-03  8.501E-05  9.108E-05
:PTO009:      0   -2   -4  1.40488551E-03 -8.006E-05 -7.267E-05
:PTO010:     -2   -2   -4 -5.28202599E-03 -1.005E-05  1.248E-05
:PTO011:     -3   -3   -3  2.41740646E-03 -2.005E-05 -3.522E-05
:PTO012:     -1   -1   -5  6.89516517E-03  7.625E-06 -1.994E-05

:ENE  : ********** TOTAL ENERGY IN Ry =       -18472.09560481

 Flat Integration
 New Mode for Coulomb Integral
 Consistent 3/8+Simpson combinations
 Extension of core to zero
 LDM version in phi
 Fifth-order quadrature in outwin


            ---------
:ITE017: 17. ITERATION
            ---------

:NATO :    1 INDEPENDENT AND    1 TOTAL ATOMS IN UNITCELL
       SUBSTANCE: blebleble                                                   

       LATTICE                      = F   
:POT  : POTENTIAL OPTION EX_LDA EC_LDA VX_LDA VC_LDA
:LAT  : LATTICE CONSTANTS= 10.27741 10.27741 10.27741    1.571    1.571    1.571
:VOL  : UNIT CELL VOLUME =     271.38850
       MODE OF CALCULATION IS       = RELA
       NON-SPINPOLARIZED CALCULATION
:IFFT  : FFT-parameters:   80   80   80 Factor: 2.00


   CONVERGENCE PARAMETER FOR PSEUDOCHARGE: NCON=  9
   MAXIMAL VALUE OF RMT(JATOM)*ABSK(NKK) : RK  =29.95033


:VKCOUL :  VK-COUL convergence: 0.107E-06
       ATOMNUMBER=  1 Pr         VCOUL-ZERO =  0.14412E+00
:FIT001: LUSE= 13 SIGMA OF V-XC FIT FOR ATOM  1  0.3988555E-04
:FIT001: LUSE= 13 SIGMA OF V-XC FIT FOR ATOM  1  0.3988555E-04
:DEN  : DENSITY INTEGRAL  =         -7066.99981076   (Ry)
       ELS_POTENTIAL_AT Z=0 and Z=0.5:  -2.37984  -2.37984
       ELS_POTENTIAL_AT Y=0 and Y=0.5:   0.00000   0.00000
:VZERO:v0,v0c,v0x  -3.32217  -2.37984  -0.94233 v5,v5c,v5x  -3.32217  -2.37984  -0.94233
:VZERY:v0,v0c,v0x  -0.67685   0.00000  -0.67685 v5,v5c,v5x  -0.67685   0.00000  -0.67685
:VZERX:v0,v0c,v0x  -0.67685   0.00000  -0.67685 v5,v5c,v5x  -0.67685   0.00000  -0.67685
:LMAX-WF:   10   Non-Spherical LMAX:   4

          ATOMIC SPHERE DEPENDENT PARAMETERS FOR ATOM  Pr        
:e__0001: OVERALL ENERGY PARAMETER IS    0.2964
          OVERALL BASIS SET ON ATOM IS LAPW
:E0_0001: E( 0)=    0.2964
             APW+lo
:E0_0001: E( 0)=   -2.1865   E(BOTTOM)=   -2.568   E(TOP)=   -1.805  4  5   159
             LOCAL ORBITAL
:E1_0001: E( 1)=    0.6964
             APW+lo
:E1_0001: E( 1)=   -0.7995   E(BOTTOM)=   -1.447   E(TOP)=   -0.152  3  4   163
             LOCAL ORBITAL
:E3_0001: E( 3)=    0.4920   E(BOTTOM)=    0.349   E(TOP)=    0.635  0  1   120
             APW+lo
:E2_0001: E( 2)=    0.2964   E(BOTTOM)=    0.128   E(TOP)= -200.000  2 -1    98
             APW+lo

       K=   0.00000   0.00000   0.00000            1
:RKM  : MATRIX SIZE   189LOs:  20  RKM= 7.94  WEIGHT= 1.00  PGR:    
       EIGENVALUES ARE:
:EIG00001:      -2.1433007   -0.7882030   -0.7882030   -0.7882030    0.2459028
:EIG00006:       0.4950798    0.5093263    0.5093263    0.5093263    0.5296939
:EIG00011:       0.5296939    0.5296939    0.6210499    0.6210499    0.6210499
:EIG00016:       0.7712308    0.7712308    1.1643716    1.3710530    1.3710530
:EIG00021:       1.3710530    1.4763832    2.0634824    2.0634824    2.0634824
:EIG00026:       2.1184057    2.1184057    2.1184057    2.3461434    2.3461434
:EIG00031:       2.6540381    2.8297684    2.8297684    2.8297684    3.2424525
:EIG00036:       3.2424525    3.4702610    3.4702610    3.4702610    3.5063054
:EIG00041:       3.5063054    3.5063054    3.6644071    3.6644071    3.6644071
:EIG00046:       3.8746440    3.9217208    3.9217208    3.9217208    4.0178101
 
:EIG00051:       4.0178101    4.0391887    4.0391887    4.0391887    4.0583633
:EIG00056:       4.0583633    4.0583633    4.1624986    4.2085401    4.3382383
:EIG00061:       4.3382383    4.3382383    4.4075088    4.4075088    4.4075088
:EIG00066:       4.5945095    5.6026555    5.6026555    5.6139080    5.8854072
:EIG00071:       5.8854072    5.8854072    6.3006041    6.3006041    6.4648894
:EIG00076:       6.4648894    6.4648894    6.5307673    6.5307673    6.5307673
:EIG00081:       6.8414351    6.8414351    6.8414351    6.8416372    6.8416372
:EIG00086:       6.8416372    6.8799387    6.8799387    6.9402822    6.9402822
:EIG00091:       6.9402822    7.0375953    7.0375953    7.0375953    7.0458165
:EIG00096:       7.0458165    7.0458165    7.1094440    7.2053313    7.2500644
 
:EIG00101:       7.2500644    7.3066033    7.3066033    7.3066033    7.3317787
:EIG00106:       7.3317787    7.3317787    7.3413259    7.3413259    7.3413259
:EIG00111:       7.4122993    7.4122993    7.6477711    7.7003741
       ********************************************************

:KPT   :      NUMBER OF K-POINTS:   165
   0.0   0.0 angle (M,z), angle (M,x) deg
 
        SPIN-ORBIT EIGENVALUES:
     K=   0.00000   0.00000   0.00000            1
      MATRIX SIZE=  228   WEIGHT= 1.00
     EIGENVALUES ARE:
          -2.1433007   -2.1433007   -0.9340592   -0.9340592   -0.7199377
          -0.7199377   -0.7199377   -0.7199377    0.2459028    0.2459028
           0.4899037    0.4899037    0.4980419    0.4980419    0.4980419
           0.4980419    0.5209846    0.5209846    0.5306489    0.5306489
           0.5371665    0.5371665    0.5371665    0.5371665    0.6173522
           0.6173522    0.6173522    0.6173522    0.6272368    0.6272368
           0.7716318    0.7716318    0.7716318    0.7716318    1.1644227
           1.1644227    1.3657927    1.3657927    1.3734336    1.3734336

           1.3734336    1.3734336    1.4763832    1.4763832    2.0509467
           2.0509467    2.0586706    2.0586706    2.0586706    2.0586706
           2.0726136    2.0726136    2.1530621    2.1530621    2.1530621
           2.1530621    2.3464265    2.3464265    2.3464265    2.3464265
           2.6540381    2.6540381    2.8293354    2.8293354    2.8299987
           2.8299987    2.8299987    2.8299987    3.2424298    3.2424298
           3.2424298    3.2424298    3.4689676    3.4689676    3.4689676
           3.4689676    3.4730854    3.4730854    3.4777108    3.4777108

           3.5218897    3.5218897    3.5218897    3.5218897    3.6644000
           3.6644000    3.6644106    3.6644106    3.6644106    3.6644106
           3.8746440    3.8746440    3.9216799    3.9216799    3.9216799
           3.9216799    3.9218075    3.9218075    4.0178101    4.0178101
           4.0178101    4.0178101    4.0390367    4.0390367    4.0392469
           4.0392469    4.0392469    4.0392469    4.0580857    4.0580857
           4.0580857    4.0580857    4.0589681    4.0589681    4.1625047
           4.1625047    4.2085401    4.2085401    4.3381812    4.3381812

           4.3381812    4.3381812    4.3383563    4.3383563    4.4067736
           4.4067736    4.4079251    4.4079251    4.4079251    4.4079251

       ********************************************************
:GAP (global)   :    0.0    Ry =     0.0   eV (metal)
:GAP (this spin):    0.0    Ry =     0.0   eV (metal)
         Bandranges (emin - emax) and occupancy:
:BAN00004:   4   -0.960672   -0.934059  1.00000000
:BAN00005:   5   -0.768848   -0.719938  1.00000000
:BAN00006:   6   -0.768848   -0.719938  1.00000000
:BAN00007:   7   -0.750942   -0.719938  1.00000000
:BAN00008:   8   -0.750942   -0.719938  1.00000000
:BAN00009:   9    0.245903    0.474441  1.00000000
:BAN00010:  10    0.245903    0.474441  1.00000000
:BAN00011:  11    0.437674    0.495239  1.00000000
:BAN00012:  12    0.437674    0.495239  1.00000000
:BAN00013:  13    0.487978    0.500156  0.50000012
:BAN00014:  14    0.487978    0.500156  0.49999988
:BAN00015:  15    0.498042    0.504783  0.00000000
:BAN00016:  16    0.498042    0.504783  0.00000000
:BAN00017:  17    0.500364    0.524812  0.00000000
:BAN00018:  18    0.500364    0.524812  0.00000000
:BAN00019:  19    0.519500    0.530649  0.00000000
        Energy to separate low and high energystates:    0.19590


:NOE  : NUMBER OF ELECTRONS          =   13.000

:FER  : F E R M I - ENERGY(TETRAH.M.)=   0.4964302975
:GMA  : POTENTIAL AND CHARGE CUT-OFF  12.00 Ry**.5

:POS001: ATOM    1 X,Y,Z = 0.00000 0.00000 0.50000  MULT= 1  ZZ= 59.000  Pr        

       LMMAX  5
       LM=   0 0  4 0  4 4  6 0  6 4

:CHA001: TOTAL VALENCE CHARGE INSIDE SPHERE   1 =  10.0547    (RMT=  2.5000 )
:PCS001: PARTIAL CHARGES SPHERE =  1 S,P,D,F,      D-EG,D-T2G 
:QTL001: 2.0242 5.3543 0.5496 2.1265 0.0000 0.0000 0.0000 0.1976 0.3519 0.0000 0.0000 0.0000
        Q-s-low E-s-low   Q-p-low E-p-low   Q-d-low E-d-low   Q-f-low E-f-low
:EPL001:  1.9257 -2.1365    5.2915 -0.8184    0.0007 -0.7979    0.0002 -0.8017
        Q-s-hi  E-s-hi    Q-p-hi  E-p-hi    Q-d-hi  E-d-hi    Q-f-hi  E-f-hi 
:EPH001:  0.0985  0.3929    0.0628  0.4317    0.5489  0.4512    2.1263  0.4868

:CHA  : TOTAL VALENCE CHARGE INSIDE UNIT CELL =      13.000000

:SUM  : SUM OF EIGENVALUES =          -6.890558547


        1.ATOM      Pr                   14 CORE STATES
:1S 001: 1S               -3067.100803639 Ry
:2S 001: 2S                -492.850494485 Ry
:2PP001: 2P*               -465.950464489 Ry
:2P 001: 2P                -430.552668768 Ry
:3S 001: 3S                -105.933074401 Ry
:3PP001: 3P*                -94.471282426 Ry
:3P 001: 3P                 -87.463150422 Ry
:3DD001: 3D*                -67.391177563 Ry
:3D 001: 3D                 -65.879490274 Ry
:4S 001: 4S                 -20.612047846 Ry
:4PP001: 4P*                -16.319348434 Ry
:4P 001: 4P                 -14.792596579 Ry
:4DD001: 4D*                 -7.726976477 Ry
:4D 001: 4D                  -7.457812034 Ry
:CINT001 Core Integral Atom   1   45.999513

       DENSITY AT NUCLEUS
        JATOM        VALENCE       SEMI-CORE          CORE           TOTAL
:RTO001:   1      647.897318        0.000000   656824.767006   657472.664324
     
       CHARGES OF NEW CHARGE DENSITY
:NTO   : INTERSTITIAL CHARGE =     2.945255
:NPC   : PW Pseudocharge     =     7.555930
:NTO001: CHARGE SPHERE  1    =    56.054257

:NEC01: NUCLEAR AND ELECTRONIC CHARGE     59.00000    58.99951
     
       CHARGES OF OLD CHARGE DENSITY
:OTO   : INTERSTITIAL CHARGE =     2.948898
:OPC   : PW Pseudocharge     =     7.554122
:OTO001: CHARGE SPHERE  1    =    56.051102

:NEC02: NUCLEAR AND ELECTRONIC CHARGE     59.00000    59.00000
     
       CONVERGENCE TEST
:DTO001: DIFFERENCE IN SPHERE  1 =  0.0063131

:DIS  :  CHARGE DISTANCE       ( 0.0063131 for atom    1 spin 1)      0.0063131
 PW Mixed is           59
 
******************************************************
* MULTISECANT MIXING VER9 RELEASE 10.4.0              *
* Standard Mode with controls                        *
* Fixed density scale                                *
* Regularization       1.000E-04                     *
* Trust Upper Limit    5.000E+00                     *
* Max Number of Memory Steps    8                    *
******************************************************
 
:PWTMP   2.0594E+02  1.2500E+02  2.7139E+02
:PLANE:  PW TOTAL      2.8254 DISTAN   1.53E-03  5.43E-02 %
:CHARG:  CLM/ATOM    977.1777 DISTAN   2.09E-02  2.14E-03 %
 
Step History
        DMIX         DMIXT        Red     Pred      Trust     Lambda    MagRel    MagAbs     Beta
  1   3.5000E-02   3.5000E-02 -1.00E+00  1.00E+00 -1.00E+01  1.00E+00  3.50E-02  3.50E-02  1.00E+00
  2   1.2288E-01   1.2288E-01  1.24E+00  1.00E+00 -1.00E+01  1.00E+00  1.23E-01  4.13E-02  1.00E+00
  3   4.9709E-02   4.9709E-02  3.87E-01  4.27E-01  3.00E+00  3.00E+00  4.10E-02  1.71E-02  8.00E-01
  4   1.2427E-01   1.2427E-01  7.04E-01  3.15E-01  8.18E-01  3.00E+00  3.17E-01  5.13E-02  1.00E+00
  5   2.0499E-01   2.0499E-01 -1.00E+00  5.41E-02  1.40E+00  1.00E+00  5.90E-01  6.70E-02  1.00E+00
:JACOBIANS    6.963E-03   9.182E-01
  
:NORMS:  1/Froebius, Min, Max, Used   0.5831E+00  0.3350E+00  0.9687E+00  0.7287E+00
:INFO :  Number of Memory Steps    4 Skipping    0
:INFO :  SLambda=    1.1677748514  Max    1.1677748514
:PREDicted Charge, CTotal, PW Trust    5.002E-04   5.002E-04   1.742E-03
:PREDicted DMix, Beta, BLim   1.2915E-01  1.1049E+00  9.5869E-01

Eigenvalues, unscaled except for SY+YY
   #     SY Real        SY Imag          SS             YY         SY+YY Real      SY+YY Imag
   1   1.411188E+00   0.000000E+00   1.353065E+00   2.548363E+00   3.211789E+00   0.000000E+00
   2   1.298902E-01   0.000000E+00   7.116497E-03   1.450621E+00   2.586830E+00   0.000000E+00
   3   4.957484E-05   0.000000E+00   3.565600E-05   7.661348E-04   3.121207E-04   0.000000E+00
   4   9.065881E-05   0.000000E+00   4.316215E-06   2.499911E-04   8.661848E-04   0.000000E+00
 
:INFO :  Singular value  3.213E+00 Weight  1.000E+00 Projection -1.437E-02
:INFO :  Singular value  2.586E+00 Weight  1.000E+00 Projection  2.570E-03
:INFO :  Singular value  8.754E-04 Weight  9.219E-01 Projection -3.177E-01
:INFO :  Singular value  3.088E-04 Weight  5.948E-01 Projection -8.551E-03
:RANK :  ACTIVE   3.52/4  =  87.92 % ; YY RANK   3.39/4  =  84.77 %
 
:BLIM :  VZERO Control Off
:TRUST:  Step 1.86E+00  Charge 5.45E-02 (e) CTO  1.82E-01 (e) PW  2.55E-01 (e)
:DIRM :  MEMORY  4/8  SCALE   1.000 RED  0.18 PRED  0.05 NEXT  0.17 
:TRAVE:  Charge 2.20E-03 (e) CTO  2.20E-03 (e) PW  2.75E-03 (e)
:DIRP :  |MSR1|= 3.183E-04 |PRATT|= 1.534E-03 ANGLE=  42.4 DEGREES
:DIRQ :  |MSR1|= 7.152E-03 |PRATT|= 2.093E-02 ANGLE=  26.4 DEGREES
:DIRT :  |MSR1|= 7.159E-03 |PRATT|= 2.098E-02 ANGLE=  26.5 DEGREES
:MIX  :   MSE1   REGULARIZATION:  2.55E-04 GREED: 0.13940  Newton 1.00  0.3411                
     
       CHARGES OF MIXED CHARGE DENSITY
:CTO   : INTERSTITIAL CHARGE =     2.949152
:CPC   : PW Pseudocharge     =     7.554960
:CTO001: CHARGE SPHERE  1    =    56.050848

:NEC03: NUCLEAR AND ELECTRONIC CHARGE     59.00000    59.00000

PW CHANGE     H    K    L      Current       Change    Residue
:PTO001:      0    0    0  3.87050767E-02  4.023E-06 -3.578E-07
:PTO002:     -1   -1   -1 -1.26054914E-01 -1.035E-05 -6.336E-05
:PTO003:      0    0   -2  7.57391583E-02  1.012E-05  6.309E-05
:PTO004:      0   -2   -2  6.85746743E-02  1.056E-07  3.053E-05
:PTO005:     -1   -1   -3 -6.87817904E-02  4.957E-07 -4.931E-05
:PTO006:     -2   -2   -2  1.79252645E-02  1.051E-06  1.893E-05
:PTO007:      0    0   -4  3.84419214E-03 -5.144E-07  3.460E-06
:PTO008:     -1   -3   -3 -4.50437875E-03  9.928E-06  1.690E-05
:PTO009:      0   -2   -4  1.39363272E-03 -1.125E-05 -2.499E-05
:PTO010:     -2   -2   -4 -5.28478479E-03 -2.759E-06 -4.102E-07
:PTO011:     -3   -3   -3  2.41538364E-03 -2.023E-06 -8.607E-06
:PTO012:     -1   -1   -5  6.89892235E-03  3.757E-06  9.351E-06

:ENE  : ********** TOTAL ENERGY IN Ry =       -18472.09549383

 Flat Integration
 New Mode for Coulomb Integral
 Consistent 3/8+Simpson combinations
 Extension of core to zero
 LDM version in phi
 Fifth-order quadrature in outwin


            ---------
:ITE018: 18. ITERATION
            ---------

:NATO :    1 INDEPENDENT AND    1 TOTAL ATOMS IN UNITCELL
       SUBSTANCE: blebleble                                                   

       LATTICE                      = F   
:POT  : POTENTIAL OPTION EX_LDA EC_LDA VX_LDA VC_LDA
:LAT  : LATTICE CONSTANTS= 10.27741 10.27741 10.27741    1.571    1.571    1.571
:VOL  : UNIT CELL VOLUME =     271.38850
       MODE OF CALCULATION IS       = RELA
       NON-SPINPOLARIZED CALCULATION
:IFFT  : FFT-parameters:   80   80   80 Factor: 2.00


   CONVERGENCE PARAMETER FOR PSEUDOCHARGE: NCON=  9
   MAXIMAL VALUE OF RMT(JATOM)*ABSK(NKK) : RK  =29.95033


:VKCOUL :  VK-COUL convergence: 0.106E-06
       ATOMNUMBER=  1 Pr         VCOUL-ZERO =  0.14414E+00
:FIT001: LUSE= 13 SIGMA OF V-XC FIT FOR ATOM  1  0.3939784E-04
:FIT001: LUSE= 13 SIGMA OF V-XC FIT FOR ATOM  1  0.3939784E-04
:DEN  : DENSITY INTEGRAL  =         -7066.98580851   (Ry)
       ELS_POTENTIAL_AT Z=0 and Z=0.5:  -2.38006  -2.38006
       ELS_POTENTIAL_AT Y=0 and Y=0.5:   0.00000   0.00000
:VZERO:v0,v0c,v0x  -3.32247  -2.38006  -0.94241 v5,v5c,v5x  -3.32247  -2.38006  -0.94241
:VZERY:v0,v0c,v0x  -0.67687   0.00000  -0.67687 v5,v5c,v5x  -0.67687   0.00000  -0.67687
:VZERX:v0,v0c,v0x  -0.67687   0.00000  -0.67687 v5,v5c,v5x  -0.67687   0.00000  -0.67687
:LMAX-WF:   10   Non-Spherical LMAX:   4

          ATOMIC SPHERE DEPENDENT PARAMETERS FOR ATOM  Pr        
:e__0001: OVERALL ENERGY PARAMETER IS    0.2964
          OVERALL BASIS SET ON ATOM IS LAPW
:E0_0001: E( 0)=    0.2964
             APW+lo
:E0_0001: E( 0)=   -2.1866   E(BOTTOM)=   -2.568   E(TOP)=   -1.805  4  5   161
             LOCAL ORBITAL
:E1_0001: E( 1)=    0.6964
             APW+lo
:E1_0001: E( 1)=   -0.7996   E(BOTTOM)=   -1.447   E(TOP)=   -0.152  3  4   161
             LOCAL ORBITAL
:E3_0001: E( 3)=    0.4919   E(BOTTOM)=    0.349   E(TOP)=    0.635  0  1   119
             APW+lo
:E2_0001: E( 2)=    0.2964   E(BOTTOM)=    0.128   E(TOP)= -200.000  2 -1    96
             APW+lo

       K=   0.00000   0.00000   0.00000            1
:RKM  : MATRIX SIZE   189LOs:  20  RKM= 7.94  WEIGHT= 1.00  PGR:    
       EIGENVALUES ARE:
:EIG00001:      -2.1434015   -0.7882810   -0.7882810   -0.7882810    0.2459313
:EIG00006:       0.4949396    0.5091493    0.5091493    0.5091493    0.5295252
:EIG00011:       0.5295252    0.5295252    0.6210428    0.6210428    0.6210428
:EIG00016:       0.7712075    0.7712075    1.1643858    1.3710786    1.3710786
:EIG00021:       1.3710786    1.4764420    2.0634729    2.0634729    2.0634729
:EIG00026:       2.1184037    2.1184037    2.1184037    2.3461396    2.3461396
:EIG00031:       2.6540492    2.8297838    2.8297838    2.8297838    3.2424625
:EIG00036:       3.2424625    3.4702746    3.4702746    3.4702746    3.5063363
:EIG00041:       3.5063363    3.5063363    3.6644212    3.6644212    3.6644212
:EIG00046:       3.8746683    3.9217527    3.9217527    3.9217527    4.0178451
 
:EIG00051:       4.0178451    4.0392175    4.0392175    4.0392175    4.0583978
:EIG00056:       4.0583978    4.0583978    4.1625371    4.2085616    4.3382854
:EIG00061:       4.3382854    4.3382854    4.4075487    4.4075487    4.4075487
:EIG00066:       4.5945539    5.6026777    5.6026777    5.6139329    5.8854342
:EIG00071:       5.8854342    5.8854342    6.3005823    6.3005823    6.4648757
:EIG00076:       6.4648757    6.4648757    6.5307645    6.5307645    6.5307645
:EIG00081:       6.8414557    6.8414557    6.8414557    6.8416510    6.8416510
:EIG00086:       6.8416510    6.8799665    6.8799665    6.9403102    6.9403102
:EIG00091:       6.9403102    7.0376168    7.0376168    7.0376168    7.0458396
:EIG00096:       7.0458396    7.0458396    7.1094818    7.2053550    7.2500868
 
:EIG00101:       7.2500868    7.3066438    7.3066438    7.3066438    7.3318244
:EIG00106:       7.3318244    7.3318244    7.3413683    7.3413683    7.3413683
:EIG00111:       7.4123393    7.4123393    7.6478228    7.7003891
       ********************************************************

:KPT   :      NUMBER OF K-POINTS:   165
   0.0   0.0 angle (M,z), angle (M,x) deg
 
        SPIN-ORBIT EIGENVALUES:
     K=   0.00000   0.00000   0.00000            1
      MATRIX SIZE=  228   WEIGHT= 1.00
     EIGENVALUES ARE:
          -2.1434015   -2.1434015   -0.9341424   -0.9341424   -0.7200131
          -0.7200131   -0.7200131   -0.7200131    0.2459313    0.2459313
           0.4897590    0.4897590    0.4978650    0.4978650    0.4978650
           0.4978650    0.5208088    0.5208088    0.5304845    0.5304845
           0.5369973    0.5369973    0.5369973    0.5369973    0.6173446
           0.6173446    0.6173446    0.6173446    0.6272302    0.6272302
           0.7716087    0.7716087    0.7716087    0.7716087    1.1644368
           1.1644368    1.3658176    1.3658176    1.3734596    1.3734596

           1.3734596    1.3734596    1.4764420    1.4764420    2.0509442
           2.0509442    2.0586610    2.0586610    2.0586610    2.0586610
           2.0726042    2.0726042    2.1530604    2.1530604    2.1530604
           2.1530604    2.3464227    2.3464227    2.3464227    2.3464227
           2.6540492    2.6540492    2.8293508    2.8293508    2.8300141
           2.8300141    2.8300141    2.8300141    3.2424398    3.2424398
           3.2424398    3.2424398    3.4689813    3.4689813    3.4689813
           3.4689813    3.4730989    3.4730989    3.4777427    3.4777427

           3.5219201    3.5219201    3.5219201    3.5219201    3.6644141
           3.6644141    3.6644247    3.6644247    3.6644247    3.6644247
           3.8746683    3.8746683    3.9217118    3.9217118    3.9217118
           3.9217118    3.9218395    3.9218395    4.0178451    4.0178451
           4.0178451    4.0178451    4.0390656    4.0390656    4.0392758
           4.0392758    4.0392758    4.0392758    4.0581203    4.0581203
           4.0581203    4.0581203    4.0590026    4.0590026    4.1625432
           4.1625432    4.2085616    4.2085616    4.3382284    4.3382284

           4.3382284    4.3382284    4.3384034    4.3384034    4.4068136
           4.4068136    4.4079649    4.4079649    4.4079649    4.4079649

       ********************************************************
:GAP (global)   :    0.0    Ry =     0.0   eV (metal)
:GAP (this spin):    0.0    Ry =     0.0   eV (metal)
         Bandranges (emin - emax) and occupancy:
:BAN00004:   4   -0.960750   -0.934142  1.00000000
:BAN00005:   5   -0.768916   -0.720013  1.00000000
:BAN00006:   6   -0.768916   -0.720013  1.00000000
:BAN00007:   7   -0.751012   -0.720013  1.00000000
:BAN00008:   8   -0.751012   -0.720013  1.00000000
:BAN00009:   9    0.245931    0.474365  1.00000000
:BAN00010:  10    0.245931    0.474365  1.00000000
:BAN00011:  11    0.437682    0.495107  1.00000000
:BAN00012:  12    0.437682    0.495107  1.00000000
:BAN00013:  13    0.487847    0.499985  0.50000007
:BAN00014:  14    0.487847    0.499985  0.49999992
:BAN00015:  15    0.497865    0.504654  0.00000000
:BAN00016:  16    0.497865    0.504654  0.00000000
:BAN00017:  17    0.500194    0.524659  0.00000000
:BAN00018:  18    0.500194    0.524659  0.00000000
:BAN00019:  19    0.519366    0.530484  0.00000000
        Energy to separate low and high energystates:    0.19593


:NOE  : NUMBER OF ELECTRONS          =   13.000

:FER  : F E R M I - ENERGY(TETRAH.M.)=   0.4962778349
:GMA  : POTENTIAL AND CHARGE CUT-OFF  12.00 Ry**.5

:POS001: ATOM    1 X,Y,Z = 0.00000 0.00000 0.50000  MULT= 1  ZZ= 59.000  Pr        

       LMMAX  5
       LM=   0 0  4 0  4 4  6 0  6 4

:CHA001: TOTAL VALENCE CHARGE INSIDE SPHERE   1 =  10.0576    (RMT=  2.5000 )
:PCS001: PARTIAL CHARGES SPHERE =  1 S,P,D,F,      D-EG,D-T2G 
:QTL001: 2.0242 5.3543 0.5485 2.1305 0.0000 0.0000 0.0000 0.1973 0.3512 0.0000 0.0000 0.0000
        Q-s-low E-s-low   Q-p-low E-p-low   Q-d-low E-d-low   Q-f-low E-f-low
:EPL001:  1.9257 -2.1366    5.2916 -0.8185    0.0007 -0.7980    0.0002 -0.8018
        Q-s-hi  E-s-hi    Q-p-hi  E-p-hi    Q-d-hi  E-d-hi    Q-f-hi  E-f-hi 
:EPH001:  0.0984  0.3928    0.0627  0.4316    0.5479  0.4511    2.1303  0.4867

:CHA  : TOTAL VALENCE CHARGE INSIDE UNIT CELL =      13.000000

:SUM  : SUM OF EIGENVALUES =          -6.891530594


        1.ATOM      Pr                   14 CORE STATES
:1S 001: 1S               -3067.101120473 Ry
:2S 001: 2S                -492.850817925 Ry
:2PP001: 2P*               -465.950786650 Ry
:2P 001: 2P                -430.552991386 Ry
:3S 001: 3S                -105.933390670 Ry
:3PP001: 3P*                -94.471599534 Ry
:3P 001: 3P                 -87.463465984 Ry
:3DD001: 3D*                -67.391496380 Ry
:3D 001: 3D                 -65.879808721 Ry
:4S 001: 4S                 -20.612289752 Ry
:4PP001: 4P*                -16.319586674 Ry
:4P 001: 4P                 -14.792828738 Ry
:4DD001: 4D*                 -7.727199019 Ry
:4D 001: 4D                  -7.458032587 Ry
:CINT001 Core Integral Atom   1   45.999513

       DENSITY AT NUCLEUS
        JATOM        VALENCE       SEMI-CORE          CORE           TOTAL
:RTO001:   1      647.901475        0.000000   656824.779966   657472.681441
     
       CHARGES OF NEW CHARGE DENSITY
:NTO   : INTERSTITIAL CHARGE =     2.942423
:NPC   : PW Pseudocharge     =     7.555073
:NTO001: CHARGE SPHERE  1    =    56.057089

:NEC01: NUCLEAR AND ELECTRONIC CHARGE     59.00000    58.99951
     
       CHARGES OF OLD CHARGE DENSITY
:OTO   : INTERSTITIAL CHARGE =     2.949152
:OPC   : PW Pseudocharge     =     7.554960
:OTO001: CHARGE SPHERE  1    =    56.050848

:NEC02: NUCLEAR AND ELECTRONIC CHARGE     59.00000    59.00000
     
       CONVERGENCE TEST
:DTO001: DIFFERENCE IN SPHERE  1 =  0.0111214

:DIS  :  CHARGE DISTANCE       ( 0.0111214 for atom    1 spin 1)      0.0111214
 PW Mixed is           59
 
******************************************************
* MULTISECANT MIXING VER9 RELEASE 10.4.0              *
* Standard Mode with controls                        *
* Fixed density scale                                *
* Regularization       1.000E-04                     *
* Trust Upper Limit    5.000E+00                     *
* Max Number of Memory Steps    8                    *
******************************************************
 
:PWTMP   2.0594E+02  1.2500E+02  2.7139E+02
:PLANE:  PW TOTAL      2.8257 DISTAN   1.53E-03  5.43E-02 %
:CHARG:  CLM/ATOM    977.1777 DISTAN   1.69E-02  1.73E-03 %
 
Step History
        DMIX         DMIXT        Red     Pred      Trust     Lambda    MagRel    MagAbs     Beta
  1   3.5000E-02   3.5000E-02 -1.00E+00  1.00E+00 -1.00E+01  1.00E+00  3.50E-02  3.50E-02  1.00E+00
  2   1.2288E-01   1.2288E-01  1.24E+00  1.00E+00 -1.00E+01  1.00E+00  1.23E-01  4.13E-02  1.00E+00
  3   4.9709E-02   4.9709E-02  3.87E-01  4.27E-01  3.00E+00  3.00E+00  4.10E-02  1.71E-02  8.00E-01
  4   1.2427E-01   1.2427E-01  7.04E-01  3.15E-01  8.18E-01  3.00E+00  3.17E-01  5.13E-02  1.00E+00
  5   2.0499E-01   2.0499E-01  1.85E-01  5.41E-02  1.40E+00  1.17E+00  5.90E-01  6.70E-02  1.00E+00
  6   1.3940E-01   1.3940E-01 -1.00E+00  1.69E-01  1.86E+00  1.00E+00  3.41E-01  7.16E-03  1.00E+00
:JACOBIANS    1.659E-02   1.286E+00
  
:NORMS:  1/Froebius, Min, Max, Used   0.6496E+00  0.3662E+00  0.1010E+01  0.8532E+00
:INFO :  Number of Memory Steps    5 Skipping    0
:INFO :  SLambda=    1.4475423216  Max    1.4475423216
:PREDicted Charge, CTotal, PW Trust    4.818E-05   4.818E-05   1.210E-03
:PREDicted DMix, Beta, BLim   3.1561E-01  2.2030E+00  7.5687E-01

Eigenvalues, unscaled except for SY+YY
   #     SY Real        SY Imag          SS             YY         SY+YY Real      SY+YY Imag
   1   2.163406E+00   0.000000E+00   2.089318E+00   2.870360E+00   5.472507E+00   0.000000E+00
   2   1.407472E-01   0.000000E+00   1.449385E-02   2.094946E+00   2.827712E+00   0.000000E+00
   3   1.948165E-02   0.000000E+00   6.344809E-03   3.428271E-02   6.294194E-02   0.000000E+00
   4   4.890855E-05   0.000000E+00   9.939156E-06   2.646296E-04   3.277025E-04   0.000000E+00
   5   1.429876E-05   0.000000E+00   1.472251E-06   1.458683E-04   1.636853E-04   0.000000E+00
 
[...]
:CHARG:  CLM/ATOM    977.1785 DISTAN   1.55E-04  1.58E-05 %
 
Step History
        DMIX         DMIXT        Red     Pred      Trust     Lambda    MagRel    MagAbs     Beta
  1   3.5000E-02   3.5000E-02 -1.00E+00  1.00E+00 -1.00E+01  1.00E+00  3.50E-02  3.50E-02  1.00E+00
  2   1.2288E-01   1.2288E-01  1.24E+00  1.00E+00 -1.00E+01  1.00E+00  1.23E-01  4.13E-02  1.00E+00
  3   4.9709E-02   4.9709E-02  3.87E-01  4.27E-01  3.00E+00  3.00E+00  4.10E-02  1.71E-02  8.00E-01
  4   1.2427E-01   1.2427E-01  7.04E-01  3.15E-01  8.18E-01  3.00E+00  3.17E-01  5.13E-02  1.00E+00
  5   2.0499E-01   2.0499E-01  1.85E-01  5.41E-02  1.40E+00  1.17E+00  5.90E-01  6.70E-02  1.00E+00
  6   1.3940E-01   1.3940E-01  8.11E-01  1.69E-01  1.86E+00  1.45E+00  3.41E-01  7.16E-03  1.00E+00
  7   2.3007E-01   2.3007E-01  1.73E-01  1.19E-01  2.29E+00  1.03E+00  5.26E-01  8.95E-03  1.00E+00
  8   1.1647E-01   1.1647E-01  7.53E-01  4.51E-01  3.06E+00  1.13E+00  2.71E-01  7.99E-04  1.00E+00
  9   2.9117E-01   2.9117E-01 -1.00E+00  7.52E-02  4.06E+00  1.00E+00  9.34E-01  2.07E-03  1.00E+00
:JACOBIANS    7.405E-02   2.225E+00
  
:NORMS:  1/Froebius, Min, Max, Used   0.7577E+00  0.4766E+00  0.1042E+01  0.8980E+00
:INFO :  Number of Memory Steps    8 Skipping    0
:INFO :  SLambda=    1.6141960626  Max    1.6141960626
:PREDicted Charge, CTotal, PW Trust    3.526E-05   3.526E-05   4.402E-04
:PREDicted DMix, Beta, BLim   3.4209E-02  1.0053E+00  9.4269E-01

Eigenvalues, unscaled except for SY+YY
   #     SY Real        SY Imag          SS             YY         SY+YY Real      SY+YY Imag
   1   4.189706E+00   0.000000E+00   4.019448E+00   4.984509E+00   1.151553E+01   0.000000E+00
   2   5.209193E-01   0.000000E+00   5.172657E-01   2.336618E+00   2.802318E+00   0.000000E+00
   3   1.540698E-01   0.000000E+00   4.974116E-02   5.310841E-01   1.374174E+00   0.000000E+00
   4   7.172932E-02   0.000000E+00   6.637997E-03   1.475272E-01   2.760673E-01   0.000000E+00
   5   3.709001E-05   0.000000E+00   1.131353E-05   1.750885E-04   2.347033E-04   0.000000E+00
   6   1.731026E-05   0.000000E+00   4.675169E-06   8.198592E-05   1.154226E-04   0.000000E+00
   7   1.729243E-06   0.000000E+00   3.519348E-07   4.527277E-06   8.125702E-06   0.000000E+00
   8   4.522532E-09   0.000000E+00   7.637363E-10   2.643145E-08   3.396078E-08   0.000000E+00
 
:INFO :  Singular value  1.152E+01 Weight  1.000E+00 Projection  5.783E-06
:INFO :  Singular value  2.804E+00 Weight  1.000E+00 Projection  8.493E-05
:INFO :  Singular value  1.373E+00 Weight  1.000E+00 Projection -1.145E-05
:INFO :  Singular value  2.761E-01 Weight  1.000E+00 Projection  1.073E-05
:INFO :  Singular value  2.358E-04 Weight  1.829E-01 Projection  6.575E-04
:INFO :  Singular value  1.167E-04 Weight  5.199E-02 Projection  3.626E-04
:INFO :  Singular value  8.006E-06 Weight  2.579E-04 Projection -5.184E-06
:INFO :  Singular value  3.392E-08 Weight  4.630E-09 Projection  4.330E-11
:RANK :  ACTIVE   4.24/8  =  52.94 % ; YY RANK   4.14/8  =  51.70 %
 
:BLIM :  VZERO Control Off
:TRUST:  Step 6.95E+00  Charge 2.23E-02 (e) CTO  7.45E-02 (e) PW  1.04E-01 (e)
:DIRM :  MEMORY  8/8  SCALE   1.000 RED  0.07 PRED  0.08 NEXT  0.50 
:TRAVE:  Charge 1.67E-04 (e) CTO  1.67E-04 (e) PW  3.56E-04 (e)
:DIRP :  |MSR1|= 6.499E-06 |PRATT|= 2.520E-05 ANGLE=  26.9 DEGREES
:DIRQ :  |MSR1|= 2.633E-05 |PRATT|= 1.549E-04 ANGLE=  47.9 DEGREES
:DIRT :  |MSR1|= 2.712E-05 |PRATT|= 1.569E-04 ANGLE=  47.4 DEGREES
:MIX  :   MSE1   REGULARIZATION:  4.98E-04 GREED: 0.12787  Newton 1.00  0.1729                
     
       CHARGES OF MIXED CHARGE DENSITY
:CTO   : INTERSTITIAL CHARGE =     2.948911
:CPC   : PW Pseudocharge     =     7.558288
:CTO001: CHARGE SPHERE  1    =    56.051089

:NEC03: NUCLEAR AND ELECTRONIC CHARGE     59.00000    59.00000

PW CHANGE     H    K    L      Current       Change    Residue
:PTO001:      0    0    0  3.87164479E-02  6.768E-08  4.482E-07
:PTO002:     -1   -1   -1 -1.26111325E-01 -2.931E-07 -9.998E-07
:PTO003:      0    0   -2  7.57879093E-02  1.669E-07  1.489E-07
:PTO004:      0   -2   -2  6.86048550E-02  1.908E-07  6.504E-07
:PTO005:     -1   -1   -3 -6.88247125E-02 -2.589E-07 -7.078E-07
:PTO006:     -2   -2   -2  1.79393995E-02  8.309E-08  3.561E-07
:PTO007:      0    0   -4  3.84733076E-03  2.143E-08 -1.112E-08
:PTO008:     -1   -3   -3 -4.49198008E-03  9.013E-09 -1.655E-07
:PTO009:      0   -2   -4  1.37741006E-03 -2.008E-08 -3.039E-08
:PTO010:     -2   -2   -4 -5.28737571E-03 -2.565E-09  8.972E-08
:PTO011:     -3   -3   -3  2.41112505E-03 -6.964E-09 -5.582E-08
:PTO012:     -1   -1   -5  6.90533348E-03  1.120E-08  1.069E-07

:ENE  : ********** TOTAL ENERGY IN Ry =       -18472.09549021

 Flat Integration
 New Mode for Coulomb Integral
 Consistent 3/8+Simpson combinations
 Extension of core to zero
 LDM version in phi
 Fifth-order quadrature in outwin


            ---------
:ITE022: 22. ITERATION
            ---------

:NATO :    1 INDEPENDENT AND    1 TOTAL ATOMS IN UNITCELL
       SUBSTANCE: blebleble                                                   

       LATTICE                      = F   
:POT  : POTENTIAL OPTION EX_LDA EC_LDA VX_LDA VC_LDA
:LAT  : LATTICE CONSTANTS= 10.27741 10.27741 10.27741    1.571    1.571    1.571
:VOL  : UNIT CELL VOLUME =     271.38850
       MODE OF CALCULATION IS       = RELA
       NON-SPINPOLARIZED CALCULATION
:IFFT  : FFT-parameters:   80   80   80 Factor: 2.00


   CONVERGENCE PARAMETER FOR PSEUDOCHARGE: NCON=  9
   MAXIMAL VALUE OF RMT(JATOM)*ABSK(NKK) : RK  =29.95033


:VKCOUL :  VK-COUL convergence: 0.104E-06
       ATOMNUMBER=  1 Pr         VCOUL-ZERO =  0.14421E+00
:FIT001: LUSE= 13 SIGMA OF V-XC FIT FOR ATOM  1  0.3842775E-04
:FIT001: LUSE= 13 SIGMA OF V-XC FIT FOR ATOM  1  0.3842775E-04
:DEN  : DENSITY INTEGRAL  =         -7067.04030441   (Ry)
       ELS_POTENTIAL_AT Z=0 and Z=0.5:  -2.38034  -2.38034
       ELS_POTENTIAL_AT Y=0 and Y=0.5:   0.00000   0.00000
:VZERO:v0,v0c,v0x  -3.32299  -2.38034  -0.94265 v5,v5c,v5x  -3.32299  -2.38034  -0.94265
:VZERY:v0,v0c,v0x  -0.67689   0.00000  -0.67689 v5,v5c,v5x  -0.67689   0.00000  -0.67689
:VZERX:v0,v0c,v0x  -0.67689   0.00000  -0.67689 v5,v5c,v5x  -0.67689   0.00000  -0.67689
:LMAX-WF:   10   Non-Spherical LMAX:   4

          ATOMIC SPHERE DEPENDENT PARAMETERS FOR ATOM  Pr        
:e__0001: OVERALL ENERGY PARAMETER IS    0.2967
          OVERALL BASIS SET ON ATOM IS LAPW
:E0_0001: E( 0)=    0.2967
             APW+lo
:E0_0001: E( 0)=   -2.1863   E(BOTTOM)=   -2.568   E(TOP)=   -1.805  4  5   159
             LOCAL ORBITAL
:E1_0001: E( 1)=    0.6967
             APW+lo
:E1_0001: E( 1)=   -0.7993   E(BOTTOM)=   -1.447   E(TOP)=   -0.152  3  4   165
             LOCAL ORBITAL
:E3_0001: E( 3)=    0.4924   E(BOTTOM)=    0.349   E(TOP)=    0.636  0  1   121
             APW+lo
:E2_0001: E( 2)=    0.2967   E(BOTTOM)=    0.128   E(TOP)= -200.000  2 -1    96
             APW+lo

       K=   0.00000   0.00000   0.00000            1
:RKM  : MATRIX SIZE   189LOs:  20  RKM= 7.94  WEIGHT= 1.00  PGR:    
       EIGENVALUES ARE:
:EIG00001:      -2.1431156   -0.7880411   -0.7880411   -0.7880411    0.2460225
:EIG00006:       0.4954593    0.5095980    0.5095980    0.5095980    0.5300492
:EIG00011:       0.5300492    0.5300492    0.6211698    0.6211698    0.6211698
:EIG00016:       0.7713444    0.7713444    1.1645173    1.3711908    1.3711908
:EIG00021:       1.3711908    1.4765268    2.0636181    2.0636181    2.0636181
:EIG00026:       2.1185393    2.1185393    2.1185393    2.3462392    2.3462392
:EIG00031:       2.6541648    2.8298833    2.8298833    2.8298833    3.2425759
:EIG00036:       3.2425759    3.4703748    3.4703748    3.4703748    3.5064354
:EIG00041:       3.5064354    3.5064354    3.6645077    3.6645077    3.6645077
:EIG00046:       3.8747877    3.9218178    3.9218178    3.9218178    4.0179065
 
:EIG00051:       4.0179065    4.0392822    4.0392822    4.0392822    4.0584814
:EIG00056:       4.0584814    4.0584814    4.1626007    4.2086427    4.3383514
:EIG00061:       4.3383514    4.3383514    4.4076236    4.4076236    4.4076236
:EIG00066:       4.5946276    5.6027632    5.6027632    5.6140146    5.8855191
:EIG00071:       5.8855191    5.8855191    6.3006690    6.3006690    6.4649783
:EIG00076:       6.4649783    6.4649783    6.5308801    6.5308801    6.5308801
:EIG00081:       6.8415231    6.8415231    6.8415231    6.8417305    6.8417305
:EIG00086:       6.8417305    6.8800349    6.8800349    6.9403888    6.9403888
:EIG00091:       6.9403888    7.0376948    7.0376948    7.0376948    7.0459159
:EIG00096:       7.0459159    7.0459159    7.1095656    7.2054225    7.2501643
 
:EIG00101:       7.2501643    7.3067173    7.3067173    7.3067173    7.3318922
:EIG00106:       7.3318922    7.3318922    7.3414446    7.3414446    7.3414446
:EIG00111:       7.4124099    7.4124099    7.6478723    7.7004872    7.9965652
:EIG00116:       7.9965652    7.9965652
       ********************************************************

:KPT   :      NUMBER OF K-POINTS:   165
   0.0   0.0 angle (M,z), angle (M,x) deg
 
        SPIN-ORBIT EIGENVALUES:
     K=   0.00000   0.00000   0.00000            1
      MATRIX SIZE=  234   WEIGHT= 1.00
     EIGENVALUES ARE:
          -2.1431156   -2.1431156   -0.9339085   -0.9339085   -0.7197816
          -0.7197816   -0.7197816   -0.7197816    0.2460225    0.2460225
           0.4902818    0.4902818    0.4983267    0.4983267    0.4983267
           0.4983267    0.5212544    0.5212544    0.5310061    0.5310061
           0.5375088    0.5375088    0.5375088    0.5375088    0.6174723
           0.6174723    0.6174723    0.6174723    0.6273563    0.6273563
           0.7717455    0.7717455    0.7717455    0.7717455    1.1645684
           1.1645684    1.3659304    1.3659304    1.3735710    1.3735710

           1.3735710    1.3735710    1.4765268    1.4765268    2.0510689
           2.0510689    2.0588060    2.0588060    2.0588060    2.0588060
           2.0727497    2.0727497    2.1531931    2.1531931    2.1531931
           2.1531931    2.3465224    2.3465224    2.3465224    2.3465224
           2.6541648    2.6541648    2.8294502    2.8294502    2.8301136
           2.8301136    2.8301136    2.8301136    3.2425532    3.2425532
           3.2425532    3.2425532    3.4690814    3.4690814    3.4690814
           3.4690814    3.4731994    3.4731994    3.4778345    3.4778345

           3.5220186    3.5220186    3.5220186    3.5220186    3.6645006
           3.6645006    3.6645113    3.6645113    3.6645113    3.6645113
           3.8747877    3.8747877    3.9217769    3.9217769    3.9217769
           3.9217769    3.9219046    3.9219046    4.0179065    4.0179065
           4.0179065    4.0179065    4.0391303    4.0391303    4.0393405
           4.0393405    4.0393405    4.0393405    4.0582038    4.0582038
           4.0582038    4.0582038    4.0590863    4.0590863    4.1626068
           4.1626068    4.2086427    4.2086427    4.3382943    4.3382943

           4.3382943    4.3382943    4.3384693    4.3384693    4.4068882
           4.4068882    4.4080396    4.4080396    4.4080396    4.4080396

       ********************************************************
:GAP (global)   :    0.0    Ry =     0.0   eV (metal)
:GAP (this spin):    0.0    Ry =     0.0   eV (metal)
         Bandranges (emin - emax) and occupancy:
:BAN00004:   4   -0.960509   -0.933908  1.00000000
:BAN00005:   5   -0.768693   -0.719782  1.00000000
:BAN00006:   6   -0.768693   -0.719782  1.00000000
:BAN00007:   7   -0.750786   -0.719782  1.00000000
:BAN00008:   8   -0.750786   -0.719782  1.00000000
:BAN00009:   9    0.246023    0.474641  1.00000000
:BAN00010:  10    0.246023    0.474641  1.00000000
:BAN00011:  11    0.437789    0.495522  1.00000000
:BAN00012:  12    0.437789    0.495522  1.00000000
:BAN00013:  13    0.488231    0.500469  0.50000002
:BAN00014:  14    0.488231    0.500469  0.49999998
:BAN00015:  15    0.498327    0.505071  0.00000000
:BAN00016:  16    0.498327    0.505071  0.00000000
:BAN00017:  17    0.500685    0.525163  0.00000000
:BAN00018:  18    0.500685    0.525163  0.00000000
:BAN00019:  19    0.519807    0.531006  0.00000000
        Energy to separate low and high energystates:    0.19602


:NOE  : NUMBER OF ELECTRONS          =   13.000

:FER  : F E R M I - ENERGY(TETRAH.M.)=   0.4967281908
:GMA  : POTENTIAL AND CHARGE CUT-OFF  12.00 Ry**.5

:POS001: ATOM    1 X,Y,Z = 0.00000 0.00000 0.50000  MULT= 1  ZZ= 59.000  Pr        

       LMMAX  5
       LM=   0 0  4 0  4 4  6 0  6 4

:CHA001: TOTAL VALENCE CHARGE INSIDE SPHERE   1 =  10.0516    (RMT=  2.5000 )
:PCS001: PARTIAL CHARGES SPHERE =  1 S,P,D,F,      D-EG,D-T2G 
:QTL001: 2.0242 5.3544 0.5508 2.1219 0.0000 0.0000 0.0000 0.1980 0.3529 0.0000 0.0000 0.0000
        Q-s-low E-s-low   Q-p-low E-p-low   Q-d-low E-d-low   Q-f-low E-f-low
:EPL001:  1.9257 -2.1363    5.2915 -0.8183    0.0007 -0.7977    0.0002 -0.8015
        Q-s-hi  E-s-hi    Q-p-hi  E-p-hi    Q-d-hi  E-d-hi    Q-f-hi  E-f-hi 
:EPH001:  0.0985  0.3930    0.0629  0.4320    0.5502  0.4514    2.1218  0.4871

:CHA  : TOTAL VALENCE CHARGE INSIDE UNIT CELL =      13.000000

:SUM  : SUM OF EIGENVALUES =          -6.888196722


        1.ATOM      Pr                   14 CORE STATES
:1S 001: 1S               -3067.099305444 Ry
:2S 001: 2S                -492.849227090 Ry
:2PP001: 2P*               -465.949147690 Ry
:2P 001: 2P                -430.551370447 Ry
:3S 001: 3S                -105.932193826 Ry
:3PP001: 3P*                -94.470380868 Ry
:3P 001: 3P                 -87.462269955 Ry
:3DD001: 3D*                -67.390243858 Ry
:3D 001: 3D                 -65.878563987 Ry
:4S 001: 4S                 -20.611540351 Ry
:4PP001: 4P*                -16.318850544 Ry
:4P 001: 4P                 -14.792118160 Ry
:4DD001: 4D*                 -7.726525359 Ry
:4D 001: 4D                  -7.457367086 Ry
:CINT001 Core Integral Atom   1   45.999513

       DENSITY AT NUCLEUS
        JATOM        VALENCE       SEMI-CORE          CORE           TOTAL
:RTO001:   1      647.891829        0.000000   656824.649783   657472.541612
     
       CHARGES OF NEW CHARGE DENSITY
:NTO   : INTERSTITIAL CHARGE =     2.948406
:NPC   : PW Pseudocharge     =     7.557054
:NTO001: CHARGE SPHERE  1    =    56.051106

:NEC01: NUCLEAR AND ELECTRONIC CHARGE     59.00000    58.99951
     
       CHARGES OF OLD CHARGE DENSITY
:OTO   : INTERSTITIAL CHARGE =     2.948911
:OPC   : PW Pseudocharge     =     7.558288
:OTO001: CHARGE SPHERE  1    =    56.051089

:NEC02: NUCLEAR AND ELECTRONIC CHARGE     59.00000    59.00000
     
       CONVERGENCE TEST
:DTO001: DIFFERENCE IN SPHERE  1 =  0.0000612

:DIS  :  CHARGE DISTANCE       ( 0.0000612 for atom    1 spin 1)      0.0000612
 PW Mixed is           59
 
******************************************************
* MULTISECANT MIXING VER9 RELEASE 10.4.0              *
* Standard Mode with controls                        *
* Fixed density scale                                *
* Regularization       1.000E-04                     *
* Trust Upper Limit    5.000E+00                     *
* Max Number of Memory Steps    8                    *
******************************************************
 
:PWTMP   2.0594E+02  1.2500E+02  2.7139E+02
:PLANE:  PW TOTAL      2.8270 DISTAN   1.28E-05  4.52E-04 %
:CHARG:  CLM/ATOM    977.1785 DISTAN   7.03E-05  7.19E-06 %
 
Step History
        DMIX         DMIXT        Red     Pred      Trust     Lambda    MagRel    MagAbs     Beta
  2   1.2288E-01   1.2288E-01  1.24E+00  1.00E+00 -1.00E+01  1.00E+00  1.23E-01  4.13E-02  1.00E+00
  3   4.9709E-02   4.9709E-02  3.87E-01  4.27E-01  3.00E+00  3.00E+00  4.10E-02  1.71E-02  8.00E-01
  4   1.2427E-01   1.2427E-01  7.04E-01  3.15E-01  8.18E-01  3.00E+00  3.17E-01  5.13E-02  1.00E+00
  5   2.0499E-01   2.0499E-01  1.85E-01  5.41E-02  1.40E+00  1.17E+00  5.90E-01  6.70E-02  1.00E+00
  6   1.3940E-01   1.3940E-01  8.11E-01  1.69E-01  1.86E+00  1.45E+00  3.41E-01  7.16E-03  1.00E+00
  7   2.3007E-01   2.3007E-01  1.73E-01  1.19E-01  2.29E+00  1.03E+00  5.26E-01  8.95E-03  1.00E+00
  8   1.1647E-01   1.1647E-01  7.53E-01  4.51E-01  3.06E+00  1.13E+00  2.71E-01  7.99E-04  1.00E+00
  9   2.9117E-01   2.9117E-01  7.07E-02  7.52E-02  4.06E+00  1.61E+00  9.34E-01  2.07E-03  1.00E+00
 10   1.2787E-01   1.2787E-01 -1.00E+00  5.01E-01  6.95E+00  1.00E+00  1.73E-01  2.71E-05  1.00E+00
:JACOBIANS    9.165E-02   2.673E+00
  
:NORMS:  1/Froebius, Min, Max, Used   0.7462E+00  0.5861E+00  0.1165E+01  0.9394E+00
:INFO :  Number of Memory Steps    8 Skipping    1
:INFO :  SLambda=    1.5413789399  Max    1.5413789399
:PREDicted Charge, CTotal, PW Trust    2.923E-06   2.923E-06   1.674E-05
:PREDicted DMix, Beta, BLim   6.4021E-01  2.2446E+00  9.2867E-01

Eigenvalues, unscaled except for SY+YY
   #     SY Real        SY Imag          SS             YY         SY+YY Real      SY+YY Imag
   1   4.028671E+00   0.000000E+00   3.891429E+00   4.409898E+00   1.049749E+01   0.000000E+00
   2   4.958590E-01   0.000000E+00   4.938879E-01   2.954948E+00   3.376558E+00   0.000000E+00
   3   2.080993E-01   0.000000E+00   5.825413E-02   5.089152E-01   1.277147E+00   0.000000E+00
   4   5.155441E-02   0.000000E+00   7.937215E-03   1.170451E-01   2.134731E-01   0.000000E+00
   5   5.845776E-03   0.000000E+00   2.689366E-03   9.107466E-03   1.850157E-02   0.000000E+00
   6   1.405200E-05   0.000000E+00   2.561407E-06   8.572424E-05   1.037425E-04   0.000000E+00
   7   1.085599E-07   0.000000E+00   8.488049E-08   1.796201E-07   3.909441E-07   0.000000E+00
   8   2.304625E-08   0.000000E+00   7.902645E-09   5.836338E-08   9.656554E-08   0.000000E+00
 
:INFO :  Singular value  1.050E+01 Weight  1.000E+00 Projection  7.845E-06
:INFO :  Singular value  3.378E+00 Weight  1.000E+00 Projection  5.612E-06
:INFO :  Singular value  1.277E+00 Weight  1.000E+00 Projection -1.714E-06
:INFO :  Singular value  2.135E-01 Weight  1.000E+00 Projection  8.674E-06
:INFO :  Singular value  1.851E-02 Weight  9.994E-01 Projection  7.105E-04
:INFO :  Singular value  1.038E-04 Weight  5.253E-02 Projection  2.513E-05
:INFO :  Singular value  3.966E-07 Weight  8.089E-07 Projection -1.964E-09
:INFO :  Singular value  9.505E-08 Weight  4.645E-08 Projection -4.541E-10
:RANK :  ACTIVE   5.05/8  =  63.15 % ; YY RANK   5.03/8  =  62.93 %
 
:BLIM :  VZERO Control Off
:TRUST:  Step 9.27E+00  Charge 1.79E-02 (e) CTO  5.96E-02 (e) PW  8.34E-02 (e)
:DIRM :  MEMORY  8/8  SCALE   1.000 RED  0.46 PRED  0.50 NEXT  0.08 
:TRAVE:  Charge 8.54E-05 (e) CTO  8.54E-05 (e) PW  1.82E-04 (e)
:DIRP :  |MSR1|= 1.130E-05 |PRATT|= 1.276E-05 ANGLE=  14.2 DEGREES
:DIRQ :  |MSR1|= 4.798E-05 |PRATT|= 7.030E-05 ANGLE=  20.0 DEGREES
:DIRT :  |MSR1|= 4.929E-05 |PRATT|= 7.145E-05 ANGLE=  20.0 DEGREES
:MIX  :   MSE1   REGULARIZATION:  4.41E-04 GREED: 0.31967  Newton 1.00  0.6899                
     
       CHARGES OF MIXED CHARGE DENSITY
:CTO   : INTERSTITIAL CHARGE =     2.948907
:CPC   : PW Pseudocharge     =     7.558308
:CTO001: CHARGE SPHERE  1    =    56.051093

:NEC03: NUCLEAR AND ELECTRONIC CHARGE     59.00000    59.00000

PW CHANGE     H    K    L      Current       Change    Residue
:PTO001:      0    0    0  3.87165078E-02  5.991E-08 -2.094E-09
:PTO002:     -1   -1   -1 -1.26111904E-01 -5.787E-07 -6.673E-07
:PTO003:      0    0   -2  7.57880458E-02  1.364E-07  7.843E-08
:PTO004:      0   -2   -2  6.86052335E-02  3.785E-07  4.334E-07
:PTO005:     -1   -1   -3 -6.88252449E-02 -5.324E-07 -6.165E-07
:PTO006:     -2   -2   -2  1.79396416E-02  2.421E-07  3.098E-07
:PTO007:      0    0   -4  3.84735684E-03  2.608E-08  2.443E-08
:PTO008:     -1   -3   -3 -4.49210853E-03 -1.285E-07 -2.057E-07
:PTO009:      0   -2   -4  1.37743635E-03  2.629E-08  5.688E-08
:PTO010:     -2   -2   -4 -5.28728260E-03  9.311E-08  1.443E-07
:PTO011:     -3   -3   -3  2.41107936E-03 -4.569E-08 -6.419E-08
:PTO012:     -1   -1   -5  6.90535593E-03  2.245E-08  2.393E-08

:ENE  : ********** TOTAL ENERGY IN Ry =       -18472.09549031

