
:LABEL1: Calculations in /home/ykent/GWIEN/example/Pr/V16/case
:LABEL2: on didymium-2.cmpgroup.ameslab.gov at Wed Jul  8 16:03:24 CDT 2020
:LABEL3: using WIEN2k_19.1 (Release 25/6/2019) in /home/ykent/opt/src/WIEN2k_19.1
:LABEL4: using the command: run_lapw -cc 0.0001
 Flat Integration
 New Mode for Coulomb Integral
 Consistent 3/8+Simpson combinations
 Extension of core to zero
 LDM version in phi
 Fifth-order quadrature in outwin


            ---------
:ITE001:  1. ITERATION
            ---------

:NATO :    1 INDEPENDENT AND    1 TOTAL ATOMS IN UNITCELL
       SUBSTANCE: blebleble                                                   

       LATTICE                      = F   
:POT  : POTENTIAL OPTION EX_LDA EC_LDA VX_LDA VC_LDA
:LAT  : LATTICE CONSTANTS= 10.57986 10.57986 10.57986    1.571    1.571    1.571
:VOL  : UNIT CELL VOLUME =     296.06019
       MODE OF CALCULATION IS       = RELA
       NON-SPINPOLARIZED CALCULATION
:IFFT  : FFT-parameters:   90   90   90 Factor: 2.00


   CONVERGENCE PARAMETER FOR PSEUDOCHARGE: NCON=  9
   MAXIMAL VALUE OF RMT(JATOM)*ABSK(NKK) : RK  =29.98955


:VKCOUL :  VK-COUL convergence: 0.107E-05
       ATOMNUMBER=  1 Pr         VCOUL-ZERO =  0.75488E-01
:FIT001: LUSE= 13 SIGMA OF V-XC FIT FOR ATOM  1  0.6063832E-06
:FIT001: LUSE= 13 SIGMA OF V-XC FIT FOR ATOM  1  0.6063832E-06
:DEN  : DENSITY INTEGRAL  =         -7062.06284659   (Ry)
       ELS_POTENTIAL_AT Z=0 and Z=0.5:  -2.24842  -2.24842
       ELS_POTENTIAL_AT Y=0 and Y=0.5:   0.00000   0.00000
:VZERO:v0,v0c,v0x  -3.15264  -2.24842  -0.90422 v5,v5c,v5x  -3.15264  -2.24842  -0.90422
:VZERY:v0,v0c,v0x  -0.64813   0.00000  -0.64813 v5,v5c,v5x  -0.64813   0.00000  -0.64813
:VZERX:v0,v0c,v0x  -0.64813   0.00000  -0.64813 v5,v5c,v5x  -0.64813   0.00000  -0.64813
:LMAX-WF:   10   Non-Spherical LMAX:   4

          ATOMIC SPHERE DEPENDENT PARAMETERS FOR ATOM  Pr        
:e__0001: OVERALL ENERGY PARAMETER IS    0.3000
          OVERALL BASIS SET ON ATOM IS LAPW
:E0_0001: E( 0)=    0.3000
             APW+lo
:E0_0001: E( 0)=   -2.2653   E(BOTTOM)=   -2.645   E(TOP)=   -1.885  4  5   159
             LOCAL ORBITAL
:E1_0001: E( 1)=    0.7000
             APW+lo
:E1_0001: E( 1)=   -0.8766   E(BOTTOM)=   -1.522   E(TOP)=   -0.232  3  4   168
             LOCAL ORBITAL
:E3_0001: E( 3)=    0.4050   E(BOTTOM)=    0.264   E(TOP)=    0.546  0  1   111
             APW+lo
:E2_0001: E( 2)=    0.3000   E(BOTTOM)=    0.056   E(TOP)= -200.000  2 -1    99
             APW+lo

       K=   0.00000   0.00000   0.00000            1
:RKM  : MATRIX SIZE   201LOs:  20  RKM= 8.40  WEIGHT= 1.00  PGR:    
       EIGENVALUES ARE:
:EIG00001:      -2.2196672   -0.8691889   -0.8691889   -0.8691889    0.1886892
:EIG00006:       0.4134747    0.4250203    0.4250203    0.4250203    0.4409527
:EIG00011:       0.4409527    0.4409527    0.5530529    0.5530529    0.5530529
:EIG00016:       0.6876570    0.6876570    1.0763738    1.2669887    1.2669887
:EIG00021:       1.2669887    1.3784097    1.8883153    1.8883153    1.8883153
:EIG00026:       1.9241244    1.9241244    1.9241244
       ********************************************************

:KPT   :      NUMBER OF K-POINTS:   165
:GAP (global)   :    0.0    Ry =     0.0   eV (metal)
         Bandranges (emin - emax) and occupancy:
:BAN00001:   1   -2.219667   -2.213811  2.00000000
:BAN00002:   2   -0.914059   -0.869189  2.00000000
:BAN00003:   3   -0.898199   -0.869189  2.00000000
:BAN00004:   4   -0.885775   -0.869189  2.00000000
:BAN00005:   5    0.188689    0.408810  2.00000000
:BAN00006:   6    0.387470    0.420854  2.00000000
:BAN00007:   7    0.415382    0.426227  1.00000000
:BAN00008:   8    0.423257    0.429370  0.00000000
:BAN00009:   9    0.425020    0.431730  0.00000000
:BAN00010:  10    0.427326    0.440953  0.00000000
:BAN00011:  11    0.430735    0.440953  0.00000000
:BAN00012:  12    0.432240    0.451536  0.00000000
        Energy to separate low and high energystates:    0.13869


:NOE  : NUMBER OF ELECTRONS          =   13.000

:FER  : F E R M I - ENERGY(TETRAH.M.)=   0.4219839636
:GMA  : POTENTIAL AND CHARGE CUT-OFF  12.00 Ry**.5

:POS001: ATOM    1 X,Y,Z = 0.00000 0.00000 0.50000  MULT= 1  ZZ= 59.000  Pr        

       LMMAX  5
       LM=   0 0  4 0  4 4  6 0  6 4

:CHA001: TOTAL VALENCE CHARGE INSIDE SPHERE   1 =  10.2303    (RMT=  2.5000 )
:PCS001: PARTIAL CHARGES SPHERE =  1 S,P,D,F,      D-EG,D-T2G 
:QTL001: 2.0191 5.3578 0.4303 2.4229 0.0000 0.0000 0.0000 0.1574 0.2729 0.0000 0.0000 0.0000
        Q-s-low E-s-low   Q-p-low E-p-low   Q-d-low E-d-low   Q-f-low E-f-low
:EPL001:  1.9266 -2.2151    5.3095 -0.8882    0.0003 -0.8985    0.0001 -0.9009
        Q-s-hi  E-s-hi    Q-p-hi  E-p-hi    Q-d-hi  E-d-hi    Q-f-hi  E-f-hi 
:EPH001:  0.0926  0.3300    0.0483  0.3597    0.4300  0.3864    2.4229  0.4142

:CHA  : TOTAL VALENCE CHARGE INSIDE UNIT CELL =      13.000000

:SUM  : SUM OF EIGENVALUES =          -7.809499036


        1.ATOM      Pr                   14 CORE STATES
:1S 001: 1S               -3067.159715599 Ry
:2S 001: 2S                -492.925331920 Ry
:2PP001: 2P*               -466.022985234 Ry
:2P 001: 2P                -430.626175043 Ry
:3S 001: 3S                -106.022484542 Ry
:3PP001: 3P*                -94.559929179 Ry
:3P 001: 3P                 -87.552498795 Ry
:3DD001: 3D*                -67.478947350 Ry
:3D 001: 3D                 -65.967510011 Ry
:4S 001: 4S                 -20.706076634 Ry
:4PP001: 4P*                -16.412942949 Ry
:4P 001: 4P                 -14.885745060 Ry
:4DD001: 4D*                 -7.819061036 Ry
:4D 001: 4D                  -7.549726766 Ry
:CINT001 Core Integral Atom   1   45.999519

       DENSITY AT NUCLEUS
        JATOM        VALENCE       SEMI-CORE          CORE           TOTAL
:RTO001:   1      647.153150        0.000000   656821.314244   657468.467393
     
       CHARGES OF NEW CHARGE DENSITY
:NTO   : INTERSTITIAL CHARGE =     2.769688
:NPC   : PW Pseudocharge     =     7.428802
:NTO001: CHARGE SPHERE  1    =    56.229830

:NEC01: NUCLEAR AND ELECTRONIC CHARGE     59.00000    58.99952
     
       CHARGES OF OLD CHARGE DENSITY
:OTO   : INTERSTITIAL CHARGE =     2.985982
:OPC   : PW Pseudocharge     =     6.854617
:OTO001: CHARGE SPHERE  1    =    56.014730

:NEC02: NUCLEAR AND ELECTRONIC CHARGE     59.00000    59.00071
     
       CONVERGENCE TEST
:DTO001: DIFFERENCE IN SPHERE  1 =  0.4035838

:DIS  :  CHARGE DISTANCE       ( 0.4035838 for atom    1 spin 1)      0.4035838
 PW Mixed is           60
 
******************************************************
* MULTISECANT MIXING VER9 RELEASE 10.4.0              *
* Standard Mode with controls                        *
* Fixed density scale                                *
* Regularization       1.000E-04                     *
* Trust Upper Limit    5.000E+00                     *
* Max Number of Memory Steps    8                    *
******************************************************
 
:PWTMP   2.3061E+02  1.2500E+02  2.9606E+02
:PLANE:  PW TOTAL      2.3820 DISTAN   3.34E-01  1.40E+01 %
:CHARG:  CLM/ATOM    977.2571 DISTAN   8.47E-01  8.66E-02 %
 
Step History
        DMIX         DMIXT        Red     Pred      Trust     Lambda    MagRel    MagAbs     Beta
  1   3.5000E-02   3.5000E-02 -1.00E+00  1.00E+00 -1.00E+01  1.00E+00  3.50E-02  3.50E-02  1.00E+00
:INFO :  Note, Pratt in use
:TRUST:  Step 3.75E-02  Charge 7.50E-02 (e) CTO  2.50E-01 (e) PW  3.50E-01 (e)
:DIRM :  MEMORY  0/ 8 SCALE   1.000
Performing Pseudo Compensation
Final Pseudo Compensation Rescaling     1.00000E+00
:MIX  :   PRATT  REGULARIZATION:  1.00E-04 GREED: 0.02500                  
     
       CHARGES OF MIXED CHARGE DENSITY
:CTO   : INTERSTITIAL CHARGE =     2.979893
:CPC   : PW Pseudocharge     =     7.321941
:CTO001: CHARGE SPHERE  1    =    56.020107

:NEC03: NUCLEAR AND ELECTRONIC CHARGE     59.00000    59.00000

PW CHANGE     H    K    L      Current       Change    Residue
:PTO001:      0    0    0  3.47964183E-02  1.566E-03  1.223E-03
:PTO002:     -1   -1   -1 -1.16628445E-01 -1.006E-02 -1.280E-02
:PTO003:      0    0   -2  7.07781776E-02  6.965E-03  8.867E-03
:PTO004:      0   -2   -2  6.45980533E-02  9.974E-03  1.392E-02
:PTO005:     -1   -1   -3 -7.03540152E-02 -1.508E-02 -1.724E-02
:PTO006:     -2   -2   -2  1.89197658E-02  4.560E-03  4.878E-03
:PTO007:      0    0   -4  5.35209048E-03  2.251E-03  1.748E-03
:PTO008:     -1   -3   -3 -7.88497790E-03 -6.382E-03 -5.741E-03
:PTO009:      0   -2   -4  4.89547643E-03  5.618E-03  4.675E-03
:PTO010:     -2   -2   -4 -2.17720015E-03  3.125E-03  1.299E-03
:PTO011:     -3   -3   -3  1.42254706E-03 -5.817E-04  2.575E-04
:PTO012:     -1   -1   -5  4.25214510E-03 -1.760E-03  1.528E-04

:ENE  : ********** TOTAL ENERGY IN Ry =       -18472.04440754

 Flat Integration
 New Mode for Coulomb Integral
 Consistent 3/8+Simpson combinations
 Extension of core to zero
 LDM version in phi
 Fifth-order quadrature in outwin


            ---------
:ITE002:  2. ITERATION
            ---------

:NATO :    1 INDEPENDENT AND    1 TOTAL ATOMS IN UNITCELL
       SUBSTANCE: blebleble                                                   

       LATTICE                      = F   
:POT  : POTENTIAL OPTION EX_LDA EC_LDA VX_LDA VC_LDA
:LAT  : LATTICE CONSTANTS= 10.57986 10.57986 10.57986    1.571    1.571    1.571
:VOL  : UNIT CELL VOLUME =     296.06019
       MODE OF CALCULATION IS       = RELA
       NON-SPINPOLARIZED CALCULATION
:IFFT  : FFT-parameters:   90   90   90 Factor: 2.00


   CONVERGENCE PARAMETER FOR PSEUDOCHARGE: NCON=  9
   MAXIMAL VALUE OF RMT(JATOM)*ABSK(NKK) : RK  =29.98955


:VKCOUL :  VK-COUL convergence: 0.414E-07
       ATOMNUMBER=  1 Pr         VCOUL-ZERO =  0.78739E-01
:FIT001: LUSE= 13 SIGMA OF V-XC FIT FOR ATOM  1  0.5509295E-06
:FIT001: LUSE= 13 SIGMA OF V-XC FIT FOR ATOM  1  0.5509295E-06
:DEN  : DENSITY INTEGRAL  =         -7062.83383891   (Ry)
       ELS_POTENTIAL_AT Z=0 and Z=0.5:  -2.27441  -2.27441
       ELS_POTENTIAL_AT Y=0 and Y=0.5:   0.00000   0.00000
:VZERO:v0,v0c,v0x  -3.19605  -2.27441  -0.92164 v5,v5c,v5x  -3.19605  -2.27441  -0.92164
:VZERY:v0,v0c,v0x  -0.65075   0.00000  -0.65075 v5,v5c,v5x  -0.65075   0.00000  -0.65075
:VZERX:v0,v0c,v0x  -0.65075   0.00000  -0.65075 v5,v5c,v5x  -0.65075   0.00000  -0.65075
:LMAX-WF:   10   Non-Spherical LMAX:   4

          ATOMIC SPHERE DEPENDENT PARAMETERS FOR ATOM  Pr        
:e__0001: OVERALL ENERGY PARAMETER IS    0.2480
          OVERALL BASIS SET ON ATOM IS LAPW
:E0_0001: E( 0)=    0.2480
             APW+lo
:E0_0001: E( 0)=   -2.2580   E(BOTTOM)=   -2.639   E(TOP)=   -1.877  4  5   150
             LOCAL ORBITAL
:E1_0001: E( 1)=    0.6480
             APW+lo
:E1_0001: E( 1)=   -0.8698   E(BOTTOM)=   -1.516   E(TOP)=   -0.224  3  4   166
             LOCAL ORBITAL
:E3_0001: E( 3)=    0.4156   E(BOTTOM)=    0.274   E(TOP)=    0.558  0  1   120
             APW+lo
:E2_0001: E( 2)=    0.2480   E(BOTTOM)=    0.061   E(TOP)= -200.000  2 -1   100
             APW+lo

       K=   0.00000   0.00000   0.00000            1
:RKM  : MATRIX SIZE   201LOs:  20  RKM= 8.40  WEIGHT= 1.00  PGR:    
       EIGENVALUES ARE:
:EIG00001:      -2.2123998   -0.8628171   -0.8628171   -0.8628171    0.1918547
:EIG00006:       0.4235835    0.4353825    0.4353825    0.4353825    0.4516585
:EIG00011:       0.4516585    0.4516585    0.5571460    0.5571460    0.5571460
:EIG00016:       0.6921392    0.6921392    1.0799959    1.2703649    1.2703649
:EIG00021:       1.2703649    1.3808832    1.8936676    1.8936676    1.8936676
:EIG00026:       1.9281901    1.9281901    1.9281901
       ********************************************************

:KPT   :      NUMBER OF K-POINTS:   165
:GAP (global)   :    0.0    Ry =     0.0   eV (metal)
         Bandranges (emin - emax) and occupancy:
:BAN00001:   1   -2.212400   -2.206507  2.00000000
:BAN00002:   2   -0.907954   -0.862817  2.00000000
:BAN00003:   3   -0.891998   -0.862817  2.00000000
:BAN00004:   4   -0.879499   -0.862817  2.00000000
:BAN00005:   5    0.191855    0.416544  2.00000000
:BAN00006:   6    0.391171    0.430968  2.00000000
:BAN00007:   7    0.424564    0.436687  1.00000000
:BAN00008:   8    0.433052    0.439745  0.00000000
:BAN00009:   9    0.435383    0.441519  0.00000000
:BAN00010:  10    0.437693    0.451659  0.00000000
:BAN00011:  11    0.441067    0.451659  0.00000000
:BAN00012:  12    0.442765    0.459330  0.00000000
        Energy to separate low and high energystates:    0.14185


:NOE  : NUMBER OF ELECTRONS          =   13.000

:FER  : F E R M I - ENERGY(TETRAH.M.)=   0.4317494650
:GMA  : POTENTIAL AND CHARGE CUT-OFF  12.00 Ry**.5

:POS001: ATOM    1 X,Y,Z = 0.00000 0.00000 0.50000  MULT= 1  ZZ= 59.000  Pr        

       LMMAX  5
       LM=   0 0  4 0  4 4  6 0  6 4

:CHA001: TOTAL VALENCE CHARGE INSIDE SPHERE   1 =  10.1256    (RMT=  2.5000 )
:PCS001: PARTIAL CHARGES SPHERE =  1 S,P,D,F,      D-EG,D-T2G 
:QTL001: 2.0200 5.3595 0.4674 2.2786 0.0000 0.0000 0.0000 0.1684 0.2990 0.0000 0.0000 0.0000
        Q-s-low E-s-low   Q-p-low E-p-low   Q-d-low E-d-low   Q-f-low E-f-low
:EPL001:  1.9263 -2.2078    5.3070 -0.8819    0.0004 -0.8922    0.0001 -0.8946
        Q-s-hi  E-s-hi    Q-p-hi  E-p-hi    Q-d-hi  E-d-hi    Q-f-hi  E-f-hi 
:EPH001:  0.0937  0.3346    0.0525  0.3684    0.4670  0.3938    2.2785  0.4234

:CHA  : TOTAL VALENCE CHARGE INSIDE UNIT CELL =      13.000000

:SUM  : SUM OF EIGENVALUES =          -7.723136321


        1.ATOM      Pr                   14 CORE STATES
:1S 001: 1S               -3067.144114872 Ry
:2S 001: 2S                -492.909283272 Ry
:2PP001: 2P*               -466.007004890 Ry
:2P 001: 2P                -430.610166454 Ry
:3S 001: 3S                -106.006311905 Ry
:3PP001: 3P*                -94.543751221 Ry
:3P 001: 3P                 -87.536350194 Ry
:3DD001: 3D*                -67.462754134 Ry
:3D 001: 3D                 -65.951321876 Ry
:4S 001: 4S                 -20.692327559 Ry
:4PP001: 4P*                -16.399364952 Ry
:4P 001: 4P                 -14.872425896 Ry
:4DD001: 4D*                 -7.806208815 Ry
:4D 001: 4D                  -7.536963450 Ry
:CINT001 Core Integral Atom   1   45.999517

       DENSITY AT NUCLEUS
        JATOM        VALENCE       SEMI-CORE          CORE           TOTAL
:RTO001:   1      647.037462        0.000000   656820.882325   657467.919786
     
       CHARGES OF NEW CHARGE DENSITY
:NTO   : INTERSTITIAL CHARGE =     2.874404
:NPC   : PW Pseudocharge     =     7.459305
:NTO001: CHARGE SPHERE  1    =    56.125112

:NEC01: NUCLEAR AND ELECTRONIC CHARGE     59.00000    58.99952
     
       CHARGES OF OLD CHARGE DENSITY
:OTO   : INTERSTITIAL CHARGE =     2.979893
:OPC   : PW Pseudocharge     =     7.321941
:OTO001: CHARGE SPHERE  1    =    56.020107

:NEC02: NUCLEAR AND ELECTRONIC CHARGE     59.00000    59.00000
     
       CONVERGENCE TEST
:DTO001: DIFFERENCE IN SPHERE  1 =  0.2308079

:DIS  :  CHARGE DISTANCE       ( 0.2308079 for atom    1 spin 1)      0.2308079
 PW Mixed is           60
 
******************************************************
* MULTISECANT MIXING VER9 RELEASE 10.4.0              *
* Slow Mode, cautious                                *
* Fixed density scale                                *
* Regularization       1.000E-04                     *
* Step Trust Radius    0.75000                       *
* Trust Upper Limit    2.000E+00                     *
* Max Number of Memory Steps   12                    *
******************************************************
 
:PWTMP   2.3061E+02  1.2500E+02  2.9606E+02
:PLANE:  PW TOTAL      2.6168 DISTAN   7.74E-02  2.96E+00 %
:CHARG:  CLM/ATOM    977.2555 DISTAN   7.55E-01  7.72E-02 %
 
Step History
        DMIX         DMIXT        Red     Pred      Trust     Lambda    MagRel    MagAbs     Beta
  1   3.5000E-02   3.5000E-02 -1.00E+00  1.00E+00 -1.00E+01  1.00E+00  3.50E-02  3.50E-02  1.00E+00
  2   2.5000E-02   2.5000E-02 -1.00E+00  1.00E+00 -1.00E+01  1.00E+00  2.50E-02  2.28E-02  1.00E+00
:JACOBIANS    3.441E-01   1.036E-02
  
:TRUST:  Step 3.04E-02  Charge 7.50E-02 (e) CTO  2.50E-01 (e) PW  3.50E-01 (e)
:DIRM :  MEMORY  1/12 SCALE   1.000
:MIX  :   PRATT  REGULARIZATION:  1.00E-04 GREED: 0.03036  Expand 1.21  0.0304                
     
       CHARGES OF MIXED CHARGE DENSITY
:CTO   : INTERSTITIAL CHARGE =     2.976426
:CPC   : PW Pseudocharge     =     7.624272
:CTO001: CHARGE SPHERE  1    =    56.023574

:NEC03: NUCLEAR AND ELECTRONIC CHARGE     59.00000    59.00000

PW CHANGE     H    K    L      Current       Change    Residue
:PTO001:      0    0    0  3.58058893E-02  1.009E-03  1.135E-04
:PTO002:     -1   -1   -1 -1.23115671E-01 -6.487E-03 -2.789E-03
:PTO003:      0    0   -2  7.52685697E-02  4.490E-03  1.790E-03
:PTO004:      0   -2   -2  7.10281133E-02  6.430E-03  3.955E-03
:PTO005:     -1   -1   -3 -8.00772236E-02 -9.723E-03 -1.949E-03
:PTO006:     -2   -2   -2  2.18597331E-02  2.940E-03  2.764E-04
:PTO007:      0    0   -4  6.80300419E-03  1.451E-03 -5.725E-04
:PTO008:     -1   -3   -3 -1.19990587E-02 -4.114E-03  6.704E-04
:PTO009:      0   -2   -4  8.51740803E-03  3.622E-03 -1.024E-03
:PTO010:     -2   -2   -4 -1.62574650E-04  2.015E-03 -1.879E-03
:PTO011:     -3   -3   -3  1.04755541E-03 -3.750E-04  8.503E-04
:PTO012:     -1   -1   -5  3.11718005E-03 -1.135E-03  2.003E-03

:ENE  : ********** TOTAL ENERGY IN Ry =       -18472.04262650

 Flat Integration
 New Mode for Coulomb Integral
 Consistent 3/8+Simpson combinations
 Extension of core to zero
 LDM version in phi
 Fifth-order quadrature in outwin


            ---------
:ITE003:  3. ITERATION
            ---------

:NATO :    1 INDEPENDENT AND    1 TOTAL ATOMS IN UNITCELL
       SUBSTANCE: blebleble                                                   

       LATTICE                      = F   
:POT  : POTENTIAL OPTION EX_LDA EC_LDA VX_LDA VC_LDA
:LAT  : LATTICE CONSTANTS= 10.57986 10.57986 10.57986    1.571    1.571    1.571
:VOL  : UNIT CELL VOLUME =     296.06019
       MODE OF CALCULATION IS       = RELA
       NON-SPINPOLARIZED CALCULATION
:IFFT  : FFT-parameters:   90   90   90 Factor: 2.00


   CONVERGENCE PARAMETER FOR PSEUDOCHARGE: NCON=  9
   MAXIMAL VALUE OF RMT(JATOM)*ABSK(NKK) : RK  =29.98955


:VKCOUL :  VK-COUL convergence: 0.418E-07
       ATOMNUMBER=  1 Pr         VCOUL-ZERO =  0.80827E-01
:FIT001: LUSE= 13 SIGMA OF V-XC FIT FOR ATOM  1  0.5285137E-06
:FIT001: LUSE= 13 SIGMA OF V-XC FIT FOR ATOM  1  0.5285137E-06
:DEN  : DENSITY INTEGRAL  =         -7063.33065427   (Ry)
       ELS_POTENTIAL_AT Z=0 and Z=0.5:  -2.29151  -2.29151
       ELS_POTENTIAL_AT Y=0 and Y=0.5:   0.00000   0.00000
:VZERO:v0,v0c,v0x  -3.22372  -2.29151  -0.93220 v5,v5c,v5x  -3.22372  -2.29151  -0.93220
:VZERY:v0,v0c,v0x  -0.65236   0.00000  -0.65236 v5,v5c,v5x  -0.65236   0.00000  -0.65236
:VZERX:v0,v0c,v0x  -0.65236   0.00000  -0.65236 v5,v5c,v5x  -0.65236   0.00000  -0.65236
:LMAX-WF:   10   Non-Spherical LMAX:   4

          ATOMIC SPHERE DEPENDENT PARAMETERS FOR ATOM  Pr        
:e__0001: OVERALL ENERGY PARAMETER IS    0.2372
          OVERALL BASIS SET ON ATOM IS LAPW
:E0_0001: E( 0)=    0.2372
             APW+lo
:E0_0001: E( 0)=   -2.2532   E(BOTTOM)=   -2.634   E(TOP)=   -1.872  4  5   156
             LOCAL ORBITAL
:E1_0001: E( 1)=    0.6372
             APW+lo
:E1_0001: E( 1)=   -0.8655   E(BOTTOM)=   -1.512   E(TOP)=   -0.219  3  4   167
             LOCAL ORBITAL
:E3_0001: E( 3)=    0.4224   E(BOTTOM)=    0.280   E(TOP)=    0.565  0  1   114
             APW+lo
:E2_0001: E( 2)=    0.2372   E(BOTTOM)=    0.064   E(TOP)= -200.000  2 -1    96
             APW+lo

       K=   0.00000   0.00000   0.00000            1
:RKM  : MATRIX SIZE   201LOs:  20  RKM= 8.40  WEIGHT= 1.00  PGR:    
       EIGENVALUES ARE:
:EIG00001:      -2.2077184   -0.8587069   -0.8587069   -0.8587069    0.1939467
:EIG00006:       0.4300845    0.4420500    0.4420500    0.4420500    0.4585494
:EIG00011:       0.4585494    0.4585494    0.5598125    0.5598125    0.5598125
:EIG00016:       0.6950455    0.6950455    1.0823933    1.2726011    1.2726011
:EIG00021:       1.2726011    1.3825461    1.8967451    1.8967451    1.8967451
:EIG00026:       1.9308412    1.9308412    1.9308412
       ********************************************************

:KPT   :      NUMBER OF K-POINTS:   165
:GAP (global)   :    0.0    Ry =     0.0   eV (metal)
         Bandranges (emin - emax) and occupancy:
:BAN00001:   1   -2.207718   -2.201802  2.00000000
:BAN00002:   2   -0.904013   -0.858707  2.00000000
:BAN00003:   3   -0.887996   -0.858707  2.00000000
:BAN00004:   4   -0.875449   -0.858707  2.00000000
:BAN00005:   5    0.193947    0.421290  2.00000000
:BAN00006:   6    0.393588    0.437438  2.00000000
:BAN00007:   7    0.430395    0.443419  1.00000000
:BAN00008:   8    0.439297    0.446431  0.00000000
:BAN00009:   9    0.442050    0.447752  0.00000000
:BAN00010:  10    0.444362    0.458549  0.00000000
:BAN00011:  11    0.447707    0.458549  0.00000000
:BAN00012:  12    0.449539    0.464733  0.00000000
        Energy to separate low and high energystates:    0.14395


:NOE  : NUMBER OF ELECTRONS          =   13.000

:FER  : F E R M I - ENERGY(TETRAH.M.)=   0.4379977631
:GMA  : POTENTIAL AND CHARGE CUT-OFF  12.00 Ry**.5

:POS001: ATOM    1 X,Y,Z = 0.00000 0.00000 0.50000  MULT= 1  ZZ= 59.000  Pr        

       LMMAX  5
       LM=   0 0  4 0  4 4  6 0  6 4

:CHA001: TOTAL VALENCE CHARGE INSIDE SPHERE   1 =  10.0582    (RMT=  2.5000 )
:PCS001: PARTIAL CHARGES SPHERE =  1 S,P,D,F,      D-EG,D-T2G 
:QTL001: 2.0205 5.3608 0.4913 2.1855 0.0000 0.0000 0.0000 0.1756 0.3157 0.0000 0.0000 0.0000
        Q-s-low E-s-low   Q-p-low E-p-low   Q-d-low E-d-low   Q-f-low E-f-low
:EPL001:  1.9261 -2.2031    5.3053 -0.8779    0.0004 -0.8882    0.0001 -0.8906
        Q-s-hi  E-s-hi    Q-p-hi  E-p-hi    Q-d-hi  E-d-hi    Q-f-hi  E-f-hi 
:EPH001:  0.0944  0.3376    0.0555  0.3741    0.4909  0.3986    2.1854  0.4292

:CHA  : TOTAL VALENCE CHARGE INSIDE UNIT CELL =      13.000000

:SUM  : SUM OF EIGENVALUES =          -7.667904547


        1.ATOM      Pr                   14 CORE STATES
:1S 001: 1S               -3067.134066214 Ry
:2S 001: 2S                -492.898945845 Ry
:2PP001: 2P*               -465.996711498 Ry
:2P 001: 2P                -430.599854853 Ry
:3S 001: 3S                -105.995894532 Ry
:3PP001: 3P*                -94.533330419 Ry
:3P 001: 3P                 -87.525948316 Ry
:3DD001: 3D*                -67.452323498 Ry
:3D 001: 3D                 -65.940894514 Ry
:4S 001: 4S                 -20.683472689 Ry
:4PP001: 4P*                -16.390620422 Ry
:4P 001: 4P                 -14.863848266 Ry
:4DD001: 4D*                 -7.797932464 Ry
:4D 001: 4D                  -7.528744437 Ry
:CINT001 Core Integral Atom   1   45.999515

       DENSITY AT NUCLEUS
        JATOM        VALENCE       SEMI-CORE          CORE           TOTAL
:RTO001:   1      646.920051        0.000000   656820.603834   657467.523886
     
       CHARGES OF NEW CHARGE DENSITY
:NTO   : INTERSTITIAL CHARGE =     2.941813
:NPC   : PW Pseudocharge     =     7.478758
:NTO001: CHARGE SPHERE  1    =    56.057701

:NEC01: NUCLEAR AND ELECTRONIC CHARGE     59.00000    58.99951
     
       CHARGES OF OLD CHARGE DENSITY
:OTO   : INTERSTITIAL CHARGE =     2.976426
:OPC   : PW Pseudocharge     =     7.624272
:OTO001: CHARGE SPHERE  1    =    56.023574

:NEC02: NUCLEAR AND ELECTRONIC CHARGE     59.00000    59.00000
     
       CONVERGENCE TEST
:DTO001: DIFFERENCE IN SPHERE  1 =  0.1369912

:DIS  :  CHARGE DISTANCE       ( 0.1369912 for atom    1 spin 1)      0.1369912
 PW Mixed is           60
 
******************************************************
* MULTISECANT MIXING VER9 RELEASE 10.4.0              *
* Slow Mode, cautious                                *
* Fixed density scale                                *
* Regularization       1.000E-04                     *
* Step Trust Radius    0.75000                       *
* Trust Upper Limit    2.000E+00                     *
* Max Number of Memory Steps   12                    *
******************************************************
 
:PWTMP   2.3061E+02  1.2500E+02  2.9606E+02
:PLANE:  PW TOTAL      2.7722 DISTAN   1.35E-01  4.87E+00 %
:CHARG:  CLM/ATOM    977.2545 DISTAN   7.11E-01  7.27E-02 %
 
Step History
        DMIX         DMIXT        Red     Pred      Trust     Lambda    MagRel    MagAbs     Beta
  1   3.5000E-02   3.5000E-02 -1.00E+00  1.00E+00 -1.00E+01  1.00E+00  3.50E-02  3.50E-02  1.00E+00
  2   2.5000E-02   2.5000E-02  8.34E-01  1.00E+00 -1.00E+01  1.00E+00  2.50E-02  2.28E-02  1.00E+00
  3   3.0355E-02   3.0355E-02 -1.00E+00  1.00E+00 -1.00E+01  1.00E+00  3.04E-02  2.30E-02  1.00E+00
:JACOBIANS    5.160E-01   1.579E-02
  
:NORMS:  1/Froebius, Min, Max, Used   0.8355E+00  0.3543E+00  0.8356E+00  0.8356E+00
:INFO :  Number of Memory Steps    2 Skipping    0
:INFO :  SLambda=    0.1838139517  Max    0.1838139517
:PREDicted Charge, CTotal, PW Trust    3.494E-03   3.494E-03   1.272E-01
:PREDicted DMix, Beta, BLim   3.2689E-02  9.7428E-01  2.3440E-01

Eigenvalues, unscaled except for SY+YY
   #     SY Real        SY Imag          SS             YY         SY+YY Real      SY+YY Imag
   1   1.332268E-15   0.000000E+00   1.396276E+00   1.999884E+00   1.155028E-04   0.000000E+00
   2   1.418330E+00   0.000000E+00   0.000000E+00   1.155135E-04   2.260593E+00   0.000000E+00
 
:INFO :  Singular value  2.261E+00 Weight  1.000E+00 Projection  5.783E-04
:INFO :  Singular value  1.155E-04 Weight  2.501E-01 Projection  1.353E+01
:RANK :  ACTIVE   1.25/2  =  62.51 % ; YY RANK   1.25/2  =  62.51 %
 
:DLIM :  Beta Active  9.807E-01
:BLIM :  VZERO Control Off
:TRUST:  Step 1.95E-01  Charge 7.50E-02 (e) CTO  2.50E-01 (e) PW  3.50E-01 (e)
:DIRM :  MEMORY  2/12 SCALE   1.000 RED  0.95 PRED  1.00 NEXT  0.85 BETA  0.98
:TRAVE:  Charge 1.13E-03 (e) CTO  1.13E-03 (e) PW  5.12E-03 (e)
:DIRP :  |MSR1|= 7.742E-03 |PRATT|= 1.349E-01 ANGLE=  11.8 DEGREES
:DIRQ :  |MSR1|= 1.855E-02 |PRATT|= 7.108E-01 ANGLE=   8.1 DEGREES
:DIRT :  |MSR1|= 2.010E-02 |PRATT|= 7.235E-01 ANGLE=  14.6 DEGREES
:MIX  :   MSD1   REGULARIZATION:  2.00E-04 GREED: 0.03143  Newton 1.00  0.0278                
     
       CHARGES OF MIXED CHARGE DENSITY
:CTO   : INTERSTITIAL CHARGE =     2.975294
:CPC   : PW Pseudocharge     =     7.613269
:CTO001: CHARGE SPHERE  1    =    56.024706

:NEC03: NUCLEAR AND ELECTRONIC CHARGE     59.00000    59.00000

PW CHANGE     H    K    L      Current       Change    Residue
:PTO001:      0    0    0  3.57648980E-02 -4.099E-05 -6.026E-04
:PTO002:     -1   -1   -1 -1.22859197E-01  2.565E-04  3.673E-03
:PTO003:      0    0   -2  7.50934382E-02 -1.751E-04 -2.767E-03
:PTO004:      0   -2   -2  7.08180746E-02 -2.100E-04 -2.466E-03
:PTO005:     -1   -1   -3 -7.96340948E-02  4.431E-04  7.900E-03
:PTO006:     -2   -2   -2  2.17159099E-02 -1.438E-04 -2.688E-03
:PTO007:      0    0   -4  6.70941782E-03 -9.359E-05 -2.067E-03
:PTO008:     -1   -3   -3 -1.17621433E-02  2.369E-04  4.804E-03
:PTO009:      0   -2   -4  8.29310369E-03 -2.243E-04 -4.700E-03
:PTO010:     -2   -2   -4 -3.25173090E-04 -1.626E-04 -3.924E-03
:PTO011:     -3   -3   -3  1.09162447E-03  4.407E-05  1.230E-03
:PTO012:     -1   -1   -5  3.24094840E-03  1.238E-04  3.196E-03

:ENE  : ********** TOTAL ENERGY IN Ry =       -18472.04210535

 Flat Integration
 New Mode for Coulomb Integral
 Consistent 3/8+Simpson combinations
 Extension of core to zero
 LDM version in phi
 Fifth-order quadrature in outwin


            ---------
:ITE004:  4. ITERATION
            ---------

:NATO :    1 INDEPENDENT AND    1 TOTAL ATOMS IN UNITCELL
       SUBSTANCE: blebleble                                                   

       LATTICE                      = F   
:POT  : POTENTIAL OPTION EX_LDA EC_LDA VX_LDA VC_LDA
:LAT  : LATTICE CONSTANTS= 10.57986 10.57986 10.57986    1.571    1.571    1.571
:VOL  : UNIT CELL VOLUME =     296.06019
       MODE OF CALCULATION IS       = RELA
       NON-SPINPOLARIZED CALCULATION
:IFFT  : FFT-parameters:   90   90   90 Factor: 2.00


   CONVERGENCE PARAMETER FOR PSEUDOCHARGE: NCON=  9
   MAXIMAL VALUE OF RMT(JATOM)*ABSK(NKK) : RK  =29.98955


:VKCOUL :  VK-COUL convergence: 0.399E-07
       ATOMNUMBER=  1 Pr         VCOUL-ZERO =  0.80688E-01
:FIT001: LUSE= 13 SIGMA OF V-XC FIT FOR ATOM  1  0.5529235E-06
:FIT001: LUSE= 13 SIGMA OF V-XC FIT FOR ATOM  1  0.5529235E-06
:DEN  : DENSITY INTEGRAL  =         -7063.46778107   (Ry)
       ELS_POTENTIAL_AT Z=0 and Z=0.5:  -2.29094  -2.29094
       ELS_POTENTIAL_AT Y=0 and Y=0.5:   0.00000   0.00000
:VZERO:v0,v0c,v0x  -3.22255  -2.29094  -0.93161 v5,v5c,v5x  -3.22255  -2.29094  -0.93161
:VZERY:v0,v0c,v0x  -0.65228   0.00000  -0.65228 v5,v5c,v5x  -0.65228   0.00000  -0.65228
:VZERX:v0,v0c,v0x  -0.65228   0.00000  -0.65228 v5,v5c,v5x  -0.65228   0.00000  -0.65228
:LMAX-WF:   10   Non-Spherical LMAX:   4

          ATOMIC SPHERE DEPENDENT PARAMETERS FOR ATOM  Pr        
:e__0001: OVERALL ENERGY PARAMETER IS    0.2377
          OVERALL BASIS SET ON ATOM IS LAPW
:E0_0001: E( 0)=    0.2377
             APW+lo
:E0_0001: E( 0)=   -2.2523   E(BOTTOM)=   -2.634   E(TOP)=   -1.871  4  5   157
             LOCAL ORBITAL
:E1_0001: E( 1)=    0.6377
             APW+lo
:E1_0001: E( 1)=   -0.8648   E(BOTTOM)=   -1.511   E(TOP)=   -0.218  3  4   166
             LOCAL ORBITAL
:E3_0001: E( 3)=    0.4242   E(BOTTOM)=    0.281   E(TOP)=    0.567  0  1   119
             APW+lo
:E2_0001: E( 2)=    0.2377   E(BOTTOM)=    0.064   E(TOP)= -200.000  2 -1    97
             APW+lo

       K=   0.00000   0.00000   0.00000            1
:RKM  : MATRIX SIZE   201LOs:  20  RKM= 8.40  WEIGHT= 1.00  PGR:    
       EIGENVALUES ARE:
:EIG00001:      -2.2067962   -0.8580127   -0.8580127   -0.8580127    0.1939557
:EIG00006:       0.4318962    0.4438283    0.4438283    0.4438283    0.4604543
:EIG00011:       0.4604543    0.4604543    0.5600150    0.5600150    0.5600150
:EIG00016:       0.6953080    0.6953080    1.0824932    1.2726809    1.2726809
:EIG00021:       1.2726809    1.3823327    1.8969981    1.8969981    1.8969981
:EIG00026:       1.9310596    1.9310596    1.9310596
       ********************************************************

:KPT   :      NUMBER OF K-POINTS:   165
:GAP (global)   :    0.0    Ry =     0.0   eV (metal)
         Bandranges (emin - emax) and occupancy:
:BAN00001:   1   -2.206796   -2.200871  2.00000000
:BAN00002:   2   -0.903378   -0.858013  2.00000000
:BAN00003:   3   -0.887340   -0.858013  2.00000000
:BAN00004:   4   -0.874776   -0.858013  2.00000000
:BAN00005:   5    0.193956    0.422225  2.00000000
:BAN00006:   6    0.393690    0.439178  2.00000000
:BAN00007:   7    0.431824    0.445260  1.00000000
:BAN00008:   8    0.440916    0.448251  0.00000000
:BAN00009:   9    0.443828    0.449551  0.00000000
:BAN00010:  10    0.446176    0.460454  0.00000000
:BAN00011:  11    0.449509    0.460454  0.00000000
:BAN00012:  12    0.451370    0.466075  0.00000000
        Energy to separate low and high energystates:    0.14396


:NOE  : NUMBER OF ELECTRONS          =   13.000

:FER  : F E R M I - ENERGY(TETRAH.M.)=   0.4396206783
:GMA  : POTENTIAL AND CHARGE CUT-OFF  12.00 Ry**.5

:POS001: ATOM    1 X,Y,Z = 0.00000 0.00000 0.50000  MULT= 1  ZZ= 59.000  Pr        

       LMMAX  5
       LM=   0 0  4 0  4 4  6 0  6 4

:CHA001: TOTAL VALENCE CHARGE INSIDE SPHERE   1 =  10.0305    (RMT=  2.5000 )
:PCS001: PARTIAL CHARGES SPHERE =  1 S,P,D,F,      D-EG,D-T2G 
:QTL001: 2.0207 5.3615 0.5014 2.1468 0.0000 0.0000 0.0000 0.1787 0.3227 0.0000 0.0000 0.0000
        Q-s-low E-s-low   Q-p-low E-p-low   Q-d-low E-d-low   Q-f-low E-f-low
:EPL001:  1.9261 -2.2022    5.3048 -0.8772    0.0004 -0.8875    0.0001 -0.8899
        Q-s-hi  E-s-hi    Q-p-hi  E-p-hi    Q-d-hi  E-d-hi    Q-f-hi  E-f-hi 
:EPH001:  0.0946  0.3379    0.0567  0.3756    0.5010  0.3997    2.1467  0.4307

:CHA  : TOTAL VALENCE CHARGE INSIDE UNIT CELL =      13.000000

:SUM  : SUM OF EIGENVALUES =          -7.657770700


        1.ATOM      Pr                   14 CORE STATES
:1S 001: 1S               -3067.131969918 Ry
:2S 001: 2S                -492.896297565 Ry
:2PP001: 2P*               -465.994148973 Ry
:2P 001: 2P                -430.597256697 Ry
:3S 001: 3S                -105.992751901 Ry
:3PP001: 3P*                -94.530210626 Ry
:3P 001: 3P                 -87.522813328 Ry
:3DD001: 3D*                -67.449231049 Ry
:3D 001: 3D                 -65.937795232 Ry
:4S 001: 4S                 -20.680733708 Ry
:4PP001: 4P*                -16.387931894 Ry
:4P 001: 4P                 -14.861229822 Ry
:4DD001: 4D*                 -7.795447573 Ry
:4D 001: 4D                  -7.526283974 Ry
:CINT001 Core Integral Atom   1   45.999514

       DENSITY AT NUCLEUS
        JATOM        VALENCE       SEMI-CORE          CORE           TOTAL
:RTO001:   1      646.854624        0.000000   656820.610491   657467.465115
     
       CHARGES OF NEW CHARGE DENSITY
:NTO   : INTERSTITIAL CHARGE =     2.969535
:NPC   : PW Pseudocharge     =     7.487214
:NTO001: CHARGE SPHERE  1    =    56.029978

:NEC01: NUCLEAR AND ELECTRONIC CHARGE     59.00000    58.99951
     
       CHARGES OF OLD CHARGE DENSITY
:OTO   : INTERSTITIAL CHARGE =     2.975294
:OPC   : PW Pseudocharge     =     7.613269
:OTO001: CHARGE SPHERE  1    =    56.024706

:NEC02: NUCLEAR AND ELECTRONIC CHARGE     59.00000    59.00000
     
       CONVERGENCE TEST
:DTO001: DIFFERENCE IN SPHERE  1 =  0.1097272

:DIS  :  CHARGE DISTANCE       ( 0.1097272 for atom    1 spin 1)      0.1097272
 PW Mixed is           60
 
******************************************************
* MULTISECANT MIXING VER9 RELEASE 10.4.0              *
* Slow Mode, cautious                                *
* Fixed density scale                                *
* Regularization       1.000E-04                     *
* Step Trust Radius    0.75000                       *
* Trust Upper Limit    2.000E+00                     *
* Max Number of Memory Steps   12                    *
******************************************************
 
:PWTMP   2.3061E+02  1.2500E+02  2.9606E+02
:PLANE:  PW TOTAL      2.7660 DISTAN   1.27E-01  4.59E+00 %
:CHARG:  CLM/ATOM    977.2519 DISTAN   6.83E-01  6.99E-02 %
 
Step History
        DMIX         DMIXT        Red     Pred      Trust     Lambda    MagRel    MagAbs     Beta
  1   3.5000E-02   3.5000E-02 -1.00E+00  1.00E+00 -1.00E+01  1.00E+00  3.50E-02  3.50E-02  1.00E+00
  2   2.5000E-02   2.5000E-02  8.34E-01  1.00E+00 -1.00E+01  1.00E+00  2.50E-02  2.28E-02  1.00E+00
  3   3.0355E-02   3.0355E-02  9.54E-01  1.00E+00 -1.00E+01  1.84E-01  3.04E-02  2.30E-02  1.00E+00
  4   3.1433E-02   3.1433E-02 -1.00E+00  8.50E-01  1.95E-01  1.00E+00  2.78E-02  2.01E-02  9.81E-01
:JACOBIANS    7.431E-01   1.040E-01
  
:NORMS:  1/Froebius, Min, Max, Used   0.6491E+00  0.3751E+00  0.9938E+00  0.6885E+00
:INFO :  Number of Memory Steps    3 Skipping    0
:INFO :  SLambda=    1.4247165377  Max    1.4247165377
:PREDicted Charge, CTotal, PW Trust    1.009E-02   1.009E-02   1.335E-01
:PREDicted DMix, Beta, BLim   2.5609E-01  6.1347E+00  3.6887E-01

Eigenvalues, unscaled except for SY+YY
   #     SY Real        SY Imag          SS             YY         SY+YY Real      SY+YY Imag
   1   1.174907E+00   0.000000E+00   1.141987E+00   2.409144E+00   3.862554E+00   0.000000E+00
   2   6.111972E-15   0.000000E+00   1.221247E-01   5.907658E-01   8.562877E-05   0.000000E+00
   3   2.096608E-01   0.000000E+00   6.942423E-17   8.991863E-05   1.109977E+00   0.000000E+00
 
:INFO :  Singular value  3.863E+00 Weight  1.000E+00 Projection -5.708E-02
:INFO :  Singular value  1.110E+00 Weight  1.000E+00 Projection -5.830E-01
:INFO :  Singular value  8.563E-05 Weight  1.122E-01 Projection -5.604E+00
:RANK :  ACTIVE   2.11/3  =  70.41 % ; YY RANK   2.12/3  =  70.74 %
 
:BLIM :  VZERO Control Off
:TRUST:  Step 1.82E-01  Charge 7.50E-02 (e) CTO  2.50E-01 (e) PW  3.50E-01 (e)
:DTRUS:  Lambda    1.489E+00 Increment    7.276E-12 Iterations   115 DMIX    3.620E-02
:INFOA:  Angle SubSpace to MSR1     28.30
:DIRM :  MEMORY  3/12 SCALE   1.000 RED  0.96 PRED  0.85 NEXT  0.82 
:INFO :  Limited by Atoms F by Step T

:TRAVE:  Charge 1.22E-03 (e) CTO  1.22E-03 (e) PW  9.22E-03 (e)
:DIRP :  |MSR1|= 3.015E-02 |PRATT|= 1.271E-01 ANGLE=   3.5 DEGREES
:DIRQ :  |MSR1|= 1.228E-01 |PRATT|= 6.830E-01 ANGLE=   7.0 DEGREES
:DIRT :  |MSR1|= 1.264E-01 |PRATT|= 6.947E-01 ANGLE=   7.6 DEGREES
:MIX  :   MSE1   REGULARIZATION:  2.41E-04 GREED: 0.07858  LMStep 0.48  0.1820 Step           
     
       CHARGES OF MIXED CHARGE DENSITY
:CTO   : INTERSTITIAL CHARGE =     2.976596
:CPC   : PW Pseudocharge     =     7.580451
:CTO001: CHARGE SPHERE  1    =    56.023404

:NEC03: NUCLEAR AND ELECTRONIC CHARGE     59.00000    59.00000

PW CHANGE     H    K    L      Current       Change    Residue
:PTO001:      0    0    0  3.56584479E-02 -1.065E-04 -4.394E-04
:PTO002:     -1   -1   -1 -1.21968551E-01  8.906E-04  3.398E-03
:PTO003:      0    0   -2  7.44745558E-02 -6.189E-04 -2.614E-03
:PTO004:      0   -2   -2  7.02188199E-02 -5.993E-04 -2.246E-03
:PTO005:     -1   -1   -3 -7.78754451E-02  1.759E-03  7.504E-03
:PTO006:     -2   -2   -2  2.11208364E-02 -5.951E-04 -2.555E-03
:PTO007:      0    0   -4  6.26242186E-03 -4.470E-04 -1.990E-03
:PTO008:     -1   -3   -3 -1.06963675E-02  1.066E-03  4.581E-03
:PTO009:      0   -2   -4  7.24758331E-03 -1.046E-03 -4.500E-03
:PTO010:     -2   -2   -4 -1.15957880E-03 -8.344E-04 -3.778E-03
:PTO011:     -3   -3   -3  1.33937414E-03  2.477E-04  1.189E-03
:PTO012:     -1   -1   -5  3.92688665E-03  6.859E-04  3.095E-03

:ENE  : ********** TOTAL ENERGY IN Ry =       -18472.04203005

 Flat Integration
 New Mode for Coulomb Integral
 Consistent 3/8+Simpson combinations
 Extension of core to zero
 LDM version in phi
 Fifth-order quadrature in outwin


            ---------
:ITE005:  5. ITERATION
            ---------

:NATO :    1 INDEPENDENT AND    1 TOTAL ATOMS IN UNITCELL
       SUBSTANCE: blebleble                                                   

       LATTICE                      = F   
:POT  : POTENTIAL OPTION EX_LDA EC_LDA VX_LDA VC_LDA
:LAT  : LATTICE CONSTANTS= 10.57986 10.57986 10.57986    1.571    1.571    1.571
:VOL  : UNIT CELL VOLUME =     296.06019
       MODE OF CALCULATION IS       = RELA
       NON-SPINPOLARIZED CALCULATION
:IFFT  : FFT-parameters:   90   90   90 Factor: 2.00


   CONVERGENCE PARAMETER FOR PSEUDOCHARGE: NCON=  9
   MAXIMAL VALUE OF RMT(JATOM)*ABSK(NKK) : RK  =29.98955


:VKCOUL :  VK-COUL convergence: 0.749E-07
       ATOMNUMBER=  1 Pr         VCOUL-ZERO =  0.79688E-01
:FIT001: LUSE= 13 SIGMA OF V-XC FIT FOR ATOM  1  0.3109674E-05
:FIT001: LUSE= 13 SIGMA OF V-XC FIT FOR ATOM  1  0.3109674E-05
:DEN  : DENSITY INTEGRAL  =         -7063.42659130   (Ry)
       ELS_POTENTIAL_AT Z=0 and Z=0.5:  -2.29365  -2.29365
       ELS_POTENTIAL_AT Y=0 and Y=0.5:   0.00000   0.00000
:VZERO:v0,v0c,v0x  -3.22267  -2.29365  -0.92902 v5,v5c,v5x  -3.22267  -2.29365  -0.92902
:VZERY:v0,v0c,v0x  -0.65239   0.00000  -0.65239 v5,v5c,v5x  -0.65239   0.00000  -0.65239
:VZERX:v0,v0c,v0x  -0.65239   0.00000  -0.65239 v5,v5c,v5x  -0.65239   0.00000  -0.65239
:LMAX-WF:   10   Non-Spherical LMAX:   4

          ATOMIC SPHERE DEPENDENT PARAMETERS FOR ATOM  Pr        
:e__0001: OVERALL ENERGY PARAMETER IS    0.2390
          OVERALL BASIS SET ON ATOM IS LAPW
:E0_0001: E( 0)=    0.2390
             APW+lo
:E0_0001: E( 0)=   -2.2527   E(BOTTOM)=   -2.634   E(TOP)=   -1.871  4  5   158
             LOCAL ORBITAL
:E1_0001: E( 1)=    0.6390
             APW+lo
:E1_0001: E( 1)=   -0.8653   E(BOTTOM)=   -1.512   E(TOP)=   -0.219  3  4   163
             LOCAL ORBITAL
:E3_0001: E( 3)=    0.4249   E(BOTTOM)=    0.282   E(TOP)=    0.568  0  1   115
             APW+lo
:E2_0001: E( 2)=    0.2390   E(BOTTOM)=    0.064   E(TOP)= -200.000  2 -1    96
             APW+lo

       K=   0.00000   0.00000   0.00000            1
:RKM  : MATRIX SIZE   201LOs:  20  RKM= 8.40  WEIGHT= 1.00  PGR:    
       EIGENVALUES ARE:
:EIG00001:      -2.2071898   -0.8584959   -0.8584959   -0.8584959    0.1941030
:EIG00006:       0.4330207    0.4442982    0.4442982    0.4442982    0.4611789
:EIG00011:       0.4611789    0.4611789    0.5599813    0.5599813    0.5599813
:EIG00016:       0.6950533    0.6950533    1.0824192    1.2729392    1.2729392
:EIG00021:       1.2729392    1.3819596    1.8969408    1.8969408    1.8969408
:EIG00026:       1.9311913    1.9311913    1.9311913
       ********************************************************

:KPT   :      NUMBER OF K-POINTS:   165
:GAP (global)   :    0.0    Ry =     0.0   eV (metal)
         Bandranges (emin - emax) and occupancy:
:BAN00001:   1   -2.207190   -2.201268  2.00000000
:BAN00002:   2   -0.903816   -0.858496  2.00000000
:BAN00003:   3   -0.887793   -0.858496  2.00000000
:BAN00004:   4   -0.875241   -0.858496  2.00000000
:BAN00005:   5    0.194103    0.422480  2.00000000
:BAN00006:   6    0.393616    0.439808  2.00000000
:BAN00007:   7    0.432181    0.445963  1.00000000
:BAN00008:   8    0.441443    0.448939  0.00000000
:BAN00009:   9    0.444298    0.450630  0.00000000
:BAN00010:  10    0.446863    0.461179  0.00000000
:BAN00011:  11    0.450194    0.461179  0.00000000
:BAN00012:  12    0.451922    0.466440  0.00000000
        Energy to separate low and high energystates:    0.14410


:NOE  : NUMBER OF ELECTRONS          =   13.000

:FER  : F E R M I - ENERGY(TETRAH.M.)=   0.4401676757
:GMA  : POTENTIAL AND CHARGE CUT-OFF  12.00 Ry**.5

:POS001: ATOM    1 X,Y,Z = 0.00000 0.00000 0.50000  MULT= 1  ZZ= 59.000  Pr        

       LMMAX  5
       LM=   0 0  4 0  4 4  6 0  6 4

:CHA001: TOTAL VALENCE CHARGE INSIDE SPHERE   1 =  10.0184    (RMT=  2.5000 )
:PCS001: PARTIAL CHARGES SPHERE =  1 S,P,D,F,      D-EG,D-T2G 
:QTL001: 2.0207 5.3623 0.5071 2.1282 0.0000 0.0000 0.0000 0.1802 0.3269 0.0000 0.0000 0.0000
        Q-s-low E-s-low   Q-p-low E-p-low   Q-d-low E-d-low   Q-f-low E-f-low
:EPL001:  1.9261 -2.2025    5.3051 -0.8777    0.0004 -0.8880    0.0001 -0.8904
        Q-s-hi  E-s-hi    Q-p-hi  E-p-hi    Q-d-hi  E-d-hi    Q-f-hi  E-f-hi 
:EPH001:  0.0946  0.3381    0.0572  0.3762    0.5068  0.4002    2.1281  0.4312

:CHA  : TOTAL VALENCE CHARGE INSIDE UNIT CELL =      13.000000

:SUM  : SUM OF EIGENVALUES =          -7.659788017


        1.ATOM      Pr                   14 CORE STATES
:1S 001: 1S               -3067.139831987 Ry
:2S 001: 2S                -492.900464202 Ry
:2PP001: 2P*               -465.998892056 Ry
:2P 001: 2P                -430.601759972 Ry
:3S 001: 3S                -105.993032300 Ry
:3PP001: 3P*                -94.530693999 Ry
:3P 001: 3P                 -87.523107340 Ry
:3DD001: 3D*                -67.449975654 Ry
:3D 001: 3D                 -65.938471811 Ry
:4S 001: 4S                 -20.679318792 Ry
:4PP001: 4P*                -16.386583460 Ry
:4P 001: 4P                 -14.859929139 Ry
:4DD001: 4D*                 -7.794294491 Ry
:4D 001: 4D                  -7.525150507 Ry
:CINT001 Core Integral Atom   1   45.999514

       DENSITY AT NUCLEUS
        JATOM        VALENCE       SEMI-CORE          CORE           TOTAL
:RTO001:   1      646.767115        0.000000   656821.568788   657468.335903
     
       CHARGES OF NEW CHARGE DENSITY
:NTO   : INTERSTITIAL CHARGE =     2.981586
:NPC   : PW Pseudocharge     =     7.493812
:NTO001: CHARGE SPHERE  1    =    56.017927

:NEC01: NUCLEAR AND ELECTRONIC CHARGE     59.00000    58.99951
     
       CHARGES OF OLD CHARGE DENSITY
:OTO   : INTERSTITIAL CHARGE =     2.976596
:OPC   : PW Pseudocharge     =     7.580451
:OTO001: CHARGE SPHERE  1    =    56.023404

:NEC02: NUCLEAR AND ELECTRONIC CHARGE     59.00000    59.00000
     
       CONVERGENCE TEST
:DTO001: DIFFERENCE IN SPHERE  1 =  0.0789960

:DIS  :  CHARGE DISTANCE       ( 0.0789960 for atom    1 spin 1)      0.0789960
 PW Mixed is           60
 
******************************************************
* MULTISECANT MIXING VER9 RELEASE 10.4.0              *
* Standard Mode with controls                        *
* Fixed density scale                                *
* Regularization       1.000E-04                     *
* Trust Upper Limit    5.000E+00                     *
* Max Number of Memory Steps    8                    *
******************************************************
 
:PWTMP   2.3061E+02  1.2500E+02  2.9606E+02
:PLANE:  PW TOTAL      2.7448 DISTAN   9.63E-02  3.51E+00 %
:CHARG:  CLM/ATOM    977.2338 DISTAN   5.54E-01  5.67E-02 %
 
Step History
        DMIX         DMIXT        Red     Pred      Trust     Lambda    MagRel    MagAbs     Beta
  1   3.5000E-02   3.5000E-02 -1.00E+00  1.00E+00 -1.00E+01  1.00E+00  3.50E-02  3.50E-02  1.00E+00
  2   2.5000E-02   2.5000E-02  8.34E-01  1.00E+00 -1.00E+01  1.00E+00  2.50E-02  2.28E-02  1.00E+00
  3   3.0355E-02   3.0355E-02  9.54E-01  1.00E+00 -1.00E+01  1.84E-01  3.04E-02  2.30E-02  1.00E+00
  4   3.1433E-02   3.1433E-02  9.60E-01  8.50E-01  1.95E-01  1.42E+00  2.78E-02  2.01E-02  9.81E-01
  5   7.8584E-02   3.6204E-02 -1.00E+00  8.20E-01  1.82E-01  1.00E+00  1.82E-01  1.26E-01  1.00E+00
:JACOBIANS    8.752E-01   5.316E-01
  
:NORMS:  1/Froebius, Min, Max, Used   0.7945E+00  0.4601E+00  0.9990E+00  0.7945E+00
:INFO :  Number of Memory Steps    4 Skipping    0
:INFO :  SLambda=    1.0844422457  Max    1.0844422457
:PREDicted Charge, CTotal, PW Trust    1.019E-02   1.019E-02   3.994E-02
:PREDicted DMix, Beta, BLim   5.4589E-01  3.2667E+00  9.1161E-01

Eigenvalues, unscaled except for SY+YY
   #     SY Real        SY Imag          SS             YY         SY+YY Real      SY+YY Imag
   1   1.982728E+00   0.000000E+00   1.744310E+00   3.002176E+00   5.111587E+00   0.000000E+00
   2   7.865945E-01   0.000000E+00   7.802270E-01   9.761965E-01   1.864443E+00   0.000000E+00
   3  -2.203496E-16   0.000000E+00   1.044599E-04   2.158925E-02   3.562501E-05   0.000000E+00
   4   1.848175E-03   0.000000E+00  -1.003489E-17   3.829742E-05   2.910799E-02   0.000000E+00
 
:INFO :  Singular value  5.113E+00 Weight  1.000E+00 Projection -2.873E-01
:INFO :  Singular value  1.864E+00 Weight  1.000E+00 Projection -2.623E-01
:INFO :  Singular value  2.911E-02 Weight  9.999E-01 Projection -1.027E+00
:INFO :  Singular value  3.562E-05 Weight  1.388E-02 Projection -4.050E-01
:RANK :  ACTIVE   3.01/4  =  75.34 % ; YY RANK   3.02/4  =  75.40 %
 
:BLIM :  VZERO Control Off
:TRUST:  Step 5.50E-01  Charge 7.50E-02 (e) CTO  2.50E-01 (e) PW  3.50E-01 (e)
:DTRUS:  Lambda    1.009E+00 Increment    7.276E-12 Iterations   106 DMIX    1.654E-01
:INFOA:  Angle SubSpace to MSR1      1.61
:DIRM :  MEMORY  4/8  SCALE   1.000 RED  0.81 PRED  0.82 NEXT  0.48 
:INFO :  Limited by Atoms F by Step T

:TRAVE:  Charge 1.71E-03 (e) CTO  1.71E-03 (e) PW  1.46E-02 (e)
:DIRP :  |MSR1|= 5.772E-02 |PRATT|= 9.625E-02 ANGLE=   2.5 DEGREES
:DIRQ :  |MSR1|= 3.038E-01 |PRATT|= 5.540E-01 ANGLE=   5.1 DEGREES
:DIRT :  |MSR1|= 3.093E-01 |PRATT|= 5.623E-01 ANGLE=   5.1 DEGREES
:MIX  :   MSE1   REGULARIZATION:  3.00E-04 GREED: 0.19646  LMStep 0.61  0.5500 Step           
     
       CHARGES OF MIXED CHARGE DENSITY
:CTO   : INTERSTITIAL CHARGE =     2.978797
:CPC   : PW Pseudocharge     =     7.530736
:CTO001: CHARGE SPHERE  1    =    56.021203

:NEC03: NUCLEAR AND ELECTRONIC CHARGE     59.00000    59.00000

PW CHANGE     H    K    L      Current       Change    Residue
:PTO001:      0    0    0  3.54979600E-02 -1.605E-04 -2.700E-04
:PTO002:     -1   -1   -1 -1.20469193E-01  1.499E-03  2.447E-03
:PTO003:      0    0   -2  7.33795305E-02 -1.095E-03 -1.978E-03
:PTO004:      0   -2   -2  6.93611381E-02 -8.577E-04 -1.601E-03
:PTO005:     -1   -1   -3 -7.45096708E-02  3.366E-03  5.731E-03
:PTO006:     -2   -2   -2  1.99437925E-02 -1.177E-03 -1.966E-03
:PTO007:      0    0   -4  5.32604243E-03 -9.364E-04 -1.539E-03
:PTO008:     -1   -3   -3 -8.49936029E-03  2.197E-03  3.536E-03
:PTO009:      0   -2   -4  5.08222648E-03 -2.165E-03 -3.459E-03
:PTO010:     -2   -2   -4 -2.99322666E-03 -1.834E-03 -2.962E-03
:PTO011:     -3   -3   -3  1.91376267E-03  5.744E-04  9.502E-04
:PTO012:     -1   -1   -5  5.44359626E-03  1.517E-03  2.402E-03

:ENE  : ********** TOTAL ENERGY IN Ry =       -18472.04201320

 Flat Integration
 New Mode for Coulomb Integral
 Consistent 3/8+Simpson combinations
 Extension of core to zero
 LDM version in phi
 Fifth-order quadrature in outwin


            ---------
:ITE006:  6. ITERATION
            ---------

:NATO :    1 INDEPENDENT AND    1 TOTAL ATOMS IN UNITCELL
       SUBSTANCE: blebleble                                                   

       LATTICE                      = F   
:POT  : POTENTIAL OPTION EX_LDA EC_LDA VX_LDA VC_LDA
:LAT  : LATTICE CONSTANTS= 10.57986 10.57986 10.57986    1.571    1.571    1.571
:VOL  : UNIT CELL VOLUME =     296.06019
       MODE OF CALCULATION IS       = RELA
       NON-SPINPOLARIZED CALCULATION
:IFFT  : FFT-parameters:   90   90   90 Factor: 2.00


   CONVERGENCE PARAMETER FOR PSEUDOCHARGE: NCON=  9
   MAXIMAL VALUE OF RMT(JATOM)*ABSK(NKK) : RK  =29.98955


:VKCOUL :  VK-COUL convergence: 0.201E-06
       ATOMNUMBER=  1 Pr         VCOUL-ZERO =  0.77730E-01
:FIT001: LUSE= 13 SIGMA OF V-XC FIT FOR ATOM  1  0.2417590E-04
:FIT001: LUSE= 13 SIGMA OF V-XC FIT FOR ATOM  1  0.2417590E-04
:DEN  : DENSITY INTEGRAL  =         -7063.29246404   (Ry)
       ELS_POTENTIAL_AT Z=0 and Z=0.5:  -2.30195  -2.30195
       ELS_POTENTIAL_AT Y=0 and Y=0.5:   0.00000   0.00000
:VZERO:v0,v0c,v0x  -3.22519  -2.30195  -0.92324 v5,v5c,v5x  -3.22519  -2.30195  -0.92324
:VZERY:v0,v0c,v0x  -0.65269   0.00000  -0.65269 v5,v5c,v5x  -0.65269   0.00000  -0.65269
:VZERX:v0,v0c,v0x  -0.65269   0.00000  -0.65269 v5,v5c,v5x  -0.65269   0.00000  -0.65269
:LMAX-WF:   10   Non-Spherical LMAX:   4

          ATOMIC SPHERE DEPENDENT PARAMETERS FOR ATOM  Pr        
:e__0001: OVERALL ENERGY PARAMETER IS    0.2398
          OVERALL BASIS SET ON ATOM IS LAPW
:E0_0001: E( 0)=    0.2398
             APW+lo
:E0_0001: E( 0)=   -2.2536   E(BOTTOM)=   -2.635   E(TOP)=   -1.872  4  5   157
             LOCAL ORBITAL
:E1_0001: E( 1)=    0.6398
             APW+lo
:E1_0001: E( 1)=   -0.8664   E(BOTTOM)=   -1.513   E(TOP)=   -0.220  3  4   168
             LOCAL ORBITAL
:E3_0001: E( 3)=    0.4260   E(BOTTOM)=    0.283   E(TOP)=    0.569  0  1   113
             APW+lo
:E2_0001: E( 2)=    0.2398   E(BOTTOM)=    0.063   E(TOP)= -200.000  2 -1    96
             APW+lo

       K=   0.00000   0.00000   0.00000            1
:RKM  : MATRIX SIZE   201LOs:  20  RKM= 8.40  WEIGHT= 1.00  PGR:    
       EIGENVALUES ARE:
:EIG00001:      -2.2079922   -0.8594408   -0.8594408   -0.8594408    0.1947056
:EIG00006:       0.4347810    0.4453163    0.4453163    0.4453163    0.4623662
:EIG00011:       0.4623662    0.4623662    0.5601372    0.5601372    0.5601372
:EIG00016:       0.6948089    0.6948089    1.0823970    1.2737535    1.2737535
:EIG00021:       1.2737535    1.3813372    1.8970274    1.8970274    1.8970274
:EIG00026:       1.9317226    1.9317226    1.9317226
       ********************************************************

:KPT   :      NUMBER OF K-POINTS:   165
:GAP (global)   :    0.0    Ry =     0.0   eV (metal)
         Bandranges (emin - emax) and occupancy:
:BAN00001:   1   -2.207992   -2.202080  2.00000000
:BAN00002:   2   -0.904644   -0.859441  2.00000000
:BAN00003:   3   -0.888660   -0.859441  2.00000000
:BAN00004:   4   -0.876140   -0.859441  2.00000000
:BAN00005:   5    0.194706    0.423104  2.00000000
:BAN00006:   6    0.393694    0.440604  2.00000000
:BAN00007:   7    0.433004    0.446928  1.00000000
:BAN00008:   8    0.442414    0.450085  0.00000000
:BAN00009:   9    0.445316    0.452353  0.00000000
:BAN00010:  10    0.448015    0.462366  0.00000000
:BAN00011:  11    0.451335    0.462366  0.00000000
:BAN00012:  12    0.453001    0.467272  0.00000000
        Energy to separate low and high energystates:    0.14471


:NOE  : NUMBER OF ELECTRONS          =   13.000

:FER  : F E R M I - ENERGY(TETRAH.M.)=   0.4412105797
:GMA  : POTENTIAL AND CHARGE CUT-OFF  12.00 Ry**.5

:POS001: ATOM    1 X,Y,Z = 0.00000 0.00000 0.50000  MULT= 1  ZZ= 59.000  Pr        

       LMMAX  5
       LM=   0 0  4 0  4 4  6 0  6 4

:CHA001: TOTAL VALENCE CHARGE INSIDE SPHERE   1 =   9.9997    (RMT=  2.5000 )
:PCS001: PARTIAL CHARGES SPHERE =  1 S,P,D,F,      D-EG,D-T2G 
:QTL001: 2.0207 5.3640 0.5166 2.0983 0.0000 0.0000 0.0000 0.1828 0.3338 0.0000 0.0000 0.0000
        Q-s-low E-s-low   Q-p-low E-p-low   Q-d-low E-d-low   Q-f-low E-f-low
:EPL001:  1.9261 -2.2034    5.3060 -0.8786    0.0004 -0.8889    0.0001 -0.8912
        Q-s-hi  E-s-hi    Q-p-hi  E-p-hi    Q-d-hi  E-d-hi    Q-f-hi  E-f-hi 
:EPH001:  0.0946  0.3386    0.0580  0.3776    0.5162  0.4011    2.0982  0.4322

:CHA  : TOTAL VALENCE CHARGE INSIDE UNIT CELL =      13.000000

:SUM  : SUM OF EIGENVALUES =          -7.663249086


        1.ATOM      Pr                   14 CORE STATES
:1S 001: 1S               -3067.158352018 Ry
:2S 001: 2S                -492.910801501 Ry
:2PP001: 2P*               -466.010477583 Ry
:2P 001: 2P                -430.612821694 Ry
:3S 001: 3S                -105.994904754 Ry
:3PP001: 3P*                -94.533013108 Ry
:3P 001: 3P                 -87.525001395 Ry
:3DD001: 3D*                -67.452862851 Ry
:3D 001: 3D                 -65.941208717 Ry
:4S 001: 4S                 -20.676880475 Ry
:4PP001: 4P*                -16.384264541 Ry
:4P 001: 4P                 -14.857671556 Ry
:4DD001: 4D*                 -7.792295460 Ry
:4D 001: 4D                  -7.523181065 Ry
:CINT001 Core Integral Atom   1   45.999513

       DENSITY AT NUCLEUS
        JATOM        VALENCE       SEMI-CORE          CORE           TOTAL
:RTO001:   1      646.592850        0.000000   656823.784250   657470.377100
     
       CHARGES OF NEW CHARGE DENSITY
:NTO   : INTERSTITIAL CHARGE =     3.000299
:NPC   : PW Pseudocharge     =     7.506043
:NTO001: CHARGE SPHERE  1    =    55.999214

:NEC01: NUCLEAR AND ELECTRONIC CHARGE     59.00000    58.99951
     
       CHARGES OF OLD CHARGE DENSITY
:OTO   : INTERSTITIAL CHARGE =     2.978797
:OPC   : PW Pseudocharge     =     7.530736
:OTO001: CHARGE SPHERE  1    =    56.021203

:NEC02: NUCLEAR AND ELECTRONIC CHARGE     59.00000    59.00000
     
       CONVERGENCE TEST
:DTO001: DIFFERENCE IN SPHERE  1 =  0.0452065

:DIS  :  CHARGE DISTANCE       ( 0.0452065 for atom    1 spin 1)      0.0452065
 PW Mixed is           60
 
******************************************************
* MULTISECANT MIXING VER9 RELEASE 10.4.0              *
* Standard Mode with controls                        *
* Fixed density scale                                *
* Regularization       1.000E-04                     *
* Trust Upper Limit    5.000E+00                     *
* Max Number of Memory Steps    8                    *
******************************************************
 
:PWTMP   2.3061E+02  1.2500E+02  2.9606E+02
:PLANE:  PW TOTAL      2.7089 DISTAN   3.72E-02  1.37E+00 %
:CHARG:  CLM/ATOM    977.1928 DISTAN   2.53E-01  2.59E-02 %
 
Step History
        DMIX         DMIXT        Red     Pred      Trust     Lambda    MagRel    MagAbs     Beta
  1   3.5000E-02   3.5000E-02 -1.00E+00  1.00E+00 -1.00E+01  1.00E+00  3.50E-02  3.50E-02  1.00E+00
  2   2.5000E-02   2.5000E-02  8.34E-01  1.00E+00 -1.00E+01  1.00E+00  2.50E-02  2.28E-02  1.00E+00
  3   3.0355E-02   3.0355E-02  9.54E-01  1.00E+00 -1.00E+01  1.84E-01  3.04E-02  2.30E-02  1.00E+00
  4   3.1433E-02   3.1433E-02  9.60E-01  8.50E-01  1.95E-01  1.42E+00  2.78E-02  2.01E-02  9.81E-01
  5   7.8584E-02   3.6204E-02  8.09E-01  8.20E-01  1.82E-01  1.08E+00  1.82E-01  1.26E-01  1.00E+00
  6   1.9646E-01   1.6542E-01 -1.00E+00  4.85E-01  5.50E-01  1.00E+00  5.50E-01  3.09E-01  1.00E+00
:JACOBIANS    9.351E-01   9.886E-01
  
:NORMS:  1/Froebius, Min, Max, Used   0.8914E+00  0.4672E+00  0.9933E+00  0.8995E+00
:INFO :  Number of Memory Steps    5 Skipping    0
:INFO :  SLambda=    0.9718424665  Max    0.9718424665
:PREDicted Charge, CTotal, PW Trust    3.415E-03   3.415E-03   2.796E-02
:PREDicted DMix, Beta, BLim   3.9055E-01  1.6383E+00  9.9871E-01

Eigenvalues, unscaled except for SY+YY
   #     SY Real        SY Imag          SS             YY         SY+YY Real      SY+YY Imag
   1   3.853207E+00   0.000000E+00   3.627127E+00   4.482468E+00   8.217664E+00   0.000000E+00
   2   3.513814E-01   0.000000E+00   3.451765E-01   5.095029E-01   8.590686E-01   0.000000E+00
   3   1.530131E-03   0.000000E+00   6.540758E-04   7.182411E-03   9.915820E-03   0.000000E+00
   4   4.080333E-16   0.000000E+00   1.045868E-05   8.447370E-04   2.035181E-06   0.000000E+00
   5   1.623488E-04   0.000000E+00   3.276717E-17   2.313451E-06   1.192010E-03   0.000000E+00
 
:INFO :  Singular value  8.218E+00 Weight  1.000E+00 Projection -1.060E-01
:INFO :  Singular value  8.590E-01 Weight  1.000E+00 Projection -1.048E-01
:INFO :  Singular value  9.916E-03 Weight  9.980E-01 Projection -1.275E+00
:INFO :  Singular value  1.192E-03 Weight  8.762E-01 Projection  1.656E+00
:INFO :  Singular value  2.034E-06 Weight  2.060E-05 Projection  4.954E-04
:RANK :  ACTIVE   3.87/5  =  77.48 % ; YY RANK   3.78/5  =  75.53 %
 
:BLIM :  VZERO Control Off
:TRUST:  Step 7.33E-01  Charge 7.50E-02 (e) CTO  2.50E-01 (e) PW  3.50E-01 (e)
:DTRUS:  Lambda    7.660E-01 Increment    7.276E-12 Iterations   100 DMIX    2.397E-01
:INFOA:  Angle SubSpace to MSR1      1.47
:DIRM :  MEMORY  5/8  SCALE   1.000 RED  0.45 PRED  0.48 NEXT  0.30 
:INFO :  Limited by Atoms F by Step T

:TRAVE:  Charge 1.04E-03 (e) CTO  1.04E-03 (e) PW  1.20E-02 (e)
:DIRP :  |MSR1|= 2.919E-02 |PRATT|= 3.716E-02 ANGLE=   6.8 DEGREES
:DIRQ :  |MSR1|= 1.850E-01 |PRATT|= 2.527E-01 ANGLE=  10.5 DEGREES
:DIRT :  |MSR1|= 1.873E-01 |PRATT|= 2.554E-01 ANGLE=  10.5 DEGREES
:MIX  :   MSD1   REGULARIZATION:  4.48E-04 GREED: 0.25806  LMStep 0.73  0.7333 Step           
     
       CHARGES OF MIXED CHARGE DENSITY
:CTO   : INTERSTITIAL CHARGE =     2.978427
:CPC   : PW Pseudocharge     =     7.508950
:CTO001: CHARGE SPHERE  1    =    56.021573

:NEC03: NUCLEAR AND ELECTRONIC CHARGE     59.00000    59.00000

PW CHANGE     H    K    L      Current       Change    Residue
:PTO001:      0    0    0  3.54231236E-02 -7.484E-05 -5.011E-06
:PTO002:     -1   -1   -1 -1.19805504E-01  6.637E-04  8.191E-04
:PTO003:      0    0   -2  7.28038184E-02 -5.757E-04 -8.302E-04
:PTO004:      0   -2   -2  6.89487187E-02 -4.124E-04 -6.287E-04
:PTO005:     -1   -1   -3 -7.27614754E-02  1.748E-03  2.310E-03
:PTO006:     -2   -2   -2  1.93263283E-02 -6.175E-04 -7.892E-04
:PTO007:      0    0   -4  4.84625241E-03 -4.798E-04 -6.000E-04
:PTO008:     -1   -3   -3 -7.37573740E-03  1.124E-03  1.357E-03
:PTO009:      0   -2   -4  4.00232358E-03 -1.080E-03 -1.295E-03
:PTO010:     -2   -2   -4 -3.95241568E-03 -9.592E-04 -1.157E-03
:PTO011:     -3   -3   -3  2.23060446E-03  3.168E-04  3.900E-04
:PTO012:     -1   -1   -5  6.19502575E-03  7.514E-04  8.828E-04

:ENE  : ********** TOTAL ENERGY IN Ry =       -18472.04205160

 Flat Integration
 New Mode for Coulomb Integral
 Consistent 3/8+Simpson combinations
 Extension of core to zero
 LDM version in phi
 Fifth-order quadrature in outwin


            ---------
:ITE007:  7. ITERATION
            ---------

:NATO :    1 INDEPENDENT AND    1 TOTAL ATOMS IN UNITCELL
       SUBSTANCE: blebleble                                                   

       LATTICE                      = F   
:POT  : POTENTIAL OPTION EX_LDA EC_LDA VX_LDA VC_LDA
:LAT  : LATTICE CONSTANTS= 10.57986 10.57986 10.57986    1.571    1.571    1.571
:VOL  : UNIT CELL VOLUME =     296.06019
       MODE OF CALCULATION IS       = RELA
       NON-SPINPOLARIZED CALCULATION
:IFFT  : FFT-parameters:   90   90   90 Factor: 2.00


   CONVERGENCE PARAMETER FOR PSEUDOCHARGE: NCON=  9
   MAXIMAL VALUE OF RMT(JATOM)*ABSK(NKK) : RK  =29.98955


:VKCOUL :  VK-COUL convergence: 0.275E-06
       ATOMNUMBER=  1 Pr         VCOUL-ZERO =  0.77160E-01
:FIT001: LUSE= 13 SIGMA OF V-XC FIT FOR ATOM  1  0.4570439E-04
:FIT001: LUSE= 13 SIGMA OF V-XC FIT FOR ATOM  1  0.4570439E-04
:DEN  : DENSITY INTEGRAL  =         -7063.16344165   (Ry)
       ELS_POTENTIAL_AT Z=0 and Z=0.5:  -2.30681  -2.30681
       ELS_POTENTIAL_AT Y=0 and Y=0.5:   0.00000   0.00000
:VZERO:v0,v0c,v0x  -3.22635  -2.30681  -0.91954 v5,v5c,v5x  -3.22635  -2.30681  -0.91954
:VZERY:v0,v0c,v0x  -0.65274   0.00000  -0.65274 v5,v5c,v5x  -0.65274   0.00000  -0.65274
:VZERX:v0,v0c,v0x  -0.65274   0.00000  -0.65274 v5,v5c,v5x  -0.65274   0.00000  -0.65274
:LMAX-WF:   10   Non-Spherical LMAX:   4

          ATOMIC SPHERE DEPENDENT PARAMETERS FOR ATOM  Pr        
:e__0001: OVERALL ENERGY PARAMETER IS    0.2407
          OVERALL BASIS SET ON ATOM IS LAPW
:E0_0001: E( 0)=    0.2407
             APW+lo
:E0_0001: E( 0)=   -2.2541   E(BOTTOM)=   -2.636   E(TOP)=   -1.873  4  5   158
             LOCAL ORBITAL
:E1_0001: E( 1)=    0.6407
             APW+lo
:E1_0001: E( 1)=   -0.8669   E(BOTTOM)=   -1.514   E(TOP)=   -0.220  3  4   166
             LOCAL ORBITAL
:E3_0001: E( 3)=    0.4257   E(BOTTOM)=    0.282   E(TOP)=    0.569  0  1   119
             APW+lo
:E2_0001: E( 2)=    0.2407   E(BOTTOM)=    0.062   E(TOP)= -200.000  2 -1    96
             APW+lo

       K=   0.00000   0.00000   0.00000            1
:RKM  : MATRIX SIZE   201LOs:  20  RKM= 8.40  WEIGHT= 1.00  PGR:    
       EIGENVALUES ARE:
:EIG00001:      -2.2084575   -0.8598651   -0.8598651   -0.8598651    0.1950635
:EIG00006:       0.4342108    0.4452782    0.4452782    0.4452782    0.4618985
:EIG00011:       0.4618985    0.4618985    0.5603247    0.5603247    0.5603247
:EIG00016:       0.6949254    0.6949254    1.0823025    1.2741231    1.2741231
:EIG00021:       1.2741231    1.3809513    1.8970664    1.8970664    1.8970664
:EIG00026:       1.9320349    1.9320349    1.9320349
       ********************************************************

:KPT   :      NUMBER OF K-POINTS:   165
:GAP (global)   :    0.0    Ry =     0.0   eV (metal)
         Bandranges (emin - emax) and occupancy:
:BAN00001:   1   -2.208458   -2.202553  2.00000000
:BAN00002:   2   -0.904999   -0.859865  2.00000000
:BAN00003:   3   -0.889039   -0.859865  2.00000000
:BAN00004:   4   -0.876537   -0.859865  2.00000000
:BAN00005:   5    0.195063    0.423150  2.00000000
:BAN00006:   6    0.393849    0.440428  2.00000000
:BAN00007:   7    0.432984    0.446698  1.00000000
:BAN00008:   8    0.442181    0.449677  0.00000000
:BAN00009:   9    0.445278    0.451853  0.00000000
:BAN00010:  10    0.447609    0.461899  0.00000000
:BAN00011:  11    0.450918    0.461899  0.00000000
:BAN00012:  12    0.452829    0.467239  0.00000000
        Energy to separate low and high energystates:    0.14506


:NOE  : NUMBER OF ELECTRONS          =   13.000

:FER  : F E R M I - ENERGY(TETRAH.M.)=   0.4409861163
:GMA  : POTENTIAL AND CHARGE CUT-OFF  12.00 Ry**.5

:POS001: ATOM    1 X,Y,Z = 0.00000 0.00000 0.50000  MULT= 1  ZZ= 59.000  Pr        

       LMMAX  5
       LM=   0 0  4 0  4 4  6 0  6 4

:CHA001: TOTAL VALENCE CHARGE INSIDE SPHERE   1 =  10.0083    (RMT=  2.5000 )
:PCS001: PARTIAL CHARGES SPHERE =  1 S,P,D,F,      D-EG,D-T2G 
:QTL001: 2.0206 5.3641 0.5142 2.1092 0.0000 0.0000 0.0000 0.1822 0.3320 0.0000 0.0000 0.0000
        Q-s-low E-s-low   Q-p-low E-p-low   Q-d-low E-d-low   Q-f-low E-f-low
:EPL001:  1.9262 -2.2038    5.3066 -0.8790    0.0004 -0.8893    0.0001 -0.8916
        Q-s-hi  E-s-hi    Q-p-hi  E-p-hi    Q-d-hi  E-d-hi    Q-f-hi  E-f-hi 
:EPH001:  0.0944  0.3388    0.0575  0.3774    0.5139  0.4011    2.1091  0.4321

:CHA  : TOTAL VALENCE CHARGE INSIDE UNIT CELL =      13.000000

:SUM  : SUM OF EIGENVALUES =          -7.666447791


        1.ATOM      Pr                   14 CORE STATES
:1S 001: 1S               -3067.166935213 Ry
:2S 001: 2S                -492.916405975 Ry
:2PP001: 2P*               -466.016481189 Ry
:2P 001: 2P                -430.618648856 Ry
:3S 001: 3S                -105.997756377 Ry
:3PP001: 3P*                -94.536017516 Ry
:3P 001: 3P                 -87.527846657 Ry
:3DD001: 3D*                -67.456045993 Ry
:3D 001: 3D                 -65.944339617 Ry
:4S 001: 4S                 -20.677339097 Ry
:4PP001: 4P*                -16.384724346 Ry
:4P 001: 4P                 -14.858086875 Ry
:4DD001: 4D*                 -7.792701136 Ry
:4D 001: 4D                  -7.523576669 Ry
:CINT001 Core Integral Atom   1   45.999513

       DENSITY AT NUCLEUS
        JATOM        VALENCE       SEMI-CORE          CORE           TOTAL
:RTO001:   1      646.535087        0.000000   656824.723037   657471.258124
     
       CHARGES OF NEW CHARGE DENSITY
:NTO   : INTERSTITIAL CHARGE =     2.991741
:NPC   : PW Pseudocharge     =     7.506511
:NTO001: CHARGE SPHERE  1    =    56.007771

:NEC01: NUCLEAR AND ELECTRONIC CHARGE     59.00000    58.99951
     
       CHARGES OF OLD CHARGE DENSITY
:OTO   : INTERSTITIAL CHARGE =     2.978427
:OPC   : PW Pseudocharge     =     7.508950
:OTO001: CHARGE SPHERE  1    =    56.021573

:NEC02: NUCLEAR AND ELECTRONIC CHARGE     59.00000    59.00000
     
       CONVERGENCE TEST
:DTO001: DIFFERENCE IN SPHERE  1 =  0.0279266

:DIS  :  CHARGE DISTANCE       ( 0.0279266 for atom    1 spin 1)      0.0279266
 PW Mixed is           60
 
******************************************************
* MULTISECANT MIXING VER9 RELEASE 10.4.0              *
* Standard Mode with controls                        *
* Fixed density scale                                *
* Regularization       1.000E-04                     *
* Trust Upper Limit    5.000E+00                     *
* Max Number of Memory Steps    8                    *
******************************************************
 
:PWTMP   2.3061E+02  1.2500E+02  2.9606E+02
:PLANE:  PW TOTAL      2.6918 DISTAN   7.50E-03  2.79E-01 %
:CHARG:  CLM/ATOM    977.1765 DISTAN   5.96E-02  6.10E-03 %
 
Step History
        DMIX         DMIXT        Red     Pred      Trust     Lambda    MagRel    MagAbs     Beta
  1   3.5000E-02   3.5000E-02 -1.00E+00  1.00E+00 -1.00E+01  1.00E+00  3.50E-02  3.50E-02  1.00E+00
  2   2.5000E-02   2.5000E-02  8.34E-01  1.00E+00 -1.00E+01  1.00E+00  2.50E-02  2.28E-02  1.00E+00
  3   3.0355E-02   3.0355E-02  9.54E-01  1.00E+00 -1.00E+01  1.84E-01  3.04E-02  2.30E-02  1.00E+00
  4   3.1433E-02   3.1433E-02  9.60E-01  8.50E-01  1.95E-01  1.42E+00  2.78E-02  2.01E-02  9.81E-01
  5   7.8584E-02   3.6204E-02  8.09E-01  8.20E-01  1.82E-01  1.08E+00  1.82E-01  1.26E-01  1.00E+00
  6   1.9646E-01   1.6542E-01  4.54E-01  4.85E-01  5.50E-01  9.72E-01  5.50E-01  3.09E-01  1.00E+00
  7   2.5806E-01   2.3971E-01 -1.00E+00  3.02E-01  7.33E-01  1.00E+00  7.33E-01  1.87E-01  1.00E+00
:JACOBIANS    9.586E-01   1.247E+00
  
:NORMS:  1/Froebius, Min, Max, Used   0.9231E+00  0.5107E+00  0.1060E+01  0.9398E+00
:INFO :  Number of Memory Steps    6 Skipping    0
:INFO :  SLambda=    0.9676933707  Max    0.9676933707
:PREDicted Charge, CTotal, PW Trust    6.301E-05   6.301E-05   1.197E-02
:PREDicted DMix, Beta, BLim   1.0874E-01  1.2687E+00  9.3879E-01

Eigenvalues, unscaled except for SY+YY
   #     SY Real        SY Imag          SS             YY         SY+YY Real      SY+YY Imag
   1   5.098056E+00   0.000000E+00   4.849871E+00   5.490956E+00   1.042116E+01   0.000000E+00
   2   2.544320E-01   0.000000E+00   2.452137E-01   4.351991E-01   6.787217E-01   0.000000E+00
   3   3.476613E-02   0.000000E+00   1.724006E-02   7.213053E-02   1.112580E-01   0.000000E+00
   4   1.592163E-04   0.000000E+00   1.545970E-05   1.670927E-03   2.178589E-03   0.000000E+00
   5   4.143540E-16   0.000000E+00   4.265955E-06   4.347707E-05   6.642652E-08   0.000000E+00
   6   1.785019E-05   0.000000E+00   9.358100E-17   6.202000E-08   6.083131E-05   0.000000E+00
 
:INFO :  Singular value  1.042E+01 Weight  1.000E+00 Projection  2.037E-02
:INFO :  Singular value  6.787E-01 Weight  1.000E+00 Projection  3.327E-02
:INFO :  Singular value  1.113E-01 Weight  1.000E+00 Projection -6.255E-02
:INFO :  Singular value  2.179E-03 Weight  9.403E-01 Projection  3.672E-01
:INFO :  Singular value  6.087E-05 Weight  1.214E-02 Projection -2.638E-02
:INFO :  Singular value  6.639E-08 Weight  1.462E-08 Projection -9.297E-08
:RANK :  ACTIVE   3.95/6  =  65.87 % ; YY RANK   3.91/6  =  65.15 %
 
:BLIM :  VZERO Control Off
:TRUST:  Step 9.78E-01  Charge 7.50E-02 (e) CTO  2.50E-01 (e) PW  3.50E-01 (e)
:DIRM :  MEMORY  6/8  SCALE   1.000 RED  0.24 PRED  0.30 NEXT  0.25 
:TRAVE:  Charge 7.05E-04 (e) CTO  7.05E-04 (e) PW  7.10E-03 (e)
:DIRP :  |MSR1|= 7.929E-03 |PRATT|= 7.505E-03 ANGLE=  23.4 DEGREES
:DIRQ :  |MSR1|= 5.170E-02 |PRATT|= 5.963E-02 ANGLE=  28.4 DEGREES
:DIRT :  |MSR1|= 5.231E-02 |PRATT|= 6.010E-02 ANGLE=  28.3 DEGREES
:MIX  :   MSD1   REGULARIZATION:  5.49E-04 GREED: 0.15028  Newton 1.00  0.8704                
     
       CHARGES OF MIXED CHARGE DENSITY
:CTO   : INTERSTITIAL CHARGE =     2.978797
:CPC   : PW Pseudocharge     =     7.503342
:CTO001: CHARGE SPHERE  1    =    56.021203

:NEC03: NUCLEAR AND ELECTRONIC CHARGE     59.00000    59.00000

PW CHANGE     H    K    L      Current       Change    Residue
:PTO001:      0    0    0  3.54054325E-02 -1.769E-05  4.251E-05
:PTO002:     -1   -1   -1 -1.19633673E-01  1.718E-04  1.076E-04
:PTO003:      0    0   -2  7.26403327E-02 -1.635E-04 -2.109E-04
:PTO004:      0   -2   -2  6.88324514E-02 -1.163E-04 -1.600E-04
:PTO005:     -1   -1   -3 -7.22757602E-02  4.857E-04  5.085E-04
:PTO006:     -2   -2   -2  1.91589514E-02 -1.674E-04 -1.458E-04
:PTO007:      0    0   -4  4.71417055E-03 -1.321E-04 -1.210E-04
:PTO008:     -1   -3   -3 -7.07673629E-03  2.990E-04  2.058E-04
:PTO009:      0   -2   -4  3.71291671E-03 -2.894E-04 -2.090E-04
:PTO010:     -2   -2   -4 -4.20849145E-03 -2.561E-04 -1.767E-04
:PTO011:     -3   -3   -3  2.31554163E-03  8.494E-05  6.112E-05
:PTO012:     -1   -1   -5  6.39588840E-03  2.009E-04  1.353E-04

:ENE  : ********** TOTAL ENERGY IN Ry =       -18472.04202465

 Flat Integration
 New Mode for Coulomb Integral
 Consistent 3/8+Simpson combinations
 Extension of core to zero
 LDM version in phi
 Fifth-order quadrature in outwin


            ---------
:ITE008:  8. ITERATION
            ---------

:NATO :    1 INDEPENDENT AND    1 TOTAL ATOMS IN UNITCELL
       SUBSTANCE: blebleble                                                   

       LATTICE                      = F   
:POT  : POTENTIAL OPTION EX_LDA EC_LDA VX_LDA VC_LDA
:LAT  : LATTICE CONSTANTS= 10.57986 10.57986 10.57986    1.571    1.571    1.571
:VOL  : UNIT CELL VOLUME =     296.06019
       MODE OF CALCULATION IS       = RELA
       NON-SPINPOLARIZED CALCULATION
:IFFT  : FFT-parameters:   90   90   90 Factor: 2.00


   CONVERGENCE PARAMETER FOR PSEUDOCHARGE: NCON=  9
   MAXIMAL VALUE OF RMT(JATOM)*ABSK(NKK) : RK  =29.98955


:VKCOUL :  VK-COUL convergence: 0.297E-06
       ATOMNUMBER=  1 Pr         VCOUL-ZERO =  0.77042E-01
:FIT001: LUSE= 13 SIGMA OF V-XC FIT FOR ATOM  1  0.5303427E-04
:FIT001: LUSE= 13 SIGMA OF V-XC FIT FOR ATOM  1  0.5303427E-04
:DEN  : DENSITY INTEGRAL  =         -7063.05482926   (Ry)
       ELS_POTENTIAL_AT Z=0 and Z=0.5:  -2.30853  -2.30853
       ELS_POTENTIAL_AT Y=0 and Y=0.5:   0.00000   0.00000
:VZERO:v0,v0c,v0x  -3.22698  -2.30853  -0.91844 v5,v5c,v5x  -3.22698  -2.30853  -0.91844
:VZERY:v0,v0c,v0x  -0.65277   0.00000  -0.65277 v5,v5c,v5x  -0.65277   0.00000  -0.65277
:VZERX:v0,v0c,v0x  -0.65277   0.00000  -0.65277 v5,v5c,v5x  -0.65277   0.00000  -0.65277
:LMAX-WF:   10   Non-Spherical LMAX:   4

          ATOMIC SPHERE DEPENDENT PARAMETERS FOR ATOM  Pr        
:e__0001: OVERALL ENERGY PARAMETER IS    0.2409
          OVERALL BASIS SET ON ATOM IS LAPW
:E0_0001: E( 0)=    0.2409
             APW+lo
:E0_0001: E( 0)=   -2.2547   E(BOTTOM)=   -2.636   E(TOP)=   -1.873  4  5   158
             LOCAL ORBITAL
:E1_0001: E( 1)=    0.6409
             APW+lo
:E1_0001: E( 1)=   -0.8675   E(BOTTOM)=   -1.514   E(TOP)=   -0.221  3  4   166
             LOCAL ORBITAL
:E3_0001: E( 3)=    0.4246   E(BOTTOM)=    0.281   E(TOP)=    0.568  0  1   115
             APW+lo
:E2_0001: E( 2)=    0.2409   E(BOTTOM)=    0.062   E(TOP)= -200.000  2 -1    97
             APW+lo

       K=   0.00000   0.00000   0.00000            1
:RKM  : MATRIX SIZE   201LOs:  20  RKM= 8.40  WEIGHT= 1.00  PGR:    
       EIGENVALUES ARE:
:EIG00001:      -2.2090688   -0.8603517   -0.8603517   -0.8603517    0.1951517
:EIG00006:       0.4331993    0.4443448    0.4443448    0.4443448    0.4608138
:EIG00011:       0.4608138    0.4608138    0.5602793    0.5602793    0.5602793
:EIG00016:       0.6948045    0.6948045    1.0822224    1.2741681    1.2741681
:EIG00021:       1.2741681    1.3808876    1.8969458    1.8969458    1.8969458
:EIG00026:       1.9320141    1.9320141    1.9320141
       ********************************************************

:KPT   :      NUMBER OF K-POINTS:   165
:GAP (global)   :    0.0    Ry =     0.0   eV (metal)
         Bandranges (emin - emax) and occupancy:
:BAN00001:   1   -2.209069   -2.203171  2.00000000
:BAN00002:   2   -0.905436   -0.860352  2.00000000
:BAN00003:   3   -0.889493   -0.860352  2.00000000
:BAN00004:   4   -0.877005   -0.860352  2.00000000
:BAN00005:   5    0.195152    0.422701  2.00000000
:BAN00006:   6    0.393843    0.439601  2.00000000
:BAN00007:   7    0.432268    0.445657  1.00000000
:BAN00008:   8    0.441297    0.448647  0.00000000
:BAN00009:   9    0.444345    0.450861  0.00000000
:BAN00010:  10    0.446586    0.460814  0.00000000
:BAN00011:  11    0.449900    0.460814  0.00000000
:BAN00012:  12    0.451843    0.466518  0.00000000
        Energy to separate low and high energystates:    0.14515


:NOE  : NUMBER OF ELECTRONS          =   13.000

:FER  : F E R M I - ENERGY(TETRAH.M.)=   0.4401170275
:GMA  : POTENTIAL AND CHARGE CUT-OFF  12.00 Ry**.5

:POS001: ATOM    1 X,Y,Z = 0.00000 0.00000 0.50000  MULT= 1  ZZ= 59.000  Pr        

       LMMAX  5
       LM=   0 0  4 0  4 4  6 0  6 4

:CHA001: TOTAL VALENCE CHARGE INSIDE SPHERE   1 =  10.0278    (RMT=  2.5000 )
:PCS001: PARTIAL CHARGES SPHERE =  1 S,P,D,F,      D-EG,D-T2G 
:QTL001: 2.0205 5.3636 0.5072 2.1364 0.0000 0.0000 0.0000 0.1802 0.3270 0.0000 0.0000 0.0000
        Q-s-low E-s-low   Q-p-low E-p-low   Q-d-low E-d-low   Q-f-low E-f-low
:EPL001:  1.9262 -2.2044    5.3071 -0.8794    0.0004 -0.8897    0.0001 -0.8921
        Q-s-hi  E-s-hi    Q-p-hi  E-p-hi    Q-d-hi  E-d-hi    Q-f-hi  E-f-hi 
:EPH001:  0.0943  0.3387    0.0565  0.3764    0.5069  0.4004    2.1363  0.4313

:CHA  : TOTAL VALENCE CHARGE INSIDE UNIT CELL =      13.000000

:SUM  : SUM OF EIGENVALUES =          -7.672569540


        1.ATOM      Pr                   14 CORE STATES
:1S 001: 1S               -3067.170671425 Ry
:2S 001: 2S                -492.919470971 Ry
:2PP001: 2P*               -466.019628979 Ry
:2P 001: 2P                -430.621758724 Ry
:3S 001: 3S                -106.000210574 Ry
:3PP001: 3P*                -94.538507999 Ry
:3P 001: 3P                 -87.530294972 Ry
:3DD001: 3D*                -67.458577579 Ry
:3D 001: 3D                 -65.946858337 Ry
:4S 001: 4S                 -20.678842919 Ry
:4PP001: 4P*                -16.386203728 Ry
:4P 001: 4P                 -14.859517842 Ry
:4DD001: 4D*                 -7.794063273 Ry
:4D 001: 4D                  -7.524923633 Ry
:CINT001 Core Integral Atom   1   45.999513

       DENSITY AT NUCLEUS
        JATOM        VALENCE       SEMI-CORE          CORE           TOTAL
:RTO001:   1      646.549880        0.000000   656825.014803   657471.564683
     
       CHARGES OF NEW CHARGE DENSITY
:NTO   : INTERSTITIAL CHARGE =     2.972218
:NPC   : PW Pseudocharge     =     7.501754
:NTO001: CHARGE SPHERE  1    =    56.027294

:NEC01: NUCLEAR AND ELECTRONIC CHARGE     59.00000    58.99951
     
       CHARGES OF OLD CHARGE DENSITY
:OTO   : INTERSTITIAL CHARGE =     2.978797
:OPC   : PW Pseudocharge     =     7.503342
:OTO001: CHARGE SPHERE  1    =    56.021203

:NEC02: NUCLEAR AND ELECTRONIC CHARGE     59.00000    59.00000
     
       CONVERGENCE TEST
:DTO001: DIFFERENCE IN SPHERE  1 =  0.0086803

:DIS  :  CHARGE DISTANCE       ( 0.0086803 for atom    1 spin 1)      0.0086803
 PW Mixed is           60
 
******************************************************
* MULTISECANT MIXING VER9 RELEASE 10.4.0              *
* Standard Mode with controls                        *
* Fixed density scale                                *
* Regularization       1.000E-04                     *
* Trust Upper Limit    5.000E+00                     *
* Max Number of Memory Steps    8                    *
******************************************************
 
:PWTMP   2.3061E+02  1.2500E+02  2.9606E+02
:PLANE:  PW TOTAL      2.6873 DISTAN   2.45E-03  9.11E-02 %
:CHARG:  CLM/ATOM    977.1726 DISTAN   1.42E-02  1.45E-03 %
 
Step History
        DMIX         DMIXT        Red     Pred      Trust     Lambda    MagRel    MagAbs     Beta
  1   3.5000E-02   3.5000E-02 -1.00E+00  1.00E+00 -1.00E+01  1.00E+00  3.50E-02  3.50E-02  1.00E+00
  2   2.5000E-02   2.5000E-02  8.34E-01  1.00E+00 -1.00E+01  1.00E+00  2.50E-02  2.28E-02  1.00E+00
  3   3.0355E-02   3.0355E-02  9.54E-01  1.00E+00 -1.00E+01  1.84E-01  3.04E-02  2.30E-02  1.00E+00
  4   3.1433E-02   3.1433E-02  9.60E-01  8.50E-01  1.95E-01  1.42E+00  2.78E-02  2.01E-02  9.81E-01
  5   7.8584E-02   3.6204E-02  8.09E-01  8.20E-01  1.82E-01  1.08E+00  1.82E-01  1.26E-01  1.00E+00
  6   1.9646E-01   1.6542E-01  4.54E-01  4.85E-01  5.50E-01  9.72E-01  5.50E-01  3.09E-01  1.00E+00
  7   2.5806E-01   2.3971E-01  2.35E-01  3.02E-01  7.33E-01  9.68E-01  7.33E-01  1.87E-01  1.00E+00
  8   1.5028E-01   1.5028E-01 -1.00E+00  2.53E-01  9.78E-01  1.00E+00  8.70E-01  5.23E-02  1.00E+00
:JACOBIANS    9.814E-01   1.374E+00
  
:NORMS:  1/Froebius, Min, Max, Used   0.9128E+00  0.4672E+00  0.9988E+00  0.9530E+00
:INFO :  Number of Memory Steps    7 Skipping    0
:INFO :  SLambda=    1.2338781801  Max    1.2338781801
:PREDicted Charge, CTotal, PW Trust    2.959E-04   2.959E-04   1.551E-03
:PREDicted DMix, Beta, BLim   3.9561E-02  9.2048E-01  8.0734E-01

Eigenvalues, unscaled except for SY+YY
   #     SY Real        SY Imag          SS             YY         SY+YY Real      SY+YY Imag
   1   5.851365E+00   0.000000E+00   5.578069E+00   6.142268E+00   1.336210E+01   0.000000E+00
   2   2.481858E-01   0.000000E+00   2.321884E-01   7.165940E-01   9.697006E-01   0.000000E+00
   3   5.074675E-02   0.000000E+00   2.182088E-02   1.237794E-01   2.347429E-01   0.000000E+00
   4   2.992338E-03   0.000000E+00   3.923503E-04   1.728485E-02   2.578773E-02   0.000000E+00
   5   3.839541E-05   0.000000E+00   1.247076E-05   6.528944E-05   1.131485E-04   0.000000E+00
   6   1.794096E-16   0.000000E+00   2.579942E-07   8.574576E-06   5.832625E-08   0.000000E+00
   7   1.329290E-06   0.000000E+00  -1.411403E-17   5.487214E-08   9.857224E-06   0.000000E+00
 
:INFO :  Singular value  1.336E+01 Weight  1.000E+00 Projection -1.402E-03
:INFO :  Singular value  9.697E-01 Weight  1.000E+00 Projection  5.239E-03
:INFO :  Singular value  2.347E-01 Weight  1.000E+00 Projection  4.925E-03
:INFO :  Singular value  2.579E-02 Weight  9.994E-01 Projection -2.987E-03
:INFO :  Singular value  1.142E-04 Weight  3.339E-02 Projection -5.091E-02
:INFO :  Singular value  9.773E-06 Weight  2.531E-04 Projection  8.377E-05
:INFO :  Singular value  5.830E-08 Weight  9.009E-09 Projection -7.869E-09
:RANK :  ACTIVE   4.03/7  =  57.62 % ; YY RANK   4.01/7  =  57.29 %
 
:DLIM :  Beta Active  9.404E-01
:BLIM :  VZERO Control Off
:TRUST:  Step 1.59E+00  Charge 6.00E-02 (e) CTO  2.00E-01 (e) PW  2.80E-01 (e)
:DIRM :  MEMORY  7/8  SCALE   1.000 RED  0.24 PRED  0.25 NEXT  0.85 BETA  0.94
:TRAVE:  Charge 5.61E-04 (e) CTO  5.61E-04 (e) PW  3.70E-03 (e)
:DIRP :  |MSR1|= 1.050E-03 |PRATT|= 2.448E-03 ANGLE=  50.3 DEGREES
:DIRQ :  |MSR1|= 3.863E-03 |PRATT|= 1.422E-02 ANGLE=  56.3 DEGREES
:DIRT :  |MSR1|= 4.003E-03 |PRATT|= 1.443E-02 ANGLE=  56.2 DEGREES
:MIX  :   MSE1   REGULARIZATION:  6.14E-04 GREED: 0.10531  Newton 1.00  0.2775                
     
[...]
:PTO005:     -1   -1   -3 -7.22869624E-02 -9.123E-09  2.366E-07
:PTO006:     -2   -2   -2  1.91867312E-02  1.362E-08  4.884E-08
:PTO007:      0    0   -4  4.73788231E-03 -2.458E-08 -8.614E-08
:PTO008:     -1   -3   -3 -7.17780104E-03  6.141E-08 -4.235E-08
:PTO009:      0   -2   -4  3.80950742E-03 -8.464E-08 -8.976E-08
:PTO010:     -2   -2   -4 -4.11490823E-03 -7.712E-08 -2.855E-08
:PTO011:     -3   -3   -3  2.28669383E-03  2.150E-08 -3.927E-09
:PTO012:     -1   -1   -5  6.31117236E-03  8.817E-08  1.460E-07

:ENE  : ********** TOTAL ENERGY IN Ry =       -18472.04201271

 Flat Integration
 New Mode for Coulomb Integral
 Consistent 3/8+Simpson combinations
 Extension of core to zero
 LDM version in phi
 Fifth-order quadrature in outwin


            ---------
:ITE015: 15. ITERATION
            ---------

:NATO :    1 INDEPENDENT AND    1 TOTAL ATOMS IN UNITCELL
       SUBSTANCE: blebleble                                                   

       LATTICE                      = F   
:POT  : POTENTIAL OPTION EX_LDA EC_LDA VX_LDA VC_LDA
:LAT  : LATTICE CONSTANTS= 10.57986 10.57986 10.57986    1.571    1.571    1.571
:VOL  : UNIT CELL VOLUME =     296.06019
       MODE OF CALCULATION IS       = RELA
       NON-SPINPOLARIZED CALCULATION
:IFFT  : FFT-parameters:   90   90   90 Factor: 2.00


   CONVERGENCE PARAMETER FOR PSEUDOCHARGE: NCON=  9
   MAXIMAL VALUE OF RMT(JATOM)*ABSK(NKK) : RK  =29.98955


:VKCOUL :  VK-COUL convergence: 0.295E-06
       ATOMNUMBER=  1 Pr         VCOUL-ZERO =  0.77466E-01
:FIT001: LUSE= 13 SIGMA OF V-XC FIT FOR ATOM  1  0.5250002E-04
:FIT001: LUSE= 13 SIGMA OF V-XC FIT FOR ATOM  1  0.5250002E-04
:DEN  : DENSITY INTEGRAL  =         -7063.10454218   (Ry)
       ELS_POTENTIAL_AT Z=0 and Z=0.5:  -2.30827  -2.30827
       ELS_POTENTIAL_AT Y=0 and Y=0.5:   0.00000   0.00000
:VZERO:v0,v0c,v0x  -3.22641  -2.30827  -0.91814 v5,v5c,v5x  -3.22641  -2.30827  -0.91814
:VZERY:v0,v0c,v0x  -0.65266   0.00000  -0.65266 v5,v5c,v5x  -0.65266   0.00000  -0.65266
:VZERX:v0,v0c,v0x  -0.65266   0.00000  -0.65266 v5,v5c,v5x  -0.65266   0.00000  -0.65266
:LMAX-WF:   10   Non-Spherical LMAX:   4

          ATOMIC SPHERE DEPENDENT PARAMETERS FOR ATOM  Pr        
:e__0001: OVERALL ENERGY PARAMETER IS    0.2404
          OVERALL BASIS SET ON ATOM IS LAPW
:E0_0001: E( 0)=    0.2404
             APW+lo
:E0_0001: E( 0)=   -2.2543   E(BOTTOM)=   -2.636   E(TOP)=   -1.873  4  5   162
             LOCAL ORBITAL
:E1_0001: E( 1)=    0.6404
             APW+lo
:E1_0001: E( 1)=   -0.8670   E(BOTTOM)=   -1.514   E(TOP)=   -0.220  3  4   170
             LOCAL ORBITAL
:E3_0001: E( 3)=    0.4250   E(BOTTOM)=    0.282   E(TOP)=    0.568  0  1   113
             APW+lo
:E2_0001: E( 2)=    0.2404   E(BOTTOM)=    0.062   E(TOP)= -200.000  2 -1    95
             APW+lo

       K=   0.00000   0.00000   0.00000            1
:RKM  : MATRIX SIZE   201LOs:  20  RKM= 8.40  WEIGHT= 1.00  PGR:    
       EIGENVALUES ARE:
:EIG00001:      -2.2086172   -0.8599293   -0.8599293   -0.8599293    0.1951142
:EIG00006:       0.4335471    0.4446166    0.4446166    0.4446166    0.4611362
:EIG00011:       0.4611362    0.4611362    0.5604536    0.5604536    0.5604536
:EIG00016:       0.6949885    0.6949885    1.0823221    1.2740594    1.2740594
:EIG00021:       1.2740594    1.3807323    1.8971205    1.8971205    1.8971205
:EIG00026:       1.9320925    1.9320925    1.9320925
       ********************************************************

:KPT   :      NUMBER OF K-POINTS:   165
:GAP (global)   :    0.0    Ry =     0.0   eV (metal)
         Bandranges (emin - emax) and occupancy:
:BAN00001:   1   -2.208617   -2.202716  2.00000000
:BAN00002:   2   -0.905045   -0.859929  2.00000000
:BAN00003:   3   -0.889090   -0.859929  2.00000000
:BAN00004:   4   -0.876594   -0.859929  2.00000000
:BAN00005:   5    0.195114    0.422885  2.00000000
:BAN00006:   6    0.393981    0.439895  2.00000000
:BAN00007:   7    0.432492    0.445972  1.00000000
:BAN00008:   8    0.441577    0.448959  0.00000000
:BAN00009:   9    0.444617    0.451188  0.00000000
:BAN00010:  10    0.446895    0.461136  0.00000000
:BAN00011:  11    0.450211    0.461136  0.00000000
:BAN00012:  12    0.452133    0.466734  0.00000000
        Energy to separate low and high energystates:    0.14511


:NOE  : NUMBER OF ELECTRONS          =   13.000

:FER  : F E R M I - ENERGY(TETRAH.M.)=   0.4403880136
:GMA  : POTENTIAL AND CHARGE CUT-OFF  12.00 Ry**.5

:POS001: ATOM    1 X,Y,Z = 0.00000 0.00000 0.50000  MULT= 1  ZZ= 59.000  Pr        

       LMMAX  5
       LM=   0 0  4 0  4 4  6 0  6 4

:CHA001: TOTAL VALENCE CHARGE INSIDE SPHERE   1 =  10.0233    (RMT=  2.5000 )
:PCS001: PARTIAL CHARGES SPHERE =  1 S,P,D,F,      D-EG,D-T2G 
:QTL001: 2.0205 5.3636 0.5084 2.1308 0.0000 0.0000 0.0000 0.1806 0.3277 0.0000 0.0000 0.0000
        Q-s-low E-s-low   Q-p-low E-p-low   Q-d-low E-d-low   Q-f-low E-f-low
:EPL001:  1.9262 -2.2040    5.3068 -0.8790    0.0004 -0.8893    0.0001 -0.8917
        Q-s-hi  E-s-hi    Q-p-hi  E-p-hi    Q-d-hi  E-d-hi    Q-f-hi  E-f-hi 
:EPH001:  0.0943  0.3387    0.0568  0.3766    0.5080  0.4006    2.1307  0.4315

:CHA  : TOTAL VALENCE CHARGE INSIDE UNIT CELL =      13.000000

:SUM  : SUM OF EIGENVALUES =          -7.668418686


        1.ATOM      Pr                   14 CORE STATES
:1S 001: 1S               -3067.167607729 Ry
:2S 001: 2S                -492.917399705 Ry
:2PP001: 2P*               -466.017388062 Ry
:2P 001: 2P                -430.619586419 Ry
:3S 001: 3S                -105.999360682 Ry
:3PP001: 3P*                -94.537594862 Ry
:3P 001: 3P                 -87.529440680 Ry
:3DD001: 3D*                -67.457574128 Ry
:3D 001: 3D                 -65.945876417 Ry
:4S 001: 4S                 -20.678571826 Ry
:4PP001: 4P*                -16.385921803 Ry
:4P 001: 4P                 -14.859234402 Ry
:4DD001: 4D*                 -7.793760661 Ry
:4D 001: 4D                  -7.524619802 Ry
:CINT001 Core Integral Atom   1   45.999513

       DENSITY AT NUCLEUS
        JATOM        VALENCE       SEMI-CORE          CORE           TOTAL
:RTO001:   1      646.560341        0.000000   656824.719323   657471.279663
     
       CHARGES OF NEW CHARGE DENSITY
:NTO   : INTERSTITIAL CHARGE =     2.976714
:NPC   : PW Pseudocharge     =     7.501953
:NTO001: CHARGE SPHERE  1    =    56.022799

:NEC01: NUCLEAR AND ELECTRONIC CHARGE     59.00000    58.99951
     
       CHARGES OF OLD CHARGE DENSITY
:OTO   : INTERSTITIAL CHARGE =     2.977351
:OPC   : PW Pseudocharge     =     7.503220
:OTO001: CHARGE SPHERE  1    =    56.022649

:NEC02: NUCLEAR AND ELECTRONIC CHARGE     59.00000    59.00000
     
       CONVERGENCE TEST
:DTO001: DIFFERENCE IN SPHERE  1 =  0.0002126

:DIS  :  CHARGE DISTANCE       ( 0.0002126 for atom    1 spin 1)      0.0002126
 PW Mixed is           60
 
******************************************************
* MULTISECANT MIXING VER9 RELEASE 10.4.0              *
* Standard Mode with controls                        *
* Fixed density scale                                *
* Restart from converged density                     *
* Regularization       1.000E-04                     *
* Trust Upper Limit    5.000E+00                     *
* Max Number of Memory Steps    8                    *
******************************************************
 
:INFO : Forcing a restart
:PWTMP   2.3061E+02  1.2500E+02  2.9606E+02
:PLANE:  PW TOTAL      2.6873 DISTAN   2.57E-05  9.56E-04 %
:CHARG:  CLM/ATOM    977.1774 DISTAN   2.15E-04  2.20E-05 %
 
Step History
        DMIX         DMIXT        Red     Pred      Trust     Lambda    MagRel    MagAbs     Beta
  1   3.5000E-02   3.5000E-02 -1.00E+00  1.00E+00 -1.00E+01  1.00E+00  3.50E-02  3.50E-02  1.00E+00
  2   1.5000E-01   1.5000E-01 -1.00E+00  1.00E+00 -1.00E+01  1.00E+00  1.50E-01  1.78E-05  1.00E+00
:JACOBIANS    5.452E-04   2.591E-02
  
:NORMS:  1/Froebius, Min, Max, Used   0.3146E-02  0.3146E-02  0.5265E-01  0.3146E-02
:INFO :  Number of Memory Steps    1 Skipping    0
:PREDicted Charge, CTotal, PW Trust    2.085E-06   2.085E-06   2.947E-06
:PREDicted DMix, Beta, BLim   2.5000E-02  3.4737E-01  7.4085E-01

Eigenvalues, unscaled except for SY+YY
   #     SY Real        SY Imag          SS             YY         SY+YY Real      SY+YY Imag
   1   5.264625E-02   0.000000E+00   3.145857E-03   1.000000E+00   1.052646E+00   0.000000E+00
 
:DLIM :  Beta Active  8.000E-01
:BLIM :  VZERO Control Off
:TRUST:  Step 3.00E+00  Charge 6.82E-02 (e) CTO  2.27E-01 (e) PW  3.18E-01 (e)
:DIRM :  MEMORY  1/8  SCALE   1.000 RED  1.82 PRED  1.00 NEXT  0.25 BETA  0.80
:TRAVE:  Charge 4.68E-06 (e) CTO  4.68E-06 (e) PW  4.97E-06 (e)
:DIRP :  |MSR1|= 2.425E-06 |PRATT|= 2.569E-05 ANGLE=  50.2 DEGREES
:DIRQ :  |MSR1|= 8.889E-06 |PRATT|= 2.151E-04 ANGLE=  13.1 DEGREES
:DIRT :  |MSR1|= 9.214E-06 |PRATT|= 2.166E-04 ANGLE=  17.6 DEGREES
:MIX  :   MSR1   REGULARIZATION:  1.00E-04 GREED: 0.06000  Newton 1.00  0.0425                
     
       CHARGES OF MIXED CHARGE DENSITY
:CTO   : INTERSTITIAL CHARGE =     2.977346
:CPC   : PW Pseudocharge     =     7.503213
:CTO001: CHARGE SPHERE  1    =    56.022654

:NEC03: NUCLEAR AND ELECTRONIC CHARGE     59.00000    59.00000

PW CHANGE     H    K    L      Current       Change    Residue
:PTO001:      0    0    0  3.54000959E-02 -3.973E-08 -6.372E-07
:PTO002:     -1   -1   -1 -1.19681080E-01  9.736E-08 -1.265E-07
:PTO003:      0    0   -2  7.26173361E-02 -4.841E-08  6.607E-08
:PTO004:      0   -2   -2  6.87843595E-02 -4.151E-08 -1.657E-07
:PTO005:     -1   -1   -3 -7.22869512E-02  1.123E-08 -1.343E-07
:PTO006:     -2   -2   -2  1.91867282E-02 -3.076E-09  1.018E-07
:PTO007:      0    0   -4  4.73789335E-03  1.104E-08  7.583E-08
:PTO008:     -1   -3   -3 -7.17783864E-03 -3.760E-08 -1.862E-07
:PTO009:      0   -2   -4  3.80955201E-03  4.459E-08  1.880E-07
:PTO010:     -2   -2   -4 -4.11486559E-03  4.263E-08  1.672E-07
:PTO011:     -3   -3   -3  2.28668145E-03 -1.238E-08 -4.782E-08
:PTO012:     -1   -1   -5  6.31112908E-03 -4.328E-08 -1.422E-07

:ENE  : ********** TOTAL ENERGY IN Ry =       -18472.04201268

 Flat Integration
 New Mode for Coulomb Integral
 Consistent 3/8+Simpson combinations
 Extension of core to zero
 LDM version in phi
 Fifth-order quadrature in outwin


            ---------
:ITE016: 16. ITERATION
            ---------

:NATO :    1 INDEPENDENT AND    1 TOTAL ATOMS IN UNITCELL
       SUBSTANCE: blebleble                                                   

       LATTICE                      = F   
:POT  : POTENTIAL OPTION EX_LDA EC_LDA VX_LDA VC_LDA
:LAT  : LATTICE CONSTANTS= 10.57986 10.57986 10.57986    1.571    1.571    1.571
:VOL  : UNIT CELL VOLUME =     296.06019
       MODE OF CALCULATION IS       = RELA
       NON-SPINPOLARIZED CALCULATION
:IFFT  : FFT-parameters:   90   90   90 Factor: 2.00


   CONVERGENCE PARAMETER FOR PSEUDOCHARGE: NCON=  9
   MAXIMAL VALUE OF RMT(JATOM)*ABSK(NKK) : RK  =29.98955


:VKCOUL :  VK-COUL convergence: 0.295E-06
       ATOMNUMBER=  1 Pr         VCOUL-ZERO =  0.77466E-01
:FIT001: LUSE= 13 SIGMA OF V-XC FIT FOR ATOM  1  0.5249977E-04
:FIT001: LUSE= 13 SIGMA OF V-XC FIT FOR ATOM  1  0.5249977E-04
:DEN  : DENSITY INTEGRAL  =         -7063.10509063   (Ry)
       ELS_POTENTIAL_AT Z=0 and Z=0.5:  -2.30827  -2.30827
       ELS_POTENTIAL_AT Y=0 and Y=0.5:   0.00000   0.00000
:VZERO:v0,v0c,v0x  -3.22640  -2.30827  -0.91814 v5,v5c,v5x  -3.22640  -2.30827  -0.91814
:VZERY:v0,v0c,v0x  -0.65266   0.00000  -0.65266 v5,v5c,v5x  -0.65266   0.00000  -0.65266
:VZERX:v0,v0c,v0x  -0.65266   0.00000  -0.65266 v5,v5c,v5x  -0.65266   0.00000  -0.65266
:LMAX-WF:   10   Non-Spherical LMAX:   4

          ATOMIC SPHERE DEPENDENT PARAMETERS FOR ATOM  Pr        
:e__0001: OVERALL ENERGY PARAMETER IS    0.2404
          OVERALL BASIS SET ON ATOM IS LAPW
:E0_0001: E( 0)=    0.2404
             APW+lo
:E0_0001: E( 0)=   -2.2543   E(BOTTOM)=   -2.636   E(TOP)=   -1.873  4  5   161
             LOCAL ORBITAL
:E1_0001: E( 1)=    0.6404
             APW+lo
:E1_0001: E( 1)=   -0.8670   E(BOTTOM)=   -1.514   E(TOP)=   -0.220  3  4   166
             LOCAL ORBITAL
:E3_0001: E( 3)=    0.4250   E(BOTTOM)=    0.282   E(TOP)=    0.568  0  1   116
             APW+lo
:E2_0001: E( 2)=    0.2404   E(BOTTOM)=    0.062   E(TOP)= -200.000  2 -1    98
             APW+lo

       K=   0.00000   0.00000   0.00000            1
:RKM  : MATRIX SIZE   201LOs:  20  RKM= 8.40  WEIGHT= 1.00  PGR:    
       EIGENVALUES ARE:
:EIG00001:      -2.2086137   -0.8599266   -0.8599266   -0.8599266    0.1951141
:EIG00006:       0.4335532    0.4446230    0.4446230    0.4446230    0.4611429
:EIG00011:       0.4611429    0.4611429    0.5604544    0.5604544    0.5604544
:EIG00016:       0.6949896    0.6949896    1.0823225    1.2740596    1.2740596
:EIG00021:       1.2740596    1.3807317    1.8971215    1.8971215    1.8971215
:EIG00026:       1.9320932    1.9320932    1.9320932
       ********************************************************

:KPT   :      NUMBER OF K-POINTS:   165
:GAP (global)   :    0.0    Ry =     0.0   eV (metal)
         Bandranges (emin - emax) and occupancy:
:BAN00001:   1   -2.208614   -2.202712  2.00000000
:BAN00002:   2   -0.905042   -0.859927  2.00000000
:BAN00003:   3   -0.889087   -0.859927  2.00000000
:BAN00004:   4   -0.876591   -0.859927  2.00000000
:BAN00005:   5    0.195114    0.422888  2.00000000
:BAN00006:   6    0.393982    0.439901  2.00000000
:BAN00007:   7    0.432497    0.445979  1.00000000
:BAN00008:   8    0.441583    0.448965  0.00000000
:BAN00009:   9    0.444623    0.451194  0.00000000
:BAN00010:  10    0.446902    0.461143  0.00000000
:BAN00011:  11    0.450217    0.461143  0.00000000
:BAN00012:  12    0.452139    0.466739  0.00000000
        Energy to separate low and high energystates:    0.14511


:NOE  : NUMBER OF ELECTRONS          =   13.000

:FER  : F E R M I - ENERGY(TETRAH.M.)=   0.4403936237
:GMA  : POTENTIAL AND CHARGE CUT-OFF  12.00 Ry**.5

:POS001: ATOM    1 X,Y,Z = 0.00000 0.00000 0.50000  MULT= 1  ZZ= 59.000  Pr        

       LMMAX  5
       LM=   0 0  4 0  4 4  6 0  6 4

:CHA001: TOTAL VALENCE CHARGE INSIDE SPHERE   1 =  10.0232    (RMT=  2.5000 )
:PCS001: PARTIAL CHARGES SPHERE =  1 S,P,D,F,      D-EG,D-T2G 
:QTL001: 2.0205 5.3636 0.5084 2.1306 0.0000 0.0000 0.0000 0.1806 0.3278 0.0000 0.0000 0.0000
        Q-s-low E-s-low   Q-p-low E-p-low   Q-d-low E-d-low   Q-f-low E-f-low
:EPL001:  1.9262 -2.2040    5.3068 -0.8790    0.0004 -0.8893    0.0001 -0.8917
        Q-s-hi  E-s-hi    Q-p-hi  E-p-hi    Q-d-hi  E-d-hi    Q-f-hi  E-f-hi 
:EPH001:  0.0943  0.3387    0.0568  0.3766    0.5080  0.4006    2.1305  0.4316

:CHA  : TOTAL VALENCE CHARGE INSIDE UNIT CELL =      13.000000

:SUM  : SUM OF EIGENVALUES =          -7.668380632


        1.ATOM      Pr                   14 CORE STATES
:1S 001: 1S               -3067.167594933 Ry
:2S 001: 2S                -492.917386953 Ry
:2PP001: 2P*               -466.017375299 Ry
:2P 001: 2P                -430.619573661 Ry
:3S 001: 3S                -105.999348398 Ry
:3PP001: 3P*                -94.537582542 Ry
:3P 001: 3P                 -87.529428420 Ry
:3DD001: 3D*                -67.457561747 Ry
:3D 001: 3D                 -65.945864052 Ry
:4S 001: 4S                 -20.678562285 Ry
:4PP001: 4P*                -16.385912422 Ry
:4P 001: 4P                 -14.859225273 Ry
:4DD001: 4D*                 -7.793751970 Ry
:4D 001: 4D                  -7.524611195 Ry
:CINT001 Core Integral Atom   1   45.999513

       DENSITY AT NUCLEUS
        JATOM        VALENCE       SEMI-CORE          CORE           TOTAL
:RTO001:   1      646.560135        0.000000   656824.718750   657471.278885
     
       CHARGES OF NEW CHARGE DENSITY
:NTO   : INTERSTITIAL CHARGE =     2.976824
:NPC   : PW Pseudocharge     =     7.501984
:NTO001: CHARGE SPHERE  1    =    56.022689

:NEC01: NUCLEAR AND ELECTRONIC CHARGE     59.00000    58.99951
     
       CHARGES OF OLD CHARGE DENSITY
:OTO   : INTERSTITIAL CHARGE =     2.977346
:OPC   : PW Pseudocharge     =     7.503213
:OTO001: CHARGE SPHERE  1    =    56.022654

:NEC02: NUCLEAR AND ELECTRONIC CHARGE     59.00000    59.00000
     
       CONVERGENCE TEST
:DTO001: DIFFERENCE IN SPHERE  1 =  0.0000339

:DIS  :  CHARGE DISTANCE       ( 0.0000339 for atom    1 spin 1)      0.0000339
 PW Mixed is           60
 
******************************************************
* MULTISECANT MIXING VER9 RELEASE 10.4.0              *
* Standard Mode with controls                        *
* Fixed density scale                                *
* Regularization       1.000E-04                     *
* Trust Upper Limit    5.000E+00                     *
* Max Number of Memory Steps    8                    *
******************************************************
 
:PWTMP   2.3061E+02  1.2500E+02  2.9606E+02
:PLANE:  PW TOTAL      2.6873 DISTAN   6.27E-06  2.33E-04 %
:CHARG:  CLM/ATOM    977.1774 DISTAN   3.61E-05  3.69E-06 %
 
Step History
        DMIX         DMIXT        Red     Pred      Trust     Lambda    MagRel    MagAbs     Beta
  1   3.5000E-02   3.5000E-02 -1.00E+00  1.00E+00 -1.00E+01  1.00E+00  3.50E-02  3.50E-02  1.00E+00
  2   1.5000E-01   1.5000E-01  1.82E+00  1.00E+00 -1.00E+01  1.00E+00  1.50E-01  1.78E-05  1.00E+00
  3   6.0000E-02   6.0000E-02 -1.00E+00  2.54E-01  3.00E+00  1.00E+00  4.25E-02  9.21E-06  8.00E-01
:JACOBIANS    1.224E-02   3.165E-01
  
:NORMS:  1/Froebius, Min, Max, Used   0.6078E-01  0.5966E-01  0.5996E+00  0.6967E-01
:INFO :  Number of Memory Steps    2 Skipping    0
:INFO :  SLambda=    3.0000000000  Max    3.0000000000
:PREDicted Charge, CTotal, PW Trust    1.437E-05   1.437E-05   5.023E-06
:PREDicted DMix, Beta, BLim   2.5232E-01  3.1597E-01  4.5544E-01

Eigenvalues, unscaled except for SY+YY
   #     SY Real        SY Imag          SS             YY         SY+YY Real      SY+YY Imag
   1   1.083201E-01   0.000000E+00   7.113075E-03   1.998745E+00   2.323359E+00   0.000000E+00
   2   6.049023E-04   0.000000E+00   2.763603E-04   1.254756E-03   3.415936E-03   0.000000E+00
 
:INFO :  Singular value  2.324E+00 Weight  1.000E+00 Projection  1.293E-05
:INFO :  Singular value  3.415E-03 Weight  9.966E-01 Projection -8.694E-04
:RANK :  ACTIVE   2.00/2  =  99.83 % ; YY RANK   1.98/2  =  98.76 %
 
:DLIM :  Beta Active  6.400E-01
:BLIM :  VZERO Control Off
:TRUST:  Step 2.25E+01  Charge 6.82E-02 (e) CTO  2.27E-01 (e) PW  3.18E-01 (e)
:DIRM :  MEMORY  2/8  SCALE   1.000 RED  0.17 PRED  0.25 NEXT  0.43 BETA  0.64
:TRAVE:  Charge 6.12E-06 (e) CTO  6.12E-06 (e) PW  6.81E-07 (e)
:DIRP :  |MSR1|= 2.253E-06 |PRATT|= 6.269E-06 ANGLE=  46.8 DEGREES
:DIRQ :  |MSR1|= 1.311E-05 |PRATT|= 3.607E-05 ANGLE=  57.0 DEGREES
:DIRT :  |MSR1|= 1.330E-05 |PRATT|= 3.661E-05 ANGLE=  56.7 DEGREES
:MIX  :   MSE1   REGULARIZATION:  2.00E-04 GREED: 0.15000  Newton 1.00  0.3632                
     
       CHARGES OF MIXED CHARGE DENSITY
:CTO   : INTERSTITIAL CHARGE =     2.977340
:CPC   : PW Pseudocharge     =     7.503218
:CTO001: CHARGE SPHERE  1    =    56.022660

:NEC03: NUCLEAR AND ELECTRONIC CHARGE     59.00000    59.00000

PW CHANGE     H    K    L      Current       Change    Residue
:PTO001:      0    0    0  3.54000904E-02 -5.450E-09 -1.198E-07
:PTO002:     -1   -1   -1 -1.19681229E-01 -1.495E-07 -2.562E-07
:PTO003:      0    0   -2  7.26173470E-02  1.085E-08 -1.048E-08
:PTO004:      0   -2   -2  6.87843342E-02 -2.524E-08 -1.004E-07
:PTO005:     -1   -1   -3 -7.22869032E-02  4.791E-08  8.711E-08
:PTO006:     -2   -2   -2  1.91867517E-02  2.354E-08  6.229E-08
:PTO007:      0    0   -4  4.73787623E-03 -1.712E-08 -1.715E-08
:PTO008:     -1   -3   -3 -7.17785649E-03 -1.785E-08 -9.755E-08
:PTO009:      0   -2   -4  3.80953461E-03 -1.741E-08  2.782E-08
:PTO010:     -2   -2   -4 -4.11486899E-03 -3.399E-09  5.332E-08
:PTO011:     -3   -3   -3  2.28667942E-03 -2.033E-09 -2.188E-08
:PTO012:     -1   -1   -5  6.31116504E-03  3.596E-08  1.955E-08

:ENE  : ********** TOTAL ENERGY IN Ry =       -18472.04201269

