
:LABEL1: Calculations in /home/ykent/GWIEN/example/Pr/aU/V7/case
:LABEL2: on didymium-2.cmpgroup.ameslab.gov at Fri Jul 10 13:18:39 CDT 2020
:LABEL3: using WIEN2k_19.1 (Release 25/6/2019) in /home/ykent/opt/src/WIEN2k_19.1
:LABEL4: using the command: run_lapw -cc 0.0001

:LABEL1: Calculations in /home/ykent/GWIEN/example/Pr/aU/V7/case
:LABEL2: on didymium-2.cmpgroup.ameslab.gov at Fri Jul 10 13:19:10 CDT 2020
:LABEL3: using WIEN2k_19.1 (Release 25/6/2019) in /home/ykent/opt/src/WIEN2k_19.1
:LABEL4: using the command: run_lapw -cc 0.0001
 Flat Integration
 New Mode for Coulomb Integral
 Consistent 3/8+Simpson combinations
 Extension of core to zero
 LDM version in phi
 Fifth-order quadrature in outwin


            ---------
:ITE001:  1. ITERATION
            ---------

:NATO :    1 INDEPENDENT AND    2 TOTAL ATOMS IN UNITCELL
       SUBSTANCE: aU                                                          

       LATTICE                      = CXY 
:POT  : POTENTIAL OPTION EX_LDA EC_LDA VX_LDA VC_LDA
:LAT  : LATTICE CONSTANTS=  5.57334 11.30972  9.76391    1.571    1.571    1.571
:VOL  : UNIT CELL VOLUME =     307.72401
       MODE OF CALCULATION IS       = RELA
       NON-SPINPOLARIZED CALCULATION
:IFFT  : FFT-parameters:   48   90   80 Factor: 2.00


   CONVERGENCE PARAMETER FOR PSEUDOCHARGE: NCON=  9
   MAXIMAL VALUE OF RMT(JATOM)*ABSK(NKK) : RK  =27.58719


:VKCOUL :  VK-COUL convergence: 0.197E-06
       ATOMNUMBER=  1 Pr1        VCOUL-ZERO =  0.50538E+00
:EFG001:                        EFG         =    -0.06516   *10**21  V / m**2
                               V20  TOT/SRF=    -0.05643    -0.06848
                               V22  TOT/SRF=     0.00885     0.01057
                               V22M TOT/SRF=     0.00000     0.00000
                               V21  TOT/SRF=     0.00000     0.00000
                               V21M TOT/SRF=     0.00000     0.00000

              0.04143    0.00000    0.00000        0.04143    0.00000    0.00000
              0.00000    0.02373    0.00000        0.00000    0.02373    0.00000
              0.00000    0.00000   -0.06516        0.00000    0.00000   -0.06516

         MAIN DIRECTIONS OF THE EFG   1.0000  0.0000  0.0000
                                      0.0000  1.0000  0.0000
                                      0.0000  0.0000  1.0000
:ANG001:  ANGLE WITH OLD X-AXIS =         0.0

:ETA001:                         ASYMM. ETA =     0.27165


     HELLMANN-FEYNMAN-FORCE IN mRy/a.u. = |F|  Fx       Fy             Fz
:FHF001:   1.ATOM    720.412718101978      0.000000000000      0.000000000000   -720.412718101978

:FIT001: LUSE= 13 SIGMA OF V-XC FIT FOR ATOM  1  0.1845203E-04
:FIT001: LUSE= 13 SIGMA OF V-XC FIT FOR ATOM  1  0.1845203E-04
:DEN  : DENSITY INTEGRAL  =        -14214.53473224   (Ry)
       ELS_POTENTIAL_AT Z=0 and Z=0.5:   0.92873   0.92873
       ELS_POTENTIAL_AT Y=0 and Y=0.5:  -0.00829  -0.00829
:VZERO:v0,v0c,v0x   0.22295   0.92873  -0.70577 v5,v5c,v5x   0.22295   0.92873  -0.70577
:VZERY:v0,v0c,v0x  -0.92823  -0.00829  -0.91994 v5,v5c,v5x  -0.92823  -0.00829  -0.91994
:VZERX:v0,v0c,v0x  -1.24458  -0.38346  -0.86111 v5,v5c,v5x  -1.24458  -0.38346  -0.86111
:LMAX-WF:   10   Non-Spherical LMAX:   4

          ATOMIC SPHERE DEPENDENT PARAMETERS FOR ATOM  Pr1       
:e__0001: OVERALL ENERGY PARAMETER IS    0.3000
          OVERALL BASIS SET ON ATOM IS LAPW
:E0_0001: E( 0)=    0.3000
             APW+lo
:E0_0001: E( 0)=   -1.5289   E(BOTTOM)=   -2.180   E(TOP)=   -0.878  4  5   226
             LOCAL ORBITAL
:E1_0001: E( 1)=    0.7000
             APW+lo
:E1_0001: E( 1)=   -0.0677   E(BOTTOM)=   -1.045   E(TOP)=    0.909  3  4   234
             LOCAL ORBITAL
:E3_0001: E( 3)=    0.9354   E(BOTTOM)=    0.935   E(TOP)= -200.000  0 -1   117
             APW+lo
:E2_0001: E( 2)=    0.6842   E(BOTTOM)=    0.684   E(TOP)= -200.000  2 -1   103
             APW+lo

       K=   0.06250   0.00000   0.06250            1
:RKM  : MATRIX SIZE   303LOs:  40  RKM= 8.48  WEIGHT= 4.00  PGR:    
       EIGENVALUES ARE:
:EIG00001:      -1.5615094   -1.4940334   -0.3885696   -0.1524333   -0.0996329
:EIG00006:      -0.0827488   -0.0644900   -0.0591657    0.8758138    0.9089088
:EIG00011:       1.0621414    1.1011158    1.1022459    1.1063919    1.1284151
:EIG00016:       1.1619322    1.1644125    1.1734202    1.1755862    1.1838730
:EIG00021:       1.1893191    1.1933919    1.2033358    1.2293911    1.2324689
:EIG00026:       1.2422654    1.2929750    1.3044595    1.3697682    1.4095975
:EIG00031:       1.4466533    1.6239439    1.6260661    1.7155735
       ********************************************************

:KPT   :      NUMBER OF K-POINTS:   288
:GAP (global)   :    0.0    Ry =     0.0   eV (metal)
         Bandranges (emin - emax) and occupancy:
:BAN00005:   5   -0.305074   -0.099633  2.00000000
:BAN00006:   6   -0.270794   -0.069826  2.00000000
:BAN00007:   7   -0.220120   -0.060905  2.00000000
:BAN00008:   8   -0.122837   -0.047120  2.00000000
:BAN00009:   9    0.827048    1.007145  2.00000000
:BAN00010:  10    0.877382    1.036464  2.00000000
:BAN00011:  11    0.915373    1.113389  2.00000000
:BAN00012:  12    0.995137    1.125682  1.99381443
:BAN00013:  13    1.031311    1.159167  1.47487082
:BAN00014:  14    1.084685    1.164326  0.51858043
:BAN00015:  15    1.117649    1.176979  0.01273432
:BAN00016:  16    1.132765    1.178953  0.00000000
:BAN00017:  17    1.156785    1.184919  0.00000000
:BAN00018:  18    1.164403    1.188167  0.00000000
:BAN00019:  19    1.171469    1.197222  0.00000000
:BAN00020:  20    1.176921    1.201811  0.00000000
        Energy to separate low and high energystates:    0.77705


:NOE  : NUMBER OF ELECTRONS          =   26.000

:FER  : F E R M I - ENERGY(TETRAH.M.)=   1.1210427653
:GMA  : POTENTIAL AND CHARGE CUT-OFF  12.00 Ry**.5

:POS001: ATOM   -1 X,Y,Z = 0.00000 0.89750 0.25000  MULT= 2  ZZ= 59.000  Pr1       

       LMMAX 16
       LM=   0 0  1 0  2 0  2 2  3 0  3 2  4 0  4 2  4 4  5 0  5 2  5 4  6 0  6 2  6 4  6 6

:CHA001: TOTAL VALENCE CHARGE INSIDE SPHERE   1 =   9.1903    (RMT=  2.3000 )
:PCS001: PARTIAL CHARGES SPHERE =  1 S,P,D,F,PX,PY,PZ,D-Z2,D-X2Y2,D-XY,D-XZ,D-YZ 
:QTL001: 1.9489 4.9716 1.0502 1.2168 1.6536 1.6521 1.6659 0.2089 0.2147 0.2007 0.2123 0.2136
        Q-s-low E-s-low   Q-p-low E-p-low   Q-d-low E-d-low   Q-f-low E-f-low
:EPL001:  1.8625 -1.4889    4.8367 -0.1985    0.0173 -0.2482    0.0051 -0.2551
        Q-s-hi  E-s-hi    Q-p-hi  E-p-hi    Q-d-hi  E-d-hi    Q-f-hi  E-f-hi 
:EPH001:  0.0864  0.9849    0.1349  1.0181    1.0330  0.9938    1.2118  1.0705

                      VXX         VYY         VZZ       UP TO R
:VZZ001:             3.85437     7.75944   -11.61382       2.300

:CHA  : TOTAL VALENCE CHARGE INSIDE UNIT CELL =      26.000000

:SUM  : SUM OF EIGENVALUES =           1.695821789


        1.ATOM      Pr1                  14 CORE STATES
       CORE-FORCE in mRy/a.u. = |F|      Fx             Fy             Fz
:FCO001:   1.ATOM    581.023311681931      0.000000000000      0.000000000000    581.023311681931

:1S 001: 1S               -3066.362369645 Ry
:2S 001: 2S                -492.128289928 Ry
:2PP001: 2P*               -465.225857638 Ry
:2P 001: 2P                -429.829079537 Ry
:3S 001: 3S                -105.227279038 Ry
:3PP001: 3P*                -93.764592780 Ry
:3P 001: 3P                 -86.757354152 Ry
:3DD001: 3D*                -66.683389673 Ry
:3D 001: 3D                 -65.172006218 Ry
:4S 001: 4S                 -19.919997649 Ry
:4PP001: 4P*                -15.627653547 Ry
:4P 001: 4P                 -14.101589154 Ry
:4DD001: 4D*                 -7.037592107 Ry
:4D 001: 4D                  -6.768728884 Ry
:CINT001 Core Integral Atom   1   45.998395

       DENSITY AT NUCLEUS
        JATOM        VALENCE       SEMI-CORE          CORE           TOTAL
:RTO001:   1      645.351150        0.000000   656819.021839   657464.372988
     
       CHARGES OF NEW CHARGE DENSITY
:NTO   : INTERSTITIAL CHARGE =     7.619346
:NPC   : PW Pseudocharge     =    18.007888
:NTO001: CHARGE SPHERE  1    =    55.188721

:NEC01: NUCLEAR AND ELECTRONIC CHARGE    118.00000   117.99679
     
       CHARGES OF OLD CHARGE DENSITY
:OTO   : INTERSTITIAL CHARGE =     6.342078
:OPC   : PW Pseudocharge     =    16.348058
:OTO001: CHARGE SPHERE  1    =    55.829606

:NEC02: NUCLEAR AND ELECTRONIC CHARGE    118.00000   118.00129
     
       CONVERGENCE TEST
:DTO001: DIFFERENCE IN SPHERE  1 =  1.1604642

:DIS  :  CHARGE DISTANCE       ( 1.1604642 for atom    1 spin 1)      1.1604642
 PW Mixed is          332
 
******************************************************
* MULTISECANT MIXING VER9 RELEASE 10.4.0              *
* Standard Mode with controls                        *
* Fixed density scale                                *
* Regularization       1.000E-04                     *
* Trust Upper Limit    5.000E+00                     *
* Max Number of Memory Steps    8                    *
******************************************************
 
:PWTMP   2.0579E+02  1.9467E+02  3.0772E+02
:PLANE:  PW TOTAL      5.4377 DISTAN   7.09E-01  1.30E+01 %
:CHARG:  CLM/ATOM   1382.0558 DISTAN   1.67E+00  1.21E-01 %
INFO: Reducing dbase  2.50000E-02 1.16046E+00 2.32073E-02
 
Step History
        DMIX         DMIXT        Red     Pred      Trust     Lambda    MagRel    MagAbs     Beta
  1   3.5000E-02   3.5000E-02 -1.00E+00  1.00E+00 -1.00E+01  1.00E+00  3.50E-02  3.50E-02  1.00E+00
:INFO :  Note, Pratt in use
INFO: Reducing dbase  2.32073E-02 1.16046E+00 2.15431E-02
:TRUST:  Step 3.75E-02  Charge 7.50E-02 (e) CTO  2.50E-01 (e) PW  3.50E-01 (e)
:DIRM :  MEMORY  0/ 8 SCALE   1.000
Performing Pseudo Compensation
Final Pseudo Compensation Rescaling     1.00000E+00
:MIX  :   PRATT  REGULARIZATION:  1.00E-04 GREED: 0.02500                  
     
       CHARGES OF MIXED CHARGE DENSITY
:CTO   : INTERSTITIAL CHARGE =     6.372832
:CPC   : PW Pseudocharge     =    17.197339
:CTO001: CHARGE SPHERE  1    =    55.813584

:NEC03: NUCLEAR AND ELECTRONIC CHARGE    118.00000   118.00000

PW CHANGE     H    K    L      Current       Change    Residue
:PTO001:      0    0    0  7.65951619E-02  2.875E-03  9.595E-03
:PTO003:      0    2    0  1.75907510E-02  1.214E-03  2.588E-03
:PTO004:     -1    1    0  8.38108671E-02  6.375E-03  9.288E-03
:PTO005:      0    2   -1 -9.70454394E-02 -7.498E-03 -8.984E-03
:PTO006:      0    0   -2 -5.03205752E-02 -3.892E-03 -4.424E-03
:PTO007:     -1    1   -1 -1.01634745E-01 -8.675E-03 -8.086E-03
:PTO008:      0    2   -2 -1.49644021E-02 -1.663E-03 -1.228E-03
:PTO009:     -1    1   -2 -7.18272785E-02 -8.898E-03 -8.145E-03
:PTO011:     -1    3    0 -1.02862695E-02 -1.657E-03 -1.834E-03
:PTO012:     -1    3   -1 -4.31270621E-02 -8.007E-03 -8.912E-03
:PTO013:      0    4    0 -7.34629246E-03 -1.623E-03 -1.786E-03
:PTO014:      0    2   -3  1.64974053E-02  3.695E-03  4.931E-03

:ENE  : ********** TOTAL ENERGY IN Ry =       -36944.42392956

       TOTAL FORCE IN mRy/a.u. = |F|     Fx             Fy             Fz     with/without FOR in case.in2
:FOR001:   1.ATOM        139.389          0.000          0.000       -139.389 partial forces
       TOTAL FORCE WITH RESPECT TO GLOBAL CARTESIAN COORDINATES:
:FCA001:   1.ATOM                         0.000       -139.389          0.000 partial forces
       TOTAL FORCE WITH RESPECT TO THE GLOBAL COORDINATE SYSTEM:
:FGL001:   1.ATOM                 0.000000000  -139.389406420     0.000000000 partial forces
 Flat Integration
 New Mode for Coulomb Integral
 Consistent 3/8+Simpson combinations
 Extension of core to zero
 LDM version in phi
 Fifth-order quadrature in outwin


            ---------
:ITE002:  2. ITERATION
            ---------

:NATO :    1 INDEPENDENT AND    2 TOTAL ATOMS IN UNITCELL
       SUBSTANCE: aU                                                          

       LATTICE                      = CXY 
:POT  : POTENTIAL OPTION EX_LDA EC_LDA VX_LDA VC_LDA
:LAT  : LATTICE CONSTANTS=  5.57334 11.30972  9.76391    1.571    1.571    1.571
:VOL  : UNIT CELL VOLUME =     307.72401
       MODE OF CALCULATION IS       = RELA
       NON-SPINPOLARIZED CALCULATION
:IFFT  : FFT-parameters:   48   90   80 Factor: 2.00


   CONVERGENCE PARAMETER FOR PSEUDOCHARGE: NCON=  9
   MAXIMAL VALUE OF RMT(JATOM)*ABSK(NKK) : RK  =27.58719


:VKCOUL :  VK-COUL convergence: 0.119E-06
       ATOMNUMBER=  1 Pr1        VCOUL-ZERO =  0.51210E+00
:EFG001:                        EFG         =    -0.35589   *10**21  V / m**2
                               V20  TOT/SRF=    -0.30821    -0.06820
                               V22  TOT/SRF=    -0.04039     0.00980
                               V22M TOT/SRF=     0.00000     0.00000
                               V21  TOT/SRF=     0.00000     0.00000
                               V21M TOT/SRF=     0.00000     0.00000

              0.13755    0.00000    0.00000        0.13755    0.00000    0.00000
              0.00000    0.21833    0.00000        0.00000    0.21833    0.00000
              0.00000    0.00000   -0.35589        0.00000    0.00000   -0.35589

         MAIN DIRECTIONS OF THE EFG   1.0000  0.0000  0.0000
                                      0.0000  1.0000  0.0000
                                      0.0000  0.0000  1.0000
:ANG001:  ANGLE WITH OLD X-AXIS =         0.0

:ETA001:                         ASYMM. ETA =     0.22699


     HELLMANN-FEYNMAN-FORCE IN mRy/a.u. = |F|  Fx       Fy             Fz
:FHF001:   1.ATOM    721.552329306065      0.000000000000      0.000000000000   -721.552329306065

:FIT001: LUSE= 13 SIGMA OF V-XC FIT FOR ATOM  1  0.1895101E-04
:FIT001: LUSE= 13 SIGMA OF V-XC FIT FOR ATOM  1  0.1895101E-04
:DEN  : DENSITY INTEGRAL  =        -14211.77056391   (Ry)
       ELS_POTENTIAL_AT Z=0 and Z=0.5:   0.93772   0.93772
       ELS_POTENTIAL_AT Y=0 and Y=0.5:  -0.00464  -0.00464
:VZERO:v0,v0c,v0x   0.23086   0.93772  -0.70686 v5,v5c,v5x   0.23086   0.93772  -0.70686
:VZERY:v0,v0c,v0x  -0.92887  -0.00464  -0.92423 v5,v5c,v5x  -0.92887  -0.00464  -0.92423
:VZERX:v0,v0c,v0x  -1.25870  -0.39038  -0.86832 v5,v5c,v5x  -1.25870  -0.39038  -0.86832
:LMAX-WF:   10   Non-Spherical LMAX:   4

          ATOMIC SPHERE DEPENDENT PARAMETERS FOR ATOM  Pr1       
:e__0001: OVERALL ENERGY PARAMETER IS    0.5000
          OVERALL BASIS SET ON ATOM IS LAPW
:E0_0001: E( 0)=    0.5000
             APW+lo
:E0_0001: E( 0)=   -1.5342   E(BOTTOM)=   -2.183   E(TOP)=   -0.886  4  5   228
             LOCAL ORBITAL
:E1_0001: E( 1)=    0.9000
             APW+lo
:E1_0001: E( 1)=   -0.0716   E(BOTTOM)=   -1.046   E(TOP)=    0.902  3  4   236
             LOCAL ORBITAL
:E3_0001: E( 3)=    0.9238   E(BOTTOM)=    0.924   E(TOP)= -200.000  0 -1    94
             APW+lo
:E2_0001: E( 2)=    0.6845   E(BOTTOM)=    0.685   E(TOP)= -200.000  2 -1    83
             APW+lo
:WARN  : P(J,JATOM) almost zero (     -0.625E-03). Shifted Energy by -0.01 down to     0.8900

       K=   0.06250   0.00000   0.06250            1
:RKM  : MATRIX SIZE   303LOs:  40  RKM= 8.48  WEIGHT= 4.00  PGR:    
       EIGENVALUES ARE:
:EIG00001:      -1.5654289   -1.4986846   -0.3883826   -0.1545351   -0.1021582
:EIG00006:      -0.0852957   -0.0670222   -0.0619609    0.8803093    0.9133965
:EIG00011:       1.0609739    1.0932824    1.0960053    1.0964601    1.1182571
:EIG00016:       1.1516685    1.1571726    1.1616296    1.1632271    1.1703342
:EIG00021:       1.1765692    1.1814769    1.1896966    1.2139716    1.2185205
:EIG00026:       1.2296680    1.2928002    1.3009999    1.3701242    1.4101479
:EIG00031:       1.4471956    1.6256553    1.6265752    1.7156768    2.0153830
:EIG00036:       2.0647984    2.0978334
       ********************************************************

:KPT   :      NUMBER OF K-POINTS:   288
:GAP (global)   :    0.0    Ry =     0.0   eV (metal)
         Bandranges (emin - emax) and occupancy:
:BAN00005:   5   -0.305800   -0.102158  2.00000000
:BAN00006:   6   -0.271664   -0.072511  2.00000000
:BAN00007:   7   -0.221445   -0.063681  2.00000000
:BAN00008:   8   -0.124550   -0.050042  2.00000000
:BAN00009:   9    0.832204    1.008775  2.00000000
:BAN00010:  10    0.882151    1.036401  2.00000000
:BAN00011:  11    0.919725    1.105552  2.00000000
:BAN00012:  12    0.997078    1.114955  1.99341828
:BAN00013:  13    1.031091    1.146087  1.46485777
:BAN00014:  14    1.079348    1.156829  0.52927763
:BAN00015:  15    1.108602    1.163696  0.01244632
:BAN00016:  16    1.123538    1.165410  0.00000000
:BAN00017:  17    1.144349    1.172216  0.00000000
:BAN00018:  18    1.152613    1.173914  0.00000000
:BAN00019:  19    1.159039    1.183224  0.00000000
:BAN00020:  20    1.165346    1.188162  0.00000000
        Energy to separate low and high energystates:    0.78220


:NOE  : NUMBER OF ELECTRONS          =   26.000

:FER  : F E R M I - ENERGY(TETRAH.M.)=   1.1122518773
:GMA  : POTENTIAL AND CHARGE CUT-OFF  12.00 Ry**.5

:POS001: ATOM   -1 X,Y,Z = 0.00000 0.89750 0.25000  MULT= 2  ZZ= 59.000  Pr1       

       LMMAX 16
       LM=   0 0  1 0  2 0  2 2  3 0  3 2  4 0  4 2  4 4  5 0  5 2  5 4  6 0  6 2  6 4  6 6

:CHA001: TOTAL VALENCE CHARGE INSIDE SPHERE   1 =   9.2829    (RMT=  2.3000 )
:PCS001: PARTIAL CHARGES SPHERE =  1 S,P,D,F,PX,PY,PZ,D-Z2,D-X2Y2,D-XY,D-XZ,D-YZ 
:QTL001: 1.9469 4.9718 1.0083 1.3532 1.6542 1.6522 1.6655 0.1994 0.2018 0.1945 0.2057 0.2070
        Q-s-low E-s-low   Q-p-low E-p-low   Q-d-low E-d-low   Q-f-low E-f-low
:EPL001:  1.8636 -1.4937    4.8465 -0.2000    0.0170 -0.2497    0.0050 -0.2566
        Q-s-hi  E-s-hi    Q-p-hi  E-p-hi    Q-d-hi  E-d-hi    Q-f-hi  E-f-hi 
:EPH001:  0.0833  0.9846    0.1254  1.0160    0.9914  0.9920    1.3482  1.0658

                      VXX         VYY         VZZ       UP TO R
:VZZ001:             2.74633     7.80277   -10.54910       2.300

:CHA  : TOTAL VALENCE CHARGE INSIDE UNIT CELL =      26.000000

:SUM  : SUM OF EIGENVALUES =           1.659237528


        1.ATOM      Pr1                  14 CORE STATES
       CORE-FORCE in mRy/a.u. = |F|      Fx             Fy             Fz
:FCO001:   1.ATOM    589.778648201287      0.000000000000      0.000000000000    589.778648201287

:1S 001: 1S               -3066.397174971 Ry
:2S 001: 2S                -492.162533930 Ry
:2PP001: 2P*               -465.260177883 Ry
:2P 001: 2P                -429.863366380 Ry
:3S 001: 3S                -105.260166542 Ry
:3PP001: 3P*                -93.797589854 Ry
:3P 001: 3P                 -86.790173326 Ry
:3DD001: 3D*                -66.716533725 Ry
:3D 001: 3D                 -65.205104141 Ry
:4S 001: 4S                 -19.944518444 Ry
:4PP001: 4P*                -15.651663845 Ry
:4P 001: 4P                 -14.124805685 Ry
:4DD001: 4D*                 -7.059383328 Ry
:4D 001: 4D                  -6.790247006 Ry
:CINT001 Core Integral Atom   1   45.998417

       DENSITY AT NUCLEUS
        JATOM        VALENCE       SEMI-CORE          CORE           TOTAL
:RTO001:   1      645.547912        0.000000   656820.853134   657466.401046
     
       CHARGES OF NEW CHARGE DENSITY
:NTO   : INTERSTITIAL CHARGE =     7.434106
:NPC   : PW Pseudocharge     =    17.923062
:NTO001: CHARGE SPHERE  1    =    55.281364

:NEC01: NUCLEAR AND ELECTRONIC CHARGE    118.00000   117.99683
     
       CHARGES OF OLD CHARGE DENSITY
:OTO   : INTERSTITIAL CHARGE =     6.372830
:OPC   : PW Pseudocharge     =    17.197340
:OTO001: CHARGE SPHERE  1    =    55.813584

:NEC02: NUCLEAR AND ELECTRONIC CHARGE    118.00000   118.00000
     
       CONVERGENCE TEST
:DTO001: DIFFERENCE IN SPHERE  1 =  0.9613677

:DIS  :  CHARGE DISTANCE       ( 0.9613677 for atom    1 spin 1)      0.9613677
 PW Mixed is          332
 
******************************************************
* MULTISECANT MIXING VER9 RELEASE 10.4.0              *
* Slow Mode, cautious                                *
* Fixed density scale                                *
* Regularization       1.000E-04                     *
* Step Trust Radius    0.75000                       *
* Trust Upper Limit    2.000E+00                     *
* Max Number of Memory Steps   12                    *
******************************************************
 
:PWTMP   2.0579E+02  1.9467E+02  3.0772E+02
:PLANE:  PW TOTAL      5.8264 DISTAN   3.20E-01  5.49E+00 %
:CHARG:  CLM/ATOM   1382.0494 DISTAN   1.40E+00  1.01E-01 %
 
Step History
        DMIX         DMIXT        Red     Pred      Trust     Lambda    MagRel    MagAbs     Beta
  1   3.5000E-02   3.5000E-02 -1.00E+00  1.00E+00 -1.00E+01  1.00E+00  3.50E-02  3.50E-02  1.00E+00
  2   2.5000E-02   2.5000E-02 -1.00E+00  1.00E+00 -1.00E+01  1.00E+00  2.50E-02  4.54E-02  1.00E+00
:JACOBIANS    3.617E-01   1.837E-02
  
:TRUST:  Step 4.52E-02  Charge 7.50E-02 (e) CTO  2.50E-01 (e) PW  3.50E-01 (e)
:DIRM :  MEMORY  1/12 SCALE   1.000
:MIX  :   PRATT  REGULARIZATION:  1.00E-04 GREED: 0.04516  Expand 1.81  0.0452 Step           
     
       CHARGES OF MIXED CHARGE DENSITY
:CTO   : INTERSTITIAL CHARGE =     6.387694
:CPC   : PW Pseudocharge     =    17.592800
:CTO001: CHARGE SPHERE  1    =    55.806153

:NEC03: NUCLEAR AND ELECTRONIC CHARGE    118.00000   118.00000

PW CHANGE     H    K    L      Current       Change    Residue
:PTO001:      0    0    0  7.79285763E-02  1.333E-03  5.842E-03
:PTO003:      0    2    0  1.81539141E-02  5.632E-04  1.379E-03
:PTO004:     -1    1    0  8.67678153E-02  2.957E-03  3.004E-03
:PTO005:      0    2   -1 -1.00523121E-01 -3.478E-03 -1.438E-03
:PTO006:      0    0   -2 -5.21255926E-02 -1.805E-03 -5.274E-04
:PTO007:     -1    1   -1 -1.05658283E-01 -4.024E-03  3.964E-04
:PTO008:      0    2   -2 -1.57355885E-02 -7.712E-04  4.377E-04
:PTO009:     -1    1   -2 -7.59541581E-02 -4.127E-03  5.892E-04
:PTO011:     -1    3    0 -1.10549847E-02 -7.687E-04 -2.238E-04
:PTO012:     -1    3   -1 -4.68406274E-02 -3.714E-03 -1.029E-03
:PTO013:      0    4    0 -8.09915697E-03 -7.529E-04 -1.514E-04
:PTO014:      0    2   -3  1.82112566E-02  1.714E-03  1.204E-03

:ENE  : *WARNING** TOTAL ENERGY IN Ry =       -36944.38494157

       TOTAL FORCE IN mRy/a.u. = |F|     Fx             Fy             Fz     with/without FOR in case.in2
:FOR001:   1.ATOM        131.774          0.000          0.000       -131.774 partial forces
       TOTAL FORCE WITH RESPECT TO GLOBAL CARTESIAN COORDINATES:
:FCA001:   1.ATOM                         0.000       -131.774          0.000 partial forces
       TOTAL FORCE WITH RESPECT TO THE GLOBAL COORDINATE SYSTEM:
:FGL001:   1.ATOM                 0.000000000  -131.773681105     0.000000000 partial forces
 Flat Integration
 New Mode for Coulomb Integral
 Consistent 3/8+Simpson combinations
 Extension of core to zero
 LDM version in phi
 Fifth-order quadrature in outwin


            ---------
:ITE003:  3. ITERATION
            ---------

:NATO :    1 INDEPENDENT AND    2 TOTAL ATOMS IN UNITCELL
       SUBSTANCE: aU                                                          

       LATTICE                      = CXY 
:POT  : POTENTIAL OPTION EX_LDA EC_LDA VX_LDA VC_LDA
:LAT  : LATTICE CONSTANTS=  5.57334 11.30972  9.76391    1.571    1.571    1.571
:VOL  : UNIT CELL VOLUME =     307.72401
       MODE OF CALCULATION IS       = RELA
       NON-SPINPOLARIZED CALCULATION
:IFFT  : FFT-parameters:   48   90   80 Factor: 2.00


   CONVERGENCE PARAMETER FOR PSEUDOCHARGE: NCON=  9
   MAXIMAL VALUE OF RMT(JATOM)*ABSK(NKK) : RK  =27.58719


:VKCOUL :  VK-COUL convergence: 0.121E-06
       ATOMNUMBER=  1 Pr1        VCOUL-ZERO =  0.51526E+00
:EFG001:                        EFG         =    -0.49074   *10**21  V / m**2
                               V20  TOT/SRF=    -0.42499    -0.06807
                               V22  TOT/SRF=    -0.06323     0.00944
                               V22M TOT/SRF=     0.00000     0.00000
                               V21  TOT/SRF=     0.00000     0.00000
                               V21M TOT/SRF=     0.00000     0.00000

              0.18214    0.00000    0.00000        0.18214    0.00000    0.00000
              0.00000    0.30860    0.00000        0.00000    0.30860    0.00000
              0.00000    0.00000   -0.49074        0.00000    0.00000   -0.49074

         MAIN DIRECTIONS OF THE EFG   1.0000  0.0000  0.0000
                                      0.0000  1.0000  0.0000
                                      0.0000  0.0000  1.0000
:ANG001:  ANGLE WITH OLD X-AXIS =         0.0

:ETA001:                         ASYMM. ETA =     0.25769


     HELLMANN-FEYNMAN-FORCE IN mRy/a.u. = |F|  Fx       Fy             Fz
:FHF001:   1.ATOM    722.250168528154      0.000000000000      0.000000000000   -722.250168528154

:FIT001: LUSE= 13 SIGMA OF V-XC FIT FOR ATOM  1  0.1920466E-04
:FIT001: LUSE= 13 SIGMA OF V-XC FIT FOR ATOM  1  0.1920466E-04
:DEN  : DENSITY INTEGRAL  =        -14210.49399538   (Ry)
       ELS_POTENTIAL_AT Z=0 and Z=0.5:   0.94199   0.94199
       ELS_POTENTIAL_AT Y=0 and Y=0.5:  -0.00295  -0.00295
:VZERO:v0,v0c,v0x   0.23459   0.94199  -0.70740 v5,v5c,v5x   0.23459   0.94199  -0.70740
:VZERY:v0,v0c,v0x  -0.92915  -0.00295  -0.92621 v5,v5c,v5x  -0.92915  -0.00295  -0.92621
:VZERX:v0,v0c,v0x  -1.26516  -0.39362  -0.87154 v5,v5c,v5x  -1.26516  -0.39362  -0.87154
:LMAX-WF:   10   Non-Spherical LMAX:   4

          ATOMIC SPHERE DEPENDENT PARAMETERS FOR ATOM  Pr1       
:e__0001: OVERALL ENERGY PARAMETER IS    0.7000
          OVERALL BASIS SET ON ATOM IS LAPW
:E0_0001: E( 0)=    0.7000
             APW+lo
:E0_0001: E( 0)=   -1.5367   E(BOTTOM)=   -2.184   E(TOP)=   -0.889  4  5   221
             LOCAL ORBITAL
:E1_0001: E( 1)=    1.1000
             APW+lo
:E1_0001: E( 1)=   -0.0734   E(BOTTOM)=   -1.046   E(TOP)=    0.899  3  4   230
             LOCAL ORBITAL
:E3_0001: E( 3)=    1.1349   E(BOTTOM)=    0.918   E(TOP)=    1.351  0  1   146
             APW+lo
:E2_0001: E( 2)=    0.7000   E(BOTTOM)=    0.685   E(TOP)= -200.000  2 -1   111
             APW+lo

       K=   0.06250   0.00000   0.06250            1
:RKM  : MATRIX SIZE   303LOs:  40  RKM= 8.48  WEIGHT= 4.00  PGR:    
       EIGENVALUES ARE:
:EIG00001:      -1.5672055   -1.5007966   -0.3882507   -0.1554361   -0.1032832
:EIG00006:      -0.0863881   -0.0681188   -0.0631940    0.8824664    0.9155345
:EIG00011:       1.0601420    1.0893895    1.0917156    1.0926846    1.1134343
:EIG00016:       1.1455549    1.1539601    1.1558289    1.1580644    1.1638318
:EIG00021:       1.1703474    1.1758407    1.1830233    1.2064256    1.2117839
:EIG00026:       1.2238870    1.2928134    1.2993588    1.3701899    1.4101814
:EIG00031:       1.4471493    1.6259666    1.6260214    1.7144733    2.0083975
:EIG00036:       2.0567009    2.0912847    2.2774683    2.3241317
       ********************************************************

:KPT   :      NUMBER OF K-POINTS:   288
:GAP (global)   :    0.0    Ry =     0.0   eV (metal)
         Bandranges (emin - emax) and occupancy:
:BAN00005:   5   -0.306038   -0.103283  2.00000000
:BAN00006:   6   -0.272001   -0.073658  2.00000000
:BAN00007:   7   -0.221989   -0.064878  2.00000000
:BAN00008:   8   -0.125275   -0.051327  2.00000000
:BAN00009:   9    0.834653    1.009439  2.00000000
:BAN00010:  10    0.884414    1.036198  2.00000000
:BAN00011:  11    0.921789    1.101293  2.00000000
:BAN00012:  12    0.997905    1.109869  1.99452615
:BAN00013:  13    1.030825    1.139877  1.45891912
:BAN00014:  14    1.076598    1.152327  0.53526774
:BAN00015:  15    1.104304    1.158056  0.01128700
:BAN00016:  16    1.119003    1.159049  0.00000000
:BAN00017:  17    1.138718    1.166066  0.00000000
:BAN00018:  18    1.146980    1.167044  0.00000000
:BAN00019:  19    1.152516    1.176384  0.00000000
:BAN00020:  20    1.159315    1.181345  0.00000000
        Energy to separate low and high energystates:    0.78465


:NOE  : NUMBER OF ELECTRONS          =   26.000

:FER  : F E R M I - ENERGY(TETRAH.M.)=   1.1078873280
:GMA  : POTENTIAL AND CHARGE CUT-OFF  12.00 Ry**.5

:POS001: ATOM   -1 X,Y,Z = 0.00000 0.89750 0.25000  MULT= 2  ZZ= 59.000  Pr1       

       LMMAX 16
       LM=   0 0  1 0  2 0  2 2  3 0  3 2  4 0  4 2  4 4  5 0  5 2  5 4  6 0  6 2  6 4  6 6

:CHA001: TOTAL VALENCE CHARGE INSIDE SPHERE   1 =   9.3283    (RMT=  2.3000 )
:PCS001: PARTIAL CHARGES SPHERE =  1 S,P,D,F,PX,PY,PZ,D-Z2,D-X2Y2,D-XY,D-XZ,D-YZ 
:QTL001: 1.9459 4.9719 0.9885 1.4192 1.6544 1.6522 1.6653 0.1951 0.1960 0.1914 0.2023 0.2037
        Q-s-low E-s-low   Q-p-low E-p-low   Q-d-low E-d-low   Q-f-low E-f-low
:EPL001:  1.8642 -1.4958    4.8511 -0.2006    0.0168 -0.2503    0.0052 -0.2575
        Q-s-hi  E-s-hi    Q-p-hi  E-p-hi    Q-d-hi  E-d-hi    Q-f-hi  E-f-hi 
:EPH001:  0.0818  0.9845    0.1209  1.0150    0.9717  0.9912    1.4141  1.0633

                      VXX         VYY         VZZ       UP TO R
:VZZ001:             2.28749     7.75779   -10.04528       2.300

:CHA  : TOTAL VALENCE CHARGE INSIDE UNIT CELL =      26.000000

:SUM  : SUM OF EIGENVALUES =           1.641925422


        1.ATOM      Pr1                  14 CORE STATES
       CORE-FORCE in mRy/a.u. = |F|      Fx             Fy             Fz
:FCO001:   1.ATOM    593.974238753313      0.000000000000      0.000000000000    593.974238753313

:1S 001: 1S               -3066.413277198 Ry
:2S 001: 2S                -492.178375807 Ry
:2PP001: 2P*               -465.276055123 Ry
:2P 001: 2P                -429.879228126 Ry
:3S 001: 3S                -105.275379254 Ry
:3PP001: 3P*                -93.812853390 Ry
:3P 001: 3P                 -86.805354350 Ry
:3DD001: 3D*                -66.731865440 Ry
:3D 001: 3D                 -65.220414461 Ry
:4S 001: 4S                 -19.955851376 Ry
:4PP001: 4P*                -15.662760313 Ry
:4P 001: 4P                 -14.135534205 Ry
:4DD001: 4D*                 -7.069452284 Ry
:4D 001: 4D                  -6.800189435 Ry
:CINT001 Core Integral Atom   1   45.998427

       DENSITY AT NUCLEUS
        JATOM        VALENCE       SEMI-CORE          CORE           TOTAL
:RTO001:   1      645.623563        0.000000   656821.702227   657467.325790
     
       CHARGES OF NEW CHARGE DENSITY
:NTO   : INTERSTITIAL CHARGE =     7.343407
:NPC   : PW Pseudocharge     =    17.881921
:NTO001: CHARGE SPHERE  1    =    55.326722

:NEC01: NUCLEAR AND ELECTRONIC CHARGE    118.00000   117.99685
     
       CHARGES OF OLD CHARGE DENSITY
:OTO   : INTERSTITIAL CHARGE =     6.387694
:OPC   : PW Pseudocharge     =    17.592800
:OTO001: CHARGE SPHERE  1    =    55.806153

:NEC02: NUCLEAR AND ELECTRONIC CHARGE    118.00000   118.00000
     
       CONVERGENCE TEST
:DTO001: DIFFERENCE IN SPHERE  1 =  0.8620829

:DIS  :  CHARGE DISTANCE       ( 0.8620829 for atom    1 spin 1)      0.8620829
 PW Mixed is          332
 
******************************************************
* MULTISECANT MIXING VER9 RELEASE 10.4.0              *
* Standard Mode with controls                        *
* Fixed density scale                                *
* Regularization       1.000E-04                     *
* Trust Upper Limit    5.000E+00                     *
* Max Number of Memory Steps    8                    *
******************************************************
 
:PWTMP   2.0579E+02  1.9467E+02  3.0772E+02
:PLANE:  PW TOTAL      6.0110 DISTAN   2.80E-01  4.66E+00 %
:CHARG:  CLM/ATOM   1382.0464 DISTAN   1.27E+00  9.17E-02 %
 
Step History
        DMIX         DMIXT        Red     Pred      Trust     Lambda    MagRel    MagAbs     Beta
  1   3.5000E-02   3.5000E-02 -1.00E+00  1.00E+00 -1.00E+01  1.00E+00  3.50E-02  3.50E-02  1.00E+00
  2   2.5000E-02   2.5000E-02  7.91E-01  1.00E+00 -1.00E+01  1.00E+00  2.50E-02  4.54E-02  1.00E+00
  3   4.5159E-02   4.5159E-02 -1.00E+00  1.00E+00 -1.00E+01  1.00E+00  4.52E-02  6.49E-02  1.00E+00
:JACOBIANS    6.173E-01   1.712E-02
  
:NORMS:  1/Froebius, Min, Max, Used   0.8327E+00  0.4702E+00  0.9403E+00  0.8327E+00
:INFO :  Number of Memory Steps    2 Skipping    0
:INFO :  SLambda=    1.2163147328  Max    1.2163147328
:PREDicted Charge, CTotal, PW Trust    8.838E-03   1.768E-02   3.087E-01
:PREDicted DMix, Beta, BLim   3.2424E-02  1.0501E+00  1.0626E+00

Eigenvalues, unscaled except for SY+YY
   #     SY Real        SY Imag          SS             YY         SY+YY Real      SY+YY Imag
   1   1.479638E+00   0.000000E+00   1.386695E+00   1.999668E+00   3.799331E+00   0.000000E+00
   2   1.720846E-14   0.000000E+00   0.000000E+00   3.316648E-04   3.742154E-04   0.000000E+00
 
:INFO :  Singular value  3.799E+00 Weight  1.000E+00 Projection -2.196E-01
:INFO :  Singular value  3.742E-04 Weight  7.779E-01 Projection -4.042E+01
:RANK :  ACTIVE   1.78/2  =  88.89 % ; YY RANK   1.73/2  =  86.67 %
 
:BLIM :  VZERO Control Off
:TRUST:  Step 2.77E-01  Charge 7.50E-02 (e) CTO  2.50E-01 (e) PW  3.50E-01 (e)
:DIRM :  MEMORY  2/8  SCALE   1.000 RED  0.90 PRED  1.00 NEXT  0.58 
:TRAVE:  Charge 1.14E-02 (e) CTO  2.28E-02 (e) PW  5.10E-02 (e)
:DIRP :  |MSR1|= 2.661E-02 |PRATT|= 2.798E-01 ANGLE=  91.8 DEGREES
:DIRQ :  |MSR1|= 2.676E-02 |PRATT|= 1.268E+00 ANGLE=  36.8 DEGREES
:DIRT :  |MSR1|= 3.774E-02 |PRATT|= 1.298E+00 ANGLE=  56.7 DEGREES
:MIX  :   MSE1   REGULARIZATION:  2.00E-04 GREED: 0.03500  Newton 1.00  0.0291                
     
       CHARGES OF MIXED CHARGE DENSITY
:CTO   : INTERSTITIAL CHARGE =     6.410536
:CPC   : PW Pseudocharge     =    17.650621
:CTO001: CHARGE SPHERE  1    =    55.794732

:NEC03: NUCLEAR AND ELECTRONIC CHARGE    118.00000   118.00000

PW CHANGE     H    K    L      Current       Change    Residue
:PTO001:      0    0    0  7.81907052E-02  2.621E-04  4.080E-03
:PTO003:      0    2    0  1.82643157E-02  1.104E-04  8.215E-04
:PTO004:     -1    1    0  8.71329449E-02  3.651E-04  7.916E-05
:PTO005:      0    2   -1 -1.00959147E-01 -4.360E-04  2.043E-03
:PTO006:      0    0   -2 -5.23470622E-02 -2.215E-04  1.269E-03
:PTO007:     -1    1   -1 -1.05995057E-01 -3.368E-04  4.347E-03
:PTO008:      0    2   -2 -1.57938625E-02 -5.827E-05  1.211E-03
:PTO009:     -1    1   -2 -7.63178249E-02 -3.637E-04  4.648E-03
:PTO011:     -1    3    0 -1.11208596E-02 -6.587E-05  5.299E-04
:PTO012:     -1    3   -1 -4.71990035E-02 -3.584E-04  2.642E-03
:PTO013:      0    4    0 -8.18892827E-03 -8.977E-05  6.023E-04
:PTO014:      0    2   -3  1.84207822E-02  2.095E-04 -5.234E-04

:ENE  : ********** TOTAL ENERGY IN Ry =       -36944.36900179

       TOTAL FORCE IN mRy/a.u. = |F|     Fx             Fy             Fz     with/without FOR in case.in2
:FOR001:   1.ATOM        128.276          0.000          0.000       -128.276 partial forces
       TOTAL FORCE WITH RESPECT TO GLOBAL CARTESIAN COORDINATES:
:FCA001:   1.ATOM                         0.000       -128.276          0.000 partial forces
       TOTAL FORCE WITH RESPECT TO THE GLOBAL COORDINATE SYSTEM:
:FGL001:   1.ATOM                 0.000000000  -128.275929775     0.000000000 partial forces
 Flat Integration
 New Mode for Coulomb Integral
 Consistent 3/8+Simpson combinations
 Extension of core to zero
 LDM version in phi
 Fifth-order quadrature in outwin


            ---------
:ITE004:  4. ITERATION
            ---------

:NATO :    1 INDEPENDENT AND    2 TOTAL ATOMS IN UNITCELL
       SUBSTANCE: aU                                                          

       LATTICE                      = CXY 
:POT  : POTENTIAL OPTION EX_LDA EC_LDA VX_LDA VC_LDA
:LAT  : LATTICE CONSTANTS=  5.57334 11.30972  9.76391    1.571    1.571    1.571
:VOL  : UNIT CELL VOLUME =     307.72401
       MODE OF CALCULATION IS       = RELA
       NON-SPINPOLARIZED CALCULATION
:IFFT  : FFT-parameters:   48   90   80 Factor: 2.00


   CONVERGENCE PARAMETER FOR PSEUDOCHARGE: NCON=  9
   MAXIMAL VALUE OF RMT(JATOM)*ABSK(NKK) : RK  =27.58719


:VKCOUL :  VK-COUL convergence: 0.121E-06
       ATOMNUMBER=  1 Pr1        VCOUL-ZERO =  0.51667E+00
:EFG001:                        EFG         =    -0.81645   *10**21  V / m**2
                               V20  TOT/SRF=    -0.70706    -0.06634
                               V22  TOT/SRF=    -0.00571     0.01038
                               V22M TOT/SRF=     0.00000     0.00000
                               V21  TOT/SRF=     0.00000     0.00000
                               V21M TOT/SRF=     0.00000     0.00000

              0.40251    0.00000    0.00000        0.40251    0.00000    0.00000
              0.00000    0.41394    0.00000        0.00000    0.41394    0.00000
              0.00000    0.00000   -0.81645        0.00000    0.00000   -0.81645

         MAIN DIRECTIONS OF THE EFG   1.0000  0.0000  0.0000
                                      0.0000  1.0000  0.0000
                                      0.0000  0.0000  1.0000
:ANG001:  ANGLE WITH OLD X-AXIS =         0.0

:ETA001:                         ASYMM. ETA =     0.01399


     HELLMANN-FEYNMAN-FORCE IN mRy/a.u. = |F|  Fx       Fy             Fz
:FHF001:   1.ATOM    721.413236957506      0.000000000000      0.000000000000   -721.413236957506

:FIT001: LUSE= 13 SIGMA OF V-XC FIT FOR ATOM  1  0.2076412E-04
:FIT001: LUSE= 13 SIGMA OF V-XC FIT FOR ATOM  1  0.2076412E-04
:DEN  : DENSITY INTEGRAL  =        -14208.90637956   (Ry)
       ELS_POTENTIAL_AT Z=0 and Z=0.5:   0.94469   0.94469
       ELS_POTENTIAL_AT Y=0 and Y=0.5:  -0.00202  -0.00202
:VZERO:v0,v0c,v0x   0.23657   0.94469  -0.70812 v5,v5c,v5x   0.23657   0.94469  -0.70812
:VZERY:v0,v0c,v0x  -0.92915  -0.00202  -0.92713 v5,v5c,v5x  -0.92915  -0.00202  -0.92713
:VZERX:v0,v0c,v0x  -1.26715  -0.39445  -0.87270 v5,v5c,v5x  -1.26715  -0.39445  -0.87270
:LMAX-WF:   10   Non-Spherical LMAX:   4

          ATOMIC SPHERE DEPENDENT PARAMETERS FOR ATOM  Pr1       
:e__0001: OVERALL ENERGY PARAMETER IS    0.9000
          OVERALL BASIS SET ON ATOM IS LAPW
:E0_0001: E( 0)=    0.9000
             APW+lo
:E0_0001: E( 0)=   -1.5424   E(BOTTOM)=   -2.188   E(TOP)=   -0.896  4  5   226
             LOCAL ORBITAL
:E1_0001: E( 1)=    1.3000
             APW+lo
:E1_0001: E( 1)=   -0.0784   E(BOTTOM)=   -1.049   E(TOP)=    0.893  3  4   234
             LOCAL ORBITAL
:E3_0001: E( 3)=    1.1246   E(BOTTOM)=    0.910   E(TOP)=    1.340  0  1   122
             APW+lo
:E2_0001: E( 2)=    0.9000   E(BOTTOM)=    0.682   E(TOP)= -200.000  2 -1   119
             APW+lo

       K=   0.06250   0.00000   0.06250            1
:RKM  : MATRIX SIZE   303LOs:  40  RKM= 8.48  WEIGHT= 4.00  PGR:    
       EIGENVALUES ARE:
:EIG00001:      -1.5721319   -1.5061558   -0.3908000   -0.1596501   -0.1077268
:EIG00006:      -0.0902628   -0.0723167   -0.0672243    0.8825429    0.9154101
:EIG00011:       1.0567817    1.0824816    1.0837336    1.0861916    1.1054191
:EIG00016:       1.1364055    1.1459197    1.1469502    1.1518097    1.1540929
:EIG00021:       1.1607692    1.1672033    1.1732359    1.1957286    1.2023030
:EIG00026:       1.2159454    1.2905052    1.2955929    1.3680740    1.4080250
:EIG00031:       1.4451082    1.6235638    1.6244912    1.7116171    2.0072443
:EIG00036:       2.0556270    2.0901522    2.2754714    2.3237765    2.4140503
       ********************************************************

:KPT   :      NUMBER OF K-POINTS:   288
:GAP (global)   :    0.0    Ry =     0.0   eV (metal)
         Bandranges (emin - emax) and occupancy:
:BAN00005:   5   -0.308994   -0.107727  2.00000000
:BAN00006:   6   -0.275293   -0.077609  2.00000000
:BAN00007:   7   -0.225394   -0.068888  2.00000000
:BAN00008:   8   -0.129076   -0.055430  2.00000000
:BAN00009:   9    0.835163    1.007802  2.00000000
:BAN00010:  10    0.884605    1.033251  2.00000000
:BAN00011:  11    0.921698    1.093832  2.00000000
:BAN00012:  12    0.996608    1.101660  1.99526530
:BAN00013:  13    1.027885    1.130416  1.45023844
:BAN00014:  14    1.070904    1.144135  0.54549741
:BAN00015:  15    1.096830    1.148418  0.00899886
:BAN00016:  16    1.111105    1.149925  0.00000000
:BAN00017:  17    1.129977    1.156947  0.00000000
:BAN00018:  18    1.138168    1.157207  0.00000000
:BAN00019:  19    1.144930    1.166249  0.00000000
:BAN00020:  20    1.151112    1.171323  0.00000000
        Energy to separate low and high energystates:    0.78516


:NOE  : NUMBER OF ELECTRONS          =   26.000

:FER  : F E R M I - ENERGY(TETRAH.M.)=   1.1003601602
:GMA  : POTENTIAL AND CHARGE CUT-OFF  12.00 Ry**.5

:POS001: ATOM   -1 X,Y,Z = 0.00000 0.89750 0.25000  MULT= 2  ZZ= 59.000  Pr1       

       LMMAX 16
       LM=   0 0  1 0  2 0  2 2  3 0  3 2  4 0  4 2  4 4  5 0  5 2  5 4  6 0  6 2  6 4  6 6

:CHA001: TOTAL VALENCE CHARGE INSIDE SPHERE   1 =   9.3813    (RMT=  2.3000 )
:PCS001: PARTIAL CHARGES SPHERE =  1 S,P,D,F,PX,PY,PZ,D-Z2,D-X2Y2,D-XY,D-XZ,D-YZ 
:QTL001: 1.9448 4.9725 0.9658 1.4956 1.6549 1.6524 1.6652 0.1905 0.1891 0.1879 0.1985 0.1999
        Q-s-low E-s-low   Q-p-low E-p-low   Q-d-low E-d-low   Q-f-low E-f-low
:EPL001:  1.8648 -1.5013    4.8568 -0.2042    0.0167 -0.2537    0.0051 -0.2607
        Q-s-hi  E-s-hi    Q-p-hi  E-p-hi    Q-d-hi  E-d-hi    Q-f-hi  E-f-hi 
:EPH001:  0.0800  0.9819    0.1157  1.0113    0.9491  0.9879    1.4904  1.0578

                      VXX         VYY         VZZ       UP TO R
:VZZ001:             1.83340     7.85171    -9.68511       2.300

:CHA  : TOTAL VALENCE CHARGE INSIDE UNIT CELL =      26.000000

:SUM  : SUM OF EIGENVALUES =           1.550805251


        1.ATOM      Pr1                  14 CORE STATES
       CORE-FORCE in mRy/a.u. = |F|      Fx             Fy             Fz
:FCO001:   1.ATOM    606.019480031291      0.000000000000      0.000000000000    606.019480031291

:1S 001: 1S               -3066.431598100 Ry
:2S 001: 2S                -492.196093721 Ry
:2PP001: 2P*               -465.293835405 Ry
:2P 001: 2P                -429.896979180 Ry
:3S 001: 3S                -105.292708611 Ry
:3PP001: 3P*                -93.830216114 Ry
:3P 001: 3P                 -86.822663516 Ry
:3DD001: 3D*                -66.749244427 Ry
:3D 001: 3D                 -65.237780397 Ry
:4S 001: 4S                 -19.970454117 Ry
:4PP001: 4P*                -15.677167487 Ry
:4P 001: 4P                 -14.149648661 Ry
:4DD001: 4D*                 -7.082976895 Ry
:4D 001: 4D                  -6.813606736 Ry
:CINT001 Core Integral Atom   1   45.998437

       DENSITY AT NUCLEUS
        JATOM        VALENCE       SEMI-CORE          CORE           TOTAL
:RTO001:   1      645.718814        0.000000   656822.397385   657468.116199
     
       CHARGES OF NEW CHARGE DENSITY
:NTO   : INTERSTITIAL CHARGE =     7.237449
:NPC   : PW Pseudocharge     =    17.835789
:NTO001: CHARGE SPHERE  1    =    55.379711

:NEC01: NUCLEAR AND ELECTRONIC CHARGE    118.00000   117.99687
     
       CHARGES OF OLD CHARGE DENSITY
:OTO   : INTERSTITIAL CHARGE =     6.410536
:OPC   : PW Pseudocharge     =    17.650621
:OTO001: CHARGE SPHERE  1    =    55.794732

:NEC02: NUCLEAR AND ELECTRONIC CHARGE    118.00000   118.00000
     
       CONVERGENCE TEST
:DTO001: DIFFERENCE IN SPHERE  1 =  0.7538660

:DIS  :  CHARGE DISTANCE       ( 0.7538660 for atom    1 spin 1)      0.7538660
 PW Mixed is          332
 
******************************************************
* MULTISECANT MIXING VER9 RELEASE 10.4.0              *
* Standard Mode with controls                        *
* Fixed density scale                                *
* Regularization       1.000E-04                     *
* Trust Upper Limit    5.000E+00                     *
* Max Number of Memory Steps    8                    *
******************************************************
 
:PWTMP   2.0579E+02  1.9467E+02  3.0772E+02
:PLANE:  PW TOTAL      6.0354 DISTAN   2.64E-01  4.38E+00 %
:CHARG:  CLM/ATOM   1382.0413 DISTAN   1.12E+00  8.11E-02 %
 
Step History
        DMIX         DMIXT        Red     Pred      Trust     Lambda    MagRel    MagAbs     Beta
  1   3.5000E-02   3.5000E-02 -1.00E+00  1.00E+00 -1.00E+01  1.00E+00  3.50E-02  3.50E-02  1.00E+00
  2   2.5000E-02   2.5000E-02  7.91E-01  1.00E+00 -1.00E+01  1.00E+00  2.50E-02  4.54E-02  1.00E+00
  3   4.5159E-02   4.5159E-02  9.03E-01  1.00E+00 -1.00E+01  1.22E+00  4.52E-02  6.49E-02  1.00E+00
  4   3.5002E-02   3.5002E-02 -1.00E+00  5.80E-01  2.77E-01  1.00E+00  2.91E-02  3.77E-02  1.00E+00
:JACOBIANS    8.080E-01   7.276E-02
  
:NORMS:  1/Froebius, Min, Max, Used   0.5896E+00  0.4335E+00  0.9952E+00  0.6099E+00
:INFO :  Number of Memory Steps    3 Skipping    0
:INFO :  SLambda=    1.8680394482  Max    1.8680394482
:PREDicted Charge, CTotal, PW Trust    1.001E-01   2.002E-01   3.598E-02
:PREDicted DMix, Beta, BLim   2.0909E-01  3.1446E+00  6.5304E-01

Eigenvalues, unscaled except for SY+YY
   #     SY Real        SY Imag          SS             YY         SY+YY Real      SY+YY Imag
   1   1.194215E+00   0.000000E+00   1.019497E+00   2.741004E+00   4.852261E+00   0.000000E+00
   2   7.768996E-15   0.000000E+00   2.344395E-02   2.589367E-01   7.637620E-05   0.000000E+00
   3   7.232722E-02   0.000000E+00  -9.939241E-18   5.973935E-05   5.136142E-01   0.000000E+00
 
:INFO :  Singular value  4.853E+00 Weight  1.000E+00 Projection -2.998E-01
:INFO :  Singular value  5.135E-01 Weight  1.000E+00 Projection -1.551E+00
:INFO :  Singular value  7.638E-05 Weight  7.205E-02 Projection  5.332E-01
:RANK :  ACTIVE   2.07/3  =  69.07 % ; YY RANK   2.05/3  =  68.18 %
 
:BLIM :  VZERO Control Off
:TRUST:  Step 2.57E-01  Charge 8.25E-02 (e) CTO  2.50E-01 (e) PW  3.50E-01 (e)
:DIRM :  MEMORY  3/8  SCALE   1.000 RED  0.89 PRED  0.58 NEXT  0.31 
:TRAVE:  Charge 4.67E-02 (e) CTO  9.33E-02 (e) PW  3.27E-02 (e)
:DIRP :  |MSR1|= 1.779E-01 |PRATT|= 2.642E-01 ANGLE=  44.3 DEGREES
:DIRQ :  |MSR1|= 2.238E-01 |PRATT|= 1.121E+00 ANGLE=  43.6 DEGREES
:DIRT :  |MSR1|= 2.859E-01 |PRATT|= 1.152E+00 ANGLE=  49.2 DEGREES
:MIX  :   MSE1   REGULARIZATION:  2.74E-04 GREED: 0.08750  Newton 1.00  0.2483                
     
       CHARGES OF MIXED CHARGE DENSITY
:CTO   : INTERSTITIAL CHARGE =     6.574347
:CPC   : PW Pseudocharge     =    17.464212
:CTO001: CHARGE SPHERE  1    =    55.712827

:NEC03: NUCLEAR AND ELECTRONIC CHARGE    118.00000   118.00000

PW CHANGE     H    K    L      Current       Change    Residue
:PTO001:      0    0    0  7.81172677E-02 -7.344E-05  3.324E-03
:PTO003:      0    2    0  1.82696917E-02  5.376E-06  6.733E-04
:PTO004:     -1    1    0  8.53008645E-02 -1.832E-03 -2.412E-04
:PTO005:      0    2   -1 -9.86327236E-02  2.326E-03  2.479E-03
:PTO006:      0    0   -2 -5.10970911E-02  1.250E-03  1.472E-03
:PTO007:     -1    1   -1 -1.01923417E-01  4.072E-03  4.528E-03
:PTO008:      0    2   -2 -1.48968361E-02  8.970E-04  1.282E-03
:PTO009:     -1    1   -2 -7.22261171E-02  4.092E-03  4.904E-03
:PTO011:     -1    3    0 -1.03806706E-02  7.402E-04  5.665E-04
:PTO012:     -1    3   -1 -4.38436247E-02  3.355E-03  2.971E-03
:PTO013:      0    4    0 -7.63206337E-03  5.569E-04  6.952E-04
:PTO014:      0    2   -3  1.72555379E-02 -1.165E-03 -7.565E-04

:ENE  : ********** TOTAL ENERGY IN Ry =       -36944.35261556

       TOTAL FORCE IN mRy/a.u. = |F|     Fx             Fy             Fz     with/without FOR in case.in2
:FOR001:   1.ATOM        115.394          0.000          0.000       -115.394 partial forces
       TOTAL FORCE WITH RESPECT TO GLOBAL CARTESIAN COORDINATES:
:FCA001:   1.ATOM                         0.000       -115.394          0.000 partial forces
       TOTAL FORCE WITH RESPECT TO THE GLOBAL COORDINATE SYSTEM:
:FGL001:   1.ATOM                 0.000000000  -115.393756926     0.000000000 partial forces
 Flat Integration
 New Mode for Coulomb Integral
 Consistent 3/8+Simpson combinations
 Extension of core to zero
 LDM version in phi
 Fifth-order quadrature in outwin


            ---------
:ITE005:  5. ITERATION
            ---------

:NATO :    1 INDEPENDENT AND    2 TOTAL ATOMS IN UNITCELL
       SUBSTANCE: aU                                                          

       LATTICE                      = CXY 
:POT  : POTENTIAL OPTION EX_LDA EC_LDA VX_LDA VC_LDA
:LAT  : LATTICE CONSTANTS=  5.57334 11.30972  9.76391    1.571    1.571    1.571
:VOL  : UNIT CELL VOLUME =     307.72401
       MODE OF CALCULATION IS       = RELA
       NON-SPINPOLARIZED CALCULATION
:IFFT  : FFT-parameters:   48   90   80 Factor: 2.00


   CONVERGENCE PARAMETER FOR PSEUDOCHARGE: NCON=  9
   MAXIMAL VALUE OF RMT(JATOM)*ABSK(NKK) : RK  =27.58719


:VKCOUL :  VK-COUL convergence: 0.119E-06
       ATOMNUMBER=  1 Pr1        VCOUL-ZERO =  0.52354E+00
:EFG001:                        EFG         =    -3.78642   *10**21  V / m**2
                               V20  TOT/SRF=    -3.27914    -0.05197
                               V22  TOT/SRF=     0.05092     0.01403
                               V22M TOT/SRF=     0.00000     0.00000
                               V21  TOT/SRF=     0.00000     0.00000
                               V21M TOT/SRF=     0.00000     0.00000

              1.94413    0.00000    0.00000        1.94413    0.00000    0.00000
              0.00000    1.84229    0.00000        0.00000    1.84229    0.00000
              0.00000    0.00000   -3.78642        0.00000    0.00000   -3.78642

         MAIN DIRECTIONS OF THE EFG   1.0000  0.0000  0.0000
                                      0.0000  1.0000  0.0000
                                      0.0000  0.0000  1.0000
:ANG001:  ANGLE WITH OLD X-AXIS =         0.0

:ETA001:                         ASYMM. ETA =     0.02690


     HELLMANN-FEYNMAN-FORCE IN mRy/a.u. = |F|  Fx       Fy             Fz
:FHF001:   1.ATOM    792.214425366910      0.000000000000      0.000000000000   -792.214425366910

:FIT001: LUSE= 13 SIGMA OF V-XC FIT FOR ATOM  1  0.4155468E-04
:FIT001: LUSE= 13 SIGMA OF V-XC FIT FOR ATOM  1  0.4155468E-04
:DEN  : DENSITY INTEGRAL  =        -14197.74107436   (Ry)
       ELS_POTENTIAL_AT Z=0 and Z=0.5:   0.96064   0.96064
       ELS_POTENTIAL_AT Y=0 and Y=0.5:   0.00439   0.00439
:VZERO:v0,v0c,v0x   0.24749   0.96064  -0.71315 v5,v5c,v5x   0.24749   0.96064  -0.71315
:VZERY:v0,v0c,v0x  -0.92725   0.00439  -0.93164 v5,v5c,v5x  -0.92725   0.00439  -0.93164
:VZERX:v0,v0c,v0x  -1.27255  -0.39585  -0.87670 v5,v5c,v5x  -1.27255  -0.39585  -0.87670
:LMAX-WF:   10   Non-Spherical LMAX:   4

          ATOMIC SPHERE DEPENDENT PARAMETERS FOR ATOM  Pr1       
:e__0001: OVERALL ENERGY PARAMETER IS    0.9002
          OVERALL BASIS SET ON ATOM IS LAPW
:E0_0001: E( 0)=    0.9002
             APW+lo
:E0_0001: E( 0)=   -1.5873   E(BOTTOM)=   -2.224   E(TOP)=   -0.951  4  5   225
             LOCAL ORBITAL
:E1_0001: E( 1)=    1.3002
             APW+lo
:E1_0001: E( 1)=   -0.1175   E(BOTTOM)=   -1.077   E(TOP)=    0.842  3  4   229
             LOCAL ORBITAL
:E3_0001: E( 3)=    1.0488   E(BOTTOM)=    0.844   E(TOP)=    1.253  0  1   120
             APW+lo
:E2_0001: E( 2)=    0.9002   E(BOTTOM)=    0.661   E(TOP)= -200.000  2 -1   122
             APW+lo

       K=   0.06250   0.00000   0.06250            1
:RKM  : MATRIX SIZE   303LOs:  40  RKM= 8.48  WEIGHT= 4.00  PGR:    
       EIGENVALUES ARE:
:EIG00001:      -1.6110924   -1.5482909   -0.4119499   -0.1943122   -0.1440084
:EIG00006:      -0.1217930   -0.1053790   -0.0999523    0.8794267    0.9100662
:EIG00011:       1.0175556    1.0219110    1.0242587    1.0322219    1.0446473
:EIG00016:       1.0678174    1.0746146    1.0773600    1.0833406    1.0869432
:EIG00021:       1.0983676    1.1002015    1.1013682    1.1176652    1.1438350
:EIG00026:       1.1755289    1.2711552    1.2740103    1.3516241    1.3907522
:EIG00031:       1.4293265    1.6053901    1.6117594    1.6914198    1.9970739
:EIG00036:       2.0461096    2.0805152    2.2634287    2.3197451    2.4090158
:EIG00041:       2.5936840
       ********************************************************

:KPT   :      NUMBER OF K-POINTS:   288
:GAP (global)   :    0.0    Ry =     0.0   eV (metal)
         Bandranges (emin - emax) and occupancy:
:BAN00005:   5   -0.333294   -0.144008  2.00000000
:BAN00006:   6   -0.302824   -0.109673  2.00000000
:BAN00007:   7   -0.254034   -0.101410  2.00000000
:BAN00008:   8   -0.160146   -0.088655  2.00000000
:BAN00009:   9    0.835005    0.986194  2.00000000
:BAN00010:  10    0.881670    1.002017  2.00000000
:BAN00011:  11    0.916287    1.039550  2.00000000
:BAN00012:  12    0.979291    1.045822  1.97212596
:BAN00013:  13    0.996760    1.061784  1.31181293
:BAN00014:  14    1.021425    1.073281  0.70969312
:BAN00015:  15    1.038526    1.075934  0.00636798
:BAN00016:  16    1.047774    1.079224  0.00000000
:BAN00017:  17    1.064127    1.086677  0.00000000
:BAN00018:  18    1.070950    1.088916  0.00000000
:BAN00019:  19    1.079274    1.098069  0.00000000
:BAN00020:  20    1.081275    1.099746  0.00000000
        Energy to separate low and high energystates:    0.78500


:NOE  : NUMBER OF ELECTRONS          =   26.000

:FER  : F E R M I - ENERGY(TETRAH.M.)=   1.0409116348
:GMA  : POTENTIAL AND CHARGE CUT-OFF  12.00 Ry**.5

:POS001: ATOM   -1 X,Y,Z = 0.00000 0.89750 0.25000  MULT= 2  ZZ= 59.000  Pr1       

       LMMAX 16
       LM=   0 0  1 0  2 0  2 2  3 0  3 2  4 0  4 2  4 4  5 0  5 2  5 4  6 0  6 2  6 4  6 6

:CHA001: TOTAL VALENCE CHARGE INSIDE SPHERE   1 =   9.8126    (RMT=  2.3000 )
:PCS001: PARTIAL CHARGES SPHERE =  1 S,P,D,F,PX,PY,PZ,D-Z2,D-X2Y2,D-XY,D-XZ,D-YZ 
:QTL001: 1.9340 4.9746 0.7806 2.1212 1.6575 1.6537 1.6635 0.1514 0.1386 0.1605 0.1626 0.1674
        Q-s-low E-s-low   Q-p-low E-p-low   Q-d-low E-d-low   Q-f-low E-f-low
:EPL001:  1.8694 -1.5440    4.8969 -0.2336    0.0154 -0.2797    0.0049 -0.2868
        Q-s-hi  E-s-hi    Q-p-hi  E-p-hi    Q-d-hi  E-d-hi    Q-f-hi  E-f-hi 
:EPH001:  0.0646  0.9574    0.0777  0.9782    0.7652  0.9584    2.1163  1.0107

                      VXX         VYY         VZZ       UP TO R
:VZZ001:            -0.12380     8.64546    -8.52166       2.300

:CHA  : TOTAL VALENCE CHARGE INSIDE UNIT CELL =      26.000000

:SUM  : SUM OF EIGENVALUES =           0.756806964


        1.ATOM      Pr1                  14 CORE STATES
       CORE-FORCE in mRy/a.u. = |F|      Fx             Fy             Fz
:FCO001:   1.ATOM    793.574690761297      0.000000000000      0.000000000000    793.574690761297

:1S 001: 1S               -3066.557670313 Ry
:2S 001: 2S                -492.317051359 Ry
:2PP001: 2P*               -465.415239655 Ry
:2P 001: 2P                -430.018160458 Ry
:3S 001: 3S                -105.412335118 Ry
:3PP001: 3P*                -93.949994337 Ry
:3P 001: 3P                 -86.942174504 Ry
:3DD001: 3D*                -66.868913619 Ry
:3D 001: 3D                 -65.357393663 Ry
:4S 001: 4S                 -20.074531162 Ry
:4PP001: 4P*                -15.780019635 Ry
:4P 001: 4P                 -14.250705799 Ry
:4DD001: 4D*                 -7.180223501 Ry
:4D 001: 4D                  -6.910176919 Ry
:CINT001 Core Integral Atom   1   45.998507

       DENSITY AT NUCLEUS
        JATOM        VALENCE       SEMI-CORE          CORE           TOTAL
:RTO001:   1      644.941914        0.000000   656826.693952   657471.635865
     
       CHARGES OF NEW CHARGE DENSITY
:NTO   : INTERSTITIAL CHARGE =     6.374873
:NPC   : PW Pseudocharge     =    17.460354
:NTO001: CHARGE SPHERE  1    =    55.811068

:NEC01: NUCLEAR AND ELECTRONIC CHARGE    118.00000   117.99701
     
       CHARGES OF OLD CHARGE DENSITY
:OTO   : INTERSTITIAL CHARGE =     6.574347
:OPC   : PW Pseudocharge     =    17.464212
:OTO001: CHARGE SPHERE  1    =    55.712827

:NEC02: NUCLEAR AND ELECTRONIC CHARGE    118.00000   118.00000
     
       CONVERGENCE TEST
:DTO001: DIFFERENCE IN SPHERE  1 =  0.1431525

:DIS  :  CHARGE DISTANCE       ( 0.1431525 for atom    1 spin 1)      0.1431525
 PW Mixed is          332
 
******************************************************
* MULTISECANT MIXING VER9 RELEASE 10.4.0              *
* Standard Mode with controls                        *
* Fixed density scale                                *
* Regularization       1.000E-04                     *
* Trust Upper Limit    5.000E+00                     *
* Max Number of Memory Steps    8                    *
******************************************************
 
:PWTMP   2.0579E+02  1.9467E+02  3.0772E+02
:PLANE:  PW TOTAL      5.9247 DISTAN   7.84E-02  1.32E+00 %
:CHARG:  CLM/ATOM   1381.9985 DISTAN   3.27E-01  2.36E-02 %
 
Step History
        DMIX         DMIXT        Red     Pred      Trust     Lambda    MagRel    MagAbs     Beta
  1   3.5000E-02   3.5000E-02 -1.00E+00  1.00E+00 -1.00E+01  1.00E+00  3.50E-02  3.50E-02  1.00E+00
  2   2.5000E-02   2.5000E-02  7.91E-01  1.00E+00 -1.00E+01  1.00E+00  2.50E-02  4.54E-02  1.00E+00
  3   4.5159E-02   4.5159E-02  9.03E-01  1.00E+00 -1.00E+01  1.22E+00  4.52E-02  6.49E-02  1.00E+00
  4   3.5002E-02   3.5002E-02  8.87E-01  5.80E-01  2.77E-01  1.87E+00  2.91E-02  3.77E-02  1.00E+00
  5   8.7504E-02   8.7504E-02 -1.00E+00  3.11E-01  2.57E-01  1.00E+00  2.48E-01  2.86E-01  1.00E+00
:JACOBIANS    8.986E-01   9.442E-02
  
:NORMS:  1/Froebius, Min, Max, Used   0.2416E+00  0.1824E+00  0.9956E+00  0.2956E+00
:INFO :  Number of Memory Steps    4 Skipping    0
:INFO :  SLambda=    2.8020591723  Max    2.8020591723
:PREDicted Charge, CTotal, PW Trust    7.557E-02   1.511E-01   3.661E-02
:PREDicted DMix, Beta, BLim   6.7209E-03  9.1875E-01  1.4434E+00

Eigenvalues, unscaled except for SY+YY
   #     SY Real        SY Imag          SS             YY         SY+YY Real      SY+YY Imag
   1   4.488751E-01   0.000000E+00   1.294430E-01   3.889455E+00   5.146627E+00   0.000000E+00
   2   1.089028E-01   0.000000E+00   1.039900E-01   1.104965E-01   4.162565E-01   0.000000E+00
   3   5.211580E-16   0.000000E+00   2.607387E-06   4.431943E-05   5.581626E-06   0.000000E+00
   4   8.595949E-06   0.000000E+00   8.715969E-19   3.903300E-06   6.131383E-05   0.000000E+00
 
:INFO :  Singular value  5.148E+00 Weight  1.000E+00 Projection  5.227E-02
:INFO :  Singular value  4.161E-01 Weight  1.000E+00 Projection -1.503E-02
:INFO :  Singular value  6.156E-05 Weight  2.444E-02 Projection -7.826E-01
:INFO :  Singular value  5.559E-06 Weight  2.043E-04 Projection  9.977E-05
:RANK :  ACTIVE   2.02/4  =  50.62 % ; YY RANK   2.01/4  =  50.32 %
 
:DLIM :  Beta Active  9.391E-01
:BLIM :  VZERO Control Off
:TRUST:  Step 8.55E-01  Charge 8.25E-02 (e) CTO  2.50E-01 (e) PW  4.91E-01 (e)
:DIRM :  MEMORY  4/8  SCALE   1.000 RED  0.29 PRED  0.31 NEXT  0.89 BETA  0.94
:TRAVE:  Charge 2.77E-02 (e) CTO  5.54E-02 (e) PW  2.77E-02 (e)
:DIRP :  |MSR1|= 8.159E-03 |PRATT|= 7.837E-02 ANGLE=  75.3 DEGREES
:DIRQ :  |MSR1|= 1.638E-02 |PRATT|= 3.266E-01 ANGLE=  59.2 DEGREES
:DIRT :  |MSR1|= 1.830E-02 |PRATT|= 3.359E-01 ANGLE=  61.9 DEGREES
:MIX  :   MSE1   REGULARIZATION:  3.89E-04 GREED: 0.03500  Newton 1.00  0.0545                
     
       CHARGES OF MIXED CHARGE DENSITY
:CTO   : INTERSTITIAL CHARGE =     6.556921
:CPC   : PW Pseudocharge     =    17.445764
:CTO001: CHARGE SPHERE  1    =    55.721539

:NEC03: NUCLEAR AND ELECTRONIC CHARGE    118.00000   118.00000

PW CHANGE     H    K    L      Current       Change    Residue
:PTO001:      0    0    0  7.80006913E-02 -1.166E-04 -6.244E-04
:PTO003:      0    2    0  1.82382350E-02 -3.146E-05  3.768E-04
:PTO004:     -1    1    0  8.52498322E-02 -5.103E-05  1.699E-03
:PTO005:      0    2   -1 -9.85016998E-02  1.310E-04  8.209E-05
:PTO006:      0    0   -2 -5.10333817E-02  6.371E-05 -9.760E-06
:PTO007:     -1    1   -1 -1.01898287E-01  2.513E-05 -7.759E-04
:PTO008:      0    2   -2 -1.48739006E-02  2.294E-05  5.445E-04
:PTO009:     -1    1   -2 -7.21648883E-02  6.123E-05 -1.727E-05
:PTO011:     -1    3    0 -1.03787977E-02  1.873E-06 -2.695E-04
:PTO012:     -1    3   -1 -4.37881330E-02  5.549E-05 -5.288E-04
:PTO013:      0    4    0 -7.60154312E-03  3.052E-05  1.696E-04
:PTO014:      0    2   -3  1.72011072E-02 -5.443E-05  1.557E-04

:ENE  : ********** TOTAL ENERGY IN Ry =       -36944.30390374

       TOTAL FORCE IN mRy/a.u. = |F|     Fx             Fy             Fz     with/without FOR in case.in2
:FOR001:   1.ATOM          1.360          0.000          0.000          1.360 partial forces
       TOTAL FORCE WITH RESPECT TO GLOBAL CARTESIAN COORDINATES:
:FCA001:   1.ATOM                         0.000          1.360          0.000 partial forces
       TOTAL FORCE WITH RESPECT TO THE GLOBAL COORDINATE SYSTEM:
:FGL001:   1.ATOM                 0.000000000     1.360265394     0.000000000 partial forces
 Flat Integration
 New Mode for Coulomb Integral
 Consistent 3/8+Simpson combinations
 Extension of core to zero
 LDM version in phi
 Fifth-order quadrature in outwin


            ---------
:ITE006:  6. ITERATION
            ---------

:NATO :    1 INDEPENDENT AND    2 TOTAL ATOMS IN UNITCELL
       SUBSTANCE: aU                                                          

       LATTICE                      = CXY 
:POT  : POTENTIAL OPTION EX_LDA EC_LDA VX_LDA VC_LDA
:LAT  : LATTICE CONSTANTS=  5.57334 11.30972  9.76391    1.571    1.571    1.571
:VOL  : UNIT CELL VOLUME =     307.72401
       MODE OF CALCULATION IS       = RELA
       NON-SPINPOLARIZED CALCULATION
:IFFT  : FFT-parameters:   48   90   80 Factor: 2.00


   CONVERGENCE PARAMETER FOR PSEUDOCHARGE: NCON=  9
   MAXIMAL VALUE OF RMT(JATOM)*ABSK(NKK) : RK  =27.58719


:VKCOUL :  VK-COUL convergence: 0.120E-06
       ATOMNUMBER=  1 Pr1        VCOUL-ZERO =  0.52280E+00
:EFG001:                        EFG         =    -3.76252   *10**21  V / m**2
                               V20  TOT/SRF=    -3.25843    -0.05331
                               V22  TOT/SRF=    -0.12448     0.01192
                               V22M TOT/SRF=     0.00000     0.00000
                               V21  TOT/SRF=     0.00000     0.00000
                               V21M TOT/SRF=     0.00000     0.00000

              1.75677    0.00000    0.00000        1.75677    0.00000    0.00000
              0.00000    2.00574    0.00000        0.00000    2.00574    0.00000
              0.00000    0.00000   -3.76252        0.00000    0.00000   -3.76252

         MAIN DIRECTIONS OF THE EFG   1.0000  0.0000  0.0000
                                      0.0000  1.0000  0.0000
                                      0.0000  0.0000  1.0000
:ANG001:  ANGLE WITH OLD X-AXIS =         0.0

:ETA001:                         ASYMM. ETA =     0.06617


     HELLMANN-FEYNMAN-FORCE IN mRy/a.u. = |F|  Fx       Fy             Fz
:FHF001:   1.ATOM    811.561752339459      0.000000000000      0.000000000000   -811.561752339459

:FIT001: LUSE= 13 SIGMA OF V-XC FIT FOR ATOM  1  0.3987209E-04
:FIT001: LUSE= 13 SIGMA OF V-XC FIT FOR ATOM  1  0.3987209E-04
:DEN  : DENSITY INTEGRAL  =        -14198.89754257   (Ry)
       ELS_POTENTIAL_AT Z=0 and Z=0.5:   0.95895   0.95895
       ELS_POTENTIAL_AT Y=0 and Y=0.5:   0.00442   0.00442
:VZERO:v0,v0c,v0x   0.24636   0.95895  -0.71259 v5,v5c,v5x   0.24636   0.95895  -0.71259
:VZERY:v0,v0c,v0x  -0.92675   0.00442  -0.93116 v5,v5c,v5x  -0.92675   0.00442  -0.93116
:VZERX:v0,v0c,v0x  -1.27137  -0.39538  -0.87599 v5,v5c,v5x  -1.27137  -0.39538  -0.87599
:LMAX-WF:   10   Non-Spherical LMAX:   4

          ATOMIC SPHERE DEPENDENT PARAMETERS FOR ATOM  Pr1       
:e__0001: OVERALL ENERGY PARAMETER IS    0.8607
          OVERALL BASIS SET ON ATOM IS LAPW
:E0_0001: E( 0)=    0.8607
             APW+lo
:E0_0001: E( 0)=   -1.5831   E(BOTTOM)=   -2.221   E(TOP)=   -0.946  4  5   222
             LOCAL ORBITAL
:E1_0001: E( 1)=    1.2607
             APW+lo
:E1_0001: E( 1)=   -0.1139   E(BOTTOM)=   -1.075   E(TOP)=    0.847  3  4   228
             LOCAL ORBITAL
:E3_0001: E( 3)=    1.0563   E(BOTTOM)=    0.851   E(TOP)=    1.262  0  1   121
             APW+lo
:E2_0001: E( 2)=    0.8607   E(BOTTOM)=    0.662   E(TOP)= -200.000  2 -1   119
             APW+lo

       K=   0.06250   0.00000   0.06250            1
:RKM  : MATRIX SIZE   303LOs:  40  RKM= 8.48  WEIGHT= 4.00  PGR:    
       EIGENVALUES ARE:
:EIG00001:      -1.6074417   -1.5443884   -0.4096932   -0.1912000   -0.1407393
:EIG00006:      -0.1190848   -0.1020955   -0.0971733    0.8794375    0.9104646
:EIG00011:       1.0224568    1.0283943    1.0300598    1.0378683    1.0508418
:EIG00016:       1.0745997    1.0818088    1.0844717    1.0902540    1.0942531
:EIG00021:       1.1058282    1.1067991    1.1072470    1.1254582    1.1480533
:EIG00026:       1.1778512    1.2732717    1.2752232    1.3528028    1.3920234
:EIG00031:       1.4305978    1.6069753    1.6128336    1.6933973    1.9976244
:EIG00036:       2.0465992    2.0811252    2.2646326    2.3197426    2.4094785
       ********************************************************

:KPT   :      NUMBER OF K-POINTS:   288
:GAP (global)   :    0.0    Ry =     0.0   eV (metal)
         Bandranges (emin - emax) and occupancy:
:BAN00005:   5   -0.330809   -0.140739  2.00000000
:BAN00006:   6   -0.300331   -0.106916  2.00000000
:BAN00007:   7   -0.251614   -0.098626  2.00000000
:BAN00008:   8   -0.157225   -0.085827  2.00000000
:BAN00009:   9    0.834811    0.989003  2.00000000
:BAN00010:  10    0.881708    1.005694  2.00000000
:BAN00011:  11    0.916598    1.045619  2.00000000
:BAN00012:  12    0.981365    1.051757  1.97605067
:BAN00013:  13    1.000052    1.067547  1.32244012
:BAN00014:  14    1.026672    1.080540  0.69602742
:BAN00015:  15    1.044487    1.083111  0.00548179
:BAN00016:  16    1.054171    1.086183  0.00000000
:BAN00017:  17    1.070893    1.093973  0.00000000
:BAN00018:  18    1.077609    1.096132  0.00000000
:BAN00019:  19    1.086368    1.104547  0.00000000
:BAN00020:  20    1.088750    1.107224  0.00000000
        Energy to separate low and high energystates:    0.78481


:NOE  : NUMBER OF ELECTRONS          =   26.000

:FER  : F E R M I - ENERGY(TETRAH.M.)=   1.0469367959
:GMA  : POTENTIAL AND CHARGE CUT-OFF  12.00 Ry**.5

:POS001: ATOM   -1 X,Y,Z = 0.00000 0.89750 0.25000  MULT= 2  ZZ= 59.000  Pr1       

       LMMAX 16
       LM=   0 0  1 0  2 0  2 2  3 0  3 2  4 0  4 2  4 4  5 0  5 2  5 4  6 0  6 2  6 4  6 6

:CHA001: TOTAL VALENCE CHARGE INSIDE SPHERE   1 =   9.7637    (RMT=  2.3000 )
:PCS001: PARTIAL CHARGES SPHERE =  1 S,P,D,F,PX,PY,PZ,D-Z2,D-X2Y2,D-XY,D-XZ,D-YZ 
:QTL001: 1.9353 4.9747 0.8011 2.0504 1.6574 1.6536 1.6638 0.1557 0.1434 0.1636 0.1669 0.1715
        Q-s-low E-s-low   Q-p-low E-p-low   Q-d-low E-d-low   Q-f-low E-f-low
:EPL001:  1.8689 -1.5400    4.8930 -0.2309    0.0155 -0.2770    0.0049 -0.2842
        Q-s-hi  E-s-hi    Q-p-hi  E-p-hi    Q-d-hi  E-d-hi    Q-f-hi  E-f-hi 
:EPH001:  0.0663  0.9597    0.0817  0.9817    0.7857  0.9613    2.0455  1.0157

                      VXX         VYY         VZZ       UP TO R
:VZZ001:             0.21817     8.43283    -8.65100       2.300

:CHA  : TOTAL VALENCE CHARGE INSIDE UNIT CELL =      26.000000

:SUM  : SUM OF EIGENVALUES =           0.834731312


        1.ATOM      Pr1                  14 CORE STATES
       CORE-FORCE in mRy/a.u. = |F|      Fx             Fy             Fz
:FCO001:   1.ATOM    808.403722535065      0.000000000000      0.000000000000    808.403722535065

:1S 001: 1S               -3066.544374468 Ry
:2S 001: 2S                -492.303931133 Ry
:2PP001: 2P*               -465.402088157 Ry
:2P 001: 2P                -430.005021361 Ry
:3S 001: 3S                -105.399638158 Ry
:3PP001: 3P*                -93.937266558 Ry
:3P 001: 3P                 -86.929493200 Ry
:3DD001: 3D*                -66.856142497 Ry
:3D 001: 3D                 -65.344635273 Ry
:4S 001: 4S                 -20.064018614 Ry
:4PP001: 4P*                -15.769654962 Ry
:4P 001: 4P                 -14.240566857 Ry
:4DD001: 4D*                 -7.170514431 Ry
:4D 001: 4D                  -6.900548451 Ry
:CINT001 Core Integral Atom   1   45.998499

       DENSITY AT NUCLEUS
        JATOM        VALENCE       SEMI-CORE          CORE           TOTAL
:RTO001:   1      645.135205        0.000000   656826.185003   657471.320207
     
       CHARGES OF NEW CHARGE DENSITY
:NTO   : INTERSTITIAL CHARGE =     6.472546
:NPC   : PW Pseudocharge     =    17.502794
:NTO001: CHARGE SPHERE  1    =    55.762225

:NEC01: NUCLEAR AND ELECTRONIC CHARGE    118.00000   117.99700
     
       CHARGES OF OLD CHARGE DENSITY
:OTO   : INTERSTITIAL CHARGE =     6.556921
:OPC   : PW Pseudocharge     =    17.445764
:OTO001: CHARGE SPHERE  1    =    55.721539

:NEC02: NUCLEAR AND ELECTRONIC CHARGE    118.00000   118.00000
     
       CONVERGENCE TEST
:DTO001: DIFFERENCE IN SPHERE  1 =  0.0772298

:DIS  :  CHARGE DISTANCE       ( 0.0772298 for atom    1 spin 1)      0.0772298
 PW Mixed is          332
 
******************************************************
* MULTISECANT MIXING VER9 RELEASE 10.4.0              *
* Standard Mode with controls                        *
* Fixed density scale                                *
* Regularization       1.000E-04                     *
* Trust Upper Limit    5.000E+00                     *
* Max Number of Memory Steps    8                    *
******************************************************
 
:PWTMP   2.0579E+02  1.9467E+02  3.0772E+02
:PLANE:  PW TOTAL      5.9174 DISTAN   7.18E-02  1.21E+00 %
:CHARG:  CLM/ATOM   1382.0002 DISTAN   2.71E-01  1.96E-02 %
 
Step History
        DMIX         DMIXT        Red     Pred      Trust     Lambda    MagRel    MagAbs     Beta
  1   3.5000E-02   3.5000E-02 -1.00E+00  1.00E+00 -1.00E+01  1.00E+00  3.50E-02  3.50E-02  1.00E+00
  2   2.5000E-02   2.5000E-02  7.91E-01  1.00E+00 -1.00E+01  1.00E+00  2.50E-02  4.54E-02  1.00E+00
  3   4.5159E-02   4.5159E-02  9.03E-01  1.00E+00 -1.00E+01  1.22E+00  4.52E-02  6.49E-02  1.00E+00
  4   3.5002E-02   3.5002E-02  8.87E-01  5.80E-01  2.77E-01  1.87E+00  2.91E-02  3.77E-02  1.00E+00
  5   8.7504E-02   8.7504E-02  2.92E-01  3.11E-01  2.57E-01  2.80E+00  2.48E-01  2.86E-01  1.00E+00
  6   3.5002E-02   3.5002E-02 -1.00E+00  8.92E-01  8.55E-01  1.00E+00  5.45E-02  1.83E-02  9.39E-01
:JACOBIANS    9.655E-01   3.609E-01
  
:NORMS:  1/Froebius, Min, Max, Used   0.2377E+00  0.1760E+00  0.9957E+00  0.3007E+00
:INFO :  Number of Memory Steps    5 Skipping    0
:INFO :  SLambda=    1.0509182418  Max    1.0509182418
:PREDicted Charge, CTotal, PW Trust    4.823E-03   9.646E-03   3.573E-02
:PREDicted DMix, Beta, BLim   4.3748E-01  3.0037E+00  5.0852E-01

Eigenvalues, unscaled except for SY+YY
   #     SY Real        SY Imag          SS             YY         SY+YY Real      SY+YY Imag
   1   5.436078E-01   0.000000E+00   1.499878E-01   4.843824E+00   5.413410E+00   0.000000E+00
   2   1.322081E-01   0.000000E+00   1.268475E-01   1.339294E-01   2.728354E-01   0.000000E+00
   3   9.931815E-03   0.000000E+00   5.703187E-03   2.218711E-02   3.435931E-02   0.000000E+00
   4   2.938434E-16   0.000000E+00   2.828147E-07   5.468025E-05   5.055191E-06   0.000000E+00
   5   4.215715E-06   0.000000E+00   1.623794E-17   4.362218E-06   5.969026E-05   0.000000E+00
 
:INFO :  Singular value  5.414E+00 Weight  1.000E+00 Projection  2.373E-04
:INFO :  Singular value  2.728E-01 Weight  1.000E+00 Projection -2.890E-02
:INFO :  Singular value  3.436E-02 Weight  9.998E-01 Projection -1.669E+00
:INFO :  Singular value  5.972E-05 Weight  1.497E-02 Projection -2.579E-01
:INFO :  Singular value  5.053E-06 Weight  1.088E-04 Projection -4.531E-03
:RANK :  ACTIVE   3.01/5  =  60.30 % ; YY RANK   3.01/5  =  60.24 %
 
:BLIM :  VZERO Control Off
:TRUST:  Step 1.02E+00  Charge 8.25E-02 (e) CTO  2.50E-01 (e) PW  3.93E-01 (e)
:DIRM :  MEMORY  5/8  SCALE   1.000 RED  0.84 PRED  0.89 NEXT  0.79 
:TRAVE:  Charge 1.43E-02 (e) CTO  2.87E-02 (e) PW  4.00E-02 (e)
:DIRP :  |MSR1|= 4.963E-02 |PRATT|= 7.177E-02 ANGLE=  21.8 DEGREES
:DIRQ :  |MSR1|= 1.819E-01 |PRATT|= 2.712E-01 ANGLE=  17.6 DEGREES
:DIRT :  |MSR1|= 1.886E-01 |PRATT|= 2.806E-01 ANGLE=  17.9 DEGREES
:MIX  :   MSE1   REGULARIZATION:  4.84E-04 GREED: 0.08750  Newton 1.00  0.6722                
     
       CHARGES OF MIXED CHARGE DENSITY
:CTO   : INTERSTITIAL CHARGE =     6.558913
:CPC   : PW Pseudocharge     =    17.526600
:CTO001: CHARGE SPHERE  1    =    55.720544

:NEC03: NUCLEAR AND ELECTRONIC CHARGE    118.00000   118.00000

PW CHANGE     H    K    L      Current       Change    Residue
:PTO001:      0    0    0  7.82698535E-02  2.692E-04 -5.270E-05
:PTO003:      0    2    0  1.85378723E-02  2.996E-04  3.729E-04
:PTO004:     -1    1    0  8.63643876E-02  1.115E-03  1.706E-03
:PTO005:      0    2   -1 -9.87803868E-02 -2.787E-04 -4.738E-05
:PTO006:      0    0   -2 -5.11910531E-02 -1.577E-04 -6.170E-05
:PTO007:     -1    1   -1 -1.02209762E-01 -3.115E-04 -7.280E-04
:PTO008:      0    2   -2 -1.45641712E-02  3.097E-04  5.038E-04
:PTO009:     -1    1   -2 -7.21216449E-02  4.324E-05 -2.303E-05
:PTO011:     -1    3    0 -1.05464735E-02 -1.677E-04 -2.971E-04
:PTO012:     -1    3   -1 -4.41060515E-02 -3.179E-04 -5.743E-04
:PTO013:      0    4    0 -7.57490412E-03  2.664E-05  1.328E-04
:PTO014:      0    2   -3  1.74522585E-02  2.512E-04  2.489E-04

:ENE  : ********** TOTAL ENERGY IN Ry =       -36944.30281091

       TOTAL FORCE IN mRy/a.u. = |F|     Fx             Fy             Fz     with/without FOR in case.in2
:FOR001:   1.ATOM          3.158          0.000          0.000         -3.158 partial forces
       TOTAL FORCE WITH RESPECT TO GLOBAL CARTESIAN COORDINATES:
:FCA001:   1.ATOM                         0.000         -3.158          0.000 partial forces
       TOTAL FORCE WITH RESPECT TO THE GLOBAL COORDINATE SYSTEM:
:FGL001:   1.ATOM                 0.000000000    -3.158029804     0.000000000 partial forces
 Flat Integration
 New Mode for Coulomb Integral
 Consistent 3/8+Simpson combinations
 Extension of core to zero
 LDM version in phi
 Fifth-order quadrature in outwin


            ---------
:ITE007:  7. ITERATION
            ---------

:NATO :    1 INDEPENDENT AND    2 TOTAL ATOMS IN UNITCELL
       SUBSTANCE: aU                                                          

       LATTICE                      = CXY 
:POT  : POTENTIAL OPTION EX_LDA EC_LDA VX_LDA VC_LDA
:LAT  : LATTICE CONSTANTS=  5.57334 11.30972  9.76391    1.571    1.571    1.571
:VOL  : UNIT CELL VOLUME =     307.72401
       MODE OF CALCULATION IS       = RELA
       NON-SPINPOLARIZED CALCULATION
:IFFT  : FFT-parameters:   48   90   80 Factor: 2.00


   CONVERGENCE PARAMETER FOR PSEUDOCHARGE: NCON=  9
   MAXIMAL VALUE OF RMT(JATOM)*ABSK(NKK) : RK  =27.58719


:VKCOUL :  VK-COUL convergence: 0.164E-06
       ATOMNUMBER=  1 Pr1        VCOUL-ZERO =  0.52597E+00
:EFG001:                        EFG         =    -7.10388   *10**21  V / m**2
                               V20  TOT/SRF=    -6.15214    -0.05351
                               V22  TOT/SRF=    -2.11550    -0.00869
                               V22M TOT/SRF=     0.00000     0.00000
                               V21  TOT/SRF=     0.00000     0.00000
                               V21M TOT/SRF=     0.00000     0.00000

              1.43644    0.00000    0.00000        1.43644    0.00000    0.00000
              0.00000    5.66744    0.00000        0.00000    5.66744    0.00000
              0.00000    0.00000   -7.10388        0.00000    0.00000   -7.10388

         MAIN DIRECTIONS OF THE EFG   1.0000  0.0000  0.0000
                                      0.0000  1.0000  0.0000
                                      0.0000  0.0000  1.0000
:ANG001:  ANGLE WITH OLD X-AXIS =         0.0

:ETA001:                         ASYMM. ETA =     0.59559


     HELLMANN-FEYNMAN-FORCE IN mRy/a.u. = |F|  Fx       Fy             Fz
:FHF001:   1.ATOM   1203.019225118353      0.000000000000      0.000000000000  -1203.019225118353

:FIT001: LUSE= 13 SIGMA OF V-XC FIT FOR ATOM  1  0.6456429E-04
:FIT001: LUSE= 13 SIGMA OF V-XC FIT FOR ATOM  1  0.6456429E-04
:DEN  : DENSITY INTEGRAL  =        -14197.81955049   (Ry)
       ELS_POTENTIAL_AT Z=0 and Z=0.5:   0.96268   0.96268
       ELS_POTENTIAL_AT Y=0 and Y=0.5:   0.01277   0.01277
:VZERO:v0,v0c,v0x   0.25038   0.96268  -0.71230 v5,v5c,v5x   0.25038   0.96268  -0.71230
:VZERY:v0,v0c,v0x  -0.92018   0.01277  -0.93294 v5,v5c,v5x  -0.92018   0.01277  -0.93294
:VZERX:v0,v0c,v0x  -1.27207  -0.39592  -0.87615 v5,v5c,v5x  -1.27207  -0.39592  -0.87615
:LMAX-WF:   10   Non-Spherical LMAX:   4

          ATOMIC SPHERE DEPENDENT PARAMETERS FOR ATOM  Pr1       
:e__0001: OVERALL ENERGY PARAMETER IS    0.8515
          OVERALL BASIS SET ON ATOM IS LAPW
:E0_0001: E( 0)=    0.8515
             APW+lo
:E0_0001: E( 0)=   -1.5892   E(BOTTOM)=   -2.225   E(TOP)=   -0.953  4  5   222
             LOCAL ORBITAL
:E1_0001: E( 1)=    1.2515
             APW+lo
:E1_0001: E( 1)=   -0.1190   E(BOTTOM)=   -1.078   E(TOP)=    0.840  3  4   227
             LOCAL ORBITAL
:E3_0001: E( 3)=    1.0463   E(BOTTOM)=    0.842   E(TOP)=    1.251  0  1   116
             APW+lo
:E2_0001: E( 2)=    0.8515   E(BOTTOM)=    0.660   E(TOP)= -200.000  2 -1   123
             APW+lo

       K=   0.06250   0.00000   0.06250            1
:RKM  : MATRIX SIZE   303LOs:  40  RKM= 8.48  WEIGHT= 4.00  PGR:    
       EIGENVALUES ARE:
:EIG00001:      -1.6125225   -1.5504487   -0.4084582   -0.1963210   -0.1461783
:EIG00006:      -0.1253617   -0.1040156   -0.1038383    0.8788174    0.9105136
:EIG00011:       1.0153105    1.0190425    1.0225665    1.0320197    1.0453251
:EIG00016:       1.0652521    1.0725399    1.0749041    1.0818239    1.0843361
:EIG00021:       1.0941124    1.0946849    1.0992586    1.1169784    1.1407793
:EIG00026:       1.1729235    1.2730132    1.2738722    1.3501190    1.3889830
:EIG00031:       1.4291540    1.6051196    1.6121198    1.6933277    1.9950829
:EIG00036:       2.0440682    2.0795381    2.2643192    2.3178180    2.4107536
       ********************************************************

:KPT   :      NUMBER OF K-POINTS:   288
:GAP (global)   :    0.0    Ry =     0.0   eV (metal)
         Bandranges (emin - emax) and occupancy:
:BAN00005:   5   -0.331108   -0.146178  2.00000000
:BAN00006:   6   -0.303752   -0.113290  2.00000000
:BAN00007:   7   -0.257271   -0.104016  2.00000000
:BAN00008:   8   -0.160316   -0.092731  2.00000000
:BAN00009:   9    0.834929    0.987351  2.00000000
:BAN00010:  10    0.880898    1.002115  2.00000000
:BAN00011:  11    0.915241    1.038991  1.99999296
:BAN00012:  12    0.978669    1.045155  1.96052729
:BAN00013:  13    0.993653    1.059094  1.28475851
:BAN00014:  14    1.019728    1.068824  0.74620429
:BAN00015:  15    1.036654    1.071719  0.00851694
:BAN00016:  16    1.045255    1.076908  0.00000000
:BAN00017:  17    1.063115    1.085090  0.00000000
:BAN00018:  18    1.067511    1.087630  0.00000000
:BAN00019:  19    1.075395    1.093983  0.00000000
:BAN00020:  20    1.076993    1.096299  0.00000000
        Energy to separate low and high energystates:    0.78493


:NOE  : NUMBER OF ELECTRONS          =   26.000

:FER  : F E R M I - ENERGY(TETRAH.M.)=   1.0387717627
:GMA  : POTENTIAL AND CHARGE CUT-OFF  12.00 Ry**.5

:POS001: ATOM   -1 X,Y,Z = 0.00000 0.89750 0.25000  MULT= 2  ZZ= 59.000  Pr1       

       LMMAX 16
       LM=   0 0  1 0  2 0  2 2  3 0  3 2  4 0  4 2  4 4  5 0  5 2  5 4  6 0  6 2  6 4  6 6

:CHA001: TOTAL VALENCE CHARGE INSIDE SPHERE   1 =   9.8242    (RMT=  2.3000 )
:PCS001: PARTIAL CHARGES SPHERE =  1 S,P,D,F,PX,PY,PZ,D-Z2,D-X2Y2,D-XY,D-XZ,D-YZ 
:QTL001: 1.9340 4.9763 0.7721 2.1397 1.6581 1.6540 1.6643 0.1501 0.1346 0.1605 0.1593 0.1677
        Q-s-low E-s-low   Q-p-low E-p-low   Q-d-low E-d-low   Q-f-low E-f-low
:EPL001:  1.8696 -1.5458    4.8988 -0.2346    0.0152 -0.2775    0.0048 -0.2849
        Q-s-hi  E-s-hi    Q-p-hi  E-p-hi    Q-d-hi  E-d-hi    Q-f-hi  E-f-hi 
:EPH001:  0.0644  0.9566    0.0775  0.9774    0.7569  0.9576    2.1349  1.0093

                      VXX         VYY         VZZ       UP TO R
:VZZ001:             3.33285     7.39802   -10.73087       2.300

:CHA  : TOTAL VALENCE CHARGE INSIDE UNIT CELL =      26.000000

:SUM  : SUM OF EIGENVALUES =           0.729462941


        1.ATOM      Pr1                  14 CORE STATES
       CORE-FORCE in mRy/a.u. = |F|      Fx             Fy             Fz
:FCO001:   1.ATOM   1270.587845279818      0.000000000000      0.000000000000   1270.587845279818

:1S 001: 1S               -3066.556319031 Ry
:2S 001: 2S                -492.311695417 Ry
:2PP001: 2P*               -465.410041685 Ry
:2P 001: 2P                -430.012844211 Ry
[...]
:OTO   : INTERSTITIAL CHARGE =     6.504341
:OPC   : PW Pseudocharge     =    17.514187
:OTO001: CHARGE SPHERE  1    =    55.747830

:NEC02: NUCLEAR AND ELECTRONIC CHARGE    118.00000   118.00000
     
       CONVERGENCE TEST
:DTO001: DIFFERENCE IN SPHERE  1 =  0.0003030

:DIS  :  CHARGE DISTANCE       ( 0.0003030 for atom    1 spin 1)      0.0003030
 PW Mixed is          332
 
******************************************************
* MULTISECANT MIXING VER9 RELEASE 10.4.0              *
* Standard Mode with controls                        *
* Fixed density scale                                *
* Regularization       1.000E-04                     *
* Trust Upper Limit    5.000E+00                     *
* Max Number of Memory Steps    8                    *
******************************************************
 
:PWTMP   2.0579E+02  1.9467E+02  3.0772E+02
:PLANE:  PW TOTAL      5.9408 DISTAN   1.71E-04  2.89E-03 %
:CHARG:  CLM/ATOM   1381.9511 DISTAN   6.87E-04  4.97E-05 %
 
Step History
        DMIX         DMIXT        Red     Pred      Trust     Lambda    MagRel    MagAbs     Beta
  6   3.5002E-02   3.5002E-02  8.35E-01  8.92E-01  8.55E-01  1.05E+00  5.45E-02  1.83E-02  9.39E-01
  7   8.7504E-02   8.7504E-02  9.35E-01  7.85E-01  1.02E+00  1.58E+00  6.72E-01  1.89E-01  1.00E+00
  8   5.6155E-02   5.6155E-02  4.91E-01  6.04E-01  1.10E+00  3.15E-01  1.21E-01  3.17E-02  9.24E-01
  9   1.4039E-01   1.4039E-01  4.65E-01  5.80E-01  1.46E+00  1.00E+00  5.75E-01  7.40E-02  1.00E+00
 10   2.1508E-01   2.1508E-01  6.54E-01  3.09E-01  1.95E+00  1.50E+00  4.63E-01  2.77E-02  1.00E+00
 11   2.9640E-01   2.9640E-01  3.93E-01  1.49E-01  2.60E+00  1.95E+00  2.80E-01  1.10E-02  1.00E+00
 12   2.0525E-01   2.0525E-01  6.43E-01  1.89E-01  3.46E+00  1.89E+00  1.78E-01  2.74E-03  1.00E+00
 13   3.1389E-01   3.1389E-01  1.55E-01  3.60E-01  4.61E+00  1.83E+00  4.29E-01  4.25E-03  1.00E+00
 14   2.8642E-01   2.8642E-01 -1.00E+00  5.87E-01  6.15E+00  1.00E+00  3.67E-01  5.63E-04  9.43E-01
:JACOBIANS    7.839E-01   2.969E+00
  
:NORMS:  1/Froebius, Min, Max, Used   0.5947E+00  0.5376E+00  0.9810E+00  0.7092E+00
:INFO :  Number of Memory Steps    8 Skipping    5
:INFO :  SLambda=    1.8297967688  Max    1.8297967688
:PREDicted Charge, CTotal, PW Trust    1.556E-04   3.112E-04   5.025E-04
:PREDicted DMix, Beta, BLim   5.3256E-01  1.4576E+00  1.5354E+00

Eigenvalues, unscaled except for SY+YY
   #     SY Real        SY Imag          SS             YY         SY+YY Real      SY+YY Imag
   1   1.969018E+00   0.000000E+00   1.937696E+00   3.852389E+00   5.682948E+00   0.000000E+00
   2   8.539164E-01   0.000000E+00   3.964053E-01   2.148327E+00   5.423467E+00   0.000000E+00
   3   6.437427E-01   0.000000E+00   3.424767E-01   1.512808E+00   2.684340E+00   0.000000E+00
   4   2.006511E-01   0.000000E+00   1.324008E-01   3.281718E-01   7.085778E-01   0.000000E+00
   5   4.901413E-02   0.000000E+00   1.575967E-02   1.270082E-01   2.650671E-01   0.000000E+00
   6   1.281052E-02   0.000000E+00   4.316302E-03   2.658751E-02   5.448328E-02   0.000000E+00
   7   1.507581E-04   0.000000E+00   2.866559E-04   4.421541E-03   5.648859E-04   0.000000E+00
   8   1.125212E-03   0.000000E+00   9.118995E-05   2.867151E-04   6.479054E-03   0.000000E+00
 
:INFO :  Singular value  5.733E+00 Weight  1.000E+00 Projection  1.533E-04
:INFO :  Singular value  5.406E+00 Weight  1.000E+00 Projection  2.105E-04
:INFO :  Singular value  2.675E+00 Weight  1.000E+00 Projection -5.610E-05
:INFO :  Singular value  7.089E-01 Weight  1.000E+00 Projection -4.258E-04
:INFO :  Singular value  2.645E-01 Weight  1.000E+00 Projection -7.394E-04
:INFO :  Singular value  5.449E-02 Weight  1.000E+00 Projection  1.940E-03
:INFO :  Singular value  6.477E-03 Weight  9.965E-01 Projection  7.737E-04
:INFO :  Singular value  5.648E-04 Weight  6.825E-01 Projection  1.100E-02
:RANK :  ACTIVE   7.68/8  =  95.99 % ; YY RANK   7.35/8  =  91.86 %
 
:BLIM :  VZERO Control Off
:TRUST:  Step 8.20E+00  Charge 1.73E-02 (e) CTO  4.19E-02 (e) PW  6.60E-02 (e)
:DIRM :  MEMORY  8/8  SCALE   1.000 RED  0.46 PRED  0.59 NEXT  0.40 
:TRAVE:  Charge 3.49E-04 (e) CTO  6.98E-04 (e) PW  7.20E-04 (e)
:DIRP :  |MSR1|= 1.520E-04 |PRATT|= 1.715E-04 ANGLE=  22.0 DEGREES
:DIRQ :  |MSR1|= 4.578E-04 |PRATT|= 6.869E-04 ANGLE=  21.8 DEGREES
:DIRT :  |MSR1|= 4.823E-04 |PRATT|= 7.079E-04 ANGLE=  22.2 DEGREES
:MIX  :   MSE1   REGULARIZATION:  3.85E-04 GREED: 0.33022  Newton 1.00  0.6813                
     
       CHARGES OF MIXED CHARGE DENSITY
:CTO   : INTERSTITIAL CHARGE =     6.504408
:CPC   : PW Pseudocharge     =    17.513881
:CTO001: CHARGE SPHERE  1    =    55.747796

:NEC03: NUCLEAR AND ELECTRONIC CHARGE    118.00000   118.00000

PW CHANGE     H    K    L      Current       Change    Residue
:PTO001:      0    0    0  7.80513964E-02 -7.779E-07 -7.291E-08
:PTO003:      0    2    0  1.83085583E-02  1.227E-08  6.990E-07
:PTO004:     -1    1    0  8.63900981E-02 -1.612E-06 -1.307E-06
:PTO005:      0    2   -1 -9.87467406E-02  3.546E-06  3.243E-06
:PTO006:      0    0   -2 -5.12141257E-02  1.030E-06  1.102E-06
:PTO007:     -1    1   -1 -1.02733576E-01  1.982E-06  1.683E-06
:PTO008:      0    2   -2 -1.44225727E-02 -6.799E-07 -1.110E-06
:PTO009:     -1    1   -2 -7.23327500E-02 -4.564E-07 -8.062E-07
:PTO011:     -1    3    0 -1.08234017E-02  8.039E-07  9.473E-07
:PTO012:     -1    3   -1 -4.42859829E-02 -4.610E-07 -1.491E-06
:PTO013:      0    4    0 -7.51129396E-03  4.973E-07  4.165E-07
:PTO014:      0    2   -3  1.74785047E-02  2.278E-07  6.068E-07

:ENE  : ********** TOTAL ENERGY IN Ry =       -36944.30180096

       TOTAL FORCE IN mRy/a.u. = |F|     Fx             Fy             Fz     with/without FOR in case.in2
:FOR001:   1.ATOM          1.322          0.000          0.000          1.322 partial forces
       TOTAL FORCE WITH RESPECT TO GLOBAL CARTESIAN COORDINATES:
:FCA001:   1.ATOM                         0.000          1.322          0.000 partial forces
       TOTAL FORCE WITH RESPECT TO THE GLOBAL COORDINATE SYSTEM:
:FGL001:   1.ATOM                 0.000000000     1.322487550     0.000000000 partial forces
 Flat Integration
 New Mode for Coulomb Integral
 Consistent 3/8+Simpson combinations
 Extension of core to zero
 LDM version in phi
 Fifth-order quadrature in outwin


            ---------
:ITE015: 15. ITERATION
            ---------

:NATO :    1 INDEPENDENT AND    2 TOTAL ATOMS IN UNITCELL
       SUBSTANCE: aU                                                          

       LATTICE                      = CXY 
:POT  : POTENTIAL OPTION EX_LDA EC_LDA VX_LDA VC_LDA
:LAT  : LATTICE CONSTANTS=  5.57334 11.30972  9.76391    1.571    1.571    1.571
:VOL  : UNIT CELL VOLUME =     307.72401
       MODE OF CALCULATION IS       = RELA
       NON-SPINPOLARIZED CALCULATION
:IFFT  : FFT-parameters:   48   90   80 Factor: 2.00


   CONVERGENCE PARAMETER FOR PSEUDOCHARGE: NCON=  9
   MAXIMAL VALUE OF RMT(JATOM)*ABSK(NKK) : RK  =27.58719


:VKCOUL :  VK-COUL convergence: 0.208E-06
       ATOMNUMBER=  1 Pr1        VCOUL-ZERO =  0.52389E+00
:EFG001:                        EFG         =    -9.44913   *10**21  V / m**2
                               V20  TOT/SRF=    -8.18319    -0.06155
                               V22  TOT/SRF=    -3.59283    -0.01122
                               V22M TOT/SRF=     0.00000     0.00000
                               V21  TOT/SRF=     0.00000     0.00000
                               V21M TOT/SRF=     0.00000     0.00000

              1.13173    0.00000    0.00000        1.13173    0.00000    0.00000
              0.00000    8.31740    0.00000        0.00000    8.31740    0.00000
              0.00000    0.00000   -9.44913        0.00000    0.00000   -9.44913

         MAIN DIRECTIONS OF THE EFG   1.0000  0.0000  0.0000
                                      0.0000  1.0000  0.0000
                                      0.0000  0.0000  1.0000
:ANG001:  ANGLE WITH OLD X-AXIS =         0.0

:ETA001:                         ASYMM. ETA =     0.76046


     HELLMANN-FEYNMAN-FORCE IN mRy/a.u. = |F|  Fx       Fy             Fz
:FHF001:   1.ATOM   1640.084532505029      0.000000000000      0.000000000000  -1640.084532505029

:FIT001: LUSE= 13 SIGMA OF V-XC FIT FOR ATOM  1  0.6726010E-04
:FIT001: LUSE= 13 SIGMA OF V-XC FIT FOR ATOM  1  0.6726010E-04
:DEN  : DENSITY INTEGRAL  =        -14199.21117640   (Ry)
       ELS_POTENTIAL_AT Z=0 and Z=0.5:   0.95677   0.95677
       ELS_POTENTIAL_AT Y=0 and Y=0.5:   0.01001   0.01001
:VZERO:v0,v0c,v0x   0.24682   0.95677  -0.70995 v5,v5c,v5x   0.24682   0.95677  -0.70995
:VZERY:v0,v0c,v0x  -0.92132   0.01001  -0.93134 v5,v5c,v5x  -0.92132   0.01001  -0.93134
:VZERX:v0,v0c,v0x  -1.26941  -0.39565  -0.87376 v5,v5c,v5x  -1.26941  -0.39565  -0.87376
:LMAX-WF:   10   Non-Spherical LMAX:   4

          ATOMIC SPHERE DEPENDENT PARAMETERS FOR ATOM  Pr1       
:e__0001: OVERALL ENERGY PARAMETER IS    0.8472
          OVERALL BASIS SET ON ATOM IS LAPW
:E0_0001: E( 0)=    0.8472
             APW+lo
:E0_0001: E( 0)=   -1.5829   E(BOTTOM)=   -2.220   E(TOP)=   -0.945  4  5   227
             LOCAL ORBITAL
:E1_0001: E( 1)=    1.2472
             APW+lo
:E1_0001: E( 1)=   -0.1136   E(BOTTOM)=   -1.075   E(TOP)=    0.847  3  4   230
             LOCAL ORBITAL
:E3_0001: E( 3)=    1.0568   E(BOTTOM)=    0.851   E(TOP)=    1.263  0  1   119
             APW+lo
:E2_0001: E( 2)=    0.8472   E(BOTTOM)=    0.662   E(TOP)= -200.000  2 -1   120
             APW+lo

       K=   0.06250   0.00000   0.06250            1
:RKM  : MATRIX SIZE   303LOs:  40  RKM= 8.48  WEIGHT= 4.00  PGR:    
       EIGENVALUES ARE:
:EIG00001:      -1.6071712   -1.5444788   -0.4068685   -0.1907485   -0.1404875
:EIG00006:      -0.1211949   -0.1002451   -0.0995221    0.8778713    0.9105627
:EIG00011:       1.0228130    1.0288411    1.0305072    1.0384912    1.0526515
:EIG00016:       1.0743924    1.0826266    1.0846386    1.0905020    1.0946410
:EIG00021:       1.1051890    1.1054934    1.1067309    1.1270998    1.1469651
:EIG00026:       1.1756786    1.2748089    1.2751575    1.3517262    1.3909769
:EIG00031:       1.4296770    1.6063977    1.6120907    1.6950238    1.9951332
:EIG00036:       2.0438233    2.0795906    2.2649550    2.3165911    2.4095418
       ********************************************************

:KPT   :      NUMBER OF K-POINTS:   288
:GAP (global)   :    0.0    Ry =     0.0   eV (metal)
         Bandranges (emin - emax) and occupancy:
:BAN00005:   5   -0.328362   -0.140488  2.00000000
:BAN00006:   6   -0.299943   -0.109020  2.00000000
:BAN00007:   7   -0.253264   -0.100245  2.00000000
:BAN00008:   8   -0.156576   -0.088149  2.00000000
:BAN00009:   9    0.833003    0.990069  2.00000000
:BAN00010:  10    0.880098    1.006484  2.00000000
:BAN00011:  11    0.914991    1.046539  2.00000000
:BAN00012:  12    0.980259    1.052434  1.97081622
:BAN00013:  13    0.998694    1.068738  1.30791207
:BAN00014:  14    1.026825    1.079900  0.71552495
:BAN00015:  15    1.044722    1.083404  0.00574676
:BAN00016:  16    1.054272    1.086394  0.00000000
:BAN00017:  17    1.072803    1.094763  0.00000000
:BAN00018:  18    1.077689    1.096494  0.00000000
:BAN00019:  19    1.086045    1.104682  0.00000000
:BAN00020:  20    1.088339    1.106927  0.00000000
        Energy to separate low and high energystates:    0.78300


:NOE  : NUMBER OF ELECTRONS          =   26.000

:FER  : F E R M I - ENERGY(TETRAH.M.)=   1.0471515436
:GMA  : POTENTIAL AND CHARGE CUT-OFF  12.00 Ry**.5

:POS001: ATOM   -1 X,Y,Z = 0.00000 0.89750 0.25000  MULT= 2  ZZ= 59.000  Pr1       

       LMMAX 16
       LM=   0 0  1 0  2 0  2 2  3 0  3 2  4 0  4 2  4 4  5 0  5 2  5 4  6 0  6 2  6 4  6 6

:CHA001: TOTAL VALENCE CHARGE INSIDE SPHERE   1 =   9.7493    (RMT=  2.3000 )
:PCS001: PARTIAL CHARGES SPHERE =  1 S,P,D,F,PX,PY,PZ,D-Z2,D-X2Y2,D-XY,D-XZ,D-YZ 
:QTL001: 1.9358 4.9754 0.8035 2.0324 1.6578 1.6534 1.6642 0.1562 0.1428 0.1654 0.1658 0.1733
        Q-s-low E-s-low   Q-p-low E-p-low   Q-d-low E-d-low   Q-f-low E-f-low
:EPL001:  1.8689 -1.5398    4.8920 -0.2308    0.0154 -0.2751    0.0049 -0.2818
        Q-s-hi  E-s-hi    Q-p-hi  E-p-hi    Q-d-hi  E-d-hi    Q-f-hi  E-f-hi 
:EPH001:  0.0670  0.9592    0.0835  0.9816    0.7880  0.9611    2.0276  1.0159

                      VXX         VYY         VZZ       UP TO R
:VZZ001:             1.09683     8.27944    -9.37627       2.300

:CHA  : TOTAL VALENCE CHARGE INSIDE UNIT CELL =      26.000000

:SUM  : SUM OF EIGENVALUES =           0.834106463


        1.ATOM      Pr1                  14 CORE STATES
       CORE-FORCE in mRy/a.u. = |F|      Fx             Fy             Fz
:FCO001:   1.ATOM   1641.667378946629      0.000000000000      0.000000000000   1641.667378946629

:1S 001: 1S               -3066.543784575 Ry
:2S 001: 2S                -492.297258238 Ry
:2PP001: 2P*               -465.395755909 Ry
:2P 001: 2P                -429.998478282 Ry
:3S 001: 3S                -105.395479236 Ry
:3PP001: 3P*                -93.933008279 Ry
:3P 001: 3P                 -86.925332446 Ry
:3DD001: 3D*                -66.851255823 Ry
:3D 001: 3D                 -65.339802090 Ry
:4S 001: 4S                 -20.062369063 Ry
:4PP001: 4P*                -15.768132018 Ry
:4P 001: 4P                 -14.239285050 Ry
:4DD001: 4D*                 -7.169398266 Ry
:4D 001: 4D                  -6.899496476 Ry
:CINT001 Core Integral Atom   1   45.998498

       DENSITY AT NUCLEUS
        JATOM        VALENCE       SEMI-CORE          CORE           TOTAL
:RTO001:   1      645.488396        0.000000   656826.419040   657471.907436
     
       CHARGES OF NEW CHARGE DENSITY
:NTO   : INTERSTITIAL CHARGE =     6.501454
:NPC   : PW Pseudocharge     =    17.505831
:NTO001: CHARGE SPHERE  1    =    55.747770

:NEC01: NUCLEAR AND ELECTRONIC CHARGE    118.00000   117.99699
     
       CHARGES OF OLD CHARGE DENSITY
:OTO   : INTERSTITIAL CHARGE =     6.504408
:OPC   : PW Pseudocharge     =    17.513881
:OTO001: CHARGE SPHERE  1    =    55.747796

:NEC02: NUCLEAR AND ELECTRONIC CHARGE    118.00000   118.00000
     
       CONVERGENCE TEST
:DTO001: DIFFERENCE IN SPHERE  1 =  0.0000725

:DIS  :  CHARGE DISTANCE       ( 0.0000725 for atom    1 spin 1)      0.0000725
 PW Mixed is          332
 
******************************************************
* MULTISECANT MIXING VER9 RELEASE 10.4.0              *
* Standard Mode with controls                        *
* Fixed density scale                                *
* Regularization       1.000E-04                     *
* Trust Upper Limit    5.000E+00                     *
* Max Number of Memory Steps    8                    *
******************************************************
 
:PWTMP   2.0579E+02  1.9467E+02  3.0772E+02
:PLANE:  PW TOTAL      5.9407 DISTAN   5.61E-05  9.44E-04 %
:CHARG:  CLM/ATOM   1381.9512 DISTAN   2.18E-04  1.58E-05 %
 
Step History
        DMIX         DMIXT        Red     Pred      Trust     Lambda    MagRel    MagAbs     Beta
  7   8.7504E-02   8.7504E-02  9.35E-01  7.85E-01  1.02E+00  1.58E+00  6.72E-01  1.89E-01  1.00E+00
  8   5.6155E-02   5.6155E-02  4.91E-01  6.04E-01  1.10E+00  3.15E-01  1.21E-01  3.17E-02  9.24E-01
  9   1.4039E-01   1.4039E-01  4.65E-01  5.80E-01  1.46E+00  1.00E+00  5.75E-01  7.40E-02  1.00E+00
 10   2.1508E-01   2.1508E-01  6.54E-01  3.09E-01  1.95E+00  1.50E+00  4.63E-01  2.77E-02  1.00E+00
 11   2.9640E-01   2.9640E-01  3.93E-01  1.49E-01  2.60E+00  1.95E+00  2.80E-01  1.10E-02  1.00E+00
 12   2.0525E-01   2.0525E-01  6.43E-01  1.89E-01  3.46E+00  1.89E+00  1.78E-01  2.74E-03  1.00E+00
 13   3.1389E-01   3.1389E-01  1.55E-01  3.60E-01  4.61E+00  1.83E+00  4.29E-01  4.25E-03  1.00E+00
 14   2.8642E-01   2.8642E-01  4.61E-01  5.87E-01  6.15E+00  1.83E+00  3.67E-01  5.63E-04  9.43E-01
 15   3.3022E-01   3.3022E-01 -1.00E+00  3.99E-01  8.20E+00  1.00E+00  6.81E-01  4.82E-04  1.00E+00
:JACOBIANS    7.493E-01   3.416E+00
  
:NORMS:  1/Froebius, Min, Max, Used   0.5953E+00  0.5641E+00  0.9991E+00  0.5953E+00
:INFO :  Number of Memory Steps    8 Skipping    6
:INFO :  SLambda=    1.6089266737  Max    1.6089266737
:PREDicted Charge, CTotal, PW Trust    4.706E-05   9.413E-05   6.549E-05
:PREDicted DMix, Beta, BLim   4.7541E-01  1.1457E+00  8.1362E-01

Eigenvalues, unscaled except for SY+YY
   #     SY Real        SY Imag          SS             YY         SY+YY Real      SY+YY Imag
   1   1.707342E+00   0.000000E+00   1.440385E+00   4.527311E+00   6.984779E+00   0.000000E+00
   2   1.387334E+00   0.000000E+00   1.045430E+00   1.994787E+00   4.214499E+00   0.000000E+00
   3   4.504819E-01   0.000000E+00   2.086060E-01   7.793548E-01   1.694990E+00   0.000000E+00
   4   1.772587E-01   0.000000E+00   1.011273E-01   4.815366E-01   8.265801E-01   0.000000E+00
   5   5.483983E-02   0.000000E+00   2.524834E-02   1.445467E-01   2.817289E-01   0.000000E+00
   6   3.396919E-02   0.000000E+00   1.229563E-02   6.212921E-02   1.185768E-01   0.000000E+00
   7   3.928155E-03   0.000000E+00   1.961845E-03   6.831242E-03   1.335364E-02   0.000000E+00
   8   1.061264E-03   0.000000E+00   2.577369E-04   3.502760E-03   5.501480E-03   0.000000E+00
 
:INFO :  Singular value  7.014E+00 Weight  1.000E+00 Projection -4.021E-05
:INFO :  Singular value  4.206E+00 Weight  1.000E+00 Projection  1.094E-05
:INFO :  Singular value  1.694E+00 Weight  1.000E+00 Projection -4.577E-05
:INFO :  Singular value  8.273E-01 Weight  1.000E+00 Projection  6.245E-05
:INFO :  Singular value  2.812E-01 Weight  1.000E+00 Projection  4.848E-05
:INFO :  Singular value  1.186E-01 Weight  1.000E+00 Projection -3.591E-04
:INFO :  Singular value  1.336E-02 Weight  9.989E-01 Projection -9.221E-04
:INFO :  Singular value  5.495E-03 Weight  9.933E-01 Projection  3.052E-03
:RANK :  ACTIVE   7.99/8  =  99.90 % ; YY RANK   7.98/8  =  99.74 %
 
:BLIM :  VZERO Control Off
:TRUST:  Step 1.09E+01  Charge 1.38E-02 (e) CTO  3.36E-02 (e) PW  5.28E-02 (e)
:DIRM :  MEMORY  8/8  SCALE   1.000 RED  0.32 PRED  0.40 NEXT  0.22 
:TRAVE:  Charge 1.80E-04 (e) CTO  3.60E-04 (e) PW  3.82E-04 (e)
:DIRP :  |MSR1|= 5.446E-05 |PRATT|= 5.608E-05 ANGLE=  17.2 DEGREES
:DIRQ :  |MSR1|= 1.300E-04 |PRATT|= 2.183E-04 ANGLE=  25.3 DEGREES
:DIRT :  |MSR1|= 1.409E-04 |PRATT|= 2.254E-04 ANGLE=  25.9 DEGREES
:MIX  :   MSE1   REGULARIZATION:  4.53E-04 GREED: 0.35000  Newton 1.00  0.6252                
     
       CHARGES OF MIXED CHARGE DENSITY
:CTO   : INTERSTITIAL CHARGE =     6.504430
:CPC   : PW Pseudocharge     =    17.513929
:CTO001: CHARGE SPHERE  1    =    55.747785

:NEC03: NUCLEAR AND ELECTRONIC CHARGE    118.00000   118.00000

PW CHANGE     H    K    L      Current       Change    Residue
:PTO001:      0    0    0  7.80516249E-02  2.285E-07  3.159E-07
:PTO003:      0    2    0  1.83087130E-02  1.547E-07  6.143E-08
:PTO004:     -1    1    0  8.63903004E-02  2.023E-07 -4.221E-08
:PTO005:      0    2   -1 -9.87475476E-02 -8.070E-07 -9.703E-07
:PTO006:      0    0   -2 -5.12142348E-02 -1.091E-07  1.211E-07
:PTO007:     -1    1   -1 -1.02734153E-01 -5.775E-07 -4.843E-07
:PTO008:      0    2   -2 -1.44226303E-02 -5.761E-08  1.262E-07
:PTO009:     -1    1   -2 -7.23331439E-02 -3.939E-07  6.140E-08
:PTO011:     -1    3    0 -1.08234152E-02 -1.348E-08 -2.895E-08
:PTO012:     -1    3   -1 -4.42870025E-02 -1.020E-06 -9.981E-07
:PTO013:      0    4    0 -7.51146356E-03 -1.696E-07 -1.825E-07
:PTO014:      0    2   -3  1.74790350E-02  5.303E-07  4.338E-07

:ENE  : ********** TOTAL ENERGY IN Ry =       -36944.30180094

       TOTAL FORCE IN mRy/a.u. = |F|     Fx             Fy             Fz     with/without FOR in case.in2
:FOR001:   1.ATOM          1.583          0.000          0.000          1.583 partial forces
       TOTAL FORCE WITH RESPECT TO GLOBAL CARTESIAN COORDINATES:
:FCA001:   1.ATOM                         0.000          1.583          0.000 partial forces
       TOTAL FORCE WITH RESPECT TO THE GLOBAL COORDINATE SYSTEM:
:FGL001:   1.ATOM                 0.000000000     1.582846442     0.000000000 partial forces
