
------- UO2_7.scf0 --------


            ---------
:ITE069: 69. ITERATION
            ---------

:NATO :    2 INDEPENDENT AND    3 TOTAL ATOMS IN UNITCELL
       SUBSTANCE: blebleble                                                   

       LATTICE                      = F   
:POT  : POTENTIAL OPTION    5
:LAT  : LATTICE CONSTANTS= 10.51208 10.51208 10.51208    1.571    1.571    1.571
:VOL  : UNIT CELL VOLUME =     290.40618
       MODE OF CALCULATION IS       = RELA
       NON-SPINPOLARIZED CALCULATION
:IFFT  : FFT-parameters:   90   90   90 Factor: 2.00
       ATOMNUMBER=  1 U  4+      VCOUL-ZERO = -0.51402E+00
       ATOMNUMBER=  2 O  2-      VCOUL-ZERO =  0.80901E+00
:FIT001: LUSE= 13 SIGMA OF V-XC FIT FOR ATOM  1  0.5377915E-04
:FIT001: LUSE= 13 SIGMA OF V-XC FIT FOR ATOM  1  0.5377915E-04
:FIT002: LUSE= 13 SIGMA OF V-XC FIT FOR ATOM  2  0.1118764E-03
:FIT002: LUSE= 13 SIGMA OF V-XC FIT FOR ATOM  2  0.1118764E-03
:DEN  : DENSITY INTEGRAL  =        -20897.94347838   (Ry)
       ELS_POTENTIAL_AT Z=0 and Z=0.5:  -3.34811  -3.34811
       ELS_POTENTIAL_AT Y=0 and Y=0.5:   0.00000   0.00000
:VZERO:v0,v0c,v0x  -4.05889  -3.34811  -0.71078 v5,v5c,v5x  -4.05889  -3.34811  -0.71078
:VZERY:v0,v0c,v0x  -0.85063   0.00000  -0.85063 v5,v5c,v5x  -0.85063   0.00000  -0.85063
:VZERX:v0,v0c,v0x  -0.85063   0.00000  -0.85063 v5,v5c,v5x  -0.85063   0.00000  -0.85063

------- UO2_7.scf1 --------

          ATOMIC SPHERE DEPENDENT PARAMETERS FOR ATOM  U  4+     
:e__0001: OVERALL ENERGY PARAMETER IS    0.7028
          OVERALL BASIS SET ON ATOM IS LAPW
:E0_0001: E( 0)=    0.7028
             APW+lo
:E0_0001: E( 0)=   -2.2652   E(BOTTOM)=   -3.612   E(TOP)=   -0.918  5  6   232
             LOCAL ORBITAL
:E1_0001: E( 1)=   -1.2800   E(BOTTOM)=   -1.879   E(TOP)= -200.000  4 -1   214
             APW+lo
:E1_0001: E( 1)=    1.1028
             LOCAL ORBITAL
:E3_0001: E( 3)=    0.9619   E(BOTTOM)=    0.173   E(TOP)=    1.751  1  2   179
             APW+lo
:E2_0001: E( 2)=    0.7325   E(BOTTOM)=    0.732   E(TOP)= -200.000  3 -1   112
             APW+lo

          ATOMIC SPHERE DEPENDENT PARAMETERS FOR ATOM  O  2-     
:e__0002: OVERALL ENERGY PARAMETER IS    0.7028
          OVERALL BASIS SET ON ATOM IS LAPW
:E0_0002: E( 0)=   -0.3214   E(BOTTOM)=   -1.688   E(TOP)=    1.045  1  2   236
             APW+lo
:E0_0002: E( 0)=    1.1028
             LOCAL ORBITAL
:E1_0002: E( 1)=    0.7028
             APW+lo

       K=   0.00000   0.00000   0.00000            1
:RKM  : MATRIX SIZE  755LOs:  30  RKM= 8.34  WEIGHT= 1.00  PGR:    
       EIGENVALUES ARE:
:EIG00001:      -2.3473489   -0.5249803   -0.4995563   -0.4995563   -0.4995563
:EIG00006:      -0.4284889    0.3993098    0.3993098    0.3993098    0.6183566
:EIG00011:       0.6183566    0.6183566    0.9342383    0.9342383    0.9342383
:EIG00016:       0.9678548    0.9943261    0.9943261    0.9943261    1.0636574
:EIG00021:       1.1056502    1.1056502    1.5743786    1.5743786    1.5743786
:EIG00026:       1.8003233    1.8003233    1.8003233    2.1680384    2.5143611
:EIG00031:       2.5143611    2.5363761    2.5363761    2.5363761    2.8965105
:EIG00036:       2.8965105    2.8965105    3.0561732    3.0561732    3.0561732
:EIG00041:       3.1378010    3.4975582    3.4975582    3.5914463    3.5914463
:EIG00046:       3.5914463    3.6505303    3.6505303    3.6588417    3.6588417
 
:EIG00051:       3.6588417    3.7553013    3.9008304    3.9008304    3.9008304
:EIG00056:       3.9591301    4.0218656    4.0218656    4.0218656    4.0659422
:EIG00061:       4.0659422    4.0659422    4.1131470    4.1131470    4.1131470
:EIG00066:       4.4307554    4.9521652    4.9521652    4.9521652    5.1861306
:EIG00071:       5.1861306    5.2186559    5.2186559    5.2186559    5.3989692
:EIG00076:       5.8115022    5.8115022    5.8324114    5.8324114    5.8324114
:EIG00081:       5.9935639    5.9935639    5.9935639    6.1156454    6.1156454
:EIG00086:       6.1156454    6.3662145    6.3662145    6.3662145    6.4461035
:EIG00091:       6.4749661    6.4749661    6.5254526    6.5254526    6.5659030
:EIG00096:       6.5659030    6.5659030    6.7420444    6.7615939    6.7615939
 
:EIG00101:       6.7615939    6.8122407    6.8122407    6.8122407    6.9518252
:EIG00106:       6.9518252    6.9518252    6.9589210    7.1497175    7.2072464
:EIG00111:       7.2072464    7.2072464    7.2324264    7.2324264    7.2424441
:EIG00116:       7.2424441    7.2424441    7.3290423    7.3290423    7.3290423
:EIG00121:       7.5650457    7.5650457    7.5650457    7.9975040    7.9975040
:EIG00126:       7.9975040    8.0623931    8.0623931    8.0623931    8.1704111
:EIG00131:       8.1704111    8.1704111    8.1717339    8.2243821    8.2243821
:EIG00136:       8.3725474    8.3725474
       ********************************************************

:KPT   :      NUMBER OF K-POINTS:   145

------- UO2_7.scfso --------
   0.0   0.0 angle (M,z), angle (M,x) deg
 
        SPIN-ORBIT EIGENVALUES:
     K=   0.00000   0.00000   0.00000            1
      MATRIX SIZE=  274   WEIGHT= 1.00
     EIGENVALUES ARE:
          -2.3473489   -2.3473489   -0.9068938   -0.9068938   -0.5249803
          -0.5249803   -0.4284924   -0.4284924   -0.3342691   -0.3342691
          -0.3342691   -0.3342691    0.3974710    0.3974710    0.3974710
           0.3974710    0.4021645    0.4021645    0.6131332    0.6131332
           0.6207037    0.6207037    0.6207037    0.6207037    0.9054939
           0.9054939    0.9243610    0.9243610    0.9243610    0.9243610
           0.9864592    0.9864592    0.9994679    0.9994679    0.9994679
           0.9994679    1.0138317    1.0138317    1.0636574    1.0636574

           1.1035686    1.1035686    1.1035686    1.1035686    1.5633411
           1.5633411    1.5633411    1.5633411    1.5967065    1.5967065
           1.7387733    1.7387733    1.8280857    1.8280857    1.8280857
           1.8280857    2.1680384    2.1680384    2.5055336    2.5055336
           2.5055336    2.5055336    2.5406002    2.5406002    2.5406002
           2.5406002    2.5455816    2.5455816    2.7307374    2.7307374
           2.9879991    2.9879991    2.9879991    2.9879991    3.0528109
           3.0528109    3.0578065    3.0578065    3.0578065    3.0578065

           3.1386436    3.1386436    3.4927930    3.4927930    3.4927930
           3.4927930    3.5883248    3.5883248    3.5883248    3.5883248
           3.6090501    3.6090501    3.6505303    3.6505303    3.6505303
           3.6505303    3.6588260    3.6588260    3.6588496    3.6588496
           3.6588496    3.6588496    3.7553013    3.7553013    3.9008564
           3.9008564    3.9008564    3.9008564    3.9012831    3.9012831
           3.9591301    3.9591301    4.0218671    4.0218671    4.0218671
           4.0218671    4.0218818    4.0218818    4.0592176    4.0592176

           4.0701852    4.0701852    4.0701852    4.0701852    4.1119722
           4.1119722    4.1144059    4.1144059    4.1144059    4.1144059
           4.4309228    4.4309228
       ********************************************************

------- UO2_7.scf2 --------
:GMA  : POTENTIAL AND CHARGE CUT-OFF  12.00 Ry**.5
         Bandranges (emin - emax) and occupancy:
:BAN00018:  18    0.402164    0.603433  1.00000000
:BAN00019:  19    0.499823    0.613625  1.00000000
:BAN00020:  20    0.499823    0.613625  1.00000000
:BAN00021:  21    0.575952    0.639904  1.00000000
:BAN00022:  22    0.575952    0.639904  1.00000000
:BAN00023:  23    0.613532    0.669084  1.00000000
:BAN00024:  24    0.613532    0.669084  1.00000000
:BAN00025:  25    0.861051    0.905494  0.94434722
:BAN00026:  26    0.861051    0.905494  0.94434722
:BAN00027:  27    0.896504    0.924361  0.05565278
:BAN00028:  28    0.896504    0.924361  0.05565278
:BAN00029:  29    0.903314    0.924361  0.00000000
:BAN00030:  30    0.903314    0.924361  0.00000000
:BAN00031:  31    0.928014    0.986459  0.00000000
:BAN00032:  32    0.928014    0.986459  0.00000000
:BAN00033:  33    0.955746    0.999468  0.00000000
        Energy to separate low and high energystates:    0.81105


:NLDA  : NUMBER OF ELECTRONS          =  26.000

:FLDA  : F E R M I - ENERGY           =   1.39884




:POS001: AT.NR.   1 POSITION = 0.00000 0.00000 0.00000  MULTIPLICITY =  1

       LMMAX  5
       LM=   0 0  4 0  4 4  6 0  6 4




:POS002: AT.NR.   2 POSITION = 0.00000 0.00000 0.00000  MULTIPLICITY =  2

       LMMAX  6
       LM=   0 0  4 0  4 4  6 0  6 4 -3 2
:FER DMFT Fermi Energy   0.86086
:EORB          0.100149826
:SUM SUM OF DMFT BAND ENERGIES         -1.480039308

:CHA001: TOTAL CHARGE INSIDE SPHERE   1 =     8.188903
:PCS001: PARTIAL CHARGES SPHERE =  1 S,P,D,F,      D-EG,D-T2G 
:QTL001: 1.7967 4.1714 0.2287 1.9890 0.0000 0.0000 0.0000 0.0517 0.1912 0.0000 0.0000 0.0000
        Q-s-low E-s-low   Q-p-low E-p-low   Q-d-low E-d-low   Q-f-low E-f-low
:EPL001:  1.7965 -2.2652    4.1697 -0.4802    0.2266  0.4475    0.2364  0.5735
        Q-s-hi  E-s-hi    Q-p-hi  E-p-hi    Q-d-hi  E-d-hi    Q-f-hi  E-f-hi 
:EPH001:  0.0002  0.9454    0.0017  0.9199    0.0021  0.9197    1.7526  0.8922

:CHA002: TOTAL CHARGE INSIDE SPHERE   2 =     5.171616
:PCS002: PARTIAL CHARGES SPHERE =  2 S,P,D,F,      D-EG,D-T2G 
:QTL002: 1.5782 3.5820 0.0096 0.0014 0.0000 0.0000 0.0000 0.0034 0.0106 0.0000 0.0000 0.0000
        Q-s-low E-s-low   Q-p-low E-p-low   Q-d-low E-d-low   Q-f-low E-f-low
:EPL002:  1.5767 -0.4515    3.5636  0.5328    0.0078  0.0044    0.0012 -0.1196
        Q-s-hi  E-s-hi    Q-p-hi  E-p-hi    Q-d-hi  E-d-hi    Q-f-hi  E-f-hi 
:EPH002:  0.0016  0.9097    0.0184  0.9136    0.0019  0.8885    0.0002  0.8977

:CHA  : TOTAL CHARGE INSIDE UNIT CELL =      26.000000

:ESUM  : SUM OF EIGENVALUES =          -1.411450122


------- UO2_7.scfc --------

        1.ATOM      U  4+                21 CORE STATES
:1S 001: 1S               -8506.373483851 Ry
:2S 001: 2S               -1587.821024722 Ry
:2PP001: 2P*              -1531.066944463 Ry
:2P 001: 2P               -1249.871046902 Ry
:3S 001: 3S                -399.961190943 Ry
:3PP001: 3P*               -374.187951442 Ry
:3P 001: 3P                -309.404642861 Ry
:3DD001: 3D*               -268.592259838 Ry
:3D 001: 3D                -255.447006834 Ry
:4S 001: 4S                -101.030135229 Ry
:4PP001: 4P*                -89.436585375 Ry
:4P 001: 4P                 -72.526808676 Ry
:4DD001: 4D*                -54.062005445 Ry
:4D 001: 4D                 -50.953409214 Ry
:5S 001: 5S                 -21.622517473 Ry
:5PP001: 5P*                -17.115826437 Ry
:5P 001: 5P                 -13.085775384 Ry
:4FF001: 4F*                -26.666963184 Ry
:4F 001: 4F                 -25.856963957 Ry
:5DD001: 5D*                 -6.496895417 Ry
:5D 001: 5D                  -5.898787636 Ry

        2.ATOM      O  2-                 1 CORE STATES
:1S 002: 1S                 -36.049995135 Ry

------- UO2_7.scfm --------
:CINT001 Core Integral Atom   1   77.964343
:CINT002 Core Integral Atom   2    2.000000
     
       CHARGES OF NEW CHARGE DENSITY
:NTO   : INTERSTITIAL CHARGE =     7.467864
:NTO001: CHARGE SPHERE  1    =    86.153246
:NTO002: CHARGE SPHERE  2    =     7.171616

:NEC01: NUCLEAR AND ELECTRONIC CHARGE    108.00000   107.96434
     
       CHARGES OF OLD CHARGE DENSITY
:OTO   : INTERSTITIAL CHARGE =     7.535304
:OTO001: CHARGE SPHERE  1    =    86.184069
:OTO002: CHARGE SPHERE  2    =     7.140314
:DNEW  1   -0.0308
:DNEW  2    0.0313

:NEC02: NUCLEAR AND ELECTRONIC CHARGE    108.00000   108.00000
     
       CONVERGENCE TEST
:DTO001: DIFFERENCE IN SPHERE  1 =  0.0208045
:DTO002: DIFFERENCE IN SPHERE  2 =  0.0388203

:DIS  :  CHARGE DISTANCE       ( 0.0388203 for atom    2 spin 1)      0.0328150
:BIG check (qbig,qrms,qtot)    0.129D-01   0.240D-01   0.328D-01
 
******************************************************
* MULTISECANT MIXING VER6 RELEASE 6.0 OPTIONS        *
* Standard Mode with controls                        *
* Regularization       1.000E-06                     *
* Trust Region Control Active                        *
* Max Number of Memory Steps    8                    *
******************************************************
 
:PLANE:  INTERSTITIAL TOTAL      2.51733 DISTAN  3.342E-01 % 
:CHARG:  CLM CHARGE   /ATOM    345.91074 DISTAN  1.931E-02 % 
:DIRM :  MEMORY  0/8 RESCALES   1.00
:MIX  :   PRATT  REGULARIZATION: 1.00E-06  GREED: 0.025
     
       CHARGES OF MIXED CHARGE DENSITY
:CTO   : INTERSTITIAL CHARGE =     7.534510
:CTO001: CHARGE SPHERE  1    =    86.183298
:CTO002: CHARGE SPHERE  2    =     7.141096

:NEC03: NUCLEAR AND ELECTRONIC CHARGE    108.00000   108.00000

PW CHANGE     H    K    L       Current     Change     Residue
:PTO001:      0    0    0  8.67874080E-02 -9.897E-07 -3.959E-05
:PTO002:     -1   -1   -1  2.11360781E-01 -6.378E-06 -2.551E-04
:PTO003:      0    0   -2  3.68406948E-04 -1.860E-05 -7.439E-04
:PTO004:      0   -2   -2  2.90268636E-01  2.513E-05  1.005E-03
:PTO005:     -1   -1   -3  1.55169224E-01  1.284E-05  5.137E-04
:PTO006:     -2   -2   -2 -1.98820620E-02 -7.013E-07 -2.805E-05
:PTO007:      0    0   -4  4.35216936E-02  3.407E-06  1.363E-04
:PTO008:     -1   -3   -3  3.11283031E-02  7.273E-06  2.909E-04
:PTO009:      0   -2   -4 -5.20597758E-02 -1.894E-06 -7.576E-05
:PTO010:     -2   -2   -4  4.48255927E-02  1.055E-05  4.221E-04
:PTO011:     -3   -3   -3 -4.84840415E-03  6.301E-06  2.520E-04
:PTO012:     -1   -1   -5 -4.67308930E-03 -3.298E-06 -1.319E-04

:ENE  : ********** TOTAL ENERGY IN Ry =       -56437.56511923


------- UO2_7.scf0 --------


            ---------
:ITE070: 70. ITERATION
            ---------

:NATO :    2 INDEPENDENT AND    3 TOTAL ATOMS IN UNITCELL
       SUBSTANCE: blebleble                                                   

       LATTICE                      = F   
:POT  : POTENTIAL OPTION    5
:LAT  : LATTICE CONSTANTS= 10.51208 10.51208 10.51208    1.571    1.571    1.571
:VOL  : UNIT CELL VOLUME =     290.40618
       MODE OF CALCULATION IS       = RELA
       NON-SPINPOLARIZED CALCULATION
:IFFT  : FFT-parameters:   90   90   90 Factor: 2.00
       ATOMNUMBER=  1 U  4+      VCOUL-ZERO = -0.51436E+00
       ATOMNUMBER=  2 O  2-      VCOUL-ZERO =  0.80934E+00
:FIT001: LUSE= 13 SIGMA OF V-XC FIT FOR ATOM  1  0.5377373E-04
:FIT001: LUSE= 13 SIGMA OF V-XC FIT FOR ATOM  1  0.5377373E-04
:FIT002: LUSE= 13 SIGMA OF V-XC FIT FOR ATOM  2  0.1117328E-03
:FIT002: LUSE= 13 SIGMA OF V-XC FIT FOR ATOM  2  0.1117328E-03
:DEN  : DENSITY INTEGRAL  =        -20897.88803739   (Ry)
       ELS_POTENTIAL_AT Z=0 and Z=0.5:  -3.34881  -3.34881
       ELS_POTENTIAL_AT Y=0 and Y=0.5:   0.00000   0.00000
:VZERO:v0,v0c,v0x  -4.05949  -3.34881  -0.71068 v5,v5c,v5x  -4.05949  -3.34881  -0.71068
:VZERY:v0,v0c,v0x  -0.85061   0.00000  -0.85061 v5,v5c,v5x  -0.85061   0.00000  -0.85061
:VZERX:v0,v0c,v0x  -0.85061   0.00000  -0.85061 v5,v5c,v5x  -0.85061   0.00000  -0.85061

------- UO2_7.scf1 --------

          ATOMIC SPHERE DEPENDENT PARAMETERS FOR ATOM  U  4+     
:e__0001: OVERALL ENERGY PARAMETER IS    0.7028
          OVERALL BASIS SET ON ATOM IS LAPW
:E0_0001: E( 0)=    0.7028
             APW+lo
:E0_0001: E( 0)=   -2.2657   E(BOTTOM)=   -3.613   E(TOP)=   -0.918  5  6   238
             LOCAL ORBITAL
:E1_0001: E( 1)=   -1.2800   E(BOTTOM)=   -1.880   E(TOP)= -200.000  4 -1   213
             APW+lo
:E1_0001: E( 1)=    1.1028
             LOCAL ORBITAL
:E3_0001: E( 3)=    0.9613   E(BOTTOM)=    0.173   E(TOP)=    1.750  1  2   184
             APW+lo
:E2_0001: E( 2)=    0.7320   E(BOTTOM)=    0.732   E(TOP)= -200.000  3 -1   107
             APW+lo

          ATOMIC SPHERE DEPENDENT PARAMETERS FOR ATOM  O  2-     
:e__0002: OVERALL ENERGY PARAMETER IS    0.7028
          OVERALL BASIS SET ON ATOM IS LAPW
:E0_0002: E( 0)=   -0.3206   E(BOTTOM)=   -1.687   E(TOP)=    1.046  1  2   235
             APW+lo
:E0_0002: E( 0)=    1.1028
             LOCAL ORBITAL
:E1_0002: E( 1)=    0.7028
             APW+lo

       K=   0.00000   0.00000   0.00000            1
:RKM  : MATRIX SIZE  755LOs:  30  RKM= 8.34  WEIGHT= 1.00  PGR:    
       EIGENVALUES ARE:
:EIG00001:      -2.3478536   -0.5244183   -0.4999365   -0.4999365   -0.4999365
:EIG00006:      -0.4278415    0.3997022    0.3997022    0.3997022    0.6187545
:EIG00011:       0.6187545    0.6187545    0.9336933    0.9336933    0.9336933
:EIG00016:       0.9673458    0.9940175    0.9940175    0.9940175    1.0637755
:EIG00021:       1.1054923    1.1054923    1.5745392    1.5745392    1.5745392
:EIG00026:       1.8003073    1.8003073    1.8003073    2.1680363    2.5143246
:EIG00031:       2.5143246    2.5364638    2.5364638    2.5364638    2.8965438
:EIG00036:       2.8965438    2.8965438    3.0560820    3.0560820    3.0560820
:EIG00041:       3.1379811    3.4974201    3.4974201    3.5915051    3.5915051
:EIG00046:       3.5915051    3.6507704    3.6507704    3.6587565    3.6587565
 
:EIG00051:       3.6587565    3.7552634    3.9009244    3.9009244    3.9009244
:EIG00056:       3.9590480    4.0218842    4.0218842    4.0218842    4.0658841
:EIG00061:       4.0658841    4.0658841    4.1131109    4.1131109    4.1131109
:EIG00066:       4.4307638    4.9523652    4.9523652    4.9523652    5.1861116
:EIG00071:       5.1861116    5.2188119    5.2188119    5.2188119    5.3989297
:EIG00076:       5.8113701    5.8113701    5.8323169    5.8323169    5.8323169
:EIG00081:       5.9935806    5.9935806    5.9935806    6.1154915    6.1154915
:EIG00086:       6.1154915    6.3663533    6.3663533    6.3663533    6.4462009
:EIG00091:       6.4750415    6.4750415    6.5255428    6.5255428    6.5658535
:EIG00096:       6.5658535    6.5658535    6.7422020    6.7616246    6.7616246
 
:EIG00101:       6.7616246    6.8121291    6.8121291    6.8121291    6.9519349
:EIG00106:       6.9519349    6.9519349    6.9589483    7.1496762    7.2072790
:EIG00111:       7.2072790    7.2072790    7.2324664    7.2324664    7.2425228
:EIG00116:       7.2425228    7.2425228    7.3290555    7.3290555    7.3290555
:EIG00121:       7.5650149    7.5650149    7.5650149    7.9975258    7.9975258
:EIG00126:       7.9975258    8.0624168    8.0624168    8.0624168    8.1704290
:EIG00131:       8.1704290    8.1704290    8.1716031    8.2243414    8.2243414
:EIG00136:       8.3725546    8.3725546
       ********************************************************

:KPT   :      NUMBER OF K-POINTS:   145

------- UO2_7.scfso --------
   0.0   0.0 angle (M,z), angle (M,x) deg
 
        SPIN-ORBIT EIGENVALUES:
     K=   0.00000   0.00000   0.00000            1
      MATRIX SIZE=  274   WEIGHT= 1.00
     EIGENVALUES ARE:
          -2.3478536   -2.3478536   -0.9073268   -0.9073268   -0.5244183
          -0.5244183   -0.4278449   -0.4278449   -0.3346215   -0.3346215
          -0.3346215   -0.3346215    0.3978590    0.3978590    0.3978590
           0.3978590    0.4025638    0.4025638    0.6135706    0.6135706
           0.6210717    0.6210717    0.6210717    0.6210717    0.9049521
           0.9049521    0.9238774    0.9238774    0.9238774    0.9238774
           0.9859456    0.9859456    0.9991179    0.9991179    0.9991179
           0.9991179    1.0135003    1.0135003    1.0637755    1.0637755

           1.1034113    1.1034113    1.1034113    1.1034113    1.5634979
           1.5634979    1.5634979    1.5634979    1.5968738    1.5968738
           1.7387337    1.7387337    1.8280809    1.8280809    1.8280809
           1.8280809    2.1680363    2.1680363    2.5055333    2.5055333
           2.5055333    2.5055333    2.5406549    2.5406549    2.5406549
           2.5406549    2.5456646    2.5456646    2.7307840    2.7307840
           2.9880267    2.9880267    2.9880267    2.9880267    3.0527225
           3.0527225    3.0577154    3.0577154    3.0577154    3.0577154

           3.1388212    3.1388212    3.4926675    3.4926675    3.4926675
           3.4926675    3.5883730    3.5883730    3.5883730    3.5883730
           3.6091050    3.6091050    3.6507704    3.6507704    3.6507704
           3.6507704    3.6587408    3.6587408    3.6587644    3.6587644
           3.6587644    3.6587644    3.7552634    3.7552634    3.9009511
           3.9009511    3.9009511    3.9009511    3.9013768    3.9013768
           3.9590480    3.9590480    4.0218858    4.0218858    4.0218858
           4.0218858    4.0219001    4.0219001    4.0591665    4.0591665

           4.0701235    4.0701235    4.0701235    4.0701235    4.1119364
           4.1119364    4.1143686    4.1143686    4.1143686    4.1143686
           4.4309310    4.4309310
       ********************************************************

------- UO2_7.scf2 --------
:GMA  : POTENTIAL AND CHARGE CUT-OFF  12.00 Ry**.5
         Bandranges (emin - emax) and occupancy:
:BAN00018:  18    0.402564    0.603791  1.00000000
:BAN00019:  19    0.500247    0.614174  1.00000000
:BAN00020:  20    0.500247    0.614174  1.00000000
:BAN00021:  21    0.576343    0.640395  1.00000000
:BAN00022:  22    0.576343    0.640395  1.00000000
:BAN00023:  23    0.613901    0.669596  1.00000000
:BAN00024:  24    0.613901    0.669596  1.00000000
:BAN00025:  25    0.860562    0.904952  0.94445049
:BAN00026:  26    0.860562    0.904952  0.94445049
:BAN00027:  27    0.896025    0.923877  0.05554951
:BAN00028:  28    0.896025    0.923877  0.05554951
:BAN00029:  29    0.902817    0.923877  0.00000000
:BAN00030:  30    0.902817    0.923877  0.00000000
:BAN00031:  31    0.927557    0.985946  0.00000000
:BAN00032:  32    0.927557    0.985946  0.00000000
:BAN00033:  33    0.955264    0.999118  0.00000000
        Energy to separate low and high energystates:    0.81056


:NLDA  : NUMBER OF ELECTRONS          =  26.000

:FLDA  : F E R M I - ENERGY           =   1.39835




:POS001: AT.NR.   1 POSITION = 0.00000 0.00000 0.00000  MULTIPLICITY =  1

       LMMAX  5
       LM=   0 0  4 0  4 4  6 0  6 4




:POS002: AT.NR.   2 POSITION = 0.00000 0.00000 0.00000  MULTIPLICITY =  2

       LMMAX  6
       LM=   0 0  4 0  4 4  6 0  6 4 -3 2
:FER DMFT Fermi Energy   0.86234
:EORB          0.094770659
:SUM SUM OF DMFT BAND ENERGIES         -1.471263075

:CHA001: TOTAL CHARGE INSIDE SPHERE   1 =     8.187511
:PCS001: PARTIAL CHARGES SPHERE =  1 S,P,D,F,      D-EG,D-T2G 
:QTL001: 1.7968 4.1719 0.2292 1.9865 0.0000 0.0000 0.0000 0.0519 0.1915 0.0000 0.0000 0.0000
        Q-s-low E-s-low   Q-p-low E-p-low   Q-d-low E-d-low   Q-f-low E-f-low
:EPL001:  1.7966 -2.2656    4.1702 -0.4805    0.2271  0.4481    0.2345  0.5735
        Q-s-hi  E-s-hi    Q-p-hi  E-p-hi    Q-d-hi  E-d-hi    Q-f-hi  E-f-hi 
:EPH001:  0.0002  0.9445    0.0017  0.9193    0.0021  0.9190    1.7521  0.8918

:CHA002: TOTAL CHARGE INSIDE SPHERE   2 =     5.171080
:PCS002: PARTIAL CHARGES SPHERE =  2 S,P,D,F,      D-EG,D-T2G 
:QTL002: 1.5781 3.5816 0.0096 0.0014 0.0000 0.0000 0.0000 0.0034 0.0106 0.0000 0.0000 0.0000
        Q-s-low E-s-low   Q-p-low E-p-low   Q-d-low E-d-low   Q-f-low E-f-low
:EPL002:  1.5765 -0.4509    3.5633  0.5333    0.0078  0.0049    0.0012 -0.1195
        Q-s-hi  E-s-hi    Q-p-hi  E-p-hi    Q-d-hi  E-d-hi    Q-f-hi  E-f-hi 
:EPH002:  0.0016  0.9092    0.0183  0.9130    0.0019  0.8881    0.0002  0.8973

:CHA  : TOTAL CHARGE INSIDE UNIT CELL =      26.000000

:ESUM  : SUM OF EIGENVALUES =          -1.407593225


------- UO2_7.scfc --------

        1.ATOM      U  4+                21 CORE STATES
:1S 001: 1S               -8506.374368989 Ry
:2S 001: 2S               -1587.821912591 Ry
:2PP001: 2P*              -1531.067831807 Ry
:2P 001: 2P               -1249.871934699 Ry
:3S 001: 3S                -399.962072728 Ry
:3PP001: 3P*               -374.188834327 Ry
:3P 001: 3P                -309.405522700 Ry
:3DD001: 3D*               -268.593143225 Ry
:3D 001: 3D                -255.447889519 Ry
:4S 001: 4S                -101.030977012 Ry
:4PP001: 4P*                -89.437427538 Ry
:4P 001: 4P                 -72.527642919 Ry
:4DD001: 4D*                -54.062840690 Ry
:4D 001: 4D                 -50.954242189 Ry
:5S 001: 5S                 -21.623291457 Ry
:5PP001: 5P*                -17.116593875 Ry
:5P 001: 5P                 -13.086523080 Ry
:4FF001: 4F*                -26.667800153 Ry
:4F 001: 4F                 -25.857799751 Ry
:5DD001: 5D*                 -6.497615864 Ry
:5D 001: 5D                  -5.899499657 Ry

        2.ATOM      O  2-                 1 CORE STATES
:1S 002: 1S                 -36.048565718 Ry

------- UO2_7.scfm --------
:CINT001 Core Integral Atom   1   77.964349
:CINT002 Core Integral Atom   2    2.000000
     
       CHARGES OF NEW CHARGE DENSITY
:NTO   : INTERSTITIAL CHARGE =     7.470303
:NTO001: CHARGE SPHERE  1    =    86.151860
:NTO002: CHARGE SPHERE  2    =     7.171080

:NEC01: NUCLEAR AND ELECTRONIC CHARGE    108.00000   107.96432
     
       CHARGES OF OLD CHARGE DENSITY
:OTO   : INTERSTITIAL CHARGE =     7.534510
:OTO001: CHARGE SPHERE  1    =    86.183298
:OTO002: CHARGE SPHERE  2    =     7.141096
:DNEW  1   -0.0314
:DNEW  2    0.0300

:NEC02: NUCLEAR AND ELECTRONIC CHARGE    108.00000   108.00000
     
       CONVERGENCE TEST
:DTO001: DIFFERENCE IN SPHERE  1 =  0.0214966
:DTO002: DIFFERENCE IN SPHERE  2 =  0.0367522

:DIS  :  CHARGE DISTANCE       ( 0.0367522 for atom    2 spin 1)      0.0316670
:BIG check (qbig,qrms,qtot)    0.123D-01   0.230D-01   0.317D-01
 
******************************************************
* MULTISECANT MIXING VER6 RELEASE 6.0 OPTIONS        *
* Standard Mode with controls                        *
* Regularization       1.000E-06                     *
* Trust Region Control Active                        *
* Max Number of Memory Steps    8                    *
******************************************************
 
:PLANE:  INTERSTITIAL TOTAL      2.51738 DISTAN  3.247E-01 % 
:CHARG:  CLM CHARGE   /ATOM    345.91071 DISTAN  1.868E-02 % 
 
 Step History DMIX, Red, Pred, Trust, FRMS, FABS
  2  2.5000E-02  1.0000E+00  1.0000E+00  1.0000E+00
  
:DIRM :  MEMORY  1/8 RESCALES  15.85
:MIX  :   PRATT  REGULARIZATION: 1.00E-06  GREED: 0.062  Expand 2.50  0.06                
     
       CHARGES OF MIXED CHARGE DENSITY
:CTO   : INTERSTITIAL CHARGE =     7.532126
:CTO001: CHARGE SPHERE  1    =    86.180986
:CTO002: CHARGE SPHERE  2    =     7.143444

:NEC03: NUCLEAR AND ELECTRONIC CHARGE    108.00000   108.00000

PW CHANGE     H    K    L       Current     Change     Residue
:PTO001:      0    0    0  8.67844388E-02 -2.969E-06 -2.878E-05
:PTO002:     -1   -1   -1  2.11341648E-01 -1.913E-05 -2.406E-04
:PTO003:      0    0   -2  3.12611608E-04 -5.580E-05 -7.116E-04
:PTO004:      0   -2   -2  2.90344012E-01  7.538E-05  9.768E-04
:PTO005:     -1   -1   -3  1.55207750E-01  3.853E-05  5.387E-04
:PTO006:     -2   -2   -2 -1.98841660E-02 -2.104E-06  1.834E-06
:PTO007:      0    0   -4  4.35319147E-02  1.022E-05  1.275E-04
:PTO008:     -1   -3   -3  3.11501227E-02  2.182E-05  3.106E-04
:PTO009:      0   -2   -4 -5.20654575E-02 -5.682E-06 -2.532E-05
:PTO010:     -2   -2   -4  4.48572517E-02  3.166E-05  4.078E-04
:PTO011:     -3   -3   -3 -4.82950198E-03  1.890E-05  2.530E-04
:PTO012:     -1   -1   -5 -4.68298246E-03 -9.893E-06 -1.272E-04

:ENE  : ********** TOTAL ENERGY IN Ry =       -56437.56529315


------- UO2_7.scf0 --------


            ---------
:ITE071: 71. ITERATION
            ---------

:NATO :    2 INDEPENDENT AND    3 TOTAL ATOMS IN UNITCELL
       SUBSTANCE: blebleble                                                   

       LATTICE                      = F   
:POT  : POTENTIAL OPTION    5
:LAT  : LATTICE CONSTANTS= 10.51208 10.51208 10.51208    1.571    1.571    1.571
:VOL  : UNIT CELL VOLUME =     290.40618
       MODE OF CALCULATION IS       = RELA
       NON-SPINPOLARIZED CALCULATION
:IFFT  : FFT-parameters:   90   90   90 Factor: 2.00
       ATOMNUMBER=  1 U  4+      VCOUL-ZERO = -0.51539E+00
       ATOMNUMBER=  2 O  2-      VCOUL-ZERO =  0.81031E+00
:FIT001: LUSE= 13 SIGMA OF V-XC FIT FOR ATOM  1  0.5375842E-04
:FIT001: LUSE= 13 SIGMA OF V-XC FIT FOR ATOM  1  0.5375842E-04
:FIT002: LUSE= 13 SIGMA OF V-XC FIT FOR ATOM  2  0.1113026E-03
:FIT002: LUSE= 13 SIGMA OF V-XC FIT FOR ATOM  2  0.1113026E-03
:DEN  : DENSITY INTEGRAL  =        -20897.72172641   (Ry)
       ELS_POTENTIAL_AT Z=0 and Z=0.5:  -3.35093  -3.35093
       ELS_POTENTIAL_AT Y=0 and Y=0.5:   0.00000   0.00000
:VZERO:v0,v0c,v0x  -4.06131  -3.35093  -0.71038 v5,v5c,v5x  -4.06131  -3.35093  -0.71038
:VZERY:v0,v0c,v0x  -0.85055   0.00000  -0.85055 v5,v5c,v5x  -0.85055   0.00000  -0.85055
:VZERX:v0,v0c,v0x  -0.85055   0.00000  -0.85055 v5,v5c,v5x  -0.85055   0.00000  -0.85055

------- UO2_7.scf1 --------

          ATOMIC SPHERE DEPENDENT PARAMETERS FOR ATOM  U  4+     
:e__0001: OVERALL ENERGY PARAMETER IS    0.7028
          OVERALL BASIS SET ON ATOM IS LAPW
:E0_0001: E( 0)=    0.7028
             APW+lo
:E0_0001: E( 0)=   -2.2674   E(BOTTOM)=   -3.615   E(TOP)=   -0.920  5  6   235
             LOCAL ORBITAL
:E1_0001: E( 1)=   -1.2800   E(BOTTOM)=   -1.881   E(TOP)= -200.000  4 -1   217
             APW+lo
:E1_0001: E( 1)=    1.1028
             LOCAL ORBITAL
:E3_0001: E( 3)=    0.9594   E(BOTTOM)=    0.171   E(TOP)=    1.748  1  2   177
             APW+lo
:E2_0001: E( 2)=    0.7306   E(BOTTOM)=    0.731   E(TOP)= -200.000  3 -1   112
             APW+lo

          ATOMIC SPHERE DEPENDENT PARAMETERS FOR ATOM  O  2-     
:e__0002: OVERALL ENERGY PARAMETER IS    0.7028
          OVERALL BASIS SET ON ATOM IS LAPW
:E0_0002: E( 0)=   -0.3183   E(BOTTOM)=   -1.685   E(TOP)=    1.049  1  2   241
             APW+lo
:E0_0002: E( 0)=    1.1028
             LOCAL ORBITAL
:E1_0002: E( 1)=    0.7028
             APW+lo

       K=   0.00000   0.00000   0.00000            1
:RKM  : MATRIX SIZE  755LOs:  30  RKM= 8.34  WEIGHT= 1.00  PGR:    
       EIGENVALUES ARE:
:EIG00001:      -2.3493678   -0.5227328   -0.5010775   -0.5010775   -0.5010775
:EIG00006:      -0.4258995    0.4008775    0.4008775    0.4008775    0.6199411
:EIG00011:       0.6199411    0.6199411    0.9320580    0.9320580    0.9320580
:EIG00016:       0.9658187    0.9930977    0.9930977    0.9930977    1.0641301
:EIG00021:       1.1050182    1.1050182    1.5750217    1.5750217    1.5750217
:EIG00026:       1.8002597    1.8002597    1.8002597    2.1680300    2.5142154
:EIG00031:       2.5142154    2.5367276    2.5367276    2.5367276    2.8966438
:EIG00036:       2.8966438    2.8966438    3.0558084    3.0558084    3.0558084
:EIG00041:       3.1385216    3.4970059    3.4970059    3.5916818    3.5916818
:EIG00046:       3.5916818    3.6514907    3.6514907    3.6585008    3.6585008
 
:EIG00051:       3.6585008    3.7551499    3.9012054    3.9012054    3.9012054
:EIG00056:       3.9588017    4.0219400    4.0219400    4.0219400    4.0657106
:EIG00061:       4.0657106    4.0657106    4.1130024    4.1130024    4.1130024
:EIG00066:       4.4307888    4.9529655    4.9529655    4.9529655    5.1860537
:EIG00071:       5.1860537    5.2192794    5.2192794    5.2192794    5.3988109
:EIG00076:       5.8109745    5.8109745    5.8320337    5.8320337    5.8320337
:EIG00081:       5.9936307    5.9936307    5.9936307    6.1150295    6.1150295
:EIG00086:       6.1150295    6.3667698    6.3667698    6.3667698    6.4464931
:EIG00091:       6.4752673    6.4752673    6.5258138    6.5258138    6.5657051
:EIG00096:       6.5657051    6.5657051    6.7426750    6.7617168    6.7617168
 
:EIG00101:       6.7617168    6.8117942    6.8117942    6.8117942    6.9522641
:EIG00106:       6.9522641    6.9522641    6.9590300    7.1495520    7.2073767
:EIG00111:       7.2073767    7.2073767    7.2325866    7.2325866    7.2427584
:EIG00116:       7.2427584    7.2427584    7.3290955    7.3290955    7.3290955
:EIG00121:       7.5649222    7.5649222    7.5649222    7.9975914    7.9975914
:EIG00126:       7.9975914    8.0624880    8.0624880    8.0624880    8.1704831
:EIG00131:       8.1704831    8.1704831    8.1712107    8.2242191    8.2242191
:EIG00136:       8.3725764    8.3725764
       ********************************************************

:KPT   :      NUMBER OF K-POINTS:   145

------- UO2_7.scfso --------
   0.0   0.0 angle (M,z), angle (M,x) deg
 
        SPIN-ORBIT EIGENVALUES:
     K=   0.00000   0.00000   0.00000            1
      MATRIX SIZE=  274   WEIGHT= 1.00
     EIGENVALUES ARE:
          -2.3493678   -2.3493678   -0.9086260   -0.9086260   -0.5227328
          -0.5227328   -0.4259030   -0.4259030   -0.3356792   -0.3356792
          -0.3356792   -0.3356792    0.3990212    0.3990212    0.3990212
           0.3990212    0.4037601    0.4037601    0.6148766    0.6148766
           0.6221678    0.6221678    0.6221678    0.6221678    0.9033268
           0.9033268    0.9224268    0.9224268    0.9224268    0.9224268
           0.9844048    0.9844048    0.9980745    0.9980745    0.9980745
           0.9980745    1.0125107    1.0125107    1.0641301    1.0641301

           1.1029392    1.1029392    1.1029392    1.1029392    1.5639690
           1.5639690    1.5639690    1.5639690    1.5973763    1.5973763
           1.7386156    1.7386156    1.8280670    1.8280670    1.8280670
           1.8280670    2.1680300    2.1680300    2.5055313    2.5055313
           2.5055313    2.5055313    2.5408205    2.5408205    2.5408205
           2.5408205    2.5459143    2.5459143    2.7309242    2.7309242
           2.9881098    2.9881098    2.9881098    2.9881098    3.0524574
           3.0524574    3.0574423    3.0574423    3.0574423    3.0574423

           3.1393540    3.1393540    3.4922907    3.4922907    3.4922907
           3.4922907    3.5885183    3.5885183    3.5885183    3.5885183
           3.6092697    3.6092697    3.6514907    3.6514907    3.6514907
           3.6514907    3.6584850    3.6584850    3.6585086    3.6585086
           3.6585086    3.6585086    3.7551499    3.7551499    3.9012344
           3.9012344    3.9012344    3.9012344    3.9016569    3.9016569
           3.9588017    3.9588017    4.0219420    4.0219420    4.0219420
           4.0219420    4.0219549    4.0219549    4.0590138    4.0590138

           4.0699392    4.0699392    4.0699392    4.0699392    4.1118293
           4.1118293    4.1142570    4.1142570    4.1142570    4.1142570
           4.4309558    4.4309558
       ********************************************************

------- UO2_7.scf2 --------
:GMA  : POTENTIAL AND CHARGE CUT-OFF  12.00 Ry**.5
         Bandranges (emin - emax) and occupancy:
:BAN00018:  18    0.403760    0.604862  1.00000000
:BAN00019:  19    0.501517    0.615818  1.00000000
:BAN00020:  20    0.501517    0.615818  1.00000000
:BAN00021:  21    0.577515    0.641865  1.00000000
:BAN00022:  22    0.577515    0.641865  1.00000000
:BAN00023:  23    0.615003    0.671128  1.00000000
:BAN00024:  24    0.615003    0.671128  1.00000000
:BAN00025:  25    0.859094    0.903327  0.94476368
:BAN00026:  26    0.859094    0.903327  0.94476368
:BAN00027:  27    0.894588    0.922427  0.05523632
:BAN00028:  28    0.894588    0.922427  0.05523632
:BAN00029:  29    0.901333    0.922427  0.00000000
:BAN00030:  30    0.901333    0.922427  0.00000000
:BAN00031:  31    0.926072    0.984405  0.00000000
:BAN00032:  32    0.926072    0.984405  0.00000000
:BAN00033:  33    0.953821    0.998074  0.00000000
        Energy to separate low and high energystates:    0.80909


:NLDA  : NUMBER OF ELECTRONS          =  26.000

:FLDA  : F E R M I - ENERGY           =   1.39688




:POS001: AT.NR.   1 POSITION = 0.00000 0.00000 0.00000  MULTIPLICITY =  1

       LMMAX  5
       LM=   0 0  4 0  4 4  6 0  6 4




:POS002: AT.NR.   2 POSITION = 0.00000 0.00000 0.00000  MULTIPLICITY =  2

       LMMAX  6
       LM=   0 0  4 0  4 4  6 0  6 4 -3 2
:FER DMFT Fermi Energy   0.86420
:EORB          0.086520573
:SUM SUM OF DMFT BAND ENERGIES         -1.452448396

:CHA001: TOTAL CHARGE INSIDE SPHERE   1 =     8.190582
:PCS001: PARTIAL CHARGES SPHERE =  1 S,P,D,F,      D-EG,D-T2G 
:QTL001: 1.7970 4.1731 0.2306 1.9868 0.0000 0.0000 0.0000 0.0523 0.1924 0.0000 0.0000 0.0000
        Q-s-low E-s-low   Q-p-low E-p-low   Q-d-low E-d-low   Q-f-low E-f-low
:EPL001:  1.7968 -2.2669    4.1714 -0.4816    0.2285  0.4494    0.2348  0.5748
        Q-s-hi  E-s-hi    Q-p-hi  E-p-hi    Q-d-hi  E-d-hi    Q-f-hi  E-f-hi 
:EPH001:  0.0002  0.9421    0.0017  0.9177    0.0021  0.9177    1.7520  0.8903

:CHA002: TOTAL CHARGE INSIDE SPHERE   2 =     5.165640
:PCS002: PARTIAL CHARGES SPHERE =  2 S,P,D,F,      D-EG,D-T2G 
:QTL002: 1.5775 3.5767 0.0096 0.0014 0.0000 0.0000 0.0000 0.0034 0.0106 0.0000 0.0000 0.0000
        Q-s-low E-s-low   Q-p-low E-p-low   Q-d-low E-d-low   Q-f-low E-f-low
:EPL002:  1.5760 -0.4490    3.5584  0.5346    0.0078  0.0066    0.0012 -0.1186
        Q-s-hi  E-s-hi    Q-p-hi  E-p-hi    Q-d-hi  E-d-hi    Q-f-hi  E-f-hi 
:EPH002:  0.0016  0.9078    0.0183  0.9116    0.0019  0.8866    0.0002  0.8959

:CHA  : TOTAL CHARGE INSIDE UNIT CELL =      26.000000

:ESUM  : SUM OF EIGENVALUES =          -1.396934618


------- UO2_7.scfc --------

        1.ATOM      U  4+                21 CORE STATES
:1S 001: 1S               -8506.377024404 Ry
:2S 001: 2S               -1587.824576197 Ry
:2PP001: 2P*              -1531.070493838 Ry
:2P 001: 2P               -1249.874598091 Ry
:3S 001: 3S                -399.964718083 Ry
:3PP001: 3P*               -374.191482985 Ry
:3P 001: 3P                -309.408162215 Ry
:3DD001: 3D*               -268.595793386 Ry
:3D 001: 3D                -255.450537573 Ry
:4S 001: 4S                -101.033502361 Ry
:4PP001: 4P*                -89.439954027 Ry
:4P 001: 4P                 -72.530145646 Ry
:4DD001: 4D*                -54.065346426 Ry
:4D 001: 4D                 -50.956741114 Ry
:5S 001: 5S                 -21.625613410 Ry
:5PP001: 5P*                -17.118896188 Ry
:5P 001: 5P                 -13.088766171 Ry
:4FF001: 4F*                -26.670311061 Ry
:4F 001: 4F                 -25.860307135 Ry
:5DD001: 5D*                 -6.499777210 Ry
:5D 001: 5D                  -5.901635727 Ry

        2.ATOM      O  2-                 1 CORE STATES
:1S 002: 1S                 -36.044277458 Ry

------- UO2_7.scfm --------
:CINT001 Core Integral Atom   1   77.964366
:CINT002 Core Integral Atom   2    2.000000
     
       CHARGES OF NEW CHARGE DENSITY
:NTO   : INTERSTITIAL CHARGE =     7.478135
:NTO001: CHARGE SPHERE  1    =    86.154948
:NTO002: CHARGE SPHERE  2    =     7.165640

:NEC01: NUCLEAR AND ELECTRONIC CHARGE    108.00000   107.96436
     
       CHARGES OF OLD CHARGE DENSITY
:OTO   : INTERSTITIAL CHARGE =     7.532126
:OTO001: CHARGE SPHERE  1    =    86.180986
:OTO002: CHARGE SPHERE  2    =     7.143444
:DNEW  1   -0.0260
:DNEW  2    0.0222

:NEC02: NUCLEAR AND ELECTRONIC CHARGE    108.00000   108.00000
     
       CONVERGENCE TEST
:DTO001: DIFFERENCE IN SPHERE  1 =  0.0180129
:DTO002: DIFFERENCE IN SPHERE  2 =  0.0260221

:DIS  :  CHARGE DISTANCE       ( 0.0260221 for atom    2 spin 1)      0.0233523
:BIG check (qbig,qrms,qtot)    0.867D-02   0.167D-01   0.234D-01
 
******************************************************
* MULTISECANT MIXING VER6 RELEASE 6.0 OPTIONS        *
* Standard Mode with controls                        *
* Regularization       1.000E-06                     *
* Trust Region Control Active                        *
* Max Number of Memory Steps    8                    *
******************************************************
 
:PLANE:  INTERSTITIAL TOTAL      2.51755 DISTAN  2.648E-01 % 
:CHARG:  CLM CHARGE   /ATOM    345.91065 DISTAN  1.441E-02 % 
 
 Step History DMIX, Red, Pred, Trust, FRMS, FABS
  2  2.5000E-02  1.0000E+00  1.0000E+00  1.0000E+00
  3  6.2500E-02  1.0000E+00  1.0000E+00  1.0000E+00
  
:NORMS:  Nuclear, Spectral, Froebius, Shanno-Pua   0.3169E+01  0.3047E+01  0.3049E+01  0.2841E+00
:INFO :  Number of Memory Steps    2 Skipping    0
:INFO :  SLambda=    3.0000000  Max    3.0000000

Eigenvalues, unscaled except for SY+YY
   #     SY Real        SY Imag          SS             YY         SY+YY Real      SY+YY Imag
   1   5.667167E-01   0.000000E+00   2.150689E-01   1.996802E+00   3.697856E+00   0.000000E+00
   2   1.054712E-15   0.000000E+00  -4.163336E-17   3.197508E-03   2.294253E-03   0.000000E+00
 
:INFO :  Increased using Multisecant Shanno-Phua
:INFO :  Singular value   3.700E+00 Weight  1.0000E+00 Projections   5.032E-01  9.427E-02
:INFO :  Singular value   2.293E-03 Weight  1.0000E+00 Projections  -6.279E-01 -7.991E-01
 
:DIRM :  MEMORY 2/8 RESCALE  15.54 RED 0.793 PRED 1.000 NEXT 0.491
:INFO :  Blimit    1.288E+00  9.846E-01  4.735E-01  1.865E+00
:DIRP :  |MSR1|= 1.517E-02 |PRATT|= 1.036E-01 ANGLE=   4.7 DEGREES
:DIRQ :  |MSR1|= 1.403E-02 |PRATT|= 9.967E-02 ANGLE=   8.0 DEGREES
:DIR  :  |MSR1|= 2.066E-02 |PRATT|= 1.438E-01 ANGLE=   6.5 DEGREES
:MIX  :   MSE1   REGULARIZATION: 2.00E-06  GREED: 0.071  Newton 1.00  0.14                
     
       CHARGES OF MIXED CHARGE DENSITY
:CTO   : INTERSTITIAL CHARGE =     7.528675
:CTO001: CHARGE SPHERE  1    =    86.178140
:CTO002: CHARGE SPHERE  2    =     7.146593

:NEC03: NUCLEAR AND ELECTRONIC CHARGE    108.00000   108.00000

PW CHANGE     H    K    L       Current     Change     Residue
:PTO001:      0    0    0  8.67816475E-02 -2.791E-06 -1.895E-06
:PTO002:     -1   -1   -1  2.11327148E-01 -1.450E-05 -1.427E-04
:PTO003:      0    0   -2  2.42646707E-04 -6.996E-05 -5.125E-04
:PTO004:      0   -2   -2  2.90465622E-01  1.216E-04  8.013E-04
:PTO005:     -1   -1   -3  1.55298574E-01  9.082E-05  5.830E-04
:PTO006:     -2   -2   -2 -1.98638438E-02  2.032E-05  1.123E-04
:PTO007:      0    0   -4  4.35433701E-02  1.146E-05  8.303E-05
:PTO008:     -1   -3   -3  3.11999266E-02  4.980E-05  3.400E-04
:PTO009:      0   -2   -4 -5.20476059E-02  1.785E-05  1.313E-04
:PTO010:     -2   -2   -4  4.49058820E-02  4.863E-05  3.241E-04
:PTO011:     -3   -3   -3 -4.79438067E-03  3.512E-05  2.333E-04
:PTO012:     -1   -1   -5 -4.70037477E-03 -1.739E-05 -1.062E-04

:ENE  : ********** TOTAL ENERGY IN Ry =       -56437.56545356


------- UO2_7.scf0 --------


            ---------
:ITE072: 72. ITERATION
            ---------

:NATO :    2 INDEPENDENT AND    3 TOTAL ATOMS IN UNITCELL
       SUBSTANCE: blebleble                                                   

       LATTICE                      = F   
:POT  : POTENTIAL OPTION    5
:LAT  : LATTICE CONSTANTS= 10.51208 10.51208 10.51208    1.571    1.571    1.571
:VOL  : UNIT CELL VOLUME =     290.40618
       MODE OF CALCULATION IS       = RELA
       NON-SPINPOLARIZED CALCULATION
:IFFT  : FFT-parameters:   90   90   90 Factor: 2.00
       ATOMNUMBER=  1 U  4+      VCOUL-ZERO = -0.51679E+00
       ATOMNUMBER=  2 O  2-      VCOUL-ZERO =  0.81165E+00
:FIT001: LUSE= 13 SIGMA OF V-XC FIT FOR ATOM  1  0.5380809E-04
:FIT001: LUSE= 13 SIGMA OF V-XC FIT FOR ATOM  1  0.5380809E-04
:FIT002: LUSE= 13 SIGMA OF V-XC FIT FOR ATOM  2  0.1105663E-03
:FIT002: LUSE= 13 SIGMA OF V-XC FIT FOR ATOM  2  0.1105663E-03
:DEN  : DENSITY INTEGRAL  =        -20897.55635256   (Ry)
       ELS_POTENTIAL_AT Z=0 and Z=0.5:  -3.35380  -3.35380
       ELS_POTENTIAL_AT Y=0 and Y=0.5:   0.00000   0.00000
:VZERO:v0,v0c,v0x  -4.06370  -3.35380  -0.70990 v5,v5c,v5x  -4.06370  -3.35380  -0.70990
:VZERY:v0,v0c,v0x  -0.85046   0.00000  -0.85046 v5,v5c,v5x  -0.85046   0.00000  -0.85046
:VZERX:v0,v0c,v0x  -0.85046   0.00000  -0.85046 v5,v5c,v5x  -0.85046   0.00000  -0.85046

------- UO2_7.scf1 --------

          ATOMIC SPHERE DEPENDENT PARAMETERS FOR ATOM  U  4+     
:e__0001: OVERALL ENERGY PARAMETER IS    0.7028
          OVERALL BASIS SET ON ATOM IS LAPW
:E0_0001: E( 0)=    0.7028
             APW+lo
:E0_0001: E( 0)=   -2.2695   E(BOTTOM)=   -3.616   E(TOP)=   -0.923  5  6   237
             LOCAL ORBITAL
:E1_0001: E( 1)=   -1.2800   E(BOTTOM)=   -1.883   E(TOP)= -200.000  4 -1   219
             APW+lo
:E1_0001: E( 1)=    1.1028
             LOCAL ORBITAL
:E3_0001: E( 3)=    0.9572   E(BOTTOM)=    0.169   E(TOP)=    1.746  1  2   175
             APW+lo
:E2_0001: E( 2)=    0.7288   E(BOTTOM)=    0.729   E(TOP)= -200.000  3 -1   109
             APW+lo

          ATOMIC SPHERE DEPENDENT PARAMETERS FOR ATOM  O  2-     
:e__0002: OVERALL ENERGY PARAMETER IS    0.7028
          OVERALL BASIS SET ON ATOM IS LAPW
:E0_0002: E( 0)=   -0.3152   E(BOTTOM)=   -1.682   E(TOP)=    1.052  1  2   234
             APW+lo
:E0_0002: E( 0)=    1.1028
             LOCAL ORBITAL
:E1_0002: E( 1)=    0.7028
             APW+lo

       K=   0.00000   0.00000   0.00000            1
:RKM  : MATRIX SIZE  755LOs:  30  RKM= 8.34  WEIGHT= 1.00  PGR:    
       EIGENVALUES ARE:
:EIG00001:      -2.3512311   -0.5205002   -0.5025054   -0.5025054   -0.5025054
:EIG00006:      -0.4233318    0.4024327    0.4024327    0.4024327    0.6215144
:EIG00011:       0.6215144    0.6215144    0.9300948    0.9300948    0.9300948
:EIG00016:       0.9640295    0.9920483    0.9920483    0.9920483    1.0645994
:EIG00021:       1.1044093    1.1044093    1.5756891    1.5756891    1.5756891
:EIG00026:       1.8002203    1.8002203    1.8002203    2.1680309    2.5140901
:EIG00031:       2.5140901    2.5370906    2.5370906    2.5370906    2.8968176
:EIG00036:       2.8968176    2.8968176    3.0554920    3.0554920    3.0554920
:EIG00041:       3.1392703    3.4964850    3.4964850    3.5919481    3.5919481
:EIG00046:       3.5919481    3.6524540    3.6524540    3.6581643    3.6581643
 
:EIG00051:       3.6581643    3.7550294    3.9015903    3.9015903    3.9015903
:EIG00056:       3.9584738    4.0220172    4.0220172    4.0220172    4.0655065
:EIG00061:       4.0655065    4.0655065    4.1128770    4.1128770    4.1128770
:EIG00066:       4.4308580    4.9537595    4.9537595    4.9537595    5.1859961
:EIG00071:       5.1859961    5.2199032    5.2199032    5.2199032    5.3986595
:EIG00076:       5.8104748    5.8104748    5.8317106    5.8317106    5.8317106
:EIG00081:       5.9937156    5.9937156    5.9937156    6.1144506    6.1144506
:EIG00086:       6.1144506    6.3673359    6.3673359    6.3673359    6.4468899
:EIG00091:       6.4755699    6.4755699    6.5261987    6.5261987    6.5655255
:EIG00096:       6.5655255    6.5655255    6.7433194    6.7618466    6.7618466
 
:EIG00101:       6.7618466    6.8113542    6.8113542    6.8113542    6.9526991
:EIG00106:       6.9526991    6.9526991    6.9591739    7.1493819    7.2075239
:EIG00111:       7.2075239    7.2075239    7.2327469    7.2327469    7.2430699
:EIG00116:       7.2430699    7.2430699    7.3291764    7.3291764    7.3291764
:EIG00121:       7.5648398    7.5648398    7.5648398    7.9976983    7.9976983
:EIG00126:       7.9976983    8.0626017    8.0626017    8.0626017    8.1705652
:EIG00131:       8.1705652    8.1705652    8.1707211    8.2240609    8.2240609
:EIG00136:       8.3726075    8.3726075
       ********************************************************

:KPT   :      NUMBER OF K-POINTS:   145

------- UO2_7.scfso --------
   0.0   0.0 angle (M,z), angle (M,x) deg
 
        SPIN-ORBIT EIGENVALUES:
     K=   0.00000   0.00000   0.00000            1
      MATRIX SIZE=  274   WEIGHT= 1.00
     EIGENVALUES ARE:
          -2.3512311   -2.3512311   -0.9102440   -0.9102440   -0.5205002
          -0.5205002   -0.4233353   -0.4233353   -0.3370056   -0.3370056
          -0.3370056   -0.3370056    0.4005592    0.4005592    0.4005592
           0.4005592    0.4053428    0.4053428    0.6166057    0.6166057
           0.6236232    0.6236232    0.6236232    0.6236232    0.9013877
           0.9013877    0.9206995    0.9206995    0.9206995    0.9206995
           0.9825872    0.9825872    0.9968700    0.9968700    0.9968700
           0.9968700    1.0113652    1.0113652    1.0645994    1.0645994

           1.1023331    1.1023331    1.1023331    1.1023331    1.5646219
           1.5646219    1.5646219    1.5646219    1.5980687    1.5980687
           1.7384863    1.7384863    1.8280705    1.8280705    1.8280705
           1.8280705    2.1680309    2.1680309    2.5055440    2.5055440
           2.5055440    2.5055440    2.5410574    2.5410574    2.5410574
           2.5410574    2.5462591    2.5462591    2.7311465    2.7311465
           2.9882629    2.9882629    2.9882629    2.9882629    3.0521514
           3.0521514    3.0571264    3.0571264    3.0571264    3.0571264

           3.1400929    3.1400929    3.4918187    3.4918187    3.4918187
           3.4918187    3.5887435    3.5887435    3.5887435    3.5887435
           3.6095205    3.6095205    3.6524540    3.6524540    3.6524540
           3.6524540    3.6581485    3.6581485    3.6581722    3.6581722
           3.6581722    3.6581722    3.7550294    3.7550294    3.9016219
           3.9016219    3.9016219    3.9016219    3.9020415    3.9020415
           3.9584738    3.9584738    4.0220197    4.0220197    4.0220197
           4.0220197    4.0220309    4.0220309    4.0588376    4.0588376

           4.0697204    4.0697204    4.0697204    4.0697204    4.1117053
           4.1117053    4.1141276    4.1141276    4.1141276    4.1141276
           4.4310246    4.4310246
       ********************************************************

------- UO2_7.scf2 --------
:GMA  : POTENTIAL AND CHARGE CUT-OFF  12.00 Ry**.5
         Bandranges (emin - emax) and occupancy:
:BAN00018:  18    0.405343    0.606295  1.00000000
:BAN00019:  19    0.503202    0.617990  1.00000000
:BAN00020:  20    0.503202    0.617990  1.00000000
:BAN00021:  21    0.579071    0.643808  1.00000000
:BAN00022:  22    0.579071    0.643808  1.00000000
:BAN00023:  23    0.616467    0.673155  1.00000000
:BAN00024:  24    0.616467    0.673155  1.00000000
:BAN00025:  25    0.857321    0.901388  0.94508509
:BAN00026:  26    0.857321    0.901388  0.94508509
:BAN00027:  27    0.892866    0.920700  0.05491491
:BAN00028:  28    0.892866    0.920700  0.05491491
:BAN00029:  29    0.899587    0.920700  0.00000000
:BAN00030:  30    0.899587    0.920700  0.00000000
:BAN00031:  31    0.924235    0.982600  0.00000000
:BAN00032:  32    0.924235    0.982600  0.00000000
:BAN00033:  33    0.952089    0.996870  0.00000000
        Energy to separate low and high energystates:    0.80732


:NLDA  : NUMBER OF ELECTRONS          =  26.000

:FLDA  : F E R M I - ENERGY           =   1.39512




:POS001: AT.NR.   1 POSITION = 0.00000 0.00000 0.00000  MULTIPLICITY =  1

       LMMAX  5
       LM=   0 0  4 0  4 4  6 0  6 4




:POS002: AT.NR.   2 POSITION = 0.00000 0.00000 0.00000  MULTIPLICITY =  2

       LMMAX  6
       LM=   0 0  4 0  4 4  6 0  6 4 -3 2
:FER DMFT Fermi Energy   0.86624
:EORB          0.077585322
:SUM SUM OF DMFT BAND ENERGIES         -1.428181165

:CHA001: TOTAL CHARGE INSIDE SPHERE   1 =     8.195861
:PCS001: PARTIAL CHARGES SPHERE =  1 S,P,D,F,      D-EG,D-T2G 
:QTL001: 1.7973 4.1744 0.2325 1.9886 0.0000 0.0000 0.0000 0.0528 0.1937 0.0000 0.0000 0.0000
        Q-s-low E-s-low   Q-p-low E-p-low   Q-d-low E-d-low   Q-f-low E-f-low
:EPL001:  1.7971 -2.2685    4.1727 -0.4830    0.2303  0.4512    0.2364  0.5767
        Q-s-hi  E-s-hi    Q-p-hi  E-p-hi    Q-d-hi  E-d-hi    Q-f-hi  E-f-hi 
:EPH001:  0.0002  0.9407    0.0017  0.9159    0.0022  0.9158    1.7522  0.8886

:CHA002: TOTAL CHARGE INSIDE SPHERE   2 =     5.157719
:PCS002: PARTIAL CHARGES SPHERE =  2 S,P,D,F,      D-EG,D-T2G 
:QTL002: 1.5768 3.5695 0.0097 0.0014 0.0000 0.0000 0.0000 0.0034 0.0106 0.0000 0.0000 0.0000
        Q-s-low E-s-low   Q-p-low E-p-low   Q-d-low E-d-low   Q-f-low E-f-low
:EPL002:  1.5752 -0.4465    3.5511  0.5364    0.0078  0.0090    0.0012 -0.1172
        Q-s-hi  E-s-hi    Q-p-hi  E-p-hi    Q-d-hi  E-d-hi    Q-f-hi  E-f-hi 
:EPH002:  0.0016  0.9062    0.0184  0.9099    0.0019  0.8848    0.0002  0.8941

:CHA  : TOTAL CHARGE INSIDE UNIT CELL =      26.000000

:ESUM  : SUM OF EIGENVALUES =          -1.381803549


------- UO2_7.scfc --------

        1.ATOM      U  4+                21 CORE STATES
:1S 001: 1S               -8506.379573218 Ry
:2S 001: 2S               -1587.827172162 Ry
:2PP001: 2P*              -1531.073078670 Ry
:2P 001: 2P               -1249.877193349 Ry
:3S 001: 3S                -399.967366811 Ry
:3PP001: 3P*               -374.194128474 Ry
:3P 001: 3P                -309.410811378 Ry
:3DD001: 3D*               -268.598438151 Ry
:3D 001: 3D                -255.453184185 Ry
:4S 001: 4S                -101.036135431 Ry
:4PP001: 4P*                -89.442586934 Ry
:4P 001: 4P                 -72.532773981 Ry
:4DD001: 4D*                -54.067975430 Ry
:4D 001: 4D                 -50.959368947 Ry
:5S 001: 5S                 -21.628197582 Ry
:5PP001: 5P*                -17.121469845 Ry
:5P 001: 5P                 -13.091306965 Ry
:4FF001: 4F*                -26.672945458 Ry
:4F 001: 4F                 -25.862940801 Ry
:5DD001: 5D*                 -6.502258746 Ry
:5D 001: 5D                  -5.904098420 Ry

        2.ATOM      O  2-                 1 CORE STATES
:1S 002: 1S                 -36.038766211 Ry

------- UO2_7.scfm --------
:CINT001 Core Integral Atom   1   77.964383
:CINT002 Core Integral Atom   2    2.000000
     
       CHARGES OF NEW CHARGE DENSITY
:NTO   : INTERSTITIAL CHARGE =     7.488705
:NTO001: CHARGE SPHERE  1    =    86.160243
:NTO002: CHARGE SPHERE  2    =     7.157719

:NEC01: NUCLEAR AND ELECTRONIC CHARGE    108.00000   107.96439
     
       CHARGES OF OLD CHARGE DENSITY
:OTO   : INTERSTITIAL CHARGE =     7.528675
:OTO001: CHARGE SPHERE  1    =    86.178140
:OTO002: CHARGE SPHERE  2    =     7.146593
:DNEW  1   -0.0179
:DNEW  2    0.0111

:NEC02: NUCLEAR AND ELECTRONIC CHARGE    108.00000   108.00000
     
       CONVERGENCE TEST
:DTO001: DIFFERENCE IN SPHERE  1 =  0.0131750
:DTO002: DIFFERENCE IN SPHERE  2 =  0.0115635

:DIS  :  CHARGE DISTANCE       ( 0.0131750 for atom    1 spin 1)      0.0121007
:BIG check (qbig,qrms,qtot)    0.439D-02   0.857D-02   0.121D-01
 
******************************************************
* MULTISECANT MIXING VER6 RELEASE 6.0 OPTIONS        *
* Standard Mode with controls                        *
* Regularization       1.000E-06                     *
* Trust Region Control Active                        *
* Max Number of Memory Steps    8                    *
******************************************************
 
:PLANE:  INTERSTITIAL TOTAL      2.51790 DISTAN  1.925E-01 % 
:CHARG:  CLM CHARGE   /ATOM    345.91074 DISTAN  8.662E-03 % 
 
 Step History DMIX, Red, Pred, Trust, FRMS, FABS
  2  2.5000E-02  1.0000E+00  1.0000E+00  1.0000E+00
  3  6.2500E-02  7.9338E-01  1.0000E+00  1.0000E+00
  4  7.1023E-02  1.0000E+00  4.9141E-01  1.8647E+00
  
:NORMS:  Nuclear, Spectral, Froebius, Shanno-Pua   0.3062E+01  0.3079E+01  0.3077E+01  0.2752E+00
:INFO :  Number of Memory Steps    3 Skipping    0
:INFO :  SLambda=    3.0000000  Max    3.0000000

Eigenvalues, unscaled except for SY+YY
   #     SY Real        SY Imag          SS             YY         SY+YY Real      SY+YY Imag
   1   8.239512E-01   0.000000E+00   3.160142E-01   2.996089E+00   5.469014E+00   0.000000E+00
   2   3.496294E-16   0.000000E+00   2.640195E-17   3.683101E-03   3.057505E-04   0.000000E+00
   3   1.636503E-03   0.000000E+00   7.766427E-04   2.277340E-04   7.443605E-03   0.000000E+00
 
:INFO :  Singular value   5.471E+00 Weight  1.0000E+00 Projections   4.316E-01  4.321E-02
:INFO :  Singular value   7.501E-03 Weight  1.0000E+00 Projections   7.141E-01 -1.312E+00
:INFO :  Singular value   3.033E-04 Weight  9.9990E-01 Projections  -1.200E+00  6.441E-01
 
:DIRM :  MEMORY 3/8 RESCALE  14.68 RED 0.666 PRED 0.491 NEXT 0.101
:INFO :  Blimit    1.600E+00  9.797E-01  5.678E-01  2.225E+00
:DIRP :  |MSR1|= 3.683E-02 |PRATT|= 7.115E-02 ANGLE=  35.3 DEGREES
:DIRQ :  |MSR1|= 2.284E-02 |PRATT|= 5.992E-02 ANGLE=  63.2 DEGREES
:DIR  :  |MSR1|= 4.334E-02 |PRATT|= 9.302E-02 ANGLE=  46.9 DEGREES
:MIX  :   MSE1   REGULARIZATION: 3.00E-06  GREED: 0.085  Newton 1.00  0.47                
     
       CHARGES OF MIXED CHARGE DENSITY
:CTO   : INTERSTITIAL CHARGE =     7.526200
:CTO001: CHARGE SPHERE  1    =    86.180138
:CTO002: CHARGE SPHERE  2    =     7.146831

:NEC03: NUCLEAR AND ELECTRONIC CHARGE    108.00000   108.00000

PW CHANGE     H    K    L       Current     Change     Residue
:PTO001:      0    0    0  8.67919623E-02  1.031E-05  3.119E-05
:PTO002:     -1   -1   -1  2.11422900E-01  9.575E-05 -1.992E-05
:PTO003:      0    0   -2  2.78370261E-04  3.572E-05 -2.378E-04
:PTO004:      0   -2   -2  2.90654638E-01  1.890E-04  5.210E-04
:PTO005:     -1   -1   -3  1.55649225E-01  3.507E-04  5.798E-04
:PTO006:     -2   -2   -2 -1.96566124E-02  2.072E-04  2.326E-04
:PTO007:      0    0   -4  4.35225028E-02 -2.087E-05  2.156E-05
:PTO008:     -1   -3   -3  3.13809676E-02  1.810E-04  3.402E-04
:PTO009:      0   -2   -4 -5.18213993E-02  2.262E-04  3.053E-04
:PTO010:     -2   -2   -4  4.49605605E-02  5.468E-05  1.924E-04
:PTO011:     -3   -3   -3 -4.70509989E-03  8.928E-05  1.897E-04
:PTO012:     -1   -1   -5 -4.73922914E-03 -3.885E-05 -7.278E-05

:ENE  : ********** TOTAL ENERGY IN Ry =       -56437.56557197


------- UO2_7.scf0 --------


            ---------
:ITE073: 73. ITERATION
            ---------

:NATO :    2 INDEPENDENT AND    3 TOTAL ATOMS IN UNITCELL
       SUBSTANCE: blebleble                                                   

       LATTICE                      = F   
:POT  : POTENTIAL OPTION    5
:LAT  : LATTICE CONSTANTS= 10.51208 10.51208 10.51208    1.571    1.571    1.571
:VOL  : UNIT CELL VOLUME =     290.40618
       MODE OF CALCULATION IS       = RELA
       NON-SPINPOLARIZED CALCULATION
:IFFT  : FFT-parameters:   90   90   90 Factor: 2.00
       ATOMNUMBER=  1 U  4+      VCOUL-ZERO = -0.51711E+00
       ATOMNUMBER=  2 O  2-      VCOUL-ZERO =  0.81208E+00
:FIT001: LUSE= 13 SIGMA OF V-XC FIT FOR ATOM  1  0.5442501E-04
:FIT001: LUSE= 13 SIGMA OF V-XC FIT FOR ATOM  1  0.5442501E-04
:FIT002: LUSE= 13 SIGMA OF V-XC FIT FOR ATOM  2  0.1090534E-03
:FIT002: LUSE= 13 SIGMA OF V-XC FIT FOR ATOM  2  0.1090534E-03
:DEN  : DENSITY INTEGRAL  =        -20898.02623507   (Ry)
       ELS_POTENTIAL_AT Z=0 and Z=0.5:  -3.35438  -3.35438
       ELS_POTENTIAL_AT Y=0 and Y=0.5:   0.00000   0.00000
:VZERO:v0,v0c,v0x  -4.06352  -3.35438  -0.70914 v5,v5c,v5x  -4.06352  -3.35438  -0.70914
:VZERY:v0,v0c,v0x  -0.85040   0.00000  -0.85040 v5,v5c,v5x  -0.85040   0.00000  -0.85040
:VZERX:v0,v0c,v0x  -0.85040   0.00000  -0.85040 v5,v5c,v5x  -0.85040   0.00000  -0.85040

------- UO2_7.scf1 --------

          ATOMIC SPHERE DEPENDENT PARAMETERS FOR ATOM  U  4+     
:e__0001: OVERALL ENERGY PARAMETER IS    0.7028
          OVERALL BASIS SET ON ATOM IS LAPW
:E0_0001: E( 0)=    0.7028
             APW+lo
:E0_0001: E( 0)=   -2.2679   E(BOTTOM)=   -3.615   E(TOP)=   -0.921  5  6   234
             LOCAL ORBITAL
:E1_0001: E( 1)=   -1.2800   E(BOTTOM)=   -1.882   E(TOP)= -200.000  4 -1   215
             APW+lo
:E1_0001: E( 1)=    1.1028
             LOCAL ORBITAL
:E3_0001: E( 3)=    0.9593   E(BOTTOM)=    0.170   E(TOP)=    1.748  1  2   174
             APW+lo
:E2_0001: E( 2)=    0.7298   E(BOTTOM)=    0.730   E(TOP)= -200.000  3 -1   109
             APW+lo

          ATOMIC SPHERE DEPENDENT PARAMETERS FOR ATOM  O  2-     
:e__0002: OVERALL ENERGY PARAMETER IS    0.7028
          OVERALL BASIS SET ON ATOM IS LAPW
:E0_0002: E( 0)=   -0.3154   E(BOTTOM)=   -1.683   E(TOP)=    1.052  1  2   239
             APW+lo
:E0_0002: E( 0)=    1.1028
             LOCAL ORBITAL
:E1_0002: E( 1)=    0.7028
             APW+lo

       K=   0.00000   0.00000   0.00000            1
:RKM  : MATRIX SIZE  755LOs:  30  RKM= 8.34  WEIGHT= 1.00  PGR:    
       EIGENVALUES ARE:
:EIG00001:      -2.3499379   -0.5205612   -0.5017359   -0.5017359   -0.5017359
:EIG00006:      -0.4234492    0.4024038    0.4024038    0.4024038    0.6216153
:EIG00011:       0.6216153    0.6216153    0.9319192    0.9319192    0.9319192
:EIG00016:       0.9661210    0.9934179    0.9934179    0.9934179    1.0645713
:EIG00021:       1.1045981    1.1045981    1.5758937    1.5758937    1.5758937
:EIG00026:       1.8004182    1.8004182    1.8004182    2.1681056    2.5142610
:EIG00031:       2.5142610    2.5371873    2.5371873    2.5371873    2.8971631
:EIG00036:       2.8971631    2.8971631    3.0559017    3.0559017    3.0559017
:EIG00041:       3.1395263    3.4967447    3.4967447    3.5922184    3.5922184
:EIG00046:       3.5922184    3.6525109    3.6525109    3.6581985    3.6581985
 
:EIG00051:       3.6581985    3.7552864    3.9017126    3.9017126    3.9017126
:EIG00056:       3.9584694    4.0220470    4.0220470    4.0220470    4.0657154
:EIG00061:       4.0657154    4.0657154    4.1130374    4.1130374    4.1130374
:EIG00066:       4.4311664    4.9537183    4.9537183    4.9537183    5.1861839
:EIG00071:       5.1861839    5.2199263    5.2199263    5.2199263    5.3987180
:EIG00076:       5.8106926    5.8106926    5.8321744    5.8321744    5.8321744
:EIG00081:       5.9938782    5.9938782    5.9938782    6.1147616    6.1147616
:EIG00086:       6.1147616    6.3674413    6.3674413    6.3674413    6.4469589
:EIG00091:       6.4755925    6.4755925    6.5264089    6.5264089    6.5656744
:EIG00096:       6.5656744    6.5656744    6.7434489    6.7619090    6.7619090
 
:EIG00101:       6.7619090    6.8113981    6.8113981    6.8113981    6.9526779
:EIG00106:       6.9526779    6.9526779    6.9594790    7.1493385    7.2076750
:EIG00111:       7.2076750    7.2076750    7.2327562    7.2327562    7.2430710
:EIG00116:       7.2430710    7.2430710    7.3294047    7.3294047    7.3294047
:EIG00121:       7.5651938    7.5651938    7.5651938    7.9978709    7.9978709
:EIG00126:       7.9978709    8.0627614    8.0627614    8.0627614    8.1706515
:EIG00131:       8.1706515    8.1706515    8.1709905    8.2240994    8.2240994
:EIG00136:       8.3726246    8.3726246
       ********************************************************

:KPT   :      NUMBER OF K-POINTS:   145

------- UO2_7.scfso --------
   0.0   0.0 angle (M,z), angle (M,x) deg
 
        SPIN-ORBIT EIGENVALUES:
     K=   0.00000   0.00000   0.00000            1
      MATRIX SIZE=  274   WEIGHT= 1.00
     EIGENVALUES ARE:
          -2.3499379   -2.3499379   -0.9093018   -0.9093018   -0.5205612
          -0.5205612   -0.4234527   -0.4234527   -0.3363144   -0.3363144
          -0.3363144   -0.3363144    0.4005332    0.4005332    0.4005332
           0.4005332    0.4053095    0.4053095    0.6166596    0.6166596
           0.6237619    0.6237619    0.6237619    0.6237619    0.9033100
           0.9033100    0.9224340    0.9224340    0.9224340    0.9224340
           0.9845907    0.9845907    0.9983110    0.9983110    0.9983110
           0.9983110    1.0127316    1.0127316    1.0645713    1.0645713

           1.1025231    1.1025231    1.1025231    1.1025231    1.5648323
           1.5648323    1.5648323    1.5648323    1.5982604    1.5982604
           1.7387206    1.7387206    1.8282514    1.8282514    1.8282514
           1.8282514    2.1681056    2.1681056    2.5056941    2.5056941
           2.5056941    2.5056941    2.5411718    2.5411718    2.5411718
           2.5411718    2.5463607    2.5463607    2.7314476    2.7314476
           2.9886252    2.9886252    2.9886252    2.9886252    3.0525572
           3.0525572    3.0575371    3.0575371    3.0575371    3.0575371

           3.1403510    3.1403510    3.4920772    3.4920772    3.4920772
           3.4920772    3.5890135    3.5890135    3.5890135    3.5890135
           3.6097935    3.6097935    3.6525109    3.6525109    3.6525109
           3.6525109    3.6581827    3.6581827    3.6582063    3.6582063
           3.6582063    3.6582063    3.7552864    3.7552864    3.9017393
           3.9017393    3.9017393    3.9017393    3.9021699    3.9021699
           3.9584694    3.9584694    4.0220494    4.0220494    4.0220494
           4.0220494    4.0220609    4.0220609    4.0590478    4.0590478

           4.0699278    4.0699278    4.0699278    4.0699278    4.1118641
           4.1118641    4.1142914    4.1142914    4.1142914    4.1142914
           4.4313333    4.4313333
       ********************************************************

------- UO2_7.scf2 --------
:GMA  : POTENTIAL AND CHARGE CUT-OFF  12.00 Ry**.5
         Bandranges (emin - emax) and occupancy:
:BAN00018:  18    0.405309    0.606442  1.00000000
:BAN00019:  19    0.503225    0.617893  1.00000000
:BAN00020:  20    0.503225    0.617893  1.00000000
:BAN00021:  21    0.579115    0.643822  1.00000000
:BAN00022:  22    0.579115    0.643822  1.00000000
:BAN00023:  23    0.616581    0.673152  1.00000000
:BAN00024:  24    0.616581    0.673152  1.00000000
:BAN00025:  25    0.858877    0.903310  0.94420501
:BAN00026:  26    0.858877    0.903310  0.94420501
:BAN00027:  27    0.894484    0.922434  0.05579499
:BAN00028:  28    0.894484    0.922434  0.05579499
:BAN00029:  29    0.901219    0.922434  0.00000000
:BAN00030:  30    0.901219    0.922434  0.00000000
:BAN00031:  31    0.925886    0.984593  0.00000000
:BAN00032:  32    0.925886    0.984593  0.00000000
:BAN00033:  33    0.953690    0.998311  0.00000000
        Energy to separate low and high energystates:    0.80888


:NLDA  : NUMBER OF ELECTRONS          =  26.000

:FLDA  : F E R M I - ENERGY           =   1.39678




:POS001: AT.NR.   1 POSITION = 0.00000 0.00000 0.00000  MULTIPLICITY =  1

       LMMAX  5
       LM=   0 0  4 0  4 4  6 0  6 4




:POS002: AT.NR.   2 POSITION = 0.00000 0.00000 0.00000  MULTIPLICITY =  2

       LMMAX  6
       LM=   0 0  4 0  4 4  6 0  6 4 -3 2
:FER DMFT Fermi Energy   0.86778
:EORB          0.077194496
:SUM SUM OF DMFT BAND ENERGIES         -1.417923710

:CHA001: TOTAL CHARGE INSIDE SPHERE   1 =     8.189430
:PCS001: PARTIAL CHARGES SPHERE =  1 S,P,D,F,      D-EG,D-T2G 
:QTL001: 1.7971 4.1736 0.2322 1.9835 0.0000 0.0000 0.0000 0.0528 0.1935 0.0000 0.0000 0.0000
        Q-s-low E-s-low   Q-p-low E-p-low   Q-d-low E-d-low   Q-f-low E-f-low
:EPL001:  1.7969 -2.2672    4.1719 -0.4821    0.2301  0.4513    0.2329  0.5761
        Q-s-hi  E-s-hi    Q-p-hi  E-p-hi    Q-d-hi  E-d-hi    Q-f-hi  E-f-hi 
:EPH001:  0.0002  0.9412    0.0017  0.9172    0.0022  0.9169    1.7506  0.8903

:CHA002: TOTAL CHARGE INSIDE SPHERE   2 =     5.160802
:PCS002: PARTIAL CHARGES SPHERE =  2 S,P,D,F,      D-EG,D-T2G 
:QTL002: 1.5769 3.5725 0.0097 0.0014 0.0000 0.0000 0.0000 0.0034 0.0106 0.0000 0.0000 0.0000
        Q-s-low E-s-low   Q-p-low E-p-low   Q-d-low E-d-low   Q-f-low E-f-low
:EPL002:  1.5753 -0.4466    3.5542  0.5364    0.0078  0.0089    0.0012 -0.1173
        Q-s-hi  E-s-hi    Q-p-hi  E-p-hi    Q-d-hi  E-d-hi    Q-f-hi  E-f-hi 
:EPH002:  0.0016  0.9078    0.0183  0.9114    0.0019  0.8864    0.0002  0.8958

:CHA  : TOTAL CHARGE INSIDE UNIT CELL =      26.000000

:ESUM  : SUM OF EIGENVALUES =          -1.371336220


------- UO2_7.scfc --------

        1.ATOM      U  4+                21 CORE STATES
:1S 001: 1S               -8506.371423521 Ry
:2S 001: 2S               -1587.819303214 Ry
:2PP001: 2P*              -1531.065140069 Ry
:2P 001: 2P               -1249.869321179 Ry
:3S 001: 3S                -399.960093637 Ry
:3PP001: 3P*               -374.186795862 Ry
:3P 001: 3P                -309.403602625 Ry
:3DD001: 3D*               -268.591084621 Ry
:3D 001: 3D                -255.445866850 Ry
:4S 001: 4S                -101.030001399 Ry
:4PP001: 4P*                -89.436439833 Ry
:4P 001: 4P                 -72.526843078 Ry
:4DD001: 4D*                -54.062018641 Ry
:4D 001: 4D                 -50.953475419 Ry
:5S 001: 5S                 -21.623877290 Ry
:5PP001: 5P*                -17.117281354 Ry
:5P 001: 5P                 -13.087506358 Ry
:4FF001: 4F*                -26.666977220 Ry
:4F 001: 4F                 -25.857004334 Ry
:5DD001: 5D*                 -6.498880060 Ry
:5D 001: 5D                  -5.900845803 Ry

        2.ATOM      O  2-                 1 CORE STATES
:1S 002: 1S                 -36.040482318 Ry

------- UO2_7.scfm --------
:CINT001 Core Integral Atom   1   77.964328
:CINT002 Core Integral Atom   2    2.000000
     
       CHARGES OF NEW CHARGE DENSITY
:NTO   : INTERSTITIAL CHARGE =     7.488966
:NTO001: CHARGE SPHERE  1    =    86.153758
:NTO002: CHARGE SPHERE  2    =     7.160802

:NEC01: NUCLEAR AND ELECTRONIC CHARGE    108.00000   107.96433
     
       CHARGES OF OLD CHARGE DENSITY
:OTO   : INTERSTITIAL CHARGE =     7.526200
:OTO001: CHARGE SPHERE  1    =    86.180138
:OTO002: CHARGE SPHERE  2    =     7.146831
:DNEW  1   -0.0264
:DNEW  2    0.0140

:NEC02: NUCLEAR AND ELECTRONIC CHARGE    108.00000   108.00000
     
       CONVERGENCE TEST
:DTO001: DIFFERENCE IN SPHERE  1 =  0.0239099
:DTO002: DIFFERENCE IN SPHERE  2 =  0.0165164

:DIS  :  CHARGE DISTANCE       ( 0.0239099 for atom    1 spin 1)      0.0189809
:BIG check (qbig,qrms,qtot)    0.797D-02   0.136D-01   0.190D-01
 
******************************************************
* MULTISECANT MIXING VER6 RELEASE 6.0 OPTIONS        *
* Standard Mode with controls                        *
* Regularization       1.000E-06                     *
* Trust Region Control Active                        *
* Max Number of Memory Steps    8                    *
******************************************************
 
:PLANE:  INTERSTITIAL TOTAL      2.51897 DISTAN  1.471E-01 % 
:CHARG:  CLM CHARGE   /ATOM    345.91214 DISTAN  1.006E-02 % 
 
 Step History DMIX, Red, Pred, Trust, FRMS, FABS
  2  2.5000E-02  1.0000E+00  1.0000E+00  1.0000E+00
  3  6.2500E-02  7.9338E-01  1.0000E+00  1.0000E+00
  4  7.1023E-02  6.6590E-01  4.9141E-01  1.8647E+00
  5  8.5163E-02  1.0000E+00  1.0067E-01  2.2250E+00
  
:NORMS:  Nuclear, Spectral, Froebius, Shanno-Pua   0.1690E+01  0.1288E+01  0.1445E+01  0.6462E+00
:INFO :  Number of Memory Steps    4 Skipping    0
:INFO :  SLambda=    1.6904845  Max    1.6904845

Eigenvalues, unscaled except for SY+YY
   #     SY Real        SY Imag          SS             YY         SY+YY Real      SY+YY Imag
   1   2.125613E+00   0.000000E+00   1.838329E+00   3.047867E+00   6.586698E+00   0.000000E+00
   2   2.882639E-01   0.000000E+00   7.706030E-02   9.505404E-01   1.492546E+00   0.000000E+00
   3  -8.679419E-07   0.000000E+00  -4.652955E-16   1.590552E-03   1.373464E-03   0.000000E+00
   4  -5.634408E-16   0.000000E+00   2.255290E-07   2.154062E-06   2.204937E-06   0.000000E+00
 
:INFO :  Increased using Multisecant Shanno-Phua
:INFO :  Singular value   6.598E+00 Weight  1.0000E+00 Projections   8.900E-01  2.473E-02
:INFO :  Singular value   1.490E+00 Weight  1.0000E+00 Projections  -6.543E-01  6.174E-02
:INFO :  Singular value   1.373E-03 Weight  1.0000E+00 Projections  -3.901E-01  1.112E+00
:INFO :  Singular value   2.205E-06 Weight  3.4356E-01 Projections   2.468E-01 -4.399E-01
 
:DIRM :  MEMORY 4/8 RESCALE  15.42 RED 0.940 PRED 0.101 NEXT 0.108
:INFO :  Blimit    2.782E+00  1.313E+00  9.797E-01  5.145E+00
:DIRP :  |MSR1|= 7.845E-04 |PRATT|= 5.715E-02 ANGLE=  68.5 DEGREES
:DIRQ :  |MSR1|= 9.491E-04 |PRATT|= 6.957E-02 ANGLE=  76.1 DEGREES
:DIR  :  |MSR1|= 1.231E-03 |PRATT|= 9.003E-02 ANGLE=  73.0 DEGREES
:MIX  :   MSE1   REGULARIZATION: 3.05E-06  GREED: 0.147  Newton 1.00  0.01                
     
       CHARGES OF MIXED CHARGE DENSITY
:CTO   : INTERSTITIAL CHARGE =     7.526174
:CTO001: CHARGE SPHERE  1    =    86.180101
:CTO002: CHARGE SPHERE  2    =     7.146863

:NEC03: NUCLEAR AND ELECTRONIC CHARGE    108.00000   108.00000

PW CHANGE     H    K    L       Current     Change     Residue
:PTO001:      0    0    0  8.67916659E-02 -2.964E-07  1.591E-05
:PTO002:     -1   -1   -1  2.11420610E-01 -2.289E-06 -2.226E-04
:PTO003:      0    0   -2  2.75642349E-04 -2.728E-06 -3.907E-04
:PTO004:      0   -2   -2  2.90653659E-01 -9.791E-07  3.004E-04
:PTO005:     -1   -1   -3  1.55649868E-01  6.429E-07  9.165E-05
:PTO006:     -2   -2   -2 -1.96528837E-02  3.729E-06 -5.516E-05
:PTO007:      0    0   -4  4.35196203E-02 -2.882E-06  3.968E-05
:PTO008:     -1   -3   -3  3.13783107E-02 -2.657E-06  7.375E-05
:PTO009:      0   -2   -4 -5.18192283E-02  2.171E-06 -1.397E-05
:PTO010:     -2   -2   -4  4.49572720E-02 -3.288E-06  1.153E-04
:PTO011:     -3   -3   -3 -4.70311594E-03  1.984E-06  9.403E-05
:PTO012:     -1   -1   -5 -4.74239302E-03 -3.164E-06 -5.162E-05

:ENE  : ********** TOTAL ENERGY IN Ry =       -56437.56565859


------- UO2_7.scf0 --------


            ---------
:ITE074: 74. ITERATION
            ---------

:NATO :    2 INDEPENDENT AND    3 TOTAL ATOMS IN UNITCELL
       SUBSTANCE: blebleble                                                   

       LATTICE                      = F   
:POT  : POTENTIAL OPTION    5
:LAT  : LATTICE CONSTANTS= 10.51208 10.51208 10.51208    1.571    1.571    1.571
:VOL  : UNIT CELL VOLUME =     290.40618
       MODE OF CALCULATION IS       = RELA
       NON-SPINPOLARIZED CALCULATION
:IFFT  : FFT-parameters:   90   90   90 Factor: 2.00
       ATOMNUMBER=  1 U  4+      VCOUL-ZERO = -0.51714E+00
       ATOMNUMBER=  2 O  2-      VCOUL-ZERO =  0.81211E+00
:FIT001: LUSE= 13 SIGMA OF V-XC FIT FOR ATOM  1  0.5441938E-04
:FIT001: LUSE= 13 SIGMA OF V-XC FIT FOR ATOM  1  0.5441938E-04
:FIT002: LUSE= 13 SIGMA OF V-XC FIT FOR ATOM  2  0.1089807E-03
:FIT002: LUSE= 13 SIGMA OF V-XC FIT FOR ATOM  2  0.1089807E-03
:DEN  : DENSITY INTEGRAL  =        -20897.99617352   (Ry)
       ELS_POTENTIAL_AT Z=0 and Z=0.5:  -3.35444  -3.35444
       ELS_POTENTIAL_AT Y=0 and Y=0.5:   0.00000   0.00000
:VZERO:v0,v0c,v0x  -4.06355  -3.35444  -0.70911 v5,v5c,v5x  -4.06355  -3.35444  -0.70911
:VZERY:v0,v0c,v0x  -0.85040   0.00000  -0.85040 v5,v5c,v5x  -0.85040   0.00000  -0.85040
:VZERX:v0,v0c,v0x  -0.85040   0.00000  -0.85040 v5,v5c,v5x  -0.85040   0.00000  -0.85040

------- UO2_7.scf1 --------

          ATOMIC SPHERE DEPENDENT PARAMETERS FOR ATOM  U  4+     
:e__0001: OVERALL ENERGY PARAMETER IS    0.7028
          OVERALL BASIS SET ON ATOM IS LAPW
:E0_0001: E( 0)=    0.7028
             APW+lo
:E0_0001: E( 0)=   -2.2680   E(BOTTOM)=   -3.615   E(TOP)=   -0.921  5  6   235
             LOCAL ORBITAL
:E1_0001: E( 1)=   -1.2800   E(BOTTOM)=   -1.882   E(TOP)= -200.000  4 -1   219
             APW+lo
:E1_0001: E( 1)=    1.1028
             LOCAL ORBITAL
:E3_0001: E( 3)=    0.9592   E(BOTTOM)=    0.170   E(TOP)=    1.748  1  2   179
             APW+lo
:E2_0001: E( 2)=    0.7298   E(BOTTOM)=    0.730   E(TOP)= -200.000  3 -1   114
             APW+lo

          ATOMIC SPHERE DEPENDENT PARAMETERS FOR ATOM  O  2-     
:e__0002: OVERALL ENERGY PARAMETER IS    0.7028
          OVERALL BASIS SET ON ATOM IS LAPW
:E0_0002: E( 0)=   -0.3153   E(BOTTOM)=   -1.683   E(TOP)=    1.052  1  2   240
             APW+lo
:E0_0002: E( 0)=    1.1028
             LOCAL ORBITAL
:E1_0002: E( 1)=    0.7028
             APW+lo

       K=   0.00000   0.00000   0.00000            1
:RKM  : MATRIX SIZE  755LOs:  30  RKM= 8.34  WEIGHT= 1.00  PGR:    
       EIGENVALUES ARE:
:EIG00001:      -2.3500032   -0.5205390   -0.5017825   -0.5017825   -0.5017825
:EIG00006:      -0.4234228    0.4024182    0.4024182    0.4024182    0.6216215
:EIG00011:       0.6216215    0.6216215    0.9318413    0.9318413    0.9318413
:EIG00016:       0.9660505    0.9933542    0.9933542    0.9933542    1.0645742
:EIG00021:       1.1045789    1.1045789    1.5758853    1.5758853    1.5758853
:EIG00026:       1.8004103    1.8004103    1.8004103    2.1680975    2.5142510
:EIG00031:       2.5142510    2.5371877    2.5371877    2.5371877    2.8971506
:EIG00036:       2.8971506    2.8971506    3.0558853    3.0558853    3.0558853
:EIG00041:       3.1395233    3.4967326    3.4967326    3.5922138    3.5922138
:EIG00046:       3.5922138    3.6525257    3.6525257    3.6581911    3.6581911
 
:EIG00051:       3.6581911    3.7552736    3.9017175    3.9017175    3.9017175
:EIG00056:       3.9584601    4.0220476    4.0220476    4.0220476    4.0656996
:EIG00061:       4.0656996    4.0656996    4.1130308    4.1130308    4.1130308
:EIG00066:       4.4311591    4.9537263    4.9537263    4.9537263    5.1861783
:EIG00071:       5.1861783    5.2199304    5.2199304    5.2199304    5.3987110
:EIG00076:       5.8106747    5.8106747    5.8321598    5.8321598    5.8321598
:EIG00081:       5.9938732    5.9938732    5.9938732    6.1147427    6.1147427
:EIG00086:       6.1147427    6.3674446    6.3674446    6.3674446    6.4469562
:EIG00091:       6.4755958    6.4755958    6.5264078    6.5264078    6.5656660
:EIG00096:       6.5656660    6.5656660    6.7434500    6.7619126    6.7619126
 
:EIG00101:       6.7619126    6.8113874    6.8113874    6.8113874    6.9526827
:EIG00106:       6.9526827    6.9526827    6.9594729    7.1493367    7.2076726
:EIG00111:       7.2076726    7.2076726    7.2327631    7.2327631    7.2430799
:EIG00116:       7.2430799    7.2430799    7.3293976    7.3293976    7.3293976
:EIG00121:       7.5651818    7.5651818    7.5651818    7.9978696    7.9978696
:EIG00126:       7.9978696    8.0627539    8.0627539    8.0627539    8.1706487
:EIG00131:       8.1706487    8.1706487    8.1709718    8.2240953    8.2240953
:EIG00136:       8.3726248    8.3726248
       ********************************************************

:KPT   :      NUMBER OF K-POINTS:   145

------- UO2_7.scfso --------
   0.0   0.0 angle (M,z), angle (M,x) deg
 
        SPIN-ORBIT EIGENVALUES:
     K=   0.00000   0.00000   0.00000            1
      MATRIX SIZE=  274   WEIGHT= 1.00
     EIGENVALUES ARE:
          -2.3500032   -2.3500032   -0.9093553   -0.9093553   -0.5205390
          -0.5205390   -0.4234264   -0.4234264   -0.3363576   -0.3363576
          -0.3363576   -0.3363576    0.4005473    0.4005473    0.4005473
           0.4005473    0.4053242    0.4053242    0.6166692    0.6166692
           0.6237655    0.6237655    0.6237655    0.6237655    0.9032325
           0.9032325    0.9223596    0.9223596    0.9223596    0.9223596
           0.9845195    0.9845195    0.9982453    0.9982453    0.9982453
           0.9982453    1.0126669    1.0126669    1.0645742    1.0645742

           1.1025039    1.1025039    1.1025039    1.1025039    1.5648236
           1.5648236    1.5648236    1.5648236    1.5982526    1.5982526
           1.7387112    1.7387112    1.8282443    1.8282443    1.8282443
           1.8282443    2.1680975    2.1680975    2.5056868    2.5056868
           2.5056868    2.5056868    2.5411697    2.5411697    2.5411697
           2.5411697    2.5463609    2.5463609    2.7314367    2.7314367
           2.9886120    2.9886120    2.9886120    2.9886120    3.0525410
           3.0525410    3.0575207    3.0575207    3.0575207    3.0575207

           3.1403480    3.1403480    3.4920658    3.4920658    3.4920658
           3.4920658    3.5890085    3.5890085    3.5890085    3.5890085
           3.6097886    3.6097886    3.6525257    3.6525257    3.6525257
           3.6525257    3.6581754    3.6581754    3.6581990    3.6581990
           3.6581990    3.6581990    3.7552736    3.7552736    3.9017444
           3.9017444    3.9017444    3.9017444    3.9021747    3.9021747
           3.9584601    3.9584601    4.0220500    4.0220500    4.0220500
           4.0220500    4.0220614    4.0220614    4.0590320    4.0590320

           4.0699121    4.0699121    4.0699121    4.0699121    4.1118576
           4.1118576    4.1142845    4.1142845    4.1142845    4.1142845
           4.4313259    4.4313259
       ********************************************************

------- UO2_7.scf2 --------
:GMA  : POTENTIAL AND CHARGE CUT-OFF  12.00 Ry**.5
         Bandranges (emin - emax) and occupancy:
:BAN00018:  18    0.405324    0.606446  1.00000000
:BAN00019:  19    0.503239    0.617914  1.00000000
:BAN00020:  20    0.503239    0.617914  1.00000000
:BAN00021:  21    0.579124    0.643834  1.00000000
:BAN00022:  22    0.579124    0.643834  1.00000000
:BAN00023:  23    0.616586    0.673166  1.00000000
:BAN00024:  24    0.616586    0.673166  1.00000000
:BAN00025:  25    0.858805    0.903233  0.94419991
:BAN00026:  26    0.858805    0.903233  0.94419991
:BAN00027:  27    0.894412    0.922360  0.05580009
:BAN00028:  28    0.894412    0.922360  0.05580009
:BAN00029:  29    0.901146    0.922360  0.00000000
:BAN00030:  30    0.901146    0.922360  0.00000000
:BAN00031:  31    0.925813    0.984523  0.00000000
[...]
 26  7.9598E-02  1.0000E+00  9.3710E-02  1.0613E+00
  
:NORMS:  Nuclear, Spectral, Froebius, Shanno-Pua   0.1336E+01  0.1356E+01  0.1342E+01  0.2791E+00
:INFO :  Number of Memory Steps    8 Skipping   17
:INFO :  SLambda=    0.5884570  Max    1.3555207

Eigenvalues, unscaled except for SY+YY
   #     SY Real        SY Imag          SS             YY         SY+YY Real      SY+YY Imag
   1   2.205143E+00   0.000000E+00   3.837145E+00   7.050510E+00   8.175391E+00   0.000000E+00
   2   6.268101E-01   0.000000E+00   6.036260E-01   9.374507E-01   1.479105E+00   0.000000E+00
   3   9.972065E-03   0.000000E+00   4.042672E-03   1.122188E-02   1.713668E-02   0.000000E+00
   4   2.895320E-04   0.000000E+00   2.408567E-04   6.110312E-04   8.333617E-04   0.000000E+00
   5   1.550864E-04   0.000000E+00   5.154261E-05   1.906002E-04   1.274224E-04   0.000000E+00
   6   5.245092E-07   0.000000E+00   1.133338E-06   1.357416E-05   2.935840E-07   0.000000E+00
   7  -2.742648E-07   3.526044E-07   2.087389E-07   1.887584E-06   9.377042E-06   9.894650E-11
   8  -2.742648E-07  -3.526044E-07   2.449155E-08   3.019863E-07   9.377042E-06  -9.894650E-11
 
:INFO :  Singular value   8.176E+00 Weight  1.0000E+00 Projections  -3.421E-02  4.850E-04
:INFO :  Singular value   1.479E+00 Weight  1.0000E+00 Projections   2.999E-02  3.013E-04
:INFO :  Singular value   1.729E-02 Weight  1.0000E+00 Projections  -8.543E-02  1.120E-03
:INFO :  Singular value   8.677E-04 Weight  9.9993E-01 Projections   3.535E-02  1.796E-02
:INFO :  Singular value   1.669E-04 Weight  9.9822E-01 Projections   7.823E-03 -1.005E-02
:INFO :  Singular value   1.900E-05 Weight  8.7902E-01 Projections  -2.968E-02 -4.443E-02
:INFO :  Singular value   3.702E-06 Weight  2.1611E-01 Projections   4.551E-05 -9.703E-02
:INFO :  Singular value   2.666E-07 Weight  1.4280E-03 Projections   1.617E-02 -2.911E-03
 
:DIRM :  MEMORY 8/8 RESCALE  18.61 RED 0.184 PRED 0.094 NEXT 0.525
:INFO :  Blimit    1.013E+00  5.000E-01  5.812E-01  1.162E+00
:DTRUS:  Lambda    7.312E-03 Increment    4.657E-09 Iterations    75
:INFOA:  Normalized Projection Angle     38.87
:INFOA:  Angle SubSpace to MSR1      2.50  7.312E-03   75
:INFO :  Limited by Atoms F by Step T

:DIRP :  |MSR1|= 1.671E-03 |PRATT|= 1.316E-03 ANGLE=  86.2 DEGREES
:DIRQ :  |MSR1|= 7.716E-04 |PRATT|= 1.253E-03 ANGLE=  36.2 DEGREES
:DIR  :  |MSR1|= 1.840E-03 |PRATT|= 1.817E-03 ANGLE=  74.0 DEGREES
:MIX  :   MSD1   REGULARIZATION: 7.05E-06  GREED: 0.087  LMStep 0.47  1.01 Step           
     
       CHARGES OF MIXED CHARGE DENSITY
:CTO   : INTERSTITIAL CHARGE =     7.538043
:CTO001: CHARGE SPHERE  1    =    86.154648
:CTO002: CHARGE SPHERE  2    =     7.153655

:NEC03: NUCLEAR AND ELECTRONIC CHARGE    108.00000   108.00000

PW CHANGE     H    K    L       Current     Change     Residue
:PTO001:      0    0    0  8.69170700E-02  1.345E-06  6.893E-07
:PTO002:     -1   -1   -1  2.11710169E-01  3.037E-06 -6.974E-08
:PTO003:      0    0   -2  3.84383510E-04  1.281E-06 -3.650E-06
:PTO004:      0   -2   -2  2.91322346E-01  7.539E-06  3.432E-06
:PTO005:     -1   -1   -3  1.56752991E-01  1.279E-05 -3.729E-06
:PTO006:     -2   -2   -2 -1.91819468E-02  5.515E-06 -2.571E-06
:PTO007:      0    0   -4  4.35928439E-02  8.782E-07 -2.800E-07
:PTO008:     -1   -3   -3  3.20817212E-02  8.496E-06  2.476E-06
:PTO009:      0   -2   -4 -5.11194219E-02  8.028E-06 -6.499E-06
:PTO010:     -2   -2   -4  4.52109138E-02  3.335E-06  3.344E-06
:PTO011:     -3   -3   -3 -4.52988061E-03  2.201E-06  1.760E-06
:PTO012:     -1   -1   -5 -4.70219094E-03  2.809E-07 -6.973E-06

:ENE  : ********** TOTAL ENERGY IN Ry =       -56437.56735334


------- UO2_7.scf0 --------


            ---------
:ITE095: 95. ITERATION
            ---------

:NATO :    2 INDEPENDENT AND    3 TOTAL ATOMS IN UNITCELL
       SUBSTANCE: blebleble                                                   

       LATTICE                      = F   
:POT  : POTENTIAL OPTION    5
:LAT  : LATTICE CONSTANTS= 10.51208 10.51208 10.51208    1.571    1.571    1.571
:VOL  : UNIT CELL VOLUME =     290.40618
       MODE OF CALCULATION IS       = RELA
       NON-SPINPOLARIZED CALCULATION
:IFFT  : FFT-parameters:   90   90   90 Factor: 2.00
       ATOMNUMBER=  1 U  4+      VCOUL-ZERO = -0.52537E+00
       ATOMNUMBER=  2 O  2-      VCOUL-ZERO =  0.81771E+00
:FIT001: LUSE= 13 SIGMA OF V-XC FIT FOR ATOM  1  0.5537020E-04
:FIT001: LUSE= 13 SIGMA OF V-XC FIT FOR ATOM  1  0.5537020E-04
:FIT002: LUSE= 13 SIGMA OF V-XC FIT FOR ATOM  2  0.1071990E-03
:FIT002: LUSE= 13 SIGMA OF V-XC FIT FOR ATOM  2  0.1071990E-03
:DEN  : DENSITY INTEGRAL  =        -20896.06353986   (Ry)
       ELS_POTENTIAL_AT Z=0 and Z=0.5:  -3.37016  -3.37016
       ELS_POTENTIAL_AT Y=0 and Y=0.5:   0.00000   0.00000
:VZERO:v0,v0c,v0x  -4.07960  -3.37016  -0.70945 v5,v5c,v5x  -4.07960  -3.37016  -0.70945
:VZERY:v0,v0c,v0x  -0.85098   0.00000  -0.85098 v5,v5c,v5x  -0.85098   0.00000  -0.85098
:VZERX:v0,v0c,v0x  -0.85098   0.00000  -0.85098 v5,v5c,v5x  -0.85098   0.00000  -0.85098

------- UO2_7.scf1 --------

          ATOMIC SPHERE DEPENDENT PARAMETERS FOR ATOM  U  4+     
:e__0001: OVERALL ENERGY PARAMETER IS    0.7028
          OVERALL BASIS SET ON ATOM IS LAPW
:E0_0001: E( 0)=    0.7028
             APW+lo
:E0_0001: E( 0)=   -2.2845   E(BOTTOM)=   -3.630   E(TOP)=   -0.939  5  6   234
             LOCAL ORBITAL
:E1_0001: E( 1)=   -1.2800   E(BOTTOM)=   -1.895   E(TOP)= -200.000  4 -1   215
             APW+lo
:E1_0001: E( 1)=    1.1028
             LOCAL ORBITAL
:E3_0001: E( 3)=    0.9407   E(BOTTOM)=    0.154   E(TOP)=    1.727  1  2   181
             APW+lo
:E2_0001: E( 2)=    0.7164   E(BOTTOM)=    0.716   E(TOP)= -200.000  3 -1   109
             APW+lo

          ATOMIC SPHERE DEPENDENT PARAMETERS FOR ATOM  O  2-     
:e__0002: OVERALL ENERGY PARAMETER IS    0.7028
          OVERALL BASIS SET ON ATOM IS LAPW
:E0_0002: E( 0)=   -0.3074   E(BOTTOM)=   -1.675   E(TOP)=    1.060  1  2   235
             APW+lo
:E0_0002: E( 0)=    1.1028
             LOCAL ORBITAL
:E1_0002: E( 1)=    0.7028
             APW+lo

       K=   0.00000   0.00000   0.00000            1
:RKM  : MATRIX SIZE  755LOs:  30  RKM= 8.34  WEIGHT= 1.00  PGR:    
       EIGENVALUES ARE:
:EIG00001:      -2.3647258   -0.5146808   -0.5125051   -0.5125051   -0.5125051
:EIG00006:      -0.4166294    0.4062698    0.4062698    0.4062698    0.6239408
:EIG00011:       0.6239408    0.6239408    0.9154810    0.9154810    0.9154810
:EIG00016:       0.9500046    0.9813455    0.9813455    0.9813455    1.0662943
:EIG00021:       1.1007365    1.1007365    1.5745634    1.5745634    1.5745634
:EIG00026:       1.7998727    1.7998727    1.7998727    2.1678089    2.5127512
:EIG00031:       2.5127512    2.5379321    2.5379321    2.5379321    2.8953043
:EIG00036:       2.8953043    2.8953043    3.0534381    3.0534381    3.0534381
:EIG00041:       3.1401199    3.4939466    3.4939466    3.5917257    3.5917257
:EIG00046:       3.5917257    3.6560813    3.6560813    3.6563235    3.6563235
 
:EIG00051:       3.6563235    3.7533798    3.9030292    3.9030292    3.9030292
:EIG00056:       3.9568615    4.0225046    4.0225046    4.0225046    4.0640992
:EIG00061:       4.0640992    4.0640992    4.1125152    4.1125152    4.1125152
:EIG00066:       4.4308436    4.9562308    4.9562308    4.9562308    5.1842751
:EIG00071:       5.1842751    5.2213114    5.2213114    5.2213114    5.3978483
:EIG00076:       5.8070508    5.8070508    5.8280482    5.8280482    5.8280482
:EIG00081:       5.9932739    5.9932739    5.9932739    6.1099415    6.1099415
:EIG00086:       6.1099415    6.3688151    6.3688151    6.3688151    6.4468286
:EIG00091:       6.4762993    6.4762993    6.5265261    6.5265261    6.5641564
:EIG00096:       6.5641564    6.5641564    6.7450350    6.7624007    6.7624007
 
:EIG00101:       6.7624007    6.8091940    6.8091940    6.8091940    6.9544952
:EIG00106:       6.9544952    6.9544952    6.9584110    7.1491531    7.2078399
:EIG00111:       7.2078399    7.2078399    7.2343082    7.2343082    7.2452213
:EIG00116:       7.2452213    7.2452213    7.3289974    7.3289974    7.3289974
:EIG00121:       7.5622746    7.5622746    7.5622746    7.9977142    7.9977142
:EIG00126:       7.9977142    8.0625233    8.0625233    8.0625233    8.1673587
:EIG00131:       8.1702233    8.1702233    8.1702233    8.2231517    8.2231517
:EIG00136:       8.3727854    8.3727854
       ********************************************************

:KPT   :      NUMBER OF K-POINTS:   145

------- UO2_7.scfso --------
   0.0   0.0 angle (M,z), angle (M,x) deg
 
        SPIN-ORBIT EIGENVALUES:
     K=   0.00000   0.00000   0.00000            1
      MATRIX SIZE=  274   WEIGHT= 1.00
     EIGENVALUES ARE:
          -2.3647258   -2.3647258   -0.9216731   -0.9216731   -0.5146808
          -0.5146808   -0.4166332   -0.4166332   -0.3462881   -0.3462881
          -0.3462881   -0.3462881    0.4043331    0.4043331    0.4043331
           0.4043331    0.4092784    0.4092784    0.6197489    0.6197489
           0.6254992    0.6254992    0.6254992    0.6254992    0.8867751
           0.8867751    0.9070545    0.9070545    0.9070545    0.9070545
           0.9685254    0.9685254    0.9855642    0.9855642    0.9855642
           0.9855642    1.0003164    1.0003164    1.0662943    1.0662943

           1.0986505    1.0986505    1.0986505    1.0986505    1.5634310
           1.5634310    1.5634310    1.5634310    1.5970960    1.5970960
           1.7377470    1.7377470    1.8278892    1.8278892    1.8278892
           1.8278892    2.1678089    2.1678089    2.5047594    2.5047594
           2.5047594    2.5047594    2.5413828    2.5413828    2.5413828
           2.5413828    2.5470460    2.5470460    2.7299903    2.7299903
           2.9865990    2.9865990    2.9865990    2.9865990    3.0501329
           3.0501329    3.0550680    3.0550680    3.0550680    3.0550680

           3.1409146    3.1409146    3.4894373    3.4894373    3.4894373
           3.4894373    3.5883986    3.5883986    3.5883986    3.5883986
           3.6092338    3.6092338    3.6560813    3.6560813    3.6560813
           3.6560813    3.6563076    3.6563076    3.6563315    3.6563315
           3.6563315    3.6563315    3.7533798    3.7533798    3.9030907
           3.9030907    3.9030907    3.9030907    3.9034520    3.9034520
           3.9568615    3.9568615    4.0225091    4.0225091    4.0225108
           4.0225108    4.0225108    4.0225108    4.0574543    4.0574543

           4.0683129    4.0683129    4.0683129    4.0683129    4.1113553
           4.1113553    4.1137319    4.1137319    4.1137319    4.1137319
           4.4310081    4.4310081
       ********************************************************

------- UO2_7.scf2 --------
:GMA  : POTENTIAL AND CHARGE CUT-OFF  12.00 Ry**.5
         Bandranges (emin - emax) and occupancy:
:BAN00018:  18    0.409278    0.608343  1.00000000
:BAN00019:  19    0.506927    0.623062  1.00000000
:BAN00020:  20    0.506927    0.623062  1.00000000
:BAN00021:  21    0.582067    0.647680  1.00000000
:BAN00022:  22    0.582067    0.647680  1.00000000
:BAN00023:  23    0.618584    0.677247  1.00000000
:BAN00024:  24    0.618584    0.677247  1.00000000
:BAN00025:  25    0.844104    0.886775  0.94617652
:BAN00026:  26    0.844104    0.886775  0.94617652
:BAN00027:  27    0.879633    0.907054  0.05382348
:BAN00028:  28    0.879633    0.907054  0.05382348
:BAN00029:  29    0.886640    0.907054  0.00000000
:BAN00030:  30    0.886640    0.907054  0.00000000
:BAN00031:  31    0.910641    0.968622  0.00000000
:BAN00032:  32    0.910641    0.968622  0.00000000
:BAN00033:  33    0.938761    0.985564  0.00000000
        Energy to separate low and high energystates:    0.79410


:NLDA  : NUMBER OF ELECTRONS          =  26.000

:FLDA  : F E R M I - ENERGY           =   1.38147




:POS001: AT.NR.   1 POSITION = 0.00000 0.00000 0.00000  MULTIPLICITY =  1

       LMMAX  5
       LM=   0 0  4 0  4 4  6 0  6 4




:POS002: AT.NR.   2 POSITION = 0.00000 0.00000 0.00000  MULTIPLICITY =  2

       LMMAX  6
       LM=   0 0  4 0  4 4  6 0  6 4 -3 2
:FER DMFT Fermi Energy   0.88168
:EORB          0.001092933
:SUM SUM OF DMFT BAND ENERGIES         -1.391457181

:CHA001: TOTAL CHARGE INSIDE SPHERE   1 =     8.190280
:PCS001: PARTIAL CHARGES SPHERE =  1 S,P,D,F,      D-EG,D-T2G 
:QTL001: 1.7989 4.1846 0.2398 1.9639 0.0000 0.0000 0.0000 0.0548 0.1984 0.0000 0.0000 0.0000
        Q-s-low E-s-low   Q-p-low E-p-low   Q-d-low E-d-low   Q-f-low E-f-low
:EPL001:  1.7987 -2.2812    4.1831 -0.4927    0.2375  0.4562    0.2145  0.5746
        Q-s-hi  E-s-hi    Q-p-hi  E-p-hi    Q-d-hi  E-d-hi    Q-f-hi  E-f-hi 
:EPH001:  0.0002  0.9226    0.0016  0.9016    0.0023  0.9014    1.7494  0.8757

:CHA002: TOTAL CHARGE INSIDE SPHERE   2 =     5.153529
:PCS002: PARTIAL CHARGES SPHERE =  2 S,P,D,F,      D-EG,D-T2G 
:QTL002: 1.5752 3.5670 0.0096 0.0014 0.0000 0.0000 0.0000 0.0034 0.0106 0.0000 0.0000 0.0000
        Q-s-low E-s-low   Q-p-low E-p-low   Q-d-low E-d-low   Q-f-low E-f-low
:EPL002:  1.5736 -0.4400    3.5499  0.5405    0.0078  0.0125    0.0012 -0.1198
        Q-s-hi  E-s-hi    Q-p-hi  E-p-hi    Q-d-hi  E-d-hi    Q-f-hi  E-f-hi 
:EPH002:  0.0016  0.8927    0.0171  0.8961    0.0018  0.8717    0.0002  0.8812

:CHA  : TOTAL CHARGE INSIDE UNIT CELL =      26.000000

:ESUM  : SUM OF EIGENVALUES =          -1.416157392


------- UO2_7.scfc --------

        1.ATOM      U  4+                21 CORE STATES
:1S 001: 1S               -8506.395760369 Ry
:2S 001: 2S               -1587.844707667 Ry
:2PP001: 2P*              -1531.090288785 Ry
:2P 001: 2P               -1249.894707566 Ry
:3S 001: 3S                -399.986581838 Ry
:3PP001: 3P*               -374.213230371 Ry
:3P 001: 3P                -309.430067144 Ry
:3DD001: 3D*               -268.617508978 Ry
:3D 001: 3D                -255.472320986 Ry
:4S 001: 4S                -101.055538541 Ry
:4PP001: 4P*                -89.461980619 Ry
:4P 001: 4P                 -72.552195163 Ry
:4DD001: 4D*                -54.087404539 Ry
:4D 001: 4D                 -50.978813019 Ry
:5S 001: 5S                 -21.648135887 Ry
:5PP001: 5P*                -17.141352759 Ry
:5P 001: 5P                 -13.111003751 Ry
:4FF001: 4F*                -26.692528285 Ry
:4F 001: 4F                 -25.882527221 Ry
:5DD001: 5D*                 -6.521442119 Ry
:5D 001: 5D                  -5.923116728 Ry

        2.ATOM      O  2-                 1 CORE STATES
:1S 002: 1S                 -36.030023713 Ry

------- UO2_7.scfm --------
:CINT001 Core Integral Atom   1   77.964536
:CINT002 Core Integral Atom   2    2.000000
     
       CHARGES OF NEW CHARGE DENSITY
:NTO   : INTERSTITIAL CHARGE =     7.502684
:NTO001: CHARGE SPHERE  1    =    86.154816
:NTO002: CHARGE SPHERE  2    =     7.153529

:NEC01: NUCLEAR AND ELECTRONIC CHARGE    108.00000   107.96456
     
       CHARGES OF OLD CHARGE DENSITY
:OTO   : INTERSTITIAL CHARGE =     7.538043
:OTO001: CHARGE SPHERE  1    =    86.154648
:OTO002: CHARGE SPHERE  2    =     7.153655
:DNEW  1    0.0002
:DNEW  2   -0.0001

:NEC02: NUCLEAR AND ELECTRONIC CHARGE    108.00000   108.00000
     
       CONVERGENCE TEST
:DTO001: DIFFERENCE IN SPHERE  1 =  0.0002211
:DTO002: DIFFERENCE IN SPHERE  2 =  0.0001453

:DIS  :  CHARGE DISTANCE       ( 0.0002211 for atom    1 spin 1)      0.0001706
:BIG check (qbig,qrms,qtot)    0.737D-04   0.123D-03   0.171D-03
 
******************************************************
* MULTISECANT MIXING VER6 RELEASE 6.0 OPTIONS        *
* Standard Mode with controls                        *
* Regularization       1.000E-06                     *
* Trust Region Control Active                        *
* Max Number of Memory Steps    8                    *
******************************************************
 
:PLANE:  INTERSTITIAL TOTAL      2.52369 DISTAN  2.602E-03 % 
:CHARG:  CLM CHARGE   /ATOM    345.91120 DISTAN  9.810E-05 % 
 
 Step History DMIX, Red, Pred, Trust, FRMS, FABS
 20  3.5470E-02  1.3754E+00  7.0605E-03  5.7547E-01
 21  3.0840E-02  1.0617E+00  9.6165E-03  8.7156E-01
 22  3.7732E-02  6.8870E-01  6.1535E-03  5.0310E-01
 23  5.7951E-02  1.1865E-01  3.1048E-02  7.7268E-01
 24  6.6356E-02  1.5370E-01  1.2747E-01  8.8475E-01
 25  8.2487E-02  2.6014E+00  6.1816E-01  1.0998E+00
 26  7.9598E-02  1.8432E-01  9.3710E-02  1.0613E+00
 27  8.7175E-02  1.0000E+00  5.2499E-01  1.1623E+00
  
:NORMS:  Nuclear, Spectral, Froebius, Shanno-Pua   0.1313E+01  0.1321E+01  0.1313E+01  0.3027E+00
:INFO :  Number of Memory Steps    8 Skipping   18
:INFO :  SLambda=    0.3157442  Max    1.3205191

Eigenvalues, unscaled except for SY+YY
   #     SY Real        SY Imag          SS             YY         SY+YY Real      SY+YY Imag
   1   2.410329E+00   0.000000E+00   4.297046E+00   7.493062E+00   8.205875E+00   0.000000E+00
   2   3.576048E-01   0.000000E+00   3.335260E-01   4.926083E-01   6.515651E-01   0.000000E+00
   3   4.008419E-03   9.328773E-04   6.246861E-03   8.889800E-03   1.214849E-02   0.000000E+00
   4   4.008419E-03  -9.328773E-04   5.075969E-04   4.988972E-03   6.510857E-03   0.000000E+00
   5   2.123358E-04   0.000000E+00   1.060863E-04   4.044714E-04   4.465351E-04   0.000000E+00
   6   1.796306E-05   0.000000E+00   1.091658E-05   4.074325E-05   7.602337E-06   9.638608E-11
   7  -4.160590E-07   0.000000E+00   1.746271E-08   5.229817E-06   7.602337E-06  -9.638608E-11
   8  -1.147763E-07   0.000000E+00   7.404861E-07   5.542406E-07   1.497836E-06   0.000000E+00
 
:INFO :  Singular value   8.206E+00 Weight  1.0000E+00 Projections  -3.306E-02 -2.748E-04
:INFO :  Singular value   6.516E-01 Weight  1.0000E+00 Projections  -4.320E-02  1.079E-04
:INFO :  Singular value   1.233E-02 Weight  1.0000E+00 Projections   4.181E-02  2.619E-05
:INFO :  Singular value   6.467E-03 Weight  1.0000E+00 Projections   1.736E-02 -5.431E-03
:INFO :  Singular value   4.451E-04 Weight  9.9972E-01 Projections  -1.977E-02  1.135E-02
:INFO :  Singular value   1.491E-05 Weight  7.9829E-01 Projections   1.583E-03 -6.527E-02
:INFO :  Singular value   6.264E-06 Weight  4.1139E-01 Projections   8.961E-03  3.146E-02
:INFO :  Singular value   9.221E-07 Weight  1.4918E-02 Projections  -1.174E-02  1.453E-02
 
:DIRM :  MEMORY 8/8 RESCALE  17.48 RED 0.758 PRED 0.525 NEXT 0.729
:INFO :  Blimit    1.125E+00  5.000E-01  6.748E-01  1.350E+00
:DTRUS:  Lambda    1.269E-02 Increment    9.313E-09 Iterations    69
:INFOA:  Normalized Projection Angle     55.87
:INFOA:  Angle SubSpace to MSR1      2.19  1.269E-02   69
:INFO :  Limited by Atoms F by Step T

:DIRP :  |MSR1|= 1.307E-03 |PRATT|= 1.148E-03 ANGLE= 104.2 DEGREES
:DIRQ :  |MSR1|= 7.362E-04 |PRATT|= 6.787E-04 ANGLE= 107.6 DEGREES
:DIR  :  |MSR1|= 1.500E-03 |PRATT|= 1.334E-03 ANGLE= 105.1 DEGREES
:MIX  :   MSD1   REGULARIZATION: 7.49E-06  GREED: 0.101  LMStep 0.27  1.12 Step           
     
       CHARGES OF MIXED CHARGE DENSITY
:CTO   : INTERSTITIAL CHARGE =     7.538154
:CTO001: CHARGE SPHERE  1    =    86.154367
:CTO002: CHARGE SPHERE  2    =     7.153739

:NEC03: NUCLEAR AND ELECTRONIC CHARGE    108.00000   108.00000

PW CHANGE     H    K    L       Current     Change     Residue
:PTO001:      0    0    0  8.69180441E-02  9.740E-07  2.303E-07
:PTO002:     -1   -1   -1  2.11711928E-01  1.759E-06  3.972E-06
:PTO003:      0    0   -2  3.85385110E-04  1.002E-06  4.385E-06
:PTO004:      0   -2   -2  2.91328013E-01  5.666E-06 -4.180E-06
:PTO005:     -1   -1   -3  1.56763330E-01  1.034E-05 -6.546E-06
:PTO006:     -2   -2   -2 -1.91772586E-02  4.688E-06 -1.169E-06
:PTO007:      0    0   -4  4.35935327E-02  6.888E-07 -1.601E-06
:PTO008:     -1   -3   -3  3.20894826E-02  7.761E-06  5.377E-08
:PTO009:      0   -2   -4 -5.11126222E-02  6.800E-06 -5.721E-06
:PTO010:     -2   -2   -4  4.52142117E-02  3.298E-06 -1.235E-07
:PTO011:     -3   -3   -3 -4.52772234E-03  2.158E-06 -3.190E-07
:PTO012:     -1   -1   -5 -4.70233730E-03 -1.464E-07 -5.838E-06

:ENE  : ********** TOTAL ENERGY IN Ry =       -56437.56736155

