
------- case.scf0 --------
 Flat Integration
 New Mode for Coulomb Integral
 Consistent 3/8+Simpson combinations
 Extension of core to zero
 LDM version in phi
 Fifth-order quadrature in outwin


            ---------
:ITE048: 48. ITERATION
            ---------

:NATO :    1 INDEPENDENT AND    2 TOTAL ATOMS IN UNITCELL
       SUBSTANCE: aU                                                          

       LATTICE                      = CXY 
:POT  : POTENTIAL OPTION EX_LDA EC_LDA VX_LDA VC_LDA
:LAT  : LATTICE CONSTANTS=  6.02469 12.22562 10.55463    1.571    1.571    1.571
:VOL  : UNIT CELL VOLUME =     388.70398
       MODE OF CALCULATION IS       = RELA
       NON-SPINPOLARIZED CALCULATION
:IFFT  : FFT-parameters:   48   96   90 Factor: 2.00


   CONVERGENCE PARAMETER FOR PSEUDOCHARGE: NCON=  9
   MAXIMAL VALUE OF RMT(JATOM)*ABSK(NKK) : RK  =27.59258


:VKCOUL :  VK-COUL convergence: 0.134E-06
       ATOMNUMBER=  1 Pr1        VCOUL-ZERO =  0.26885E+00
:EFG001:                        EFG         =    -8.82161   *10**21  V / m**2
                               V20  TOT/SRF=    -7.63974    -0.04549
                               V22  TOT/SRF=    -0.60421     0.00037
                               V22M TOT/SRF=     0.00000     0.00000
                               V21  TOT/SRF=     0.00000     0.00000
                               V21M TOT/SRF=     0.00000     0.00000

              3.80660    0.00000    0.00000        3.80660    0.00000    0.00000
              0.00000    5.01501    0.00000        0.00000    5.01501    0.00000
              0.00000    0.00000   -8.82161        0.00000    0.00000   -8.82161

         MAIN DIRECTIONS OF THE EFG   1.0000  0.0000  0.0000
                                      0.0000  1.0000  0.0000
                                      0.0000  0.0000  1.0000
:ANG001:  ANGLE WITH OLD X-AXIS =         0.0

:ETA001:                         ASYMM. ETA =     0.13698


     HELLMANN-FEYNMAN-FORCE IN mRy/a.u. = |F|  Fx       Fy             Fz
:FHF001:   1.ATOM    877.521992542995      0.000000000000      0.000000000000   -877.521992542995

:FIT001: LUSE= 13 SIGMA OF V-XC FIT FOR ATOM  1  0.1219316E-04
:FIT001: LUSE= 13 SIGMA OF V-XC FIT FOR ATOM  1  0.1219316E-04
:DEN  : DENSITY INTEGRAL  =        -14174.21992033   (Ry)
       ELS_POTENTIAL_AT Z=0 and Z=0.5:   0.81932   0.81932
       ELS_POTENTIAL_AT Y=0 and Y=0.5:   0.04393   0.04393
:VZERO:v0,v0c,v0x   0.18663   0.81932  -0.63269 v5,v5c,v5x   0.18663   0.81932  -0.63269
:VZERY:v0,v0c,v0x  -0.79907   0.04393  -0.84300 v5,v5c,v5x  -0.79907   0.04393  -0.84300
:VZERX:v0,v0c,v0x  -1.18739  -0.38905  -0.79833 v5,v5c,v5x  -1.18739  -0.38905  -0.79833

------- case.scf1 --------
:LMAX-WF:   10   Non-Spherical LMAX:   4

          ATOMIC SPHERE DEPENDENT PARAMETERS FOR ATOM  Pr1       
:e__0001: OVERALL ENERGY PARAMETER IS    0.6028
          OVERALL BASIS SET ON ATOM IS LAPW
:E0_0001: E( 0)=    0.6028
             APW+lo
:E0_0001: E( 0)=   -1.8287   E(BOTTOM)=   -2.467   E(TOP)=   -1.190  4  5   198
             LOCAL ORBITAL
:E1_0001: E( 1)=    1.0028
             APW+lo
:E1_0001: E( 1)=   -0.3603   E(BOTTOM)=   -1.322   E(TOP)=    0.601  3  4   206
             LOCAL ORBITAL
:E3_0001: E( 3)=    0.8292   E(BOTTOM)=    0.619   E(TOP)=    1.039  0  1   124
             APW+lo
:E2_0001: E( 2)=    0.6028   E(BOTTOM)=    0.416   E(TOP)= -200.000  2 -1   121
             APW+lo

       K=   0.06250   0.00000   0.06250            1
:RKM  : MATRIX SIZE   364LOs:  40  RKM= 8.48  WEIGHT= 4.00  PGR:    
       EIGENVALUES ARE:
:EIG00001:      -1.8180891   -1.7880128   -0.5806880   -0.4488969   -0.4195018
:EIG00006:      -0.4096284   -0.3978105   -0.3970986    0.5874527    0.6937743
:EIG00011:       0.8113339    0.8208138    0.8219654    0.8242991    0.8328746
:EIG00016:       0.8507006    0.8581637    0.8587041    0.8624553    0.8654299
:EIG00021:       0.8701842    0.8745729    0.8752842    0.8875458    0.9003587
:EIG00026:       0.9131626    1.0034368    1.0089221    1.0665528    1.0954833
:EIG00031:       1.1016151    1.2303079    1.2678728    1.3301005    1.6323317
:EIG00036:       1.6751939    1.7164714    1.7703355    1.9113318    1.9705862
:EIG00041:       2.0934463    2.1845689    2.2959954    2.3136840    2.4547556
:EIG00046:       2.4677574    2.4846460    2.6057078    2.6316349    2.7562975
 
:EIG00051:       2.8138437    2.8824992    2.8994328    3.0101604    3.0614966
:EIG00056:       3.0984138    3.1312177    3.2334741    3.2908512    3.3950152
:EIG00061:       3.4104238    3.4995783    3.6102428    3.6137613    3.6613255
:EIG00066:       3.8078221    3.8304778    3.9239567    3.9305113    3.9587023
:EIG00071:       3.9628033    4.0203598    4.0594489    4.1644295    4.1759885
:EIG00076:       4.2215857    4.2369728    4.2910511    4.3124394    4.3406088
:EIG00081:       4.3621272    4.4102748    4.4104346    4.4940450    4.5207363
:EIG00086:       4.5959888    4.6343907    4.6977326    4.7357465    4.7522983
:EIG00091:       4.7746717    4.8193576    4.8533174    4.8854758    4.8948121
:EIG00096:       4.9118378    4.9808210    4.9904826    5.0374804    5.0887749
 
:EIG00101:       5.1822076    5.2963417    5.3346927    5.4143043    5.4159586
:EIG00106:       5.4567357    5.4994602    5.5591204    5.5953220    5.6016016
:EIG00111:       5.7137352    5.7575745    5.8563735    5.9258142    5.9379254
:EIG00116:       5.9605665    6.0310660    6.0533100    6.1208973    6.1387873
:EIG00121:       6.2096342    6.2098726    6.2913929    6.3125594    6.3663893
:EIG00126:       6.4549032    6.5266601    6.5282066    6.5530635    6.6257258
:EIG00131:       6.6697535    6.7100722    6.7162960    6.7622147    6.8249102
:EIG00136:       6.8730280    6.9063772    6.9393067    6.9802010    6.9904187
:EIG00141:       7.0419659    7.0639804    7.1098274    7.1237762    7.1833376
:EIG00146:       7.1940445    7.2223164    7.3033247    7.3311874    7.3815926
 
:EIG00151:       7.3902928    7.4273779    7.4595079    7.5989507    7.6434565
:EIG00156:       7.7574825    7.8120153    7.8190093    7.8331674    7.9468303
:EIG00161:       8.0087355    8.0786603    8.1201135    8.1409627    8.1894326
:EIG00166:       8.1997906    8.2249830    8.2349765
       ********************************************************

:KPT   :      NUMBER OF K-POINTS:   288

------- case.scfso --------
   0.0   0.0 angle (M,z), angle (M,x) deg
 
        SPIN-ORBIT EIGENVALUES:
     K=   0.06250   0.00000   0.06250            1
      MATRIX SIZE=  336   WEIGHT= 4.00
     EIGENVALUES ARE:
          -1.8180898   -1.8180898   -1.7880130   -1.7880130   -0.6428038
          -0.6428038   -0.5595501   -0.5595501   -0.4462764   -0.4462764
          -0.3486952   -0.3486952   -0.3448222   -0.3448222   -0.3314921
          -0.3314921    0.5875240    0.5875240    0.6936719    0.6936720
           0.8089107    0.8089107    0.8179705    0.8179705    0.8188946
           0.8188946    0.8213606    0.8213606    0.8291980    0.8291980
           0.8409287    0.8409288    0.8520897    0.8520897    0.8618436
           0.8618436    0.8673527    0.8673527    0.8687610    0.8687610

           0.8726329    0.8726330    0.8767098    0.8767098    0.8810523
           0.8810523    0.8914785    0.8914785    0.9025549    0.9025549
           0.9141052    0.9141052    1.0004890    1.0004890    1.0118679
           1.0118680    1.0669570    1.0669571    1.0952093    1.0952094
           1.1022917    1.1022917    1.2302242    1.2302242    1.2681316
           1.2681316    1.3302261    1.3302261    1.6326150    1.6326150
           1.6752290    1.6752290    1.7164495    1.7164495    1.7703679
           1.7703679    1.9110536    1.9110536    1.9700724    1.9700724

           2.0935042    2.0935042    2.1837684    2.1837684    2.2945744
           2.2945744    2.3144605    2.3144605    2.4549933    2.4549933
           2.4676791    2.4676791    2.4836934    2.4836934    2.6042296
           2.6042296    2.6333443    2.6333443    2.7563314    2.7563314
           2.8131954    2.8131954    2.8791295    2.8791295    2.9016646
           2.9016646    3.0099889    3.0099889    3.0620118    3.0620118
           3.0988656    3.0988656    3.1304464    3.1304464    3.2340033
           3.2340033    3.2918025    3.2918025    3.3946746    3.3946746

           3.4109933    3.4109933    3.5039312    3.5039312    3.6103530
           3.6103530    3.6136346    3.6136346    3.6615939    3.6615939
           3.8078427    3.8078427    3.8306674    3.8306674    3.9236288
           3.9236288    3.9306712    3.9306712    3.9590694    3.9590694
           3.9627958    3.9627958    4.0197740    4.0197740    4.0595418
           4.0595418    4.1629245    4.1629245    4.1776331    4.1776331
           4.2232208    4.2232208    4.2377503    4.2377503    4.2911682
           4.2911682    4.3129469    4.3129469    4.3408168    4.3408168

           4.3622401    4.3622401    4.4097374    4.4097374    4.4116860
           4.4116860    4.4941566    4.4941566
       ********************************************************

------- case.scf2 --------
:GMA  : POTENTIAL AND CHARGE CUT-OFF  12.00 Ry**.5




:POS001: at.nr.  -1 position = 0.00000 0.89750 0.25000  multiplicity =  2

       lmmax 16
       lm=   0 0  1 0  2 0  2 2  3 0  3 2  4 0  4 2  4 4  5 0  5 2  5 4  6 0  6 2  6 4  6 6
:FER gutzwiller fermi energy   0.82241
:EORB         -0.027180990
:SUM sum of gutz band energies         -5.148834744

:CHA001: total charge inside sphere   1 =     9.616044
:PCS001: partial charges sphere =  1 s,p,d,f,px,py,pz,d-z2,d-x2y2,d-xy,d-xz,d-yz 
:QTL001: 1.9451 4.9943 0.6745 2.0014 1.6624 1.6615 1.6705 0.1285 0.1232 0.1414 0.1358 0.1456

                      vxx         vyy         vzz       up to r

:VZZ001:             3.78017     4.99290    -8.77307       2.300

:CHA  : total charge inside unit cell =      12.999999

------- case.scfc --------

        1.ATOM      Pr1                  14 CORE STATES
       CORE-FORCE in mRy/a.u. = |F|      Fx             Fy             Fz
:FCO001:   1.ATOM    864.968504558886      0.000000000000      0.000000000000    864.968504558886

:1S 001: 1S               -3066.750626732 Ry
:2S 001: 2S                -492.501627034 Ry
:2PP001: 2P*               -465.600971898 Ry
:2P 001: 2P                -430.203395060 Ry
:3S 001: 3S                -105.592357830 Ry
:3PP001: 3P*                -94.130178155 Ry
:3P 001: 3P                 -87.122391574 Ry
:3DD001: 3D*                -67.049157406 Ry
:3D 001: 3D                 -65.537613273 Ry
:4S 001: 4S                 -20.272075066 Ry
:4PP001: 4P*                -15.979005549 Ry
:4P 001: 4P                 -14.451831865 Ry
:4DD001: 4D*                 -7.385116126 Ry
:4D 001: 4D                  -7.115788786 Ry

------- case.scfm --------
:CINT001 Core Integral Atom   1   45.998474

       DENSITY AT NUCLEUS
        JATOM        VALENCE       SEMI-CORE          CORE           TOTAL
:RTO001:   1      649.246919        0.000000   656824.324697   657473.571616
     
       CHARGES OF NEW CHARGE DENSITY
:NTO   : INTERSTITIAL CHARGE =     6.768355
:NPC   : PW Pseudocharge     =    17.201244
:NTO001: CHARGE SPHERE  1    =    55.614518

:NEC01: NUCLEAR AND ELECTRONIC CHARGE    118.00000   117.99739
     
       CHARGES OF OLD CHARGE DENSITY
:OTO   : INTERSTITIAL CHARGE =     6.770379
:OPC   : PW Pseudocharge     =    17.207952
:OTO001: CHARGE SPHERE  1    =    55.614810

:NEC02: NUCLEAR AND ELECTRONIC CHARGE    118.00000   118.00000
     
       CONVERGENCE TEST
:DTO001: DIFFERENCE IN SPHERE  1 =  0.0004921

:DIS  :  CHARGE DISTANCE       ( 0.0004921 for atom    1 spin 1)      0.0004921
 PW Mixed is          404
 
******************************************************
* MULTISECANT MIXING VER9 RELEASE 10.4.0              *
* Standard Mode with controls                        *
* Fixed density scale                                *
* Regularization       1.000E-04                     *
* Trust Upper Limit    5.000E+00                     *
* Max Number of Memory Steps    8                    *
******************************************************
 
:INFO : Forcing a restart
:PWTMP   2.8677E+02  1.9467E+02  3.8870E+02
:PLANE:  PW TOTAL      5.2314 DISTAN   1.08E-04  2.06E-03 %
:CHARG:  CLM/ATOM   1381.9455 DISTAN   7.55E-04  5.47E-05 %
 
Step History
        DMIX         DMIXT        Red     Pred      Trust     Lambda    MagRel    MagAbs     Beta
  1   3.5000E-02   3.5000E-02 -1.00E+00  1.00E+00 -1.00E+01  1.00E+00  3.50E-02  3.50E-02  1.00E+00
:INFO :  Note, Pratt in use
:TRUST:  Step 2.25E-01  Charge 7.50E-02 (e) CTO  2.50E-01 (e) PW  3.50E-01 (e)
:DIRM :  MEMORY  0/ 8 SCALE   1.000
Performing Pseudo Compensation
Final Pseudo Compensation Rescaling     1.00000E+00
:MIX  :   PRATT  REGULARIZATION:  1.00E-04 GREED: 0.15000                  
     
       CHARGES OF MIXED CHARGE DENSITY
:CTO   : INTERSTITIAL CHARGE =     6.770467
:CPC   : PW Pseudocharge     =    17.207845
:CTO001: CHARGE SPHERE  1    =    55.614767

:NEC03: NUCLEAR AND ELECTRONIC CHARGE    118.00000   118.00000

PW CHANGE     H    K    L      Current       Change    Residue
:PTO001:      0    0    0  6.16878478E-02 -4.738E-08  1.301E-06
:PTO003:      0    2    0  1.58487591E-02 -2.031E-07 -6.272E-07
:PTO004:     -1    1    0  7.72799554E-02 -8.322E-07 -1.630E-06
:PTO005:      0    2   -1 -8.94337990E-02  9.562E-07  1.727E-06
:PTO006:      0    0   -2 -4.63936671E-02  4.722E-07  7.318E-07
:PTO007:     -1    1   -1 -9.56504444E-02  1.095E-06  1.835E-06
:PTO008:      0    2   -2 -1.49118375E-02  1.754E-07  9.120E-08
:PTO009:     -1    1   -2 -7.52550471E-02  1.095E-06  1.501E-06
:PTO011:     -1    3    0 -1.17662355E-02  1.900E-07  1.668E-07
:PTO012:     -1    3   -1 -5.15249572E-02  9.589E-07  1.016E-06
:PTO013:      0    4    0 -9.08720577E-03  2.107E-07  2.982E-07
:PTO014:      0    2   -3  2.09195697E-02 -4.314E-07 -3.706E-07

:ENE  : ********** TOTAL ENERGY IN Ry =       -36944.23926608

       TOTAL FORCE IN mRy/a.u. = |F|     Fx             Fy             Fz     with/without FOR in case.in2
:FOR001:   1.ATOM         12.553          0.000          0.000        -12.553 partial forces
       TOTAL FORCE WITH RESPECT TO GLOBAL CARTESIAN COORDINATES:
:FCA001:   1.ATOM                         0.000        -12.553          0.000 partial forces
       TOTAL FORCE WITH RESPECT TO THE GLOBAL COORDINATE SYSTEM:
:FGL001:   1.ATOM                 0.000000000   -12.553487984     0.000000000 partial forces
