
------- case.scf0 --------
 Flat Integration
 New Mode for Coulomb Integral
 Consistent 3/8+Simpson combinations
 Extension of core to zero
 LDM version in phi
 Fifth-order quadrature in outwin


            ---------
:ITE036: 36. ITERATION
            ---------

:NATO :    1 INDEPENDENT AND    2 TOTAL ATOMS IN UNITCELL
       SUBSTANCE: aU                                                          

       LATTICE                      = CXY 
:POT  : POTENTIAL OPTION EX_LDA EC_LDA VX_LDA VC_LDA
:LAT  : LATTICE CONSTANTS=  6.18760 12.55620 10.84003    1.571    1.571    1.571
:VOL  : UNIT CELL VOLUME =     421.09601
       MODE OF CALCULATION IS       = RELA
       NON-SPINPOLARIZED CALCULATION
:IFFT  : FFT-parameters:   48   96   90 Factor: 2.00


   CONVERGENCE PARAMETER FOR PSEUDOCHARGE: NCON=  9
   MAXIMAL VALUE OF RMT(JATOM)*ABSK(NKK) : RK  =27.59215


:VKCOUL :  VK-COUL convergence: 0.103E-06
       ATOMNUMBER=  1 Pr1        VCOUL-ZERO =  0.18830E+00
:EFG001:                        EFG         =    -8.53631   *10**21  V / m**2
                               V20  TOT/SRF=    -7.39266    -0.03863
                               V22  TOT/SRF=    -0.01356     0.00172
                               V22M TOT/SRF=     0.00000     0.00000
                               V21  TOT/SRF=     0.00000     0.00000
                               V21M TOT/SRF=     0.00000     0.00000

              4.25460    0.00000    0.00000        4.25460    0.00000    0.00000
              0.00000    4.28171    0.00000        0.00000    4.28171    0.00000
              0.00000    0.00000   -8.53631        0.00000    0.00000   -8.53631

         MAIN DIRECTIONS OF THE EFG   1.0000  0.0000  0.0000
                                      0.0000  1.0000  0.0000
                                      0.0000  0.0000  1.0000
:ANG001:  ANGLE WITH OLD X-AXIS =         0.0

:ETA001:                         ASYMM. ETA =     0.00318


     HELLMANN-FEYNMAN-FORCE IN mRy/a.u. = |F|  Fx       Fy             Fz
:FHF001:   1.ATOM    755.744568231245      0.000000000000      0.000000000000   -755.744568231245

:FIT001: LUSE= 13 SIGMA OF V-XC FIT FOR ATOM  1  0.9975216E-05
:FIT001: LUSE= 13 SIGMA OF V-XC FIT FOR ATOM  1  0.9975216E-05
:DEN  : DENSITY INTEGRAL  =        -14163.93576457   (Ry)
       ELS_POTENTIAL_AT Z=0 and Z=0.5:   0.77910   0.77910
       ELS_POTENTIAL_AT Y=0 and Y=0.5:   0.05350   0.05350
:VZERO:v0,v0c,v0x   0.16913   0.77910  -0.60997 v5,v5c,v5x   0.16913   0.77910  -0.60997
:VZERY:v0,v0c,v0x  -0.76098   0.05350  -0.81448 v5,v5c,v5x  -0.76098   0.05350  -0.81448
:VZERX:v0,v0c,v0x  -1.16004  -0.38533  -0.77472 v5,v5c,v5x  -1.16004  -0.38533  -0.77472

------- case.scf1 --------
:LMAX-WF:   10   Non-Spherical LMAX:   4

          ATOMIC SPHERE DEPENDENT PARAMETERS FOR ATOM  Pr1       
:e__0001: OVERALL ENERGY PARAMETER IS    0.5308
          OVERALL BASIS SET ON ATOM IS LAPW
:E0_0001: E( 0)=    0.5308
             APW+lo
:E0_0001: E( 0)=   -1.9144   E(BOTTOM)=   -2.552   E(TOP)=   -1.277  4  5   191
             LOCAL ORBITAL
:E1_0001: E( 1)=    0.9308
             APW+lo
:E1_0001: E( 1)=   -0.4453   E(BOTTOM)=   -1.405   E(TOP)=    0.515  3  4   195
             LOCAL ORBITAL
:E3_0001: E( 3)=    0.7417   E(BOTTOM)=    0.533   E(TOP)=    0.951  0  1   117
             APW+lo
:E2_0001: E( 2)=    0.5308   E(BOTTOM)=    0.334   E(TOP)= -200.000  2 -1    82
             APW+lo

       K=   0.06250   0.00000   0.06250            1
:RKM  : MATRIX SIZE   407LOs:  40  RKM= 8.48  WEIGHT= 4.00  PGR:    
       EIGENVALUES ARE:
:EIG00001:      -1.8954612   -1.8727824   -0.6430382   -0.5350695   -0.5110808
:EIG00006:      -0.5031146   -0.4935120   -0.4929935    0.5064367    0.6273271
:EIG00011:       0.7350468    0.7406642    0.7414545    0.7449121    0.7504698
:EIG00016:       0.7656102    0.7714495    0.7722889    0.7753443    0.7786709
:EIG00021:       0.7836027    0.7862590    0.7881167    0.7959247    0.8152039
:EIG00026:       0.8284409    0.9162966    0.9250755    0.9716978    0.9961703
:EIG00031:       1.0104524    1.1196212    1.1621309    1.2167659    1.5195005
:EIG00036:       1.5504203    1.6048529    1.6286267    1.7871173    1.8419409
:EIG00041:       1.9420205    2.0386794    2.1374299    2.1522205    2.2788946
:EIG00046:       2.3059977    2.3225266    2.4222627    2.4584474    2.5731728
 
:EIG00051:       2.6249478    2.6829194    2.7041678    2.7989923    2.8418486
:EIG00056:       2.9015061    2.9194449    2.9976928    3.0699126    3.1548314
:EIG00061:       3.1944946    3.2464174    3.3748508    3.4019121    3.4401777
:EIG00066:       3.5622387    3.6039051    3.6831308    3.6889039    3.7089694
:EIG00071:       3.7132801    3.7717805    3.8127725    3.9011875    3.9151316
:EIG00076:       3.9663435    3.9705412    4.0286105    4.0564354    4.0816343
:EIG00081:       4.0935572    4.1409571    4.1535665    4.2404857    4.2698008
:EIG00086:       4.2922606    4.3755806    4.4138610    4.4512275    4.4541359
:EIG00091:       4.4905468    4.5440265    4.5509221    4.5870473    4.6003313
:EIG00096:       4.6276286    4.6829027    4.6956782    4.7249631    4.7888741
 
:EIG00101:       4.8781455    4.9966723    5.0235587    5.1060346    5.1136322
:EIG00106:       5.1278551    5.1847312    5.2352471    5.2514773    5.2751874
:EIG00111:       5.3724020    5.4201138    5.4788799    5.5500350    5.5734369
:EIG00116:       5.6215253    5.6575404    5.6668336    5.7323670    5.7740240
:EIG00121:       5.8016962    5.8322971    5.9147564    5.9206854    5.9851592
:EIG00126:       6.0711516    6.1372785    6.1476322    6.1521917    6.2315112
:EIG00131:       6.2606298    6.3150461    6.3191847    6.3309048    6.3899175
:EIG00136:       6.4704942    6.4832660    6.5259374    6.5502017    6.5784306
:EIG00141:       6.6114541    6.6513688    6.6831227    6.6882726    6.7569733
:EIG00146:       6.7711345    6.7899511    6.8515842    6.8848301    6.9047889
 
:EIG00151:       6.9602539    6.9872526    7.0385597    7.1177861    7.1869166
:EIG00156:       7.2734317    7.3618707    7.3628195    7.3805482    7.4835356
:EIG00161:       7.5401512    7.6113162    7.6244083    7.6596286    7.6855596
:EIG00166:       7.7103034    7.7151448    7.7263386    7.8037290    7.8881431
:EIG00171:       7.8916873    7.9315294    7.9606490    7.9885890    8.0553137
:EIG00176:       8.0639683    8.1132436    8.1288021    8.1729808    8.1994882
:EIG00181:       8.2253743
       ********************************************************

:KPT   :      NUMBER OF K-POINTS:   288

------- case.scfso --------
   0.0   0.0 angle (M,z), angle (M,x) deg
 
        SPIN-ORBIT EIGENVALUES:
     K=   0.06250   0.00000   0.06250            1
      MATRIX SIZE=  362   WEIGHT= 4.00
     EIGENVALUES ARE:
          -1.8954617   -1.8954617   -1.8727826   -1.8727826   -0.7151205
          -0.7151205   -0.6520185   -0.6520185   -0.5252527   -0.5252527
          -0.4415756   -0.4415756   -0.4379284   -0.4379284   -0.4269903
          -0.4269903    0.5064929    0.5064929    0.6272174    0.6272174
           0.7313077    0.7313077    0.7372886    0.7372886    0.7381463
           0.7381463    0.7407745    0.7407745    0.7461421    0.7461421
           0.7545944    0.7545944    0.7673065    0.7673065    0.7765073
           0.7765073    0.7806657    0.7806657    0.7826309    0.7826309

           0.7858758    0.7858758    0.7905428    0.7905428    0.7932522
           0.7932522    0.8005809    0.8005809    0.8169972    0.8169972
           0.8289754    0.8289754    0.9140848    0.9140848    0.9271176
           0.9271176    0.9719986    0.9719987    0.9964492    0.9964492
           1.0106664    1.0106664    1.1195077    1.1195077    1.1623968
           1.1623968    1.2168879    1.2168879    1.5197167    1.5197167
           1.5504717    1.5504717    1.6048173    1.6048173    1.6286925
           1.6286925    1.7867968    1.7867968    1.8414355    1.8414355

           1.9420321    1.9420321    2.0376736    2.0376736    2.1356118
           2.1356118    2.1534422    2.1534422    2.2791975    2.2791975
           2.3058799    2.3058799    2.3213229    2.3213229    2.4214510
           2.4214510    2.4596815    2.4596815    2.5730650    2.5730650
           2.6243012    2.6243012    2.6803595    2.6803595    2.7057783
           2.7057783    2.7989140    2.7989140    2.8429234    2.8429234
           2.9017251    2.9017251    2.9188461    2.9188461    2.9982888
           2.9982888    3.0705667    3.0705667    3.1547051    3.1547051

           3.1945534    3.1945534    3.2507796    3.2507796    3.3747161
           3.3747161    3.4019673    3.4019673    3.4404093    3.4404093
           3.5622834    3.5622834    3.6040174    3.6040174    3.6831474
           3.6831474    3.6885909    3.6885909    3.7089116    3.7089116
           3.7137324    3.7137324    3.7716215    3.7716215    3.8128473
           3.8128473    3.9000622    3.9000622    3.9163944    3.9163944
           3.9660953    3.9660953    3.9729348    3.9729348    4.0287164
           4.0287164    4.0569031    4.0569031    4.0816698    4.0816698

           4.0938044    4.0938044    4.1410120    4.1410120    4.1540765
           4.1540765    4.2405300    4.2405300    4.2698781    4.2698781
           4.2925129    4.2925129    4.3755831    4.3755831    4.4140267
           4.4140267    4.4511770    4.4511770    4.4542905    4.4542905
           4.4905858    4.4905858
       ********************************************************

------- case.scf2 --------
:GMA  : POTENTIAL AND CHARGE CUT-OFF  12.00 Ry**.5




:POS001: at.nr.  -1 position = 0.00000 0.89750 0.25000  multiplicity =  2

       lmmax 16
       lm=   0 0  1 0  2 0  2 2  3 0  3 2  4 0  4 2  4 4  5 0  5 2  5 4  6 0  6 2  6 4  6 6
:FER gutzwiller fermi energy   0.74996
:EORB         -0.095191340
:SUM sum of gutz band energies         -7.160550031

:CHA001: total charge inside sphere   1 =     9.571578
:PCS001: partial charges sphere =  1 s,p,d,f,px,py,pz,d-z2,d-x2y2,d-xy,d-xz,d-yz 
:QTL001: 1.9452 5.0069 0.6314 1.9876 1.6661 1.6661 1.6747 0.1191 0.1162 0.1340 0.1254 0.1367

                      vxx         vyy         vzz       up to r

:VZZ001:             4.24054     4.26063    -8.50117       2.300

:CHA  : total charge inside unit cell =      12.999997

------- case.scfc --------

        1.ATOM      Pr1                  14 CORE STATES
       CORE-FORCE in mRy/a.u. = |F|      Fx             Fy             Fz
:FCO001:   1.ATOM    741.261992207864      0.000000000000      0.000000000000    741.261992207864

:1S 001: 1S               -3066.838974792 Ry
:2S 001: 2S                -492.590951185 Ry
:2PP001: 2P*               -465.690164321 Ry
:2P 001: 2P                -430.292640297 Ry
:3S 001: 3S                -105.681865163 Ry
:3PP001: 3P*                -94.219669898 Ry
:3P 001: 3P                 -87.211890354 Ry
:3DD001: 3D*                -67.138689068 Ry
:3D 001: 3D                 -65.627146402 Ry
:4S 001: 4S                 -20.361259275 Ry
:4PP001: 4P*                -16.068145338 Ry
:4P 001: 4P                 -14.540910331 Ry
:4DD001: 4D*                 -7.474066514 Ry
:4D 001: 4D                  -7.204714382 Ry

------- case.scfm --------
:CINT001 Core Integral Atom   1   45.998481

       DENSITY AT NUCLEUS
        JATOM        VALENCE       SEMI-CORE          CORE           TOTAL
:RTO001:   1      649.863607        0.000000   656824.289625   657474.153232
     
       CHARGES OF NEW CHARGE DENSITY
:NTO   : INTERSTITIAL CHARGE =     6.856741
:NPC   : PW Pseudocharge     =    17.106992
:NTO001: CHARGE SPHERE  1    =    55.570059

:NEC01: NUCLEAR AND ELECTRONIC CHARGE    118.00000   117.99686
     
       CHARGES OF OLD CHARGE DENSITY
:OTO   : INTERSTITIAL CHARGE =     6.858234
:OPC   : PW Pseudocharge     =    17.113932
:OTO001: CHARGE SPHERE  1    =    55.570883

:NEC02: NUCLEAR AND ELECTRONIC CHARGE    118.00000   118.00000
     
       CONVERGENCE TEST
:DTO001: DIFFERENCE IN SPHERE  1 =  0.0014421

:DIS  :  CHARGE DISTANCE       ( 0.0014421 for atom    1 spin 1)      0.0014421
 PW Mixed is          446
 
******************************************************
* MULTISECANT MIXING VER9 RELEASE 10.4.0              *
* Standard Mode with controls                        *
* Fixed density scale                                *
* Restart from converged density                     *
* Regularization       1.000E-04                     *
* Trust Upper Limit    5.000E+00                     *
* Max Number of Memory Steps    8                    *
******************************************************
 
:INFO : Forcing a restart
:PWTMP   3.1917E+02  1.9467E+02  4.2110E+02
:PLANE:  PW TOTAL      5.0054 DISTAN   3.38E-04  6.74E-03 %
:CHARG:  CLM/ATOM   1381.9493 DISTAN   2.16E-03  1.57E-04 %
 
Step History
        DMIX         DMIXT        Red     Pred      Trust     Lambda    MagRel    MagAbs     Beta
  1   3.5000E-02   3.5000E-02 -1.00E+00  1.00E+00 -1.00E+01  1.00E+00  3.50E-02  3.50E-02  1.00E+00
:INFO :  Note, Pratt in use
:TRUST:  Step 2.25E-01  Charge 7.50E-02 (e) CTO  2.50E-01 (e) PW  3.50E-01 (e)
:DIRM :  MEMORY  0/ 8 SCALE   1.000
Performing Pseudo Compensation
Final Pseudo Compensation Rescaling     1.00000E+00
:MIX  :   PRATT  REGULARIZATION:  1.00E-04 GREED: 0.15000                  
     
       CHARGES OF MIXED CHARGE DENSITY
:CTO   : INTERSTITIAL CHARGE =     6.858481
:CPC   : PW Pseudocharge     =    17.114339
:CTO001: CHARGE SPHERE  1    =    55.570760

:NEC03: NUCLEAR AND ELECTRONIC CHARGE    118.00000   118.00000

PW CHANGE     H    K    L      Current       Change    Residue
:PTO001:      0    0    0  5.69295836E-02  1.555E-06  6.036E-06
:PTO003:      0    2    0  1.50501888E-02  4.704E-07  1.386E-06
:PTO004:     -1    1    0  7.39591607E-02  1.649E-06  1.859E-06
:PTO005:      0    2   -1 -8.58658504E-02 -1.879E-06 -1.765E-06
:PTO006:      0    0   -2 -4.45159234E-02 -1.013E-06 -1.163E-06
:PTO007:     -1    1   -1 -9.24725142E-02 -2.178E-06 -2.305E-06
:PTO008:      0    2   -2 -1.48082889E-02 -5.700E-07 -1.622E-06
:PTO009:     -1    1   -2 -7.50401411E-02 -1.789E-06 -7.087E-07
:PTO011:     -1    3    0 -1.19509364E-02 -2.492E-07  2.370E-07
:PTO012:     -1    3   -1 -5.30440227E-02 -1.548E-06 -1.632E-06
:PTO013:      0    4    0 -9.50138312E-03 -2.328E-07  9.030E-08
:PTO014:      0    2   -3  2.18123563E-02  6.519E-07  6.430E-07

:ENE  : ********** TOTAL ENERGY IN Ry =       -36944.24352775

       TOTAL FORCE IN mRy/a.u. = |F|     Fx             Fy             Fz     with/without FOR in case.in2
:FOR001:   1.ATOM         14.483          0.000          0.000        -14.483 partial forces
       TOTAL FORCE WITH RESPECT TO GLOBAL CARTESIAN COORDINATES:
:FCA001:   1.ATOM                         0.000        -14.483          0.000 partial forces
       TOTAL FORCE WITH RESPECT TO THE GLOBAL COORDINATE SYSTEM:
:FGL001:   1.ATOM                 0.000000000   -14.482576023     0.000000000 partial forces

------- case.scf0 --------
 Flat Integration
 New Mode for Coulomb Integral
 Consistent 3/8+Simpson combinations
 Extension of core to zero
 LDM version in phi
 Fifth-order quadrature in outwin


            ---------
:ITE037: 37. ITERATION
            ---------

:NATO :    1 INDEPENDENT AND    2 TOTAL ATOMS IN UNITCELL
       SUBSTANCE: aU                                                          

       LATTICE                      = CXY 
:POT  : POTENTIAL OPTION EX_LDA EC_LDA VX_LDA VC_LDA
:LAT  : LATTICE CONSTANTS=  6.18760 12.55620 10.84003    1.571    1.571    1.571
:VOL  : UNIT CELL VOLUME =     421.09601
       MODE OF CALCULATION IS       = RELA
       NON-SPINPOLARIZED CALCULATION
:IFFT  : FFT-parameters:   48   96   90 Factor: 2.00


   CONVERGENCE PARAMETER FOR PSEUDOCHARGE: NCON=  9
   MAXIMAL VALUE OF RMT(JATOM)*ABSK(NKK) : RK  =27.59215


:VKCOUL :  VK-COUL convergence: 0.103E-06
       ATOMNUMBER=  1 Pr1        VCOUL-ZERO =  0.18830E+00
:EFG001:                        EFG         =    -8.53772   *10**21  V / m**2
                               V20  TOT/SRF=    -7.39389    -0.03864
                               V22  TOT/SRF=    -0.01247     0.00172
                               V22M TOT/SRF=     0.00000     0.00000
                               V21  TOT/SRF=     0.00000     0.00000
                               V21M TOT/SRF=     0.00000     0.00000

              4.25639    0.00000    0.00000        4.25639    0.00000    0.00000
              0.00000    4.28133    0.00000        0.00000    4.28133    0.00000
              0.00000    0.00000   -8.53772        0.00000    0.00000   -8.53772

         MAIN DIRECTIONS OF THE EFG   1.0000  0.0000  0.0000
                                      0.0000  1.0000  0.0000
                                      0.0000  0.0000  1.0000
:ANG001:  ANGLE WITH OLD X-AXIS =         0.0

:ETA001:                         ASYMM. ETA =     0.00292


     HELLMANN-FEYNMAN-FORCE IN mRy/a.u. = |F|  Fx       Fy             Fz
:FHF001:   1.ATOM    754.645258551013      0.000000000000      0.000000000000   -754.645258551013

:FIT001: LUSE= 13 SIGMA OF V-XC FIT FOR ATOM  1  0.9969643E-05
:FIT001: LUSE= 13 SIGMA OF V-XC FIT FOR ATOM  1  0.9969643E-05
:DEN  : DENSITY INTEGRAL  =        -14163.91023960   (Ry)
       ELS_POTENTIAL_AT Z=0 and Z=0.5:   0.77913   0.77913
       ELS_POTENTIAL_AT Y=0 and Y=0.5:   0.05350   0.05350
:VZERO:v0,v0c,v0x   0.16915   0.77913  -0.60998 v5,v5c,v5x   0.16915   0.77913  -0.60998
:VZERY:v0,v0c,v0x  -0.76099   0.05350  -0.81449 v5,v5c,v5x  -0.76099   0.05350  -0.81449
:VZERX:v0,v0c,v0x  -1.16006  -0.38534  -0.77473 v5,v5c,v5x  -1.16006  -0.38534  -0.77473

------- case.scf1 --------
:LMAX-WF:   10   Non-Spherical LMAX:   4

          ATOMIC SPHERE DEPENDENT PARAMETERS FOR ATOM  Pr1       
:e__0001: OVERALL ENERGY PARAMETER IS    0.5308
          OVERALL BASIS SET ON ATOM IS LAPW
:E0_0001: E( 0)=    0.5308
             APW+lo
:E0_0001: E( 0)=   -1.9145   E(BOTTOM)=   -2.552   E(TOP)=   -1.277  4  5   189
             LOCAL ORBITAL
:E1_0001: E( 1)=    0.9308
             APW+lo
:E1_0001: E( 1)=   -0.4454   E(BOTTOM)=   -1.405   E(TOP)=    0.514  3  4   195
             LOCAL ORBITAL
:E3_0001: E( 3)=    0.7415   E(BOTTOM)=    0.533   E(TOP)=    0.951  0  1   120
             APW+lo
:E2_0001: E( 2)=    0.5308   E(BOTTOM)=    0.334   E(TOP)= -200.000  2 -1    85
             APW+lo

       K=   0.06250   0.00000   0.06250            1
:RKM  : MATRIX SIZE   407LOs:  40  RKM= 8.48  WEIGHT= 4.00  PGR:    
       EIGENVALUES ARE:
:EIG00001:      -1.8955391   -1.8728625   -0.6430885   -0.5351263   -0.5111392
:EIG00006:      -0.5031779   -0.4935746   -0.4930578    0.5064371    0.6273214
:EIG00011:       0.7349420    0.7405338    0.7413203    0.7447828    0.7503386
:EIG00016:       0.7654607    0.7712993    0.7721406    0.7751940    0.7785276
:EIG00021:       0.7834595    0.7861181    0.7879767    0.7957709    0.8151192
:EIG00026:       0.8283861    0.9162600    0.9250537    0.9716760    0.9961490
:EIG00031:       1.0104281    1.1195971    1.1621007    1.2167338    1.5194876
:EIG00036:       1.5504013    1.6048437    1.6286069    1.7871113    1.8419358
:EIG00041:       1.9420098    2.0386703    2.1374191    2.1522080    2.2788792
:EIG00046:       2.3059870    2.3225254    2.4222524    2.4584433    2.5731640
 
:EIG00051:       2.6249376    2.6829065    2.7041599    2.7989785    2.8418309
:EIG00056:       2.9015005    2.9194390    2.9976665    3.0699021    3.1548168
:EIG00061:       3.1944910    3.2463984    3.3748368    3.4019159    3.4401765
:EIG00066:       3.5622288    3.6039061    3.6831201    3.6889015    3.7089660
:EIG00071:       3.7132815    3.7717777    3.8127700    3.9011851    3.9151310
:EIG00076:       3.9663360    3.9705443    4.0286095    4.0564358    4.0816368
:EIG00081:       4.0935533    4.1409593    4.1535692    4.2404884    4.2698079
:EIG00086:       4.2922538    4.3755913    4.4138636    4.4512271    4.4541329
:EIG00091:       4.4905519    4.5440332    4.5509209    4.5870439    4.6003240
:EIG00096:       4.6276347    4.6829082    4.6956832    4.7249617    4.7888788
 
:EIG00101:       4.8781448    4.9966764    5.0235572    5.1060379    5.1136386
:EIG00106:       5.1278575    5.1847371    5.2352521    5.2514772    5.2751937
:EIG00111:       5.3724082    5.4201208    5.4788698    5.5500302    5.5734388
:EIG00116:       5.6215309    5.6575388    5.6668346    5.7323614    5.7740203
:EIG00121:       5.8016894    5.8323029    5.9147537    5.9206902    5.9851588
:EIG00126:       6.0711555    6.1372780    6.1476291    6.1521950    6.2315136
:EIG00131:       6.2606277    6.3150507    6.3191868    6.3309019    6.3899142
:EIG00136:       6.4704999    6.4832680    6.5259452    6.5502072    6.5784329
:EIG00141:       6.6114557    6.6513712    6.6831268    6.6882740    6.7569787
:EIG00146:       6.7711414    6.7899547    6.8515885    6.8848170    6.9047965
 
:EIG00151:       6.9602626    6.9872559    7.0385681    7.1177834    7.1869205
:EIG00156:       7.2734306    7.3618759    7.3628225    7.3805546    7.4835394
:EIG00161:       7.5401561    7.6113203    7.6244043    7.6596321    7.6855555
:EIG00166:       7.7103070    7.7151468    7.7263385    7.8037315    7.8881412
:EIG00171:       7.8916880    7.9315299    7.9606498    7.9885880    8.0553147
:EIG00176:       8.0639694    8.1132444    8.1287946    8.1729823    8.1994900
:EIG00181:       8.2253799
       ********************************************************

:KPT   :      NUMBER OF K-POINTS:   288

------- case.scfso --------
   0.0   0.0 angle (M,z), angle (M,x) deg
 
        SPIN-ORBIT EIGENVALUES:
     K=   0.06250   0.00000   0.06250            1
      MATRIX SIZE=  362   WEIGHT= 4.00
     EIGENVALUES ARE:
          -1.8955396   -1.8955396   -1.8728626   -1.8728626   -0.7151785
          -0.7151785   -0.6520839   -0.6520839   -0.5253063   -0.5253063
          -0.4416353   -0.4416353   -0.4379871   -0.4379871   -0.4270509
          -0.4270509    0.5064933    0.5064933    0.6272117    0.6272117
           0.7311926    0.7311926    0.7371545    0.7371545    0.7380131
           0.7380131    0.7406419    0.7406419    0.7460072    0.7460072
           0.7544427    0.7544427    0.7671728    0.7671728    0.7763650
           0.7763650    0.7805165    0.7805165    0.7824918    0.7824919

           0.7857351    0.7857351    0.7904092    0.7904092    0.7931071
           0.7931071    0.8004292    0.8004292    0.8169068    0.8169068
           0.8289157    0.8289157    0.9140481    0.9140481    0.9270946
           0.9270946    0.9719768    0.9719769    0.9964278    0.9964278
           1.0106422    1.0106422    1.1194835    1.1194835    1.1623667
           1.1623667    1.2168557    1.2168557    1.5197037    1.5197037
           1.5504527    1.5504527    1.6048081    1.6048081    1.6286727
           1.6286727    1.7867908    1.7867908    1.8414305    1.8414305

           1.9420214    1.9420214    2.0376644    2.0376644    2.1356008
           2.1356008    2.1534301    2.1534301    2.2791822    2.2791822
           2.3058692    2.3058692    2.3213214    2.3213214    2.4214411
           2.4214411    2.4596770    2.4596770    2.5730561    2.5730561
           2.6242910    2.6242910    2.6803471    2.6803471    2.7057699
           2.7057699    2.7989002    2.7989002    2.8429061    2.8429061
           2.9017194    2.9017194    2.9188400    2.9188400    2.9982627
           2.9982627    3.0705561    3.0705561    3.1546904    3.1546904

           3.1945497    3.1945497    3.2507608    3.2507608    3.3747022
           3.3747022    3.4019711    3.4019711    3.4404080    3.4404080
           3.5622735    3.5622735    3.6040184    3.6040184    3.6831373
           3.6831373    3.6885880    3.6885880    3.7089087    3.7089087
           3.7137334    3.7137334    3.7716187    3.7716187    3.8128448
           3.8128448    3.9000600    3.9000600    3.9163936    3.9163936
           3.9660887    3.9660887    3.9729371    3.9729371    4.0287154
           4.0287154    4.0569035    4.0569035    4.0816722    4.0816722

           4.0938006    4.0938006    4.1410142    4.1410142    4.1540792
           4.1540792    4.2405327    4.2405327    4.2698852    4.2698852
           4.2925062    4.2925062    4.3755938    4.3755938    4.4140292
           4.4140292    4.4511766    4.4511766    4.4542876    4.4542876
           4.4905908    4.4905908
       ********************************************************

------- case.scf2 --------
:GMA  : POTENTIAL AND CHARGE CUT-OFF  12.00 Ry**.5




:POS001: at.nr.  -1 position = 0.00000 0.89750 0.25000  multiplicity =  2

       lmmax 16
       lm=   0 0  1 0  2 0  2 2  3 0  3 2  4 0  4 2  4 4  5 0  5 2  5 4  6 0  6 2  6 4  6 6
:FER gutzwiller fermi energy   0.75005
:EORB         -0.096472600
:SUM sum of gutz band energies         -7.160963194

:CHA001: total charge inside sphere   1 =     9.571037
:PCS001: partial charges sphere =  1 s,p,d,f,px,py,pz,d-z2,d-x2y2,d-xy,d-xz,d-yz 
:QTL001: 1.9453 5.0070 0.6318 1.9864 1.6661 1.6661 1.6747 0.1192 0.1163 0.1341 0.1255 0.1368

                      vxx         vyy         vzz       up to r

:VZZ001:             4.24694     4.26105    -8.50799       2.300

:CHA  : total charge inside unit cell =      13.000000

------- case.scfc --------

        1.ATOM      Pr1                  14 CORE STATES
       CORE-FORCE in mRy/a.u. = |F|      Fx             Fy             Fz
:FCO001:   1.ATOM    740.250256373100      0.000000000000      0.000000000000    740.250256373100

:1S 001: 1S               -3066.839275026 Ry
:2S 001: 2S                -492.591248280 Ry
:2PP001: 2P*               -465.690462122 Ry
:2P 001: 2P                -430.292937829 Ry
:3S 001: 3S                -105.682150383 Ry
:3PP001: 3P*                -94.219955970 Ry
:3P 001: 3P                 -87.212175109 Ry
:3DD001: 3D*                -67.138976441 Ry
:3D 001: 3D                 -65.627433414 Ry
:4S 001: 4S                 -20.361484555 Ry
:4PP001: 4P*                -16.068366845 Ry
:4P 001: 4P                 -14.541126008 Ry
:4DD001: 4D*                 -7.474271693 Ry
:4D 001: 4D                  -7.204917552 Ry

------- case.scfm --------
:CINT001 Core Integral Atom   1   45.998482

       DENSITY AT NUCLEUS
        JATOM        VALENCE       SEMI-CORE          CORE           TOTAL
:RTO001:   1      649.884043        0.000000   656824.303000   657474.187043
     
       CHARGES OF NEW CHARGE DENSITY
:NTO   : INTERSTITIAL CHARGE =     6.857976
:NPC   : PW Pseudocharge     =    17.107657
:NTO001: CHARGE SPHERE  1    =    55.569519

:NEC01: NUCLEAR AND ELECTRONIC CHARGE    118.00000   117.99701
     
       CHARGES OF OLD CHARGE DENSITY
:OTO   : INTERSTITIAL CHARGE =     6.858481
:OPC   : PW Pseudocharge     =    17.114339
:OTO001: CHARGE SPHERE  1    =    55.570760

:NEC02: NUCLEAR AND ELECTRONIC CHARGE    118.00000   118.00000
     
       CONVERGENCE TEST
:DTO001: DIFFERENCE IN SPHERE  1 =  0.0021564

:DIS  :  CHARGE DISTANCE       ( 0.0021564 for atom    1 spin 1)      0.0021564
 PW Mixed is          446
 
******************************************************
* MULTISECANT MIXING VER9 RELEASE 10.4.0              *
* Standard Mode with controls                        *
* Fixed density scale                                *
* Restart from converged density                     *
* Regularization       1.000E-04                     *
* Trust Upper Limit    5.000E+00                     *
* Max Number of Memory Steps    8                    *
******************************************************
 
:INFO : Forcing a restart
:PWTMP   3.1917E+02  1.9467E+02  4.2110E+02
:PLANE:  PW TOTAL      5.0056 DISTAN   4.05E-04  8.08E-03 %
:CHARG:  CLM/ATOM   1381.9493 DISTAN   3.28E-03  2.37E-04 %
 
Step History
        DMIX         DMIXT        Red     Pred      Trust     Lambda    MagRel    MagAbs     Beta
  1   3.5000E-02   3.5000E-02 -1.00E+00  1.00E+00 -1.00E+01  1.00E+00  3.50E-02  3.50E-02  1.00E+00
  2   1.5000E-01   1.5000E-01 -1.00E+00  1.00E+00 -1.00E+01  1.00E+00  1.50E-01  3.28E-04  1.00E+00
:JACOBIANS    5.921E-03   1.258E-01
  
:NORMS:  1/Froebius, Min, Max, Used   0.8357E-01 -0.2348E+00  0.8357E-01  0.8357E-01
:INFO :  Number of Memory Steps    1 Skipping    0
:PREDicted Charge, CTotal, PW Trust    1.966E-04   3.931E-04   4.816E-04
:PREDicted DMix, Beta, BLim   5.0000E-02  5.0000E-01  2.3916E+00

Eigenvalues, unscaled except for SY+YY
   #     SY Real        SY Imag          SS             YY         SY+YY Real      SY+YY Imag
   1  -2.347544E-01   0.000000E+00   8.356716E-02   1.000000E+00   7.652456E-01   0.000000E+00
 
:DLIM :  Beta Active  8.000E-01
:BLIM :  VZERO Control Off
:TRUST:  Step 3.00E+00  Charge 6.82E-02 (e) CTO  2.27E-01 (e) PW  3.18E-01 (e)
:DIRM :  MEMORY  1/8  SCALE   1.000 RED  1.51 PRED  1.00 NEXT  0.37 BETA  0.80
:TRAVE:  Charge 2.45E-04 (e) CTO  4.89E-04 (e) PW  5.81E-04 (e)
:DIRP :  |MSR1|= 2.445E-04 |PRATT|= 4.046E-04 ANGLE= 129.2 DEGREES
:DIRQ :  |MSR1|= 6.424E-04 |PRATT|= 3.276E-03 ANGLE= 175.9 DEGREES
:DIRT :  |MSR1|= 6.873E-04 |PRATT|= 3.301E-03 ANGLE= 162.3 DEGREES
:MIX  :   MSR1   REGULARIZATION:  1.00E-04 GREED: 0.07125  Newton 1.00  0.2082                
     
       CHARGES OF MIXED CHARGE DENSITY
:CTO   : INTERSTITIAL CHARGE =     6.857991
:CPC   : PW Pseudocharge     =    17.113572
:CTO001: CHARGE SPHERE  1    =    55.571004

:NEC03: NUCLEAR AND ELECTRONIC CHARGE    118.00000   118.00000

PW CHANGE     H    K    L      Current       Change    Residue
:PTO001:      0    0    0  5.69265992E-02 -2.984E-06  7.721E-06
:PTO003:      0    2    0  1.50495138E-02 -6.750E-07 -3.895E-07
:PTO004:     -1    1    0  7.39561153E-02 -3.045E-06 -2.535E-07
:PTO005:      0    2   -1 -8.58622859E-02  3.564E-06  2.949E-08
:PTO006:      0    0   -2 -4.45139804E-02  1.943E-06 -5.136E-07
:PTO007:     -1    1   -1 -9.24683856E-02  4.129E-06 -3.611E-07
:PTO008:      0    2   -2 -1.48072857E-02  1.003E-06 -1.070E-06
:PTO009:     -1    1   -2 -7.50367565E-02  3.385E-06  1.699E-06
:PTO011:     -1    3    0 -1.19503669E-02  5.695E-07 -8.141E-08
:PTO012:     -1    3   -1 -5.30410950E-02  2.928E-06 -1.831E-07
:PTO013:      0    4    0 -9.50090904E-03  4.741E-07  2.222E-07
:PTO014:      0    2   -3  2.18110987E-02 -1.257E-06  2.208E-07

:ENE  : ********** TOTAL ENERGY IN Ry =       -36944.24355635

       TOTAL FORCE IN mRy/a.u. = |F|     Fx             Fy             Fz     with/without FOR in case.in2
:FOR001:   1.ATOM         14.395          0.000          0.000        -14.395 partial forces
       TOTAL FORCE WITH RESPECT TO GLOBAL CARTESIAN COORDINATES:
:FCA001:   1.ATOM                         0.000        -14.395          0.000 partial forces
       TOTAL FORCE WITH RESPECT TO THE GLOBAL COORDINATE SYSTEM:
:FGL001:   1.ATOM                 0.000000000   -14.395002178     0.000000000 partial forces

------- case.scf0 --------
 Flat Integration
 New Mode for Coulomb Integral
 Consistent 3/8+Simpson combinations
 Extension of core to zero
 LDM version in phi
 Fifth-order quadrature in outwin


            ---------
:ITE038: 38. ITERATION
            ---------

:NATO :    1 INDEPENDENT AND    2 TOTAL ATOMS IN UNITCELL
       SUBSTANCE: aU                                                          

       LATTICE                      = CXY 
:POT  : POTENTIAL OPTION EX_LDA EC_LDA VX_LDA VC_LDA
:LAT  : LATTICE CONSTANTS=  6.18760 12.55620 10.84003    1.571    1.571    1.571
:VOL  : UNIT CELL VOLUME =     421.09601
       MODE OF CALCULATION IS       = RELA
       NON-SPINPOLARIZED CALCULATION
:IFFT  : FFT-parameters:   48   96   90 Factor: 2.00


   CONVERGENCE PARAMETER FOR PSEUDOCHARGE: NCON=  9
   MAXIMAL VALUE OF RMT(JATOM)*ABSK(NKK) : RK  =27.59215


:VKCOUL :  VK-COUL convergence: 0.103E-06
       ATOMNUMBER=  1 Pr1        VCOUL-ZERO =  0.18830E+00
:EFG001:                        EFG         =    -8.53485   *10**21  V / m**2
                               V20  TOT/SRF=    -7.39140    -0.03862
                               V22  TOT/SRF=    -0.01443     0.00172
                               V22M TOT/SRF=     0.00000     0.00000
                               V21  TOT/SRF=     0.00000     0.00000
                               V21M TOT/SRF=     0.00000     0.00000

              4.25300    0.00000    0.00000        4.25300    0.00000    0.00000
              0.00000    4.28185    0.00000        0.00000    4.28185    0.00000
              0.00000    0.00000   -8.53485        0.00000    0.00000   -8.53485

         MAIN DIRECTIONS OF THE EFG   1.0000  0.0000  0.0000
                                      0.0000  1.0000  0.0000
                                      0.0000  0.0000  1.0000
:ANG001:  ANGLE WITH OLD X-AXIS =         0.0

:ETA001:                         ASYMM. ETA =     0.00338


     HELLMANN-FEYNMAN-FORCE IN mRy/a.u. = |F|  Fx       Fy             Fz
:FHF001:   1.ATOM    756.366877742522      0.000000000000      0.000000000000   -756.366877742522

:FIT001: LUSE= 13 SIGMA OF V-XC FIT FOR ATOM  1  0.9980814E-05
:FIT001: LUSE= 13 SIGMA OF V-XC FIT FOR ATOM  1  0.9980814E-05
:DEN  : DENSITY INTEGRAL  =        -14163.95985132   (Ry)
       ELS_POTENTIAL_AT Z=0 and Z=0.5:   0.77908   0.77908
       ELS_POTENTIAL_AT Y=0 and Y=0.5:   0.05350   0.05350
:VZERO:v0,v0c,v0x   0.16912   0.77908  -0.60996 v5,v5c,v5x   0.16912   0.77908  -0.60996
:VZERY:v0,v0c,v0x  -0.76097   0.05350  -0.81448 v5,v5c,v5x  -0.76097   0.05350  -0.81448
:VZERX:v0,v0c,v0x  -1.16003  -0.38532  -0.77471 v5,v5c,v5x  -1.16003  -0.38532  -0.77471

------- case.scf1 --------
:LMAX-WF:   10   Non-Spherical LMAX:   4

          ATOMIC SPHERE DEPENDENT PARAMETERS FOR ATOM  Pr1       
:e__0001: OVERALL ENERGY PARAMETER IS    0.5308
          OVERALL BASIS SET ON ATOM IS LAPW
:E0_0001: E( 0)=    0.5308
             APW+lo
:E0_0001: E( 0)=   -1.9143   E(BOTTOM)=   -2.552   E(TOP)=   -1.277  4  5   187
             LOCAL ORBITAL
:E1_0001: E( 1)=    0.9308
             APW+lo
:E1_0001: E( 1)=   -0.4452   E(BOTTOM)=   -1.405   E(TOP)=    0.515  3  4   202
             LOCAL ORBITAL
:E3_0001: E( 3)=    0.7418   E(BOTTOM)=    0.533   E(TOP)=    0.951  0  1   118
             APW+lo
:E2_0001: E( 2)=    0.5308   E(BOTTOM)=    0.334   E(TOP)= -200.000  2 -1    84
             APW+lo

       K=   0.06250   0.00000   0.06250            1
:RKM  : MATRIX SIZE   407LOs:  40  RKM= 8.48  WEIGHT= 4.00  PGR:    
       EIGENVALUES ARE:
:EIG00001:      -1.8953834   -1.8727026   -0.6429869   -0.5350126   -0.5110220
:EIG00006:      -0.5030513   -0.4934489   -0.4929294    0.5064369    0.6273329
:EIG00011:       0.7351511    0.7407922    0.7415870    0.7450386    0.7505992
:EIG00016:       0.7657566    0.7715968    0.7724347    0.7754915    0.7788115
:EIG00021:       0.7837429    0.7863977    0.7882538    0.7960761    0.8152869
:EIG00026:       0.8284956    0.9163334    0.9250979    0.9717203    0.9961920
:EIG00031:       1.0104769    1.1196463    1.1621614    1.2167990    1.5195135
:EIG00036:       1.5504399    1.6048621    1.6286464    1.7871227    1.8419474
:EIG00041:       1.9420320    2.0386894    2.1374401    2.1522343    2.2789109
:EIG00046:       2.3060086    2.3225294    2.4222729    2.4584531    2.5731816
 
:EIG00051:       2.6249579    2.6829339    2.7041763    2.7990065    2.8418661
:EIG00056:       2.9015123    2.9194514    2.9977198    3.0699226    3.1548467
:EIG00061:       3.1944982    3.2464368    3.3748648    3.4019095    3.4401796
:EIG00066:       3.5622493    3.6039055    3.6831414    3.6889072    3.7089737
:EIG00071:       3.7132796    3.7717839    3.8127752    3.9011907    3.9151325
:EIG00076:       3.9663511    3.9705396    4.0286121    4.0564361    4.0816331
:EIG00081:       4.0935616    4.1409547    4.1535653    4.2404845    4.2697940
:EIG00086:       4.2922689    4.3755707    4.4138585    4.4512290    4.4541391
:EIG00091:       4.4905427    4.5440204    4.5509244    4.5870524    4.6003394
:EIG00096:       4.6276238    4.6828987    4.6956741    4.7249653    4.7888700
 
:EIG00101:       4.8781477    4.9966695    5.0235616    5.1060325    5.1136267
:EIG00106:       5.1278533    5.1847263    5.2352433    5.2514787    5.2751817
:EIG00111:       5.3723969    5.4201074    5.4788902    5.5500398    5.5734349
:EIG00116:       5.6215208    5.6575422    5.6668332    5.7323727    5.7740283
:EIG00121:       5.8017041    5.8322930    5.9147601    5.9206821    5.9851610
:EIG00126:       6.0711485    6.1372799    6.1476359    6.1521901    6.2315098
:EIG00131:       6.2606322    6.3150432    6.3191834    6.3309089    6.3899209
:EIG00136:       6.4704897    6.4832651    6.5259307    6.5501968    6.5784291
:EIG00141:       6.6114540    6.6513665    6.6831204    6.6882718    6.7569686
:EIG00146:       6.7711289    6.7899483    6.8515818    6.8848437    6.9047820
 
:EIG00151:       6.9602457    6.9872501    7.0385523    7.1177900    7.1869137
:EIG00156:       7.2734335    7.3618665    7.3628175    7.3805429    7.4835322
:EIG00161:       7.5401467    7.6113134    7.6244126    7.6596261    7.6855642
:EIG00166:       7.7103008    7.7151436    7.7263396    7.8037279    7.8881460
:EIG00171:       7.8916873    7.9315295    7.9606495    7.9885907    8.0553140
:EIG00176:       8.0639681    8.1132439    8.1288103    8.1729803    8.1994872
:EIG00181:       8.2253697
       ********************************************************

:KPT   :      NUMBER OF K-POINTS:   288

------- case.scfso --------
   0.0   0.0 angle (M,z), angle (M,x) deg
 
        SPIN-ORBIT EIGENVALUES:
     K=   0.06250   0.00000   0.06250            1
      MATRIX SIZE=  362   WEIGHT= 4.00
     EIGENVALUES ARE:
          -1.8953839   -1.8953839   -1.8727027   -1.8727027   -0.7150621
          -0.7150620   -0.6519529   -0.6519529   -0.5251987   -0.5251987
          -0.4415161   -0.4415161   -0.4378696   -0.4378696   -0.4269293
          -0.4269293    0.5064932    0.5064932    0.6272233    0.6272233
           0.7314219    0.7314219    0.7374207    0.7374208    0.7382773
           0.7382773    0.7409044    0.7409044    0.7462752    0.7462752
           0.7547433    0.7547433    0.7674376    0.7674377    0.7766470
           0.7766470    0.7808119    0.7808119    0.7827674    0.7827674

           0.7860138    0.7860138    0.7906740    0.7906740    0.7933946
           0.7933946    0.8007302    0.8007302    0.8170861    0.8170861
           0.8290348    0.8290348    0.9141217    0.9141217    0.9271412
           0.9271412    0.9720213    0.9720214    0.9964710    0.9964710
           1.0106908    1.0106908    1.1195329    1.1195329    1.1624273
           1.1624273    1.2169209    1.2169209    1.5197297    1.5197297
           1.5504913    1.5504913    1.6048265    1.6048265    1.6287121
           1.6287121    1.7868024    1.7868024    1.8414421    1.8414421

           1.9420436    1.9420436    2.0376837    2.0376837    2.1356226
           2.1356226    2.1534555    2.1534555    2.2792137    2.2792137
           2.3058907    2.3058907    2.3213260    2.3213260    2.4214609
           2.4214609    2.4596875    2.4596875    2.5730739    2.5730739
           2.6243112    2.6243112    2.6803733    2.6803733    2.7057875
           2.7057875    2.7989282    2.7989282    2.8429407    2.8429407
           2.9017314    2.9017314    2.9188528    2.9188528    2.9983156
           2.9983156    3.0705768    3.0705768    3.1547205    3.1547205

           3.1945572    3.1945572    3.2507987    3.2507987    3.3747301
           3.3747301    3.4019647    3.4019647    3.4404111    3.4404111
           3.5622940    3.5622940    3.6040179    3.6040179    3.6831577
           3.6831577    3.6885948    3.6885948    3.7089153    3.7089153
           3.7137323    3.7137323    3.7716247    3.7716247    3.8128500
           3.8128500    3.9000652    3.9000652    3.9163956    3.9163956
           3.9661022    3.9661022    3.9729340    3.9729340    4.0287180
           4.0287180    4.0569039    4.0569039    4.0816686    4.0816686

           4.0938086    4.0938086    4.1410095    4.1410095    4.1540753
           4.1540753    4.2405288    4.2405288    4.2698713    4.2698713
           4.2925211    4.2925211    4.3755732    4.3755732    4.4140242
           4.4140242    4.4511785    4.4511785    4.4542937    4.4542937
           4.4905817    4.4905817
       ********************************************************

------- case.scf2 --------
:GMA  : POTENTIAL AND CHARGE CUT-OFF  12.00 Ry**.5




:POS001: at.nr.  -1 position = 0.00000 0.89750 0.25000  multiplicity =  2

       lmmax 16
       lm=   0 0  1 0  2 0  2 2  3 0  3 2  4 0  4 2  4 4  5 0  5 2  5 4  6 0  6 2  6 4  6 6
:FER gutzwiller fermi energy   0.75019
:EORB         -0.096125975
:SUM sum of gutz band energies         -7.157996689

:CHA001: total charge inside sphere   1 =     9.569836
:PCS001: partial charges sphere =  1 s,p,d,f,px,py,pz,d-z2,d-x2y2,d-xy,d-xz,d-yz 
:QTL001: 1.9453 5.0070 0.6323 1.9848 1.6661 1.6661 1.6747 0.1193 0.1164 0.1342 0.1256 0.1369

                      vxx         vyy         vzz       up to r

:VZZ001:             4.25575     4.26853    -8.52428       2.300

:CHA  : total charge inside unit cell =      13.000000

------- case.scfc --------

        1.ATOM      Pr1                  14 CORE STATES
       CORE-FORCE in mRy/a.u. = |F|      Fx             Fy             Fz
:FCO001:   1.ATOM    741.873439598683      0.000000000000      0.000000000000    741.873439598683

:1S 001: 1S               -3066.838708961 Ry
:2S 001: 2S                -492.590682160 Ry
:2PP001: 2P*               -465.689896005 Ry
:2P 001: 2P                -430.292371722 Ry
:3S 001: 3S                -105.681596359 Ry
:3PP001: 3P*                -94.219400859 Ry
:3P 001: 3P                 -87.211622026 Ry
:3DD001: 3D*                -67.138419735 Ry
:3D 001: 3D                 -65.626877213 Ry
:4S 001: 4S                 -20.361040758 Ry
:4PP001: 4P*                -16.067930388 Ry
:4P 001: 4P                 -14.540700755 Ry
:4DD001: 4D*                 -7.473866856 Ry
:4D 001: 4D                  -7.204516591 Ry

------- case.scfm --------
:CINT001 Core Integral Atom   1   45.998481

       DENSITY AT NUCLEUS
        JATOM        VALENCE       SEMI-CORE          CORE           TOTAL
:RTO001:   1      649.868539        0.000000   656824.279436   657474.147975
     
       CHARGES OF NEW CHARGE DENSITY
:NTO   : INTERSTITIAL CHARGE =     6.860479
:NPC   : PW Pseudocharge     =    17.108446
:NTO001: CHARGE SPHERE  1    =    55.568318

:NEC01: NUCLEAR AND ELECTRONIC CHARGE    118.00000   117.99711
     
       CHARGES OF OLD CHARGE DENSITY
:OTO   : INTERSTITIAL CHARGE =     6.857991
:OPC   : PW Pseudocharge     =    17.113572
:OTO001: CHARGE SPHERE  1    =    55.571004

:NEC02: NUCLEAR AND ELECTRONIC CHARGE    118.00000   118.00000
     
       CONVERGENCE TEST
:DTO001: DIFFERENCE IN SPHERE  1 =  0.0046327

:DIS  :  CHARGE DISTANCE       ( 0.0046327 for atom    1 spin 1)      0.0046327
 PW Mixed is          446
 
******************************************************
* MULTISECANT MIXING VER9 RELEASE 10.4.0              *
* Standard Mode with controls                        *
* Fixed density scale                                *
* Regularization       1.000E-04                     *
* Trust Upper Limit    5.000E+00                     *
* Max Number of Memory Steps    8                    *
******************************************************
 
:PWTMP   3.1917E+02  1.9467E+02  4.2110E+02
:PLANE:  PW TOTAL      5.0053 DISTAN   9.10E-04  1.82E-02 %
:CHARG:  CLM/ATOM   1381.9493 DISTAN   6.92E-03  5.01E-04 %
 
Step History
        DMIX         DMIXT        Red     Pred      Trust     Lambda    MagRel    MagAbs     Beta
  1   3.5000E-02   3.5000E-02 -1.00E+00  1.00E+00 -1.00E+01  1.00E+00  3.50E-02  3.50E-02  1.00E+00
  2   1.5000E-01   1.5000E-01  1.51E+00  1.00E+00 -1.00E+01  1.00E+00  1.50E-01  3.28E-04  1.00E+00
  3   7.1250E-02   7.1250E-02 -1.00E+00  3.70E-01  3.00E+00  1.00E+00  2.08E-01  6.87E-04  8.00E-01
:JACOBIANS    3.980E-02   2.491E-01
  
:NORMS:  1/Froebius, Min, Max, Used   0.1386E+00  0.5856E-01  0.1388E+00  0.1388E+00
:INFO :  Number of Memory Steps    2 Skipping    0
:INFO :  SLambda=    3.0000000000  Max    3.0000000000
:PREDicted Charge, CTotal, PW Trust    6.070E-05   1.214E-04   1.367E-04
:PREDicted DMix, Beta, BLim   1.7577E-01  1.0180E-01  9.5336E-01

Eigenvalues, unscaled except for SY+YY
   #     SY Real        SY Imag          SS             YY         SY+YY Real      SY+YY Imag
   1   5.537490E-04   0.000000E+00   3.838418E-02   1.991722E+00   8.689167E-03   0.000000E+00
   2   2.354463E-01   0.000000E+00   3.887240E-05   8.278431E-03   2.699311E+00   0.000000E+00
 
:INFO :  Singular value  2.718E+00 Weight  1.000E+00 Projection  4.954E-03
:INFO :  Singular value  8.629E-03 Weight  9.995E-01 Projection -1.256E-03
:RANK :  ACTIVE   2.00/2  =  99.97 % ; YY RANK   2.00/2  =  99.97 %
 
:DLIM :  Beta Active  6.400E-01
:BLIM :  VZERO Control Off
:TRUST:  Step 2.25E+00  Charge 6.20E-02 (e) CTO  2.07E-01 (e) PW  2.89E-01 (e)
:DIRM :  MEMORY  2/8  SCALE   1.000 RED  2.11 PRED  0.37 NEXT  0.37 BETA  0.64
:TRAVE:  Charge 2.11E-04 (e) CTO  4.23E-04 (e) PW  5.03E-04 (e)
:DIRP :  |MSR1|= 1.826E-04 |PRATT|= 9.104E-04 ANGLE=  46.6 DEGREES
:DIRQ :  |MSR1|= 4.887E-04 |PRATT|= 6.921E-03 ANGLE=  16.6 DEGREES
:DIRT :  |MSR1|= 5.217E-04 |PRATT|= 6.981E-03 ANGLE=  22.9 DEGREES
:MIX  :   MSE1   REGULARIZATION:  1.99E-04 GREED: 0.12882  Newton 1.00  0.0747                
     
       CHARGES OF MIXED CHARGE DENSITY
:CTO   : INTERSTITIAL CHARGE =     6.858347
:CPC   : PW Pseudocharge     =    17.114135
:CTO001: CHARGE SPHERE  1    =    55.570826

:NEC03: NUCLEAR AND ELECTRONIC CHARGE    118.00000   118.00000

PW CHANGE     H    K    L      Current       Change    Residue
:PTO001:      0    0    0  5.69287805E-02  2.181E-06  1.768E-05
:PTO003:      0    2    0  1.50501986E-02  6.848E-07 -1.780E-06
:PTO004:     -1    1    0  7.39583971E-02  2.282E-06  1.020E-06
:PTO005:      0    2   -1 -8.58649240E-02 -2.638E-06 -1.684E-06
:PTO006:      0    0   -2 -4.45153904E-02 -1.410E-06 -2.274E-06
:PTO007:     -1    1   -1 -9.24713649E-02 -2.979E-06 -3.769E-06
:PTO008:      0    2   -2 -1.48081420E-02 -8.564E-07 -1.637E-06
:PTO009:     -1    1   -2 -7.50391722E-02 -2.416E-06  6.708E-07
:PTO011:     -1    3    0 -1.19507179E-02 -3.510E-07 -8.747E-07
:PTO012:     -1    3   -1 -5.30433915E-02 -2.296E-06 -1.915E-07
:PTO013:      0    4    0 -9.50126420E-03 -3.552E-07  4.445E-07
:PTO014:      0    2   -3  2.18120879E-02  9.891E-07  2.204E-07

:ENE  : ********** TOTAL ENERGY IN Ry =       -36944.24357034

       TOTAL FORCE IN mRy/a.u. = |F|     Fx             Fy             Fz     with/without FOR in case.in2
:FOR001:   1.ATOM         14.493          0.000          0.000        -14.493 partial forces
       TOTAL FORCE WITH RESPECT TO GLOBAL CARTESIAN COORDINATES:
:FCA001:   1.ATOM                         0.000        -14.493          0.000 partial forces
       TOTAL FORCE WITH RESPECT TO THE GLOBAL COORDINATE SYSTEM:
:FGL001:   1.ATOM                 0.000000000   -14.493438144     0.000000000 partial forces

------- case.scf0 --------
 Flat Integration
 New Mode for Coulomb Integral
 Consistent 3/8+Simpson combinations
 Extension of core to zero
 LDM version in phi
 Fifth-order quadrature in outwin


            ---------
:ITE039: 39. ITERATION
            ---------

:NATO :    1 INDEPENDENT AND    2 TOTAL ATOMS IN UNITCELL
       SUBSTANCE: aU                                                          

       LATTICE                      = CXY 
:POT  : POTENTIAL OPTION EX_LDA EC_LDA VX_LDA VC_LDA
:LAT  : LATTICE CONSTANTS=  6.18760 12.55620 10.84003    1.571    1.571    1.571
:VOL  : UNIT CELL VOLUME =     421.09601
       MODE OF CALCULATION IS       = RELA
       NON-SPINPOLARIZED CALCULATION
:IFFT  : FFT-parameters:   48   96   90 Factor: 2.00


   CONVERGENCE PARAMETER FOR PSEUDOCHARGE: NCON=  9
   MAXIMAL VALUE OF RMT(JATOM)*ABSK(NKK) : RK  =27.59215


:VKCOUL :  VK-COUL convergence: 0.103E-06
       ATOMNUMBER=  1 Pr1        VCOUL-ZERO =  0.18830E+00
:EFG001:                        EFG         =    -8.53676   *10**21  V / m**2
                               V20  TOT/SRF=    -7.39305    -0.03863
                               V22  TOT/SRF=    -0.01230     0.00172
                               V22M TOT/SRF=     0.00000     0.00000
                               V21  TOT/SRF=     0.00000     0.00000
                               V21M TOT/SRF=     0.00000     0.00000

              4.25608    0.00000    0.00000        4.25608    0.00000    0.00000
              0.00000    4.28068    0.00000        0.00000    4.28068    0.00000
              0.00000    0.00000   -8.53676        0.00000    0.00000   -8.53676

         MAIN DIRECTIONS OF THE EFG   1.0000  0.0000  0.0000
                                      0.0000  1.0000  0.0000
                                      0.0000  0.0000  1.0000
:ANG001:  ANGLE WITH OLD X-AXIS =         0.0

:ETA001:                         ASYMM. ETA =     0.00288


     HELLMANN-FEYNMAN-FORCE IN mRy/a.u. = |F|  Fx       Fy             Fz
:FHF001:   1.ATOM    754.515732255308      0.000000000000      0.000000000000   -754.515732255308

:FIT001: LUSE= 13 SIGMA OF V-XC FIT FOR ATOM  1  0.9971331E-05
:FIT001: LUSE= 13 SIGMA OF V-XC FIT FOR ATOM  1  0.9971331E-05
:DEN  : DENSITY INTEGRAL  =        -14163.92492161   (Ry)
       ELS_POTENTIAL_AT Z=0 and Z=0.5:   0.77912   0.77912
       ELS_POTENTIAL_AT Y=0 and Y=0.5:   0.05351   0.05351
:VZERO:v0,v0c,v0x   0.16914   0.77912  -0.60997 v5,v5c,v5x   0.16914   0.77912  -0.60997
:VZERY:v0,v0c,v0x  -0.76098   0.05351  -0.81449 v5,v5c,v5x  -0.76098   0.05351  -0.81449
:VZERX:v0,v0c,v0x  -1.16005  -0.38533  -0.77472 v5,v5c,v5x  -1.16005  -0.38533  -0.77472

------- case.scf1 --------
:LMAX-WF:   10   Non-Spherical LMAX:   4

          ATOMIC SPHERE DEPENDENT PARAMETERS FOR ATOM  Pr1       
:e__0001: OVERALL ENERGY PARAMETER IS    0.5308
          OVERALL BASIS SET ON ATOM IS LAPW
:E0_0001: E( 0)=    0.5308
             APW+lo
:E0_0001: E( 0)=   -1.9144   E(BOTTOM)=   -2.552   E(TOP)=   -1.277  4  5   192
             LOCAL ORBITAL
:E1_0001: E( 1)=    0.9308
             APW+lo
:E1_0001: E( 1)=   -0.4453   E(BOTTOM)=   -1.405   E(TOP)=    0.515  3  4   202
             LOCAL ORBITAL
:E3_0001: E( 3)=    0.7416   E(BOTTOM)=    0.533   E(TOP)=    0.951  0  1   116
             APW+lo
:E2_0001: E( 2)=    0.5308   E(BOTTOM)=    0.334   E(TOP)= -200.000  2 -1    83
             APW+lo

       K=   0.06250   0.00000   0.06250            1
:RKM  : MATRIX SIZE   407LOs:  40  RKM= 8.48  WEIGHT= 4.00  PGR:    
       EIGENVALUES ARE:
:EIG00001:      -1.8954953   -1.8728176   -0.6430592   -0.5350942   -0.5111060
:EIG00006:      -0.5031424   -0.4935389   -0.4930218    0.5064369    0.6273243
:EIG00011:       0.7350016    0.7406059    0.7413958    0.7448541    0.7504125
:EIG00016:       0.7655431    0.7713823    0.7722234    0.7752773    0.7786075
:EIG00021:       0.7835384    0.7861970    0.7880545    0.7958571    0.8151659
:EIG00026:       0.8284170    0.9162808    0.9250663    0.9716888    0.9961612
:EIG00031:       1.0104418    1.1196116    1.1621181    1.2167528    1.5194948
:EIG00036:       1.5504125    1.6048487    1.6286177    1.7871140    1.8419398
:EIG00041:       1.9420163    2.0386761    2.1374243    2.1522163    2.2788884
:EIG00046:       2.3059930    2.3225273    2.4222579    2.4584469    2.5731686
 
:EIG00051:       2.6249428    2.6829151    2.7041646    2.7989864    2.8418404
:EIG00056:       2.9015038    2.9194424    2.9976817    3.0699072    3.1548255
:EIG00061:       3.1944926    3.2464093    3.3748446    3.4019144    3.4401773
:EIG00066:       3.5622349    3.6039065    3.6831261    3.6889035    3.7089686
:EIG00071:       3.7132812    3.7717796    3.8127714    3.9011870    3.9151313
:EIG00076:       3.9663401    3.9705437    4.0286104    4.0564365    4.0816363
:EIG00081:       4.0935558    4.1409574    4.1535687    4.2404880    4.2698037
:EIG00086:       4.2922591    4.3755857    4.4138618    4.4512280    4.4541344
:EIG00091:       4.4905496    4.5440296    4.5509224    4.5870472    4.6003287
:EIG00096:       4.6276322    4.6829061    4.6956809    4.7249627    4.7888763
 
:EIG00101:       4.8781461    4.9966748    5.0235590    5.1060367    5.1136354
:EIG00106:       5.1278563    5.1847343    5.2352501    5.2514782    5.2751902
:EIG00111:       5.3724053    5.4201169    5.4788755    5.5500327    5.5734374
:EIG00116:       5.6215283    5.6575397    5.6668341    5.7323643    5.7740225
:EIG00121:       5.8016941    5.8323008    5.9147558    5.9206886    5.9851600
:EIG00126:       6.0711537    6.1372788    6.1476310    6.1521944    6.2315128
:EIG00131:       6.2606289    6.3150493    6.3191858    6.3309043    6.3899158
:EIG00136:       6.4704975    6.4832675    6.5259414    6.5502043    6.5784319
:EIG00141:       6.6114559    6.6513694    6.6831259    6.6882731    6.7569758
:EIG00146:       6.7711383    6.7899530    6.8515874    6.8848245    6.9047922
 
:EIG00151:       6.9602577    6.9872543    7.0385638    7.1177857    7.1869188
:EIG00156:       7.2734315    7.3618733    7.3628212    7.3805515    7.4835371
:EIG00161:       7.5401533    7.6113188    7.6244065    7.6596306    7.6855578
:EIG00166:       7.7103054    7.7151460    7.7263389    7.8037310    7.8881427
:EIG00171:       7.8916879    7.9315297    7.9606501    7.9885886    8.0553149
:EIG00176:       8.0639691    8.1132444    8.1287991    8.1729819    8.1994893
:EIG00181:       8.2253771
       ********************************************************

:KPT   :      NUMBER OF K-POINTS:   288

------- case.scfso --------
   0.0   0.0 angle (M,z), angle (M,x) deg
 
        SPIN-ORBIT EIGENVALUES:
     K=   0.06250   0.00000   0.06250            1
      MATRIX SIZE=  362   WEIGHT= 4.00
     EIGENVALUES ARE:
          -1.8954958   -1.8954958   -1.8728177   -1.8728177   -0.7151454
          -0.7151454   -0.6520469   -0.6520469   -0.5252757   -0.5252757
          -0.4416018   -0.4416018   -0.4379539   -0.4379539   -0.4270165
          -0.4270165    0.5064931    0.5064931    0.6272146    0.6272146
           0.7312575    0.7312575    0.7372295    0.7372295    0.7380873
           0.7380873    0.7407152    0.7407152    0.7460830    0.7460830
           0.7545267    0.7545267    0.7672471    0.7672472    0.7764441
           0.7764442    0.7805989    0.7805989    0.7825694    0.7825694

           0.7858130    0.7858130    0.7904837    0.7904837    0.7931879
           0.7931879    0.8005142    0.8005142    0.8169567    0.8169567
           0.8289493    0.8289493    0.9140689    0.9140689    0.9271079
           0.9271079    0.9719897    0.9719898    0.9964401    0.9964401
           1.0106559    1.0106559    1.1194981    1.1194981    1.1623841
           1.1623841    1.2168747    1.2168747    1.5197109    1.5197109
           1.5504639    1.5504639    1.6048131    1.6048131    1.6286835
           1.6286835    1.7867935    1.7867935    1.8414345    1.8414345

           1.9420279    1.9420279    2.0376703    2.0376703    2.1356064
           2.1356064    2.1534379    2.1534379    2.2791914    2.2791914
           2.3058752    2.3058752    2.3213235    2.3213235    2.4214465
           2.4214465    2.4596807    2.4596807    2.5730608    2.5730608
           2.6242962    2.6242962    2.6803553    2.6803553    2.7057750
           2.7057750    2.7989081    2.7989081    2.8429154    2.8429154
           2.9017228    2.9017228    2.9188436    2.9188436    2.9982778
           2.9982778    3.0705613    3.0705613    3.1546992    3.1546992

           3.1945515    3.1945515    3.2507716    3.2507716    3.3747099
           3.3747099    3.4019696    3.4019696    3.4404089    3.4404089
           3.5622795    3.5622795    3.6040188    3.6040188    3.6831430
           3.6831430    3.6885903    3.6885903    3.7089110    3.7089110
           3.7137333    3.7137333    3.7716206    3.7716206    3.8128462
           3.8128462    3.9000618    3.9000618    3.9163941    3.9163941
           3.9660924    3.9660924    3.9729369    3.9729369    4.0287163
           4.0287163    4.0569042    4.0569042    4.0816717    4.0816717

           4.0938029    4.0938029    4.1410123    4.1410123    4.1540788
           4.1540788    4.2405323    4.2405323    4.2698810    4.2698810
           4.2925114    4.2925114    4.3755882    4.3755882    4.4140275
           4.4140275    4.4511775    4.4511775    4.4542891    4.4542891
           4.4905885    4.4905885
       ********************************************************

------- case.scf2 --------
:GMA  : POTENTIAL AND CHARGE CUT-OFF  12.00 Ry**.5




:POS001: at.nr.  -1 position = 0.00000 0.89750 0.25000  multiplicity =  2

       lmmax 16
       lm=   0 0  1 0  2 0  2 2  3 0  3 2  4 0  4 2  4 4  5 0  5 2  5 4  6 0  6 2  6 4  6 6
:FER gutzwiller fermi energy   0.75025
:EORB         -0.097504537
:SUM sum of gutz band energies         -7.159025774

:CHA001: total charge inside sphere   1 =     9.569321
:PCS001: partial charges sphere =  1 s,p,d,f,px,py,pz,d-z2,d-x2y2,d-xy,d-xz,d-yz 
:QTL001: 1.9453 5.0071 0.6327 1.9837 1.6661 1.6662 1.6748 0.1194 0.1165 0.1342 0.1257 0.1369

                      vxx         vyy         vzz       up to r

:VZZ001:             4.26038     4.26725    -8.52763       2.300

:CHA  : total charge inside unit cell =      13.000003

------- case.scfc --------

        1.ATOM      Pr1                  14 CORE STATES
       CORE-FORCE in mRy/a.u. = |F|      Fx             Fy             Fz
:FCO001:   1.ATOM    740.168020876450      0.000000000000      0.000000000000    740.168020876450

:1S 001: 1S               -3066.839096530 Ry
:2S 001: 2S                -492.591072758 Ry
:2PP001: 2P*               -465.690285950 Ry
:2P 001: 2P                -430.292761907 Ry
:3S 001: 3S                -105.681984925 Ry
:3PP001: 3P*                -94.219789810 Ry
:3P 001: 3P                 -87.212009950 Ry
:3DD001: 3D*                -67.138809162 Ry
:3D 001: 3D                 -65.627266419 Ry
:4S 001: 4S                 -20.361358856 Ry
:4PP001: 4P*                -16.068243316 Ry
:4P 001: 4P                 -14.541005955 Ry
:4DD001: 4D*                 -7.474157565 Ry
:4D 001: 4D                  -7.204804594 Ry

------- case.scfm --------
:CINT001 Core Integral Atom   1   45.998482

       DENSITY AT NUCLEUS
        JATOM        VALENCE       SEMI-CORE          CORE           TOTAL
:RTO001:   1      649.892997        0.000000   656824.294342   657474.187339
     
       CHARGES OF NEW CHARGE DENSITY
:NTO   : INTERSTITIAL CHARGE =     6.861229
:NPC   : PW Pseudocharge     =    17.108967
:NTO001: CHARGE SPHERE  1    =    55.567802

:NEC01: NUCLEAR AND ELECTRONIC CHARGE    118.00000   117.99683
     
       CHARGES OF OLD CHARGE DENSITY
:OTO   : INTERSTITIAL CHARGE =     6.858347
:OPC   : PW Pseudocharge     =    17.114135
:OTO001: CHARGE SPHERE  1    =    55.570826

:NEC02: NUCLEAR AND ELECTRONIC CHARGE    118.00000   118.00000
     
       CONVERGENCE TEST
:DTO001: DIFFERENCE IN SPHERE  1 =  0.0051164

:DIS  :  CHARGE DISTANCE       ( 0.0051164 for atom    1 spin 1)      0.0051164
 PW Mixed is          446
 
******************************************************
* MULTISECANT MIXING VER9 RELEASE 10.4.0              *
* Standard Mode with controls                        *
* Fixed density scale                                *
* Regularization       1.000E-04                     *
* Trust Upper Limit    5.000E+00                     *
* Max Number of Memory Steps    8                    *
******************************************************
 
:PWTMP   3.1917E+02  1.9467E+02  4.2110E+02
:PLANE:  PW TOTAL      5.0055 DISTAN   1.09E-03  2.17E-02 %
:CHARG:  CLM/ATOM   1381.9493 DISTAN   7.66E-03  5.54E-04 %
 
Step History
        DMIX         DMIXT        Red     Pred      Trust     Lambda    MagRel    MagAbs     Beta
  1   3.5000E-02   3.5000E-02 -1.00E+00  1.00E+00 -1.00E+01  1.00E+00  3.50E-02  3.50E-02  1.00E+00
  2   1.5000E-01   1.5000E-01  1.51E+00  1.00E+00 -1.00E+01  1.00E+00  1.50E-01  3.28E-04  1.00E+00
  3   7.1250E-02   7.1250E-02  2.11E+00  3.70E-01  3.00E+00  3.00E+00  2.08E-01  6.87E-04  8.00E-01
  4   1.2882E-01   1.2882E-01 -1.00E+00  3.65E-01  2.25E+00  1.00E+00  7.47E-02  5.22E-04  6.40E-01
:JACOBIANS    1.133E-01   3.297E-01
  
:NORMS:  1/Froebius, Min, Max, Used   0.3476E+00  0.1632E+00  0.3572E+00  0.3572E+00
:INFO :  Number of Memory Steps    3 Skipping    0
:INFO :  SLambda=    2.9660694873  Max    2.9660694873
:PREDicted Charge, CTotal, PW Trust    2.788E-03   5.577E-03   6.551E-03
:PREDicted DMix, Beta, BLim   7.7177E-02  1.5136E+01  1.8472E+00

Eigenvalues, unscaled except for SY+YY
   #     SY Real        SY Imag          SS             YY         SY+YY Real      SY+YY Imag
   1  -5.212253E-01   0.000000E+00   3.617827E-01   2.834776E+00   1.338085E+00   0.000000E+00
   2  -2.098129E-05   0.000000E+00   5.644302E-04   1.634785E-01   8.529153E-04   0.000000E+00
   3   7.818105E-03   0.000000E+00   2.767462E-05   1.745936E-03   1.381985E-01   0.000000E+00
 
:INFO :  Singular value  2.674E+00 Weight  1.000E+00 Projection  4.720E-03
:INFO :  Singular value  7.030E-02 Weight  1.000E+00 Projection -6.176E-03
:INFO :  Singular value  8.391E-04 Weight  8.976E-01 Projection  7.720E-02
:RANK :  ACTIVE   2.90/3  =  96.58 % ; YY RANK   2.97/3  =  99.14 %
 
:DLIM :  Beta Active  8.000E-01
:BLIM :  VZERO Control Off
:TRUST:  Step 2.24E+00  Charge 5.63E-02 (e) CTO  1.88E-01 (e) PW  2.63E-01 (e)
:DIRM :  MEMORY  3/8  SCALE   1.000 RED  1.11 PRED  0.37 NEXT  0.61 BETA  0.80
:TRAVE:  Charge 1.08E-03 (e) CTO  2.16E-03 (e) PW  2.74E-03 (e)
:DIRP :  |MSR1|= 2.216E-03 |PRATT|= 1.086E-03 ANGLE=  42.7 DEGREES
:DIRQ :  |MSR1|= 5.297E-03 |PRATT|= 7.656E-03 ANGLE=  20.9 DEGREES
:DIRT :  |MSR1|= 5.742E-03 |PRATT|= 7.733E-03 ANGLE=  26.7 DEGREES
:MIX  :   MSE1   REGULARIZATION:  2.83E-04 GREED: 0.09126  Newton 1.00  0.7425                
     
       CHARGES OF MIXED CHARGE DENSITY
:CTO   : INTERSTITIAL CHARGE =     6.862239
:CPC   : PW Pseudocharge     =    17.121024
:CTO001: CHARGE SPHERE  1    =    55.568881

:NEC03: NUCLEAR AND ELECTRONIC CHARGE    118.00000   118.00000

PW CHANGE     H    K    L      Current       Change    Residue
:PTO001:      0    0    0  5.69543813E-02  2.560E-05  2.084E-05
:PTO003:      0    2    0  1.50576421E-02  7.444E-06 -2.506E-06
:PTO004:     -1    1    0  7.39871455E-02  2.875E-05  3.134E-06
:PTO005:      0    2   -1 -8.58988231E-02 -3.390E-05 -4.715E-06
:PTO006:      0    0   -2 -4.45332880E-02 -1.790E-05 -3.989E-06
:PTO007:     -1    1   -1 -9.25084655E-02 -3.710E-05 -6.820E-06
:PTO008:      0    2   -2 -1.48178153E-02 -9.673E-06 -1.762E-06
:PTO009:     -1    1   -2 -7.50691886E-02 -3.002E-05 -1.331E-06
:PTO011:     -1    3    0 -1.19556487E-02 -4.931E-06 -1.789E-06
:PTO012:     -1    3   -1 -5.30717254E-02 -2.833E-05 -1.823E-06
:PTO013:      0    4    0 -9.50604181E-03 -4.778E-06 -3.444E-08
:PTO014:      0    2   -3  2.18244551E-02  1.237E-05  1.058E-06

:ENE  : ********** TOTAL ENERGY IN Ry =       -36944.24358897

       TOTAL FORCE IN mRy/a.u. = |F|     Fx             Fy             Fz     with/without FOR in case.in2
:FOR001:   1.ATOM         14.348          0.000          0.000        -14.348 partial forces
       TOTAL FORCE WITH RESPECT TO GLOBAL CARTESIAN COORDINATES:
:FCA001:   1.ATOM                         0.000        -14.348          0.000 partial forces
       TOTAL FORCE WITH RESPECT TO THE GLOBAL COORDINATE SYSTEM:
:FGL001:   1.ATOM                 0.000000000   -14.347711379     0.000000000 partial forces

------- case.scf0 --------
 Flat Integration
 New Mode for Coulomb Integral
 Consistent 3/8+Simpson combinations
 Extension of core to zero
 LDM version in phi
 Fifth-order quadrature in outwin


            ---------
:ITE040: 40. ITERATION
            ---------

:NATO :    1 INDEPENDENT AND    2 TOTAL ATOMS IN UNITCELL
       SUBSTANCE: aU                                                          

       LATTICE                      = CXY 
:POT  : POTENTIAL OPTION EX_LDA EC_LDA VX_LDA VC_LDA
:LAT  : LATTICE CONSTANTS=  6.18760 12.55620 10.84003    1.571    1.571    1.571
:VOL  : UNIT CELL VOLUME =     421.09601
       MODE OF CALCULATION IS       = RELA
       NON-SPINPOLARIZED CALCULATION
:IFFT  : FFT-parameters:   48   96   90 Factor: 2.00


   CONVERGENCE PARAMETER FOR PSEUDOCHARGE: NCON=  9
   MAXIMAL VALUE OF RMT(JATOM)*ABSK(NKK) : RK  =27.59215


:VKCOUL :  VK-COUL convergence: 0.104E-06
       ATOMNUMBER=  1 Pr1        VCOUL-ZERO =  0.18831E+00
:EFG001:                        EFG         =    -8.55234   *10**21  V / m**2
                               V20  TOT/SRF=    -7.40655    -0.03866
                               V22  TOT/SRF=     0.01170     0.00171
                               V22M TOT/SRF=     0.00000     0.00000
                               V21  TOT/SRF=     0.00000     0.00000
                               V21M TOT/SRF=     0.00000     0.00000

              4.28787    0.00000    0.00000        4.28787    0.00000    0.00000
              0.00000    4.26447    0.00000        0.00000    4.26447    0.00000
              0.00000    0.00000   -8.55234        0.00000    0.00000   -8.55234

         MAIN DIRECTIONS OF THE EFG   1.0000  0.0000  0.0000
                                      0.0000  1.0000  0.0000
                                      0.0000  0.0000  1.0000
:ANG001:  ANGLE WITH OLD X-AXIS =         0.0

:ETA001:                         ASYMM. ETA =     0.00274


     HELLMANN-FEYNMAN-FORCE IN mRy/a.u. = |F|  Fx       Fy             Fz
:FHF001:   1.ATOM    736.780968990719      0.000000000000      0.000000000000   -736.780968990719

:FIT001: LUSE= 13 SIGMA OF V-XC FIT FOR ATOM  1  0.9872938E-05
:FIT001: LUSE= 13 SIGMA OF V-XC FIT FOR ATOM  1  0.9872938E-05
:DEN  : DENSITY INTEGRAL  =        -14163.57596200   (Ry)
       ELS_POTENTIAL_AT Z=0 and Z=0.5:   0.77952   0.77952
       ELS_POTENTIAL_AT Y=0 and Y=0.5:   0.05352   0.05352
:VZERO:v0,v0c,v0x   0.16941   0.77952  -0.61011 v5,v5c,v5x   0.16941   0.77952  -0.61011
:VZERY:v0,v0c,v0x  -0.76110   0.05352  -0.81461 v5,v5c,v5x  -0.76110   0.05352  -0.81461
:VZERX:v0,v0c,v0x  -1.16035  -0.38548  -0.77487 v5,v5c,v5x  -1.16035  -0.38548  -0.77487

------- case.scf1 --------
:LMAX-WF:   10   Non-Spherical LMAX:   4

          ATOMIC SPHERE DEPENDENT PARAMETERS FOR ATOM  Pr1       
:e__0001: OVERALL ENERGY PARAMETER IS    0.5308
          OVERALL BASIS SET ON ATOM IS LAPW
:E0_0001: E( 0)=    0.5308
             APW+lo
:E0_0001: E( 0)=   -1.9157   E(BOTTOM)=   -2.553   E(TOP)=   -1.279  4  5   184
             LOCAL ORBITAL
:E1_0001: E( 1)=    0.9308
             APW+lo
:E1_0001: E( 1)=   -0.4465   E(BOTTOM)=   -1.406   E(TOP)=    0.513  3  4   197
             LOCAL ORBITAL
:E3_0001: E( 3)=    0.7393   E(BOTTOM)=    0.531   E(TOP)=    0.948  0  1   124
             APW+lo
:E2_0001: E( 2)=    0.5308   E(BOTTOM)=    0.334   E(TOP)= -200.000  2 -1    82
             APW+lo

       K=   0.06250   0.00000   0.06250            1
:RKM  : MATRIX SIZE   407LOs:  40  RKM= 8.48  WEIGHT= 4.00  PGR:    
       EIGENVALUES ARE:
:EIG00001:      -1.8966599   -1.8740149   -0.6438079   -0.5359430   -0.5119808
:EIG00006:      -0.5040841   -0.4944716   -0.4939772    0.5064561    0.6272520
:EIG00011:       0.7334372    0.7386743    0.7394095    0.7429408    0.7484725
:EIG00016:       0.7633323    0.7691602    0.7700318    0.7730570    0.7764888
:EIG00021:       0.7814040    0.7841195    0.7859825    0.7935838    0.8139421
:EIG00026:       0.8276311    0.9157510    0.9247507    0.9713752    0.9958555
:EIG00031:       1.0100909    1.1192634    1.1616814    1.2162815    1.5193219
:EIG00036:       1.5501429    1.6047305    1.6283400    1.7870487    1.8418787
:EIG00041:       1.9418707    2.0385551    2.1372822    2.1520437    2.2786685
:EIG00046:       2.3058496    2.3225215    2.4221217    2.4583968    2.5730537
 
:EIG00051:       2.6248036    2.6827332    2.7040582    2.7987932    2.8415889
:EIG00056:       2.9014311    2.9193661    2.9972995    3.0697674    3.1546206
:EIG00061:       3.1944555    3.2461388    3.3746529    3.4019833    3.4401725
:EIG00066:       3.5621019    3.6039324    3.6829855    3.6888820    3.7089344
:EIG00071:       3.7133148    3.7717529    3.8127512    3.9011670    3.9151385
:EIG00076:       3.9662450    3.9706030    4.0286113    4.0564582    4.0816865
:EIG00081:       4.0935142    4.1410084    4.1536200    4.2405390    4.2699258
:EIG00086:       4.2921729    4.3757624    4.4139191    4.4512361    4.4541047
:EIG00091:       4.4906402    4.5441450    4.5509176    4.5870066    4.6002356
:EIG00096:       4.6277374    4.6829988    4.6957695    4.7249554    4.7889609
 
:EIG00101:       4.8781451    4.9967469    5.0235461    5.1060965    5.1137458
:EIG00106:       5.1279071    5.1848361    5.2353387    5.2514891    5.2752980
:EIG00111:       5.3725121    5.4202369    5.4787410    5.5499795    5.5734835
:EIG00116:       5.6216230    5.6575347    5.6668631    5.7322956    5.7739810
:EIG00121:       5.8016060    5.8323994    5.9147295    5.9207732    5.9851648
:EIG00126:       6.0712259    6.1372858    6.1475975    6.1522530    6.2315622
:EIG00131:       6.2606141    6.3151289    6.3192299    6.3308717    6.3898835
:EIG00136:       6.4705964    6.4833107    6.5260714    6.5503017    6.5784796
:EIG00141:       6.6114897    6.6514195    6.6831981    6.6883055    6.7570696
:EIG00146:       6.7712544    6.7900196    6.8516615    6.8846399    6.9049187
 
:EIG00151:       6.9604029    6.9873171    7.0387016    7.1177584    7.1869900
:EIG00156:       7.2734286    7.3619629    7.3628777    7.3806590    7.4836084
:EIG00161:       7.5402416    7.6113917    7.6243619    7.6596960    7.6855112
:EIG00166:       7.7103705    7.7151884    7.7263485    7.8037801    7.8881262
:EIG00171:       7.8917130    7.9315502    7.9606720    7.9885844    8.0553403
:EIG00176:       8.0639963    8.1132672    8.1286997    8.1730161    8.1995298
:EIG00181:       8.2254732
       ********************************************************

:KPT   :      NUMBER OF K-POINTS:   288

------- case.scfso --------
   0.0   0.0 angle (M,z), angle (M,x) deg
 
        SPIN-ORBIT EIGENVALUES:
     K=   0.06250   0.00000   0.06250            1
      MATRIX SIZE=  362   WEIGHT= 4.00
     EIGENVALUES ARE:
          -1.8966604   -1.8966604   -1.8740150   -1.8740150   -0.7160098
          -0.7160098   -0.6530234   -0.6530234   -0.5260745   -0.5260745
          -0.4424896   -0.4424896   -0.4388289   -0.4388289   -0.4279190
          -0.4279190    0.5065121    0.5065121    0.6271410    0.6271410
           0.7295397    0.7295397    0.7352423    0.7352423    0.7361175
           0.7361175    0.7387528    0.7387528    0.7440857    0.7440857
           0.7522826    0.7522826    0.7652729    0.7652729    0.7743373
           0.7743373    0.7783906    0.7783906    0.7805090    0.7805090

           0.7837294    0.7837294    0.7885032    0.7885033    0.7910447
           0.7910447    0.7982722    0.7982722    0.8156456    0.8156456
           0.8280941    0.8280941    0.9135367    0.9135367    0.9267757
           0.9267757    0.9716747    0.9716748    0.9961324    0.9961324
           1.0103059    1.0103059    1.1191490    1.1191491    1.1619481
           1.1619481    1.2164040    1.2164040    1.5195373    1.5195373
           1.5501946    1.5501946    1.6046945    1.6046945    1.6284062
           1.6284062    1.7867277    1.7867277    1.8413734    1.8413734

           1.9418822    1.9418822    2.0375482    2.0375482    2.1354596
           2.1354596    2.1532706    2.1532706    2.2789724    2.2789724
           2.3057328    2.3057328    2.3213138    2.3213138    2.4213155
           2.4213155    2.4596251    2.4596251    2.5729449    2.5729449
           2.6241581    2.6241581    2.6801815    2.6801815    2.7056612
           2.7056612    2.7987161    2.7987161    2.8426689    2.8426689
           2.9016491    2.9016491    2.9187647    2.9187647    2.9978989
           2.9978989    3.0704199    3.0704199    3.1544922    3.1544922

           3.1945126    3.1945126    3.2505051    3.2505051    3.3745188
           3.3745188    3.4020384    3.4020384    3.4404036    3.4404036
           3.5621467    3.5621467    3.6040443    3.6040443    3.6830089
           3.6830089    3.6885606    3.6885606    3.7088849    3.7088849
           3.7137614    3.7137614    3.7715951    3.7715951    3.8128260
           3.8128260    3.9000442    3.9000442    3.9163979    3.9163979
           3.9660093    3.9660093    3.9729842    3.9729842    4.0287172
           4.0287172    4.0569248    4.0569248    4.0817220    4.0817220

           4.0937625    4.0937625    4.1410630    4.1410630    4.1541297
           4.1541297    4.2405832    4.2405832    4.2700028    4.2700028
           4.2924257    4.2924257    4.3757649    4.3757649    4.4140847
           4.4140847    4.4511846    4.4511846    4.4542602    4.4542602
           4.4906791    4.4906791
       ********************************************************

------- case.scf2 --------
:GMA  : POTENTIAL AND CHARGE CUT-OFF  12.00 Ry**.5




:POS001: at.nr.  -1 position = 0.00000 0.89750 0.25000  multiplicity =  2

       lmmax 16
       lm=   0 0  1 0  2 0  2 2  3 0  3 2  4 0  4 2  4 4  5 0  5 2  5 4  6 0  6 2  6 4  6 6
:FER gutzwiller fermi energy   0.75003
:EORB         -0.105976567
:SUM sum of gutz band energies         -7.175431171

:CHA001: total charge inside sphere   1 =     9.572299
:PCS001: partial charges sphere =  1 s,p,d,f,px,py,pz,d-z2,d-x2y2,d-xy,d-xz,d-yz 
:QTL001: 1.9454 5.0079 0.6328 1.9857 1.6664 1.6665 1.6750 0.1194 0.1166 0.1343 0.1257 0.1369

                      vxx         vyy         vzz       up to r

:VZZ001:             4.25009     4.23289    -8.48298       2.300

:CHA  : total charge inside unit cell =      13.000000

------- case.scfc --------

        1.ATOM      Pr1                  14 CORE STATES
       CORE-FORCE in mRy/a.u. = |F|      Fx             Fy             Fz
:FCO001:   1.ATOM    723.695781558294      0.000000000000      0.000000000000    723.695781558294

:1S 001: 1S               -3066.842737846 Ry
:2S 001: 2S                -492.594822285 Ry
:2PP001: 2P*               -465.694011750 Ry
:2P 001: 2P                -430.296496540 Ry
:3S 001: 3S                -105.685858573 Ry
:3PP001: 3P*                -94.223659558 Ry
:3P 001: 3P                 -87.215876945 Ry
:3DD001: 3D*                -67.142670854 Ry
:3D 001: 3D                 -65.631128608 Ry
:4S 001: 4S                 -20.364630891 Ry
:4PP001: 4P*                -16.071463505 Ry
:4P 001: 4P                 -14.544150980 Ry
:4DD001: 4D*                 -7.477156597 Ry
:4D 001: 4D                  -7.207776941 Ry

------- case.scfm --------
:CINT001 Core Integral Atom   1   45.998484

       DENSITY AT NUCLEUS
        JATOM        VALENCE       SEMI-CORE          CORE           TOTAL
:RTO001:   1      650.078548        0.000000   656824.409921   657474.488469
     
       CHARGES OF NEW CHARGE DENSITY
:NTO   : INTERSTITIAL CHARGE =     6.855510
:NPC   : PW Pseudocharge     =    17.108660
:NTO001: CHARGE SPHERE  1    =    55.570783

:NEC01: NUCLEAR AND ELECTRONIC CHARGE    118.00000   117.99708
     
       CHARGES OF OLD CHARGE DENSITY
:OTO   : INTERSTITIAL CHARGE =     6.862239
:OPC   : PW Pseudocharge     =    17.121024
:OTO001: CHARGE SPHERE  1    =    55.568881

:NEC02: NUCLEAR AND ELECTRONIC CHARGE    118.00000   118.00000
     
       CONVERGENCE TEST
:DTO001: DIFFERENCE IN SPHERE  1 =  0.0037044

:DIS  :  CHARGE DISTANCE       ( 0.0037044 for atom    1 spin 1)      0.0037044
 PW Mixed is          446
 
******************************************************
* MULTISECANT MIXING VER9 RELEASE 10.4.0              *
* Standard Mode with controls                        *
* Fixed density scale                                *
* Regularization       1.000E-04                     *
* Trust Upper Limit    5.000E+00                     *
* Max Number of Memory Steps    8                    *
******************************************************
 
:PWTMP   3.1917E+02  1.9467E+02  4.2110E+02
:PLANE:  PW TOTAL      5.0077 DISTAN   1.47E-03  2.94E-02 %
:CHARG:  CLM/ATOM   1381.9496 DISTAN   5.28E-03  3.82E-04 %
 
Step History
        DMIX         DMIXT        Red     Pred      Trust     Lambda    MagRel    MagAbs     Beta
  1   3.5000E-02   3.5000E-02 -1.00E+00  1.00E+00 -1.00E+01  1.00E+00  3.50E-02  3.50E-02  1.00E+00
  2   1.5000E-01   1.5000E-01  1.51E+00  1.00E+00 -1.00E+01  1.00E+00  1.50E-01  3.28E-04  1.00E+00
  3   7.1250E-02   7.1250E-02  2.11E+00  3.70E-01  3.00E+00  3.00E+00  2.08E-01  6.87E-04  8.00E-01
  4   1.2882E-01   1.2882E-01  1.11E+00  3.65E-01  2.25E+00  2.97E+00  7.47E-02  5.22E-04  6.40E-01
  5   9.1263E-02   9.1263E-02 -1.00E+00  6.12E-01  2.24E+00  1.00E+00  7.42E-01  5.74E-03  8.00E-01
:JACOBIANS    1.994E-01   4.375E-01
  
:NORMS:  1/Froebius, Min, Max, Used   0.6313E+00  0.4581E+00  0.1320E+01  0.6336E+00
:INFO :  Number of Memory Steps    4 Skipping    0
:INFO :  SLambda=    1.7079314940  Max    1.7079314940
:PREDicted Charge, CTotal, PW Trust    3.843E-04   7.686E-04   1.104E-03
:PREDicted DMix, Beta, BLim   3.3468E-02  2.1847E-01  1.3904E+00

Eigenvalues, unscaled except for SY+YY
   #     SY Real        SY Imag          SS             YY         SY+YY Real      SY+YY Imag
   1   1.905964E+00   0.000000E+00   1.594045E+00   3.970714E+00   7.242158E+00   0.000000E+00
   2   8.397674E-05   3.133628E-04   1.872778E-04   2.893210E-02   1.212649E-02   0.000000E+00
   3   8.397674E-05  -3.133628E-04   1.458965E-05   2.735020E-04   1.708126E-04   0.000000E+00
   4   1.856204E-05   0.000000E+00   1.386473E-06   8.042042E-05   1.119582E-03   0.000000E+00
 
:INFO :  Singular value  7.292E+00 Weight  1.000E+00 Projection  2.421E-03
:INFO :  Singular value  1.366E-02 Weight  9.992E-01 Projection -6.164E-03
:INFO :  Singular value  1.274E-03 Weight  9.115E-01 Projection -2.311E-02
:INFO :  Singular value  1.323E-04 Weight  9.992E-02 Projection  5.075E-03
:RANK :  ACTIVE   3.01/4  =  75.26 % ; YY RANK   2.36/4  =  59.02 %
 
:DLIM :  Beta Active  6.400E-01
:BLIM :  VZERO Control Off
:TRUST:  Step 2.98E+00  Charge 4.51E-02 (e) CTO  1.50E-01 (e) PW  2.10E-01 (e)
:DIRM :  MEMORY  4/8  SCALE   1.000 RED  0.71 PRED  0.61 NEXT  0.37 BETA  0.64
:TRAVE:  Charge 1.08E-03 (e) CTO  2.15E-03 (e) PW  2.74E-03 (e)
:DIRP :  |MSR1|= 1.206E-03 |PRATT|= 1.473E-03 ANGLE=  16.5 DEGREES
:DIRQ :  |MSR1|= 2.877E-03 |PRATT|= 5.280E-03 ANGLE=  51.1 DEGREES
:DIRT :  |MSR1|= 3.119E-03 |PRATT|= 5.482E-03 ANGLE=  48.9 DEGREES
:MIX  :   MSE1   REGULARIZATION:  3.97E-04 GREED: 0.06589  Newton 1.00  0.5690                
     
       CHARGES OF MIXED CHARGE DENSITY
:CTO   : INTERSTITIAL CHARGE =     6.860091
:CPC   : PW Pseudocharge     =    17.117262
:CTO001: CHARGE SPHERE  1    =    55.569954

:NEC03: NUCLEAR AND ELECTRONIC CHARGE    118.00000   118.00000

PW CHANGE     H    K    L      Current       Change    Residue
:PTO001:      0    0    0  5.69403476E-02 -1.403E-05 -2.107E-05
:PTO003:      0    2    0  1.50535346E-02 -4.108E-06 -6.898E-06
:PTO004:     -1    1    0  7.39715365E-02 -1.561E-05 -1.813E-05
:PTO005:      0    2   -1 -8.58805017E-02  1.832E-05  1.907E-05
:PTO006:      0    0   -2 -4.45235890E-02  9.699E-06  1.035E-05
:PTO007:     -1    1   -1 -9.24882298E-02  2.024E-05  2.397E-05
:PTO008:      0    2   -2 -1.48125408E-02  5.275E-06  5.721E-06
:PTO009:     -1    1   -2 -7.50527471E-02  1.644E-05  1.987E-05
:PTO011:     -1    3    0 -1.19530163E-02  2.632E-06  1.149E-06
:PTO012:     -1    3   -1 -5.30564439E-02  1.528E-05  1.191E-05
:PTO013:      0    4    0 -9.50350754E-03  2.534E-06  8.792E-07
:PTO014:      0    2   -3  2.18178294E-02 -6.626E-06 -3.805E-06

:ENE  : ********** TOTAL ENERGY IN Ry =       -36944.24378929

       TOTAL FORCE IN mRy/a.u. = |F|     Fx             Fy             Fz     with/without FOR in case.in2
[...]
:DIRM :  MEMORY  8/8  SCALE   1.000 RED  0.25 PRED  0.27 NEXT  0.52 
:TRAVE:  Charge 4.13E-04 (e) CTO  8.26E-04 (e) PW  7.78E-04 (e)
:DIRP :  |MSR1|= 1.702E-04 |PRATT|= 1.442E-04 ANGLE=  32.6 DEGREES
:DIRQ :  |MSR1|= 5.529E-04 |PRATT|= 7.101E-04 ANGLE=  49.8 DEGREES
:DIRT :  |MSR1|= 5.785E-04 |PRATT|= 7.246E-04 ANGLE=  49.2 DEGREES
:MIX  :   MSR1   REGULARIZATION:  7.99E-04 GREED: 0.06539  Newton 1.00  0.7983                
     
       CHARGES OF MIXED CHARGE DENSITY
:CTO   : INTERSTITIAL CHARGE =     6.863660
:CPC   : PW Pseudocharge     =    17.119522
:CTO001: CHARGE SPHERE  1    =    55.568170

:NEC03: NUCLEAR AND ELECTRONIC CHARGE    118.00000   118.00000

PW CHANGE     H    K    L      Current       Change    Residue
:PTO001:      0    0    0  5.69541901E-02 -2.067E-06 -1.802E-06
:PTO003:      0    2    0  1.50516651E-02 -3.919E-07  7.371E-07
:PTO004:     -1    1    0  7.39796912E-02 -2.319E-06 -2.235E-06
:PTO005:      0    2   -1 -8.58912831E-02  2.548E-06  1.893E-06
:PTO006:      0    0   -2 -4.45306928E-02  1.406E-06  1.411E-06
:PTO007:     -1    1   -1 -9.24980239E-02  2.437E-06  1.567E-06
:PTO008:      0    2   -2 -1.48163316E-02  6.594E-07 -2.390E-07
:PTO009:     -1    1   -2 -7.50584693E-02  2.063E-06  1.079E-06
:PTO011:     -1    3    0 -1.19566334E-02  3.775E-07  3.126E-07
:PTO012:     -1    3   -1 -5.30703930E-02  2.117E-06  4.802E-07
:PTO013:      0    4    0 -9.50664485E-03  3.534E-07  4.193E-08
:PTO014:      0    2   -3  2.18250830E-02 -1.001E-06 -5.212E-07

:ENE  : ********** TOTAL ENERGY IN Ry =       -36944.24389645

       TOTAL FORCE IN mRy/a.u. = |F|     Fx             Fy             Fz     with/without FOR in case.in2
:FOR001:   1.ATOM         13.760          0.000          0.000        -13.760 partial forces
       TOTAL FORCE WITH RESPECT TO GLOBAL CARTESIAN COORDINATES:
:FCA001:   1.ATOM                         0.000        -13.760          0.000 partial forces
       TOTAL FORCE WITH RESPECT TO THE GLOBAL COORDINATE SYSTEM:
:FGL001:   1.ATOM                 0.000000000   -13.759767859     0.000000000 partial forces

------- case.scf0 --------
 Flat Integration
 New Mode for Coulomb Integral
 Consistent 3/8+Simpson combinations
 Extension of core to zero
 LDM version in phi
 Fifth-order quadrature in outwin


            ---------
:ITE061: 61. ITERATION
            ---------

:NATO :    1 INDEPENDENT AND    2 TOTAL ATOMS IN UNITCELL
       SUBSTANCE: aU                                                          

       LATTICE                      = CXY 
:POT  : POTENTIAL OPTION EX_LDA EC_LDA VX_LDA VC_LDA
:LAT  : LATTICE CONSTANTS=  6.18760 12.55620 10.84003    1.571    1.571    1.571
:VOL  : UNIT CELL VOLUME =     421.09601
       MODE OF CALCULATION IS       = RELA
       NON-SPINPOLARIZED CALCULATION
:IFFT  : FFT-parameters:   48   96   90 Factor: 2.00


   CONVERGENCE PARAMETER FOR PSEUDOCHARGE: NCON=  9
   MAXIMAL VALUE OF RMT(JATOM)*ABSK(NKK) : RK  =27.59215


:VKCOUL :  VK-COUL convergence: 0.104E-06
       ATOMNUMBER=  1 Pr1        VCOUL-ZERO =  0.18824E+00
:EFG001:                        EFG         =    -8.55502   *10**21  V / m**2
                               V20  TOT/SRF=    -7.40887    -0.03870
                               V22  TOT/SRF=     0.03225     0.00178
                               V22M TOT/SRF=     0.00000     0.00000
                               V21  TOT/SRF=     0.00000     0.00000
                               V21M TOT/SRF=     0.00000     0.00000

              4.30976    0.00000    0.00000        4.30976    0.00000    0.00000
              0.00000    4.24526    0.00000        0.00000    4.24526    0.00000
              0.00000    0.00000   -8.55502        0.00000    0.00000   -8.55502

         MAIN DIRECTIONS OF THE EFG   1.0000  0.0000  0.0000
                                      0.0000  1.0000  0.0000
                                      0.0000  0.0000  1.0000
:ANG001:  ANGLE WITH OLD X-AXIS =         0.0

:ETA001:                         ASYMM. ETA =     0.00754


     HELLMANN-FEYNMAN-FORCE IN mRy/a.u. = |F|  Fx       Fy             Fz
:FHF001:   1.ATOM    733.019734419261      0.000000000000      0.000000000000   -733.019734419261

:FIT001: LUSE= 13 SIGMA OF V-XC FIT FOR ATOM  1  0.9811364E-05
:FIT001: LUSE= 13 SIGMA OF V-XC FIT FOR ATOM  1  0.9811364E-05
:DEN  : DENSITY INTEGRAL  =        -14163.46985530   (Ry)
       ELS_POTENTIAL_AT Z=0 and Z=0.5:   0.77957   0.77957
       ELS_POTENTIAL_AT Y=0 and Y=0.5:   0.05332   0.05332
:VZERO:v0,v0c,v0x   0.16942   0.77957  -0.61015 v5,v5c,v5x   0.16942   0.77957  -0.61015
:VZERY:v0,v0c,v0x  -0.76127   0.05332  -0.81459 v5,v5c,v5x  -0.76127   0.05332  -0.81459
:VZERX:v0,v0c,v0x  -1.16039  -0.38548  -0.77490 v5,v5c,v5x  -1.16039  -0.38548  -0.77490

------- case.scf1 --------
:LMAX-WF:   10   Non-Spherical LMAX:   4

          ATOMIC SPHERE DEPENDENT PARAMETERS FOR ATOM  Pr1       
:e__0001: OVERALL ENERGY PARAMETER IS    0.5308
          OVERALL BASIS SET ON ATOM IS LAPW
:E0_0001: E( 0)=    0.5308
             APW+lo
:E0_0001: E( 0)=   -1.9163   E(BOTTOM)=   -2.553   E(TOP)=   -1.279  4  5   192
             LOCAL ORBITAL
:E1_0001: E( 1)=    0.9308
             APW+lo
:E1_0001: E( 1)=   -0.4470   E(BOTTOM)=   -1.406   E(TOP)=    0.512  3  4   200
             LOCAL ORBITAL
:E3_0001: E( 3)=    0.7383   E(BOTTOM)=    0.530   E(TOP)=    0.947  0  1   123
             APW+lo
:E2_0001: E( 2)=    0.5308   E(BOTTOM)=    0.333   E(TOP)= -200.000  2 -1    87
             APW+lo

       K=   0.06250   0.00000   0.06250            1
:RKM  : MATRIX SIZE   407LOs:  40  RKM= 8.48  WEIGHT= 4.00  PGR:    
       EIGENVALUES ARE:
:EIG00001:      -1.8972352   -1.8746016   -0.6442184   -0.5363789   -0.5124317
:EIG00006:      -0.5045530   -0.4949488   -0.4944487    0.5063866    0.6271582
:EIG00011:       0.7326715    0.7377968    0.7384976    0.7420832    0.7475797
:EIG00016:       0.7623477    0.7681705    0.7690496    0.7720748    0.7755393
:EIG00021:       0.7804413    0.7831851    0.7850568    0.7925605    0.8133878
:EIG00026:       0.8272354    0.9154542    0.9245455    0.9711610    0.9956547
:EIG00031:       1.0098779    1.1190323    1.1614267    1.2160016    1.5191828
:EIG00036:       1.5499480    1.6046137    1.6281657    1.7869727    1.8417498
:EIG00041:       1.9417282    2.0384192    2.1371723    2.1518717    2.2784908
:EIG00046:       2.3057212    2.3224168    2.4220022    2.4582728    2.5729460
 
:EIG00051:       2.6246852    2.6825555    2.7039356    2.7986382    2.8414201
:EIG00056:       2.9013231    2.9192609    2.9970539    3.0696633    3.1544568
:EIG00061:       3.1943777    3.2459508    3.3745076    3.4019257    3.4400961
:EIG00066:       3.5619711    3.6038501    3.6828668    3.6887888    3.7088404
:EIG00071:       3.7132509    3.7716713    3.8126799    3.9010802    3.9150746
:EIG00076:       3.9661434    3.9705294    4.0285381    4.0563824    4.0816229
:EIG00081:       4.0934306    4.1409797    4.1535481    4.2404687    4.2699118
:EIG00086:       4.2920453    4.3757570    4.4138856    4.4511546    4.4540335
:EIG00091:       4.4905991    4.5441239    4.5508352    4.5868945    4.6001251
:EIG00096:       4.6276932    4.6829455    4.6957283    4.7248742    4.7889246
 
:EIG00101:       4.8780535    4.9966915    5.0234497    5.1060355    5.1137110
:EIG00106:       5.1278509    5.1847947    5.2352929    5.2514064    5.2752714
:EIG00111:       5.3724714    5.4202124    5.4786175    5.5499022    5.5734487
:EIG00116:       5.6215783    5.6574724    5.6668040    5.7322064    5.7738938
:EIG00121:       5.8014808    5.8323431    5.9146345    5.9207150    5.9850761
:EIG00126:       6.0711774    6.1372055    6.1475109    6.1521754    6.2315016
:EIG00131:       6.2605385    6.3150674    6.3191722    6.3307742    6.3898081
:EIG00136:       6.4705491    6.4832442    6.5260417    6.5502760    6.5784209
:EIG00141:       6.6114084    6.6513781    6.6831285    6.6882481    6.7570354
:EIG00146:       6.7712141    6.7899679    6.8515879    6.8844848    6.9049004
 
:EIG00151:       6.9603970    6.9872640    7.0386764    7.1176560    7.1869366
:EIG00156:       7.2733493    7.3619190    7.3628222    7.3806198    7.4835711
:EIG00161:       7.5402091    7.6113336    7.6242740    7.6596404    7.6854239
:EIG00166:       7.7103143    7.7151276    7.7262706    7.8037102    7.8880335
:EIG00171:       7.8916459    7.9314860    7.9605908    7.9885056    8.0552579
:EIG00176:       8.0639240    8.1131925    8.1285754    8.1729471    8.1994702
:EIG00181:       8.2254302
       ********************************************************

:KPT   :      NUMBER OF K-POINTS:   288

------- case.scfso --------
   0.0   0.0 angle (M,z), angle (M,x) deg
 
        SPIN-ORBIT EIGENVALUES:
     K=   0.06250   0.00000   0.06250            1
      MATRIX SIZE=  362   WEIGHT= 4.00
     EIGENVALUES ARE:
          -1.8972358   -1.8972358   -1.8746018   -1.8746018   -0.7164617
          -0.7164617   -0.6535150   -0.6535150   -0.5264940   -0.5264940
          -0.4429358   -0.4429358   -0.4392755   -0.4392755   -0.4283792
          -0.4283792    0.5064426    0.5064426    0.6270466    0.6270466
           0.7287194    0.7287194    0.7343327    0.7343327    0.7352235
           0.7352235    0.7378696    0.7378696    0.7431710    0.7431710
           0.7512817    0.7512817    0.7643896    0.7643896    0.7733897
           0.7733897    0.7774055    0.7774055    0.7795786    0.7795786

           0.7827935    0.7827935    0.7876052    0.7876052    0.7900889
           0.7900889    0.7972646    0.7972646    0.8150543    0.8150543
           0.8276712    0.8276712    0.9132402    0.9132402    0.9265624
           0.9265624    0.9714598    0.9714599    0.9959313    0.9959313
           1.0100932    1.0100932    1.1189176    1.1189177    1.1616936
           1.1616936    1.2161243    1.2161243    1.5193979    1.5193979
           1.5499999    1.5499999    1.6045776    1.6045776    1.6282320
           1.6282320    1.7866514    1.7866514    1.8412447    1.8412447

           1.9417396    1.9417396    2.0374119    2.0374119    2.1353413
           2.1353413    2.1531077    2.1531077    2.2787950    2.2787950
           2.3056045    2.3056045    2.3212087    2.3212087    2.4211953
           2.4211953    2.4595009    2.4595009    2.5728364    2.5728364
           2.6240397    2.6240397    2.6800108    2.6800108    2.7055332
           2.7055332    2.7985613    2.7985613    2.8425020    2.8425020
           2.9015411    2.9015411    2.9186575    2.9186575    2.9976550
           2.9976550    3.0703149    3.0703149    3.1543276    3.1543276

           3.1944341    3.1944341    3.2503194    3.2503194    3.3743737
           3.3743737    3.4019807    3.4019807    3.4403270    3.4403270
           3.5620159    3.5620159    3.6039619    3.6039619    3.6828915
           3.6828915    3.6884654    3.6884654    3.7087942    3.7087942
           3.7136954    3.7136954    3.7715139    3.7715139    3.8127547
           3.8127547    3.8999593    3.8999593    3.9163308    3.9163308
           3.9659096    3.9659096    3.9729094    3.9729094    4.0286439
           4.0286439    4.0568486    4.0568486    4.0816583    4.0816583

           4.0936793    4.0936793    4.1410339    4.1410339    4.1540578
           4.1540578    4.2405128    4.2405128    4.2699885    4.2699885
           4.2922985    4.2922985    4.3757594    4.3757594    4.4140511
           4.4140511    4.4511039    4.4511039    4.4541882    4.4541882
           4.4906379    4.4906379
       ********************************************************

------- case.scf2 --------
:GMA  : POTENTIAL AND CHARGE CUT-OFF  12.00 Ry**.5




:POS001: at.nr.  -1 position = 0.00000 0.89750 0.25000  multiplicity =  2

       lmmax 16
       lm=   0 0  1 0  2 0  2 2  3 0  3 2  4 0  4 2  4 4  5 0  5 2  5 4  6 0  6 2  6 4  6 6
:FER gutzwiller fermi energy   0.75039
:EORB         -0.112972435
:SUM sum of gutz band energies         -7.180914781

:CHA001: total charge inside sphere   1 =     9.569469
:PCS001: partial charges sphere =  1 s,p,d,f,px,py,pz,d-z2,d-x2y2,d-xy,d-xz,d-yz 
:QTL001: 1.9455 5.0086 0.6352 1.9796 1.6666 1.6667 1.6753 0.1199 0.1172 0.1346 0.1261 0.1374

                      vxx         vyy         vzz       up to r

:VZZ001:             4.28728     4.23275    -8.52004       2.300

:CHA  : total charge inside unit cell =      12.999996

------- case.scfc --------

        1.ATOM      Pr1                  14 CORE STATES
       CORE-FORCE in mRy/a.u. = |F|      Fx             Fy             Fz
:FCO001:   1.ATOM    719.175196575192      0.000000000000      0.000000000000    719.175196575192

:1S 001: 1S               -3066.842921157 Ry
:2S 001: 2S                -492.595346112 Ry
:2PP001: 2P*               -465.694459890 Ry
:2P 001: 2P                -430.296972960 Ry
:3S 001: 3S                -105.686992565 Ry
:3PP001: 3P*                -94.224761932 Ry
:3P 001: 3P                 -87.217007762 Ry
:3DD001: 3D*                -67.143720173 Ry
:3D 001: 3D                 -65.632188733 Ry
:4S 001: 4S                 -20.365968881 Ry
:4PP001: 4P*                -16.072785085 Ry
:4P 001: 4P                 -14.545457458 Ry
:4DD001: 4D*                 -7.478415419 Ry
:4D 001: 4D                  -7.209029108 Ry

------- case.scfm --------
:CINT001 Core Integral Atom   1   45.998485

       DENSITY AT NUCLEUS
        JATOM        VALENCE       SEMI-CORE          CORE           TOTAL
:RTO001:   1      650.200944        0.000000   656824.314834   657474.515778
     
       CHARGES OF NEW CHARGE DENSITY
:NTO   : INTERSTITIAL CHARGE =     6.861197
:NPC   : PW Pseudocharge     =    17.112122
:NTO001: CHARGE SPHERE  1    =    55.567954

:NEC01: NUCLEAR AND ELECTRONIC CHARGE    118.00000   117.99710
     
       CHARGES OF OLD CHARGE DENSITY
:OTO   : INTERSTITIAL CHARGE =     6.863660
:OPC   : PW Pseudocharge     =    17.119522
:OTO001: CHARGE SPHERE  1    =    55.568170

:NEC02: NUCLEAR AND ELECTRONIC CHARGE    118.00000   118.00000
     
       CONVERGENCE TEST
:DTO001: DIFFERENCE IN SPHERE  1 =  0.0002937

:DIS  :  CHARGE DISTANCE       ( 0.0002937 for atom    1 spin 1)      0.0002937
 PW Mixed is          446
 
******************************************************
* MULTISECANT MIXING VER9 RELEASE 10.4.0              *
* Standard Mode with controls                        *
* Fixed density scale                                *
* Regularization       1.000E-04                     *
* Trust Upper Limit    5.000E+00                     *
* Max Number of Memory Steps    8                    *
******************************************************
 
:PWTMP   3.1917E+02  1.9467E+02  4.2110E+02
:PLANE:  PW TOTAL      5.0074 DISTAN   1.13E-04  2.26E-03 %
:CHARG:  CLM/ATOM   1381.9512 DISTAN   5.95E-04  4.31E-05 %
 
Step History
        DMIX         DMIXT        Red     Pred      Trust     Lambda    MagRel    MagAbs     Beta
 18   1.7500E-01   1.7500E-01  1.01E+00  3.87E-01  3.67E-01  3.68E-01  1.17E-02  1.47E-04  6.13E-01
 19   2.1468E-01   2.0711E-01  5.90E-01  2.34E-01  2.13E-01  2.60E-01  2.13E-01  2.71E-03  7.67E-01
 20   1.3075E-01   1.3061E-01  2.22E+00  3.89E-01  1.17E+00  1.93E-01  6.13E-01  4.60E-03  6.13E-01
 21   1.0381E-01   1.0381E-01  9.99E-01  3.12E-01  1.03E+00  6.66E-01  1.68E-02  2.79E-04  6.89E-01
 22   1.6493E-01   1.6493E-01  7.40E-01  1.40E-01  9.91E-01  3.36E-01  1.53E-01  2.54E-03  8.61E-01
 23   8.9927E-02   4.6187E-02  4.51E-01  3.07E-02  1.22E+00  1.00E+00  2.68E-01  3.29E-03  1.00E+00
 24   6.6978E-02   6.6978E-02  5.27E-01  8.95E-02  1.63E+00  5.89E-01  7.58E-01  4.20E-03  1.00E+00
 25   5.4908E-02   5.4908E-02  2.48E-01  2.67E-01  2.17E+00  1.00E+00  4.24E-01  1.24E-03  8.00E-01
 26   6.5390E-02   6.5390E-02 -1.00E+00  5.25E-01  2.89E+00  1.00E+00  7.98E-01  5.78E-04  1.00E+00
:JACOBIANS    6.382E-01   1.219E+00
  
:NORMS:  1/Froebius, Min, Max, Used   0.5240E+00  0.4620E+00  0.1510E+01  0.5490E+00
:INFO :  Number of Memory Steps    8 Skipping   17
:INFO :  SLambda=    0.8386545672  Max    1.5000000000
:PREDicted Charge, CTotal, PW Trust    1.556E-04   3.113E-04   5.119E-04
:PREDicted DMix, Beta, BLim   7.9273E-02  7.2721E-01  1.0094E+00

Eigenvalues, unscaled except for SY+YY
   #     SY Real        SY Imag          SS             YY         SY+YY Real      SY+YY Imag
   1   3.346470E+00   0.000000E+00   2.152463E+00   7.938902E+00   1.075279E+01   0.000000E+00
   2   4.038840E-02   0.000000E+00   4.034723E-02   5.181355E-02   7.921260E-02   0.000000E+00
   3   6.308488E-03   0.000000E+00   3.310437E-03   8.958718E-03   1.339416E-02   0.000000E+00
   4   6.313385E-05   0.000000E+00   7.944429E-05   1.504495E-04   1.965957E-04   0.000000E+00
   5   3.607769E-05   0.000000E+00   3.568669E-05   1.209611E-04   1.246528E-04   0.000000E+00
   6   9.569890E-07   1.398731E-06   3.552565E-06   2.936563E-05   3.775669E-05   0.000000E+00
   7   9.569890E-07  -1.398731E-06   3.846104E-07   2.189192E-05   1.319035E-05   6.298973E-11
   8   3.856413E-06   0.000000E+00   1.228759E-07   3.486594E-06   1.319035E-05  -6.298973E-11
 
:INFO :  Singular value  1.076E+01 Weight  1.000E+00 Projection  1.665E-04
:INFO :  Singular value  7.964E-02 Weight  9.999E-01 Projection  7.881E-04
:INFO :  Singular value  1.339E-02 Weight  9.965E-01 Projection  3.527E-04
:INFO :  Singular value  2.030E-04 Weight  6.135E-02 Projection -1.073E-03
:INFO :  Singular value  1.253E-04 Weight  2.429E-02 Projection -2.469E-04
:INFO :  Singular value  4.149E-05 Weight  2.724E-03 Projection -1.836E-05
:INFO :  Singular value  1.965E-05 Weight  6.123E-04 Projection -3.020E-05
:INFO :  Singular value  7.721E-06 Weight  9.457E-05 Projection -1.169E-05
:RANK :  ACTIVE   3.09/8  =  38.57 % ; YY RANK   3.05/8  =  38.14 %
 
:DLIM :  Beta Active  8.000E-01
:BLIM :  VZERO Control Off
:TRUST:  Step 3.46E+00  Charge 1.77E-03 (e) CTO  3.88E-03 (e) PW  4.49E-03 (e)
:DIRM :  MEMORY  8/8  SCALE   1.000 RED  0.84 PRED  0.52 NEXT  0.61 BETA  0.80
:TRAVE:  Charge 2.19E-04 (e) CTO  4.38E-04 (e) PW  4.32E-04 (e)
:DIRP :  |MSR1|= 7.062E-05 |PRATT|= 1.130E-04 ANGLE=  43.7 DEGREES
:DIRQ :  |MSR1|= 2.144E-04 |PRATT|= 5.950E-04 ANGLE=  49.2 DEGREES
:DIRT :  |MSR1|= 2.257E-04 |PRATT|= 6.056E-04 ANGLE=  49.3 DEGREES
:MIX  :   MSD1   REGULARIZATION:  7.94E-04 GREED: 0.07443  Newton 1.00  0.3727                
     
       CHARGES OF MIXED CHARGE DENSITY
:CTO   : INTERSTITIAL CHARGE =     6.863711
:CPC   : PW Pseudocharge     =    17.119282
:CTO001: CHARGE SPHERE  1    =    55.568144

:NEC03: NUCLEAR AND ELECTRONIC CHARGE    118.00000   118.00000

PW CHANGE     H    K    L      Current       Change    Residue
:PTO001:      0    0    0  5.69537427E-02 -4.473E-07  6.067E-07
:PTO003:      0    2    0  1.50513463E-02 -3.189E-07  4.099E-07
:PTO004:     -1    1    0  7.39783636E-02 -1.328E-06 -2.046E-06
:PTO005:      0    2   -1 -8.58899014E-02  1.382E-06  1.962E-06
:PTO006:      0    0   -2 -4.45300287E-02  6.641E-07  1.135E-06
:PTO007:     -1    1   -1 -9.24966260E-02  1.398E-06  1.738E-06
:PTO008:      0    2   -2 -1.48161999E-02  1.316E-07 -3.080E-07
:PTO009:     -1    1   -2 -7.50572103E-02  1.259E-06  1.367E-06
:PTO011:     -1    3    0 -1.19565278E-02  1.055E-07  3.842E-07
:PTO012:     -1    3   -1 -5.30698070E-02  5.860E-07  7.409E-07
:PTO013:      0    4    0 -9.50657269E-03  7.216E-08  2.192E-07
:PTO014:      0    2   -3  2.18248208E-02 -2.622E-07 -6.154E-07

:ENE  : ********** TOTAL ENERGY IN Ry =       -36944.24388927

       TOTAL FORCE IN mRy/a.u. = |F|     Fx             Fy             Fz     with/without FOR in case.in2
:FOR001:   1.ATOM         13.845          0.000          0.000        -13.845 partial forces
       TOTAL FORCE WITH RESPECT TO GLOBAL CARTESIAN COORDINATES:
:FCA001:   1.ATOM                         0.000        -13.845          0.000 partial forces
       TOTAL FORCE WITH RESPECT TO THE GLOBAL COORDINATE SYSTEM:
:FGL001:   1.ATOM                 0.000000000   -13.844537844     0.000000000 partial forces
