
------- case.scf0 --------
 Flat Integration
 New Mode for Coulomb Integral
 Consistent 3/8+Simpson combinations
 Extension of core to zero
 LDM version in phi
 Fifth-order quadrature in outwin


            ---------
:ITE042: 42. ITERATION
            ---------

:NATO :    2 INDEPENDENT AND    4 TOTAL ATOMS IN UNITCELL
       SUBSTANCE: FeSe                                                        

       LATTICE                      = P   
:POT  : POTENTIAL OPTION EX_LDA EC_LDA VX_LDA VC_LDA
:LAT  : LATTICE CONSTANTS=  7.12881  7.12881 10.43450    1.571    1.571    1.571
:VOL  : UNIT CELL VOLUME =     530.28024
       MODE OF CALCULATION IS       = RELA
       NON-SPINPOLARIZED CALCULATION
:IFFT  : FFT-parameters:   60   60   80 Factor: 2.00


   CONVERGENCE PARAMETER FOR PSEUDOCHARGE: NCON=  9
   MAXIMAL VALUE OF RMT(JATOM)*ABSK(NKK) : RK  =25.91023


:VKCOUL :  VK-COUL convergence: 0.300E-06
       ATOMNUMBER=  1 Fe         VCOUL-ZERO =  0.18549E+00
:EFG001:                        EFG         =     0.92858   *10**21  V / m**2
                               V20  TOT/SRF=     0.80418    -0.09518
                               V22  TOT/SRF=     0.00000     0.00000
                               V22M TOT/SRF=     0.00000     0.00000
                               V21  TOT/SRF=     0.00000     0.00000
                               V21M TOT/SRF=     0.00000     0.00000

             -0.46429    0.00000    0.00000       -0.46429    0.00000    0.00000
              0.00000   -0.46429    0.00000        0.00000   -0.46429    0.00000
              0.00000    0.00000    0.92858        0.00000    0.00000    0.92858

         MAIN DIRECTIONS OF THE EFG   1.0000  0.0000  0.0000
                                      0.0000  1.0000  0.0000
                                      0.0000  0.0000  1.0000
:ANG001:  ANGLE WITH OLD X-AXIS =         0.0

:ETA001:                         ASYMM. ETA =     0.00000


       ATOMNUMBER=  2 Se         VCOUL-ZERO =  0.42782E-01
:EFG002:                        EFG         =    -5.59244   *10**21  V / m**2
                               V20  TOT/SRF=    -4.84319    -0.03163
                               V22  TOT/SRF=     0.00000     0.00000
                               V22M TOT/SRF=     0.00000     0.00000
                               V21  TOT/SRF=     0.00000     0.00000
                               V21M TOT/SRF=     0.00000     0.00000

              2.79622    0.00000    0.00000        2.79622    0.00000    0.00000
              0.00000    2.79622    0.00000        0.00000    2.79622    0.00000
              0.00000    0.00000   -5.59244        0.00000    0.00000   -5.59244

         MAIN DIRECTIONS OF THE EFG   1.0000  0.0000  0.0000
                                      0.0000  1.0000  0.0000
                                      0.0000  0.0000  1.0000
:ANG002:  ANGLE WITH OLD X-AXIS =         0.0

:ETA002:                         ASYMM. ETA =     0.00000


     HELLMANN-FEYNMAN-FORCE IN mRy/a.u. = |F|  Fx       Fy             Fz
:FHF001:   1.ATOM      0.000000000000      0.000000000000      0.000000000000      0.000000000000

     HELLMANN-FEYNMAN-FORCE IN mRy/a.u. = |F|  Fx       Fy             Fz
:FHF002:   2.ATOM   1646.527542522714      0.000000000000      0.000000000000   1646.527542522714

:FIT001: LUSE= 13 SIGMA OF V-XC FIT FOR ATOM  1  0.2664596E-02
:FIT001: LUSE= 13 SIGMA OF V-XC FIT FOR ATOM  1  0.2664596E-02
:FIT002: LUSE= 13 SIGMA OF V-XC FIT FOR ATOM  2  0.4937953E-03
:FIT002: LUSE= 13 SIGMA OF V-XC FIT FOR ATOM  2  0.4937953E-03
:DEN  : DENSITY INTEGRAL  =         -6214.94224278   (Ry)
       ELS_POTENTIAL_AT Z=0 and Z=0.5:  -0.81700   0.72204
       ELS_POTENTIAL_AT Y=0 and Y=0.5:   0.00000   0.00000
:VZERO:v0,v0c,v0x  -1.66274  -0.81700  -0.84574 v5,v5c,v5x   0.28046   0.72204  -0.44158
:VZERY:v0,v0c,v0x  -0.70291   0.00000  -0.70291 v5,v5c,v5x  -0.70291   0.00000  -0.70291
:VZERX:v0,v0c,v0x   0.12098   0.79393  -0.67295 v5,v5c,v5x   0.12098   0.79393  -0.67295

------- case.scf1 --------
:LMAX-WF:   10   Non-Spherical LMAX:   4

          ATOMIC SPHERE DEPENDENT PARAMETERS FOR ATOM  Fe        
:e__0001: OVERALL ENERGY PARAMETER IS    0.1826
          OVERALL BASIS SET ON ATOM IS LAPW
:E1_0001: E( 1)=    0.1826
             APW+lo
:E1_0001: E( 1)=   -3.5739   E(BOTTOM)=   -3.664   E(TOP)=   -3.483  1  2   135
             LOCAL ORBITAL
:E2_0001: E( 2)=    0.2164   E(BOTTOM)=   -0.137   E(TOP)=    0.570  0  1   139
             APW+lo
:E0_0001: E( 0)=    0.1826
             APW+lo

          ATOMIC SPHERE DEPENDENT PARAMETERS FOR ATOM  Se        
:e__0002: OVERALL ENERGY PARAMETER IS    0.1826
          OVERALL BASIS SET ON ATOM IS LAPW
:E2_0002: E( 2)=    0.1826
             APW+lo
:E2_0002: E( 2)=   -3.1571   E(BOTTOM)=   -3.202   E(TOP)=   -3.113  0  1   144
             LOCAL ORBITAL
:E0_0002: E( 0)=    0.5826
             APW+lo
:E0_0002: E( 0)=   -1.0200   E(BOTTOM)=   -1.645   E(TOP)= -200.000  3 -1   185
             LOCAL ORBITAL
:E1_0002: E( 1)=    0.1826
             APW+lo

       K=   0.04545   0.04545   0.07143            1
:RKM  : MATRIX SIZE   582LOs:  54  RKM= 7.97  WEIGHT= 8.00  PGR:    
       EIGENVALUES ARE:
:EIG00001:      -3.5645731   -3.5643477   -3.5556051   -3.5553797   -3.5445206
:EIG00006:      -3.5426013   -3.1477804   -3.1474593   -3.1467411   -3.1467101
:EIG00011:      -3.1460731   -3.1460615   -3.1459659   -3.1459602   -3.1450097
:EIG00016:      -3.1449772   -0.7068215   -0.6113754   -0.0416653    0.0297315
:EIG00021:       0.0388529    0.0428894    0.1003233    0.1044842    0.1138461
:EIG00026:       0.2696568    0.2963119    0.3096425    0.3212573    0.3241181
:EIG00031:       0.3593405    0.4899624    0.5341768    0.5396181    0.6281745
:EIG00036:       0.7129789    0.7928947    0.9117534    0.9417199    0.9485559
:EIG00041:       1.2000402    1.2763585    1.3125457    1.3281591    1.3602101
:EIG00046:       1.3652689    1.4100292    1.4373219    1.4679086    1.4916656
 
:EIG00051:       1.6414046    1.6579887    1.7181300    1.7540235    1.8563104
       ********************************************************

:KPT   :      NUMBER OF K-POINTS:    84

------- case.scf2 --------
:GMA  : POTENTIAL AND CHARGE CUT-OFF  12.00 Ry**.5




:POS001: at.nr.  -1 position = 0.25000 0.75000 0.00000  multiplicity =  2

       lmmax  8
       lm=   0 0  2 0 -3 2  4 0  4 4 -5 2  6 0  6 4




:POS002: at.nr.  -2 position = 0.25000 0.75000 0.00000  multiplicity =  2

       lmmax 10
       lm=   0 0  1 0  2 0  3 0  4 0  4 4  5 0  5 4  6 0  6 4
:FER gutzwiller fermi energy   0.44025
:EORB        -21.726687238
:SUM sum of gutz band energies       -102.464618592

:CHA001: total charge inside sphere   1 =    12.542970
:PCS001: partial charges sphere =  1 s,p,d,f,pz,pxy,,d-z2,d-xy,d-x2y2,d-xz,yz 
:QTL001: 0.3031 6.3122 5.8978 0.0243 2.0816 4.2305 0.0000 1.3325 1.2428 1.0949 2.2275 0.0000
:VZZ001: efg inside sphere   1 =     1.541186      up to r =   2.16000

:CHA002: total charge inside sphere   2 =    13.578062
:PCS002: partial charges sphere =  2 s,p,d,f,pz,pxy,,d-z2,d-xy,d-x2y2,d-xz,yz 
:QTL002: 1.3483 2.154110.0575 0.0149 0.7346 1.4195 0.0000 2.0106 2.0130 2.0109 4.0230 0.0000
:VZZ002: efg inside sphere   2 =    -5.764182      up to r =   2.05000

:CHA  : total charge inside unit cell =      60.000000

------- case.scfc --------

        1.ATOM      Fe                    5 CORE STATES
:1S 001: 1S                -512.307611594 Ry
:2S 001: 2S                 -59.250710066 Ry
:2PP001: 2P*                -51.051669072 Ry
:2P 001: 2P                 -50.136554681 Ry
:3S 001: 3S                  -6.017587131 Ry

        2.ATOM      Se                    7 CORE STATES
       CORE-FORCE in mRy/a.u. = |F|      Fx             Fy             Fz
:FCO002:   2.ATOM   1253.806913961152      0.000000000000      0.000000000000  -1253.806913961152

:1S 002: 1S                -916.450723745 Ry
:2S 002: 2S                -117.113180847 Ry
:2PP002: 2P*               -105.087978703 Ry
:2P 002: 2P                -102.024787868 Ry
:3S 002: 3S                 -14.847219774 Ry
:3PP002: 3P*                -10.734466325 Ry
:3P 002: 3P                 -10.302105297 Ry

------- case.scfm --------
:CINT001 Core Integral Atom   1   11.997185
:CINT002 Core Integral Atom   2   17.999404

       DENSITY AT NUCLEUS
        JATOM        VALENCE       SEMI-CORE          CORE           TOTAL
:RTO001:   1        6.689127        0.000000    14798.185619    14804.874746
:RTO002:   2       55.205535        0.000000    38924.591484    38979.797019
     
       CHARGES OF NEW CHARGE DENSITY
:NTO   : INTERSTITIAL CHARGE =     7.757881
:NPC   : PW Pseudocharge     =    14.262213
:NTO001: CHARGE SPHERE  1    =    24.540155
:NTO002: CHARGE SPHERE  2    =    31.577466

:NEC01: NUCLEAR AND ELECTRONIC CHARGE    120.00000   119.99312
     
       CHARGES OF OLD CHARGE DENSITY
:OTO   : INTERSTITIAL CHARGE =     7.687140
:OPC   : PW Pseudocharge     =    14.209027
:OTO001: CHARGE SPHERE  1    =    24.627923
:OTO002: CHARGE SPHERE  2    =    31.528507

:NEC02: NUCLEAR AND ELECTRONIC CHARGE    120.00000   120.00000
     
       CONVERGENCE TEST
:DTO001: DIFFERENCE IN SPHERE  1 =  0.0841861
:DTO002: DIFFERENCE IN SPHERE  2 =  0.0336574

:DIS  :  CHARGE DISTANCE       ( 0.0841861 for atom    1 spin 1)      0.0589217
 PW Mixed is          365
 
******************************************************
* MULTISECANT MIXING VER9 RELEASE 10.4.0              *
* Standard Mode with controls                        *
* Fixed density scale                                *
* Restart from converged density                     *
* Regularization       1.000E-04                     *
* Trust Upper Limit    5.000E+00                     *
* Max Number of Memory Steps    8                    *
******************************************************
 
:INFO : Forcing a restart
:PWTMP   3.7368E+02  3.2249E+02  5.3028E+02
:PLANE:  PW TOTAL      3.7787 DISTAN   4.33E-02  1.15E+00 %
:CHARG:  CLM/ATOM    303.3455 DISTAN   6.82E-02  2.25E-02 %
 
Step History
        DMIX         DMIXT        Red     Pred      Trust     Lambda    MagRel    MagAbs     Beta
  1   3.5000E-02   3.5000E-02 -1.00E+00  1.00E+00 -1.00E+01  1.00E+00  3.50E-02  3.50E-02  1.00E+00
:INFO :  Note, Pratt in use
:TRUST:  Step 2.25E-01  Charge 7.50E-02 (e) CTO  2.50E-01 (e) PW  3.50E-01 (e)
:DIRM :  MEMORY  0/ 8 SCALE   1.000
Performing Pseudo Compensation
Final Pseudo Compensation Rescaling     9.99928E-01
:MIX  :   PRATT  REGULARIZATION:  1.00E-04 GREED: 0.15000                  
     
       CHARGES OF MIXED CHARGE DENSITY
:CTO   : INTERSTITIAL CHARGE =     7.698783
:CPC   : PW Pseudocharge     =    14.239387
:CTO001: CHARGE SPHERE  1    =    24.614758
:CTO002: CHARGE SPHERE  2    =    31.535851

:NEC03: NUCLEAR AND ELECTRONIC CHARGE    120.00000   120.00000

PW CHANGE     H    K    L      Current       Change    Residue
:PTO001:      0    0    0  4.13708991E-02  7.921E-05  2.705E-04
:PTO002:      0    0   -1  2.60836729E-02 -8.401E-05 -2.648E-04
:PTO004:     -1    0   -1 -9.23323314E-02 -5.728E-04 -1.052E-03
:PTO005:      0    0   -2 -1.04969008E-02 -1.777E-04 -3.105E-04
:PTO006:     -1   -1    0 -2.19602946E-02 -3.514E-04 -6.191E-04
:PTO007:     -1   -1   -1  1.16058370E-02 -2.170E-04 -3.251E-04
:PTO008:     -1    0   -2 -1.17941260E-02 -7.814E-05 -3.533E-05
:PTO009:     -1   -1   -2  2.81032734E-02  1.692E-04  1.805E-04
:PTO010:     -2    0    0 -1.29353055E-02 -8.765E-05 -1.016E-04
:PTO011:      0    0   -3 -1.53219853E-03 -3.237E-05  9.013E-06
:PTO012:     -2    0   -1 -1.11022714E-03  1.160E-05 -1.249E-04
:PTO014:     -1    0   -3  9.52461440E-03  1.407E-04  4.366E-05

:ENE  : ********** TOTAL ENERGY IN Ry =       -14810.28572041

       TOTAL FORCE IN mRy/a.u. = |F|     Fx             Fy             Fz     with/without FOR in case.in2
:FOR001:   1.ATOM          0.000          0.000          0.000          0.000 partial forces
:FOR002:   2.ATOM        392.721          0.000          0.000        392.721 partial forces
       TOTAL FORCE WITH RESPECT TO GLOBAL CARTESIAN COORDINATES:
:FCA001:   1.ATOM                         0.000          0.000          0.000 partial forces
:FCA002:   2.ATOM                         0.000          0.000        392.721 partial forces
       TOTAL FORCE WITH RESPECT TO THE GLOBAL COORDINATE SYSTEM:
:FGL001:   1.ATOM                 0.000000000     0.000000000     0.000000000 partial forces
:FGL002:   2.ATOM                 0.000000000     0.000000000   392.720628562 partial forces

------- case.scf0 --------
 Flat Integration
 New Mode for Coulomb Integral
 Consistent 3/8+Simpson combinations
 Extension of core to zero
 LDM version in phi
 Fifth-order quadrature in outwin


            ---------
:ITE043: 43. ITERATION
            ---------

:NATO :    2 INDEPENDENT AND    4 TOTAL ATOMS IN UNITCELL
       SUBSTANCE: FeSe                                                        

       LATTICE                      = P   
:POT  : POTENTIAL OPTION EX_LDA EC_LDA VX_LDA VC_LDA
:LAT  : LATTICE CONSTANTS=  7.12881  7.12881 10.43450    1.571    1.571    1.571
:VOL  : UNIT CELL VOLUME =     530.28024
       MODE OF CALCULATION IS       = RELA
       NON-SPINPOLARIZED CALCULATION
:IFFT  : FFT-parameters:   60   60   80 Factor: 2.00


   CONVERGENCE PARAMETER FOR PSEUDOCHARGE: NCON=  9
   MAXIMAL VALUE OF RMT(JATOM)*ABSK(NKK) : RK  =25.91023


:VKCOUL :  VK-COUL convergence: 0.301E-06
       ATOMNUMBER=  1 Fe         VCOUL-ZERO =  0.17981E+00
:EFG001:                        EFG         =     0.99427   *10**21  V / m**2
                               V20  TOT/SRF=     0.86106    -0.10040
                               V22  TOT/SRF=     0.00000     0.00000
                               V22M TOT/SRF=     0.00000     0.00000
                               V21  TOT/SRF=     0.00000     0.00000
                               V21M TOT/SRF=     0.00000     0.00000

             -0.49714    0.00000    0.00000       -0.49714    0.00000    0.00000
              0.00000   -0.49714    0.00000        0.00000   -0.49714    0.00000
              0.00000    0.00000    0.99427        0.00000    0.00000    0.99427

         MAIN DIRECTIONS OF THE EFG   1.0000  0.0000  0.0000
                                      0.0000  1.0000  0.0000
                                      0.0000  0.0000  1.0000
:ANG001:  ANGLE WITH OLD X-AXIS =         0.0

:ETA001:                         ASYMM. ETA =     0.00000


       ATOMNUMBER=  2 Se         VCOUL-ZERO =  0.44703E-01
:EFG002:                        EFG         =    -5.62479   *10**21  V / m**2
                               V20  TOT/SRF=    -4.87121    -0.03268
                               V22  TOT/SRF=     0.00000     0.00000
                               V22M TOT/SRF=     0.00000     0.00000
                               V21  TOT/SRF=     0.00000     0.00000
                               V21M TOT/SRF=     0.00000     0.00000

              2.81240    0.00000    0.00000        2.81240    0.00000    0.00000
              0.00000    2.81240    0.00000        0.00000    2.81240    0.00000
              0.00000    0.00000   -5.62479        0.00000    0.00000   -5.62479

         MAIN DIRECTIONS OF THE EFG   1.0000  0.0000  0.0000
                                      0.0000  1.0000  0.0000
                                      0.0000  0.0000  1.0000
:ANG002:  ANGLE WITH OLD X-AXIS =         0.0

:ETA002:                         ASYMM. ETA =     0.00000


     HELLMANN-FEYNMAN-FORCE IN mRy/a.u. = |F|  Fx       Fy             Fz
:FHF001:   1.ATOM      0.000000000000      0.000000000000      0.000000000000      0.000000000000

     HELLMANN-FEYNMAN-FORCE IN mRy/a.u. = |F|  Fx       Fy             Fz
:FHF002:   2.ATOM   1764.697738656956      0.000000000000      0.000000000000   1764.697738656956

:FIT001: LUSE= 13 SIGMA OF V-XC FIT FOR ATOM  1  0.2671324E-02
:FIT001: LUSE= 13 SIGMA OF V-XC FIT FOR ATOM  1  0.2671324E-02
:FIT002: LUSE= 13 SIGMA OF V-XC FIT FOR ATOM  2  0.4880397E-03
:FIT002: LUSE= 13 SIGMA OF V-XC FIT FOR ATOM  2  0.4880397E-03
:DEN  : DENSITY INTEGRAL  =         -6214.35799820   (Ry)
       ELS_POTENTIAL_AT Z=0 and Z=0.5:  -0.82540   0.72844
       ELS_POTENTIAL_AT Y=0 and Y=0.5:   0.00000   0.00000
:VZERO:v0,v0c,v0x  -1.67039  -0.82540  -0.84499 v5,v5c,v5x   0.28611   0.72844  -0.44232
:VZERY:v0,v0c,v0x  -0.70328   0.00000  -0.70328 v5,v5c,v5x  -0.70328   0.00000  -0.70328
:VZERX:v0,v0c,v0x   0.12174   0.79496  -0.67323 v5,v5c,v5x   0.12174   0.79496  -0.67323

------- case.scf1 --------
:LMAX-WF:   10   Non-Spherical LMAX:   4

          ATOMIC SPHERE DEPENDENT PARAMETERS FOR ATOM  Fe        
:e__0001: OVERALL ENERGY PARAMETER IS    0.1826
          OVERALL BASIS SET ON ATOM IS LAPW
:E1_0001: E( 1)=    0.1826
             APW+lo
:E1_0001: E( 1)=   -3.5908   E(BOTTOM)=   -3.681   E(TOP)=   -3.501  1  2   137
             LOCAL ORBITAL
:E2_0001: E( 2)=    0.2012   E(BOTTOM)=   -0.151   E(TOP)=    0.553  0  1   133
             APW+lo
:E0_0001: E( 0)=    0.1826
             APW+lo

          ATOMIC SPHERE DEPENDENT PARAMETERS FOR ATOM  Se        
:e__0002: OVERALL ENERGY PARAMETER IS    0.1826
          OVERALL BASIS SET ON ATOM IS LAPW
:E2_0002: E( 2)=    0.1826
             APW+lo
:E2_0002: E( 2)=   -3.1517   E(BOTTOM)=   -3.196   E(TOP)=   -3.107  0  1   133
             LOCAL ORBITAL
:E0_0002: E( 0)=    0.5826
             APW+lo
:E0_0002: E( 0)=   -1.0200   E(BOTTOM)=   -1.642   E(TOP)= -200.000  3 -1   184
             LOCAL ORBITAL
:E1_0002: E( 1)=    0.1826
             APW+lo

       K=   0.04545   0.04545   0.07143            1
:RKM  : MATRIX SIZE   582LOs:  54  RKM= 7.97  WEIGHT= 8.00  PGR:    
       EIGENVALUES ARE:
:EIG00001:      -3.5814976   -3.5812739   -3.5726036   -3.5723799   -3.5615339
:EIG00006:      -3.5596250   -3.1423527   -3.1420487   -3.1412997   -3.1412687
:EIG00011:      -3.1406210   -3.1406097   -3.1405204   -3.1405146   -3.1395251
:EIG00016:      -3.1394946   -0.7068019   -0.6105611   -0.0437817    0.0235799
:EIG00021:       0.0317927    0.0357368    0.0966714    0.1004807    0.1008909
:EIG00026:       0.2565373    0.2810567    0.3000428    0.3081663    0.3126625
:EIG00031:       0.3446979    0.4882639    0.5287076    0.5336160    0.6281310
:EIG00036:       0.7072269    0.7886514    0.9104675    0.9411231    0.9479233
:EIG00041:       1.1995277    1.2744349    1.3096398    1.3284261    1.3604156
:EIG00046:       1.3655381    1.4085340    1.4365169    1.4686008    1.4920528
 
:EIG00051:       1.6418774    1.6591209    1.7170037    1.7538740    1.8574418
       ********************************************************

:KPT   :      NUMBER OF K-POINTS:    84

------- case.scf2 --------
:GMA  : POTENTIAL AND CHARGE CUT-OFF  12.00 Ry**.5




:POS001: at.nr.  -1 position = 0.25000 0.75000 0.00000  multiplicity =  2

       lmmax  8
       lm=   0 0  2 0 -3 2  4 0  4 4 -5 2  6 0  6 4




:POS002: at.nr.  -2 position = 0.25000 0.75000 0.00000  multiplicity =  2

       lmmax 10
       lm=   0 0  1 0  2 0  3 0  4 0  4 4  5 0  5 4  6 0  6 4
:FER gutzwiller fermi energy   0.43797
:EORB        -21.885218516
:SUM sum of gutz band energies       -102.575774743

:CHA001: total charge inside sphere   1 =    12.573500
:PCS001: partial charges sphere =  1 s,p,d,f,pz,pxy,,d-z2,d-xy,d-x2y2,d-xz,yz 
:QTL001: 0.3061 6.3149 5.9226 0.0243 2.0823 4.2326 0.0000 1.3349 1.2446 1.0995 2.2435 0.0000
:VZZ001: efg inside sphere   1 =     1.399079      up to r =   2.16000

:CHA002: total charge inside sphere   2 =    13.561378
:PCS002: partial charges sphere =  2 s,p,d,f,pz,pxy,,d-z2,d-xy,d-x2y2,d-xz,yz 
:QTL002: 1.3472 2.139510.0567 0.0147 0.7287 1.4107 0.0000 2.0104 2.0126 2.0106 4.0231 0.0000
:VZZ002: efg inside sphere   2 =    -5.455182      up to r =   2.05000

:CHA  : total charge inside unit cell =      60.000000

------- case.scfc --------

        1.ATOM      Fe                    5 CORE STATES
:1S 001: 1S                -512.331376415 Ry
:2S 001: 2S                 -59.273933674 Ry
:2PP001: 2P*                -51.075046808 Ry
:2P 001: 2P                 -50.159917325 Ry
:3S 001: 3S                  -6.035117630 Ry

        2.ATOM      Se                    7 CORE STATES
       CORE-FORCE in mRy/a.u. = |F|      Fx             Fy             Fz
:FCO002:   2.ATOM   1314.559405013025      0.000000000000      0.000000000000  -1314.559405013025

:1S 002: 1S                -916.443496316 Ry
:2S 002: 2S                -117.106569129 Ry
:2PP002: 2P*               -105.081266366 Ry
:2P 002: 2P                -102.018089313 Ry
:3S 002: 3S                 -14.841613418 Ry
:3PP002: 3P*                -10.728875898 Ry
:3P 002: 3P                 -10.296540897 Ry

------- case.scfm --------
:CINT001 Core Integral Atom   1   11.997202
:CINT002 Core Integral Atom   2   17.999403

       DENSITY AT NUCLEUS
        JATOM        VALENCE       SEMI-CORE          CORE           TOTAL
:RTO001:   1        6.757386        0.000000    14798.318863    14805.076249
:RTO002:   2       55.137941        0.000000    38924.549591    38979.687532
     
       CHARGES OF NEW CHARGE DENSITY
:NTO   : INTERSTITIAL CHARGE =     7.730199
:NPC   : PW Pseudocharge     =    14.227377
:NTO001: CHARGE SPHERE  1    =    24.570702
:NTO002: CHARGE SPHERE  2    =    31.560781

:NEC01: NUCLEAR AND ELECTRONIC CHARGE    120.00000   119.99316
     
       CHARGES OF OLD CHARGE DENSITY
:OTO   : INTERSTITIAL CHARGE =     7.698783
:OPC   : PW Pseudocharge     =    14.239387
:OTO001: CHARGE SPHERE  1    =    24.614758
:OTO002: CHARGE SPHERE  2    =    31.535851

:NEC02: NUCLEAR AND ELECTRONIC CHARGE    120.00000   120.00000
     
       CONVERGENCE TEST
:DTO001: DIFFERENCE IN SPHERE  1 =  0.0313685
:DTO002: DIFFERENCE IN SPHERE  2 =  0.0163808

:DIS  :  CHARGE DISTANCE       ( 0.0313685 for atom    1 spin 1)      0.0238746
 PW Mixed is          365
 
******************************************************
* MULTISECANT MIXING VER9 RELEASE 10.4.0              *
* Standard Mode with controls                        *
* Fixed density scale                                *
* Restart from converged density                     *
* Regularization       1.000E-04                     *
* Trust Upper Limit    5.000E+00                     *
* Max Number of Memory Steps    8                    *
******************************************************
 
:INFO : Forcing a restart
:PWTMP   3.7368E+02  3.2249E+02  5.3028E+02
:PLANE:  PW TOTAL      3.7924 DISTAN   1.51E-02  3.98E-01 %
:CHARG:  CLM/ATOM    303.3457 DISTAN   2.96E-02  9.77E-03 %
 
Step History
        DMIX         DMIXT        Red     Pred      Trust     Lambda    MagRel    MagAbs     Beta
  1   3.5000E-02   3.5000E-02 -1.00E+00  1.00E+00 -1.00E+01  1.00E+00  3.50E-02  3.50E-02  1.00E+00
  2   1.5000E-01   1.5000E-01 -1.00E+00  1.00E+00 -1.00E+01  1.00E+00  1.50E-01  2.15E-02  1.00E+00
:JACOBIANS    3.871E-02   8.725E-02
  
:NORMS:  1/Froebius, Min, Max, Used   0.9020E-01  0.9020E-01  0.2507E+00  0.9020E-01
:INFO :  Number of Memory Steps    1 Skipping    0
:PREDicted Charge, CTotal, PW Trust    1.707E-02   1.510E-02   3.313E-02
:PREDicted DMix, Beta, BLim   5.0000E-02  1.2969E+00  2.1744E+00

Eigenvalues, unscaled except for SY+YY
   #     SY Real        SY Imag          SS             YY         SY+YY Real      SY+YY Imag
   1   2.507379E-01   0.000000E+00   9.019655E-02   1.000000E+00   1.250738E+00   0.000000E+00
 
:BLIM :  VZERO Control Off
:TRUST:  Step 3.00E+00  Charge 7.50E-02 (e) CTO  2.50E-01 (e) PW  3.50E-01 (e)
:DIRM :  MEMORY  1/8  SCALE   1.000 RED  0.43 PRED  1.00 NEXT  0.87 
:TRAVE:  Charge 6.12E-03 (e) CTO  5.35E-03 (e) PW  7.92E-03 (e)
:DIRP :  |MSR1|= 6.427E-03 |PRATT|= 1.509E-02 ANGLE=  66.9 DEGREES
:DIRQ :  |MSR1|= 8.254E-03 |PRATT|= 5.926E-02 ANGLE=  13.4 DEGREES
:DIRT :  |MSR1|= 1.046E-02 |PRATT|= 6.115E-02 ANGLE=  36.6 DEGREES
:MIX  :   MSR1   REGULARIZATION:  1.00E-04 GREED: 0.07125  Newton 1.00  0.1711                
     
       CHARGES OF MIXED CHARGE DENSITY
:CTO   : INTERSTITIAL CHARGE =     7.704132
:CPC   : PW Pseudocharge     =    14.247060
:CTO001: CHARGE SPHERE  1    =    24.608635
:CTO002: CHARGE SPHERE  2    =    31.539299

:NEC03: NUCLEAR AND ELECTRONIC CHARGE    120.00000   120.00000

PW CHANGE     H    K    L      Current       Change    Residue
:PTO001:      0    0    0  4.13954555E-02  2.456E-05  7.321E-05
:PTO002:      0    0   -1  2.60550035E-02 -2.867E-05 -1.010E-04
:PTO004:     -1    0   -1 -9.24877330E-02 -1.554E-04 -8.226E-05
:PTO005:      0    0   -2 -1.05454295E-02 -4.853E-05 -2.543E-05
:PTO006:     -1   -1    0 -2.20628795E-02 -1.026E-04 -1.231E-04
:PTO007:     -1   -1   -1  1.15334783E-02 -7.236E-05 -1.605E-04
:PTO008:     -1    0   -2 -1.18208380E-02 -2.671E-05 -4.612E-05
:PTO009:     -1   -1   -2  2.81434551E-02  4.018E-05 -6.735E-05
:PTO010:     -2    0    0 -1.29539975E-02 -1.869E-05  5.606E-05
:PTO011:      0    0   -3 -1.53897652E-03 -6.778E-06  3.270E-05
:PTO012:     -2    0   -1 -1.11657719E-03 -6.350E-06 -1.346E-04
:PTO014:     -1    0   -3  9.55452161E-03  2.991E-05 -1.184E-04

:ENE  : ********** TOTAL ENERGY IN Ry =       -14810.28455435

       TOTAL FORCE IN mRy/a.u. = |F|     Fx             Fy             Fz     with/without FOR in case.in2
:FOR001:   1.ATOM          0.000          0.000          0.000          0.000 partial forces
:FOR002:   2.ATOM        450.138          0.000          0.000        450.138 partial forces
       TOTAL FORCE WITH RESPECT TO GLOBAL CARTESIAN COORDINATES:
:FCA001:   1.ATOM                         0.000          0.000          0.000 partial forces
:FCA002:   2.ATOM                         0.000          0.000        450.138 partial forces
       TOTAL FORCE WITH RESPECT TO THE GLOBAL COORDINATE SYSTEM:
:FGL001:   1.ATOM                 0.000000000     0.000000000     0.000000000 partial forces
:FGL002:   2.ATOM                 0.000000000     0.000000000   450.138333644 partial forces

------- case.scf0 --------
 Flat Integration
 New Mode for Coulomb Integral
 Consistent 3/8+Simpson combinations
 Extension of core to zero
 LDM version in phi
 Fifth-order quadrature in outwin


            ---------
:ITE044: 44. ITERATION
            ---------

:NATO :    2 INDEPENDENT AND    4 TOTAL ATOMS IN UNITCELL
       SUBSTANCE: FeSe                                                        

       LATTICE                      = P   
:POT  : POTENTIAL OPTION EX_LDA EC_LDA VX_LDA VC_LDA
:LAT  : LATTICE CONSTANTS=  7.12881  7.12881 10.43450    1.571    1.571    1.571
:VOL  : UNIT CELL VOLUME =     530.28024
       MODE OF CALCULATION IS       = RELA
       NON-SPINPOLARIZED CALCULATION
:IFFT  : FFT-parameters:   60   60   80 Factor: 2.00


   CONVERGENCE PARAMETER FOR PSEUDOCHARGE: NCON=  9
   MAXIMAL VALUE OF RMT(JATOM)*ABSK(NKK) : RK  =25.91023


:VKCOUL :  VK-COUL convergence: 0.301E-06
       ATOMNUMBER=  1 Fe         VCOUL-ZERO =  0.17721E+00
:EFG001:                        EFG         =     1.02750   *10**21  V / m**2
                               V20  TOT/SRF=     0.88984    -0.10241
                               V22  TOT/SRF=     0.00000     0.00000
                               V22M TOT/SRF=     0.00000     0.00000
                               V21  TOT/SRF=     0.00000     0.00000
                               V21M TOT/SRF=     0.00000     0.00000

             -0.51375    0.00000    0.00000       -0.51375    0.00000    0.00000
              0.00000   -0.51375    0.00000        0.00000   -0.51375    0.00000
              0.00000    0.00000    1.02750        0.00000    0.00000    1.02750

         MAIN DIRECTIONS OF THE EFG   1.0000  0.0000  0.0000
                                      0.0000  1.0000  0.0000
                                      0.0000  0.0000  1.0000
:ANG001:  ANGLE WITH OLD X-AXIS =         0.0

:ETA001:                         ASYMM. ETA =     0.00000


       ATOMNUMBER=  2 Se         VCOUL-ZERO =  0.45554E-01
:EFG002:                        EFG         =    -5.61810   *10**21  V / m**2
                               V20  TOT/SRF=    -4.86541    -0.03320
                               V22  TOT/SRF=     0.00000     0.00000
                               V22M TOT/SRF=     0.00000     0.00000
                               V21  TOT/SRF=     0.00000     0.00000
                               V21M TOT/SRF=     0.00000     0.00000

              2.80905    0.00000    0.00000        2.80905    0.00000    0.00000
              0.00000    2.80905    0.00000        0.00000    2.80905    0.00000
              0.00000    0.00000   -5.61810        0.00000    0.00000   -5.61810

         MAIN DIRECTIONS OF THE EFG   1.0000  0.0000  0.0000
                                      0.0000  1.0000  0.0000
                                      0.0000  0.0000  1.0000
:ANG002:  ANGLE WITH OLD X-AXIS =         0.0

:ETA002:                         ASYMM. ETA =     0.00000


     HELLMANN-FEYNMAN-FORCE IN mRy/a.u. = |F|  Fx       Fy             Fz
:FHF001:   1.ATOM      0.000000000000      0.000000000000      0.000000000000      0.000000000000

     HELLMANN-FEYNMAN-FORCE IN mRy/a.u. = |F|  Fx       Fy             Fz
:FHF002:   2.ATOM   1806.817715248667      0.000000000000      0.000000000000   1806.817715248667

:FIT001: LUSE= 13 SIGMA OF V-XC FIT FOR ATOM  1  0.2675921E-02
:FIT001: LUSE= 13 SIGMA OF V-XC FIT FOR ATOM  1  0.2675921E-02
:FIT002: LUSE= 13 SIGMA OF V-XC FIT FOR ATOM  2  0.4848860E-03
:FIT002: LUSE= 13 SIGMA OF V-XC FIT FOR ATOM  2  0.4848860E-03
:DEN  : DENSITY INTEGRAL  =         -6214.15642971   (Ry)
       ELS_POTENTIAL_AT Z=0 and Z=0.5:  -0.82943   0.73122
       ELS_POTENTIAL_AT Y=0 and Y=0.5:   0.00000   0.00000
:VZERO:v0,v0c,v0x  -1.67422  -0.82943  -0.84479 v5,v5c,v5x   0.28854   0.73122  -0.44268
:VZERY:v0,v0c,v0x  -0.70344   0.00000  -0.70344 v5,v5c,v5x  -0.70344   0.00000  -0.70344
:VZERX:v0,v0c,v0x   0.12198   0.79535  -0.67338 v5,v5c,v5x   0.12198   0.79535  -0.67338

------- case.scf1 --------
:LMAX-WF:   10   Non-Spherical LMAX:   4

          ATOMIC SPHERE DEPENDENT PARAMETERS FOR ATOM  Fe        
:e__0001: OVERALL ENERGY PARAMETER IS    0.1826
          OVERALL BASIS SET ON ATOM IS LAPW
:E1_0001: E( 1)=    0.1826
             APW+lo
:E1_0001: E( 1)=   -3.5974   E(BOTTOM)=   -3.687   E(TOP)=   -3.508  1  2   134
             LOCAL ORBITAL
:E2_0001: E( 2)=    0.1952   E(BOTTOM)=   -0.156   E(TOP)=    0.546  0  1   130
             APW+lo
:E0_0001: E( 0)=    0.1826
             APW+lo

          ATOMIC SPHERE DEPENDENT PARAMETERS FOR ATOM  Se        
:e__0002: OVERALL ENERGY PARAMETER IS    0.1826
          OVERALL BASIS SET ON ATOM IS LAPW
:E2_0002: E( 2)=    0.1826
             APW+lo
:E2_0002: E( 2)=   -3.1494   E(BOTTOM)=   -3.194   E(TOP)=   -3.105  0  1   142
             LOCAL ORBITAL
:E0_0002: E( 0)=    0.5826
             APW+lo
:E0_0002: E( 0)=   -1.0200   E(BOTTOM)=   -1.641   E(TOP)= -200.000  3 -1   183
             LOCAL ORBITAL
:E1_0002: E( 1)=    0.1826
             APW+lo

       K=   0.04545   0.04545   0.07143            1
:RKM  : MATRIX SIZE   582LOs:  54  RKM= 7.97  WEIGHT= 8.00  PGR:    
       EIGENVALUES ARE:
:EIG00001:      -3.5881443   -3.5879212   -3.5792762   -3.5790531   -3.5682840
:EIG00006:      -3.5663789   -3.1400425   -3.1397448   -3.1389825   -3.1389515
:EIG00011:      -3.1383036   -3.1382923   -3.1382053   -3.1381996   -3.1371956
:EIG00016:      -3.1371658   -0.7067869   -0.6101873   -0.0446892    0.0210575
:EIG00021:       0.0288719    0.0327735    0.0951038    0.0953091    0.0991377
:EIG00026:       0.2512404    0.2750024    0.2962791    0.3029326    0.3081423
:EIG00031:       0.3389825    0.4876617    0.5266557    0.5313558    0.6281297
:EIG00036:       0.7049987    0.7869106    0.9098912    0.9408780    0.9476606
:EIG00041:       1.1993250    1.2736602    1.3083847    1.3285814    1.3605198
:EIG00046:       1.3656774    1.4079285    1.4362075    1.4689379    1.4922234
 
:EIG00051:       1.6421069    1.6596441    1.7165063    1.7537884    1.8579326
       ********************************************************

:KPT   :      NUMBER OF K-POINTS:    84

------- case.scf2 --------
:GMA  : POTENTIAL AND CHARGE CUT-OFF  12.00 Ry**.5




:POS001: at.nr.  -1 position = 0.25000 0.75000 0.00000  multiplicity =  2

       lmmax  8
       lm=   0 0  2 0 -3 2  4 0  4 4 -5 2  6 0  6 4




:POS002: at.nr.  -2 position = 0.25000 0.75000 0.00000  multiplicity =  2

       lmmax 10
       lm=   0 0  1 0  2 0  3 0  4 0  4 4  5 0  5 4  6 0  6 4
:FER gutzwiller fermi energy   0.43653
:EORB        -21.939480788
:SUM sum of gutz band energies       -102.626277207

:CHA001: total charge inside sphere   1 =    12.587591
:PCS001: partial charges sphere =  1 s,p,d,f,pz,pxy,,d-z2,d-xy,d-x2y2,d-xz,yz 
:QTL001: 0.3074 6.3160 5.9343 0.0243 2.0825 4.2335 0.0000 1.3357 1.2458 1.1011 2.2518 0.0000
:VZZ001: efg inside sphere   1 =     1.334028      up to r =   2.16000

:CHA002: total charge inside sphere   2 =    13.553154
:PCS002: partial charges sphere =  2 s,p,d,f,pz,pxy,,d-z2,d-xy,d-x2y2,d-xz,yz 
:QTL002: 1.3468 2.132010.0564 0.0147 0.7258 1.4062 0.0000 2.0103 2.0125 2.0105 4.0232 0.0000
:VZZ002: efg inside sphere   2 =    -5.309362      up to r =   2.05000

:CHA  : total charge inside unit cell =      60.000000

------- case.scfc --------

        1.ATOM      Fe                    5 CORE STATES
:1S 001: 1S                -512.339353185 Ry
:2S 001: 2S                 -59.282117814 Ry
:2PP001: 2P*                -51.083222922 Ry
:2P 001: 2P                 -50.168093679 Ry
:3S 001: 3S                  -6.041993502 Ry

        2.ATOM      Se                    7 CORE STATES
       CORE-FORCE in mRy/a.u. = |F|      Fx             Fy             Fz
:FCO002:   2.ATOM   1335.324949293497      0.000000000000      0.000000000000  -1335.324949293497

:1S 002: 1S                -916.440590055 Ry
:2S 002: 2S                -117.103895983 Ry
:2PP002: 2P*               -105.078557524 Ry
:2P 002: 2P                -102.015385339 Ry
:3S 002: 3S                 -14.839231496 Ry
:3PP002: 3P*                -10.726500454 Ry
:3P 002: 3P                 -10.294173713 Ry

------- case.scfm --------
:CINT001 Core Integral Atom   1   11.997209
:CINT002 Core Integral Atom   2   17.999403

       DENSITY AT NUCLEUS
        JATOM        VALENCE       SEMI-CORE          CORE           TOTAL
:RTO001:   1        6.786717        0.000000    14798.351321    14805.138038
:RTO002:   2       55.106332        0.000000    38924.535942    38979.642274
     
       CHARGES OF NEW CHARGE DENSITY
:NTO   : INTERSTITIAL CHARGE =     7.718422
:NPC   : PW Pseudocharge     =    14.212185
:NTO001: CHARGE SPHERE  1    =    24.584800
:NTO002: CHARGE SPHERE  2    =    31.552557

:NEC01: NUCLEAR AND ELECTRONIC CHARGE    120.00000   119.99313
     
       CHARGES OF OLD CHARGE DENSITY
:OTO   : INTERSTITIAL CHARGE =     7.704132
:OPC   : PW Pseudocharge     =    14.247060
:OTO001: CHARGE SPHERE  1    =    24.608635
:OTO002: CHARGE SPHERE  2    =    31.539299

:NEC02: NUCLEAR AND ELECTRONIC CHARGE    120.00000   120.00000
     
       CONVERGENCE TEST
:DTO001: DIFFERENCE IN SPHERE  1 =  0.0256434
:DTO002: DIFFERENCE IN SPHERE  2 =  0.0090655

:DIS  :  CHARGE DISTANCE       ( 0.0256434 for atom    1 spin 1)      0.0173544
 PW Mixed is          365
 
******************************************************
* MULTISECANT MIXING VER9 RELEASE 10.4.0              *
* Standard Mode with controls                        *
* Fixed density scale                                *
* Regularization       1.000E-04                     *
* Trust Upper Limit    5.000E+00                     *
* Max Number of Memory Steps    8                    *
******************************************************
 
:PWTMP   3.7368E+02  3.2249E+02  5.3028E+02
:PLANE:  PW TOTAL      3.7961 DISTAN   1.55E-02  4.09E-01 %
:CHARG:  CLM/ATOM    303.3461 DISTAN   2.25E-02  7.41E-03 %
 
Step History
        DMIX         DMIXT        Red     Pred      Trust     Lambda    MagRel    MagAbs     Beta
  1   3.5000E-02   3.5000E-02 -1.00E+00  1.00E+00 -1.00E+01  1.00E+00  3.50E-02  3.50E-02  1.00E+00
  2   1.5000E-01   1.5000E-01  4.27E-01  1.00E+00 -1.00E+01  1.00E+00  1.50E-01  2.15E-02  1.00E+00
  3   7.1250E-02   7.1250E-02 -1.00E+00  8.67E-01  3.00E+00  1.00E+00  1.71E-01  1.05E-02  1.00E+00
:JACOBIANS    1.038E-01   3.341E-01
  
:NORMS:  1/Froebius, Min, Max, Used   0.2739E+00  0.2718E+00  0.3750E+00  0.2917E+00
:INFO :  Number of Memory Steps    2 Skipping    0
:INFO :  SLambda=    1.5558842637  Max    1.5558842637
:PREDicted Charge, CTotal, PW Trust    1.294E-02   1.088E-02   9.023E-03
:PREDicted DMix, Beta, BLim   4.2908E-01  8.9282E-01  8.1133E-01

Eigenvalues, unscaled except for SY+YY
   #     SY Real        SY Imag          SS             YY         SY+YY Real      SY+YY Imag
   1   4.412287E-01   0.000000E+00   1.472839E-01   1.993038E+00   2.680414E+00   0.000000E+00
   2   4.432714E-03   0.000000E+00   2.745429E-03   6.962100E-03   1.298326E-02   0.000000E+00
 
:INFO :  Singular value  2.681E+00 Weight  1.000E+00 Projection  2.137E-05
:INFO :  Singular value  1.298E-02 Weight  9.998E-01 Projection -5.614E-01
:RANK :  ACTIVE   2.00/2  =  99.99 % ; YY RANK   2.00/2  =  99.96 %
 
:DLIM :  Beta Active  9.196E-01
:BLIM :  VZERO Control Off
:TRUST:  Step 1.91E+00  Charge 7.50E-02 (e) CTO  2.50E-01 (e) PW  3.50E-01 (e)
:DIRM :  MEMORY  2/8  SCALE   1.000 RED  0.78 PRED  0.87 NEXT  0.25 BETA  0.92
:TRAVE:  Charge 6.27E-03 (e) CTO  5.98E-03 (e) PW  1.06E-02 (e)
:DIRP :  |MSR1|= 1.937E-02 |PRATT|= 1.551E-02 ANGLE=  33.6 DEGREES
:DIRQ :  |MSR1|= 2.192E-02 |PRATT|= 4.495E-02 ANGLE=  23.5 DEGREES
:DIRT :  |MSR1|= 2.925E-02 |PRATT|= 4.755E-02 ANGLE=  34.0 DEGREES
:MIX  :   MSE1   REGULARIZATION:  1.99E-04 GREED: 0.17813  Newton 1.00  0.6151                
     
       CHARGES OF MIXED CHARGE DENSITY
:CTO   : INTERSTITIAL CHARGE =     7.710740
:CPC   : PW Pseudocharge     =    14.218502
:CTO001: CHARGE SPHERE  1    =    24.602214
:CTO002: CHARGE SPHERE  2    =    31.542416

:NEC03: NUCLEAR AND ELECTRONIC CHARGE    120.00000   120.00000

PW CHANGE     H    K    L      Current       Change    Residue
:PTO001:      0    0    0  4.13540624E-02 -4.139E-05 -2.035E-06
:PTO002:      0    0   -1  2.60917876E-02  3.678E-05 -2.724E-05
:PTO004:     -1    0   -1 -9.20117101E-02  4.760E-04  2.699E-04
:PTO005:      0    0   -2 -1.03999661E-02  1.455E-04  7.826E-05
:PTO006:     -1   -1    0 -2.18280098E-02  2.349E-04  6.054E-05
:PTO007:     -1   -1   -1  1.16044114E-02  7.093E-05 -9.696E-05
:PTO008:     -1    0   -2 -1.18036590E-02  1.718E-05 -5.202E-05
:PTO009:     -1   -1   -2  2.79683848E-02 -1.751E-04 -1.448E-04
:PTO010:     -2    0    0 -1.28398530E-02  1.141E-04  1.105E-04
:PTO011:      0    0   -3 -1.50080665E-03  3.817E-05  3.593E-05
:PTO012:     -2    0   -1 -1.18506587E-03 -6.849E-05 -1.194E-04
:PTO014:     -1    0   -3  9.38986679E-03 -1.647E-04 -1.570E-04

:ENE  : ********** TOTAL ENERGY IN Ry =       -14810.28526129

       TOTAL FORCE IN mRy/a.u. = |F|     Fx             Fy             Fz     with/without FOR in case.in2
:FOR001:   1.ATOM          0.000          0.000          0.000          0.000 partial forces
:FOR002:   2.ATOM        471.493          0.000          0.000        471.493 partial forces
       TOTAL FORCE WITH RESPECT TO GLOBAL CARTESIAN COORDINATES:
:FCA001:   1.ATOM                         0.000          0.000          0.000 partial forces
:FCA002:   2.ATOM                         0.000          0.000        471.493 partial forces
       TOTAL FORCE WITH RESPECT TO THE GLOBAL COORDINATE SYSTEM:
:FGL001:   1.ATOM                 0.000000000     0.000000000     0.000000000 partial forces
:FGL002:   2.ATOM                 0.000000000     0.000000000   471.492765955 partial forces

------- case.scf0 --------
 Flat Integration
 New Mode for Coulomb Integral
 Consistent 3/8+Simpson combinations
 Extension of core to zero
 LDM version in phi
 Fifth-order quadrature in outwin


            ---------
:ITE045: 45. ITERATION
            ---------

:NATO :    2 INDEPENDENT AND    4 TOTAL ATOMS IN UNITCELL
       SUBSTANCE: FeSe                                                        

       LATTICE                      = P   
:POT  : POTENTIAL OPTION EX_LDA EC_LDA VX_LDA VC_LDA
:LAT  : LATTICE CONSTANTS=  7.12881  7.12881 10.43450    1.571    1.571    1.571
:VOL  : UNIT CELL VOLUME =     530.28024
       MODE OF CALCULATION IS       = RELA
       NON-SPINPOLARIZED CALCULATION
:IFFT  : FFT-parameters:   60   60   80 Factor: 2.00


   CONVERGENCE PARAMETER FOR PSEUDOCHARGE: NCON=  9
   MAXIMAL VALUE OF RMT(JATOM)*ABSK(NKK) : RK  =25.91023


:VKCOUL :  VK-COUL convergence: 0.300E-06
       ATOMNUMBER=  1 Fe         VCOUL-ZERO =  0.17516E+00
:EFG001:                        EFG         =     1.08376   *10**21  V / m**2
                               V20  TOT/SRF=     0.93857    -0.10131
                               V22  TOT/SRF=     0.00000     0.00000
                               V22M TOT/SRF=     0.00000     0.00000
                               V21  TOT/SRF=     0.00000     0.00000
                               V21M TOT/SRF=     0.00000     0.00000

             -0.54188    0.00000    0.00000       -0.54188    0.00000    0.00000
              0.00000   -0.54188    0.00000        0.00000   -0.54188    0.00000
              0.00000    0.00000    1.08376        0.00000    0.00000    1.08376

         MAIN DIRECTIONS OF THE EFG   1.0000  0.0000  0.0000
                                      0.0000  1.0000  0.0000
                                      0.0000  0.0000  1.0000
:ANG001:  ANGLE WITH OLD X-AXIS =         0.0

:ETA001:                         ASYMM. ETA =     0.00000


       ATOMNUMBER=  2 Se         VCOUL-ZERO =  0.46089E-01
:EFG002:                        EFG         =    -5.43942   *10**21  V / m**2
                               V20  TOT/SRF=    -4.71068    -0.03386
                               V22  TOT/SRF=     0.00000     0.00000
                               V22M TOT/SRF=     0.00000     0.00000
                               V21  TOT/SRF=     0.00000     0.00000
                               V21M TOT/SRF=     0.00000     0.00000

              2.71971    0.00000    0.00000        2.71971    0.00000    0.00000
              0.00000    2.71971    0.00000        0.00000    2.71971    0.00000
              0.00000    0.00000   -5.43942        0.00000    0.00000   -5.43942

         MAIN DIRECTIONS OF THE EFG   1.0000  0.0000  0.0000
                                      0.0000  1.0000  0.0000
                                      0.0000  0.0000  1.0000
:ANG002:  ANGLE WITH OLD X-AXIS =         0.0

:ETA002:                         ASYMM. ETA =     0.00000


     HELLMANN-FEYNMAN-FORCE IN mRy/a.u. = |F|  Fx       Fy             Fz
:FHF001:   1.ATOM      0.000000000000      0.000000000000      0.000000000000      0.000000000000

     HELLMANN-FEYNMAN-FORCE IN mRy/a.u. = |F|  Fx       Fy             Fz
:FHF002:   2.ATOM   1758.766124605261      0.000000000000      0.000000000000   1758.766124605261

:FIT001: LUSE= 13 SIGMA OF V-XC FIT FOR ATOM  1  0.2688496E-02
:FIT001: LUSE= 13 SIGMA OF V-XC FIT FOR ATOM  1  0.2688496E-02
:FIT002: LUSE= 13 SIGMA OF V-XC FIT FOR ATOM  2  0.4789229E-03
:FIT002: LUSE= 13 SIGMA OF V-XC FIT FOR ATOM  2  0.4789229E-03
:DEN  : DENSITY INTEGRAL  =         -6214.32592851   (Ry)
       ELS_POTENTIAL_AT Z=0 and Z=0.5:  -0.83375   0.73271
       ELS_POTENTIAL_AT Y=0 and Y=0.5:   0.00000   0.00000
:VZERO:v0,v0c,v0x  -1.67928  -0.83375  -0.84553 v5,v5c,v5x   0.28958   0.73271  -0.44313
:VZERY:v0,v0c,v0x  -0.70357   0.00000  -0.70357 v5,v5c,v5x  -0.70357   0.00000  -0.70357
:VZERX:v0,v0c,v0x   0.12166   0.79538  -0.67372 v5,v5c,v5x   0.12166   0.79538  -0.67372

------- case.scf1 --------
:LMAX-WF:   10   Non-Spherical LMAX:   4

          ATOMIC SPHERE DEPENDENT PARAMETERS FOR ATOM  Fe        
:e__0001: OVERALL ENERGY PARAMETER IS    0.1826
          OVERALL BASIS SET ON ATOM IS LAPW
:E1_0001: E( 1)=    0.1826
             APW+lo
:E1_0001: E( 1)=   -3.5972   E(BOTTOM)=   -3.687   E(TOP)=   -3.507  1  2   135
             LOCAL ORBITAL
:E2_0001: E( 2)=    0.1949   E(BOTTOM)=   -0.157   E(TOP)=    0.547  0  1   132
             APW+lo
:E0_0001: E( 0)=    0.1826
             APW+lo

          ATOMIC SPHERE DEPENDENT PARAMETERS FOR ATOM  Se        
:e__0002: OVERALL ENERGY PARAMETER IS    0.1826
          OVERALL BASIS SET ON ATOM IS LAPW
:E2_0002: E( 2)=    0.1826
             APW+lo
:E2_0002: E( 2)=   -3.1487   E(BOTTOM)=   -3.193   E(TOP)=   -3.104  0  1   144
             LOCAL ORBITAL
:E0_0002: E( 0)=    0.5826
             APW+lo
:E0_0002: E( 0)=   -1.0200   E(BOTTOM)=   -1.640   E(TOP)= -200.000  3 -1   187
             LOCAL ORBITAL
:E1_0002: E( 1)=    0.1826
             APW+lo

       K=   0.04545   0.04545   0.07143            1
:RKM  : MATRIX SIZE   582LOs:  54  RKM= 7.97  WEIGHT= 8.00  PGR:    
       EIGENVALUES ARE:
:EIG00001:      -3.5877586   -3.5875350   -3.5788721   -3.5786485   -3.5684464
:EIG00006:      -3.5665377   -3.1393368   -3.1390392   -3.1382634   -3.1382322
:EIG00011:      -3.1376305   -3.1376193   -3.1375322   -3.1375265   -3.1365333
:EIG00016:      -3.1365036   -0.7066457   -0.6098026   -0.0447656    0.0209056
:EIG00021:       0.0285147    0.0323983    0.0948969    0.0949175    0.0989589
:EIG00026:       0.2507206    0.2750148    0.2960747    0.3026755    0.3078288
:EIG00031:       0.3390667    0.4880150    0.5269564    0.5316614    0.6281773
:EIG00036:       0.7051216    0.7864735    0.9094403    0.9407899    0.9475623
:EIG00041:       1.1994915    1.2735530    1.3078908    1.3287585    1.3606135
:EIG00046:       1.3657440    1.4079559    1.4362523    1.4692358    1.4922981
 
:EIG00051:       1.6423523    1.6600280    1.7162466    1.7536139    1.8581673
       ********************************************************

:KPT   :      NUMBER OF K-POINTS:    84

------- case.scf2 --------
:GMA  : POTENTIAL AND CHARGE CUT-OFF  12.00 Ry**.5




:POS001: at.nr.  -1 position = 0.25000 0.75000 0.00000  multiplicity =  2

       lmmax  8
       lm=   0 0  2 0 -3 2  4 0  4 4 -5 2  6 0  6 4




:POS002: at.nr.  -2 position = 0.25000 0.75000 0.00000  multiplicity =  2

       lmmax 10
       lm=   0 0  1 0  2 0  3 0  4 0  4 4  5 0  5 4  6 0  6 4
:FER gutzwiller fermi energy   0.43649
:EORB        -21.941685816
:SUM sum of gutz band energies       -102.611405869

:CHA001: total charge inside sphere   1 =    12.588793
:PCS001: partial charges sphere =  1 s,p,d,f,pz,pxy,,d-z2,d-xy,d-x2y2,d-xz,yz 
:QTL001: 0.3080 6.3166 5.9342 0.0243 2.0826 4.2341 0.0000 1.3363 1.2451 1.0991 2.2536 0.0000
:VZZ001: efg inside sphere   1 =     1.223974      up to r =   2.16000

:CHA002: total charge inside sphere   2 =    13.550337
:PCS002: partial charges sphere =  2 s,p,d,f,pz,pxy,,d-z2,d-xy,d-x2y2,d-xz,yz 
:QTL002: 1.3465 2.129210.0566 0.0147 0.7248 1.4044 0.0000 2.0103 2.0126 2.0105 4.0233 0.0000
:VZZ002: efg inside sphere   2 =    -5.311675      up to r =   2.05000

:CHA  : total charge inside unit cell =      60.000000

------- case.scfc --------

        1.ATOM      Fe                    5 CORE STATES
:1S 001: 1S                -512.330101860 Ry
:2S 001: 2S                 -59.275557295 Ry
:2PP001: 2P*                -51.076219734 Ry
:2P 001: 2P                 -50.161130394 Ry
:3S 001: 3S                  -6.041584554 Ry

        2.ATOM      Se                    7 CORE STATES
       CORE-FORCE in mRy/a.u. = |F|      Fx             Fy             Fz
:FCO002:   2.ATOM   1303.784498698754      0.000000000000      0.000000000000  -1303.784498698754

:1S 002: 1S                -916.440794011 Ry
:2S 002: 2S                -117.103980327 Ry
:2PP002: 2P*               -105.078676166 Ry
:2P 002: 2P                -102.015499110 Ry
:3S 002: 3S                 -14.838544679 Ry
:3PP002: 3P*                -10.725812878 Ry
:3P 002: 3P                 -10.293470515 Ry

------- case.scfm --------
:CINT001 Core Integral Atom   1   11.997204
:CINT002 Core Integral Atom   2   17.999403

       DENSITY AT NUCLEUS
        JATOM        VALENCE       SEMI-CORE          CORE           TOTAL
:RTO001:   1        6.805877        0.000000    14798.220608    14805.026484
:RTO002:   2       55.088043        0.000000    38924.558658    38979.646701
     
       CHARGES OF NEW CHARGE DENSITY
:NTO   : INTERSTITIAL CHARGE =     7.721632
:NPC   : PW Pseudocharge     =    14.214207
:NTO001: CHARGE SPHERE  1    =    24.585997
:NTO002: CHARGE SPHERE  2    =    31.549740

:NEC01: NUCLEAR AND ELECTRONIC CHARGE    120.00000   119.99310
     
       CHARGES OF OLD CHARGE DENSITY
:OTO   : INTERSTITIAL CHARGE =     7.710740
:OPC   : PW Pseudocharge     =    14.218502
:OTO001: CHARGE SPHERE  1    =    24.602214
:OTO002: CHARGE SPHERE  2    =    31.542416

:NEC02: NUCLEAR AND ELECTRONIC CHARGE    120.00000   120.00000
     
       CONVERGENCE TEST
:DTO001: DIFFERENCE IN SPHERE  1 =  0.0125857
:DTO002: DIFFERENCE IN SPHERE  2 =  0.0048895

:DIS  :  CHARGE DISTANCE       ( 0.0125857 for atom    1 spin 1)      0.0087376
 PW Mixed is          365
 
******************************************************
* MULTISECANT MIXING VER9 RELEASE 10.4.0              *
* Standard Mode with controls                        *
* Fixed density scale                                *
* Regularization       1.000E-04                     *
* Trust Upper Limit    5.000E+00                     *
* Max Number of Memory Steps    8                    *
******************************************************
 
:PWTMP   3.7368E+02  3.2249E+02  5.3028E+02
:PLANE:  PW TOTAL      3.7847 DISTAN   7.39E-03  1.95E-01 %
:CHARG:  CLM/ATOM    303.3477 DISTAN   1.11E-02  3.67E-03 %
 
Step History
        DMIX         DMIXT        Red     Pred      Trust     Lambda    MagRel    MagAbs     Beta
  1   3.5000E-02   3.5000E-02 -1.00E+00  1.00E+00 -1.00E+01  1.00E+00  3.50E-02  3.50E-02  1.00E+00
  2   1.5000E-01   1.5000E-01  4.27E-01  1.00E+00 -1.00E+01  1.00E+00  1.50E-01  2.15E-02  1.00E+00
  3   7.1250E-02   7.1250E-02  7.78E-01  8.67E-01  3.00E+00  1.56E+00  1.71E-01  1.05E-02  1.00E+00
  4   1.7813E-01   1.7813E-01 -1.00E+00  2.55E-01  1.91E+00  1.00E+00  6.15E-01  2.92E-02  9.20E-01
:JACOBIANS    1.569E-01   5.927E-01
  
:NORMS:  1/Froebius, Min, Max, Used   0.5968E+00  0.3512E+00  0.7635E+00  0.7635E+00
:INFO :  Number of Memory Steps    3 Skipping    0
:INFO :  SLambda=    1.8820551590  Max    1.8820551590
:PREDicted Charge, CTotal, PW Trust    1.324E-02   1.310E-02   1.163E-02
:PREDicted DMix, Beta, BLim   1.8199E-01  1.2576E+00  7.1827E-01

Eigenvalues, unscaled except for SY+YY
   #     SY Real        SY Imag          SS             YY         SY+YY Real      SY+YY Imag
   1   1.006683E+00   0.000000E+00   9.629278E-01   1.651734E+00   4.546119E-04   0.000000E+00
   2   3.942781E-01   0.000000E+00   1.056612E-01   1.347902E+00   2.161134E+00   0.000000E+00
   3   5.351685E-05   0.000000E+00   1.256101E-05   3.645518E-04   3.475199E+00   0.000000E+00
 
:INFO :  Singular value  3.681E+00 Weight  1.000E+00 Projection  7.225E-03
:INFO :  Singular value  2.040E+00 Weight  1.000E+00 Projection -1.672E-02
:INFO :  Singular value  4.546E-04 Weight  8.834E-01 Projection  3.171E-02
:RANK :  ACTIVE   2.88/3  =  96.11 % ; YY RANK   2.83/3  =  94.32 %
 
:BLIM :  VZERO Control Off
:TRUST:  Step 2.55E+00  Charge 7.50E-02 (e) CTO  2.50E-01 (e) PW  3.50E-01 (e)
:DIRM :  MEMORY  3/8  SCALE   1.000 RED  0.49 PRED  0.25 NEXT  0.33 
:TRAVE:  Charge 6.13E-03 (e) CTO  6.13E-03 (e) PW  6.29E-03 (e)
:DIRP :  |MSR1|= 3.066E-03 |PRATT|= 7.385E-03 ANGLE=  69.7 DEGREES
:DIRQ :  |MSR1|= 9.527E-03 |PRATT|= 2.229E-02 ANGLE=  48.5 DEGREES
:DIRT :  |MSR1|= 1.001E-02 |PRATT|= 2.348E-02 ANGLE=  50.8 DEGREES
:MIX  :   MSE1   REGULARIZATION:  1.65E-04 GREED: 0.15599  Newton 1.00  0.4262                
     
       CHARGES OF MIXED CHARGE DENSITY
:CTO   : INTERSTITIAL CHARGE =     7.717030
:CPC   : PW Pseudocharge     =    14.215416
:CTO001: CHARGE SPHERE  1    =    24.596229
:CTO002: CHARGE SPHERE  2    =    31.545256

:NEC03: NUCLEAR AND ELECTRONIC CHARGE    120.00000   120.00000

PW CHANGE     H    K    L      Current       Change    Residue
:PTO001:      0    0    0  4.13601050E-02  6.043E-06  4.938E-05
:PTO002:      0    0   -1  2.60902279E-02 -1.560E-06 -1.271E-05
:PTO004:     -1    0   -1 -9.19717216E-02  3.999E-05 -1.167E-04
:PTO005:      0    0   -2 -1.03892230E-02  1.074E-05 -3.864E-05
:PTO006:     -1   -1    0 -2.18318136E-02 -3.804E-06 -1.127E-04
:PTO007:     -1   -1   -1  1.15647716E-02 -3.964E-05 -1.226E-04
:PTO008:     -1    0   -2 -1.18244737E-02 -2.081E-05 -5.169E-05
:PTO009:     -1   -1   -2  2.79426897E-02 -2.570E-05  6.370E-06
:PTO010:     -2    0    0 -1.28155964E-02  2.426E-05  1.074E-05
:PTO011:      0    0   -3 -1.49623665E-03  4.570E-06 -5.070E-06
:PTO012:     -2    0   -1 -1.20869369E-03 -2.363E-05 -3.103E-05
:PTO014:     -1    0   -3  9.36474068E-03 -2.513E-05  4.752E-06

:ENE  : ********** TOTAL ENERGY IN Ry =       -14810.28490636

       TOTAL FORCE IN mRy/a.u. = |F|     Fx             Fy             Fz     with/without FOR in case.in2
:FOR001:   1.ATOM          0.000          0.000          0.000          0.000 partial forces
:FOR002:   2.ATOM        454.982          0.000          0.000        454.982 partial forces
       TOTAL FORCE WITH RESPECT TO GLOBAL CARTESIAN COORDINATES:
:FCA001:   1.ATOM                         0.000          0.000          0.000 partial forces
:FCA002:   2.ATOM                         0.000          0.000        454.982 partial forces
       TOTAL FORCE WITH RESPECT TO THE GLOBAL COORDINATE SYSTEM:
:FGL001:   1.ATOM                 0.000000000     0.000000000     0.000000000 partial forces
:FGL002:   2.ATOM                 0.000000000     0.000000000   454.981625907 partial forces

------- case.scf0 --------
 Flat Integration
 New Mode for Coulomb Integral
 Consistent 3/8+Simpson combinations
 Extension of core to zero
 LDM version in phi
 Fifth-order quadrature in outwin


            ---------
:ITE046: 46. ITERATION
            ---------

:NATO :    2 INDEPENDENT AND    4 TOTAL ATOMS IN UNITCELL
       SUBSTANCE: FeSe                                                        

       LATTICE                      = P   
:POT  : POTENTIAL OPTION EX_LDA EC_LDA VX_LDA VC_LDA
:LAT  : LATTICE CONSTANTS=  7.12881  7.12881 10.43450    1.571    1.571    1.571
:VOL  : UNIT CELL VOLUME =     530.28024
       MODE OF CALCULATION IS       = RELA
       NON-SPINPOLARIZED CALCULATION
:IFFT  : FFT-parameters:   60   60   80 Factor: 2.00


   CONVERGENCE PARAMETER FOR PSEUDOCHARGE: NCON=  9
   MAXIMAL VALUE OF RMT(JATOM)*ABSK(NKK) : RK  =25.91023


:VKCOUL :  VK-COUL convergence: 0.300E-06
       ATOMNUMBER=  1 Fe         VCOUL-ZERO =  0.17318E+00
:EFG001:                        EFG         =     1.10462   *10**21  V / m**2
                               V20  TOT/SRF=     0.95663    -0.10177
                               V22  TOT/SRF=     0.00000     0.00000
                               V22M TOT/SRF=     0.00000     0.00000
                               V21  TOT/SRF=     0.00000     0.00000
                               V21M TOT/SRF=     0.00000     0.00000

             -0.55231    0.00000    0.00000       -0.55231    0.00000    0.00000
              0.00000   -0.55231    0.00000        0.00000   -0.55231    0.00000
              0.00000    0.00000    1.10462        0.00000    0.00000    1.10462

         MAIN DIRECTIONS OF THE EFG   1.0000  0.0000  0.0000
                                      0.0000  1.0000  0.0000
                                      0.0000  0.0000  1.0000
:ANG001:  ANGLE WITH OLD X-AXIS =         0.0

:ETA001:                         ASYMM. ETA =     0.00000


       ATOMNUMBER=  2 Se         VCOUL-ZERO =  0.46765E-01
:EFG002:                        EFG         =    -5.36296   *10**21  V / m**2
                               V20  TOT/SRF=    -4.64446    -0.03434
                               V22  TOT/SRF=     0.00000     0.00000
                               V22M TOT/SRF=     0.00000     0.00000
                               V21  TOT/SRF=     0.00000     0.00000
                               V21M TOT/SRF=     0.00000     0.00000

              2.68148    0.00000    0.00000        2.68148    0.00000    0.00000
              0.00000    2.68148    0.00000        0.00000    2.68148    0.00000
              0.00000    0.00000   -5.36296        0.00000    0.00000   -5.36296

         MAIN DIRECTIONS OF THE EFG   1.0000  0.0000  0.0000
                                      0.0000  1.0000  0.0000
                                      0.0000  0.0000  1.0000
:ANG002:  ANGLE WITH OLD X-AXIS =         0.0

:ETA002:                         ASYMM. ETA =     0.00000


     HELLMANN-FEYNMAN-FORCE IN mRy/a.u. = |F|  Fx       Fy             Fz
:FHF001:   1.ATOM      0.000000000000      0.000000000000      0.000000000000      0.000000000000

     HELLMANN-FEYNMAN-FORCE IN mRy/a.u. = |F|  Fx       Fy             Fz
:FHF002:   2.ATOM   1756.569413392635      0.000000000000      0.000000000000   1756.569413392635

:FIT001: LUSE= 13 SIGMA OF V-XC FIT FOR ATOM  1  0.2694956E-02
:FIT001: LUSE= 13 SIGMA OF V-XC FIT FOR ATOM  1  0.2694956E-02
:FIT002: LUSE= 13 SIGMA OF V-XC FIT FOR ATOM  2  0.4750317E-03
:FIT002: LUSE= 13 SIGMA OF V-XC FIT FOR ATOM  2  0.4750317E-03
:DEN  : DENSITY INTEGRAL  =         -6214.23790703   (Ry)
       ELS_POTENTIAL_AT Z=0 and Z=0.5:  -0.83724   0.73464
       ELS_POTENTIAL_AT Y=0 and Y=0.5:   0.00000   0.00000
:VZERO:v0,v0c,v0x  -1.68290  -0.83724  -0.84566 v5,v5c,v5x   0.29117   0.73464  -0.44346
:VZERY:v0,v0c,v0x  -0.70372   0.00000  -0.70372 v5,v5c,v5x  -0.70372   0.00000  -0.70372
:VZERX:v0,v0c,v0x   0.12177   0.79571  -0.67394 v5,v5c,v5x   0.12177   0.79571  -0.67394

------- case.scf1 --------
:LMAX-WF:   10   Non-Spherical LMAX:   4

          ATOMIC SPHERE DEPENDENT PARAMETERS FOR ATOM  Fe        
:e__0001: OVERALL ENERGY PARAMETER IS    0.1826
          OVERALL BASIS SET ON ATOM IS LAPW
:E1_0001: E( 1)=    0.1826
             APW+lo
:E1_0001: E( 1)=   -3.6013   E(BOTTOM)=   -3.691   E(TOP)=   -3.511  1  2   139
             LOCAL ORBITAL
:E2_0001: E( 2)=    0.1911   E(BOTTOM)=   -0.161   E(TOP)=    0.543  0  1   132
             APW+lo
:E0_0001: E( 0)=    0.1826
             APW+lo

          ATOMIC SPHERE DEPENDENT PARAMETERS FOR ATOM  Se        
:e__0002: OVERALL ENERGY PARAMETER IS    0.1826
          OVERALL BASIS SET ON ATOM IS LAPW
:E2_0002: E( 2)=    0.1826
             APW+lo
:E2_0002: E( 2)=   -3.1473   E(BOTTOM)=   -3.192   E(TOP)=   -3.103  0  1   143
             LOCAL ORBITAL
:E0_0002: E( 0)=    0.5826
             APW+lo
:E0_0002: E( 0)=   -1.0200   E(BOTTOM)=   -1.639   E(TOP)= -200.000  3 -1   181
             LOCAL ORBITAL
:E1_0002: E( 1)=    0.1826
             APW+lo

       K=   0.04545   0.04545   0.07143            1
:RKM  : MATRIX SIZE   582LOs:  54  RKM= 7.97  WEIGHT= 8.00  PGR:    
       EIGENVALUES ARE:
:EIG00001:      -3.5917101   -3.5914868   -3.5828354   -3.5826121   -3.5726146
:EIG00006:      -3.5707076   -3.1379170   -3.1376229   -3.1368342   -3.1368029
:EIG00011:      -3.1362233   -3.1362121   -3.1361265   -3.1361207   -3.1351248
:EIG00016:      -3.1350955   -0.7065596   -0.6094610   -0.0453767    0.0193365
:EIG00021:       0.0266383    0.0304866    0.0915999    0.0939090    0.0979229
:EIG00026:       0.2473392    0.2713466    0.2936957    0.2994411    0.3050275
:EIG00031:       0.3356379    0.4876904    0.5257792    0.5303561    0.6282090
:EIG00036:       0.7038540    0.7853033    0.9089523    0.9406098    0.9473728
:EIG00041:       1.1994357    1.2731045    1.3070747    1.3288654    1.3606939
:EIG00046:       1.3658050    1.4076179    1.4361022    1.4694966    1.4924200
 
:EIG00051:       1.6425235    1.6603948    1.7159119    1.7534944    1.8585353
       ********************************************************

:KPT   :      NUMBER OF K-POINTS:    84

------- case.scf2 --------
:GMA  : POTENTIAL AND CHARGE CUT-OFF  12.00 Ry**.5




:POS001: at.nr.  -1 position = 0.25000 0.75000 0.00000  multiplicity =  2

       lmmax  8
       lm=   0 0  2 0 -3 2  4 0  4 4 -5 2  6 0  6 4




:POS002: at.nr.  -2 position = 0.25000 0.75000 0.00000  multiplicity =  2

       lmmax 10
       lm=   0 0  1 0  2 0  3 0  4 0  4 4  5 0  5 4  6 0  6 4
:FER gutzwiller fermi energy   0.43612
:EORB        -21.983703189
:SUM sum of gutz band energies       -102.632742507

:CHA001: total charge inside sphere   1 =    12.596111
:PCS001: partial charges sphere =  1 s,p,d,f,pz,pxy,,d-z2,d-xy,d-x2y2,d-xz,yz 
:QTL001: 0.3090 6.3175 5.9397 0.0243 2.0828 4.2347 0.0000 1.3371 1.2454 1.0994 2.2578 0.0000
:VZZ001: efg inside sphere   1 =     1.156725      up to r =   2.16000

:CHA002: total charge inside sphere   2 =    13.545693
:PCS002: partial charges sphere =  2 s,p,d,f,pz,pxy,,d-z2,d-xy,d-x2y2,d-xz,yz 
:QTL002: 1.3462 2.125110.0564 0.0147 0.7232 1.4019 0.0000 2.0102 2.0125 2.0104 4.0233 0.0000
:VZZ002: efg inside sphere   2 =    -5.247086      up to r =   2.05000

:CHA  : total charge inside unit cell =      60.000000

------- case.scfc --------

        1.ATOM      Fe                    5 CORE STATES
:1S 001: 1S                -512.332415561 Ry
:2S 001: 2S                 -59.278716917 Ry
:2PP001: 2P*                -51.079254952 Ry
:2P 001: 2P                 -50.164176573 Ry
:3S 001: 3S                  -6.045674260 Ry

        2.ATOM      Se                    7 CORE STATES
       CORE-FORCE in mRy/a.u. = |F|      Fx             Fy             Fz
:FCO002:   2.ATOM   1299.581904059904      0.000000000000      0.000000000000  -1299.581904059904

:1S 002: 1S                -916.439379098 Ry
:2S 002: 2S                -117.102649084 Ry
:2PP002: 2P*               -105.077337066 Ry
:2P 002: 2P                -102.014160995 Ry
:3S 002: 3S                 -14.837101624 Ry
:3PP002: 3P*                -10.724372059 Ry
:3P 002: 3P                 -10.292028215 Ry

------- case.scfm --------
:CINT001 Core Integral Atom   1   11.997206
:CINT002 Core Integral Atom   2   17.999403

       DENSITY AT NUCLEUS
        JATOM        VALENCE       SEMI-CORE          CORE           TOTAL
:RTO001:   1        6.828541        0.000000    14798.204558    14805.033098
:RTO002:   2       55.065109        0.000000    38924.559632    38979.624740
     
       CHARGES OF NEW CHARGE DENSITY
:NTO   : INTERSTITIAL CHARGE =     7.716334
:NPC   : PW Pseudocharge     =    14.206761
:NTO001: CHARGE SPHERE  1    =    24.593318
:NTO002: CHARGE SPHERE  2    =    31.545096

:NEC01: NUCLEAR AND ELECTRONIC CHARGE    120.00000   119.99316
     
       CHARGES OF OLD CHARGE DENSITY
:OTO   : INTERSTITIAL CHARGE =     7.717030
:OPC   : PW Pseudocharge     =    14.215416
:OTO001: CHARGE SPHERE  1    =    24.596229
:OTO002: CHARGE SPHERE  2    =    31.545256

:NEC02: NUCLEAR AND ELECTRONIC CHARGE    120.00000   120.00000
     
       CONVERGENCE TEST
:DTO001: DIFFERENCE IN SPHERE  1 =  0.0027880
:DTO002: DIFFERENCE IN SPHERE  2 =  0.0006838

:DIS  :  CHARGE DISTANCE       ( 0.0027880 for atom    1 spin 1)      0.0017359
 PW Mixed is          365
 
******************************************************
* MULTISECANT MIXING VER9 RELEASE 10.4.0              *
* Standard Mode with controls                        *
* Fixed density scale                                *
* Regularization       1.000E-04                     *
* Trust Upper Limit    5.000E+00                     *
* Max Number of Memory Steps    8                    *
******************************************************
 
:PWTMP   3.7368E+02  3.2249E+02  5.3028E+02
:PLANE:  PW TOTAL      3.7840 DISTAN   3.65E-03  9.64E-02 %
:CHARG:  CLM/ATOM    303.3483 DISTAN   3.22E-03  1.06E-03 %
 
Step History
        DMIX         DMIXT        Red     Pred      Trust     Lambda    MagRel    MagAbs     Beta
  1   3.5000E-02   3.5000E-02 -1.00E+00  1.00E+00 -1.00E+01  1.00E+00  3.50E-02  3.50E-02  1.00E+00
  2   1.5000E-01   1.5000E-01  4.27E-01  1.00E+00 -1.00E+01  1.00E+00  1.50E-01  2.15E-02  1.00E+00
  3   7.1250E-02   7.1250E-02  7.78E-01  8.67E-01  3.00E+00  1.56E+00  1.71E-01  1.05E-02  1.00E+00
  4   1.7813E-01   1.7813E-01  4.94E-01  2.55E-01  1.91E+00  1.88E+00  6.15E-01  2.92E-02  9.20E-01
  5   1.5599E-01   1.5599E-01 -1.00E+00  3.29E-01  2.55E+00  1.00E+00  4.26E-01  1.00E-02  1.00E+00
:JACOBIANS    2.713E-01   9.139E-01
  
:NORMS:  1/Froebius, Min, Max, Used   0.6034E+00  0.4261E+00  0.7632E+00  0.6645E+00
:INFO :  Number of Memory Steps    4 Skipping    0
:INFO :  SLambda=    1.8193389353  Max    1.8193389353
:PREDicted Charge, CTotal, PW Trust    9.020E-03   1.184E-02   7.023E-03
:PREDicted DMix, Beta, BLim   5.6243E-01  1.4378E+00  2.5735E+00

Eigenvalues, unscaled except for SY+YY
   #     SY Real        SY Imag          SS             YY         SY+YY Real      SY+YY Imag
   1   1.365205E+00   0.000000E+00   1.337039E+00   3.027701E+00   5.392401E+00   0.000000E+00
   2   4.101084E-01   0.000000E+00   1.179028E-01   9.688759E-01   1.833839E+00   0.000000E+00
   3   1.714693E-03   0.000000E+00   1.188045E-03   3.189368E-03   3.036192E-04   0.000000E+00
   4   4.470179E-05   0.000000E+00   7.485462E-06   2.335667E-04   6.554641E-03   0.000000E+00
 
:INFO :  Singular value  5.515E+00 Weight  1.000E+00 Projection  1.466E-03
:INFO :  Singular value  1.793E+00 Weight  1.000E+00 Projection -2.758E-03
:INFO :  Singular value  6.581E-03 Weight  9.979E-01 Projection  1.120E-01
:INFO :  Singular value  3.024E-04 Weight  4.993E-01 Projection -6.953E-02
:RANK :  ACTIVE   3.50/4  =  87.43 % ; YY RANK   3.36/4  =  84.10 %
 
:BLIM :  VZERO Control Off
:TRUST:  Step 3.39E+00  Charge 6.00E-02 (e) CTO  2.00E-01 (e) PW  2.80E-01 (e)
:DIRM :  MEMORY  4/8  SCALE   1.000 RED  0.32 PRED  0.33 NEXT  0.49 
:TRAVE:  Charge 4.45E-03 (e) CTO  5.49E-03 (e) PW  5.34E-03 (e)
:DIRP :  |MSR1|= 3.073E-03 |PRATT|= 3.649E-03 ANGLE=  10.7 DEGREES
:DIRQ :  |MSR1|= 5.332E-03 |PRATT|= 6.435E-03 ANGLE=  28.8 DEGREES
:DIRT :  |MSR1|= 6.154E-03 |PRATT|= 7.398E-03 ANGLE=  25.5 DEGREES
:MIX  :   MSE1   REGULARIZATION:  3.03E-04 GREED: 0.35000  Newton 1.00  0.8319                
     
       CHARGES OF MIXED CHARGE DENSITY
:CTO   : INTERSTITIAL CHARGE =     7.721875
:CPC   : PW Pseudocharge     =    14.217771
:CTO001: CHARGE SPHERE  1    =    24.593456
:CTO002: CHARGE SPHERE  2    =    31.545606

:NEC03: NUCLEAR AND ELECTRONIC CHARGE    120.00000   120.00000

PW CHANGE     H    K    L      Current       Change    Residue
:PTO001:      0    0    0  4.13736835E-02  1.358E-05  1.900E-05
:PTO002:      0    0   -1  2.60961216E-02  5.894E-06  1.860E-05
:PTO004:     -1    0   -1 -9.20092075E-02 -3.749E-05 -3.880E-05
:PTO005:      0    0   -2 -1.04071333E-02 -1.791E-05 -1.780E-05
:PTO006:     -1   -1    0 -2.18810563E-02 -4.924E-05 -5.445E-05
:PTO007:     -1   -1   -1  1.15014207E-02 -6.335E-05 -7.409E-05
:PTO008:     -1    0   -2 -1.18536289E-02 -2.916E-05 -3.815E-05
:PTO009:     -1   -1   -2  2.79497779E-02  7.088E-06  7.397E-06
:PTO010:     -2    0    0 -1.28114157E-02  4.181E-06  5.841E-06
:PTO011:      0    0   -3 -1.50508627E-03 -8.850E-06 -1.207E-05
:PTO012:     -2    0   -1 -1.21350999E-03 -4.816E-06 -8.091E-07
:PTO014:     -1    0   -3  9.38344117E-03  1.870E-05  2.460E-05

:ENE  : ********** TOTAL ENERGY IN Ry =       -14810.28488147

       TOTAL FORCE IN mRy/a.u. = |F|     Fx             Fy             Fz     with/without FOR in case.in2
:FOR001:   1.ATOM          0.000          0.000          0.000          0.000 partial forces
:FOR002:   2.ATOM        456.988          0.000          0.000        456.988 partial forces
       TOTAL FORCE WITH RESPECT TO GLOBAL CARTESIAN COORDINATES:
:FCA001:   1.ATOM                         0.000          0.000          0.000 partial forces
:FCA002:   2.ATOM                         0.000          0.000        456.988 partial forces
       TOTAL FORCE WITH RESPECT TO THE GLOBAL COORDINATE SYSTEM:
:FGL001:   1.ATOM                 0.000000000     0.000000000     0.000000000 partial forces
:FGL002:   2.ATOM                 0.000000000     0.000000000   456.987509333 partial forces

------- case.scf0 --------
 Flat Integration
 New Mode for Coulomb Integral
 Consistent 3/8+Simpson combinations
 Extension of core to zero
 LDM version in phi
 Fifth-order quadrature in outwin


            ---------
:ITE047: 47. ITERATION
            ---------

:NATO :    2 INDEPENDENT AND    4 TOTAL ATOMS IN UNITCELL
       SUBSTANCE: FeSe                                                        

       LATTICE                      = P   
:POT  : POTENTIAL OPTION EX_LDA EC_LDA VX_LDA VC_LDA
:LAT  : LATTICE CONSTANTS=  7.12881  7.12881 10.43450    1.571    1.571    1.571
:VOL  : UNIT CELL VOLUME =     530.28024
       MODE OF CALCULATION IS       = RELA
       NON-SPINPOLARIZED CALCULATION
:IFFT  : FFT-parameters:   60   60   80 Factor: 2.00


   CONVERGENCE PARAMETER FOR PSEUDOCHARGE: NCON=  9
   MAXIMAL VALUE OF RMT(JATOM)*ABSK(NKK) : RK  =25.91023


:VKCOUL :  VK-COUL convergence: 0.300E-06
       ATOMNUMBER=  1 Fe         VCOUL-ZERO =  0.17300E+00
:EFG001:                        EFG         =     1.04514   *10**21  V / m**2
                               V20  TOT/SRF=     0.90512    -0.10127
                               V22  TOT/SRF=     0.00000     0.00000
                               V22M TOT/SRF=     0.00000     0.00000
                               V21  TOT/SRF=     0.00000     0.00000
                               V21M TOT/SRF=     0.00000     0.00000

             -0.52257    0.00000    0.00000       -0.52257    0.00000    0.00000
              0.00000   -0.52257    0.00000        0.00000   -0.52257    0.00000
              0.00000    0.00000    1.04514        0.00000    0.00000    1.04514

         MAIN DIRECTIONS OF THE EFG   1.0000  0.0000  0.0000
                                      0.0000  1.0000  0.0000
                                      0.0000  0.0000  1.0000
:ANG001:  ANGLE WITH OLD X-AXIS =         0.0

:ETA001:                         ASYMM. ETA =     0.00000


       ATOMNUMBER=  2 Se         VCOUL-ZERO =  0.46961E-01
:EFG002:                        EFG         =    -5.29914   *10**21  V / m**2
                               V20  TOT/SRF=    -4.58919    -0.03427
                               V22  TOT/SRF=     0.00000     0.00000
                               V22M TOT/SRF=     0.00000     0.00000
                               V21  TOT/SRF=     0.00000     0.00000
                               V21M TOT/SRF=     0.00000     0.00000

              2.64957    0.00000    0.00000        2.64957    0.00000    0.00000
              0.00000    2.64957    0.00000        0.00000    2.64957    0.00000
              0.00000    0.00000   -5.29914        0.00000    0.00000   -5.29914

         MAIN DIRECTIONS OF THE EFG   1.0000  0.0000  0.0000
                                      0.0000  1.0000  0.0000
                                      0.0000  0.0000  1.0000
:ANG002:  ANGLE WITH OLD X-AXIS =         0.0

:ETA002:                         ASYMM. ETA =     0.00000


     HELLMANN-FEYNMAN-FORCE IN mRy/a.u. = |F|  Fx       Fy             Fz
:FHF001:   1.ATOM      0.000000000000      0.000000000000      0.000000000000      0.000000000000

     HELLMANN-FEYNMAN-FORCE IN mRy/a.u. = |F|  Fx       Fy             Fz
:FHF002:   2.ATOM   1732.024285094837      0.000000000000      0.000000000000   1732.024285094837

:FIT001: LUSE= 13 SIGMA OF V-XC FIT FOR ATOM  1  0.2696950E-02
:FIT001: LUSE= 13 SIGMA OF V-XC FIT FOR ATOM  1  0.2696950E-02
:FIT002: LUSE= 13 SIGMA OF V-XC FIT FOR ATOM  2  0.4730951E-03
:FIT002: LUSE= 13 SIGMA OF V-XC FIT FOR ATOM  2  0.4730951E-03
:DEN  : DENSITY INTEGRAL  =         -6214.16757908   (Ry)
       ELS_POTENTIAL_AT Z=0 and Z=0.5:  -0.83777   0.73482
       ELS_POTENTIAL_AT Y=0 and Y=0.5:   0.00000   0.00000
:VZERO:v0,v0c,v0x  -1.68347  -0.83777  -0.84569 v5,v5c,v5x   0.29127   0.73482  -0.44355
:VZERY:v0,v0c,v0x  -0.70383   0.00000  -0.70383 v5,v5c,v5x  -0.70383   0.00000  -0.70383
:VZERX:v0,v0c,v0x   0.12197   0.79602  -0.67406 v5,v5c,v5x   0.12197   0.79602  -0.67406

------- case.scf1 --------
:LMAX-WF:   10   Non-Spherical LMAX:   4

          ATOMIC SPHERE DEPENDENT PARAMETERS FOR ATOM  Fe        
:e__0001: OVERALL ENERGY PARAMETER IS    0.1826
          OVERALL BASIS SET ON ATOM IS LAPW
:E1_0001: E( 1)=    0.1826
             APW+lo
:E1_0001: E( 1)=   -3.6026   E(BOTTOM)=   -3.693   E(TOP)=   -3.513  1  2   136
             LOCAL ORBITAL
:E2_0001: E( 2)=    0.1899   E(BOTTOM)=   -0.162   E(TOP)=    0.541  0  1   142
             APW+lo
:E0_0001: E( 0)=    0.1826
             APW+lo

          ATOMIC SPHERE DEPENDENT PARAMETERS FOR ATOM  Se        
:e__0002: OVERALL ENERGY PARAMETER IS    0.1826
          OVERALL BASIS SET ON ATOM IS LAPW
:E2_0002: E( 2)=    0.1826
             APW+lo
:E2_0002: E( 2)=   -3.1473   E(BOTTOM)=   -3.192   E(TOP)=   -3.103  0  1   142
             LOCAL ORBITAL
:E0_0002: E( 0)=    0.5826
             APW+lo
:E0_0002: E( 0)=   -1.0200   E(BOTTOM)=   -1.639   E(TOP)= -200.000  3 -1   179
             LOCAL ORBITAL
:E1_0002: E( 1)=    0.1826
             APW+lo

       K=   0.04545   0.04545   0.07143            1
:RKM  : MATRIX SIZE   582LOs:  54  RKM= 7.97  WEIGHT= 8.00  PGR:    
       EIGENVALUES ARE:
:EIG00001:      -3.5931077   -3.5928846   -3.5842404   -3.5840173   -3.5739344
:EIG00006:      -3.5720287   -3.1379408   -3.1376478   -3.1368528   -3.1368214
:EIG00011:      -3.1362730   -3.1362619   -3.1361768   -3.1361710   -3.1351810
:EIG00016:      -3.1351517   -0.7064860   -0.6093898   -0.0456137    0.0188506
:EIG00021:       0.0260764    0.0299145    0.0905947    0.0936261    0.0976290
:EIG00026:       0.2462968    0.2701075    0.2928515    0.2984248    0.3041696
:EIG00031:       0.3344868    0.4874057    0.5253005    0.5298356    0.6282536
:EIG00036:       0.7035273    0.7849989    0.9088346    0.9405263    0.9472940
:EIG00041:       1.1994714    1.2730586    1.3070260    1.3288119    1.3607022
:EIG00046:       1.3657255    1.4075669    1.4361124    1.4695091    1.4924542
 
:EIG00051:       1.6424993    1.6603721    1.7159186    1.7534572    1.8586455
       ********************************************************

:KPT   :      NUMBER OF K-POINTS:    84

------- case.scf2 --------
:GMA  : POTENTIAL AND CHARGE CUT-OFF  12.00 Ry**.5




:POS001: at.nr.  -1 position = 0.25000 0.75000 0.00000  multiplicity =  2

       lmmax  8
       lm=   0 0  2 0 -3 2  4 0  4 4 -5 2  6 0  6 4




:POS002: at.nr.  -2 position = 0.25000 0.75000 0.00000  multiplicity =  2

       lmmax 10
       lm=   0 0  1 0  2 0  3 0  4 0  4 4  5 0  5 4  6 0  6 4
:FER gutzwiller fermi energy   0.43586
:EORB        -21.995126505
:SUM sum of gutz band energies       -102.652421671

:CHA001: total charge inside sphere   1 =    12.598742
:PCS001: partial charges sphere =  1 s,p,d,f,pz,pxy,,d-z2,d-xy,d-x2y2,d-xz,yz 
:QTL001: 0.3091 6.3176 5.9421 0.0243 2.0828 4.2348 0.0000 1.3374 1.2457 1.1000 2.2590 0.0000
:VZZ001: efg inside sphere   1 =     1.168503      up to r =   2.16000

:CHA002: total charge inside sphere   2 =    13.544643
:PCS002: partial charges sphere =  2 s,p,d,f,pz,pxy,,d-z2,d-xy,d-x2y2,d-xz,yz 
:QTL002: 1.3461 2.124310.0563 0.0146 0.7230 1.4013 0.0000 2.0102 2.0125 2.0104 4.0232 0.0000
:VZZ002: efg inside sphere   2 =    -5.249307      up to r =   2.05000

:CHA  : total charge inside unit cell =      60.000000

------- case.scfc --------

        1.ATOM      Fe                    5 CORE STATES
:1S 001: 1S                -512.334074107 Ry
:2S 001: 2S                 -59.280244329 Ry
:2PP001: 2P*                -51.080801284 Ry
:2P 001: 2P                 -50.165721325 Ry
:3S 001: 3S                  -6.047087124 Ry

        2.ATOM      Se                    7 CORE STATES
       CORE-FORCE in mRy/a.u. = |F|      Fx             Fy             Fz
:FCO002:   2.ATOM   1286.059808054357      0.000000000000      0.000000000000  -1286.059808054357

:1S 002: 1S                -916.439434166 Ry
:2S 002: 2S                -117.102737906 Ry
:2PP002: 2P*               -105.077419851 Ry
:2P 002: 2P                -102.014244496 Ry
:3S 002: 3S                 -14.837156944 Ry
:3PP002: 3P*                -10.724423726 Ry
:3P 002: 3P                 -10.292077319 Ry

------- case.scfm --------
:CINT001 Core Integral Atom   1   11.997208
:CINT002 Core Integral Atom   2   17.999403

       DENSITY AT NUCLEUS
        JATOM        VALENCE       SEMI-CORE          CORE           TOTAL
:RTO001:   1        6.832283        0.000000    14798.211170    14805.043453
:RTO002:   2       55.062436        0.000000    38924.561525    38979.623960
     
       CHARGES OF NEW CHARGE DENSITY
:NTO   : INTERSTITIAL CHARGE =     7.713407
:NPC   : PW Pseudocharge     =    14.204069
:NTO001: CHARGE SPHERE  1    =    24.595950
:NTO002: CHARGE SPHERE  2    =    31.544045

:NEC01: NUCLEAR AND ELECTRONIC CHARGE    120.00000   119.99340
     
       CHARGES OF OLD CHARGE DENSITY
:OTO   : INTERSTITIAL CHARGE =     7.721875
:OPC   : PW Pseudocharge     =    14.217771
:OTO001: CHARGE SPHERE  1    =    24.593456
:OTO002: CHARGE SPHERE  2    =    31.545606

:NEC02: NUCLEAR AND ELECTRONIC CHARGE    120.00000   120.00000
     
       CONVERGENCE TEST
:DTO001: DIFFERENCE IN SPHERE  1 =  0.0027976
:DTO002: DIFFERENCE IN SPHERE  2 =  0.0010323

:DIS  :  CHARGE DISTANCE       ( 0.0027976 for atom    1 spin 1)      0.0019149
 PW Mixed is          365
 
******************************************************
* MULTISECANT MIXING VER9 RELEASE 10.4.0              *
* Standard Mode with controls                        *
* Fixed density scale                                *
* Regularization       1.000E-04                     *
* Trust Upper Limit    5.000E+00                     *
* Max Number of Memory Steps    8                    *
******************************************************
 
:PWTMP   3.7368E+02  3.2249E+02  5.3028E+02
:PLANE:  PW TOTAL      3.7855 DISTAN   9.31E-04  2.46E-02 %
:CHARG:  CLM/ATOM    303.3482 DISTAN   2.18E-03  7.19E-04 %
 
Step History
        DMIX         DMIXT        Red     Pred      Trust     Lambda    MagRel    MagAbs     Beta
  1   3.5000E-02   3.5000E-02 -1.00E+00  1.00E+00 -1.00E+01  1.00E+00  3.50E-02  3.50E-02  1.00E+00
  2   1.5000E-01   1.5000E-01  4.27E-01  1.00E+00 -1.00E+01  1.00E+00  1.50E-01  2.15E-02  1.00E+00
  3   7.1250E-02   7.1250E-02  7.78E-01  8.67E-01  3.00E+00  1.56E+00  1.71E-01  1.05E-02  1.00E+00
  4   1.7813E-01   1.7813E-01  4.94E-01  2.55E-01  1.91E+00  1.88E+00  6.15E-01  2.92E-02  9.20E-01
  5   1.5599E-01   1.5599E-01  3.15E-01  3.29E-01  2.55E+00  1.82E+00  4.26E-01  1.00E-02  1.00E+00
  6   3.5000E-01   3.5000E-01 -1.00E+00  4.88E-01  3.39E+00  1.00E+00  8.32E-01  6.15E-03  1.00E+00
:JACOBIANS    3.522E-01   1.192E+00
  
:NORMS:  1/Froebius, Min, Max, Used   0.6168E+00  0.4582E+00  0.7236E+00  0.6311E+00
:INFO :  Number of Memory Steps    5 Skipping    0
:INFO :  SLambda=    1.6849323429  Max    1.6849323429
:PREDicted Charge, CTotal, PW Trust    1.055E-03   3.408E-03   3.468E-03
:PREDicted DMix, Beta, BLim   1.5059E-01  7.7633E-01  6.9295E+00

Eigenvalues, unscaled except for SY+YY
   #     SY Real        SY Imag          SS             YY         SY+YY Real      SY+YY Imag
   1   1.569850E+00   0.000000E+00   1.529053E+00   3.838594E+00   6.436051E+00   0.000000E+00
   2   5.937107E-01   0.000000E+00   3.311444E-01   9.655563E-01   1.986580E+00   0.000000E+00
   3   1.045960E-01   0.000000E+00   4.186239E-02   1.952943E-01   3.985316E-01   0.000000E+00
   4   2.268120E-05   0.000000E+00   6.640535E-05   4.497499E-04   1.518439E-04   0.000000E+00
   5   1.757805E-04   0.000000E+00   4.756399E-06   1.051973E-04   7.106833E-04   0.000000E+00
 
:INFO :  Singular value  6.540E+00 Weight  1.000E+00 Projection -1.239E-03
:INFO :  Singular value  1.958E+00 Weight  1.000E+00 Projection  1.385E-03
:INFO :  Singular value  3.979E-01 Weight  1.000E+00 Projection  4.780E-03
:INFO :  Singular value  7.169E-04 Weight  7.772E-01 Projection -4.447E-02
[...]

Eigenvalues, unscaled except for SY+YY
   #     SY Real        SY Imag          SS             YY         SY+YY Real      SY+YY Imag
   1   1.372025E+00   0.000000E+00   1.218432E+00   5.000002E+00   4.992156E+00   0.000000E+00
   2   3.986648E-01   0.000000E+00   2.314599E-01   2.067724E+00   4.992156E+00   0.000000E+00
   3  -2.530086E-01   0.000000E+00   1.155051E-01   1.031998E+00   1.195869E+00   0.000000E+00
   4   2.490502E-01   0.000000E+00   6.467995E-02   5.253297E-01   9.493841E-01   0.000000E+00
   5   8.502646E-02   0.000000E+00   1.786117E-02   2.986531E-01   4.760615E-01   0.000000E+00
   6   2.162743E-02   0.000000E+00   8.054316E-03   4.073840E-02   6.336946E-02   0.000000E+00
   7   2.605362E-03   0.000000E+00   1.613841E-03   2.801874E-02   4.766597E-02   0.000000E+00
   8   6.810726E-04   0.000000E+00   6.112549E-05   4.229006E-03   9.844420E-03   0.000000E+00
   9   2.526212E-04   0.000000E+00   1.469648E-05   3.306456E-03   3.603337E-03   0.000000E+00
 
:INFO :  Singular value  5.472E+00 Weight  1.000E+00 Projection  3.801E-05
:INFO :  Singular value  4.635E+00 Weight  1.000E+00 Projection  1.590E-05
:INFO :  Singular value  1.301E+00 Weight  1.000E+00 Projection  1.339E-05
:INFO :  Singular value  8.881E-01 Weight  1.000E+00 Projection  1.234E-05
:INFO :  Singular value  4.726E-01 Weight  1.000E+00 Projection  2.637E-06
:INFO :  Singular value  6.586E-02 Weight  9.999E-01 Projection -3.253E-05
:INFO :  Singular value  4.723E-02 Weight  9.999E-01 Projection -5.560E-05
:INFO :  Singular value  9.439E-03 Weight  9.972E-01 Projection -7.424E-05
:INFO :  Singular value  3.549E-03 Weight  9.805E-01 Projection  1.345E-05
:RANK :  ACTIVE   8.98/9  =  99.75 % ; YY RANK   8.96/9  =  99.59 %
 
:DLIM :  Beta Active  8.000E-01
:BLIM :  VZERO Control Off
:TRUST:  Step 1.05E+00  Charge 3.52E-03 (e) CTO  1.17E-02 (e) PW  1.64E-02 (e)
:DIRM :  MEMORY  9/8  SCALE   1.000 RED  1.10 PRED  0.10 NEXT  0.22 BETA  0.80
:TRAVE:  Charge 7.90E-07 (e) CTO  6.95E-06 (e) PW  9.45E-06 (e)
:DIRP :  |MSR1|= 5.517E-07 |PRATT|= 4.454E-05 ANGLE= 118.2 DEGREES
:DIRQ :  |MSR1|= 2.744E-06 |PRATT|= 8.965E-05 ANGLE= 133.1 DEGREES
:DIRT :  |MSR1|= 2.798E-06 |PRATT|= 1.001E-04 ANGLE= 129.9 DEGREES
:MIX  :   MSE1   REGULARIZATION:  5.00E-04 GREED: 0.06263  Newton 1.00  0.0280                
     
       CHARGES OF MIXED CHARGE DENSITY
:CTO   : INTERSTITIAL CHARGE =     7.721420
:CPC   : PW Pseudocharge     =    14.218595
:CTO001: CHARGE SPHERE  1    =    24.594236
:CTO002: CHARGE SPHERE  2    =    31.545054

:NEC03: NUCLEAR AND ELECTRONIC CHARGE    120.00000   120.00000

PW CHANGE     H    K    L      Current       Change    Residue
:PTO001:      0    0    0  4.13743774E-02 -2.974E-09  5.028E-07
:PTO002:      0    0   -1  2.60973771E-02 -3.240E-09  2.931E-07
:PTO004:     -1    0   -1 -9.20179770E-02  7.297E-09 -1.054E-06
:PTO005:      0    0   -2 -1.04096912E-02 -3.920E-09 -1.298E-07
:PTO006:     -1   -1    0 -2.18851263E-02 -1.088E-09 -2.235E-07
:PTO007:     -1   -1   -1  1.15055299E-02 -6.548E-09  1.733E-07
:PTO008:     -1    0   -2 -1.18492031E-02  5.247E-09 -1.265E-07
:PTO009:     -1   -1   -2  2.79581888E-02 -7.038E-09  3.002E-07
:PTO010:     -2    0    0 -1.28133917E-02 -1.418E-09 -1.579E-07
:PTO011:      0    0   -3 -1.50516912E-03 -3.122E-09 -3.004E-08
:PTO012:     -2    0   -1 -1.20665265E-03 -1.400E-09 -2.147E-08
:PTO014:     -1    0   -3  9.39161651E-03  2.572E-09  9.740E-08

:ENE  : ********** TOTAL ENERGY IN Ry =       -14810.28494777

       TOTAL FORCE IN mRy/a.u. = |F|     Fx             Fy             Fz     with/without FOR in case.in2
:FOR001:   1.ATOM          0.000          0.000          0.000          0.000 partial forces
:FOR002:   2.ATOM        445.724          0.000          0.000        445.724 partial forces
       TOTAL FORCE WITH RESPECT TO GLOBAL CARTESIAN COORDINATES:
:FCA001:   1.ATOM                         0.000          0.000          0.000 partial forces
:FCA002:   2.ATOM                         0.000          0.000        445.724 partial forces
       TOTAL FORCE WITH RESPECT TO THE GLOBAL COORDINATE SYSTEM:
:FGL001:   1.ATOM                 0.000000000     0.000000000     0.000000000 partial forces
:FGL002:   2.ATOM                 0.000000000     0.000000000   445.724088191 partial forces

------- case.scf0 --------
 Flat Integration
 New Mode for Coulomb Integral
 Consistent 3/8+Simpson combinations
 Extension of core to zero
 LDM version in phi
 Fifth-order quadrature in outwin


            ---------
:ITE058: 58. ITERATION
            ---------

:NATO :    2 INDEPENDENT AND    4 TOTAL ATOMS IN UNITCELL
       SUBSTANCE: FeSe                                                        

       LATTICE                      = P   
:POT  : POTENTIAL OPTION EX_LDA EC_LDA VX_LDA VC_LDA
:LAT  : LATTICE CONSTANTS=  7.12881  7.12881 10.43450    1.571    1.571    1.571
:VOL  : UNIT CELL VOLUME =     530.28024
       MODE OF CALCULATION IS       = RELA
       NON-SPINPOLARIZED CALCULATION
:IFFT  : FFT-parameters:   60   60   80 Factor: 2.00


   CONVERGENCE PARAMETER FOR PSEUDOCHARGE: NCON=  9
   MAXIMAL VALUE OF RMT(JATOM)*ABSK(NKK) : RK  =25.91023


:VKCOUL :  VK-COUL convergence: 0.300E-06
       ATOMNUMBER=  1 Fe         VCOUL-ZERO =  0.17334E+00
:EFG001:                        EFG         =     1.04012   *10**21  V / m**2
                               V20  TOT/SRF=     0.90077    -0.10104
                               V22  TOT/SRF=     0.00000     0.00000
                               V22M TOT/SRF=     0.00000     0.00000
                               V21  TOT/SRF=     0.00000     0.00000
                               V21M TOT/SRF=     0.00000     0.00000

             -0.52006    0.00000    0.00000       -0.52006    0.00000    0.00000
              0.00000   -0.52006    0.00000        0.00000   -0.52006    0.00000
              0.00000    0.00000    1.04012        0.00000    0.00000    1.04012

         MAIN DIRECTIONS OF THE EFG   1.0000  0.0000  0.0000
                                      0.0000  1.0000  0.0000
                                      0.0000  0.0000  1.0000
:ANG001:  ANGLE WITH OLD X-AXIS =         0.0

:ETA001:                         ASYMM. ETA =     0.00000


       ATOMNUMBER=  2 Se         VCOUL-ZERO =  0.46845E-01
:EFG002:                        EFG         =    -5.30304   *10**21  V / m**2
                               V20  TOT/SRF=    -4.59257    -0.03417
                               V22  TOT/SRF=     0.00000     0.00000
                               V22M TOT/SRF=     0.00000     0.00000
                               V21  TOT/SRF=     0.00000     0.00000
                               V21M TOT/SRF=     0.00000     0.00000

              2.65152    0.00000    0.00000        2.65152    0.00000    0.00000
              0.00000    2.65152    0.00000        0.00000    2.65152    0.00000
              0.00000    0.00000   -5.30304        0.00000    0.00000   -5.30304

         MAIN DIRECTIONS OF THE EFG   1.0000  0.0000  0.0000
                                      0.0000  1.0000  0.0000
                                      0.0000  0.0000  1.0000
:ANG002:  ANGLE WITH OLD X-AXIS =         0.0

:ETA002:                         ASYMM. ETA =     0.00000


     HELLMANN-FEYNMAN-FORCE IN mRy/a.u. = |F|  Fx       Fy             Fz
:FHF001:   1.ATOM      0.000000000000      0.000000000000      0.000000000000      0.000000000000

     HELLMANN-FEYNMAN-FORCE IN mRy/a.u. = |F|  Fx       Fy             Fz
:FHF002:   2.ATOM   1734.505114129195      0.000000000000      0.000000000000   1734.505114129195

:FIT001: LUSE= 13 SIGMA OF V-XC FIT FOR ATOM  1  0.2696183E-02
:FIT001: LUSE= 13 SIGMA OF V-XC FIT FOR ATOM  1  0.2696183E-02
:FIT002: LUSE= 13 SIGMA OF V-XC FIT FOR ATOM  2  0.4737227E-03
:FIT002: LUSE= 13 SIGMA OF V-XC FIT FOR ATOM  2  0.4737227E-03
:DEN  : DENSITY INTEGRAL  =         -6214.19040546   (Ry)
       ELS_POTENTIAL_AT Z=0 and Z=0.5:  -0.83719   0.73451
       ELS_POTENTIAL_AT Y=0 and Y=0.5:   0.00000   0.00000
:VZERO:v0,v0c,v0x  -1.68288  -0.83719  -0.84569 v5,v5c,v5x   0.29101   0.73451  -0.44350
:VZERY:v0,v0c,v0x  -0.70382   0.00000  -0.70382 v5,v5c,v5x  -0.70382   0.00000  -0.70382
:VZERX:v0,v0c,v0x   0.12198   0.79602  -0.67404 v5,v5c,v5x   0.12198   0.79602  -0.67404

------- case.scf1 --------
:LMAX-WF:   10   Non-Spherical LMAX:   4

          ATOMIC SPHERE DEPENDENT PARAMETERS FOR ATOM  Fe        
:e__0001: OVERALL ENERGY PARAMETER IS    0.1826
          OVERALL BASIS SET ON ATOM IS LAPW
:E1_0001: E( 1)=    0.1826
             APW+lo
:E1_0001: E( 1)=   -3.6018   E(BOTTOM)=   -3.692   E(TOP)=   -3.512  1  2   139
             LOCAL ORBITAL
:E2_0001: E( 2)=    0.1906   E(BOTTOM)=   -0.161   E(TOP)=    0.542  0  1   139
             APW+lo
:E0_0001: E( 0)=    0.1826
             APW+lo

          ATOMIC SPHERE DEPENDENT PARAMETERS FOR ATOM  Se        
:e__0002: OVERALL ENERGY PARAMETER IS    0.1826
          OVERALL BASIS SET ON ATOM IS LAPW
:E2_0002: E( 2)=    0.1826
             APW+lo
:E2_0002: E( 2)=   -3.1475   E(BOTTOM)=   -3.192   E(TOP)=   -3.103  0  1   142
             LOCAL ORBITAL
:E0_0002: E( 0)=    0.5826
             APW+lo
:E0_0002: E( 0)=   -1.0200   E(BOTTOM)=   -1.639   E(TOP)= -200.000  3 -1   178
             LOCAL ORBITAL
:E1_0002: E( 1)=    0.1826
             APW+lo

       K=   0.04545   0.04545   0.07143            1
:RKM  : MATRIX SIZE   582LOs:  54  RKM= 7.97  WEIGHT= 8.00  PGR:    
       EIGENVALUES ARE:
:EIG00001:      -3.5923167   -3.5920936   -3.5834466   -3.5832234   -3.5731101
:EIG00006:      -3.5712039   -3.1381885   -3.1378948   -3.1371015   -3.1370702
:EIG00011:      -3.1365231   -3.1365120   -3.1364266   -3.1364208   -3.1354333
:EIG00016:      -3.1354040   -0.7065079   -0.6094592   -0.0454840    0.0191612
:EIG00021:       0.0264360    0.0302800    0.0912451    0.0938179    0.0978261
:EIG00026:       0.2469543    0.2708257    0.2933186    0.2990627    0.3047164
:EIG00031:       0.3351727    0.4874817    0.5255401    0.5301000    0.6282557
:EIG00036:       0.7037857    0.7852237    0.9089212    0.9405715    0.9473407
:EIG00041:       1.1994918    1.2731566    1.3071861    1.3288082    1.3607014
:EIG00046:       1.3657234    1.4076485    1.4361579    1.4694769    1.4924421
 
:EIG00051:       1.6424818    1.6603208    1.7159911    1.7534804    1.8585926
       ********************************************************

:KPT   :      NUMBER OF K-POINTS:    84

------- case.scf2 --------
:GMA  : POTENTIAL AND CHARGE CUT-OFF  12.00 Ry**.5




:POS001: at.nr.  -1 position = 0.25000 0.75000 0.00000  multiplicity =  2

       lmmax  8
       lm=   0 0  2 0 -3 2  4 0  4 4 -5 2  6 0  6 4




:POS002: at.nr.  -2 position = 0.25000 0.75000 0.00000  multiplicity =  2

       lmmax 10
       lm=   0 0  1 0  2 0  3 0  4 0  4 4  5 0  5 4  6 0  6 4
:FER gutzwiller fermi energy   0.43600
:EORB        -21.988029835
:SUM sum of gutz band energies       -102.646390306

:CHA001: total charge inside sphere   1 =    12.596955
:PCS001: partial charges sphere =  1 s,p,d,f,pz,pxy,,d-z2,d-xy,d-x2y2,d-xz,yz 
:QTL001: 0.3090 6.3175 5.9406 0.0243 2.0828 4.2347 0.0000 1.3370 1.2455 1.0998 2.2582 0.0000
:VZZ001: efg inside sphere   1 =     1.181337      up to r =   2.16000

:CHA002: total charge inside sphere   2 =    13.545650
:PCS002: partial charges sphere =  2 s,p,d,f,pz,pxy,,d-z2,d-xy,d-x2y2,d-xz,yz 
:QTL002: 1.3462 2.125210.0564 0.0146 0.7233 1.4019 0.0000 2.0102 2.0125 2.0104 4.0232 0.0000
:VZZ002: efg inside sphere   2 =    -5.262593      up to r =   2.05000

:CHA  : total charge inside unit cell =      60.000000

------- case.scfc --------

        1.ATOM      Fe                    5 CORE STATES
:1S 001: 1S                -512.333527193 Ry
:2S 001: 2S                 -59.279488267 Ry
:2PP001: 2P*                -51.080074386 Ry
:2P 001: 2P                 -50.164991938 Ry
:3S 001: 3S                  -6.046264107 Ry

        2.ATOM      Se                    7 CORE STATES
       CORE-FORCE in mRy/a.u. = |F|      Fx             Fy             Fz
:FCO002:   2.ATOM   1288.782140164796      0.000000000000      0.000000000000  -1288.782140164796

:1S 002: 1S                -916.439609345 Ry
:2S 002: 2S                -117.102908282 Ry
:2PP002: 2P*               -105.077588280 Ry
:2P 002: 2P                -102.014413192 Ry
:3S 002: 3S                 -14.837412748 Ry
:3PP002: 3P*                -10.724678863 Ry
:3P 002: 3P                 -10.292333938 Ry

------- case.scfm --------
:CINT001 Core Integral Atom   1   11.997207
:CINT002 Core Integral Atom   2   17.999403

       DENSITY AT NUCLEUS
        JATOM        VALENCE       SEMI-CORE          CORE           TOTAL
:RTO001:   1        6.829176        0.000000    14798.212375    14805.041551
:RTO002:   2       55.067282        0.000000    38924.559635    38979.626917
     
       CHARGES OF NEW CHARGE DENSITY
:NTO   : INTERSTITIAL CHARGE =     7.714566
:NPC   : PW Pseudocharge     =    14.205962
:NTO001: CHARGE SPHERE  1    =    24.594163
:NTO002: CHARGE SPHERE  2    =    31.545053

:NEC01: NUCLEAR AND ELECTRONIC CHARGE    120.00000   119.99300
     
       CHARGES OF OLD CHARGE DENSITY
:OTO   : INTERSTITIAL CHARGE =     7.721420
:OPC   : PW Pseudocharge     =    14.218595
:OTO001: CHARGE SPHERE  1    =    24.594236
:OTO002: CHARGE SPHERE  2    =    31.545054

:NEC02: NUCLEAR AND ELECTRONIC CHARGE    120.00000   120.00000
     
       CONVERGENCE TEST
:DTO001: DIFFERENCE IN SPHERE  1 =  0.0000835
:DTO002: DIFFERENCE IN SPHERE  2 =  0.0000369

:DIS  :  CHARGE DISTANCE       ( 0.0000835 for atom    1 spin 1)      0.0000602
 PW Mixed is          365
 
******************************************************
* MULTISECANT MIXING VER9 RELEASE 10.4.0              *
* Standard Mode with controls                        *
* Fixed density scale                                *
* Regularization       1.000E-04                     *
* Trust Upper Limit    5.000E+00                     *
* Max Number of Memory Steps    8                    *
******************************************************
 
:PWTMP   3.7368E+02  3.2249E+02  5.3028E+02
:PLANE:  PW TOTAL      3.7858 DISTAN   6.94E-05  1.83E-03 %
:CHARG:  CLM/ATOM    303.3481 DISTAN   6.46E-05  2.13E-05 %
 
Step History
        DMIX         DMIXT        Red     Pred      Trust     Lambda    MagRel    MagAbs     Beta
  8   1.7637E-01   1.7637E-01  3.57E-01  5.90E-01  6.58E+00  1.53E+00  3.55E-01  5.90E-04  7.70E-01
  9   2.6378E-01   2.6378E-01  8.00E-01  7.14E-01  8.78E+00  1.74E+00  6.10E-01  3.62E-04  9.62E-01
 10   3.3687E-01   3.3687E-01  2.16E-01  1.65E-01  1.10E+01  1.07E+00  4.76E-01  2.26E-04  1.00E+00
 11   2.9283E-01   2.9283E-01  7.40E-01  5.11E-01  1.46E+01  1.61E+00  3.36E-01  3.44E-05  1.00E+00
 12   2.6053E-01   2.6053E-01  1.17E+00  4.91E-01  1.95E+01  1.87E+00  4.17E-01  3.16E-05  1.00E+00
 13   1.8353E-01   1.8353E-01  2.07E+00  1.38E-01  1.29E+01  1.98E+00  1.48E-01  1.31E-05  9.40E-01
 14   1.3568E-01   1.3568E-01  3.47E-01  6.39E-02  3.85E+00  2.05E+00  5.93E-02  1.09E-05  1.00E+00
 15   1.0167E-01   1.0167E-01  1.43E+00  2.37E-01  5.29E+00  2.43E+00  7.66E-02  4.88E-06  8.00E-01
 16   8.3505E-02   8.3505E-02  1.10E+00  9.74E-02  2.07E+00  1.99E+00  2.76E-02  2.51E-06  1.00E+00
 17   6.2629E-02   6.2629E-02 -1.00E+00  2.15E-01  1.05E+00  1.00E+00  2.80E-02  2.80E-06  8.00E-01
:JACOBIANS    7.596E-01   2.215E+00
  
:NORMS:  1/Froebius, Min, Max, Used   0.3543E+00  0.3182E+00  0.8782E+00  0.3674E+00
:INFO :  Number of Memory Steps    9 Skipping    7
:INFO :  SLambda=    2.9810276151  Max    2.9810276151
:PREDicted Charge, CTotal, PW Trust    3.134E-06   1.017E-05   1.278E-05
:PREDicted DMix, Beta, BLim   1.5069E-02  1.4428E+00  2.4157E+00

Eigenvalues, unscaled except for SY+YY
   #     SY Real        SY Imag          SS             YY         SY+YY Real      SY+YY Imag
   1   1.008547E+00   0.000000E+00   9.375474E-01   6.946931E+00   7.458618E+00   0.000000E+00
   2   2.585328E-01   0.000000E+00   1.211499E-01   1.287872E+00   4.458821E+00   0.000000E+00
   3   1.226503E-01   0.000000E+00   5.243712E-02   5.442611E-01   8.511843E-01   0.000000E+00
   4   2.928763E-02   0.000000E+00   1.209788E-02   1.081091E-01   2.388584E-01   0.000000E+00
   5  -8.232957E-03   0.000000E+00   5.031045E-03   9.551552E-02   1.754630E-01   0.000000E+00
   6   2.826503E-03   0.000000E+00   7.912812E-04   1.083486E-02   1.701902E-02   0.000000E+00
   7  -2.329359E-03   0.000000E+00   5.246608E-04   3.913649E-03   5.212132E-03   0.000000E+00
   8  -2.836956E-05   0.000000E+00   2.190694E-05   2.273528E-03   1.627925E-04   0.000000E+00
   9   1.665617E-04   0.000000E+00   1.030264E-05   2.898952E-04   2.145248E-03   0.000000E+00
 
:INFO :  Singular value  7.671E+00 Weight  1.000E+00 Projection -5.300E-05
:INFO :  Singular value  4.412E+00 Weight  1.000E+00 Projection -1.117E-05
:INFO :  Singular value  8.680E-01 Weight  1.000E+00 Projection -5.986E-06
:INFO :  Singular value  2.498E-01 Weight  1.000E+00 Projection -4.012E-05
:INFO :  Singular value  1.755E-01 Weight  1.000E+00 Projection  5.409E-05
:INFO :  Singular value  1.719E-02 Weight  9.984E-01 Projection -4.832E-05
:INFO :  Singular value  5.556E-03 Weight  9.846E-01 Projection  1.083E-04
:INFO :  Singular value  1.997E-03 Weight  8.921E-01 Projection -2.761E-05
:INFO :  Singular value  1.496E-04 Weight  4.430E-02 Projection  8.272E-05
:RANK :  ACTIVE   7.92/9  =  87.99 % ; YY RANK   8.03/9  =  89.20 %
 
:BLIM :  VZERO Control Off
:TRUST:  Step 4.78E-01  Charge 2.56E-03 (e) CTO  8.53E-03 (e) PW  1.19E-02 (e)
:DIRM :  MEMORY  9/8  SCALE   1.000 RED  1.47 PRED  0.22 NEXT  0.08 
:TRAVE:  Charge 2.39E-06 (e) CTO  9.14E-06 (e) PW  1.17E-05 (e)
:DIRP :  |MSR1|= 3.734E-06 |PRATT|= 6.941E-05 ANGLE= 150.6 DEGREES
:DIRQ :  |MSR1|= 8.535E-06 |PRATT|= 1.292E-04 ANGLE=  77.4 DEGREES
:DIRT :  |MSR1|= 9.316E-06 |PRATT|= 1.467E-04 ANGLE=  89.3 DEGREES
:MIX  :   MSE1   REGULARIZATION:  6.95E-04 GREED: 0.05138  Newton 1.00  0.0635                
     
       CHARGES OF MIXED CHARGE DENSITY
:CTO   : INTERSTITIAL CHARGE =     7.721411
:CPC   : PW Pseudocharge     =    14.218585
:CTO001: CHARGE SPHERE  1    =    24.594238
:CTO002: CHARGE SPHERE  2    =    31.545057

:NEC03: NUCLEAR AND ELECTRONIC CHARGE    120.00000   120.00000

PW CHANGE     H    K    L      Current       Change    Residue
:PTO001:      0    0    0  4.13743411E-02 -3.634E-08  7.735E-07
:PTO002:      0    0   -1  2.60973566E-02 -2.043E-08  4.568E-07
:PTO004:     -1    0   -1 -9.20179036E-02  7.339E-08 -1.669E-06
:PTO005:      0    0   -2 -1.04096694E-02  2.178E-08 -2.004E-07
:PTO006:     -1   -1    0 -2.18850858E-02  4.047E-08 -3.709E-07
:PTO007:     -1   -1   -1  1.15055644E-02  3.444E-08  2.575E-07
:PTO008:     -1    0   -2 -1.18491947E-02  8.393E-09 -2.074E-07
:PTO009:     -1   -1   -2  2.79581824E-02 -6.406E-09  4.919E-07
:PTO010:     -2    0    0 -1.28133813E-02  1.036E-08 -2.405E-07
:PTO011:      0    0   -3 -1.50515934E-03  9.785E-09 -3.442E-08
:PTO012:     -2    0   -1 -1.20664530E-03  7.350E-09 -2.618E-08
:PTO014:     -1    0   -3  9.39159865E-03 -1.786E-08  1.528E-07

:ENE  : ********** TOTAL ENERGY IN Ry =       -14810.28494403

       TOTAL FORCE IN mRy/a.u. = |F|     Fx             Fy             Fz     with/without FOR in case.in2
:FOR001:   1.ATOM          0.000          0.000          0.000          0.000 partial forces
:FOR002:   2.ATOM        445.723          0.000          0.000        445.723 partial forces
       TOTAL FORCE WITH RESPECT TO GLOBAL CARTESIAN COORDINATES:
:FCA001:   1.ATOM                         0.000          0.000          0.000 partial forces
:FCA002:   2.ATOM                         0.000          0.000        445.723 partial forces
       TOTAL FORCE WITH RESPECT TO THE GLOBAL COORDINATE SYSTEM:
:FGL001:   1.ATOM                 0.000000000     0.000000000     0.000000000 partial forces
:FGL002:   2.ATOM                 0.000000000     0.000000000   445.722973964 partial forces
