
:LABEL1: Calculations in /home/ykent/GWIEN/example/Pr/V13/case
:LABEL2: on didymium-2.cmpgroup.ameslab.gov at Wed Jul  8 16:41:54 CDT 2020
:LABEL3: using WIEN2k_19.1 (Release 25/6/2019) in /home/ykent/opt/src/WIEN2k_19.1
:LABEL4: using the command: run_lapw -so -i 70 -cc 0.0001
 Flat Integration
 New Mode for Coulomb Integral
 Consistent 3/8+Simpson combinations
 Extension of core to zero
 LDM version in phi
 Fifth-order quadrature in outwin


            ---------
:ITE015: 15. ITERATION
            ---------

:NATO :    1 INDEPENDENT AND    1 TOTAL ATOMS IN UNITCELL
       SUBSTANCE: blebleble                                                   

       LATTICE                      = F   
:POT  : POTENTIAL OPTION EX_LDA EC_LDA VX_LDA VC_LDA
:LAT  : LATTICE CONSTANTS= 10.11927 10.11927 10.11927    1.571    1.571    1.571
:VOL  : UNIT CELL VOLUME =     259.05267
       MODE OF CALCULATION IS       = RELA
       NON-SPINPOLARIZED CALCULATION
:IFFT  : FFT-parameters:   80   80   80 Factor: 2.00


   CONVERGENCE PARAMETER FOR PSEUDOCHARGE: NCON=  9
   MAXIMAL VALUE OF RMT(JATOM)*ABSK(NKK) : RK  =29.93932


:VKCOUL :  VK-COUL convergence: 0.238E-06
       ATOMNUMBER=  1 Pr         VCOUL-ZERO =  0.18144E+00
:FIT001: LUSE= 13 SIGMA OF V-XC FIT FOR ATOM  1  0.4942945E-04
:FIT001: LUSE= 13 SIGMA OF V-XC FIT FOR ATOM  1  0.4942945E-04
:DEN  : DENSITY INTEGRAL  =         -7068.01011822   (Ry)
       ELS_POTENTIAL_AT Z=0 and Z=0.5:  -2.42743  -2.42743
       ELS_POTENTIAL_AT Y=0 and Y=0.5:   0.00000   0.00000
:VZERO:v0,v0c,v0x  -3.38131  -2.42743  -0.95389 v5,v5c,v5x  -3.38131  -2.42743  -0.95389
:VZERY:v0,v0c,v0x  -0.69068   0.00000  -0.69068 v5,v5c,v5x  -0.69068   0.00000  -0.69068
:VZERX:v0,v0c,v0x  -0.69068   0.00000  -0.69068 v5,v5c,v5x  -0.69068   0.00000  -0.69068
:LMAX-WF:   10   Non-Spherical LMAX:   4

          ATOMIC SPHERE DEPENDENT PARAMETERS FOR ATOM  Pr        
:e__0001: OVERALL ENERGY PARAMETER IS    0.3254
          OVERALL BASIS SET ON ATOM IS LAPW
:E0_0001: E( 0)=    0.3254
             APW+lo
:E0_0001: E( 0)=   -2.1574   E(BOTTOM)=   -2.538   E(TOP)=   -1.777  4  5   162
             LOCAL ORBITAL
:E1_0001: E( 1)=    0.7254
             APW+lo
:E1_0001: E( 1)=   -0.7690   E(BOTTOM)=   -1.415   E(TOP)=   -0.123  3  4   163
             LOCAL ORBITAL
:E3_0001: E( 3)=    0.5133   E(BOTTOM)=    0.372   E(TOP)=    0.655  0  1   116
             APW+lo
:E2_0001: E( 2)=    0.3254   E(BOTTOM)=    0.161   E(TOP)= -200.000  2 -1    94
             APW+lo

       K=   0.00000   0.00000   0.00000            1
:RKM  : MATRIX SIZE   189LOs:  20  RKM= 8.07  WEIGHT= 1.00  PGR:    
       EIGENVALUES ARE:
:EIG00001:      -2.1156279   -0.7543371   -0.7543371   -0.7543371    0.2755965
:EIG00006:       0.5146764    0.5297571    0.5297571    0.5297571    0.5511550
:EIG00011:       0.5511550    0.5511550    0.6535324    0.6535324    0.6535324
:EIG00016:       0.8117114    0.8117114    1.2093474    1.4247170    1.4247170
:EIG00021:       1.4247170    1.5308571    2.1552899    2.1552899    2.1552899
:EIG00026:       2.2224715    2.2224715    2.2224715    2.4402157    2.4402157
:EIG00031:       2.7750203    2.9431335    2.9431335    2.9431335    3.3657119
:EIG00036:       3.3657119    3.5967023    3.5967023    3.5967023    3.6387513
:EIG00041:       3.6387513    3.6387513    3.7803832    3.7803832    3.7803832
:EIG00046:       4.0294009    4.0499218    4.0499218    4.0499218    4.1487717
 
:EIG00051:       4.1487717    4.1922759    4.1922759    4.1922759    4.2187495
:EIG00056:       4.2187495    4.2187495    4.3265280    4.3516469    4.4814503
:EIG00061:       4.4814503    4.4814503    4.5742392    4.5742392    4.5742392
:EIG00066:       4.7921874    5.8007838    5.8007838    5.8035888    6.1091521
:EIG00071:       6.1091521    6.1091521    6.5509554    6.5509554    6.7265438
:EIG00076:       6.7265438    6.7265438    6.7841274    6.7841274    6.7841274
:EIG00081:       7.0729099    7.0729099    7.0729099    7.1038566    7.1038566
:EIG00086:       7.1124834    7.1124834    7.1124834    7.1771130    7.1771130
:EIG00091:       7.1771130    7.2754995    7.2754995    7.2754995    7.2820966
:EIG00096:       7.2820966    7.2820966    7.3602640    7.4370794    7.5128190
 
:EIG00101:       7.5128190    7.5513328    7.5513328    7.5513328    7.5700088
:EIG00106:       7.5700088    7.5700088    7.5882902    7.5882902    7.5882902
:EIG00111:       7.6721337    7.6721337    7.9418771    7.9984067
       ********************************************************

:KPT   :      NUMBER OF K-POINTS:   165
   0.0   0.0 angle (M,z), angle (M,x) deg
 
        SPIN-ORBIT EIGENVALUES:
     K=   0.00000   0.00000   0.00000            1
      MATRIX SIZE=  228   WEIGHT= 1.00
     EIGENVALUES ARE:
          -2.1156279   -2.1156279   -0.9011553   -0.9011553   -0.6856109
          -0.6856109   -0.6856109   -0.6856109    0.2755965    0.2755965
           0.5096793    0.5096793    0.5185370    0.5185370    0.5185370
           0.5185370    0.5414717    0.5414717    0.5519048    0.5519048
           0.5585502    0.5585502    0.5585502    0.5585502    0.6497816
           0.6497816    0.6497816    0.6497816    0.6598388    0.6598388
           0.8121072    0.8121072    0.8121072    0.8121072    1.2093983
           1.2093983    1.4196155    1.4196155    1.4270398    1.4270398

           1.4270398    1.4270398    1.5308571    1.5308571    2.1503947
           2.1503947    2.1503947    2.1503947    2.1527371    2.1527371
           2.1645827    2.1645827    2.2582241    2.2582241    2.2582241
           2.2582241    2.4405011    2.4405011    2.4405011    2.4405011
           2.7750203    2.7750203    2.9427054    2.9427054    2.9433608
           2.9433608    2.9433608    2.9433608    3.3656876    3.3656876
           3.3656876    3.3656876    3.5953825    3.5953825    3.5953825
           3.5953825    3.5995891    3.5995891    3.6087395    3.6087395

           3.6551388    3.6551388    3.6551388    3.6551388    3.7803755
           3.7803755    3.7803871    3.7803871    3.7803871    3.7803871
           4.0294009    4.0294009    4.0498765    4.0498765    4.0498765
           4.0498765    4.0500179    4.0500179    4.1487717    4.1487717
           4.1487717    4.1487717    4.1921200    4.1921200    4.1923430
           4.1923430    4.1923430    4.1923430    4.2185271    4.2185271
           4.2185271    4.2185271    4.2192346    4.2192346    4.3265328
           4.3265328    4.3516469    4.3516469    4.4813926    4.4813926

           4.4813926    4.4813926    4.4815694    4.4815694
       ********************************************************
:GAP (global)   :    0.0    Ry =     0.0   eV (metal)
:GAP (this spin):    0.0    Ry =     0.0   eV (metal)
         Bandranges (emin - emax) and occupancy:
:BAN00004:   4   -0.931800   -0.901155  1.00000000
:BAN00005:   5   -0.740973   -0.685611  1.00000000
:BAN00006:   6   -0.740973   -0.685611  1.00000000
:BAN00007:   7   -0.720884   -0.685611  1.00000000
:BAN00008:   8   -0.720884   -0.685611  1.00000000
:BAN00009:   9    0.275597    0.497203  1.00000000
:BAN00010:  10    0.275597    0.497203  1.00000000
:BAN00011:  11    0.461548    0.516783  1.00000000
:BAN00012:  12    0.461548    0.516783  1.00000000
:BAN00013:  13    0.509388    0.521553  0.50000006
:BAN00014:  14    0.509388    0.521553  0.49999994
:BAN00015:  15    0.518537    0.528398  0.00000000
:BAN00016:  16    0.518537    0.528398  0.00000000
:BAN00017:  17    0.521568    0.546337  0.00000000
:BAN00018:  18    0.521568    0.546337  0.00000000
:BAN00019:  19    0.541733    0.551905  0.00000000
        Energy to separate low and high energystates:    0.22560


:NOE  : NUMBER OF ELECTRONS          =   13.000

:FER  : F E R M I - ENERGY(TETRAH.M.)=   0.5178651720
:GMA  : POTENTIAL AND CHARGE CUT-OFF  12.00 Ry**.5

:POS001: ATOM    1 X,Y,Z = 0.00000 0.00000 0.50000  MULT= 1  ZZ= 59.000  Pr        

       LMMAX  5
       LM=   0 0  4 0  4 4  6 0  6 4

:CHA001: TOTAL VALENCE CHARGE INSIDE SPHERE   1 =  10.2054    (RMT=  2.5000 )
:PCS001: PARTIAL CHARGES SPHERE =  1 S,P,D,F,      D-EG,D-T2G 
:QTL001: 2.0251 5.3490 0.5229 2.3082 0.0000 0.0000 0.0000 0.1915 0.3314 0.0000 0.0000 0.0000
        Q-s-low E-s-low   Q-p-low E-p-low   Q-d-low E-d-low   Q-f-low E-f-low
:EPL001:  1.9260 -2.1074    5.2909 -0.7881    0.0009 -0.7693    0.0002 -0.7711
        Q-s-hi  E-s-hi    Q-p-hi  E-p-hi    Q-d-hi  E-d-hi    Q-f-hi  E-f-hi 
:EPH001:  0.0991  0.4216    0.0580  0.4549    0.5220  0.4736    2.3080  0.5080

:CHA  : TOTAL VALENCE CHARGE INSIDE UNIT CELL =      13.000000

:SUM  : SUM OF EIGENVALUES =          -6.527289206


        1.ATOM      Pr                   14 CORE STATES
:1S 001: 1S               -3067.083518210 Ry
:2S 001: 2S                -492.835512379 Ry
:2PP001: 2P*               -465.934953084 Ry
:2P 001: 2P                -430.537354453 Ry
:3S 001: 3S                -105.922088124 Ry
:3PP001: 3P*                -94.460110680 Ry
:3P 001: 3P                 -87.452103586 Ry
:3DD001: 3D*                -67.379667397 Ry
:3D 001: 3D                 -65.868039091 Ry
:4S 001: 4S                 -20.598119602 Ry
:4PP001: 4P*                -16.305017211 Ry
:4P 001: 4P                 -14.777719267 Ry
:4DD001: 4D*                 -7.710973158 Ry
:4D 001: 4D                  -7.441611754 Ry
:CINT001 Core Integral Atom   1   45.999518

       DENSITY AT NUCLEUS
        JATOM        VALENCE       SEMI-CORE          CORE           TOTAL
:RTO001:   1      649.307006        0.000000   656825.016788   657474.323794
     
       CHARGES OF NEW CHARGE DENSITY
:NTO   : INTERSTITIAL CHARGE =     2.794576
:NPC   : PW Pseudocharge     =     7.539774
:NTO001: CHARGE SPHERE  1    =    56.204941

:NEC01: NUCLEAR AND ELECTRONIC CHARGE     59.00000    58.99952
     
       CHARGES OF OLD CHARGE DENSITY
:OTO   : INTERSTITIAL CHARGE =     2.940058
:OPC   : PW Pseudocharge     =     7.599362
:OTO001: CHARGE SPHERE  1    =    56.059942

:NEC02: NUCLEAR AND ELECTRONIC CHARGE     59.00000    59.00000
     
       CONVERGENCE TEST
:DTO001: DIFFERENCE IN SPHERE  1 =  0.2574248

:DIS  :  CHARGE DISTANCE       ( 0.2574248 for atom    1 spin 1)      0.2574248
 PW Mixed is           56
 
******************************************************
* MULTISECANT MIXING VER9 RELEASE 10.4.0              *
* Standard Mode with controls                        *
* Fixed density scale                                *
* Restart from converged density                     *
* Regularization       1.000E-04                     *
* Trust Upper Limit    5.000E+00                     *
* Max Number of Memory Steps    8                    *
******************************************************
 
:INFO : Forcing a restart
:PWTMP   1.9360E+02  1.2500E+02  2.5905E+02
:PLANE:  PW TOTAL      2.9078 DISTAN   3.19E-02  1.10E+00 %
:CHARG:  CLM/ATOM    977.1851 DISTAN   2.89E-01  2.96E-02 %
 
Step History
        DMIX         DMIXT        Red     Pred      Trust     Lambda    MagRel    MagAbs     Beta
  1   3.5000E-02   3.5000E-02 -1.00E+00  1.00E+00 -1.00E+01  1.00E+00  3.50E-02  3.50E-02  1.00E+00
:INFO :  Note, Pratt in use
:TRUST:  Step 1.94E-01  Charge 7.50E-02 (e) CTO  2.50E-01 (e) PW  3.50E-01 (e)
:DIRM :  MEMORY  0/ 8 SCALE   1.000
Performing Pseudo Compensation
Final Pseudo Compensation Rescaling     1.00000E+00
:MIX  :   PRATT  REGULARIZATION:  1.00E-04 GREED: 0.12952                  
     
       CHARGES OF MIXED CHARGE DENSITY
:CTO   : INTERSTITIAL CHARGE =     2.921278
:CPC   : PW Pseudocharge     =     7.570317
:CTO001: CHARGE SPHERE  1    =    56.078722

:NEC03: NUCLEAR AND ELECTRONIC CHARGE     59.00000    59.00000

PW CHANGE     H    K    L      Current       Change    Residue
:PTO001:      0    0    0  4.04998545E-02 -1.846E-04 -7.847E-04
:PTO002:     -1   -1   -1 -1.29330537E-01  4.328E-04  3.203E-04
:PTO003:      0    0   -2  7.71492968E-02 -2.210E-04  1.626E-04
:PTO004:      0   -2   -2  6.82557071E-02 -2.349E-04 -2.970E-04
:PTO005:     -1   -1   -3 -6.64919479E-02  1.347E-04 -1.237E-04
:PTO006:     -2   -2   -2  1.71142031E-02 -3.048E-05  1.053E-05
:PTO007:      0    0   -4  3.28255253E-03  2.521E-05  1.238E-04
:PTO008:     -1   -3   -3 -3.17910618E-03 -5.779E-05  1.161E-04
:PTO009:      0   -2   -4  2.11159987E-04  7.554E-05 -1.333E-05
:PTO010:     -2   -2   -4 -5.91841117E-03  8.218E-05  7.725E-05
:PTO011:     -3   -3   -3  2.54944625E-03 -2.679E-05 -6.424E-05
:PTO012:     -1   -1   -5  7.24925620E-03 -7.367E-05 -1.410E-04

:ENE  : ********** TOTAL ENERGY IN Ry =       -18472.10522252

 Flat Integration
 New Mode for Coulomb Integral
 Consistent 3/8+Simpson combinations
 Extension of core to zero
 LDM version in phi
 Fifth-order quadrature in outwin


            ---------
:ITE016: 16. ITERATION
            ---------

:NATO :    1 INDEPENDENT AND    1 TOTAL ATOMS IN UNITCELL
       SUBSTANCE: blebleble                                                   

       LATTICE                      = F   
:POT  : POTENTIAL OPTION EX_LDA EC_LDA VX_LDA VC_LDA
:LAT  : LATTICE CONSTANTS= 10.11927 10.11927 10.11927    1.571    1.571    1.571
:VOL  : UNIT CELL VOLUME =     259.05267
       MODE OF CALCULATION IS       = RELA
       NON-SPINPOLARIZED CALCULATION
:IFFT  : FFT-parameters:   80   80   80 Factor: 2.00


   CONVERGENCE PARAMETER FOR PSEUDOCHARGE: NCON=  9
   MAXIMAL VALUE OF RMT(JATOM)*ABSK(NKK) : RK  =29.93932


:VKCOUL :  VK-COUL convergence: 0.232E-06
       ATOMNUMBER=  1 Pr         VCOUL-ZERO =  0.18094E+00
:FIT001: LUSE= 13 SIGMA OF V-XC FIT FOR ATOM  1  0.4722589E-04
:FIT001: LUSE= 13 SIGMA OF V-XC FIT FOR ATOM  1  0.4722589E-04
:DEN  : DENSITY INTEGRAL  =         -7070.06024978   (Ry)
       ELS_POTENTIAL_AT Z=0 and Z=0.5:  -2.41413  -2.41413
       ELS_POTENTIAL_AT Y=0 and Y=0.5:   0.00000   0.00000
:VZERO:v0,v0c,v0x  -3.36713  -2.41413  -0.95300 v5,v5c,v5x  -3.36713  -2.41413  -0.95300
:VZERY:v0,v0c,v0x  -0.68948   0.00000  -0.68948 v5,v5c,v5x  -0.68948   0.00000  -0.68948
:VZERX:v0,v0c,v0x  -0.68948   0.00000  -0.68948 v5,v5c,v5x  -0.68948   0.00000  -0.68948
:LMAX-WF:   10   Non-Spherical LMAX:   4

          ATOMIC SPHERE DEPENDENT PARAMETERS FOR ATOM  Pr        
:e__0001: OVERALL ENERGY PARAMETER IS    0.3204
          OVERALL BASIS SET ON ATOM IS LAPW
:E0_0001: E( 0)=    0.3204
             APW+lo
:E0_0001: E( 0)=   -2.1435   E(BOTTOM)=   -2.526   E(TOP)=   -1.761  4  5   168
             LOCAL ORBITAL
:E1_0001: E( 1)=    0.7204
             APW+lo
:E1_0001: E( 1)=   -0.7573   E(BOTTOM)=   -1.406   E(TOP)=   -0.109  3  4   164
             LOCAL ORBITAL
:E3_0001: E( 3)=    0.5384   E(BOTTOM)=    0.394   E(TOP)=    0.683  0  1   119
             APW+lo
:E2_0001: E( 2)=    0.3204   E(BOTTOM)=    0.168   E(TOP)= -200.000  2 -1    93
             APW+lo

       K=   0.00000   0.00000   0.00000            1
:RKM  : MATRIX SIZE   189LOs:  20  RKM= 8.07  WEIGHT= 1.00  PGR:    
       EIGENVALUES ARE:
:EIG00001:      -2.1020359   -0.7436979   -0.7436979   -0.7436979    0.2754019
:EIG00006:       0.5375041    0.5540231    0.5540231    0.5540231    0.5769069
:EIG00011:       0.5769069    0.5769069    0.6562341    0.6562341    0.6562341
:EIG00016:       0.8158518    0.8158518    1.2113989    1.4254620    1.4254620
:EIG00021:       1.4254620    1.5283689    2.1592918    2.1592918    2.1592918
:EIG00026:       2.2253074    2.2253074    2.2253074    2.4425722    2.4425722
:EIG00031:       2.7764539    2.9435303    2.9435303    2.9435303    3.3676041
:EIG00036:       3.3676041    3.5979065    3.5979065    3.5979065    3.6385570
:EIG00041:       3.6385570    3.6385570    3.7807451    3.7807451    3.7807451
:EIG00046:       4.0303332    4.0487720    4.0487720    4.0487720    4.1471474
 
:EIG00051:       4.1471474    4.1910312    4.1910312    4.1910312    4.2174812
:EIG00056:       4.2174812    4.2174812    4.3244888    4.3517428    4.4793581
:EIG00061:       4.4793581    4.4793581    4.5725258    4.5725258    4.5725258
:EIG00066:       4.7902436    5.8011510    5.8011510    5.8037002    6.1087194
:EIG00071:       6.1087194    6.1087194    6.5552503    6.5552503    6.7303335
:EIG00076:       6.7303335    6.7303335    6.7866972    6.7866972    6.7866972
:EIG00081:       7.0727744    7.0727744    7.0727744    7.1029055    7.1029055
:EIG00086:       7.1141804    7.1141804    7.1141804    7.1765783    7.1765783
:EIG00091:       7.1765783    7.2756680    7.2756680    7.2756680    7.2817446
:EIG00096:       7.2817446    7.2817446    7.3594881    7.4362095    7.5128303
 
:EIG00101:       7.5128303    7.5499606    7.5499606    7.5499606    7.5679138
:EIG00106:       7.5679138    7.5679138    7.5870389    7.5870389    7.5870389
:EIG00111:       7.6713617    7.6713617    7.9389065    7.9996456
       ********************************************************

:KPT   :      NUMBER OF K-POINTS:   165
   0.0   0.0 angle (M,z), angle (M,x) deg
 
        SPIN-ORBIT EIGENVALUES:
     K=   0.00000   0.00000   0.00000            1
      MATRIX SIZE=  228   WEIGHT= 1.00
     EIGENVALUES ARE:
          -2.1020359   -2.1020359   -0.8898586   -0.8898586   -0.6752895
          -0.6752895   -0.6752895   -0.6752895    0.2754019    0.2754019
           0.5329448    0.5329448    0.5431484    0.5431484    0.5431484
           0.5431484    0.5655830    0.5655830    0.5772448    0.5772448
           0.5840154    0.5840154    0.5840154    0.5840154    0.6525326
           0.6525326    0.6525326    0.6525326    0.6624724    0.6624724
           0.8162347    0.8162347    0.8162347    0.8162347    1.2114547
           1.2114547    1.4204506    1.4204506    1.4277441    1.4277441

           1.4277441    1.4277441    1.5283689    1.5283689    2.1544076
           2.1544076    2.1544076    2.1544076    2.1556166    2.1556166
           2.1685607    2.1685607    2.2610251    2.2610251    2.2610252
           2.2610252    2.4428567    2.4428567    2.4428567    2.4428567
           2.7764539    2.7764539    2.9430944    2.9430944    2.9437619
           2.9437619    2.9437619    2.9437619    3.3675790    3.3675790
           3.3675790    3.3675790    3.5965832    3.5965832    3.5965832
           3.5965832    3.6008017    3.6008017    3.6084404    3.6084404

           3.6550030    3.6550030    3.6550030    3.6550030    3.7807375
           3.7807375    3.7807490    3.7807490    3.7807490    3.7807490
           4.0303332    4.0303332    4.0487272    4.0487272    4.0487272
           4.0487272    4.0488671    4.0488671    4.1471474    4.1471474
           4.1471474    4.1471474    4.1908724    4.1908724    4.1910993
           4.1910993    4.1910993    4.1910993    4.2172558    4.2172558
           4.2172558    4.2172558    4.2179733    4.2179733    4.3244937
           4.3244937    4.3517428    4.3517428    4.4793000    4.4793000

           4.4793000    4.4793000    4.4794782    4.4794782
       ********************************************************
:GAP (global)   :    0.0    Ry =     0.0   eV (metal)
:GAP (this spin):    0.0    Ry =     0.0   eV (metal)
         Bandranges (emin - emax) and occupancy:
:BAN00004:   4   -0.921096   -0.889859  1.00000000
:BAN00005:   5   -0.731613   -0.675290  1.00000000
:BAN00006:   6   -0.731613   -0.675290  1.00000000
:BAN00007:   7   -0.711207   -0.675290  1.00000000
:BAN00008:   8   -0.711207   -0.675290  1.00000000
:BAN00009:   9    0.275402    0.508482  1.00000000
:BAN00010:  10    0.275402    0.508482  1.00000000
:BAN00011:  11    0.462831    0.537189  1.00000000
:BAN00012:  12    0.462831    0.537189  1.00000000
:BAN00013:  13    0.527601    0.546187  0.50000003
:BAN00014:  14    0.527601    0.546187  0.49999997
:BAN00015:  15    0.543148    0.548848  0.00000000
:BAN00016:  16    0.543148    0.548848  0.00000000
:BAN00017:  17    0.546600    0.570067  0.00000000
:BAN00018:  18    0.546600    0.570068  0.00000000
:BAN00019:  19    0.562981    0.577245  0.00000000
        Energy to separate low and high energystates:    0.22540


:NOE  : NUMBER OF ELECTRONS          =   13.000

:FER  : F E R M I - ENERGY(TETRAH.M.)=   0.5402966429
:GMA  : POTENTIAL AND CHARGE CUT-OFF  12.00 Ry**.5

:POS001: ATOM    1 X,Y,Z = 0.00000 0.00000 0.50000  MULT= 1  ZZ= 59.000  Pr        

       LMMAX  5
       LM=   0 0  4 0  4 4  6 0  6 4

:CHA001: TOTAL VALENCE CHARGE INSIDE SPHERE   1 =   9.8745    (RMT=  2.5000 )
:PCS001: PARTIAL CHARGES SPHERE =  1 S,P,D,F,      D-EG,D-T2G 
:QTL001: 2.0280 5.3579 0.6510 1.8373 0.0000 0.0000 0.0000 0.2304 0.4206 0.0000 0.0000 0.0000
        Q-s-low E-s-low   Q-p-low E-p-low   Q-d-low E-d-low   Q-f-low E-f-low
:EPL001:  1.9251 -2.0936    5.2816 -0.7780    0.0009 -0.7594    0.0002 -0.7613
        Q-s-hi  E-s-hi    Q-p-hi  E-p-hi    Q-d-hi  E-d-hi    Q-f-hi  E-f-hi 
:EPH001:  0.1029  0.4264    0.0763  0.4731    0.6501  0.4872    1.8371  0.5277

:CHA  : TOTAL VALENCE CHARGE INSIDE UNIT CELL =      13.000000

:SUM  : SUM OF EIGENVALUES =          -6.384370298


        1.ATOM      Pr                   14 CORE STATES
:1S 001: 1S               -3067.036918666 Ry
:2S 001: 2S                -492.788789137 Ry
:2PP001: 2P*               -465.888255726 Ry
:2P 001: 2P                -430.490648593 Ry
:3S 001: 3S                -105.876338775 Ry
:3PP001: 3P*                -94.414267634 Ry
:3P 001: 3P                 -87.406436464 Ry
:3DD001: 3D*                -67.333681081 Ry
:3D 001: 3D                 -65.822095899 Ry
:4S 001: 4S                 -20.561754734 Ry
:4PP001: 4P*                -16.269245989 Ry
:4P 001: 4P                 -14.742865102 Ry
:4DD001: 4D*                 -7.677754650 Ry
:4D 001: 4D                  -7.408707268 Ry
:CINT001 Core Integral Atom   1   45.999509

       DENSITY AT NUCLEUS
        JATOM        VALENCE       SEMI-CORE          CORE           TOTAL
:RTO001:   1      648.738010        0.000000   656823.082303   657471.820313
     
       CHARGES OF NEW CHARGE DENSITY
:NTO   : INTERSTITIAL CHARGE =     3.125542
:NPC   : PW Pseudocharge     =     7.650516
:NTO001: CHARGE SPHERE  1    =    55.873967

:NEC01: NUCLEAR AND ELECTRONIC CHARGE     59.00000    58.99951
     
       CHARGES OF OLD CHARGE DENSITY
:OTO   : INTERSTITIAL CHARGE =     2.921278
:OPC   : PW Pseudocharge     =     7.570317
:OTO001: CHARGE SPHERE  1    =    56.078722

:NEC02: NUCLEAR AND ELECTRONIC CHARGE     59.00000    59.00000
     
       CONVERGENCE TEST
:DTO001: DIFFERENCE IN SPHERE  1 =  0.3463501

:DIS  :  CHARGE DISTANCE       ( 0.3463501 for atom    1 spin 1)      0.3463501
 PW Mixed is           56
 
******************************************************
* MULTISECANT MIXING VER9 RELEASE 10.4.0              *
* Standard Mode with controls                        *
* Fixed density scale                                *
* Restart from converged density                     *
* Regularization       1.000E-04                     *
* Trust Upper Limit    5.000E+00                     *
* Max Number of Memory Steps    8                    *
******************************************************
 
:INFO : Forcing a restart
:PWTMP   1.9360E+02  1.2500E+02  2.5905E+02
:PLANE:  PW TOTAL      2.8975 DISTAN   4.44E-02  1.53E+00 %
:CHARG:  CLM/ATOM    977.1870 DISTAN   3.65E-01  3.74E-02 %
 
Step History
        DMIX         DMIXT        Red     Pred      Trust     Lambda    MagRel    MagAbs     Beta
  1   3.5000E-02   3.5000E-02 -1.00E+00  1.00E+00 -1.00E+01  1.00E+00  3.50E-02  3.50E-02  1.00E+00
  2   1.2952E-01   1.2952E-01 -1.00E+00  1.00E+00 -1.00E+01  1.00E+00  1.30E-01  3.76E-02  1.00E+00
:JACOBIANS    8.510E-04   2.751E-02
  
:NORMS:  1/Froebius, Min, Max, Used   0.4087E-02  0.4087E-02  0.5660E-01  0.4087E-02
:INFO :  Number of Memory Steps    1 Skipping    0
:PREDicted Charge, CTotal, PW Trust    8.096E-03   8.096E-03   9.948E-03
:PREDicted DMix, Beta, BLim   2.1586E-02  4.3108E-01  8.8300E-01

Eigenvalues, unscaled except for SY+YY
   #     SY Real        SY Imag          SS             YY         SY+YY Real      SY+YY Imag
   1   5.659514E-02   0.000000E+00   4.086622E-03   1.000000E+00   1.056595E+00   0.000000E+00
 
:DLIM :  Beta Active  8.000E-01
:BLIM :  VZERO Control Off
:TRUST:  Step 3.00E+00  Charge 6.82E-02 (e) CTO  2.27E-01 (e) PW  3.18E-01 (e)
:DIRM :  MEMORY  1/8  SCALE   1.000 RED  1.27 PRED  1.00 NEXT  0.39 BETA  0.80
:TRAVE:  Charge 8.85E-03 (e) CTO  8.85E-03 (e) PW  1.07E-02 (e)
:DIRP :  |MSR1|= 4.861E-03 |PRATT|= 4.442E-02 ANGLE=  43.3 DEGREES
:DIRQ :  |MSR1|= 1.537E-02 |PRATT|= 3.655E-01 ANGLE=  23.3 DEGREES
:DIRT :  |MSR1|= 1.612E-02 |PRATT|= 3.682E-01 ANGLE=  26.4 DEGREES
:MIX  :   MSR1   REGULARIZATION:  1.00E-04 GREED: 0.05192  Newton 1.00  0.0438                
     
       CHARGES OF MIXED CHARGE DENSITY
:CTO   : INTERSTITIAL CHARGE =     2.930126
:CPC   : PW Pseudocharge     =     7.583637
:CTO001: CHARGE SPHERE  1    =    56.069874

:NEC03: NUCLEAR AND ELECTRONIC CHARGE     59.00000    59.00000

PW CHANGE     H    K    L      Current       Change    Residue
:PTO001:      0    0    0  4.05854236E-02  8.557E-05  1.105E-03
:PTO002:     -1   -1   -1 -1.29522717E-01 -1.922E-04 -2.074E-04
:PTO003:      0    0   -2  7.72534645E-02  1.042E-04 -5.527E-05
:PTO004:      0   -2   -2  6.83551027E-02  9.940E-05  5.636E-05
:PTO005:     -1   -1   -3 -6.65469345E-02 -5.499E-05  4.460E-04
:PTO006:     -2   -2   -2  1.71261613E-02  1.196E-05 -9.934E-05
:PTO007:      0    0   -4  3.27127936E-03 -1.127E-05 -1.544E-04
:PTO008:     -1   -3   -3 -3.14306968E-03  3.604E-05  2.816E-04
:PTO009:      0   -2   -4  1.67847799E-04 -4.331E-05 -3.813E-04
:PTO010:     -2   -2   -4 -5.95795083E-03 -3.954E-05 -1.973E-04
:PTO011:     -3   -3   -3  2.55996579E-03  1.052E-05  1.003E-05
:PTO012:     -1   -1   -5  7.28429422E-03  3.504E-05  2.535E-04

:ENE  : ********** TOTAL ENERGY IN Ry =       -18472.10612396

 Flat Integration
 New Mode for Coulomb Integral
 Consistent 3/8+Simpson combinations
 Extension of core to zero
 LDM version in phi
 Fifth-order quadrature in outwin


            ---------
:ITE017: 17. ITERATION
            ---------

:NATO :    1 INDEPENDENT AND    1 TOTAL ATOMS IN UNITCELL
       SUBSTANCE: blebleble                                                   

       LATTICE                      = F   
:POT  : POTENTIAL OPTION EX_LDA EC_LDA VX_LDA VC_LDA
:LAT  : LATTICE CONSTANTS= 10.11927 10.11927 10.11927    1.571    1.571    1.571
:VOL  : UNIT CELL VOLUME =     259.05267
       MODE OF CALCULATION IS       = RELA
       NON-SPINPOLARIZED CALCULATION
:IFFT  : FFT-parameters:   80   80   80 Factor: 2.00


   CONVERGENCE PARAMETER FOR PSEUDOCHARGE: NCON=  9
   MAXIMAL VALUE OF RMT(JATOM)*ABSK(NKK) : RK  =29.93932


:VKCOUL :  VK-COUL convergence: 0.232E-06
       ATOMNUMBER=  1 Pr         VCOUL-ZERO =  0.18116E+00
:FIT001: LUSE= 13 SIGMA OF V-XC FIT FOR ATOM  1  0.4770678E-04
:FIT001: LUSE= 13 SIGMA OF V-XC FIT FOR ATOM  1  0.4770678E-04
:DEN  : DENSITY INTEGRAL  =         -7069.10594844   (Ry)
       ELS_POTENTIAL_AT Z=0 and Z=0.5:  -2.42026  -2.42026
       ELS_POTENTIAL_AT Y=0 and Y=0.5:   0.00000   0.00000
:VZERO:v0,v0c,v0x  -3.37375  -2.42026  -0.95349 v5,v5c,v5x  -3.37375  -2.42026  -0.95349
:VZERY:v0,v0c,v0x  -0.69004   0.00000  -0.69004 v5,v5c,v5x  -0.69004   0.00000  -0.69004
:VZERX:v0,v0c,v0x  -0.69004   0.00000  -0.69004 v5,v5c,v5x  -0.69004   0.00000  -0.69004
:LMAX-WF:   10   Non-Spherical LMAX:   4

          ATOMIC SPHERE DEPENDENT PARAMETERS FOR ATOM  Pr        
:e__0001: OVERALL ENERGY PARAMETER IS    0.3337
          OVERALL BASIS SET ON ATOM IS LAPW
:E0_0001: E( 0)=    0.3337
             APW+lo
:E0_0001: E( 0)=   -2.1499   E(BOTTOM)=   -2.532   E(TOP)=   -1.768  4  5   167
             LOCAL ORBITAL
:E1_0001: E( 1)=    0.7337
             APW+lo
:E1_0001: E( 1)=   -0.7628   E(BOTTOM)=   -1.410   E(TOP)=   -0.115  3  4   170
             LOCAL ORBITAL
:E3_0001: E( 3)=    0.5268   E(BOTTOM)=    0.384   E(TOP)=    0.670  0  1   115
             APW+lo
:E2_0001: E( 2)=    0.3337   E(BOTTOM)=    0.165   E(TOP)= -200.000  2 -1    93
             APW+lo

       K=   0.00000   0.00000   0.00000            1
:RKM  : MATRIX SIZE   189LOs:  20  RKM= 8.07  WEIGHT= 1.00  PGR:    
       EIGENVALUES ARE:
:EIG00001:      -2.1083376   -0.7486347   -0.7486347   -0.7486347    0.2755015
:EIG00006:       0.5269844    0.5428230    0.5428230    0.5428230    0.5650109
:EIG00011:       0.5650109    0.5650109    0.6549775    0.6549775    0.6549775
:EIG00016:       0.8139254    0.8139254    1.2104168    1.4251184    1.4251184
:EIG00021:       1.4251184    1.5295494    2.1571464    2.1571464    2.1571464
:EIG00026:       2.2239882    2.2239882    2.2239882    2.4412026    2.4412026
:EIG00031:       2.7757587    2.9433367    2.9433367    2.9433367    3.3662242
:EIG00036:       3.3662242    3.5969074    3.5969074    3.5969074    3.6386377
:EIG00041:       3.6386377    3.6386377    3.7804133    3.7804133    3.7804133
:EIG00046:       4.0297743    4.0492099    4.0492099    4.0492099    4.1478852
 
:EIG00051:       4.1478852    4.1915931    4.1915931    4.1915931    4.2180613
:EIG00056:       4.2180613    4.2180613    4.3254298    4.3515246    4.4802907
:EIG00061:       4.4802907    4.4802907    4.5733132    4.5733132    4.5733132
:EIG00066:       4.7911436    5.8003346    5.8003346    5.8032045    6.1087923
:EIG00071:       6.1087923    6.1087923    6.5513847    6.5513847    6.7267981
:EIG00076:       6.7267981    6.7267981    6.7850562    6.7850562    6.7850562
:EIG00081:       7.0723195    7.0723195    7.0723195    7.1032009    7.1032009
:EIG00086:       7.1119446    7.1119446    7.1119446    7.1766379    7.1766379
:EIG00091:       7.1766379    7.2750137    7.2750137    7.2750137    7.2816342
:EIG00096:       7.2816342    7.2816342    7.3594260    7.4365363    7.5121155
 
:EIG00101:       7.5121155    7.5504406    7.5504406    7.5504406    7.5688850
:EIG00106:       7.5688850    7.5688850    7.5872965    7.5872965    7.5872965
:EIG00111:       7.6710977    7.6710977    7.9402888    7.9984642
       ********************************************************

:KPT   :      NUMBER OF K-POINTS:   165
   0.0   0.0 angle (M,z), angle (M,x) deg
 
        SPIN-ORBIT EIGENVALUES:
     K=   0.00000   0.00000   0.00000            1
      MATRIX SIZE=  228   WEIGHT= 1.00
     EIGENVALUES ARE:
          -2.1083376   -2.1083376   -0.8951025   -0.8951025   -0.6800800
          -0.6800800   -0.6800800   -0.6800800    0.2755015    0.2755015
           0.5222259    0.5222259    0.5317888    0.5317888    0.5317888
           0.5317888    0.5544552    0.5544552    0.5655360    0.5655360
           0.5722513    0.5722513    0.5722513    0.5722513    0.6512509
           0.6512509    0.6512509    0.6512509    0.6612500    0.6612500
           0.8143145    0.8143145    0.8143145    0.8143145    1.2104703
           1.2104703    1.4200642    1.4200642    1.4274197    1.4274197

           1.4274197    1.4274197    1.5295494    1.5295494    2.1522455
           2.1522455    2.1522455    2.1522455    2.1542610    2.1542610
           2.1664466    2.1664466    2.2597287    2.2597287    2.2597287
           2.2597287    2.4414889    2.4414889    2.4414889    2.4414889
           2.7757587    2.7757587    2.9429044    2.9429044    2.9435662
           2.9435662    2.9435662    2.9435662    3.3661994    3.3661994
           3.3661994    3.3661994    3.5955826    3.5955826    3.5955826
           3.5955826    3.5998061    3.5998061    3.6085544    3.6085544

           3.6550643    3.6550643    3.6550643    3.6550643    3.7804056
           3.7804056    3.7804172    3.7804172    3.7804172    3.7804172
           4.0297743    4.0297743    4.0491647    4.0491647    4.0491647
           4.0491647    4.0493057    4.0493057    4.1478852    4.1478852
           4.1478852    4.1478852    4.1914357    4.1914357    4.1916607
           4.1916607    4.1916607    4.1916607    4.2178373    4.2178373
           4.2178373    4.2178373    4.2185501    4.2185501    4.3254347
           4.3254347    4.3515246    4.3515246    4.4802327    4.4802327

           4.4802327    4.4802327    4.4804106    4.4804106
       ********************************************************
:GAP (global)   :    0.0    Ry =     0.0   eV (metal)
:GAP (this spin):    0.0    Ry =     0.0   eV (metal)
         Bandranges (emin - emax) and occupancy:
:BAN00004:   4   -0.926082   -0.895103  1.00000000
:BAN00005:   5   -0.735956   -0.680080  1.00000000
:BAN00006:   6   -0.735956   -0.680080  1.00000000
:BAN00007:   7   -0.715697   -0.680080  1.00000000
:BAN00008:   8   -0.715697   -0.680080  1.00000000
:BAN00009:   9    0.275502    0.503841  1.00000000
:BAN00010:  10    0.275502    0.503841  1.00000000
:BAN00011:  11    0.462241    0.528330  1.00000000
:BAN00012:  12    0.462241    0.528330  1.00000000
:BAN00013:  13    0.519514    0.534900  0.50000005
:BAN00014:  14    0.519514    0.534900  0.49999995
:BAN00015:  15    0.531789    0.539375  0.00000000
:BAN00016:  16    0.531789    0.539375  0.00000000
:BAN00017:  17    0.535040    0.559173  0.00000000
:BAN00018:  18    0.535040    0.559173  0.00000000
:BAN00019:  19    0.553323    0.565536  0.00000000
        Energy to separate low and high energystates:    0.22550


:NOE  : NUMBER OF ELECTRONS          =   13.000

:FER  : F E R M I - ENERGY(TETRAH.M.)=   0.5300402319
:GMA  : POTENTIAL AND CHARGE CUT-OFF  12.00 Ry**.5

:POS001: ATOM    1 X,Y,Z = 0.00000 0.00000 0.50000  MULT= 1  ZZ= 59.000  Pr        

       LMMAX  5
       LM=   0 0  4 0  4 4  6 0  6 4

:CHA001: TOTAL VALENCE CHARGE INSIDE SPHERE   1 =  10.0241    (RMT=  2.5000 )
:PCS001: PARTIAL CHARGES SPHERE =  1 S,P,D,F,      D-EG,D-T2G 
:QTL001: 2.0268 5.3535 0.5934 2.0501 0.0000 0.0000 0.0000 0.2125 0.3809 0.0000 0.0000 0.0000
        Q-s-low E-s-low   Q-p-low E-p-low   Q-d-low E-d-low   Q-f-low E-f-low
:EPL001:  1.9255 -2.1000    5.2860 -0.7827    0.0009 -0.7640    0.0002 -0.7660
        Q-s-hi  E-s-hi    Q-p-hi  E-p-hi    Q-d-hi  E-d-hi    Q-f-hi  E-f-hi 
:EPH001:  0.1013  0.4243    0.0676  0.4649    0.5925  0.4811    2.0498  0.5188

:CHA  : TOTAL VALENCE CHARGE INSIDE UNIT CELL =      13.000000

:SUM  : SUM OF EIGENVALUES =          -6.449091767


        1.ATOM      Pr                   14 CORE STATES
:1S 001: 1S               -3067.058868429 Ry
:2S 001: 2S                -492.810699977 Ry
:2PP001: 2P*               -465.910175708 Ry
:2P 001: 2P                -430.512564589 Ry
:3S 001: 3S                -105.897622641 Ry
:3PP001: 3P*                -94.435604270 Ry
:3P 001: 3P                 -87.427682675 Ry
:3DD001: 3D*                -67.355099614 Ry
:3D 001: 3D                 -65.843491198 Ry
:4S 001: 4S                 -20.578578167 Ry
:4PP001: 4P*                -16.285794970 Ry
:4P 001: 4P                 -14.758987476 Ry
:4DD001: 4D*                 -7.693120644 Ry
:4D 001: 4D                  -7.423927477 Ry
:CINT001 Core Integral Atom   1   45.999513

       DENSITY AT NUCLEUS
        JATOM        VALENCE       SEMI-CORE          CORE           TOTAL
:RTO001:   1      649.057811        0.000000   656824.017422   657473.075233
     
       CHARGES OF NEW CHARGE DENSITY
:NTO   : INTERSTITIAL CHARGE =     2.975917
:NPC   : PW Pseudocharge     =     7.600508
:NTO001: CHARGE SPHERE  1    =    56.023596

:NEC01: NUCLEAR AND ELECTRONIC CHARGE     59.00000    58.99951
     
       CHARGES OF OLD CHARGE DENSITY
:OTO   : INTERSTITIAL CHARGE =     2.930126
:OPC   : PW Pseudocharge     =     7.583637
:OTO001: CHARGE SPHERE  1    =    56.069874

:NEC02: NUCLEAR AND ELECTRONIC CHARGE     59.00000    59.00000
     
       CONVERGENCE TEST
:DTO001: DIFFERENCE IN SPHERE  1 =  0.0751420

:DIS  :  CHARGE DISTANCE       ( 0.0751420 for atom    1 spin 1)      0.0751420
 PW Mixed is           56
 
******************************************************
* MULTISECANT MIXING VER9 RELEASE 10.4.0              *
* Standard Mode with controls                        *
* Fixed density scale                                *
* Regularization       1.000E-04                     *
* Trust Upper Limit    5.000E+00                     *
* Max Number of Memory Steps    8                    *
******************************************************
 
:PWTMP   1.9360E+02  1.2500E+02  2.5905E+02
:PLANE:  PW TOTAL      2.9022 DISTAN   1.05E-02  3.62E-01 %
:CHARG:  CLM/ATOM    977.1858 DISTAN   1.32E-01  1.35E-02 %
 
Step History
        DMIX         DMIXT        Red     Pred      Trust     Lambda    MagRel    MagAbs     Beta
  1   3.5000E-02   3.5000E-02 -1.00E+00  1.00E+00 -1.00E+01  1.00E+00  3.50E-02  3.50E-02  1.00E+00
  2   1.2952E-01   1.2952E-01  1.27E+00  1.00E+00 -1.00E+01  1.00E+00  1.30E-01  3.76E-02  1.00E+00
  3   5.1923E-02   5.1923E-02 -1.00E+00  3.88E-01  3.00E+00  1.00E+00  4.38E-02  1.61E-02  8.00E-01
:JACOBIANS    1.468E-03   2.437E-01
  
:NORMS:  1/Froebius, Min, Max, Used   0.6655E-01  0.6366E-01  0.4048E+00  0.7937E-01
:INFO :  Number of Memory Steps    2 Skipping    0
:INFO :  SLambda=    3.0000000000  Max    3.0000000000
:PREDicted Charge, CTotal, PW Trust    1.405E-02   1.405E-02   1.572E-02
:PREDicted DMix, Beta, BLim   3.8986E-01  2.1029E+00  4.0676E-01

Eigenvalues, unscaled except for SY+YY
   #     SY Real        SY Imag          SS             YY         SY+YY Real      SY+YY Imag
   1   1.127547E-01   0.000000E+00   8.085510E-03   1.995029E+00   2.333358E+00   0.000000E+00
   2   2.041280E-03   0.000000E+00   7.718301E-04   4.970752E-03   1.103011E-02   0.000000E+00
 
:INFO :  Singular value  2.333E+00 Weight  1.000E+00 Projection  4.635E-02
:INFO :  Singular value  1.103E-02 Weight  9.997E-01 Projection -1.566E+00
:RANK :  ACTIVE   2.00/2  =  99.98 % ; YY RANK   2.00/2  =  99.92 %
 
:BLIM :  VZERO Control Off
:TRUST:  Step 9.26E-01  Charge 6.82E-02 (e) CTO  2.27E-01 (e) PW  3.18E-01 (e)
:DIRM :  MEMORY  2/8  SCALE   1.000 RED  0.36 PRED  0.39 NEXT  0.30 
:TRAVE:  Charge 6.87E-03 (e) CTO  6.87E-03 (e) PW  7.74E-03 (e)
:DIRP :  |MSR1|= 2.244E-03 |PRATT|= 1.052E-02 ANGLE=  31.2 DEGREES
:DIRQ :  |MSR1|= 4.663E-02 |PRATT|= 1.318E-01 ANGLE=  26.7 DEGREES
:DIRT :  |MSR1|= 4.669E-02 |PRATT|= 1.322E-01 ANGLE=  26.8 DEGREES
:MIX  :   MSE1   REGULARIZATION:  2.00E-04 GREED: 0.12981  Newton 1.00  0.3532                
     
       CHARGES OF MIXED CHARGE DENSITY
:CTO   : INTERSTITIAL CHARGE =     2.935012
:CPC   : PW Pseudocharge     =     7.588646
:CTO001: CHARGE SPHERE  1    =    56.064988

:NEC03: NUCLEAR AND ELECTRONIC CHARGE     59.00000    59.00000

PW CHANGE     H    K    L      Current       Change    Residue
:PTO001:      0    0    0  4.06236235E-02  3.820E-05  2.486E-04
:PTO002:     -1   -1   -1 -1.29555445E-01 -3.273E-05  1.653E-05
:PTO003:      0    0   -2  7.72951434E-02  4.168E-05  1.829E-05
:PTO004:      0   -2   -2  6.83192047E-02 -3.590E-05 -1.003E-04
:PTO005:     -1   -1   -3 -6.64861339E-02  6.080E-05  2.064E-04
:PTO006:     -2   -2   -2  1.71071989E-02 -1.896E-05 -5.413E-05
:PTO007:      0    0   -4  3.26573897E-03 -5.540E-06 -3.243E-05
:PTO008:     -1   -3   -3 -3.05195306E-03  9.112E-05  1.945E-04
:PTO009:      0   -2   -4  8.44198632E-05 -8.343E-05 -2.007E-04
:PTO010:     -2   -2   -4 -5.99488239E-03 -3.693E-05 -7.679E-05
:PTO011:     -3   -3   -3  2.55552541E-03 -4.440E-06 -1.605E-05
:PTO012:     -1   -1   -5  7.30595563E-03  2.166E-05  7.172E-05

:ENE  : ********** TOTAL ENERGY IN Ry =       -18472.10406057

 Flat Integration
 New Mode for Coulomb Integral
 Consistent 3/8+Simpson combinations
 Extension of core to zero
 LDM version in phi
 Fifth-order quadrature in outwin


            ---------
:ITE018: 18. ITERATION
            ---------

:NATO :    1 INDEPENDENT AND    1 TOTAL ATOMS IN UNITCELL
       SUBSTANCE: blebleble                                                   

       LATTICE                      = F   
:POT  : POTENTIAL OPTION EX_LDA EC_LDA VX_LDA VC_LDA
:LAT  : LATTICE CONSTANTS= 10.11927 10.11927 10.11927    1.571    1.571    1.571
:VOL  : UNIT CELL VOLUME =     259.05267
       MODE OF CALCULATION IS       = RELA
       NON-SPINPOLARIZED CALCULATION
:IFFT  : FFT-parameters:   80   80   80 Factor: 2.00


   CONVERGENCE PARAMETER FOR PSEUDOCHARGE: NCON=  9
   MAXIMAL VALUE OF RMT(JATOM)*ABSK(NKK) : RK  =29.93932


:VKCOUL :  VK-COUL convergence: 0.216E-06
       ATOMNUMBER=  1 Pr         VCOUL-ZERO =  0.18127E+00
:FIT001: LUSE= 13 SIGMA OF V-XC FIT FOR ATOM  1  0.4456207E-04
:FIT001: LUSE= 13 SIGMA OF V-XC FIT FOR ATOM  1  0.4456207E-04
:DEN  : DENSITY INTEGRAL  =         -7068.63349237   (Ry)
       ELS_POTENTIAL_AT Z=0 and Z=0.5:  -2.42298  -2.42298
       ELS_POTENTIAL_AT Y=0 and Y=0.5:   0.00000   0.00000
:VZERO:v0,v0c,v0x  -3.37708  -2.42298  -0.95410 v5,v5c,v5x  -3.37708  -2.42298  -0.95410
:VZERY:v0,v0c,v0x  -0.69034   0.00000  -0.69034 v5,v5c,v5x  -0.69034   0.00000  -0.69034
:VZERX:v0,v0c,v0x  -0.69034   0.00000  -0.69034 v5,v5c,v5x  -0.69034   0.00000  -0.69034
:LMAX-WF:   10   Non-Spherical LMAX:   4

          ATOMIC SPHERE DEPENDENT PARAMETERS FOR ATOM  Pr        
:e__0001: OVERALL ENERGY PARAMETER IS    0.3312
          OVERALL BASIS SET ON ATOM IS LAPW
:E0_0001: E( 0)=    0.3312
             APW+lo
:E0_0001: E( 0)=   -2.1529   E(BOTTOM)=   -2.534   E(TOP)=   -1.772  4  5   169
             LOCAL ORBITAL
:E1_0001: E( 1)=    0.7312
             APW+lo
:E1_0001: E( 1)=   -0.7653   E(BOTTOM)=   -1.412   E(TOP)=   -0.118  3  4   166
             LOCAL ORBITAL
:E3_0001: E( 3)=    0.5217   E(BOTTOM)=    0.379   E(TOP)=    0.664  0  1   118
             APW+lo
:E2_0001: E( 2)=    0.3312   E(BOTTOM)=    0.163   E(TOP)= -200.000  2 -1    95
             APW+lo

       K=   0.00000   0.00000   0.00000            1
:RKM  : MATRIX SIZE   189LOs:  20  RKM= 8.07  WEIGHT= 1.00  PGR:    
       EIGENVALUES ARE:
:EIG00001:      -2.1112097   -0.7509090   -0.7509090   -0.7509090    0.2756352
:EIG00006:       0.5222051    0.5378809    0.5378809    0.5378809    0.5597483
:EIG00011:       0.5597483    0.5597483    0.6543804    0.6543804    0.6543804
:EIG00016:       0.8130604    0.8130604    1.2100371    1.4251147    1.4251147
:EIG00021:       1.4251147    1.5302678    2.1564250    2.1564250    2.1564250
:EIG00026:       2.2234173    2.2234173    2.2234173    2.4408255    2.4408255
:EIG00031:       2.7755320    2.9432790    2.9432790    2.9432790    3.3660719
:EIG00036:       3.3660719    3.5968165    3.5968165    3.5968165    3.6387944
:EIG00041:       3.6387944    3.6387944    3.7804017    3.7804017    3.7804017
:EIG00046:       4.0297505    4.0495387    4.0495387    4.0495387    4.1482649
 
:EIG00051:       4.1482649    4.1918905    4.1918905    4.1918905    4.2184104
:EIG00056:       4.2184104    4.2184104    4.3259037    4.3516138    4.4808684
:EIG00061:       4.4808684    4.4808684    4.5737696    4.5737696    4.5737696
:EIG00066:       4.7916291    5.8005392    5.8005392    5.8034127    6.1089994
:EIG00071:       6.1089994    6.1089994    6.5510702    6.5510702    6.7265618
:EIG00076:       6.7265618    6.7265618    6.7846650    6.7846650    6.7846650
:EIG00081:       7.0725514    7.0725514    7.0725514    7.1034716    7.1034716
:EIG00086:       7.1121087    7.1121087    7.1121087    7.1768563    7.1768563
:EIG00091:       7.1768563    7.2752138    7.2752138    7.2752138    7.2818380
:EIG00096:       7.2818380    7.2818380    7.3598854    7.4367581    7.5124238
 
:EIG00101:       7.5124238    7.5508972    7.5508972    7.5508972    7.5694518
:EIG00106:       7.5694518    7.5694518    7.5877864    7.5877864    7.5877864
:EIG00111:       7.6715722    7.6715722    7.9410077    7.9984391
       ********************************************************

:KPT   :      NUMBER OF K-POINTS:   165
   0.0   0.0 angle (M,z), angle (M,x) deg
 
        SPIN-ORBIT EIGENVALUES:
     K=   0.00000   0.00000   0.00000            1
      MATRIX SIZE=  228   WEIGHT= 1.00
     EIGENVALUES ARE:
          -2.1112097   -2.1112097   -0.8975108   -0.8975108   -0.6822888
          -0.6822888   -0.6822888   -0.6822888    0.2756352    0.2756352
           0.5173687    0.5173687    0.5267731    0.5267731    0.5267731
           0.5267731    0.5495454    0.5495454    0.5603459    0.5603459
           0.5670502    0.5670502    0.5670502    0.5670502    0.6506438
           0.6506438    0.6506438    0.6506438    0.6606671    0.6606671
           0.8134521    0.8134521    0.8134521    0.8134521    1.2100896
           1.2100896    1.4200424    1.4200424    1.4274241    1.4274241

           1.4274241    1.4274241    1.5302678    1.5302678    2.1515255
           2.1515255    2.1515255    2.1515255    2.1536833    2.1536833
           2.1657236    2.1657236    2.2591646    2.2591646    2.2591646
           2.2591646    2.4411115    2.4411115    2.4411115    2.4411115
           2.7755320    2.7755320    2.9428482    2.9428482    2.9435078
           2.9435078    2.9435078    2.9435078    3.3660472    3.3660472
           3.3660472    3.3660472    3.5954937    3.5954937    3.5954937
           3.5954937    3.5997106    3.5997106    3.6087392    3.6087392

           3.6552057    3.6552057    3.6552057    3.6552057    3.7803939
           3.7803939    3.7804055    3.7804055    3.7804055    3.7804055
           4.0297505    4.0297505    4.0494934    4.0494934    4.0494934
           4.0494934    4.0496347    4.0496347    4.1482649    4.1482649
           4.1482649    4.1482649    4.1917336    4.1917336    4.1919579
           4.1919579    4.1919579    4.1919579    4.2181870    4.2181870
           4.2181870    4.2181870    4.2188978    4.2188978    4.3259086
           4.3259086    4.3516138    4.3516138    4.4808106    4.4808106

           4.4808106    4.4808106    4.4809880    4.4809880
       ********************************************************
:GAP (global)   :    0.0    Ry =     0.0   eV (metal)
:GAP (this spin):    0.0    Ry =     0.0   eV (metal)
         Bandranges (emin - emax) and occupancy:
:BAN00004:   4   -0.928356   -0.897511  1.00000000
:BAN00005:   5   -0.737959   -0.682289  1.00000000
:BAN00006:   6   -0.737959   -0.682289  1.00000000
:BAN00007:   7   -0.717767   -0.682289  1.00000000
:BAN00008:   8   -0.717767   -0.682289  1.00000000
:BAN00009:   9    0.275635    0.501525  1.00000000
:BAN00010:  10    0.275635    0.501525  1.00000000
:BAN00011:  11    0.461964    0.524249  1.00000000
:BAN00012:  12    0.461964    0.524249  1.00000000
:BAN00013:  13    0.515762    0.529839  0.50000006
:BAN00014:  14    0.515762    0.529839  0.49999994
:BAN00015:  15    0.526773    0.535219  0.00000000
:BAN00016:  16    0.526773    0.535219  0.00000000
:BAN00017:  17    0.529913    0.554257  0.00000000
:BAN00018:  18    0.529913    0.554257  0.00000000
:BAN00019:  19    0.549025    0.560346  0.00000000
        Energy to separate low and high energystates:    0.22564


:NOE  : NUMBER OF ELECTRONS          =   13.000

:FER  : F E R M I - ENERGY(TETRAH.M.)=   0.5254489267
:GMA  : POTENTIAL AND CHARGE CUT-OFF  12.00 Ry**.5

:POS001: ATOM    1 X,Y,Z = 0.00000 0.00000 0.50000  MULT= 1  ZZ= 59.000  Pr        

       LMMAX  5
       LM=   0 0  4 0  4 4  6 0  6 4

:CHA001: TOTAL VALENCE CHARGE INSIDE SPHERE   1 =  10.0942    (RMT=  2.5000 )
:PCS001: PARTIAL CHARGES SPHERE =  1 S,P,D,F,      D-EG,D-T2G 
:QTL001: 2.0262 5.3517 0.5664 2.1497 0.0000 0.0000 0.0000 0.2044 0.3621 0.0000 0.0000 0.0000
        Q-s-low E-s-low   Q-p-low E-p-low   Q-d-low E-d-low   Q-f-low E-f-low
:EPL001:  1.9257 -2.1029    5.2879 -0.7848    0.0009 -0.7661    0.0002 -0.7681
        Q-s-hi  E-s-hi    Q-p-hi  E-p-hi    Q-d-hi  E-d-hi    Q-f-hi  E-f-hi 
:EPH001:  0.1005  0.4234    0.0637  0.4611    0.5656  0.4783    2.1495  0.5148

:CHA  : TOTAL VALENCE CHARGE INSIDE UNIT CELL =      13.000000

:SUM  : SUM OF EIGENVALUES =          -6.479106979


        1.ATOM      Pr                   14 CORE STATES
:1S 001: 1S               -3067.071762511 Ry
:2S 001: 2S                -492.822847697 Ry
:2PP001: 2P*               -465.922486759 Ry
:2P 001: 2P                -430.524814120 Ry
:3S 001: 3S                -105.908152442 Ry
:3PP001: 3P*                -94.446229989 Ry
:3P 001: 3P                 -87.438197466 Ry
:3DD001: 3D*                -67.365880786 Ry
:3D 001: 3D                 -65.854236720 Ry
:4S 001: 4S                 -20.586110412 Ry
:4PP001: 4P*                -16.293202699 Ry
:4P 001: 4P                 -14.766179896 Ry
:4DD001: 4D*                 -7.699972941 Ry
:4D 001: 4D                  -7.430709033 Ry
:CINT001 Core Integral Atom   1   45.999515

       DENSITY AT NUCLEUS
        JATOM        VALENCE       SEMI-CORE          CORE           TOTAL
:RTO001:   1      649.160447        0.000000   656824.755990   657473.916437
     
       CHARGES OF NEW CHARGE DENSITY
:NTO   : INTERSTITIAL CHARGE =     2.905756
:NPC   : PW Pseudocharge     =     7.577463
:NTO001: CHARGE SPHERE  1    =    56.093759

:NEC01: NUCLEAR AND ELECTRONIC CHARGE     59.00000    58.99951
     
       CHARGES OF OLD CHARGE DENSITY
:OTO   : INTERSTITIAL CHARGE =     2.935012
:OPC   : PW Pseudocharge     =     7.588646
:OTO001: CHARGE SPHERE  1    =    56.064988

:NEC02: NUCLEAR AND ELECTRONIC CHARGE     59.00000    59.00000
     
       CONVERGENCE TEST
:DTO001: DIFFERENCE IN SPHERE  1 =  0.0531003

:DIS  :  CHARGE DISTANCE       ( 0.0531003 for atom    1 spin 1)      0.0531003
 PW Mixed is           56
 
******************************************************
* MULTISECANT MIXING VER9 RELEASE 10.4.0              *
* Standard Mode with controls                        *
* Fixed density scale                                *
* Regularization       1.000E-04                     *
* Trust Upper Limit    5.000E+00                     *
* Max Number of Memory Steps    8                    *
******************************************************
 
:PWTMP   1.9360E+02  1.2500E+02  2.5905E+02
:PLANE:  PW TOTAL      2.9034 DISTAN   6.30E-03  2.17E-01 %
:CHARG:  CLM/ATOM    977.1826 DISTAN   8.13E-02  8.32E-03 %
 
Step History
        DMIX         DMIXT        Red     Pred      Trust     Lambda    MagRel    MagAbs     Beta
  1   3.5000E-02   3.5000E-02 -1.00E+00  1.00E+00 -1.00E+01  1.00E+00  3.50E-02  3.50E-02  1.00E+00
  2   1.2952E-01   1.2952E-01  1.27E+00  1.00E+00 -1.00E+01  1.00E+00  1.30E-01  3.76E-02  1.00E+00
  3   5.1923E-02   5.1923E-02  3.59E-01  3.88E-01  3.00E+00  3.00E+00  4.38E-02  1.61E-02  8.00E-01
  4   1.2981E-01   1.2981E-01 -1.00E+00  3.00E-01  9.26E-01  1.00E+00  3.53E-01  4.67E-02  1.00E+00
:JACOBIANS    3.699E-03   6.468E-01
  
:NORMS:  1/Froebius, Min, Max, Used   0.2687E+00  0.2539E+00  0.9266E+00  0.2743E+00
:INFO :  Number of Memory Steps    3 Skipping    0
:INFO :  SLambda=    3.0000000000  Max    3.0000000000
:PREDicted Charge, CTotal, PW Trust    4.477E-03   4.477E-03   2.940E-03
:PREDicted DMix, Beta, BLim   2.5913E-01  2.0713E+00  9.4812E-01

Eigenvalues, unscaled except for SY+YY
   #     SY Real        SY Imag          SS             YY         SY+YY Real      SY+YY Imag
   1   4.917793E-05   0.000000E+00   2.081194E-01   2.765769E+00   3.252355E+00   0.000000E+00
   2   1.389519E-01   0.000000E+00   8.440466E-03   2.337762E-01   8.699036E-01   0.000000E+00
   3   2.352861E-01   0.000000E+00   5.363341E-06   4.552535E-04   6.025432E-04   0.000000E+00
 
:INFO :  Singular value  3.253E+00 Weight  1.000E+00 Projection -2.229E-02
:INFO :  Singular value  8.705E-01 Weight  1.000E+00 Projection -1.346E-01
:INFO :  Singular value  6.021E-04 Weight  8.258E-01 Projection -2.830E-01
:RANK :  ACTIVE   2.83/3  =  94.19 % ; YY RANK   2.73/3  =  91.01 %
 
:BLIM :  VZERO Control Off
:TRUST:  Step 1.46E+00  Charge 6.82E-02 (e) CTO  2.27E-01 (e) PW  3.18E-01 (e)
:DIRM :  MEMORY  3/8  SCALE   1.000 RED  0.62 PRED  0.30 NEXT  0.07 
:TRAVE:  Charge 3.64E-03 (e) CTO  3.64E-03 (e) PW  4.58E-03 (e)
:DIRP :  |MSR1|= 2.075E-03 |PRATT|= 6.296E-03 ANGLE=  64.7 DEGREES
:DIRQ :  |MSR1|= 4.974E-02 |PRATT|= 8.134E-02 ANGLE=  37.5 DEGREES
:DIRT :  |MSR1|= 4.979E-02 |PRATT|= 8.158E-02 ANGLE=  37.6 DEGREES
:MIX  :   MSE1   REGULARIZATION:  2.77E-04 GREED: 0.17879  Newton 1.00  0.6102                
     
       CHARGES OF MIXED CHARGE DENSITY
:CTO   : INTERSTITIAL CHARGE =     2.934591
:CPC   : PW Pseudocharge     =     7.586095
:CTO001: CHARGE SPHERE  1    =    56.065409

:NEC03: NUCLEAR AND ELECTRONIC CHARGE     59.00000    59.00000

PW CHANGE     H    K    L      Current       Change    Residue
:PTO001:      0    0    0  4.06121516E-02 -1.147E-05 -1.493E-04
:PTO002:     -1   -1   -1 -1.29478626E-01  7.682E-05  5.879E-05
:PTO003:      0    0   -2  7.72826385E-02 -1.250E-05  7.201E-05
:PTO004:      0   -2   -2  6.82258033E-02 -9.340E-05 -8.595E-05
:PTO005:     -1   -1   -3 -6.63971149E-02  8.902E-05 -6.638E-06
:PTO006:     -2   -2   -2  1.70830373E-02 -2.416E-05 -1.780E-06
:PTO007:      0    0   -4  3.26688523E-03  1.146E-06  2.482E-05
:PTO008:     -1   -3   -3 -2.98002813E-03  7.192E-05  7.484E-05
:PTO009:      0   -2   -4  2.26871096E-05 -6.173E-05 -5.490E-05
:PTO010:     -2   -2   -4 -6.00772951E-03 -1.285E-05  4.361E-06
:PTO011:     -3   -3   -3  2.54314774E-03 -1.238E-05 -2.330E-05
:PTO012:     -1   -1   -5  7.30904005E-03  3.084E-06 -1.463E-05

:ENE  : ********** TOTAL ENERGY IN Ry =       -18472.10403972

 Flat Integration
 New Mode for Coulomb Integral
 Consistent 3/8+Simpson combinations
 Extension of core to zero
 LDM version in phi
 Fifth-order quadrature in outwin


            ---------
:ITE019: 19. ITERATION
            ---------

:NATO :    1 INDEPENDENT AND    1 TOTAL ATOMS IN UNITCELL
       SUBSTANCE: blebleble                                                   

       LATTICE                      = F   
:POT  : POTENTIAL OPTION EX_LDA EC_LDA VX_LDA VC_LDA
:LAT  : LATTICE CONSTANTS= 10.11927 10.11927 10.11927    1.571    1.571    1.571
:VOL  : UNIT CELL VOLUME =     259.05267
       MODE OF CALCULATION IS       = RELA
       NON-SPINPOLARIZED CALCULATION
:IFFT  : FFT-parameters:   80   80   80 Factor: 2.00


   CONVERGENCE PARAMETER FOR PSEUDOCHARGE: NCON=  9
   MAXIMAL VALUE OF RMT(JATOM)*ABSK(NKK) : RK  =29.93932


:VKCOUL :  VK-COUL convergence: 0.199E-06
       ATOMNUMBER=  1 Pr         VCOUL-ZERO =  0.18126E+00
:FIT001: LUSE= 13 SIGMA OF V-XC FIT FOR ATOM  1  0.4101985E-04
:FIT001: LUSE= 13 SIGMA OF V-XC FIT FOR ATOM  1  0.4101985E-04
:DEN  : DENSITY INTEGRAL  =         -7068.74664824   (Ry)
       ELS_POTENTIAL_AT Z=0 and Z=0.5:  -2.42207  -2.42207
       ELS_POTENTIAL_AT Y=0 and Y=0.5:   0.00000   0.00000
:VZERO:v0,v0c,v0x  -3.37655  -2.42207  -0.95448 v5,v5c,v5x  -3.37655  -2.42207  -0.95448
:VZERY:v0,v0c,v0x  -0.69031   0.00000  -0.69031 v5,v5c,v5x  -0.69031   0.00000  -0.69031
:VZERX:v0,v0c,v0x  -0.69031   0.00000  -0.69031 v5,v5c,v5x  -0.69031   0.00000  -0.69031
:LMAX-WF:   10   Non-Spherical LMAX:   4

          ATOMIC SPHERE DEPENDENT PARAMETERS FOR ATOM  Pr        
:e__0001: OVERALL ENERGY PARAMETER IS    0.3274
          OVERALL BASIS SET ON ATOM IS LAPW
:E0_0001: E( 0)=    0.3274
             APW+lo
:E0_0001: E( 0)=   -2.1519   E(BOTTOM)=   -2.533   E(TOP)=   -1.770  4  5   170
             LOCAL ORBITAL
:E1_0001: E( 1)=    0.7274
             APW+lo
:E1_0001: E( 1)=   -0.7645   E(BOTTOM)=   -1.411   E(TOP)=   -0.117  3  4   163
             LOCAL ORBITAL
:E3_0001: E( 3)=    0.5236   E(BOTTOM)=    0.381   E(TOP)=    0.666  0  1   118
             APW+lo
:E2_0001: E( 2)=    0.3274   E(BOTTOM)=    0.164   E(TOP)= -200.000  2 -1    96
             APW+lo

       K=   0.00000   0.00000   0.00000            1
:RKM  : MATRIX SIZE   189LOs:  20  RKM= 8.07  WEIGHT= 1.00  PGR:    
       EIGENVALUES ARE:
:EIG00001:      -2.1102469   -0.7501778   -0.7501778   -0.7501778    0.2757258
:EIG00006:       0.5239002    0.5397676    0.5397676    0.5397676    0.5617506
:EIG00011:       0.5617506    0.5617506    0.6545611    0.6545611    0.6545611
:EIG00016:       0.8133681    0.8133681    1.2102480    1.4253254    1.4253254
:EIG00021:       1.4253254    1.5302974    2.1568468    2.1568468    2.1568468
:EIG00026:       2.2236586    2.2236586    2.2236586    2.4411213    2.4411213
:EIG00031:       2.7757222    2.9433454    2.9433454    2.9433454    3.3664636
:EIG00036:       3.3664636    3.5970819    3.5970819    3.5970819    3.6389086
:EIG00041:       3.6389086    3.6389086    3.7805040    3.7805040    3.7805040
:EIG00046:       4.0300020    4.0495574    4.0495574    4.0495574    4.1482019
 
:EIG00051:       4.1482019    4.1918495    4.1918495    4.1918495    4.2184129
:EIG00056:       4.2184129    4.2184129    4.3258190    4.3517412    4.4808688
:EIG00061:       4.4808688    4.4808688    4.5737553    4.5737553    4.5737553
:EIG00066:       4.7915813    5.8008626    5.8008626    5.8036651    6.1090968
:EIG00071:       6.1090968    6.1090968    6.5519849    6.5519849    6.7274202
:EIG00076:       6.7274202    6.7274202    6.7850134    6.7850134    6.7850134
:EIG00081:       7.0727614    7.0727614    7.0727614    7.1034888    7.1034888
:EIG00086:       7.1127720    7.1127720    7.1127720    7.1769390    7.1769390
:EIG00091:       7.1769390    7.2754745    7.2754745    7.2754745    7.2819560
:EIG00096:       7.2819560    7.2819560    7.3601387    7.4367475    7.5127534
 
:EIG00101:       7.5127534    7.5509798    7.5509798    7.5509798    7.5694391
:EIG00106:       7.5694391    7.5694391    7.5879364    7.5879364    7.5879364
:EIG00111:       7.6718407    7.6718407    7.9409037    7.9987806
       ********************************************************

:KPT   :      NUMBER OF K-POINTS:   165
   0.0   0.0 angle (M,z), angle (M,x) deg
 
        SPIN-ORBIT EIGENVALUES:
     K=   0.00000   0.00000   0.00000            1
      MATRIX SIZE=  228   WEIGHT= 1.00
     EIGENVALUES ARE:
          -2.1102469   -2.1102469   -0.8967287   -0.8967287   -0.6815813
          -0.6815813   -0.6815813   -0.6815813    0.2757258    0.2757258
           0.5191066    0.5191066    0.5286862    0.5286862    0.5286862
           0.5286862    0.5514209    0.5514209    0.5623074    0.5623074
           0.5690303    0.5690303    0.5690303    0.5690303    0.6508284
           0.6508284    0.6508284    0.6508284    0.6608429    0.6608429
           0.8137588    0.8137588    0.8137588    0.8137588    1.2103008
           1.2103008    1.4202601    1.4202601    1.4276315    1.4276315

           1.4276315    1.4276315    1.5302974    1.5302974    2.1519520
           2.1519520    2.1519520    2.1519520    2.1539301    2.1539301
           2.1661372    2.1661372    2.2594029    2.2594029    2.2594029
           2.2594029    2.4414068    2.4414068    2.4414068    2.4414068
           2.7757222    2.7757222    2.9429139    2.9429139    2.9435745
           2.9435745    2.9435745    2.9435745    3.3664389    3.3664389
           3.3664389    3.3664389    3.5957600    3.5957600    3.5957600
           3.5957600    3.5999738    3.5999738    3.6088520    3.6088520

           3.6553208    3.6553208    3.6553208    3.6553208    3.7804963
           3.7804963    3.7805079    3.7805079    3.7805079    3.7805079
           4.0300020    4.0300020    4.0495122    4.0495122    4.0495122
           4.0495122    4.0496535    4.0496535    4.1482019    4.1482019
           4.1482019    4.1482019    4.1916925    4.1916925    4.1919170
           4.1919170    4.1919170    4.1919170    4.2181892    4.2181892
           4.2181892    4.2181892    4.2189009    4.2189009    4.3258239
           4.3258239    4.3517412    4.3517412    4.4808110    4.4808110

           4.4808110    4.4808110    4.4809883    4.4809883
       ********************************************************
:GAP (global)   :    0.0    Ry =     0.0   eV (metal)
:GAP (this spin):    0.0    Ry =     0.0   eV (metal)
         Bandranges (emin - emax) and occupancy:
:BAN00004:   4   -0.927617   -0.896729  1.00000000
:BAN00005:   5   -0.737315   -0.681581  1.00000000
:BAN00006:   6   -0.737315   -0.681581  1.00000000
:BAN00007:   7   -0.717102   -0.681581  1.00000000
:BAN00008:   8   -0.717102   -0.681581  1.00000000
:BAN00009:   9    0.275726    0.502489  1.00000000
:BAN00010:  10    0.275726    0.502489  1.00000000
:BAN00011:  11    0.462067    0.525859  1.00000000
:BAN00012:  12    0.462067    0.525859  1.00000000
:BAN00013:  13    0.517215    0.531763  0.50000003
:BAN00014:  14    0.517215    0.531763  0.49999997
:BAN00015:  15    0.528686    0.536803  0.00000000
:BAN00016:  16    0.528686    0.536803  0.00000000
:BAN00017:  17    0.531849    0.556064  0.00000000
:BAN00018:  18    0.531849    0.556064  0.00000000
:BAN00019:  19    0.550674    0.562307  0.00000000
        Energy to separate low and high energystates:    0.22573


:NOE  : NUMBER OF ELECTRONS          =   13.000

:FER  : F E R M I - ENERGY(TETRAH.M.)=   0.5271917753
:GMA  : POTENTIAL AND CHARGE CUT-OFF  12.00 Ry**.5

:POS001: ATOM    1 X,Y,Z = 0.00000 0.00000 0.50000  MULT= 1  ZZ= 59.000  Pr        

       LMMAX  5
       LM=   0 0  4 0  4 4  6 0  6 4

:CHA001: TOTAL VALENCE CHARGE INSIDE SPHERE   1 =  10.0689    (RMT=  2.5000 )
:PCS001: PARTIAL CHARGES SPHERE =  1 S,P,D,F,      D-EG,D-T2G 
:QTL001: 2.0264 5.3524 0.5766 2.1133 0.0000 0.0000 0.0000 0.2073 0.3692 0.0000 0.0000 0.0000
        Q-s-low E-s-low   Q-p-low E-p-low   Q-d-low E-d-low   Q-f-low E-f-low
:EPL001:  1.9256 -2.1020    5.2873 -0.7841    0.0009 -0.7654    0.0002 -0.7674
        Q-s-hi  E-s-hi    Q-p-hi  E-p-hi    Q-d-hi  E-d-hi    Q-f-hi  E-f-hi 
:EPH001:  0.1008  0.4238    0.0651  0.4626    0.5757  0.4794    2.1131  0.5163

:CHA  : TOTAL VALENCE CHARGE INSIDE UNIT CELL =      13.000000

:SUM  : SUM OF EIGENVALUES =          -6.468477087


        1.ATOM      Pr                   14 CORE STATES
:1S 001: 1S               -3067.071021716 Ry
:2S 001: 2S                -492.821447650 Ry
:2PP001: 2P*               -465.921230872 Ry
:2P 001: 2P                -430.523504230 Ry
:3S 001: 3S                -105.905620279 Ry
:3PP001: 3P*                -94.443756123 Ry
:3P 001: 3P                 -87.435673004 Ry
:3DD001: 3D*                -67.363503999 Ry
:3D 001: 3D                 -65.851840348 Ry
:4S 001: 4S                 -20.583372931 Ry
:4PP001: 4P*                -16.290508839 Ry
:4P 001: 4P                 -14.763533434 Ry
:4DD001: 4D*                 -7.697449751 Ry
:4D 001: 4D                  -7.428204725 Ry
:CINT001 Core Integral Atom   1   45.999515

       DENSITY AT NUCLEUS
        JATOM        VALENCE       SEMI-CORE          CORE           TOTAL
:RTO001:   1      649.112653        0.000000   656824.898084   657474.010737
     
       CHARGES OF NEW CHARGE DENSITY
:NTO   : INTERSTITIAL CHARGE =     2.931059
:NPC   : PW Pseudocharge     =     7.586315
:NTO001: CHARGE SPHERE  1    =    56.068455

:NEC01: NUCLEAR AND ELECTRONIC CHARGE     59.00000    58.99951
     
       CHARGES OF OLD CHARGE DENSITY
:OTO   : INTERSTITIAL CHARGE =     2.934591
:OPC   : PW Pseudocharge     =     7.586095
:OTO001: CHARGE SPHERE  1    =    56.065409

:NEC02: NUCLEAR AND ELECTRONIC CHARGE     59.00000    59.00000
     
       CONVERGENCE TEST
:DTO001: DIFFERENCE IN SPHERE  1 =  0.0062417

:DIS  :  CHARGE DISTANCE       ( 0.0062417 for atom    1 spin 1)      0.0062417
 PW Mixed is           56
 
******************************************************
* MULTISECANT MIXING VER9 RELEASE 10.4.0              *
* Standard Mode with controls                        *
* Fixed density scale                                *
* Regularization       1.000E-04                     *
* Trust Upper Limit    5.000E+00                     *
* Max Number of Memory Steps    8                    *
******************************************************
 
:PWTMP   1.9360E+02  1.2500E+02  2.5905E+02
:PLANE:  PW TOTAL      2.9019 DISTAN   1.07E-03  3.70E-02 %
:CHARG:  CLM/ATOM    977.1803 DISTAN   1.51E-02  1.54E-03 %
 
Step History
        DMIX         DMIXT        Red     Pred      Trust     Lambda    MagRel    MagAbs     Beta
  1   3.5000E-02   3.5000E-02 -1.00E+00  1.00E+00 -1.00E+01  1.00E+00  3.50E-02  3.50E-02  1.00E+00
  2   1.2952E-01   1.2952E-01  1.27E+00  1.00E+00 -1.00E+01  1.00E+00  1.30E-01  3.76E-02  1.00E+00
  3   5.1923E-02   5.1923E-02  3.59E-01  3.88E-01  3.00E+00  3.00E+00  4.38E-02  1.61E-02  8.00E-01
  4   1.2981E-01   1.2981E-01  6.17E-01  3.00E-01  9.26E-01  3.00E+00  3.53E-01  4.67E-02  1.00E+00
  5   1.7879E-01   1.7879E-01 -1.00E+00  6.61E-02  1.46E+00  1.00E+00  6.10E-01  4.98E-02  1.00E+00
:JACOBIANS    5.388E-03   8.759E-01
  
:NORMS:  1/Froebius, Min, Max, Used   0.5723E+00  0.3823E+00  0.9554E+00  0.7059E+00
:INFO :  Number of Memory Steps    4 Skipping    0
:INFO :  SLambda=    1.2983217475  Max    1.2983217475
:PREDicted Charge, CTotal, PW Trust    2.428E-04   2.428E-04   1.215E-03
:PREDicted DMix, Beta, BLim   1.2941E-01  1.0410E+00  9.0748E-01

Eigenvalues, unscaled except for SY+YY
   #     SY Real        SY Imag          SS             YY         SY+YY Real      SY+YY Imag
   1   1.349816E+00   0.000000E+00   1.301729E+00   2.612588E+00   3.244818E+00   0.000000E+00
   2   1.423475E-01   0.000000E+00   8.300975E-03   1.386799E+00   2.691884E+00   0.000000E+00
   3   4.011908E-05   2.607694E-05   4.725602E-05   5.187613E-04   1.539892E-04   0.000000E+00
   4   4.011908E-05  -2.607694E-05   2.860572E-06   9.487426E-05   5.568190E-04   0.000000E+00
 
:INFO :  Singular value  3.245E+00 Weight  1.000E+00 Projection -9.287E-03
:INFO :  Singular value  2.692E+00 Weight  1.000E+00 Projection  5.840E-04
:INFO :  Singular value  5.818E-04 Weight  8.322E-01 Projection -3.268E-01
:INFO :  Singular value  1.474E-04 Weight  2.414E-01 Projection -8.586E-02
:RANK :  ACTIVE   3.07/4  =  76.84 % ; YY RANK   2.91/4  =  72.85 %
 
:BLIM :  VZERO Control Off
:TRUST:  Step 1.94E+00  Charge 5.45E-02 (e) CTO  1.82E-01 (e) PW  2.55E-01 (e)
:DIRM :  MEMORY  4/8  SCALE   1.000 RED  0.19 PRED  0.07 NEXT  0.23 
:TRAVE:  Charge 1.89E-03 (e) CTO  1.89E-03 (e) PW  2.47E-03 (e)
:DIRP :  |MSR1|= 2.239E-04 |PRATT|= 1.073E-03 ANGLE=  45.6 DEGREES
:DIRQ :  |MSR1|= 2.889E-03 |PRATT|= 1.506E-02 ANGLE=  28.0 DEGREES
:DIRT :  |MSR1|= 2.897E-03 |PRATT|= 1.510E-02 ANGLE=  28.1 DEGREES
:MIX  :   MSE1   REGULARIZATION:  2.61E-04 GREED: 0.13402  Newton 1.00  0.1919                
     
       CHARGES OF MIXED CHARGE DENSITY
:CTO   : INTERSTITIAL CHARGE =     2.934727
:CPC   : PW Pseudocharge     =     7.586689
:CTO001: CHARGE SPHERE  1    =    56.065273

:NEC03: NUCLEAR AND ELECTRONIC CHARGE     59.00000    59.00000

PW CHANGE     H    K    L      Current       Change    Residue
:PTO001:      0    0    0  4.06149663E-02  2.815E-06 -6.053E-06
:PTO002:     -1   -1   -1 -1.29487240E-01 -8.613E-06 -3.762E-05
:PTO003:      0    0   -2  7.72903556E-02  7.717E-06  4.641E-05
:PTO004:      0   -2   -2  6.82286907E-02  2.887E-06  1.916E-05
:PTO005:     -1   -1   -3 -6.64000454E-02 -2.931E-06 -3.620E-05
:PTO006:     -2   -2   -2  1.70845591E-02  1.522E-06  1.365E-05
:PTO007:      0    0   -4  3.26636016E-03 -5.251E-07  1.289E-06
:PTO008:     -1   -3   -3 -2.97633343E-03  3.695E-06  8.769E-06
:PTO009:      0   -2   -4  1.73482555E-05 -5.339E-06 -1.774E-05
:PTO010:     -2   -2   -4 -6.00881286E-03 -1.083E-06  2.333E-06
:PTO011:     -3   -3   -3  2.54211167E-03 -1.036E-06 -7.403E-06
:PTO012:     -1   -1   -5  7.31194005E-03  2.900E-06  1.053E-05

:ENE  : ********** TOTAL ENERGY IN Ry =       -18472.10397026

 Flat Integration
 New Mode for Coulomb Integral
 Consistent 3/8+Simpson combinations
 Extension of core to zero
 LDM version in phi
 Fifth-order quadrature in outwin


            ---------
:ITE020: 20. ITERATION
            ---------

:NATO :    1 INDEPENDENT AND    1 TOTAL ATOMS IN UNITCELL
       SUBSTANCE: blebleble                                                   

       LATTICE                      = F   
:POT  : POTENTIAL OPTION EX_LDA EC_LDA VX_LDA VC_LDA
:LAT  : LATTICE CONSTANTS= 10.11927 10.11927 10.11927    1.571    1.571    1.571
:VOL  : UNIT CELL VOLUME =     259.05267
       MODE OF CALCULATION IS       = RELA
       NON-SPINPOLARIZED CALCULATION
:IFFT  : FFT-parameters:   80   80   80 Factor: 2.00


   CONVERGENCE PARAMETER FOR PSEUDOCHARGE: NCON=  9
   MAXIMAL VALUE OF RMT(JATOM)*ABSK(NKK) : RK  =29.93932


:VKCOUL :  VK-COUL convergence: 0.198E-06
       ATOMNUMBER=  1 Pr         VCOUL-ZERO =  0.18127E+00
:FIT001: LUSE= 13 SIGMA OF V-XC FIT FOR ATOM  1  0.4083171E-04
:FIT001: LUSE= 13 SIGMA OF V-XC FIT FOR ATOM  1  0.4083171E-04
:DEN  : DENSITY INTEGRAL  =         -7068.74216202   (Ry)
       ELS_POTENTIAL_AT Z=0 and Z=0.5:  -2.42221  -2.42221
       ELS_POTENTIAL_AT Y=0 and Y=0.5:   0.00000   0.00000
:VZERO:v0,v0c,v0x  -3.37674  -2.42221  -0.95452 v5,v5c,v5x  -3.37674  -2.42221  -0.95452
:VZERY:v0,v0c,v0x  -0.69033   0.00000  -0.69033 v5,v5c,v5x  -0.69033   0.00000  -0.69033
:VZERX:v0,v0c,v0x  -0.69033   0.00000  -0.69033 v5,v5c,v5x  -0.69033   0.00000  -0.69033
:LMAX-WF:   10   Non-Spherical LMAX:   4

          ATOMIC SPHERE DEPENDENT PARAMETERS FOR ATOM  Pr        
:e__0001: OVERALL ENERGY PARAMETER IS    0.3273
          OVERALL BASIS SET ON ATOM IS LAPW
:E0_0001: E( 0)=    0.3273
             APW+lo
:E0_0001: E( 0)=   -2.1519   E(BOTTOM)=   -2.533   E(TOP)=   -1.770  4  5   170
             LOCAL ORBITAL
:E1_0001: E( 1)=    0.7273
             APW+lo
:E1_0001: E( 1)=   -0.7645   E(BOTTOM)=   -1.412   E(TOP)=   -0.117  3  4   164
             LOCAL ORBITAL
:E3_0001: E( 3)=    0.5235   E(BOTTOM)=    0.381   E(TOP)=    0.666  0  1   116
             APW+lo
:E2_0001: E( 2)=    0.3273   E(BOTTOM)=    0.164   E(TOP)= -200.000  2 -1    93
             APW+lo

       K=   0.00000   0.00000   0.00000            1
:RKM  : MATRIX SIZE   189LOs:  20  RKM= 8.07  WEIGHT= 1.00  PGR:    
       EIGENVALUES ARE:
:EIG00001:      -2.1103038   -0.7502211   -0.7502211   -0.7502211    0.2757432
:EIG00006:       0.5238333    0.5396618    0.5396618    0.5396618    0.5616560
:EIG00011:       0.5616560    0.5616560    0.6545607    0.6545607    0.6545607
:EIG00016:       0.8133546    0.8133546    1.2102594    1.4253398    1.4253398
:EIG00021:       1.4253398    1.5303322    2.1568479    2.1568479    2.1568479
:EIG00026:       2.2236596    2.2236596    2.2236596    2.4411232    2.4411232
:EIG00031:       2.7757312    2.9433578    2.9433578    2.9433578    3.3664763
:EIG00036:       3.3664763    3.5970975    3.5970975    3.5970975    3.6389278
:EIG00041:       3.6389278    3.6389278    3.7805152    3.7805152    3.7805152
:EIG00046:       4.0300190    4.0495791    4.0495791    4.0495791    4.1482242
 
:EIG00051:       4.1482242    4.1918687    4.1918687    4.1918687    4.2184345
:EIG00056:       4.2184345    4.2184345    4.3258451    4.3517556    4.4808973
:EIG00061:       4.4808973    4.4808973    4.5737804    4.5737804    4.5737804
:EIG00066:       4.7916091    5.8008856    5.8008856    5.8036859    6.1091156
:EIG00071:       6.1091156    6.1091156    6.5519991    6.5519991    6.7274409
:EIG00076:       6.7274409    6.7274409    6.7850203    6.7850203    6.7850203
:EIG00081:       7.0727821    7.0727821    7.0727821    7.1035085    7.1035085
:EIG00086:       7.1128015    7.1128015    7.1128015    7.1769593    7.1769593
:EIG00091:       7.1769593    7.2754952    7.2754952    7.2754952    7.2819745
:EIG00096:       7.2819745    7.2819745    7.3601672    7.4367641    7.5127791
 
:EIG00101:       7.5127791    7.5510062    7.5510062    7.5510062    7.5694664
:EIG00106:       7.5694664    7.5694664    7.5879657    7.5879657    7.5879657
:EIG00111:       7.6718712    7.6718712    7.9409355    7.9987991
       ********************************************************

:KPT   :      NUMBER OF K-POINTS:   165
   0.0   0.0 angle (M,z), angle (M,x) deg
 
        SPIN-ORBIT EIGENVALUES:
     K=   0.00000   0.00000   0.00000            1
      MATRIX SIZE=  228   WEIGHT= 1.00
     EIGENVALUES ARE:
          -2.1103038   -2.1103038   -0.8967751   -0.8967751   -0.6816231
          -0.6816231   -0.6816231   -0.6816231    0.2757432    0.2757432
           0.5190362    0.5190362    0.5285813    0.5285813    0.5285813
           0.5285813    0.5513157    0.5513157    0.5622162    0.5622162
           0.5689346    0.5689346    0.5689346    0.5689346    0.6508277
           0.6508277    0.6508277    0.6508277    0.6608427    0.6608427
           0.8137454    0.8137454    0.8137454    0.8137454    1.2103123
           1.2103123    1.4202740    1.4202740    1.4276461    1.4276461

           1.4276461    1.4276461    1.5303322    1.5303322    2.1519532
           2.1519532    2.1519532    2.1519532    2.1539310    2.1539310
           2.1661381    2.1661381    2.2594039    2.2594039    2.2594039
           2.2594039    2.4414087    2.4414087    2.4414087    2.4414087
           2.7757312    2.7757312    2.9429264    2.9429264    2.9435869
           2.9435869    2.9435869    2.9435869    3.3664516    3.3664516
           3.3664516    3.3664516    3.5957757    3.5957757    3.5957757
           3.5957757    3.5999892    3.5999892    3.6088720    3.6088720

           3.6553396    3.6553396    3.6553396    3.6553396    3.7805075
           3.7805075    3.7805191    3.7805191    3.7805191    3.7805191
           4.0300190    4.0300190    4.0495338    4.0495338    4.0495338
           4.0495338    4.0496752    4.0496752    4.1482242    4.1482242
           4.1482242    4.1482242    4.1917117    4.1917117    4.1919362
           4.1919362    4.1919362    4.1919362    4.2182108    4.2182108
           4.2182108    4.2182108    4.2189225    4.2189225    4.3258499
           4.3258499    4.3517556    4.3517556    4.4808395    4.4808395

           4.4808395    4.4808395    4.4810168    4.4810168
       ********************************************************
:GAP (global)   :    0.0    Ry =     0.0   eV (metal)
:GAP (this spin):    0.0    Ry =     0.0   eV (metal)
         Bandranges (emin - emax) and occupancy:
:BAN00004:   4   -0.927660   -0.896775  1.00000000
:BAN00005:   5   -0.737352   -0.681623  1.00000000
:BAN00006:   6   -0.737352   -0.681623  1.00000000
:BAN00007:   7   -0.717141   -0.681623  1.00000000
:BAN00008:   8   -0.717141   -0.681623  1.00000000
:BAN00009:   9    0.275743    0.502447  1.00000000
:BAN00010:  10    0.275743    0.502447  1.00000000
:BAN00011:  11    0.462074    0.525784  1.00000000
:BAN00012:  12    0.462074    0.525784  1.00000000
:BAN00013:  13    0.517141    0.531665  0.50000003
:BAN00014:  14    0.517141    0.531665  0.49999997
:BAN00015:  15    0.528581    0.536728  0.00000000
:BAN00016:  16    0.528581    0.536728  0.00000000
:BAN00017:  17    0.531754    0.555984  0.00000000
:BAN00018:  18    0.531754    0.555984  0.00000000
:BAN00019:  19    0.550599    0.562216  0.00000000
        Energy to separate low and high energystates:    0.22574


:NOE  : NUMBER OF ELECTRONS          =   13.000

:FER  : F E R M I - ENERGY(TETRAH.M.)=   0.5271047857
:GMA  : POTENTIAL AND CHARGE CUT-OFF  12.00 Ry**.5

:POS001: ATOM    1 X,Y,Z = 0.00000 0.00000 0.50000  MULT= 1  ZZ= 59.000  Pr        

       LMMAX  5
       LM=   0 0  4 0  4 4  6 0  6 4

:CHA001: TOTAL VALENCE CHARGE INSIDE SPHERE   1 =  10.0704    (RMT=  2.5000 )
:PCS001: PARTIAL CHARGES SPHERE =  1 S,P,D,F,      D-EG,D-T2G 
:QTL001: 2.0264 5.3524 0.5760 2.1154 0.0000 0.0000 0.0000 0.2072 0.3688 0.0000 0.0000 0.0000
        Q-s-low E-s-low   Q-p-low E-p-low   Q-d-low E-d-low   Q-f-low E-f-low
:EPL001:  1.9256 -2.1020    5.2874 -0.7842    0.0009 -0.7655    0.0002 -0.7674
        Q-s-hi  E-s-hi    Q-p-hi  E-p-hi    Q-d-hi  E-d-hi    Q-f-hi  E-f-hi 
:EPH001:  0.1008  0.4238    0.0650  0.4625    0.5751  0.4793    2.1152  0.5163

:CHA  : TOTAL VALENCE CHARGE INSIDE UNIT CELL =      13.000000

:SUM  : SUM OF EIGENVALUES =          -6.469013418


        1.ATOM      Pr                   14 CORE STATES
:1S 001: 1S               -3067.070984675 Ry
:2S 001: 2S                -492.821465449 Ry
:2PP001: 2P*               -465.921236869 Ry
:2P 001: 2P                -430.523514636 Ry
:3S 001: 3S                -105.905723303 Ry
:3PP001: 3P*                -94.443854847 Ry
:3P 001: 3P                 -87.435775472 Ry
:3DD001: 3D*                -67.363596029 Ry
:3D 001: 3D                 -65.851933836 Ry
:4S 001: 4S                 -20.583499781 Ry
:4PP001: 4P*                -16.290634094 Ry
:4P 001: 4P                 -14.763657270 Ry
:4DD001: 4D*                 -7.697569473 Ry
:4D 001: 4D                  -7.428323862 Ry
:CINT001 Core Integral Atom   1   45.999515

       DENSITY AT NUCLEUS
        JATOM        VALENCE       SEMI-CORE          CORE           TOTAL
:RTO001:   1      649.115024        0.000000   656824.883276   657473.998300
     
       CHARGES OF NEW CHARGE DENSITY
:NTO   : INTERSTITIAL CHARGE =     2.929550
:NPC   : PW Pseudocharge     =     7.585838
:NTO001: CHARGE SPHERE  1    =    56.069963

:NEC01: NUCLEAR AND ELECTRONIC CHARGE     59.00000    58.99951
     
       CHARGES OF OLD CHARGE DENSITY
:OTO   : INTERSTITIAL CHARGE =     2.934727
:OPC   : PW Pseudocharge     =     7.586689
:OTO001: CHARGE SPHERE  1    =    56.065273

:NEC02: NUCLEAR AND ELECTRONIC CHARGE     59.00000    59.00000
     
       CONVERGENCE TEST
:DTO001: DIFFERENCE IN SPHERE  1 =  0.0086818

:DIS  :  CHARGE DISTANCE       ( 0.0086818 for atom    1 spin 1)      0.0086818
 PW Mixed is           56
 
******************************************************
* MULTISECANT MIXING VER9 RELEASE 10.4.0              *
* Standard Mode with controls                        *
* Fixed density scale                                *
* Regularization       1.000E-04                     *
* Trust Upper Limit    5.000E+00                     *
* Max Number of Memory Steps    8                    *
******************************************************
 
:PWTMP   1.9360E+02  1.2500E+02  2.5905E+02
:PLANE:  PW TOTAL      2.9021 DISTAN   1.11E-03  3.82E-02 %
:CHARG:  CLM/ATOM    977.1805 DISTAN   1.34E-02  1.38E-03 %
 
Step History
        DMIX         DMIXT        Red     Pred      Trust     Lambda    MagRel    MagAbs     Beta
  1   3.5000E-02   3.5000E-02 -1.00E+00  1.00E+00 -1.00E+01  1.00E+00  3.50E-02  3.50E-02  1.00E+00
  2   1.2952E-01   1.2952E-01  1.27E+00  1.00E+00 -1.00E+01  1.00E+00  1.30E-01  3.76E-02  1.00E+00
  3   5.1923E-02   5.1923E-02  3.59E-01  3.88E-01  3.00E+00  3.00E+00  4.38E-02  1.61E-02  8.00E-01
  4   1.2981E-01   1.2981E-01  6.17E-01  3.00E-01  9.26E-01  3.00E+00  3.53E-01  4.67E-02  1.00E+00
  5   1.7879E-01   1.7879E-01  1.85E-01  6.61E-02  1.46E+00  1.30E+00  6.10E-01  4.98E-02  1.00E+00
  6   1.3402E-01   1.3402E-01 -1.00E+00  2.32E-01  1.94E+00  1.00E+00  1.92E-01  2.90E-03  1.00E+00
:JACOBIANS    8.608E-03   1.242E+00
  
:NORMS:  1/Froebius, Min, Max, Used   0.5999E+00  0.3729E+00  0.1018E+01  0.7555E+00
:INFO :  Number of Memory Steps    5 Skipping    0
:INFO :  SLambda=    1.5030415115  Max    1.5030415115
:PREDicted Charge, CTotal, PW Trust    3.038E-05   3.038E-05   7.321E-04
:PREDicted DMix, Beta, BLim   4.5405E-01  3.4278E+00  6.9555E-01

Eigenvalues, unscaled except for SY+YY
   #     SY Real        SY Imag          SS             YY         SY+YY Real      SY+YY Imag
   1   1.785429E+00   0.000000E+00   1.716252E+00   3.007113E+00   4.677404E+00   0.000000E+00
   2   1.951574E-01   0.000000E+00   7.529384E-02   1.793674E+00   3.072049E+00   0.000000E+00
   3   9.208508E-02   0.000000E+00   8.099372E-03   1.989883E-01   3.656415E-01   0.000000E+00
   4   3.144223E-05   0.000000E+00   5.353962E-06   2.091017E-04   2.484068E-04   0.000000E+00
   5   2.042261E-06   0.000000E+00   3.007218E-07   1.516258E-05   1.873146E-05   0.000000E+00
 
:INFO :  Singular value  4.678E+00 Weight  1.000E+00 Projection -5.097E-03
:INFO :  Singular value  3.072E+00 Weight  1.000E+00 Projection  6.504E-03
:INFO :  Singular value  3.657E-01 Weight  1.000E+00 Projection -1.372E-02
:INFO :  Singular value  2.492E-04 Weight  4.072E-01 Projection -3.854E-02
:INFO :  Singular value  1.867E-05 Weight  3.839E-03 Projection -1.809E-04
:RANK :  ACTIVE   3.41/5  =  68.22 % ; YY RANK   3.33/5  =  66.57 %
 
:BLIM :  VZERO Control Off
:TRUST:  Step 2.17E+00  Charge 4.36E-02 (e) CTO  1.45E-01 (e) PW  2.04E-01 (e)
:DIRM :  MEMORY  5/8  SCALE   1.000 RED  0.89 PRED  0.23 NEXT  0.11 
:TRAVE:  Charge 1.02E-03 (e) CTO  1.02E-03 (e) PW  1.48E-03 (e)
[...]
* Standard Mode with controls                        *
* Fixed density scale                                *
* Regularization       1.000E-04                     *
* Trust Upper Limit    5.000E+00                     *
* Max Number of Memory Steps    8                    *
******************************************************
 
:PWTMP   1.9360E+02  1.2500E+02  2.5905E+02
:PLANE:  PW TOTAL      2.9027 DISTAN   2.35E-04  8.09E-03 %
:CHARG:  CLM/ATOM    977.1812 DISTAN   1.25E-03  1.28E-04 %
 
Step History
        DMIX         DMIXT        Red     Pred      Trust     Lambda    MagRel    MagAbs     Beta
  1   3.5000E-02   3.5000E-02 -1.00E+00  1.00E+00 -1.00E+01  1.00E+00  3.50E-02  3.50E-02  1.00E+00
  2   1.2952E-01   1.2952E-01  1.27E+00  1.00E+00 -1.00E+01  1.00E+00  1.30E-01  3.76E-02  1.00E+00
  3   5.1923E-02   5.1923E-02  3.59E-01  3.88E-01  3.00E+00  3.00E+00  4.38E-02  1.61E-02  8.00E-01
  4   1.2981E-01   1.2981E-01  6.17E-01  3.00E-01  9.26E-01  3.00E+00  3.53E-01  4.67E-02  1.00E+00
  5   1.7879E-01   1.7879E-01  1.85E-01  6.61E-02  1.46E+00  1.30E+00  6.10E-01  4.98E-02  1.00E+00
  6   1.3402E-01   1.3402E-01  8.93E-01  2.32E-01  1.94E+00  1.50E+00  1.92E-01  2.90E-03  1.00E+00
  7   2.9518E-01   2.9518E-01  1.43E-01  1.09E-01  2.17E+00  1.02E+00  5.67E-01  7.64E-03  1.00E+00
  8   1.7580E-01   1.7580E-01 -1.00E+00  4.38E-01  2.90E+00  1.00E+00  3.31E-01  6.37E-04  1.00E+00
:JACOBIANS    5.265E-02   1.942E+00
  
:NORMS:  1/Froebius, Min, Max, Used   0.6576E+00  0.5054E+00  0.1032E+01  0.8350E+00
:INFO :  Number of Memory Steps    7 Skipping    0
:INFO :  SLambda=    1.1350376846  Max    1.1350376846
:PREDicted Charge, CTotal, PW Trust    1.522E-05   1.522E-05   4.909E-04
:PREDicted DMix, Beta, BLim   8.8846E-01  2.5108E+00  1.1531E+00

Eigenvalues, unscaled except for SY+YY
   #     SY Real        SY Imag          SS             YY         SY+YY Real      SY+YY Imag
   1   2.830126E+00   0.000000E+00   2.667634E+00   3.826503E+00   6.480126E+00   0.000000E+00
   2   3.488515E-01   0.000000E+00   2.885121E-01   2.665313E+00   3.486068E+00   0.000000E+00
   3   2.102057E-01   0.000000E+00   6.403186E-02   3.990376E-01   7.516391E-01   0.000000E+00
   4   5.870705E-02   0.000000E+00   7.290575E-03   1.090417E-01   1.955472E-01   0.000000E+00
   5   1.443097E-05   0.000000E+00   2.990021E-06   9.093756E-05   1.079276E-04   0.000000E+00
   6   6.646348E-08   0.000000E+00   2.224839E-07   1.349729E-05   1.592542E-05   0.000000E+00
   7   1.821803E-06   0.000000E+00   3.504042E-08   1.027263E-07   1.764670E-07   0.000000E+00
 
:INFO :  Singular value  6.480E+00 Weight  1.000E+00 Projection  5.416E-04
:INFO :  Singular value  3.487E+00 Weight  1.000E+00 Projection  1.380E-04
:INFO :  Singular value  7.516E-01 Weight  1.000E+00 Projection -8.473E-04
:INFO :  Singular value  1.955E-01 Weight  1.000E+00 Projection  1.915E-03
:INFO :  Singular value  1.083E-04 Weight  7.421E-02 Projection -1.824E-03
:INFO :  Singular value  1.591E-05 Weight  1.726E-03 Projection  1.319E-05
:INFO :  Singular value  1.759E-07 Weight  2.114E-07 Projection  4.385E-08
:RANK :  ACTIVE   4.08/7  =  58.23 % ; YY RANK   4.05/7  =  57.92 %
 
:BLIM :  VZERO Control Off
:TRUST:  Step 3.86E+00  Charge 2.79E-02 (e) CTO  9.31E-02 (e) PW  1.30E-01 (e)
:DIRM :  MEMORY  7/8  SCALE   1.000 RED  0.66 PRED  0.44 NEXT  0.18 
:TRAVE:  Charge 2.68E-04 (e) CTO  2.68E-04 (e) PW  5.44E-04 (e)
:DIRP :  |MSR1|= 2.565E-04 |PRATT|= 2.348E-04 ANGLE=  10.3 DEGREES
:DIRQ :  |MSR1|= 1.105E-03 |PRATT|= 1.255E-03 ANGLE=  15.2 DEGREES
:DIRT :  |MSR1|= 1.135E-03 |PRATT|= 1.276E-03 ANGLE=  15.2 DEGREES
:MIX  :   MSE1   REGULARIZATION:  3.83E-04 GREED: 0.35000  Newton 1.00  0.8890                
     
       CHARGES OF MIXED CHARGE DENSITY
:CTO   : INTERSTITIAL CHARGE =     2.934572
:CPC   : PW Pseudocharge     =     7.588755
:CTO001: CHARGE SPHERE  1    =    56.065428

:NEC03: NUCLEAR AND ELECTRONIC CHARGE     59.00000    59.00000

PW CHANGE     H    K    L      Current       Change    Residue
:PTO001:      0    0    0  4.06223455E-02  2.090E-06  9.710E-07
:PTO002:     -1   -1   -1 -1.29520885E-01 -9.866E-06 -8.546E-06
:PTO003:      0    0   -2  7.73254312E-02  9.541E-06  9.392E-06
:PTO004:      0   -2   -2  6.82455899E-02  6.803E-06  6.474E-06
:PTO005:     -1   -1   -3 -6.64274439E-02 -1.066E-05 -1.111E-05
:PTO006:     -2   -2   -2  1.70931410E-02  2.563E-06  2.720E-06
:PTO007:      0    0   -4  3.26740341E-03  8.454E-07  1.039E-06
:PTO008:     -1   -3   -3 -2.96628323E-03  1.178E-06  8.593E-07
:PTO009:      0   -2   -4  2.82177911E-06 -1.555E-06 -1.240E-06
:PTO010:     -2   -2   -4 -6.01000579E-03 -1.562E-07  2.391E-07
:PTO011:     -3   -3   -3  2.53795382E-03 -5.202E-07 -6.805E-07
:PTO012:     -1   -1   -5  7.32026506E-03  1.297E-06  1.032E-06

:ENE  : ********** TOTAL ENERGY IN Ry =       -18472.10396647

 Flat Integration
 New Mode for Coulomb Integral
 Consistent 3/8+Simpson combinations
 Extension of core to zero
 LDM version in phi
 Fifth-order quadrature in outwin


            ---------
:ITE023: 23. ITERATION
            ---------

:NATO :    1 INDEPENDENT AND    1 TOTAL ATOMS IN UNITCELL
       SUBSTANCE: blebleble                                                   

       LATTICE                      = F   
:POT  : POTENTIAL OPTION EX_LDA EC_LDA VX_LDA VC_LDA
:LAT  : LATTICE CONSTANTS= 10.11927 10.11927 10.11927    1.571    1.571    1.571
:VOL  : UNIT CELL VOLUME =     259.05267
       MODE OF CALCULATION IS       = RELA
       NON-SPINPOLARIZED CALCULATION
:IFFT  : FFT-parameters:   80   80   80 Factor: 2.00


   CONVERGENCE PARAMETER FOR PSEUDOCHARGE: NCON=  9
   MAXIMAL VALUE OF RMT(JATOM)*ABSK(NKK) : RK  =29.93932


:VKCOUL :  VK-COUL convergence: 0.195E-06
       ATOMNUMBER=  1 Pr         VCOUL-ZERO =  0.18131E+00
:FIT001: LUSE= 13 SIGMA OF V-XC FIT FOR ATOM  1  0.4005311E-04
:FIT001: LUSE= 13 SIGMA OF V-XC FIT FOR ATOM  1  0.4005311E-04
:DEN  : DENSITY INTEGRAL  =         -7068.78816695   (Ry)
       ELS_POTENTIAL_AT Z=0 and Z=0.5:  -2.42235  -2.42235
       ELS_POTENTIAL_AT Y=0 and Y=0.5:   0.00000   0.00000
:VZERO:v0,v0c,v0x  -3.37707  -2.42235  -0.95472 v5,v5c,v5x  -3.37707  -2.42235  -0.95472
:VZERY:v0,v0c,v0x  -0.69034   0.00000  -0.69034 v5,v5c,v5x  -0.69034   0.00000  -0.69034
:VZERX:v0,v0c,v0x  -0.69034   0.00000  -0.69034 v5,v5c,v5x  -0.69034   0.00000  -0.69034
:LMAX-WF:   10   Non-Spherical LMAX:   4

          ATOMIC SPHERE DEPENDENT PARAMETERS FOR ATOM  Pr        
:e__0001: OVERALL ENERGY PARAMETER IS    0.3274
          OVERALL BASIS SET ON ATOM IS LAPW
:E0_0001: E( 0)=    0.3274
             APW+lo
:E0_0001: E( 0)=   -2.1517   E(BOTTOM)=   -2.533   E(TOP)=   -1.770  4  5   167
             LOCAL ORBITAL
:E1_0001: E( 1)=    0.7274
             APW+lo
:E1_0001: E( 1)=   -0.7643   E(BOTTOM)=   -1.411   E(TOP)=   -0.117  3  4   164
             LOCAL ORBITAL
:E3_0001: E( 3)=    0.5239   E(BOTTOM)=    0.381   E(TOP)=    0.667  0  1   121
             APW+lo
:E2_0001: E( 2)=    0.3274   E(BOTTOM)=    0.164   E(TOP)= -200.000  2 -1    95
             APW+lo

       K=   0.00000   0.00000   0.00000            1
:RKM  : MATRIX SIZE   189LOs:  20  RKM= 8.07  WEIGHT= 1.00  PGR:    
       EIGENVALUES ARE:
:EIG00001:      -2.1100888   -0.7500437   -0.7500437   -0.7500437    0.2758073
:EIG00006:       0.5242513    0.5400151    0.5400151    0.5400151    0.5620758
:EIG00011:       0.5620758    0.5620758    0.6546491    0.6546491    0.6546491
:EIG00016:       0.8134485    0.8134485    1.2103559    1.4254224    1.4254224
:EIG00021:       1.4254224    1.5303967    2.1569563    2.1569563    2.1569563
:EIG00026:       2.2237565    2.2237565    2.2237565    2.4411919    2.4411919
:EIG00031:       2.7758117    2.9434242    2.9434242    2.9434242    3.3665609
:EIG00036:       3.3665609    3.5971677    3.5971677    3.5971677    3.6390002
:EIG00041:       3.6390002    3.6390002    3.7805705    3.7805705    3.7805705
:EIG00046:       4.0301119    4.0496214    4.0496214    4.0496214    4.1482602
 
:EIG00051:       4.1482602    4.1919089    4.1919089    4.1919089    4.2184862
:EIG00056:       4.2184862    4.2184862    4.3258776    4.3518086    4.4809399
:EIG00061:       4.4809399    4.4809399    4.5738312    4.5738312    4.5738312
:EIG00066:       4.7916558    5.8009471    5.8009471    5.8037442    6.1091701
:EIG00071:       6.1091701    6.1091701    6.5520644    6.5520644    6.7275166
:EIG00076:       6.7275166    6.7275166    6.7851016    6.7851016    6.7851016
:EIG00081:       7.0728247    7.0728247    7.0728247    7.1035498    7.1035498
:EIG00086:       7.1128642    7.1128642    7.1128642    7.1770118    7.1770118
:EIG00091:       7.1770118    7.2755478    7.2755478    7.2755478    7.2820247
:EIG00096:       7.2820247    7.2820247    7.3602274    7.4368057    7.5128327
 
:EIG00101:       7.5128327    7.5510569    7.5510569    7.5510569    7.5695117
:EIG00106:       7.5695117    7.5695117    7.5880197    7.5880197    7.5880197
:EIG00111:       7.6719237    7.6719237    7.9409640    7.9988675
       ********************************************************

:KPT   :      NUMBER OF K-POINTS:   165
   0.0   0.0 angle (M,z), angle (M,x) deg
 
        SPIN-ORBIT EIGENVALUES:
     K=   0.00000   0.00000   0.00000            1
      MATRIX SIZE=  228   WEIGHT= 1.00
     EIGENVALUES ARE:
          -2.1100888   -2.1100888   -0.8965895   -0.8965895   -0.6814496
          -0.6814496   -0.6814496   -0.6814496    0.2758073    0.2758073
           0.5194564    0.5194564    0.5289456    0.5289456    0.5289456
           0.5289456    0.5516666    0.5516666    0.5626342    0.5626342
           0.5693442    0.5693442    0.5693442    0.5693442    0.6509166
           0.6509166    0.6509166    0.6509166    0.6609304    0.6609304
           0.8138392    0.8138392    0.8138392    0.8138392    1.2104088
           1.2104088    1.4203578    1.4203578    1.4277282    1.4277282

           1.4277282    1.4277282    1.5303967    1.5303967    2.1520615
           2.1520615    2.1520615    2.1520615    2.1540280    2.1540280
           2.1662465    2.1662465    2.2595007    2.2595007    2.2595007
           2.2595007    2.4414774    2.4414774    2.4414774    2.4414774
           2.7758117    2.7758117    2.9429926    2.9429926    2.9436533
           2.9436533    2.9436533    2.9436533    3.3665362    3.3665362
           3.3665362    3.3665362    3.5958458    3.5958458    3.5958458
           3.5958458    3.6000596    3.6000596    3.6089427    3.6089427

           3.6554129    3.6554129    3.6554129    3.6554129    3.7805628
           3.7805628    3.7805744    3.7805744    3.7805744    3.7805744
           4.0301119    4.0301119    4.0495761    4.0495761    4.0495761
           4.0495761    4.0497175    4.0497175    4.1482602    4.1482602
           4.1482602    4.1482602    4.1917518    4.1917518    4.1919764
           4.1919764    4.1919764    4.1919764    4.2182626    4.2182626
           4.2182626    4.2182626    4.2189743    4.2189743    4.3258825
           4.3258825    4.3518086    4.3518086    4.4808820    4.4808820

           4.4808820    4.4808820    4.4810594    4.4810594
       ********************************************************
:GAP (global)   :    0.0    Ry =     0.0   eV (metal)
:GAP (this spin):    0.0    Ry =     0.0   eV (metal)
         Bandranges (emin - emax) and occupancy:
:BAN00004:   4   -0.927482   -0.896590  1.00000000
:BAN00005:   5   -0.737190   -0.681450  1.00000000
:BAN00006:   6   -0.737190   -0.681450  1.00000000
:BAN00007:   7   -0.716975   -0.681450  1.00000000
:BAN00008:   8   -0.716975   -0.681450  1.00000000
:BAN00009:   9    0.275807    0.502653  1.00000000
:BAN00010:  10    0.275807    0.502653  1.00000000
:BAN00011:  11    0.462146    0.526115  1.00000000
:BAN00012:  12    0.462146    0.526115  1.00000000
:BAN00013:  13    0.517434    0.532052  0.50000001
:BAN00014:  14    0.517434    0.532052  0.49999999
:BAN00015:  15    0.528946    0.537063  0.00000000
:BAN00016:  16    0.528946    0.537063  0.00000000
:BAN00017:  17    0.532156    0.556390  0.00000000
:BAN00018:  18    0.532156    0.556390  0.00000000
:BAN00019:  19    0.550950    0.562634  0.00000000
        Energy to separate low and high energystates:    0.22581


:NOE  : NUMBER OF ELECTRONS          =   13.000

:FER  : F E R M I - ENERGY(TETRAH.M.)=   0.5274620462
:GMA  : POTENTIAL AND CHARGE CUT-OFF  12.00 Ry**.5

:POS001: ATOM    1 X,Y,Z = 0.00000 0.00000 0.50000  MULT= 1  ZZ= 59.000  Pr        

       LMMAX  5
       LM=   0 0  4 0  4 4  6 0  6 4

:CHA001: TOTAL VALENCE CHARGE INSIDE SPHERE   1 =  10.0659    (RMT=  2.5000 )
:PCS001: PARTIAL CHARGES SPHERE =  1 S,P,D,F,      D-EG,D-T2G 
:QTL001: 2.0265 5.3525 0.5778 2.1089 0.0000 0.0000 0.0000 0.2077 0.3701 0.0000 0.0000 0.0000
        Q-s-low E-s-low   Q-p-low E-p-low   Q-d-low E-d-low   Q-f-low E-f-low
:EPL001:  1.9256 -2.1018    5.2873 -0.7840    0.0009 -0.7653    0.0002 -0.7672
        Q-s-hi  E-s-hi    Q-p-hi  E-p-hi    Q-d-hi  E-d-hi    Q-f-hi  E-f-hi 
:EPH001:  0.1008  0.4239    0.0652  0.4628    0.5769  0.4796    2.1087  0.5166

:CHA  : TOTAL VALENCE CHARGE INSIDE UNIT CELL =      13.000000

:SUM  : SUM OF EIGENVALUES =          -6.466504926


        1.ATOM      Pr                   14 CORE STATES
:1S 001: 1S               -3067.069375871 Ry
:2S 001: 2S                -492.820075927 Ry
:2PP001: 2P*               -465.919800486 Ry
:2P 001: 2P                -430.522095811 Ry
:3S 001: 3S                -105.904710340 Ry
:3PP001: 3P*                -94.442821207 Ry
:3P 001: 3P                 -87.434762976 Ry
:3DD001: 3D*                -67.362530467 Ry
:3D 001: 3D                 -65.850875619 Ry
:4S 001: 4S                 -20.582885865 Ry
:4PP001: 4P*                -16.290031423 Ry
:4P 001: 4P                 -14.763076667 Ry
:4DD001: 4D*                 -7.697020612 Ry
:4D 001: 4D                  -7.427782059 Ry
:CINT001 Core Integral Atom   1   45.999514

       DENSITY AT NUCLEUS
        JATOM        VALENCE       SEMI-CORE          CORE           TOTAL
:RTO001:   1      649.108094        0.000000   656824.763268   657473.871362
     
       CHARGES OF NEW CHARGE DENSITY
:NTO   : INTERSTITIAL CHARGE =     2.934085
:NPC   : PW Pseudocharge     =     7.587448
:NTO001: CHARGE SPHERE  1    =    56.065428

:NEC01: NUCLEAR AND ELECTRONIC CHARGE     59.00000    58.99951
     
       CHARGES OF OLD CHARGE DENSITY
:OTO   : INTERSTITIAL CHARGE =     2.934572
:OPC   : PW Pseudocharge     =     7.588755
:OTO001: CHARGE SPHERE  1    =    56.065428

:NEC02: NUCLEAR AND ELECTRONIC CHARGE     59.00000    59.00000
     
       CONVERGENCE TEST
:DTO001: DIFFERENCE IN SPHERE  1 =  0.0000983

:DIS  :  CHARGE DISTANCE       ( 0.0000983 for atom    1 spin 1)      0.0000983
 PW Mixed is           56
 
******************************************************
* MULTISECANT MIXING VER9 RELEASE 10.4.0              *
* Standard Mode with controls                        *
* Fixed density scale                                *
* Regularization       1.000E-04                     *
* Trust Upper Limit    5.000E+00                     *
* Max Number of Memory Steps    8                    *
******************************************************
 
:PWTMP   1.9360E+02  1.2500E+02  2.5905E+02
:PLANE:  PW TOTAL      2.9029 DISTAN   1.66E-05  5.71E-04 %
:CHARG:  CLM/ATOM    977.1813 DISTAN   1.52E-04  1.55E-05 %
 
Step History
        DMIX         DMIXT        Red     Pred      Trust     Lambda    MagRel    MagAbs     Beta
  1   3.5000E-02   3.5000E-02 -1.00E+00  1.00E+00 -1.00E+01  1.00E+00  3.50E-02  3.50E-02  1.00E+00
  2   1.2952E-01   1.2952E-01  1.27E+00  1.00E+00 -1.00E+01  1.00E+00  1.30E-01  3.76E-02  1.00E+00
  3   5.1923E-02   5.1923E-02  3.59E-01  3.88E-01  3.00E+00  3.00E+00  4.38E-02  1.61E-02  8.00E-01
  4   1.2981E-01   1.2981E-01  6.17E-01  3.00E-01  9.26E-01  3.00E+00  3.53E-01  4.67E-02  1.00E+00
  5   1.7879E-01   1.7879E-01  1.85E-01  6.61E-02  1.46E+00  1.30E+00  6.10E-01  4.98E-02  1.00E+00
  6   1.3402E-01   1.3402E-01  8.93E-01  2.32E-01  1.94E+00  1.50E+00  1.92E-01  2.90E-03  1.00E+00
  7   2.9518E-01   2.9518E-01  1.43E-01  1.09E-01  2.17E+00  1.02E+00  5.67E-01  7.64E-03  1.00E+00
  8   1.7580E-01   1.7580E-01  6.64E-01  4.38E-01  2.90E+00  1.14E+00  3.31E-01  6.37E-04  1.00E+00
  9   3.5000E-01   3.5000E-01 -1.00E+00  1.80E-01  3.86E+00  1.00E+00  8.89E-01  1.13E-03  1.00E+00
:JACOBIANS    7.153E-02   2.378E+00
  
:NORMS:  1/Froebius, Min, Max, Used   0.7377E+00  0.4708E+00  0.1047E+01  0.8826E+00
:INFO :  Number of Memory Steps    8 Skipping    0
:INFO :  SLambda=    1.0607680046  Max    1.0607680046
:PREDicted Charge, CTotal, PW Trust    2.404E-05   2.404E-05   2.511E-04
:PREDicted DMix, Beta, BLim   3.4899E-01  1.0137E+00  9.1929E-01

Eigenvalues, unscaled except for SY+YY
   #     SY Real        SY Imag          SS             YY         SY+YY Real      SY+YY Imag
   1   3.801414E+00   0.000000E+00   3.636562E+00   4.668568E+00   8.442013E+00   0.000000E+00
   2   6.496008E-01   0.000000E+00   6.300660E-01   2.451563E+00   2.908422E+00   0.000000E+00
   3   1.941450E-01   0.000000E+00   7.867243E-02   6.609513E-01   1.332208E+00   0.000000E+00
   4   9.785437E-02   0.000000E+00   7.951449E-03   2.183860E-01   3.480587E-01   0.000000E+00
   5   3.289628E-04   0.000000E+00   2.292619E-04   5.066402E-04   8.610369E-04   0.000000E+00
   6   2.839453E-06   0.000000E+00   4.758158E-07   1.791438E-05   2.083871E-05   0.000000E+00
   7   9.968709E-07   0.000000E+00   1.223528E-07   7.103825E-06   8.191269E-06   0.000000E+00
   8   1.015247E-09   0.000000E+00   2.173763E-10   4.976400E-09   6.126039E-09   0.000000E+00
 
:INFO :  Singular value  8.443E+00 Weight  1.000E+00 Projection  3.506E-05
:INFO :  Singular value  2.910E+00 Weight  1.000E+00 Projection  1.547E-05
:INFO :  Singular value  1.332E+00 Weight  1.000E+00 Projection -2.559E-05
:INFO :  Singular value  3.480E-01 Weight  1.000E+00 Projection  1.466E-05
:INFO :  Singular value  8.671E-04 Weight  7.753E-01 Projection -4.510E-03
:INFO :  Singular value  2.097E-05 Weight  2.013E-03 Projection -1.056E-05
:INFO :  Singular value  8.089E-06 Weight  3.001E-04 Projection -2.618E-07
:INFO :  Singular value  6.123E-09 Weight  1.720E-10 Projection -2.436E-12
:RANK :  ACTIVE   4.78/8  =  59.72 % ; YY RANK   4.54/8  =  56.78 %
 
:BLIM :  VZERO Control Off
:TRUST:  Step 5.34E+00  Charge 2.23E-02 (e) CTO  7.45E-02 (e) PW  1.04E-01 (e)
:DIRM :  MEMORY  8/8  SCALE   1.000 RED  0.12 PRED  0.18 NEXT  0.24 
:TRAVE:  Charge 1.35E-04 (e) CTO  1.35E-04 (e) PW  2.76E-04 (e)
:DIRP :  |MSR1|= 6.595E-06 |PRATT|= 1.658E-05 ANGLE=  34.0 DEGREES
:DIRQ :  |MSR1|= 8.948E-05 |PRATT|= 1.516E-04 ANGLE=  19.5 DEGREES
:DIRT :  |MSR1|= 8.972E-05 |PRATT|= 1.525E-04 ANGLE=  19.8 DEGREES
:MIX  :   MSE1   REGULARIZATION:  4.67E-04 GREED: 0.31094  Newton 1.00  0.5882                
     
       CHARGES OF MIXED CHARGE DENSITY
:CTO   : INTERSTITIAL CHARGE =     2.934573
:CPC   : PW Pseudocharge     =     7.588739
:CTO001: CHARGE SPHERE  1    =    56.065427

:NEC03: NUCLEAR AND ELECTRONIC CHARGE     59.00000    59.00000

PW CHANGE     H    K    L      Current       Change    Residue
:PTO001:      0    0    0  4.06222870E-02 -5.854E-08 -1.928E-07
:PTO002:     -1   -1   -1 -1.29520681E-01  2.036E-07  7.733E-07
:PTO003:      0    0   -2  7.73252941E-02 -1.371E-07 -5.065E-07
:PTO004:      0   -2   -2  6.82457440E-02  1.541E-07 -3.205E-08
:PTO005:     -1   -1   -3 -6.64278530E-02 -4.091E-07 -3.077E-07
:PTO006:     -2   -2   -2  1.70932965E-02  1.555E-07  1.840E-07
:PTO007:      0    0   -4  3.26745824E-03  5.483E-08  6.439E-08
:PTO008:     -1   -3   -3 -2.96645107E-03 -1.678E-07 -2.746E-07
:PTO009:      0   -2   -4  2.93299193E-06  1.112E-07  1.669E-07
:PTO010:     -2   -2   -4 -6.00985747E-03  1.483E-07  2.706E-07
:PTO011:     -3   -3   -3  2.53789649E-03 -5.733E-08 -1.125E-07
:PTO012:     -1   -1   -5  7.32022402E-03 -4.104E-08 -9.044E-08

:ENE  : ********** TOTAL ENERGY IN Ry =       -18472.10396631

