
------- case.scf0 --------
 Flat Integration
 New Mode for Coulomb Integral
 Consistent 3/8+Simpson combinations
 Extension of core to zero
 LDM version in phi
 Fifth-order quadrature in outwin


            ---------
:ITE066: 66. ITERATION
            ---------

:NATO :    1 INDEPENDENT AND    2 TOTAL ATOMS IN UNITCELL
       SUBSTANCE: aU                                                          

       LATTICE                      = CXY 
:POT  : POTENTIAL OPTION EX_LDA EC_LDA VX_LDA VC_LDA
:LAT  : LATTICE CONSTANTS=  5.93983 12.05341 10.40596    1.571    1.571    1.571
:VOL  : UNIT CELL VOLUME =     372.50797
       MODE OF CALCULATION IS       = RELA
       NON-SPINPOLARIZED CALCULATION
:IFFT  : FFT-parameters:   48   96   80 Factor: 2.00


   CONVERGENCE PARAMETER FOR PSEUDOCHARGE: NCON=  9
   MAXIMAL VALUE OF RMT(JATOM)*ABSK(NKK) : RK  =27.56858


:VKCOUL :  VK-COUL convergence: 0.887E-07
       ATOMNUMBER=  1 Pr1        VCOUL-ZERO =  0.31305E+00
:EFG001:                        EFG         =    -8.90697   *10**21  V / m**2
                               V20  TOT/SRF=    -7.71366    -0.04899
                               V22  TOT/SRF=    -1.02180    -0.00066
                               V22M TOT/SRF=     0.00000     0.00000
                               V21  TOT/SRF=     0.00000     0.00000
                               V21M TOT/SRF=     0.00000     0.00000

              3.43169    0.00000    0.00000        3.43169    0.00000    0.00000
              0.00000    5.47528    0.00000        0.00000    5.47528    0.00000
              0.00000    0.00000   -8.90697        0.00000    0.00000   -8.90697

         MAIN DIRECTIONS OF THE EFG   1.0000  0.0000  0.0000
                                      0.0000  1.0000  0.0000
                                      0.0000  0.0000  1.0000
:ANG001:  ANGLE WITH OLD X-AXIS =         0.0

:ETA001:                         ASYMM. ETA =     0.22944


     HELLMANN-FEYNMAN-FORCE IN mRy/a.u. = |F|  Fx       Fy             Fz
:FHF001:   1.ATOM    973.221394909957      0.000000000000      0.000000000000   -973.221394909957

:FIT001: LUSE= 13 SIGMA OF V-XC FIT FOR ATOM  1  0.1462905E-04
:FIT001: LUSE= 13 SIGMA OF V-XC FIT FOR ATOM  1  0.1462905E-04
:DEN  : DENSITY INTEGRAL  =        -14180.23854948   (Ry)
       ELS_POTENTIAL_AT Z=0 and Z=0.5:   0.84119   0.84119
       ELS_POTENTIAL_AT Y=0 and Y=0.5:   0.03865   0.03865
:VZERO:v0,v0c,v0x   0.19603   0.84119  -0.64516 v5,v5c,v5x   0.19603   0.84119  -0.64516
:VZERY:v0,v0c,v0x  -0.81975   0.03865  -0.85839 v5,v5c,v5x  -0.81975   0.03865  -0.85839
:VZERX:v0,v0c,v0x  -1.20176  -0.39064  -0.81112 v5,v5c,v5x  -1.20176  -0.39064  -0.81112

------- case.scf1 --------
:LMAX-WF:   10   Non-Spherical LMAX:   4

          ATOMIC SPHERE DEPENDENT PARAMETERS FOR ATOM  Pr1       
:e__0001: OVERALL ENERGY PARAMETER IS    0.6434
          OVERALL BASIS SET ON ATOM IS LAPW
:E0_0001: E( 0)=    0.6434
             APW+lo
:E0_0001: E( 0)=   -1.7800   E(BOTTOM)=   -2.420   E(TOP)=   -1.140  4  5   207
             LOCAL ORBITAL
:E1_0001: E( 1)=    1.0434
             APW+lo
:E1_0001: E( 1)=   -0.3122   E(BOTTOM)=   -1.275   E(TOP)=    0.651  3  4   209
             LOCAL ORBITAL
:E3_0001: E( 3)=    0.8801   E(BOTTOM)=    0.669   E(TOP)=    1.091  0  1   120
             APW+lo
:E2_0001: E( 2)=    0.6434   E(BOTTOM)=    0.462   E(TOP)= -200.000  2 -1   123
             APW+lo

       K=   0.06250   0.00000   0.06250            1
:RKM  : MATRIX SIZE   352LOs:  40  RKM= 8.50  WEIGHT= 4.00  PGR:    
       EIGENVALUES ARE:
:EIG00001:      -1.7748438   -1.7400006   -0.5462659   -0.4002915   -0.3675807
:EIG00006:      -0.3563885   -0.3432265   -0.3423978    0.6344060    0.7311214
:EIG00011:       0.8546121    0.8665495    0.8679285    0.8697050    0.8800019
:EIG00016:       0.9000478    0.9081298    0.9083438    0.9124235    0.9153309
:EIG00021:       0.9190614    0.9249127    0.9256563    0.9402867    0.9505338
:EIG00026:       0.9628750    1.0528225    1.0561384    1.1180961    1.1528998
:EIG00031:       1.1535358    1.2940476    1.3275173    1.3942131    1.6955135
:EIG00036:       1.7414721    1.7790972    1.8539570    1.9807356    2.0434548
:EIG00041:       2.1786645    2.2661245    2.3841468    2.4044080    2.5523114
:EIG00046:       2.5583299    2.5748557    2.7072453    2.7279150    2.8569833
 
:EIG00051:       2.9188419    2.9961736    3.0084653    3.1290300    3.1846678
:EIG00056:       3.2073260    3.2519524    3.3673790    3.4153792    3.5303062
:EIG00061:       3.5314733    3.6422813    3.7268547    3.7447131    3.7863842
:EIG00066:       3.9443048    3.9564029    4.0538557    4.0550993    4.0998050
:EIG00071:       4.1071592    4.1670937    4.1968549    4.3100756    4.3208699
:EIG00076:       4.3608968    4.3862140    4.4362609    4.4485610    4.4915424
:EIG00081:       4.5099430    4.5523233    4.5660282    4.6355123    4.6598044
:EIG00086:       4.7608218    4.7801232    4.8560747    4.8925095    4.9255404
:EIG00091:       4.9330883    4.9733399    5.0201592    5.0548017    5.0594269
:EIG00096:       5.0718038    5.1490058    5.1558294    5.2129481    5.2584689
 
:EIG00101:       5.3504186    5.4632599    5.5075825    5.5818445    5.5859701
:EIG00106:       5.6420004    5.6739784    5.7339080    5.7738198    5.8006153
:EIG00111:       5.9085491    5.9473223    6.0611472    6.1182000    6.1524981
:EIG00116:       6.1539173    6.2431379    6.2674200    6.3369116    6.3379568
:EIG00121:       6.4247227    6.4386416    6.5024240    6.5418116    6.5804916
:EIG00126:       6.6672874    6.7369596    6.7442259    6.7763563    6.8424157
:EIG00131:       6.8948383    6.9230450    6.9363374    7.0057987    7.0676414
:EIG00136:       7.0964562    7.1233582    7.1918714    7.2211170    7.2222779
:EIG00141:       7.2755135    7.2855337    7.3357408    7.3704001    7.4251097
:EIG00146:       7.4308061    7.4658923    7.5586759    7.5689445    7.6323496
 
:EIG00151:       7.6508421    7.6767245    7.6955622    7.8625323    7.8894614
:EIG00156:       8.0236766    8.0616860    8.0634548    8.0926284    8.1945254
:EIG00161:       8.2687191    8.3378494
       ********************************************************

:KPT   :      NUMBER OF K-POINTS:   288

------- case.scfso --------
   0.0   0.0 angle (M,z), angle (M,x) deg
 
        SPIN-ORBIT EIGENVALUES:
     K=   0.06250   0.00000   0.06250            1
      MATRIX SIZE=  324   WEIGHT= 4.00
     EIGENVALUES ARE:
          -1.7748447   -1.7748447   -1.7400009   -1.7400009   -0.6031001
          -0.6031001   -0.5070257   -0.5070257   -0.4011728   -0.4011728
          -0.2957745   -0.2957745   -0.2919191   -0.2919191   -0.2771005
          -0.2771005    0.6344857    0.6344857    0.7310240    0.7310240
           0.8527264    0.8527264    0.8638653    0.8638653    0.8650970
           0.8650970    0.8673548    0.8673548    0.8767260    0.8767260
           0.8908484    0.8908484    0.9009401    0.9009401    0.9109299
           0.9109299    0.9168843    0.9168843    0.9182209    0.9182209

           0.9223193    0.9223193    0.9261368    0.9261368    0.9314959
           0.9314959    0.9438743    0.9438743    0.9528490    0.9528490
           0.9640327    0.9640327    1.0492852    1.0492852    1.0597741
           1.0597741    1.1185447    1.1185448    1.1512070    1.1512070
           1.1556286    1.1556286    1.2940037    1.2940037    1.3277742
           1.3277742    1.3943424    1.3943424    1.6958242    1.6958242
           1.7415112    1.7415112    1.7790807    1.7790807    1.8539686
           1.8539686    1.9804764    1.9804764    2.0429382    2.0429382

           2.1787474    2.1787474    2.2654041    2.2654041    2.3829924
           2.3829924    2.4049159    2.4049159    2.5525091    2.5525091
           2.5582721    2.5582721    2.5740161    2.5740161    2.7053337
           2.7053337    2.7299850    2.7299850    2.8570717    2.8570717
           2.9182294    2.9182294    2.9919057    2.9919057    3.0115144
           3.0115144    3.1288311    3.1288311    3.1845925    3.1845925
           3.2081666    3.2081666    3.2510357    3.2510357    3.3678741
           3.3678741    3.4165268    3.4165268    3.5276690    3.5276690

           3.5344969    3.5344969    3.6464854    3.6464854    3.7271332
           3.7271332    3.7445907    3.7445907    3.7866610    3.7866610
           3.9442558    3.9442558    3.9566805    3.9566805    4.0533518
           4.0533518    4.0555086    4.0555086    4.0998127    4.0998127
           4.1075874    4.1075874    4.1661670    4.1661670    4.1969693
           4.1969693    4.3083723    4.3083723    4.3227118    4.3227118
           4.3628362    4.3628362    4.3868772    4.3868772    4.4363254
           4.4363254    4.4491082    4.4491082    4.4919197    4.4919197

       ********************************************************

------- case.scf2 --------
:GMA  : POTENTIAL AND CHARGE CUT-OFF  12.00 Ry**.5




:POS001: at.nr.  -1 position = 0.00000 0.89750 0.25000  multiplicity =  2

       lmmax 16
       lm=   0 0  1 0  2 0  2 2  3 0  3 2  4 0  4 2  4 4  5 0  5 2  5 4  6 0  6 2  6 4  6 6
:FER gutzwiller fermi energy   0.86319
:EORB          0.021591471
:SUM sum of gutz band energies         -4.020647115

:CHA001: total charge inside sphere   1 =     9.638902
:PCS001: partial charges sphere =  1 s,p,d,f,px,py,pz,d-z2,d-x2y2,d-xy,d-xz,d-yz 
:QTL001: 1.9444 4.9858 0.6980 2.0097 1.6598 1.6584 1.6676 0.1338 0.1270 0.1453 0.1414 0.1506

                      vxx         vyy         vzz       up to r

:VZZ001:             3.45805     5.46420    -8.92225       2.300

:CHA  : total charge inside unit cell =      12.999997

------- case.scfc --------

        1.ATOM      Pr1                  14 CORE STATES
       CORE-FORCE in mRy/a.u. = |F|      Fx             Fy             Fz
:FCO001:   1.ATOM    961.002223411879      0.000000000000      0.000000000000    961.002223411879

:1S 001: 1S               -3066.699197841 Ry
:2S 001: 2S                -492.449221962 Ry
:2PP001: 2P*               -465.548732271 Ry
:2P 001: 2P                -430.151091322 Ry
:3S 001: 3S                -105.539167852 Ry
:3PP001: 3P*                -94.077030952 Ry
:3P 001: 3P                 -87.069213796 Ry
:3DD001: 3D*                -66.996044446 Ry
:3D 001: 3D                 -65.484488488 Ry
:4S 001: 4S                 -20.219267275 Ry
:4PP001: 4P*                -15.926275974 Ry
:4P 001: 4P                 -14.399204889 Ry
:4DD001: 4D*                 -7.332713527 Ry
:4D 001: 4D                  -7.063425822 Ry

------- case.scfm --------
:CINT001 Core Integral Atom   1   45.998467

       DENSITY AT NUCLEUS
        JATOM        VALENCE       SEMI-CORE          CORE           TOTAL
:RTO001:   1      648.431924        0.000000   656824.360124   657472.792048
     
       CHARGES OF NEW CHARGE DENSITY
:NTO   : INTERSTITIAL CHARGE =     6.721888
:NPC   : PW Pseudocharge     =    17.259082
:NTO001: CHARGE SPHERE  1    =    55.637369

:NEC01: NUCLEAR AND ELECTRONIC CHARGE    118.00000   117.99663
     
       CHARGES OF OLD CHARGE DENSITY
:OTO   : INTERSTITIAL CHARGE =     6.714629
:OPC   : PW Pseudocharge     =    17.264188
:OTO001: CHARGE SPHERE  1    =    55.642685

:NEC02: NUCLEAR AND ELECTRONIC CHARGE    118.00000   118.00000
     
       CONVERGENCE TEST
:DTO001: DIFFERENCE IN SPHERE  1 =  0.0094102

:DIS  :  CHARGE DISTANCE       ( 0.0094102 for atom    1 spin 1)      0.0094102
 PW Mixed is          394
 
******************************************************
* MULTISECANT MIXING VER9 RELEASE 10.4.0              *
* Standard Mode with controls                        *
* Fixed density scale                                *
* Regularization       1.000E-04                     *
* Trust Upper Limit    5.000E+00                     *
* Max Number of Memory Steps    8                    *
******************************************************
 
:INFO : Forcing a restart
:PWTMP   2.7058E+02  1.9467E+02  3.7251E+02
:PLANE:  PW TOTAL      5.3573 DISTAN   1.95E-03  3.64E-02 %
:CHARG:  CLM/ATOM   1381.9414 DISTAN   1.40E-02  1.02E-03 %
 
Step History
        DMIX         DMIXT        Red     Pred      Trust     Lambda    MagRel    MagAbs     Beta
  1   3.5000E-02   3.5000E-02 -1.00E+00  1.00E+00 -1.00E+01  1.00E+00  3.50E-02  3.50E-02  1.00E+00
:INFO :  Note, Pratt in use
:TRUST:  Step 2.25E-01  Charge 7.50E-02 (e) CTO  2.50E-01 (e) PW  3.50E-01 (e)
:DIRM :  MEMORY  0/ 8 SCALE   1.000
Performing Pseudo Compensation
Final Pseudo Compensation Rescaling     1.00000E+00
:MIX  :   PRATT  REGULARIZATION:  1.00E-04 GREED: 0.15000                  
     
       CHARGES OF MIXED CHARGE DENSITY
:CTO   : INTERSTITIAL CHARGE =     6.716224
:CPC   : PW Pseudocharge     =    17.265190
:CTO001: CHARGE SPHERE  1    =    55.641888

:NEC03: NUCLEAR AND ELECTRONIC CHARGE    118.00000   118.00000

PW CHANGE     H    K    L      Current       Change    Residue
:PTO001:      0    0    0  6.43782574E-02  6.970E-06  3.808E-05
:PTO003:      0    2    0  1.62921647E-02 -8.787E-07 -8.416E-06
:PTO004:     -1    1    0  7.90687864E-02  1.135E-06 -4.387E-06
:PTO005:      0    2   -1 -9.13353466E-02 -1.927E-06  8.916E-07
:PTO006:      0    0   -2 -4.73922227E-02 -1.309E-06 -1.610E-06
:PTO007:     -1    1   -1 -9.73111084E-02 -1.516E-06  3.474E-06
:PTO008:      0    2   -2 -1.49227558E-02 -3.670E-07 -1.092E-06
:PTO009:     -1    1   -2 -7.52206130E-02  3.579E-07  6.914E-06
:PTO011:     -1    3    0 -1.16583195E-02  1.817E-08 -2.587E-07
:PTO012:     -1    3   -1 -5.05871148E-02  1.681E-06  6.233E-06
:PTO013:      0    4    0 -8.85368104E-03  5.723E-07  2.051E-06
:PTO014:      0    2   -3  2.03966423E-02 -6.773E-07 -4.386E-07

:ENE  : ********** TOTAL ENERGY IN Ry =       -36944.23429719

       TOTAL FORCE IN mRy/a.u. = |F|     Fx             Fy             Fz     with/without FOR in case.in2
:FOR001:   1.ATOM         12.219          0.000          0.000        -12.219 partial forces
       TOTAL FORCE WITH RESPECT TO GLOBAL CARTESIAN COORDINATES:
:FCA001:   1.ATOM                         0.000        -12.219          0.000 partial forces
       TOTAL FORCE WITH RESPECT TO THE GLOBAL COORDINATE SYSTEM:
:FGL001:   1.ATOM                 0.000000000   -12.219171498     0.000000000 partial forces

------- case.scf0 --------
 Flat Integration
 New Mode for Coulomb Integral
 Consistent 3/8+Simpson combinations
 Extension of core to zero
 LDM version in phi
 Fifth-order quadrature in outwin


            ---------
:ITE067: 67. ITERATION
            ---------

:NATO :    1 INDEPENDENT AND    2 TOTAL ATOMS IN UNITCELL
       SUBSTANCE: aU                                                          

       LATTICE                      = CXY 
:POT  : POTENTIAL OPTION EX_LDA EC_LDA VX_LDA VC_LDA
:LAT  : LATTICE CONSTANTS=  5.93983 12.05341 10.40596    1.571    1.571    1.571
:VOL  : UNIT CELL VOLUME =     372.50797
       MODE OF CALCULATION IS       = RELA
       NON-SPINPOLARIZED CALCULATION
:IFFT  : FFT-parameters:   48   96   80 Factor: 2.00


   CONVERGENCE PARAMETER FOR PSEUDOCHARGE: NCON=  9
   MAXIMAL VALUE OF RMT(JATOM)*ABSK(NKK) : RK  =27.56858


:VKCOUL :  VK-COUL convergence: 0.887E-07
       ATOMNUMBER=  1 Pr1        VCOUL-ZERO =  0.31306E+00
:EFG001:                        EFG         =    -8.91786   *10**21  V / m**2
                               V20  TOT/SRF=    -7.72309    -0.04904
                               V22  TOT/SRF=    -1.01849    -0.00063
                               V22M TOT/SRF=     0.00000     0.00000
                               V21  TOT/SRF=     0.00000     0.00000
                               V21M TOT/SRF=     0.00000     0.00000

              3.44043    0.00000    0.00000        3.44043    0.00000    0.00000
              0.00000    5.47742    0.00000        0.00000    5.47742    0.00000
              0.00000    0.00000   -8.91786        0.00000    0.00000   -8.91786

         MAIN DIRECTIONS OF THE EFG   1.0000  0.0000  0.0000
                                      0.0000  1.0000  0.0000
                                      0.0000  0.0000  1.0000
:ANG001:  ANGLE WITH OLD X-AXIS =         0.0

:ETA001:                         ASYMM. ETA =     0.22842


     HELLMANN-FEYNMAN-FORCE IN mRy/a.u. = |F|  Fx       Fy             Fz
:FHF001:   1.ATOM    972.600781853919      0.000000000000      0.000000000000   -972.600781853919

:FIT001: LUSE= 13 SIGMA OF V-XC FIT FOR ATOM  1  0.1459826E-04
:FIT001: LUSE= 13 SIGMA OF V-XC FIT FOR ATOM  1  0.1459826E-04
:DEN  : DENSITY INTEGRAL  =        -14180.07408177   (Ry)
       ELS_POTENTIAL_AT Z=0 and Z=0.5:   0.84134   0.84134
       ELS_POTENTIAL_AT Y=0 and Y=0.5:   0.03859   0.03859
:VZERO:v0,v0c,v0x   0.19613   0.84134  -0.64521 v5,v5c,v5x   0.19613   0.84134  -0.64521
:VZERY:v0,v0c,v0x  -0.81983   0.03859  -0.85843 v5,v5c,v5x  -0.81983   0.03859  -0.85843
:VZERX:v0,v0c,v0x  -1.20186  -0.39069  -0.81117 v5,v5c,v5x  -1.20186  -0.39069  -0.81117

------- case.scf1 --------
:LMAX-WF:   10   Non-Spherical LMAX:   4

          ATOMIC SPHERE DEPENDENT PARAMETERS FOR ATOM  Pr1       
:e__0001: OVERALL ENERGY PARAMETER IS    0.6434
          OVERALL BASIS SET ON ATOM IS LAPW
:E0_0001: E( 0)=    0.6434
             APW+lo
:E0_0001: E( 0)=   -1.7805   E(BOTTOM)=   -2.420   E(TOP)=   -1.141  4  5   203
             LOCAL ORBITAL
:E1_0001: E( 1)=    1.0434
             APW+lo
:E1_0001: E( 1)=   -0.3127   E(BOTTOM)=   -1.276   E(TOP)=    0.650  3  4   206
             LOCAL ORBITAL
:E3_0001: E( 3)=    0.8791   E(BOTTOM)=    0.668   E(TOP)=    1.090  0  1   123
             APW+lo
:E2_0001: E( 2)=    0.6434   E(BOTTOM)=    0.462   E(TOP)= -200.000  2 -1   121
             APW+lo

       K=   0.06250   0.00000   0.06250            1
:RKM  : MATRIX SIZE   352LOs:  40  RKM= 8.50  WEIGHT= 4.00  PGR:    
       EIGENVALUES ARE:
:EIG00001:      -1.7753475   -1.7405234   -0.5465925   -0.4006645   -0.3679694
:EIG00006:      -0.3568027   -0.3436478   -0.3428181    0.6343885    0.7310773
:EIG00011:       0.8540297    0.8657445    0.8670674    0.8689361    0.8791691
:EIG00016:       0.8990900    0.9071685    0.9073865    0.9114592    0.9144549
:EIG00021:       0.9182963    0.9240649    0.9246698    0.9392643    0.9497726
:EIG00026:       0.9622988    1.0525176    1.0559670    1.1179207    1.1527182
:EIG00031:       1.1533601    1.2938712    1.3272982    1.3939744    1.6953995
:EIG00036:       1.7413509    1.7790108    1.8537831    1.9806853    2.0433862
:EIG00041:       2.1785692    2.2660420    2.3840756    2.4042971    2.5522066
:EIG00046:       2.5582506    2.5748280    2.7071741    2.7278721    2.8569481
 
:EIG00051:       2.9187725    2.9960422    3.0084004    3.1289128    3.1845520
:EIG00056:       3.2072808    3.2518850    3.3671808    3.4153030    3.5301981
:EIG00061:       3.5314419    3.6421465    3.7268543    3.7446407    3.7863387
:EIG00066:       3.9442321    3.9563958    4.0538646    4.0551035    4.0997692
:EIG00071:       4.1070874    4.1670079    4.1968384    4.3100637    4.3208612
:EIG00076:       4.3609013    4.3861767    4.4362540    4.4485600    4.4915400
:EIG00081:       4.5099404    4.5523275    4.5660013    4.6355078    4.6598450
:EIG00086:       4.7608134    4.7801576    4.8560822    4.8924859    4.9254962
:EIG00091:       4.9331170    4.9733667    5.0200999    5.0547931    5.0593583
:EIG00096:       5.0718374    5.1490289    5.1558508    5.2129145    5.2584731
 
:EIG00101:       5.3504027    5.4632650    5.5075635    5.5818801    5.5860036
:EIG00106:       5.6419803    5.6740061    5.7339451    5.7738481    5.8006043
:EIG00111:       5.9085474    5.9473462    6.0611076    6.1182275    6.1524694
:EIG00116:       6.1539252    6.2430795    6.2674029    6.3369283    6.3379192
:EIG00121:       6.4247240    6.4386159    6.5023960    6.5418194    6.5804828
:EIG00126:       6.6673096    6.7369721    6.7442217    6.7763422    6.8424276
:EIG00131:       6.8948307    6.9230533    6.9363602    7.0057468    7.0676139
:EIG00136:       7.0964815    7.1233871    7.1918644    7.2211433    7.2222871
:EIG00141:       7.2755174    7.2855959    7.3357757    7.3704054    7.4250766
:EIG00146:       7.4308335    7.4658929    7.5586905    7.5689855    7.6323985
 
:EIG00151:       7.6507779    7.6767153    7.6956050    7.8625120    7.8894907
:EIG00156:       8.0236725    8.0617169    8.0634691    8.0926360    8.1945546
:EIG00161:       8.2687424    8.3378615
       ********************************************************

:KPT   :      NUMBER OF K-POINTS:   288

------- case.scfso --------
   0.0   0.0 angle (M,z), angle (M,x) deg
 
        SPIN-ORBIT EIGENVALUES:
     K=   0.06250   0.00000   0.06250            1
      MATRIX SIZE=  324   WEIGHT= 4.00
     EIGENVALUES ARE:
          -1.7753484   -1.7753484   -1.7405237   -1.7405237   -0.6034682
          -0.6034682   -0.5074586   -0.5074586   -0.4015309   -0.4015309
          -0.2961671   -0.2961671   -0.2923079   -0.2923079   -0.2775053
          -0.2775053    0.6344681    0.6344681    0.7309795    0.7309795
           0.8521078    0.8521078    0.8630492    0.8630492    0.8642327
           0.8642327    0.8665614    0.8665614    0.8758756    0.8758756
           0.8898684    0.8898684    0.9000567    0.9000567    0.9100533
           0.9100533    0.9160013    0.9160014    0.9173397    0.9173397

           0.9214371    0.9214371    0.9252954    0.9252954    0.9305485
           0.9305485    0.9428639    0.9428639    0.9520698    0.9520698
           0.9634255    0.9634255    1.0490032    1.0490032    1.0595702
           1.0595702    1.1183692    1.1183693    1.1510232    1.1510232
           1.1554539    1.1554539    1.2938269    1.2938269    1.3275553
           1.3275553    1.3941039    1.3941039    1.6957100    1.6957100
           1.7413900    1.7413900    1.7789942    1.7789942    1.8537949
           1.8537949    1.9804258    1.9804258    2.0428698    2.0428698

           2.1786522    2.1786522    2.2653214    2.2653214    2.3829179
           2.3829179    2.4048085    2.4048085    2.5524048    2.5524048
           2.5581930    2.5581930    2.5739875    2.5739875    2.7052654
           2.7052654    2.7299388    2.7299388    2.8570361    2.8570361
           2.9181598    2.9181598    2.9917875    2.9917875    3.0114370
           3.0114370    3.1287140    3.1287140    3.1844812    3.1844812
           3.2081187    3.2081187    3.2509676    3.2509676    3.3676772
           3.3676772    3.4164498    3.4164498    3.5275944    3.5275944

           3.5344301    3.5344301    3.6463538    3.6463538    3.7271317
           3.7271317    3.7445184    3.7445184    3.7866154    3.7866154
           3.9441841    3.9441841    3.9566726    3.9566726    4.0533597
           4.0533597    4.0555135    4.0555135    4.0997768    4.0997768
           4.1075156    4.1075156    4.1660829    4.1660829    4.1969528
           4.1969528    4.3083613    4.3083613    4.3227014    4.3227014
           4.3628396    4.3628396    4.3868408    4.3868408    4.4363185
           4.4363185    4.4491073    4.4491073    4.4919168    4.4919168

       ********************************************************

------- case.scf2 --------
:GMA  : POTENTIAL AND CHARGE CUT-OFF  12.00 Ry**.5




:POS001: at.nr.  -1 position = 0.00000 0.89750 0.25000  multiplicity =  2

       lmmax 16
       lm=   0 0  1 0  2 0  2 2  3 0  3 2  4 0  4 2  4 4  5 0  5 2  5 4  6 0  6 2  6 4  6 6
:FER gutzwiller fermi energy   0.86305
:EORB          0.018007053
:SUM sum of gutz band energies         -4.028109667

:CHA001: total charge inside sphere   1 =     9.640456
:PCS001: partial charges sphere =  1 s,p,d,f,px,py,pz,d-z2,d-x2y2,d-xy,d-xz,d-yz 
:QTL001: 1.9445 4.9862 0.6979 2.0110 1.6599 1.6585 1.6677 0.1337 0.1270 0.1453 0.1414 0.1506

                      vxx         vyy         vzz       up to r

:VZZ001:             3.45067     5.45295    -8.90362       2.300

:CHA  : total charge inside unit cell =      12.999996

------- case.scfc --------

        1.ATOM      Pr1                  14 CORE STATES
       CORE-FORCE in mRy/a.u. = |F|      Fx             Fy             Fz
:FCO001:   1.ATOM    960.131329551723      0.000000000000      0.000000000000    960.131329551723

:1S 001: 1S               -3066.701051144 Ry
:2S 001: 2S                -492.451090256 Ry
:2PP001: 2P*               -465.550597250 Ry
:2P 001: 2P                -430.152957492 Ry
:3S 001: 3S                -105.541015494 Ry
:3PP001: 3P*                -94.078881425 Ry
:3P 001: 3P                 -87.071057998 Ry
:3DD001: 3D*                -66.997899050 Ry
:3D 001: 3D                 -65.486341674 Ry
:4S 001: 4S                 -20.220738607 Ry
:4PP001: 4P*                -15.927722518 Ry
:4P 001: 4P                 -14.400613470 Ry
:4DD001: 4D*                 -7.334053742 Ry
:4D 001: 4D                  -7.064752991 Ry

------- case.scfm --------
:CINT001 Core Integral Atom   1   45.998468

       DENSITY AT NUCLEUS
        JATOM        VALENCE       SEMI-CORE          CORE           TOTAL
:RTO001:   1      648.508037        0.000000   656824.436244   657472.944281
     
       CHARGES OF NEW CHARGE DENSITY
:NTO   : INTERSTITIAL CHARGE =     6.718863
:NPC   : PW Pseudocharge     =    17.258691
:NTO001: CHARGE SPHERE  1    =    55.638924

:NEC01: NUCLEAR AND ELECTRONIC CHARGE    118.00000   117.99671
     
       CHARGES OF OLD CHARGE DENSITY
:OTO   : INTERSTITIAL CHARGE =     6.716224
:OPC   : PW Pseudocharge     =    17.265190
:OTO001: CHARGE SPHERE  1    =    55.641888

:NEC02: NUCLEAR AND ELECTRONIC CHARGE    118.00000   118.00000
     
       CONVERGENCE TEST
:DTO001: DIFFERENCE IN SPHERE  1 =  0.0055307

:DIS  :  CHARGE DISTANCE       ( 0.0055307 for atom    1 spin 1)      0.0055307
 PW Mixed is          394
 
******************************************************
* MULTISECANT MIXING VER9 RELEASE 10.4.0              *
* Standard Mode with controls                        *
* Fixed density scale                                *
* Restart from converged density                     *
* Regularization       1.000E-04                     *
* Trust Upper Limit    5.000E+00                     *
* Max Number of Memory Steps    8                    *
******************************************************
 
:INFO : Forcing a restart
:PWTMP   2.7058E+02  1.9467E+02  3.7251E+02
:PLANE:  PW TOTAL      5.3575 DISTAN   1.12E-03  2.09E-02 %
:CHARG:  CLM/ATOM   1381.9413 DISTAN   8.53E-03  6.18E-04 %
 
Step History
        DMIX         DMIXT        Red     Pred      Trust     Lambda    MagRel    MagAbs     Beta
  1   3.5000E-02   3.5000E-02 -1.00E+00  1.00E+00 -1.00E+01  1.00E+00  3.50E-02  3.50E-02  1.00E+00
  2   1.5000E-01   1.5000E-01 -1.00E+00  1.00E+00 -1.00E+01  1.00E+00  1.50E-01  2.12E-03  1.00E+00
:JACOBIANS    4.375E-03   1.529E-01
  
:NORMS:  1/Froebius, Min, Max, Used   0.1113E+00  0.1113E+00  0.3072E+00  0.1113E+00
:INFO :  Number of Memory Steps    1 Skipping    0
:PREDicted Charge, CTotal, PW Trust    1.622E-03   3.244E-03   2.760E-03
:PREDicted DMix, Beta, BLim   5.0000E-02  2.0339E+00  2.2558E+00

Eigenvalues, unscaled except for SY+YY
   #     SY Real        SY Imag          SS             YY         SY+YY Real      SY+YY Imag
   1   3.071830E-01   0.000000E+00   1.113093E-01   1.000000E+00   1.307183E+00   0.000000E+00
 
:BLIM :  VZERO Control Off
:TRUST:  Step 3.00E+00  Charge 7.50E-02 (e) CTO  2.50E-01 (e) PW  3.50E-01 (e)
:DIRM :  MEMORY  1/8  SCALE   1.000 RED  0.61 PRED  1.00 NEXT  0.64 
:TRAVE:  Charge 8.62E-04 (e) CTO  1.72E-03 (e) PW  1.45E-03 (e)
:DIRP :  |MSR1|= 4.218E-04 |PRATT|= 1.119E-03 ANGLE=  31.7 DEGREES
:DIRQ :  |MSR1|= 2.354E-03 |PRATT|= 8.534E-03 ANGLE=   8.0 DEGREES
:DIRT :  |MSR1|= 2.391E-03 |PRATT|= 8.607E-03 ANGLE=   9.6 DEGREES
:MIX  :   MSR1   REGULARIZATION:  1.00E-04 GREED: 0.07125  Newton 1.00  0.2778                
     
       CHARGES OF MIXED CHARGE DENSITY
:CTO   : INTERSTITIAL CHARGE =     6.717949
:CPC   : PW Pseudocharge     =    17.266246
:CTO001: CHARGE SPHERE  1    =    55.641026

:NEC03: NUCLEAR AND ELECTRONIC CHARGE    118.00000   118.00000

PW CHANGE     H    K    L      Current       Change    Residue
:PTO001:      0    0    0  6.43857219E-02  7.464E-06  2.114E-05
:PTO003:      0    2    0  1.62912179E-02 -9.469E-07 -4.543E-06
:PTO004:     -1    1    0  7.90701317E-02  1.345E-06 -1.041E-06
:PTO005:      0    2   -1 -9.13377106E-02 -2.364E-06 -2.113E-06
:PTO006:      0    0   -2 -4.73937594E-02 -1.537E-06 -2.083E-06
:PTO007:     -1    1   -1 -9.73128278E-02 -1.719E-06  7.131E-07
:PTO008:      0    2   -2 -1.49234157E-02 -6.599E-07 -2.491E-06
:PTO009:     -1    1   -2 -7.52206431E-02 -3.003E-08  7.538E-07
:PTO011:     -1    3    0 -1.16584059E-02 -8.643E-08 -8.576E-07
:PTO012:     -1    3   -1 -5.05863301E-02  7.847E-07 -3.406E-06
:PTO013:      0    4    0 -8.85326594E-03  4.151E-07 -1.757E-07
:PTO014:      0    2   -3  2.03964284E-02 -2.139E-07  3.133E-06

:ENE  : ********** TOTAL ENERGY IN Ry =       -36944.23436116

       TOTAL FORCE IN mRy/a.u. = |F|     Fx             Fy             Fz     with/without FOR in case.in2
:FOR001:   1.ATOM         12.469          0.000          0.000        -12.469 partial forces
       TOTAL FORCE WITH RESPECT TO GLOBAL CARTESIAN COORDINATES:
:FCA001:   1.ATOM                         0.000        -12.469          0.000 partial forces
       TOTAL FORCE WITH RESPECT TO THE GLOBAL COORDINATE SYSTEM:
:FGL001:   1.ATOM                 0.000000000   -12.469452302     0.000000000 partial forces

------- case.scf0 --------
 Flat Integration
 New Mode for Coulomb Integral
 Consistent 3/8+Simpson combinations
 Extension of core to zero
 LDM version in phi
 Fifth-order quadrature in outwin


            ---------
:ITE068: 68. ITERATION
            ---------

:NATO :    1 INDEPENDENT AND    2 TOTAL ATOMS IN UNITCELL
       SUBSTANCE: aU                                                          

       LATTICE                      = CXY 
:POT  : POTENTIAL OPTION EX_LDA EC_LDA VX_LDA VC_LDA
:LAT  : LATTICE CONSTANTS=  5.93983 12.05341 10.40596    1.571    1.571    1.571
:VOL  : UNIT CELL VOLUME =     372.50797
       MODE OF CALCULATION IS       = RELA
       NON-SPINPOLARIZED CALCULATION
:IFFT  : FFT-parameters:   48   96   80 Factor: 2.00


   CONVERGENCE PARAMETER FOR PSEUDOCHARGE: NCON=  9
   MAXIMAL VALUE OF RMT(JATOM)*ABSK(NKK) : RK  =27.56858


:VKCOUL :  VK-COUL convergence: 0.888E-07
       ATOMNUMBER=  1 Pr1        VCOUL-ZERO =  0.31307E+00
:EFG001:                        EFG         =    -8.92999   *10**21  V / m**2
                               V20  TOT/SRF=    -7.73360    -0.04910
                               V22  TOT/SRF=    -1.01371    -0.00060
                               V22M TOT/SRF=     0.00000     0.00000
                               V21  TOT/SRF=     0.00000     0.00000
                               V21M TOT/SRF=     0.00000     0.00000

              3.45129    0.00000    0.00000        3.45129    0.00000    0.00000
              0.00000    5.47871    0.00000        0.00000    5.47871    0.00000
              0.00000    0.00000   -8.92999        0.00000    0.00000   -8.92999

         MAIN DIRECTIONS OF THE EFG   1.0000  0.0000  0.0000
                                      0.0000  1.0000  0.0000
                                      0.0000  0.0000  1.0000
:ANG001:  ANGLE WITH OLD X-AXIS =         0.0

:ETA001:                         ASYMM. ETA =     0.22704


     HELLMANN-FEYNMAN-FORCE IN mRy/a.u. = |F|  Fx       Fy             Fz
:FHF001:   1.ATOM    971.236555419873      0.000000000000      0.000000000000   -971.236555419873

:FIT001: LUSE= 13 SIGMA OF V-XC FIT FOR ATOM  1  0.1455913E-04
:FIT001: LUSE= 13 SIGMA OF V-XC FIT FOR ATOM  1  0.1455913E-04
:DEN  : DENSITY INTEGRAL  =        -14179.90250426   (Ry)
       ELS_POTENTIAL_AT Z=0 and Z=0.5:   0.84150   0.84150
       ELS_POTENTIAL_AT Y=0 and Y=0.5:   0.03853   0.03853
:VZERO:v0,v0c,v0x   0.19624   0.84150  -0.64527 v5,v5c,v5x   0.19624   0.84150  -0.64527
:VZERY:v0,v0c,v0x  -0.81993   0.03853  -0.85846 v5,v5c,v5x  -0.81993   0.03853  -0.85846
:VZERX:v0,v0c,v0x  -1.20196  -0.39074  -0.81122 v5,v5c,v5x  -1.20196  -0.39074  -0.81122

------- case.scf1 --------
:LMAX-WF:   10   Non-Spherical LMAX:   4

          ATOMIC SPHERE DEPENDENT PARAMETERS FOR ATOM  Pr1       
:e__0001: OVERALL ENERGY PARAMETER IS    0.6434
          OVERALL BASIS SET ON ATOM IS LAPW
:E0_0001: E( 0)=    0.6434
             APW+lo
:E0_0001: E( 0)=   -1.7811   E(BOTTOM)=   -2.421   E(TOP)=   -1.142  4  5   205
             LOCAL ORBITAL
:E1_0001: E( 1)=    1.0434
             APW+lo
:E1_0001: E( 1)=   -0.3132   E(BOTTOM)=   -1.276   E(TOP)=    0.649  3  4   213
             LOCAL ORBITAL
:E3_0001: E( 3)=    0.8780   E(BOTTOM)=    0.667   E(TOP)=    1.089  0  1   121
             APW+lo
:E2_0001: E( 2)=    0.6434   E(BOTTOM)=    0.462   E(TOP)= -200.000  2 -1   121
             APW+lo

       K=   0.06250   0.00000   0.06250            1
:RKM  : MATRIX SIZE   352LOs:  40  RKM= 8.50  WEIGHT= 4.00  PGR:    
       EIGENVALUES ARE:
:EIG00001:      -1.7758938   -1.7410903   -0.5469479   -0.4010693   -0.3683910
:EIG00006:      -0.3572520   -0.3441051   -0.3432739    0.6343672    0.7310272
:EIG00011:       0.8533952    0.8648747    0.8661387    0.8681041    0.8782714
:EIG00016:       0.8980571    0.9061315    0.9063547    0.9104200    0.9135030
:EIG00021:       0.9174715    0.9231511    0.9236088    0.9381637    0.9489594
:EIG00026:       0.9616863    1.0521892    1.0557811    1.1177305    1.1525213
:EIG00031:       1.1531690    1.2936793    1.3270605    1.3937153    1.6952761
:EIG00036:       1.7412194    1.7789166    1.8535939    1.9806302    2.0433103
:EIG00041:       2.1784649    2.2659515    2.3839975    2.4041756    2.5520914
:EIG00046:       2.5581636    2.5747960    2.7070957    2.7278235    2.8569086
 
:EIG00051:       2.9186954    2.9958985    3.0083283    3.1287841    3.1844251
:EIG00056:       3.2072294    3.2518107    3.3669650    3.4152194    3.5300800
:EIG00061:       3.5314061    3.6419993    3.7268516    3.7445605    3.7862877
:EIG00066:       3.9441518    3.9563857    4.0538723    4.0551058    4.0997286
:EIG00071:       4.1070087    4.1669140    4.1968189    4.3100490    4.3208499
:EIG00076:       4.3609038    4.3861347    4.4362447    4.4485566    4.4915356
:EIG00081:       4.5099359    4.5523298    4.5659710    4.6355005    4.6598865
:EIG00086:       4.7608020    4.7801929    4.8560883    4.8924587    4.9254467
:EIG00091:       4.9331459    4.9733935    5.0200340    5.0547817    5.0592827
:EIG00096:       5.0718714    5.1490514    5.1558718    5.2128760    5.2584753
 
:EIG00101:       5.3503830    5.4632680    5.5075404    5.5819160    5.5860371
:EIG00106:       5.6419565    5.6740336    5.7339826    5.7738760    5.8005904
:EIG00111:       5.9085433    5.9473697    6.0610628    6.1182546    6.1524367
:EIG00116:       6.1539315    6.2430145    6.2673825    6.3369438    6.3378765
:EIG00121:       6.4247236    6.4385861    6.5023634    6.5418256    6.5804707
:EIG00126:       6.6673312    6.7369827    6.7442148    6.7763245    6.8424379
:EIG00131:       6.8948203    6.9230595    6.9363823    7.0056887    7.0675823
:EIG00136:       7.0965063    7.1234157    7.1918546    7.2211698    7.2222948
:EIG00141:       7.2755192    7.2856608    7.3358108    7.3704084    7.4250381
:EIG00146:       7.4308606    7.4658912    7.5587036    7.5690271    7.6324491
 
:EIG00151:       7.6507059    7.6767032    7.6956486    7.8624877    7.8895197
:EIG00156:       8.0236656    8.0617476    8.0634819    8.0926419    8.1945836
:EIG00161:       8.2687650    8.3378720
       ********************************************************

:KPT   :      NUMBER OF K-POINTS:   288

------- case.scfso --------
   0.0   0.0 angle (M,z), angle (M,x) deg
 
        SPIN-ORBIT EIGENVALUES:
     K=   0.06250   0.00000   0.06250            1
      MATRIX SIZE=  324   WEIGHT= 4.00
     EIGENVALUES ARE:
          -1.7758947   -1.7758947   -1.7410906   -1.7410906   -0.6038683
          -0.6038683   -0.5079282   -0.5079282   -0.4019197   -0.4019197
          -0.2965928   -0.2965928   -0.2927297   -0.2927297   -0.2779446
          -0.2779446    0.6344467    0.6344467    0.7309290    0.7309290
           0.8514341    0.8514341    0.8621672    0.8621672    0.8633008
           0.8633008    0.8657034    0.8657034    0.8749589    0.8749590
           0.8888119    0.8888119    0.8991053    0.8991053    0.9091031
           0.9091031    0.9150377    0.9150377    0.9163952    0.9163952

           0.9204879    0.9204879    0.9243902    0.9243902    0.9295290
           0.9295290    0.9417761    0.9417761    0.9512366    0.9512366
           0.9627798    0.9627798    1.0486987    1.0486987    1.0593504
           1.0593504    1.1181789    1.1181789    1.1508237    1.1508237
           1.1552640    1.1552640    1.2936345    1.2936345    1.3273180
           1.3273180    1.3938450    1.3938450    1.6955864    1.6955864
           1.7412583    1.7412584    1.7788999    1.7788999    1.8536059
           1.8536059    1.9803705    1.9803705    2.0427939    2.0427939

           2.1785478    2.1785478    2.2652306    2.2652306    2.3828362
           2.3828362    2.4046908    2.4046908    2.5522901    2.5522901
           2.5581062    2.5581062    2.5739544    2.5739544    2.7051901
           2.7051901    2.7298867    2.7298867    2.8569962    2.8569962
           2.9180825    2.9180825    2.9916579    2.9916579    3.0113516
           3.0113516    3.1285855    3.1285855    3.1843591    3.1843591
           3.2080646    3.2080646    3.2508925    3.2508925    3.3674627
           3.3674627    3.4163654    3.4163654    3.5275117    3.5275117

           3.5343569    3.5343569    3.6462101    3.6462101    3.7271277
           3.7271277    3.7444382    3.7444382    3.7865643    3.7865643
           3.9441047    3.9441047    3.9566616    3.9566616    4.0533664
           4.0533664    4.0555167    4.0555167    4.0997361    4.0997361
           4.1074369    4.1074369    4.1659907    4.1659907    4.1969331
           4.1969331    4.3083478    4.3083478    4.3226884    4.3226884
           4.3628410    4.3628410    4.3867997    4.3867997    4.4363091
           4.4363091    4.4491040    4.4491040    4.4919120    4.4919120

       ********************************************************

------- case.scf2 --------
:GMA  : POTENTIAL AND CHARGE CUT-OFF  12.00 Ry**.5




:POS001: at.nr.  -1 position = 0.00000 0.89750 0.25000  multiplicity =  2

       lmmax 16
       lm=   0 0  1 0  2 0  2 2  3 0  3 2  4 0  4 2  4 4  5 0  5 2  5 4  6 0  6 2  6 4  6 6
:FER gutzwiller fermi energy   0.86288
:EORB          0.014240814
:SUM sum of gutz band energies         -4.036304624

:CHA001: total charge inside sphere   1 =     9.642186
:PCS001: partial charges sphere =  1 s,p,d,f,px,py,pz,d-z2,d-x2y2,d-xy,d-xz,d-yz 
:QTL001: 1.9445 4.9865 0.6978 2.0125 1.6601 1.6586 1.6678 0.1337 0.1270 0.1453 0.1413 0.1505

                      vxx         vyy         vzz       up to r

:VZZ001:             3.44237     5.43940    -8.88177       2.300

:CHA  : total charge inside unit cell =      13.000000

------- case.scfc --------

        1.ATOM      Pr1                  14 CORE STATES
       CORE-FORCE in mRy/a.u. = |F|      Fx             Fy             Fz
:FCO001:   1.ATOM    958.538797186202      0.000000000000      0.000000000000    958.538797186202

:1S 001: 1S               -3066.702890727 Ry
:2S 001: 2S                -492.452976218 Ry
:2PP001: 2P*               -465.552472942 Ry
:2P 001: 2P                -430.154836977 Ry
:3S 001: 3S                -105.542937989 Ry
:3PP001: 3P*                -94.080803745 Ry
:3P 001: 3P                 -87.072976828 Ry
:3DD001: 3D*                -66.999820466 Ry
:3D 001: 3D                 -65.488262708 Ry
:4S 001: 4S                 -20.222310920 Ry
:4PP001: 4P*                -15.929268907 Ry
:4P 001: 4P                 -14.402121115 Ry
:4DD001: 4D*                 -7.335489614 Ry
:4D 001: 4D                  -7.066175402 Ry

------- case.scfm --------
:CINT001 Core Integral Atom   1   45.998469

       DENSITY AT NUCLEUS
        JATOM        VALENCE       SEMI-CORE          CORE           TOTAL
:RTO001:   1      648.589140        0.000000   656824.502194   657473.091335
     
       CHARGES OF NEW CHARGE DENSITY
:NTO   : INTERSTITIAL CHARGE =     6.715428
:NPC   : PW Pseudocharge     =    17.258213
:NTO001: CHARGE SPHERE  1    =    55.640655

:NEC01: NUCLEAR AND ELECTRONIC CHARGE    118.00000   117.99674
     
       CHARGES OF OLD CHARGE DENSITY
:OTO   : INTERSTITIAL CHARGE =     6.717949
:OPC   : PW Pseudocharge     =    17.266246
:OTO001: CHARGE SPHERE  1    =    55.641026

:NEC02: NUCLEAR AND ELECTRONIC CHARGE    118.00000   118.00000
     
       CONVERGENCE TEST
:DTO001: DIFFERENCE IN SPHERE  1 =  0.0031090

:DIS  :  CHARGE DISTANCE       ( 0.0031090 for atom    1 spin 1)      0.0031090
 PW Mixed is          394
 
******************************************************
* MULTISECANT MIXING VER9 RELEASE 10.4.0              *
* Standard Mode with controls                        *
* Fixed density scale                                *
* Regularization       1.000E-04                     *
* Trust Upper Limit    5.000E+00                     *
* Max Number of Memory Steps    8                    *
******************************************************
 
:PWTMP   2.7058E+02  1.9467E+02  3.7251E+02
:PLANE:  PW TOTAL      5.3578 DISTAN   6.83E-04  1.27E-02 %
:CHARG:  CLM/ATOM   1381.9414 DISTAN   4.88E-03  3.53E-04 %
 
Step History
        DMIX         DMIXT        Red     Pred      Trust     Lambda    MagRel    MagAbs     Beta
  1   3.5000E-02   3.5000E-02 -1.00E+00  1.00E+00 -1.00E+01  1.00E+00  3.50E-02  3.50E-02  1.00E+00
  2   1.5000E-01   1.5000E-01  6.08E-01  1.00E+00 -1.00E+01  1.00E+00  1.50E-01  2.12E-03  1.00E+00
  3   7.1250E-02   7.1250E-02 -1.00E+00  6.36E-01  3.00E+00  1.00E+00  2.78E-01  2.39E-03  1.00E+00
:JACOBIANS    9.189E-03   5.068E-01
  
:NORMS:  1/Froebius, Min, Max, Used   0.3412E+00  0.3410E+00  0.5079E+00  0.3464E+00
:INFO :  Number of Memory Steps    2 Skipping    0
:INFO :  SLambda=    0.1308455554  Max    0.1308455554
:PREDicted Charge, CTotal, PW Trust    8.507E-04   1.701E-03   1.313E-03
:PREDicted DMix, Beta, BLim   4.8142E-01  1.3657E+00  1.0472E+00

Eigenvalues, unscaled except for SY+YY
   #     SY Real        SY Imag          SS             YY         SY+YY Real      SY+YY Imag
   1   5.227405E-04   0.000000E+00   2.325330E-01   1.999213E+00   8.490144E-04   0.000000E+00
   2   6.125730E-01   0.000000E+00   2.982210E-04   7.867645E-04   2.079372E+00   0.000000E+00
 
:INFO :  Singular value  2.079E+00 Weight  1.000E+00 Projection -7.365E-05
:INFO :  Singular value  8.490E-04 Weight  9.475E-01 Projection  1.618E-01
:RANK :  ACTIVE   1.95/2  =  97.37 % ; YY RANK   1.94/2  =  96.97 %
 
:BLIM :  VZERO Control Off
:TRUST:  Step 4.00E+00  Charge 7.50E-02 (e) CTO  2.50E-01 (e) PW  3.50E-01 (e)
:DIRM :  MEMORY  2/8  SCALE   1.000 RED  0.57 PRED  0.64 NEXT  0.26 
:TRAVE:  Charge 4.37E-04 (e) CTO  8.73E-04 (e) PW  7.28E-04 (e)
:DIRP :  |MSR1|= 5.041E-04 |PRATT|= 6.830E-04 ANGLE=  14.1 DEGREES
:DIRQ :  |MSR1|= 2.921E-03 |PRATT|= 4.879E-03 ANGLE=  12.0 DEGREES
:DIRT :  |MSR1|= 2.964E-03 |PRATT|= 4.927E-03 ANGLE=  12.2 DEGREES
:MIX  :   MSD1   REGULARIZATION:  2.00E-04 GREED: 0.17813  Newton 1.00  0.6017                
     
       CHARGES OF MIXED CHARGE DENSITY
:CTO   : INTERSTITIAL CHARGE =     6.717927
:CPC   : PW Pseudocharge     =    17.266274
:CTO001: CHARGE SPHERE  1    =    55.641036

:NEC03: NUCLEAR AND ELECTRONIC CHARGE    118.00000   118.00000

PW CHANGE     H    K    L      Current       Change    Residue
:PTO001:      0    0    0  6.43857392E-02  1.729E-08  2.922E-06
:PTO003:      0    2    0  1.62919493E-02  7.315E-07  1.273E-07
:PTO004:     -1    1    0  7.90726755E-02  2.544E-06  3.321E-06
:PTO005:      0    2   -1 -9.13419080E-02 -4.197E-06 -6.037E-06
:PTO006:      0    0   -2 -4.73957550E-02 -1.996E-06 -2.974E-06
:PTO007:     -1    1   -1 -9.73150142E-02 -2.186E-06 -3.016E-06
:PTO008:      0    2   -2 -1.49261108E-02 -2.695E-06 -3.950E-06
:PTO009:     -1    1   -2 -7.52255451E-02 -4.902E-06 -6.265E-06
:PTO011:     -1    3    0 -1.16591291E-02 -7.231E-07 -1.265E-06
:PTO012:     -1    3   -1 -5.05965125E-02 -1.018E-05 -1.355E-05
:PTO013:      0    4    0 -8.85526876E-03 -2.003E-06 -2.540E-06
:PTO014:      0    2   -3  2.04015373E-02  5.109E-06  6.847E-06

:ENE  : ********** TOTAL ENERGY IN Ry =       -36944.23443118

       TOTAL FORCE IN mRy/a.u. = |F|     Fx             Fy             Fz     with/without FOR in case.in2
:FOR001:   1.ATOM         12.698          0.000          0.000        -12.698 partial forces
       TOTAL FORCE WITH RESPECT TO GLOBAL CARTESIAN COORDINATES:
:FCA001:   1.ATOM                         0.000        -12.698          0.000 partial forces
       TOTAL FORCE WITH RESPECT TO THE GLOBAL COORDINATE SYSTEM:
:FGL001:   1.ATOM                 0.000000000   -12.697758234     0.000000000 partial forces

------- case.scf0 --------
 Flat Integration
 New Mode for Coulomb Integral
 Consistent 3/8+Simpson combinations
 Extension of core to zero
 LDM version in phi
 Fifth-order quadrature in outwin


            ---------
:ITE069: 69. ITERATION
            ---------

:NATO :    1 INDEPENDENT AND    2 TOTAL ATOMS IN UNITCELL
       SUBSTANCE: aU                                                          

       LATTICE                      = CXY 
:POT  : POTENTIAL OPTION EX_LDA EC_LDA VX_LDA VC_LDA
:LAT  : LATTICE CONSTANTS=  5.93983 12.05341 10.40596    1.571    1.571    1.571
:VOL  : UNIT CELL VOLUME =     372.50797
       MODE OF CALCULATION IS       = RELA
       NON-SPINPOLARIZED CALCULATION
:IFFT  : FFT-parameters:   48   96   80 Factor: 2.00


   CONVERGENCE PARAMETER FOR PSEUDOCHARGE: NCON=  9
   MAXIMAL VALUE OF RMT(JATOM)*ABSK(NKK) : RK  =27.56858


:VKCOUL :  VK-COUL convergence: 0.889E-07
       ATOMNUMBER=  1 Pr1        VCOUL-ZERO =  0.31305E+00
:EFG001:                        EFG         =    -8.93145   *10**21  V / m**2
                               V20  TOT/SRF=    -7.73486    -0.04906
                               V22  TOT/SRF=    -1.00187    -0.00057
                               V22M TOT/SRF=     0.00000     0.00000
                               V21  TOT/SRF=     0.00000     0.00000
                               V21M TOT/SRF=     0.00000     0.00000

              3.46386    0.00000    0.00000        3.46386    0.00000    0.00000
              0.00000    5.46759    0.00000        0.00000    5.46759    0.00000
              0.00000    0.00000   -8.93145        0.00000    0.00000   -8.93145

         MAIN DIRECTIONS OF THE EFG   1.0000  0.0000  0.0000
                                      0.0000  1.0000  0.0000
                                      0.0000  0.0000  1.0000
:ANG001:  ANGLE WITH OLD X-AXIS =         0.0

:ETA001:                         ASYMM. ETA =     0.22435


     HELLMANN-FEYNMAN-FORCE IN mRy/a.u. = |F|  Fx       Fy             Fz
:FHF001:   1.ATOM    965.360647749663      0.000000000000      0.000000000000   -965.360647749663

:FIT001: LUSE= 13 SIGMA OF V-XC FIT FOR ATOM  1  0.1451919E-04
:FIT001: LUSE= 13 SIGMA OF V-XC FIT FOR ATOM  1  0.1451919E-04
:DEN  : DENSITY INTEGRAL  =        -14179.95536792   (Ry)
       ELS_POTENTIAL_AT Z=0 and Z=0.5:   0.84148   0.84148
       ELS_POTENTIAL_AT Y=0 and Y=0.5:   0.03853   0.03853
:VZERO:v0,v0c,v0x   0.19621   0.84148  -0.64527 v5,v5c,v5x   0.19621   0.84148  -0.64527
:VZERY:v0,v0c,v0x  -0.81993   0.03853  -0.85846 v5,v5c,v5x  -0.81993   0.03853  -0.85846
:VZERX:v0,v0c,v0x  -1.20195  -0.39073  -0.81122 v5,v5c,v5x  -1.20195  -0.39073  -0.81122

------- case.scf1 --------
:LMAX-WF:   10   Non-Spherical LMAX:   4

          ATOMIC SPHERE DEPENDENT PARAMETERS FOR ATOM  Pr1       
:e__0001: OVERALL ENERGY PARAMETER IS    0.6434
          OVERALL BASIS SET ON ATOM IS LAPW
:E0_0001: E( 0)=    0.6434
             APW+lo
:E0_0001: E( 0)=   -1.7811   E(BOTTOM)=   -2.421   E(TOP)=   -1.142  4  5   206
             LOCAL ORBITAL
:E1_0001: E( 1)=    1.0434
             APW+lo
:E1_0001: E( 1)=   -0.3132   E(BOTTOM)=   -1.276   E(TOP)=    0.649  3  4   211
             LOCAL ORBITAL
:E3_0001: E( 3)=    0.8780   E(BOTTOM)=    0.667   E(TOP)=    1.089  0  1   123
             APW+lo
:E2_0001: E( 2)=    0.6434   E(BOTTOM)=    0.462   E(TOP)= -200.000  2 -1   121
             APW+lo

       K=   0.06250   0.00000   0.06250            1
:RKM  : MATRIX SIZE   352LOs:  40  RKM= 8.50  WEIGHT= 4.00  PGR:    
       EIGENVALUES ARE:
:EIG00001:      -1.7758938   -1.7410895   -0.5469541   -0.4010694   -0.3683897
:EIG00006:      -0.3572526   -0.3441066   -0.3432742    0.6343511    0.7310125
:EIG00011:       0.8534151    0.8649098    0.8661843    0.8681384    0.8783182
:EIG00016:       0.8981021    0.9061784    0.9064110    0.9104724    0.9135534
:EIG00021:       0.9175051    0.9232025    0.9236686    0.9382250    0.9489946
:EIG00026:       0.9617079    1.0521927    1.0557768    1.1177271    1.1525187
:EIG00031:       1.1531629    1.2936744    1.3270606    1.3937156    1.6952750
:EIG00036:       1.7412170    1.7789103    1.8535885    1.9806257    2.0432992
:EIG00041:       2.1784575    2.2659445    2.3839883    2.4041687    2.5520814
:EIG00046:       2.5581555    2.5747832    2.7070873    2.7278110    2.8568992
 
:EIG00051:       2.9186821    2.9958921    3.0083169    3.1287740    3.1844159
:EIG00056:       3.2072136    3.2518017    3.3669593    3.4152126    3.5300749
:EIG00061:       3.5313937    3.6419930    3.7268350    3.7445495    3.7862753
:EIG00066:       3.9441420    3.9563694    4.0538596    4.0550917    4.0997177
:EIG00071:       4.1070030    4.1669087    4.1968071    4.3100381    4.3208376
:EIG00076:       4.3608895    4.3861239    4.4362314    4.4485419    4.4915255
:EIG00081:       4.5099245    4.5523148    4.5659616    4.6354855    4.6598682
:EIG00086:       4.7607904    4.7801774    4.8560754    4.8924479    4.9254363
:EIG00091:       4.9331307    4.9733769    5.0200257    5.0547695    5.0592752
:EIG00096:       5.0718556    5.1490354    5.1558569    5.2128614    5.2584596
 
:EIG00101:       5.3503672    5.4632515    5.5075247    5.5818981    5.5860176
:EIG00106:       5.6419422    5.6740163    5.7339650    5.7738575    5.8005783
:EIG00111:       5.9085283    5.9473521    6.0610502    6.1182371    6.1524262
:EIG00116:       6.1539151    6.2430020    6.2673697    6.3369255    6.3378618
:EIG00121:       6.4247102    6.4385738    6.5023481    6.5418116    6.5804544
:EIG00126:       6.6673142    6.7369633    6.7441995    6.7763072    6.8424211
:EIG00131:       6.8948053    6.9230403    6.9363645    7.0056778    7.0675699
:EIG00136:       7.0964895    7.1233964    7.1918405    7.2211555    7.2222790
:EIG00141:       7.2755026    7.2856412    7.3357902    7.3703926    7.4250203
:EIG00146:       7.4308433    7.4658735    7.5586866    7.5690071    7.6324311
 
:EIG00151:       7.6506910    7.6766868    7.6956279    7.8624731    7.8895013
:EIG00156:       8.0236498    8.0617271    8.0634629    8.0926253    8.1945657
:EIG00161:       8.2687467    8.3378545
       ********************************************************

:KPT   :      NUMBER OF K-POINTS:   288

------- case.scfso --------
   0.0   0.0 angle (M,z), angle (M,x) deg
 
        SPIN-ORBIT EIGENVALUES:
     K=   0.06250   0.00000   0.06250            1
      MATRIX SIZE=  324   WEIGHT= 4.00
     EIGENVALUES ARE:
          -1.7758947   -1.7758947   -1.7410898   -1.7410898   -0.6038724
          -0.6038724   -0.5079281   -0.5079281   -0.4019217   -0.4019217
          -0.2965933   -0.2965933   -0.2927294   -0.2927294   -0.2779458
          -0.2779458    0.6344306    0.6344306    0.7309144    0.7309144
           0.8514567    0.8514567    0.8622050    0.8622050    0.8633474
           0.8633475    0.8657380    0.8657380    0.8750073    0.8750073
           0.8888601    0.8888602    0.8991565    0.8991565    0.9091499
           0.9091499    0.9150793    0.9150793    0.9164408    0.9164408

           0.9205325    0.9205325    0.9244403    0.9244404    0.9295852
           0.9295853    0.9418362    0.9418362    0.9512731    0.9512731
           0.9628034    0.9628034    1.0487011    1.0487011    1.0593477
           1.0593477    1.1181755    1.1181755    1.1508201    1.1508201
           1.1552589    1.1552589    1.2936296    1.2936296    1.3273181
           1.3273181    1.3938452    1.3938452    1.6955854    1.6955854
           1.7412560    1.7412560    1.7788936    1.7788936    1.8536005
           1.8536005    1.9803659    1.9803659    2.0427828    2.0427828

           2.1785404    2.1785404    2.2652237    2.2652237    2.3828273
           2.3828273    2.4046836    2.4046836    2.5522801    2.5522801
           2.5580980    2.5580980    2.5739417    2.5739417    2.7051812
           2.7051812    2.7298748    2.7298748    2.8569868    2.8569868
           2.9180694    2.9180694    2.9916505    2.9916505    3.0113411
           3.0113411    3.1285753    3.1285753    3.1843495    3.1843495
           3.2080491    3.2080491    3.2508834    3.2508834    3.3674569
           3.3674569    3.4163588    3.4163588    3.5275033    3.5275033

           3.5343479    3.5343479    3.6462037    3.6462037    3.7271112
           3.7271112    3.7444272    3.7444272    3.7865518    3.7865518
           3.9440948    3.9440948    3.9566455    3.9566455    4.0533533
           4.0533533    4.0555030    4.0555030    4.0997253    4.0997253
           4.1074312    4.1074312    4.1659852    4.1659852    4.1969213
           4.1969213    4.3083366    4.3083366    4.3226763    4.3226763
           4.3628268    4.3628268    4.3867888    4.3867888    4.4362958
           4.4362958    4.4490894    4.4490894    4.4919019    4.4919019

       ********************************************************

------- case.scf2 --------
:GMA  : POTENTIAL AND CHARGE CUT-OFF  12.00 Ry**.5




:POS001: at.nr.  -1 position = 0.00000 0.89750 0.25000  multiplicity =  2

       lmmax 16
       lm=   0 0  1 0  2 0  2 2  3 0  3 2  4 0  4 2  4 4  5 0  5 2  5 4  6 0  6 2  6 4  6 6
:FER gutzwiller fermi energy   0.86285
:EORB          0.014610084
:SUM sum of gutz band energies         -4.036564050

:CHA001: total charge inside sphere   1 =     9.642311
:PCS001: partial charges sphere =  1 s,p,d,f,px,py,pz,d-z2,d-x2y2,d-xy,d-xz,d-yz 
:QTL001: 1.9445 4.9865 0.6977 2.0127 1.6600 1.6586 1.6678 0.1337 0.1270 0.1453 0.1413 0.1505

                      vxx         vyy         vzz       up to r

:VZZ001:             3.44009     5.43326    -8.87335       2.300

:CHA  : total charge inside unit cell =      12.999998

------- case.scfc --------

        1.ATOM      Pr1                  14 CORE STATES
       CORE-FORCE in mRy/a.u. = |F|      Fx             Fy             Fz
:FCO001:   1.ATOM    953.111597543750      0.000000000000      0.000000000000    953.111597543750

:1S 001: 1S               -3066.701551274 Ry
:2S 001: 2S                -492.451874671 Ry
:2PP001: 2P*               -465.551318698 Ry
:2P 001: 2P                -430.153702486 Ry
:3S 001: 3S                -105.542303240 Ry
:3PP001: 3P*                -94.080143236 Ry
:3P 001: 3P                 -87.072342626 Ry
:3DD001: 3D*                -66.999117201 Ry
:3D 001: 3D                 -65.487568608 Ry
:4S 001: 4S                 -20.222136888 Ry
:4PP001: 4P*                -15.929102254 Ry
:4P 001: 4P                 -14.401973489 Ry
:4DD001: 4D*                 -7.335359988 Ry
:4D 001: 4D                  -7.066051124 Ry

------- case.scfm --------
:CINT001 Core Integral Atom   1   45.998469

       DENSITY AT NUCLEUS
        JATOM        VALENCE       SEMI-CORE          CORE           TOTAL
:RTO001:   1      648.585748        0.000000   656824.370912   657472.956660
     
       CHARGES OF NEW CHARGE DENSITY
:NTO   : INTERSTITIAL CHARGE =     6.715339
:NPC   : PW Pseudocharge     =    17.258201
:NTO001: CHARGE SPHERE  1    =    55.640780

:NEC01: NUCLEAR AND ELECTRONIC CHARGE    118.00000   117.99690
     
       CHARGES OF OLD CHARGE DENSITY
:OTO   : INTERSTITIAL CHARGE =     6.717927
:OPC   : PW Pseudocharge     =    17.266274
:OTO001: CHARGE SPHERE  1    =    55.641036

:NEC02: NUCLEAR AND ELECTRONIC CHARGE    118.00000   118.00000
     
       CONVERGENCE TEST
:DTO001: DIFFERENCE IN SPHERE  1 =  0.0007146

:DIS  :  CHARGE DISTANCE       ( 0.0007146 for atom    1 spin 1)      0.0007146
 PW Mixed is          394
 
******************************************************
* MULTISECANT MIXING VER9 RELEASE 10.4.0              *
* Standard Mode with controls                        *
* Fixed density scale                                *
* Regularization       1.000E-04                     *
* Trust Upper Limit    5.000E+00                     *
* Max Number of Memory Steps    8                    *
******************************************************
 
:PWTMP   2.7058E+02  1.9467E+02  3.7251E+02
:PLANE:  PW TOTAL      5.3580 DISTAN   1.57E-04  2.94E-03 %
:CHARG:  CLM/ATOM   1381.9427 DISTAN   1.30E-03  9.42E-05 %
 
Step History
        DMIX         DMIXT        Red     Pred      Trust     Lambda    MagRel    MagAbs     Beta
  1   3.5000E-02   3.5000E-02 -1.00E+00  1.00E+00 -1.00E+01  1.00E+00  3.50E-02  3.50E-02  1.00E+00
  2   1.5000E-01   1.5000E-01  6.08E-01  1.00E+00 -1.00E+01  1.00E+00  1.50E-01  2.12E-03  1.00E+00
  3   7.1250E-02   7.1250E-02  5.72E-01  6.36E-01  3.00E+00  1.31E-01  2.78E-01  2.39E-03  1.00E+00
  4   1.7813E-01   1.7813E-01 -1.00E+00  2.55E-01  4.00E+00  1.00E+00  6.02E-01  2.96E-03  1.00E+00
:JACOBIANS    1.775E-02   7.573E-01
  
:NORMS:  1/Froebius, Min, Max, Used   0.5835E+00  0.3943E+00  0.6903E+00  0.6603E+00
:INFO :  Number of Memory Steps    3 Skipping    0
:INFO :  SLambda=    1.7894237620  Max    1.7894237620
:PREDicted Charge, CTotal, PW Trust    1.191E-04   2.382E-04   2.277E-04
:PREDicted DMix, Beta, BLim   1.6260E-01  1.1962E+00  8.1869E-01

Eigenvalues, unscaled except for SY+YY
   #     SY Real        SY Imag          SS             YY         SY+YY Real      SY+YY Imag
   1   1.128437E+00   0.000000E+00   9.017634E-01   2.068522E+00   4.008167E+00   0.000000E+00
   2   6.764171E-06   0.000000E+00   1.197381E-01   9.314336E-01   5.609380E-05   0.000000E+00
   3   3.980029E-01   0.000000E+00   1.368737E-06   4.393439E-05   1.723237E+00   0.000000E+00
 
:INFO :  Singular value  4.057E+00 Weight  1.000E+00 Projection -8.045E-04
:INFO :  Singular value  1.702E+00 Weight  1.000E+00 Projection  1.645E-04
:INFO :  Singular value  5.609E-05 Weight  6.850E-02 Projection  6.250E-04
:RANK :  ACTIVE   2.07/3  =  68.95 % ; YY RANK   2.04/3  =  68.11 %
 
:BLIM :  VZERO Control Off
:TRUST:  Step 5.33E+00  Charge 7.50E-02 (e) CTO  2.50E-01 (e) PW  3.50E-01 (e)
:DIRM :  MEMORY  3/8  SCALE   1.000 RED  0.27 PRED  0.26 NEXT  0.49 
:TRAVE:  Charge 2.71E-04 (e) CTO  5.41E-04 (e) PW  4.45E-04 (e)
:DIRP :  |MSR1|= 1.074E-04 |PRATT|= 1.573E-04 ANGLE=  32.6 DEGREES
:DIRQ :  |MSR1|= 7.328E-04 |PRATT|= 1.302E-03 ANGLE=  34.2 DEGREES
:DIRT :  |MSR1|= 7.406E-04 |PRATT|= 1.311E-03 ANGLE=  34.2 DEGREES
:MIX  :   MSE1   REGULARIZATION:  2.07E-04 GREED: 0.14630  Newton 1.00  0.5647                
     
       CHARGES OF MIXED CHARGE DENSITY
:CTO   : INTERSTITIAL CHARGE =     6.718137
:CPC   : PW Pseudocharge     =    17.266375
:CTO001: CHARGE SPHERE  1    =    55.640932

:NEC03: NUCLEAR AND ELECTRONIC CHARGE    118.00000   118.00000

PW CHANGE     H    K    L      Current       Change    Residue
:PTO001:      0    0    0  6.43865725E-02  8.334E-07  1.102E-06
:PTO003:      0    2    0  1.62919135E-02 -3.588E-08 -7.383E-07
:PTO004:     -1    1    0  7.90732472E-02  5.718E-07 -6.036E-07
:PTO005:      0    2   -1 -9.13428711E-02 -9.631E-07  5.067E-07
:PTO006:      0    0   -2 -4.73962462E-02 -4.912E-07  2.661E-07
:PTO007:     -1    1   -1 -9.73155099E-02 -4.957E-07  9.524E-07
:PTO008:      0    2   -2 -1.49267636E-02 -6.529E-07 -7.593E-07
:PTO009:     -1    1   -2 -7.52263823E-02 -8.372E-07  3.235E-07
:PTO011:     -1    3    0 -1.16593093E-02 -1.803E-07 -3.414E-07
:PTO012:     -1    3   -1 -5.05985170E-02 -2.005E-06 -2.234E-06
:PTO013:      0    4    0 -8.85563382E-03 -3.651E-07 -4.298E-07
:PTO014:      0    2   -3  2.04025838E-02  1.047E-06  1.382E-06

:ENE  : ********** TOTAL ENERGY IN Ry =       -36944.23444603

       TOTAL FORCE IN mRy/a.u. = |F|     Fx             Fy             Fz     with/without FOR in case.in2
:FOR001:   1.ATOM         12.249          0.000          0.000        -12.249 partial forces
       TOTAL FORCE WITH RESPECT TO GLOBAL CARTESIAN COORDINATES:
:FCA001:   1.ATOM                         0.000        -12.249          0.000 partial forces
       TOTAL FORCE WITH RESPECT TO THE GLOBAL COORDINATE SYSTEM:
:FGL001:   1.ATOM                 0.000000000   -12.249050206     0.000000000 partial forces

------- case.scf0 --------
 Flat Integration
 New Mode for Coulomb Integral
 Consistent 3/8+Simpson combinations
 Extension of core to zero
 LDM version in phi
 Fifth-order quadrature in outwin


            ---------
:ITE070: 70. ITERATION
            ---------

:NATO :    1 INDEPENDENT AND    2 TOTAL ATOMS IN UNITCELL
       SUBSTANCE: aU                                                          

       LATTICE                      = CXY 
:POT  : POTENTIAL OPTION EX_LDA EC_LDA VX_LDA VC_LDA
:LAT  : LATTICE CONSTANTS=  5.93983 12.05341 10.40596    1.571    1.571    1.571
:VOL  : UNIT CELL VOLUME =     372.50797
       MODE OF CALCULATION IS       = RELA
       NON-SPINPOLARIZED CALCULATION
:IFFT  : FFT-parameters:   48   96   80 Factor: 2.00


   CONVERGENCE PARAMETER FOR PSEUDOCHARGE: NCON=  9
   MAXIMAL VALUE OF RMT(JATOM)*ABSK(NKK) : RK  =27.56858


:VKCOUL :  VK-COUL convergence: 0.890E-07
       ATOMNUMBER=  1 Pr1        VCOUL-ZERO =  0.31305E+00
:EFG001:                        EFG         =    -8.93238   *10**21  V / m**2
                               V20  TOT/SRF=    -7.73567    -0.04905
                               V22  TOT/SRF=    -0.99804    -0.00056
                               V22M TOT/SRF=     0.00000     0.00000
                               V21  TOT/SRF=     0.00000     0.00000
                               V21M TOT/SRF=     0.00000     0.00000

              3.46815    0.00000    0.00000        3.46815    0.00000    0.00000
              0.00000    5.46423    0.00000        0.00000    5.46423    0.00000
              0.00000    0.00000   -8.93238        0.00000    0.00000   -8.93238

         MAIN DIRECTIONS OF THE EFG   1.0000  0.0000  0.0000
                                      0.0000  1.0000  0.0000
                                      0.0000  0.0000  1.0000
:ANG001:  ANGLE WITH OLD X-AXIS =         0.0

:ETA001:                         ASYMM. ETA =     0.22347


     HELLMANN-FEYNMAN-FORCE IN mRy/a.u. = |F|  Fx       Fy             Fz
:FHF001:   1.ATOM    963.835955346919      0.000000000000      0.000000000000   -963.835955346919

:FIT001: LUSE= 13 SIGMA OF V-XC FIT FOR ATOM  1  0.1450326E-04
:FIT001: LUSE= 13 SIGMA OF V-XC FIT FOR ATOM  1  0.1450326E-04
:DEN  : DENSITY INTEGRAL  =        -14179.94000752   (Ry)
       ELS_POTENTIAL_AT Z=0 and Z=0.5:   0.84149   0.84149
       ELS_POTENTIAL_AT Y=0 and Y=0.5:   0.03851   0.03851
:VZERO:v0,v0c,v0x   0.19622   0.84149  -0.64528 v5,v5c,v5x   0.19622   0.84149  -0.64528
:VZERY:v0,v0c,v0x  -0.81994   0.03851  -0.85846 v5,v5c,v5x  -0.81994   0.03851  -0.85846
:VZERX:v0,v0c,v0x  -1.20196  -0.39073  -0.81123 v5,v5c,v5x  -1.20196  -0.39073  -0.81123

------- case.scf1 --------
:LMAX-WF:   10   Non-Spherical LMAX:   4

          ATOMIC SPHERE DEPENDENT PARAMETERS FOR ATOM  Pr1       
:e__0001: OVERALL ENERGY PARAMETER IS    0.6434
          OVERALL BASIS SET ON ATOM IS LAPW
:E0_0001: E( 0)=    0.6434
             APW+lo
:E0_0001: E( 0)=   -1.7812   E(BOTTOM)=   -2.421   E(TOP)=   -1.142  4  5   206
             LOCAL ORBITAL
:E1_0001: E( 1)=    1.0434
             APW+lo
:E1_0001: E( 1)=   -0.3133   E(BOTTOM)=   -1.276   E(TOP)=    0.649  3  4   208
             LOCAL ORBITAL
:E3_0001: E( 3)=    0.8779   E(BOTTOM)=    0.667   E(TOP)=    1.088  0  1   118
             APW+lo
:E2_0001: E( 2)=    0.6434   E(BOTTOM)=    0.461   E(TOP)= -200.000  2 -1   124
             APW+lo

       K=   0.06250   0.00000   0.06250            1
:RKM  : MATRIX SIZE   352LOs:  40  RKM= 8.50  WEIGHT= 4.00  PGR:    
       EIGENVALUES ARE:
:EIG00001:      -1.7759705   -1.7411688   -0.5470054   -0.4011271   -0.3684495
:EIG00006:      -0.3573154   -0.3441708   -0.3433378    0.6343423    0.7310004
:EIG00011:       0.8533275    0.8647925    0.8660598    0.8680262    0.8781984
:EIG00016:       0.8979641    0.9060400    0.9062749    0.9103348    0.9134265
:EIG00021:       0.9173936    0.9230820    0.9235293    0.9380793    0.9488860
:EIG00026:       0.9616248    1.0521455    1.0557481    1.1176982    1.1524889
:EIG00031:       1.1531334    1.2936452    1.3270264    1.3936782    1.6952545
:EIG00036:       1.7411953    1.7788927    1.8535596    1.9806146    2.0432836
:EIG00041:       2.1784389    2.2659280    2.3839735    2.4041480    2.5520609
:EIG00046:       2.5581393    2.5747735    2.7070725    2.7277991    2.8568895
 
:EIG00051:       2.9186664    2.9958683    3.0083021    3.1287518    3.1843940
:EIG00056:       3.2072011    3.2517870    3.3669260    3.4151974    3.5300552
:EIG00061:       3.5313838    3.6419691    3.7268292    3.7445341    3.7862637
:EIG00066:       3.9441270    3.9563625    4.0538559    4.0550871    4.0997078
:EIG00071:       4.1069891    4.1668927    4.1968002    4.3100315    4.3208312
:EIG00076:       4.3608846    4.3861140    4.4362252    4.4485368    4.4915206
:EIG00081:       4.5099198    4.5523099    4.5659536    4.6354795    4.6598682
:EIG00086:       4.7607844    4.7801769    4.8560716    4.8924401    4.9254252
:EIG00091:       4.9331294    4.9733752    5.0200131    5.0547632    5.0592620
:EIG00096:       5.0718550    5.1490330    5.1558547    5.2128509    5.2584544
 
:EIG00101:       5.3503594    5.4632465    5.5075163    5.5818974    5.5860159
:EIG00106:       5.6419338    5.6740142    5.7339646    5.7738552    5.8005717
:EIG00111:       5.9085224    5.9473495    6.0610395    6.1182352    6.1524179
:EIG00116:       6.1539109    6.2429884    6.2673626    6.3369219    6.3378513
:EIG00121:       6.4247055    6.4385653    6.5023386    6.5418076    6.5804475
:EIG00126:       6.6673115    6.7369588    6.7441933    6.7762993    6.8424170
:EIG00131:       6.8947987    6.9230352    6.9363619    7.0056655    7.0675610
:EIG00136:       7.0964872    7.1233942    7.1918340    7.2211544    7.2222746
:EIG00141:       7.2754975    7.2856440    7.3357887    7.3703878    7.4250092
:EIG00146:       7.4308413    7.4658676    7.5586827    7.5690066    7.6324323
 
:EIG00151:       7.6506758    7.6766797    7.6956274    7.8624642    7.8894994
:EIG00156:       8.0236434    8.0617253    8.0634588    8.0926206    8.1945641
:EIG00161:       8.2687443    8.3378505
       ********************************************************

:KPT   :      NUMBER OF K-POINTS:   288

------- case.scfso --------
   0.0   0.0 angle (M,z), angle (M,x) deg
 
        SPIN-ORBIT EIGENVALUES:
     K=   0.06250   0.00000   0.06250            1
      MATRIX SIZE=  324   WEIGHT= 4.00
     EIGENVALUES ARE:
          -1.7759714   -1.7759714   -1.7411691   -1.7411691   -0.6039295
          -0.6039295   -0.5079941   -0.5079941   -0.4019772   -0.4019772
          -0.2966532   -0.2966532   -0.2927889   -0.2927889   -0.2780074
          -0.2780074    0.6344218    0.6344218    0.7309022    0.7309022
           0.8513640    0.8513640    0.8620864    0.8620864    0.8632228
           0.8632228    0.8656222    0.8656222    0.8748851    0.8748851
           0.8887193    0.8887193    0.8990308    0.8990308    0.9090232
           0.9090232    0.9149494    0.9149494    0.9163153    0.9163153

           0.9204059    0.9204059    0.9243208    0.9243208    0.9294510
           0.9294510    0.9416921    0.9416921    0.9511618    0.9511618
           0.9627161    0.9627161    1.0486570    1.0486570    1.0593146
           1.0593146    1.1181465    1.1181466    1.1507898    1.1507898
           1.1552297    1.1552297    1.2936004    1.2936004    1.3272839
           1.3272839    1.3938079    1.3938079    1.6955648    1.6955648
           1.7412342    1.7412342    1.7788760    1.7788760    1.8535716
           1.8535716    1.9803549    1.9803549    2.0427673    2.0427673

           2.1785218    2.1785218    2.2652071    2.2652071    2.3828119
           2.3828119    2.4046634    2.4046634    2.5522598    2.5522598
           2.5580819    2.5580819    2.5739319    2.5739319    2.7051666
           2.7051666    2.7298625    2.7298625    2.8569770    2.8569770
           2.9180536    2.9180536    2.9916285    2.9916285    3.0113247
           3.0113247    3.1285531    3.1285531    3.1843282    3.1843282
           3.2080363    3.2080363    3.2508686    3.2508686    3.3674238
           3.3674238    3.4163435    3.4163435    3.5274878    3.5274878

           3.5343335    3.5343335    3.6461803    3.6461803    3.7271052
           3.7271052    3.7444119    3.7444119    3.7865402    3.7865402
           3.9440799    3.9440799    3.9566384    3.9566384    4.0533495
           4.0533495    4.0554985    4.0554985    4.0997154    4.0997154
           4.1074173    4.1074173    4.1659695    4.1659695    4.1969144
           4.1969144    4.3083302    4.3083302    4.3226697    4.3226697
           4.3628218    4.3628218    4.3867790    4.3867790    4.4362897
           4.4362897    4.4490842    4.4490842    4.4918970    4.4918970

       ********************************************************

------- case.scf2 --------
:GMA  : POTENTIAL AND CHARGE CUT-OFF  12.00 Ry**.5




:POS001: at.nr.  -1 position = 0.00000 0.89750 0.25000  multiplicity =  2

       lmmax 16
       lm=   0 0  1 0  2 0  2 2  3 0  3 2  4 0  4 2  4 4  5 0  5 2  5 4  6 0  6 2  6 4  6 6
:FER gutzwiller fermi energy   0.86281
:EORB          0.014267311
:SUM sum of gutz band energies         -4.037873826

:CHA001: total charge inside sphere   1 =     9.642549
:PCS001: partial charges sphere =  1 s,p,d,f,px,py,pz,d-z2,d-x2y2,d-xy,d-xz,d-yz 
:QTL001: 1.9445 4.9865 0.6976 2.0130 1.6601 1.6586 1.6678 0.1336 0.1270 0.1452 0.1413 0.1505

                      vxx         vyy         vzz       up to r

:VZZ001:             3.43763     5.43048    -8.86811       2.300

:CHA  : total charge inside unit cell =      12.999995

------- case.scfc --------

        1.ATOM      Pr1                  14 CORE STATES
       CORE-FORCE in mRy/a.u. = |F|      Fx             Fy             Fz
:FCO001:   1.ATOM    951.655010831819      0.000000000000      0.000000000000    951.655010831819

:1S 001: 1S               -3066.701588925 Ry
:2S 001: 2S                -492.451956854 Ry
:2PP001: 2P*               -465.551391024 Ry
:2P 001: 2P                -430.153778503 Ry
:3S 001: 3S                -105.542466796 Ry
:3PP001: 3P*                -94.080302511 Ry
:3P 001: 3P                 -87.072505805 Ry
:3DD001: 3D*                -66.999269254 Ry
:3D 001: 3D                 -65.487722122 Ry
:4S 001: 4S                 -20.222330158 Ry
:4PP001: 4P*                -15.929293088 Ry
:4P 001: 4P                 -14.402162074 Ry
:4DD001: 4D*                 -7.335541331 Ry
:4D 001: 4D                  -7.066231457 Ry

------- case.scfm --------
:CINT001 Core Integral Atom   1   45.998469

       DENSITY AT NUCLEUS
        JATOM        VALENCE       SEMI-CORE          CORE           TOTAL
:RTO001:   1      648.594783        0.000000   656824.358494   657472.953277
     
       CHARGES OF NEW CHARGE DENSITY
:NTO   : INTERSTITIAL CHARGE =     6.714684
:NPC   : PW Pseudocharge     =    17.258046
:NTO001: CHARGE SPHERE  1    =    55.641018

:NEC01: NUCLEAR AND ELECTRONIC CHARGE    118.00000   117.99672
     
       CHARGES OF OLD CHARGE DENSITY
:OTO   : INTERSTITIAL CHARGE =     6.718137
:OPC   : PW Pseudocharge     =    17.266375
:OTO001: CHARGE SPHERE  1    =    55.640932

:NEC02: NUCLEAR AND ELECTRONIC CHARGE    118.00000   118.00000
     
       CONVERGENCE TEST
:DTO001: DIFFERENCE IN SPHERE  1 =  0.0002688

:DIS  :  CHARGE DISTANCE       ( 0.0002688 for atom    1 spin 1)      0.0002688
 PW Mixed is          394
 
******************************************************
* MULTISECANT MIXING VER9 RELEASE 10.4.0              *
* Standard Mode with controls                        *
* Fixed density scale                                *
* Regularization       1.000E-04                     *
* Trust Upper Limit    5.000E+00                     *
* Max Number of Memory Steps    8                    *
******************************************************
 
:PWTMP   2.7058E+02  1.9467E+02  3.7251E+02
:PLANE:  PW TOTAL      5.3581 DISTAN   1.41E-04  2.63E-03 %
:CHARG:  CLM/ATOM   1381.9429 DISTAN   4.96E-04  3.59E-05 %
 
Step History
        DMIX         DMIXT        Red     Pred      Trust     Lambda    MagRel    MagAbs     Beta
  1   3.5000E-02   3.5000E-02 -1.00E+00  1.00E+00 -1.00E+01  1.00E+00  3.50E-02  3.50E-02  1.00E+00
  2   1.5000E-01   1.5000E-01  6.08E-01  1.00E+00 -1.00E+01  1.00E+00  1.50E-01  2.12E-03  1.00E+00
  3   7.1250E-02   7.1250E-02  5.72E-01  6.36E-01  3.00E+00  1.31E-01  2.78E-01  2.39E-03  1.00E+00
  4   1.7813E-01   1.7813E-01  2.66E-01  2.55E-01  4.00E+00  1.79E+00  6.02E-01  2.96E-03  1.00E+00
  5   1.4630E-01   1.4630E-01 -1.00E+00  4.92E-01  5.33E+00  1.00E+00  5.65E-01  7.41E-04  1.00E+00
:JACOBIANS    4.156E-02   1.013E+00
  
:NORMS:  1/Froebius, Min, Max, Used   0.6079E+00  0.3980E+00  0.7384E+00  0.6495E+00
:INFO :  Number of Memory Steps    4 Skipping    0
:INFO :  SLambda=    1.1004436599  Max    1.1004436599
:PREDicted Charge, CTotal, PW Trust    6.432E-05   1.286E-04   5.600E-05
:PREDicted DMix, Beta, BLim   2.9712E-01  9.8952E-01  8.0095E-01

Eigenvalues, unscaled except for SY+YY
   #     SY Real        SY Imag          SS             YY         SY+YY Real      SY+YY Imag
   1   1.794447E+00   0.000000E+00   1.381022E+00   3.273738E+00   5.215240E+00   0.000000E+00
   2   3.008180E-01   0.000000E+00   9.414436E-02   7.099603E-01   1.074244E+00   0.000000E+00
   3   5.000417E-06   0.000000E+00   3.055727E-03   1.627726E-02   3.123327E-05   0.000000E+00
   4   5.094160E-03   0.000000E+00   1.002854E-06   2.473600E-05   2.181672E-02   0.000000E+00
 
:INFO :  Singular value  5.229E+00 Weight  1.000E+00 Projection -4.189E-06
:INFO :  Singular value  1.071E+00 Weight  1.000E+00 Projection  3.315E-05
:INFO :  Singular value  2.181E-02 Weight  9.998E-01 Projection -2.788E-03
:INFO :  Singular value  3.123E-05 Weight  9.020E-03 Projection -3.685E-04
:RANK :  ACTIVE   3.01/4  =  75.22 % ; YY RANK   3.01/4  =  75.13 %
 
:DLIM :  Beta Active  9.921E-01
:BLIM :  VZERO Control Off
:TRUST:  Step 7.11E+00  Charge 6.00E-02 (e) CTO  2.00E-01 (e) PW  2.80E-01 (e)
:DIRM :  MEMORY  4/8  SCALE   1.000 RED  0.39 PRED  0.49 NEXT  0.90 BETA  0.99
:TRAVE:  Charge 1.50E-04 (e) CTO  3.00E-04 (e) PW  2.37E-04 (e)
:DIRP :  |MSR1|= 7.171E-05 |PRATT|= 1.409E-04 ANGLE=  14.7 DEGREES
:DIRQ :  |MSR1|= 2.118E-04 |PRATT|= 4.962E-04 ANGLE=   8.9 DEGREES
:DIRT :  |MSR1|= 2.236E-04 |PRATT|= 5.158E-04 ANGLE=  10.0 DEGREES
:MIX  :   MSE1   REGULARIZATION:  3.27E-04 GREED: 0.21764  Newton 1.00  0.4335                
     
       CHARGES OF MIXED CHARGE DENSITY
:CTO   : INTERSTITIAL CHARGE =     6.718077
:CPC   : PW Pseudocharge     =    17.266488
:CTO001: CHARGE SPHERE  1    =    55.640961

:NEC03: NUCLEAR AND ELECTRONIC CHARGE    118.00000   118.00000

PW CHANGE     H    K    L      Current       Change    Residue
:PTO001:      0    0    0  6.43867183E-02  1.458E-07 -1.884E-07
:PTO003:      0    2    0  1.62921915E-02  2.780E-07  4.535E-07
:PTO004:     -1    1    0  7.90743367E-02  1.089E-06  1.779E-06
:PTO005:      0    2   -1 -9.13439067E-02 -1.036E-06 -1.612E-06
:PTO006:      0    0   -2 -4.73967407E-02 -4.945E-07 -7.270E-07
:PTO007:     -1    1   -1 -9.73167287E-02 -1.219E-06 -1.899E-06
:PTO008:      0    2   -2 -1.49271265E-02 -3.629E-07 -7.568E-07
:PTO009:     -1    1   -2 -7.52274805E-02 -1.098E-06 -1.885E-06
:PTO011:     -1    3    0 -1.16595721E-02 -2.628E-07 -5.190E-07
:PTO012:     -1    3   -1 -5.05998962E-02 -1.379E-06 -2.936E-06
:PTO013:      0    4    0 -8.85590836E-03 -2.745E-07 -5.990E-07
:PTO014:      0    2   -3  2.04032196E-02  6.358E-07  1.397E-06

:ENE  : ********** TOTAL ENERGY IN Ry =       -36944.23443014

       TOTAL FORCE IN mRy/a.u. = |F|     Fx             Fy             Fz     with/without FOR in case.in2
:FOR001:   1.ATOM         12.181          0.000          0.000        -12.181 partial forces
       TOTAL FORCE WITH RESPECT TO GLOBAL CARTESIAN COORDINATES:
:FCA001:   1.ATOM                         0.000        -12.181          0.000 partial forces
       TOTAL FORCE WITH RESPECT TO THE GLOBAL COORDINATE SYSTEM:
:FGL001:   1.ATOM                 0.000000000   -12.180944515     0.000000000 partial forces

------- case.scf0 --------
 Flat Integration
 New Mode for Coulomb Integral
 Consistent 3/8+Simpson combinations
 Extension of core to zero
 LDM version in phi
 Fifth-order quadrature in outwin


            ---------
:ITE071: 71. ITERATION
            ---------

:NATO :    1 INDEPENDENT AND    2 TOTAL ATOMS IN UNITCELL
       SUBSTANCE: aU                                                          

       LATTICE                      = CXY 
:POT  : POTENTIAL OPTION EX_LDA EC_LDA VX_LDA VC_LDA
:LAT  : LATTICE CONSTANTS=  5.93983 12.05341 10.40596    1.571    1.571    1.571
:VOL  : UNIT CELL VOLUME =     372.50797
       MODE OF CALCULATION IS       = RELA
       NON-SPINPOLARIZED CALCULATION
:IFFT  : FFT-parameters:   48   96   80 Factor: 2.00


   CONVERGENCE PARAMETER FOR PSEUDOCHARGE: NCON=  9
   MAXIMAL VALUE OF RMT(JATOM)*ABSK(NKK) : RK  =27.56858


:VKCOUL :  VK-COUL convergence: 0.890E-07
       ATOMNUMBER=  1 Pr1        VCOUL-ZERO =  0.31305E+00
:EFG001:                        EFG         =    -8.92924   *10**21  V / m**2
                               V20  TOT/SRF=    -7.73295    -0.04905
                               V22  TOT/SRF=    -0.99615    -0.00056
                               V22M TOT/SRF=     0.00000     0.00000
                               V21  TOT/SRF=     0.00000     0.00000
                               V21M TOT/SRF=     0.00000     0.00000

              3.46847    0.00000    0.00000        3.46847    0.00000    0.00000
              0.00000    5.46077    0.00000        0.00000    5.46077    0.00000
              0.00000    0.00000   -8.92924        0.00000    0.00000   -8.92924

         MAIN DIRECTIONS OF THE EFG   1.0000  0.0000  0.0000
                                      0.0000  1.0000  0.0000
                                      0.0000  0.0000  1.0000
:ANG001:  ANGLE WITH OLD X-AXIS =         0.0

:ETA001:                         ASYMM. ETA =     0.22312


     HELLMANN-FEYNMAN-FORCE IN mRy/a.u. = |F|  Fx       Fy             Fz
:FHF001:   1.ATOM    963.311384369878      0.000000000000      0.000000000000   -963.311384369878

:FIT001: LUSE= 13 SIGMA OF V-XC FIT FOR ATOM  1  0.1449779E-04
:FIT001: LUSE= 13 SIGMA OF V-XC FIT FOR ATOM  1  0.1449779E-04
:DEN  : DENSITY INTEGRAL  =        -14179.93959703   (Ry)
       ELS_POTENTIAL_AT Z=0 and Z=0.5:   0.84149   0.84149
       ELS_POTENTIAL_AT Y=0 and Y=0.5:   0.03852   0.03852
:VZERO:v0,v0c,v0x   0.19621   0.84149  -0.64528 v5,v5c,v5x   0.19621   0.84149  -0.64528
:VZERY:v0,v0c,v0x  -0.81994   0.03852  -0.85846 v5,v5c,v5x  -0.81994   0.03852  -0.85846
:VZERX:v0,v0c,v0x  -1.20196  -0.39073  -0.81123 v5,v5c,v5x  -1.20196  -0.39073  -0.81123

------- case.scf1 --------
:LMAX-WF:   10   Non-Spherical LMAX:   4

          ATOMIC SPHERE DEPENDENT PARAMETERS FOR ATOM  Pr1       
:e__0001: OVERALL ENERGY PARAMETER IS    0.6434
          OVERALL BASIS SET ON ATOM IS LAPW
:E0_0001: E( 0)=    0.6434
             APW+lo
:E0_0001: E( 0)=   -1.7812   E(BOTTOM)=   -2.421   E(TOP)=   -1.142  4  5   205
             LOCAL ORBITAL
:E1_0001: E( 1)=    1.0434
             APW+lo
:E1_0001: E( 1)=   -0.3133   E(BOTTOM)=   -1.276   E(TOP)=    0.649  3  4   212
             LOCAL ORBITAL
:E3_0001: E( 3)=    0.8779   E(BOTTOM)=    0.667   E(TOP)=    1.088  0  1   120
             APW+lo
:E2_0001: E( 2)=    0.6434   E(BOTTOM)=    0.461   E(TOP)= -200.000  2 -1   120
             APW+lo

       K=   0.06250   0.00000   0.06250            1
:RKM  : MATRIX SIZE   352LOs:  40  RKM= 8.50  WEIGHT= 4.00  PGR:    
       EIGENVALUES ARE:
:EIG00001:      -1.7759599   -1.7411578   -0.5469967   -0.4011209   -0.3684432
:EIG00006:      -0.3573047   -0.3441601   -0.3433270    0.6343413    0.7310005
:EIG00011:       0.8533360    0.8648040    0.8660694    0.8680370    0.8782075
:EIG00016:       0.8979784    0.9060541    0.9062878    0.9103483    0.9134370
:EIG00021:       0.9174040    0.9230929    0.9235425    0.9380905    0.9488965
:EIG00026:       0.9616326    1.0521497    1.0557504    1.1177012    1.1524918
:EIG00031:       1.1531368    1.2936495    1.3270317    1.3936834    1.6952538
:EIG00036:       1.7411952    1.7788916    1.8535633    1.9806143    2.0432838
:EIG00041:       2.1784393    2.2659284    2.3839739    2.4041495    2.5520617
:EIG00046:       2.5581398    2.5747731    2.7070728    2.7277989    2.8568890
 
:EIG00051:       2.9186662    2.9958700    3.0083019    3.1287530    3.1843946
:EIG00056:       3.2072012    3.2517865    3.3669292    3.4151977    3.5300564
:EIG00061:       3.5313831    3.6419711    3.7268291    3.7445352    3.7862642
:EIG00066:       3.9441285    3.9563624    4.0538557    4.0550865    4.0997081
:EIG00071:       4.1069904    4.1668945    4.1968006    4.3100311    4.3208304
:EIG00076:       4.3608839    4.3861145    4.4362249    4.4485377    4.4915201
:EIG00081:       4.5099197    4.5523095    4.5659537    4.6354796    4.6598668
:EIG00086:       4.7607847    4.7801759    4.8560711    4.8924402    4.9254255
:EIG00091:       4.9331284    4.9733743    5.0200142    5.0547632    5.0592649
:EIG00096:       5.0718542    5.1490318    5.1558540    5.2128509    5.2584537
 
:EIG00101:       5.3503598    5.4632465    5.5075166    5.5818963    5.5860143
:EIG00106:       5.6419335    5.6740129    5.7339638    5.7738537    5.8005717
:EIG00111:       5.9085219    5.9473481    6.0610402    6.1182344    6.1524190
:EIG00116:       6.1539108    6.2429893    6.2673633    6.3369216    6.3378527
:EIG00121:       6.4247055    6.4385663    6.5023393    6.5418077    6.5804481
:EIG00126:       6.6673107    6.7369584    6.7441933    6.7762995    6.8424165
:EIG00131:       6.8947985    6.9230347    6.9363616    7.0056663    7.0675611
:EIG00136:       7.0964861    7.1233934    7.1918339    7.2211537    7.2222740
:EIG00141:       7.2754973    7.2856419    7.3357875    7.3703883    7.4250096
:EIG00146:       7.4308404    7.4658672    7.5586822    7.5690053    7.6324309
 
:EIG00151:       7.6506766    7.6766795    7.6956259    7.8624638    7.8894984
:EIG00156:       8.0236428    8.0617248    8.0634584    8.0926201    8.1945632
:EIG00161:       8.2687438    8.3378504
       ********************************************************

:KPT   :      NUMBER OF K-POINTS:   288

------- case.scfso --------
   0.0   0.0 angle (M,z), angle (M,x) deg
 
        SPIN-ORBIT EIGENVALUES:
     K=   0.06250   0.00000   0.06250            1
      MATRIX SIZE=  324   WEIGHT= 4.00
     EIGENVALUES ARE:
          -1.7759607   -1.7759607   -1.7411581   -1.7411581   -0.6039206
          -0.6039206   -0.5079845   -0.5079845   -0.4019698   -0.4019698
          -0.2966442   -0.2966442   -0.2927807   -0.2927807   -0.2779972
          -0.2779972    0.6344208    0.6344208    0.7309023    0.7309023
           0.8513730    0.8513730    0.8620976    0.8620976    0.8632326
           0.8632326    0.8656336    0.8656336    0.8748944    0.8748945
           0.8887336    0.8887336    0.8990427    0.8990427    0.9090354
           0.9090354    0.9149623    0.9149623    0.9163269    0.9163269

           0.9204177    0.9204177    0.9243312    0.9243312    0.9294637
           0.9294637    0.9417034    0.9417034    0.9511725    0.9511725
           0.9627242    0.9627242    1.0486609    1.0486609    1.0593174
           1.0593174    1.1181495    1.1181496    1.1507930    1.1507930
           1.1552329    1.1552329    1.2936047    1.2936047    1.3272892
           1.3272892    1.3938131    1.3938131    1.6955641    1.6955641
           1.7412341    1.7412341    1.7788749    1.7788749    1.8535753
           1.8535753    1.9803546    1.9803546    2.0427675    2.0427675

           2.1785222    2.1785222    2.2652076    2.2652076    2.3828125
           2.3828125    2.4046649    2.4046649    2.5522605    2.5522605
           2.5580824    2.5580824    2.5739314    2.5739314    2.7051669
           2.7051669    2.7298623    2.7298623    2.8569765    2.8569765
           2.9180534    2.9180534    2.9916298    2.9916298    3.0113248
           3.0113248    3.1285543    3.1285543    3.1843287    3.1843287
           3.2080364    3.2080364    3.2508682    3.2508682    3.3674269
           3.3674269    3.4163437    3.4163437    3.5274882    3.5274882

           3.5343336    3.5343336    3.6461822    3.6461822    3.7271052
           3.7271052    3.7444130    3.7444130    3.7865408    3.7865408
           3.9440814    3.9440814    3.9566383    3.9566383    4.0533492
           4.0533492    4.0554980    4.0554980    4.0997156    4.0997156
           4.1074186    4.1074186    4.1659712    4.1659712    4.1969148
           4.1969148    4.3083296    4.3083296    4.3226689    4.3226689
           4.3628211    4.3628211    4.3867795    4.3867795    4.4362894
           4.4362894    4.4490851    4.4490851    4.4918965    4.4918965

       ********************************************************

------- case.scf2 --------
:GMA  : POTENTIAL AND CHARGE CUT-OFF  12.00 Ry**.5




:POS001: at.nr.  -1 position = 0.00000 0.89750 0.25000  multiplicity =  2

       lmmax 16
       lm=   0 0  1 0  2 0  2 2  3 0  3 2  4 0  4 2  4 4  5 0  5 2  5 4  6 0  6 2  6 4  6 6
:FER gutzwiller fermi energy   0.86279
:EORB          0.014420247
:SUM sum of gutz band energies         -4.037825668

:CHA001: total charge inside sphere   1 =     9.642748
:PCS001: partial charges sphere =  1 s,p,d,f,px,py,pz,d-z2,d-x2y2,d-xy,d-xz,d-yz 
:QTL001: 1.9445 4.9865 0.6975 2.0133 1.6601 1.6586 1.6678 0.1336 0.1270 0.1452 0.1413 0.1505

                      vxx         vyy         vzz       up to r

:VZZ001:             3.43676     5.43189    -8.86864       2.300

:CHA  : total charge inside unit cell =      12.999995

------- case.scfc --------

        1.ATOM      Pr1                  14 CORE STATES
       CORE-FORCE in mRy/a.u. = |F|      Fx             Fy             Fz
:FCO001:   1.ATOM    951.192113521080      0.000000000000      0.000000000000    951.192113521080

:1S 001: 1S               -3066.701642538 Ry
:2S 001: 2S                -492.451992224 Ry
:2PP001: 2P*               -465.551430467 Ry
:2P 001: 2P                -430.153816430 Ry
:3S 001: 3S                -105.542470954 Ry
:3PP001: 3P*                -94.080308242 Ry
:3P 001: 3P                 -87.072510099 Ry
:3DD001: 3D*                -66.999277539 Ry
:3D 001: 3D                 -65.487729858 Ry
:4S 001: 4S                 -20.222318625 Ry
:4PP001: 4P*                -15.929281484 Ry
:4P 001: 4P                 -14.402150047 Ry
:4DD001: 4D*                 -7.335528991 Ry
:4D 001: 4D                  -7.066218998 Ry

------- case.scfm --------
:CINT001 Core Integral Atom   1   45.998469

       DENSITY AT NUCLEUS
        JATOM        VALENCE       SEMI-CORE          CORE           TOTAL
:RTO001:   1      648.592014        0.000000   656824.365449   657472.957463
     
       CHARGES OF NEW CHARGE DENSITY
:NTO   : INTERSTITIAL CHARGE =     6.714501
:NPC   : PW Pseudocharge     =    17.257920
:NTO001: CHARGE SPHERE  1    =    55.641217

:NEC01: NUCLEAR AND ELECTRONIC CHARGE    118.00000   117.99694
     
       CHARGES OF OLD CHARGE DENSITY
:OTO   : INTERSTITIAL CHARGE =     6.718077
:OPC   : PW Pseudocharge     =    17.266488
:OTO001: CHARGE SPHERE  1    =    55.640961

:NEC02: NUCLEAR AND ELECTRONIC CHARGE    118.00000   118.00000
     
       CONVERGENCE TEST
:DTO001: DIFFERENCE IN SPHERE  1 =  0.0003658

:DIS  :  CHARGE DISTANCE       ( 0.0003658 for atom    1 spin 1)      0.0003658
 PW Mixed is          394
 
******************************************************
* MULTISECANT MIXING VER9 RELEASE 10.4.0              *
* Standard Mode with controls                        *
* Fixed density scale                                *
* Regularization       1.000E-04                     *
* Trust Upper Limit    5.000E+00                     *
* Max Number of Memory Steps    8                    *
******************************************************
 
:PWTMP   2.7058E+02  1.9467E+02  3.7251E+02
:PLANE:  PW TOTAL      5.3581 DISTAN   2.01E-04  3.75E-03 %
:CHARG:  CLM/ATOM   1381.9428 DISTAN   5.30E-04  3.84E-05 %
 
Step History
        DMIX         DMIXT        Red     Pred      Trust     Lambda    MagRel    MagAbs     Beta
  1   3.5000E-02   3.5000E-02 -1.00E+00  1.00E+00 -1.00E+01  1.00E+00  3.50E-02  3.50E-02  1.00E+00
  2   1.5000E-01   1.5000E-01  6.08E-01  1.00E+00 -1.00E+01  1.00E+00  1.50E-01  2.12E-03  1.00E+00
  3   7.1250E-02   7.1250E-02  5.72E-01  6.36E-01  3.00E+00  1.31E-01  2.78E-01  2.39E-03  1.00E+00
  4   1.7813E-01   1.7813E-01  2.66E-01  2.55E-01  4.00E+00  1.79E+00  6.02E-01  2.96E-03  1.00E+00
  5   1.4630E-01   1.4630E-01  3.93E-01  4.92E-01  5.33E+00  1.10E+00  5.65E-01  7.41E-04  1.00E+00
  6   2.1764E-01   2.1764E-01 -1.00E+00  8.99E-01  7.11E+00  1.00E+00  4.34E-01  2.24E-04  9.92E-01
:JACOBIANS    1.028E-01   1.387E+00
  
:NORMS:  1/Froebius, Min, Max, Used   0.5298E+00  0.4211E+00  0.7527E+00  0.5413E+00
:INFO :  Number of Memory Steps    5 Skipping    0
:INFO :  SLambda=    1.6506654899  Max    1.6506654899
:PREDicted Charge, CTotal, PW Trust    1.726E-04   3.451E-04   1.924E-04
:PREDicted DMix, Beta, BLim   4.6112E-01  1.4851E+00  9.4697E-01

Eigenvalues, unscaled except for SY+YY
   #     SY Real        SY Imag          SS             YY         SY+YY Real      SY+YY Imag
   1   1.561296E+00   0.000000E+00   1.149938E+00   3.924383E+00   6.363641E+00   0.000000E+00
   2   3.577419E-01   0.000000E+00   1.667012E-01   8.692233E-01   1.654853E+00   0.000000E+00
   3   1.594812E-01   0.000000E+00   8.642548E-02   1.971774E-01   4.016263E-01   0.000000E+00
   4   3.737663E-06   0.000000E+00   2.548894E-04   9.194969E-03   2.743824E-05   0.000000E+00
   5   1.796134E-03   0.000000E+00   6.560926E-07   2.127327E-05   1.376455E-02   0.000000E+00
 
:INFO :  Singular value  6.430E+00 Weight  1.000E+00 Projection  1.554E-04
:INFO :  Singular value  1.656E+00 Weight  1.000E+00 Projection -1.372E-04
:INFO :  Singular value  3.973E-01 Weight  1.000E+00 Projection -6.482E-04
:INFO :  Singular value  1.376E-02 Weight  9.992E-01 Projection -3.333E-03
:INFO :  Singular value  2.744E-05 Weight  4.865E-03 Projection  6.696E-06
:RANK :  ACTIVE   4.00/5  =  80.08 % ; YY RANK   4.00/5  =  80.02 %
 
:BLIM :  VZERO Control Off
:TRUST:  Step 6.47E+00  Charge 4.36E-02 (e) CTO  1.45E-01 (e) PW  2.04E-01 (e)
:DIRM :  MEMORY  5/8  SCALE   1.000 RED  1.10 PRED  0.90 NEXT  0.08 
:TRAVE:  Charge 1.31E-04 (e) CTO  2.63E-04 (e) PW  2.18E-04 (e)
:DIRP :  |MSR1|= 6.029E-05 |PRATT|= 2.011E-04 ANGLE=  35.2 DEGREES
:DIRQ :  |MSR1|= 3.150E-04 |PRATT|= 5.305E-04 ANGLE=  35.5 DEGREES
:DIRT :  |MSR1|= 3.208E-04 |PRATT|= 5.673E-04 ANGLE=  36.7 DEGREES
:MIX  :   MSE1   REGULARIZATION:  3.92E-04 GREED: 0.31950  Newton 1.00  0.5654                
     
       CHARGES OF MIXED CHARGE DENSITY
:CTO   : INTERSTITIAL CHARGE =     6.717853
:CPC   : PW Pseudocharge     =    17.266332
:CTO001: CHARGE SPHERE  1    =    55.641074

:NEC03: NUCLEAR AND ELECTRONIC CHARGE    118.00000   118.00000

PW CHANGE     H    K    L      Current       Change    Residue
:PTO001:      0    0    0  6.43856940E-02 -1.024E-06 -3.228E-06
:PTO003:      0    2    0  1.62923108E-02  1.194E-07 -2.986E-07
:PTO004:     -1    1    0  7.90743209E-02 -1.580E-08 -2.123E-06
:PTO005:      0    2   -1 -9.13435145E-02  3.922E-07  2.866E-06
:PTO006:      0    0   -2 -4.73965428E-02  1.978E-07  1.456E-06
:PTO007:     -1    1   -1 -9.73166451E-02  8.363E-08  2.738E-06
:PTO008:      0    2   -2 -1.49271849E-02 -5.838E-08  1.984E-07
:PTO009:     -1    1   -2 -7.52276505E-02 -1.700E-07  1.663E-06
:PTO011:     -1    3    0 -1.16596596E-02 -8.745E-08  2.115E-07
:PTO012:     -1    3   -1 -5.06004491E-02 -5.529E-07  2.792E-07
:PTO013:      0    4    0 -8.85603865E-03 -1.303E-07  1.285E-08
:PTO014:      0    2   -3  2.04035212E-02  3.015E-07  3.024E-08

:ENE  : ********** TOTAL ENERGY IN Ry =       -36944.23443171

       TOTAL FORCE IN mRy/a.u. = |F|     Fx             Fy             Fz     with/without FOR in case.in2
:FOR001:   1.ATOM         12.119          0.000          0.000        -12.119 partial forces
       TOTAL FORCE WITH RESPECT TO GLOBAL CARTESIAN COORDINATES:
:FCA001:   1.ATOM                         0.000        -12.119          0.000 partial forces
       TOTAL FORCE WITH RESPECT TO THE GLOBAL COORDINATE SYSTEM:
:FGL001:   1.ATOM                 0.000000000   -12.119270849     0.000000000 partial forces
