
:LABEL1: Calculations in /home/ykent/GWIEN/example/Pr/aU/V6/case
:LABEL2: on didymium-2.cmpgroup.ameslab.gov at Fri Jul 10 14:12:04 CDT 2020
:LABEL3: using WIEN2k_19.1 (Release 25/6/2019) in /home/ykent/opt/src/WIEN2k_19.1
:LABEL4: using the command: run_lapw -so -i 70 -cc 0.0001

:LABEL1: Calculations in /home/ykent/GWIEN/example/Pr/aU/V6/case
:LABEL2: on didymium-2.cmpgroup.ameslab.gov at Fri Jul 10 14:12:28 CDT 2020
:LABEL3: using WIEN2k_19.1 (Release 25/6/2019) in /home/ykent/opt/src/WIEN2k_19.1
:LABEL4: using the command: run_lapw -so -i 70 -cc 0.0001
 Flat Integration
 New Mode for Coulomb Integral
 Consistent 3/8+Simpson combinations
 Extension of core to zero
 LDM version in phi
 Fifth-order quadrature in outwin


            ---------
:ITE014: 14. ITERATION
            ---------

:NATO :    1 INDEPENDENT AND    2 TOTAL ATOMS IN UNITCELL
       SUBSTANCE: aU                                                          

       LATTICE                      = CXY 
:POT  : POTENTIAL OPTION EX_LDA EC_LDA VX_LDA VC_LDA
:LAT  : LATTICE CONSTANTS=  5.47380 11.10771  9.58952    1.571    1.571    1.571
:VOL  : UNIT CELL VOLUME =     291.52801
       MODE OF CALCULATION IS       = RELA
       NON-SPINPOLARIZED CALCULATION
:IFFT  : FFT-parameters:   48   90   80 Factor: 2.00


   CONVERGENCE PARAMETER FOR PSEUDOCHARGE: NCON=  9
   MAXIMAL VALUE OF RMT(JATOM)*ABSK(NKK) : RK  =27.59917


:VKCOUL :  VK-COUL convergence: 0.264E-06
       ATOMNUMBER=  1 Pr1        VCOUL-ZERO =  0.58696E+00
:EFG001:                        EFG         =    -9.07718   *10**21  V / m**2
                               V20  TOT/SRF=    -7.86107    -0.06648
                               V22  TOT/SRF=    -4.21482    -0.01231
                               V22M TOT/SRF=     0.00000     0.00000
                               V21  TOT/SRF=     0.00000     0.00000
                               V21M TOT/SRF=     0.00000     0.00000

              0.32377    0.00000    0.00000        0.32377    0.00000    0.00000
              0.00000    8.75341    0.00000        0.00000    8.75341    0.00000
              0.00000    0.00000   -9.07718        0.00000    0.00000   -9.07718

         MAIN DIRECTIONS OF THE EFG   1.0000  0.0000  0.0000
                                      0.0000  1.0000  0.0000
                                      0.0000  0.0000  1.0000
:ANG001:  ANGLE WITH OLD X-AXIS =         0.0

:ETA001:                         ASYMM. ETA =     0.92866


     HELLMANN-FEYNMAN-FORCE IN mRy/a.u. = |F|  Fx       Fy             Fz
:FHF001:   1.ATOM   1616.541975622169      0.000000000000      0.000000000000  -1616.541975622169

:FIT001: LUSE= 13 SIGMA OF V-XC FIT FOR ATOM  1  0.7631319E-04
:FIT001: LUSE= 13 SIGMA OF V-XC FIT FOR ATOM  1  0.7631319E-04
:DEN  : DENSITY INTEGRAL  =        -14207.20678167   (Ry)
       ELS_POTENTIAL_AT Z=0 and Z=0.5:   0.98943   0.98943
       ELS_POTENTIAL_AT Y=0 and Y=0.5:  -0.00054  -0.00054
:VZERO:v0,v0c,v0x   0.26043   0.98943  -0.72901 v5,v5c,v5x   0.26043   0.98943  -0.72901
:VZERY:v0,v0c,v0x  -0.95265  -0.00054  -0.95211 v5,v5c,v5x  -0.95265  -0.00054  -0.95211
:VZERX:v0,v0c,v0x  -1.28778  -0.39633  -0.89145 v5,v5c,v5x  -1.28778  -0.39633  -0.89145
:LMAX-WF:   10   Non-Spherical LMAX:   4

          ATOMIC SPHERE DEPENDENT PARAMETERS FOR ATOM  Pr1       
:e__0001: OVERALL ENERGY PARAMETER IS    0.9117
          OVERALL BASIS SET ON ATOM IS LAPW
:E0_0001: E( 0)=    0.9117
             APW+lo
:E0_0001: E( 0)=   -1.5149   E(BOTTOM)=   -2.154   E(TOP)=   -0.876  4  5   226
             LOCAL ORBITAL
:E1_0001: E( 1)=    1.3117
             APW+lo
:E1_0001: E( 1)=   -0.0462   E(BOTTOM)=   -1.009   E(TOP)=    0.916  3  4   239
             LOCAL ORBITAL
:E3_0001: E( 3)=    1.1254   E(BOTTOM)=    0.919   E(TOP)=    1.332  0  1   118
             APW+lo
:E2_0001: E( 2)=    0.9117   E(BOTTOM)=    0.727   E(TOP)= -200.000  2 -1   119
             APW+lo

       K=   0.06250   0.00000   0.06250            1
:RKM  : MATRIX SIZE   297LOs:  40  RKM= 8.46  WEIGHT= 4.00  PGR:    
       EIGENVALUES ARE:
:EIG00001:      -1.5514810   -1.4775755   -0.3624151   -0.1199646   -0.0631683
:EIG00006:      -0.0414622   -0.0182077   -0.0168500    0.9595064    0.9679619
:EIG00011:       1.0828728    1.0894006    1.0918146    1.1011309    1.1178994
:EIG00016:       1.1408054    1.1502236    1.1529704    1.1591237    1.1632361
:EIG00021:       1.1747185    1.1753386    1.1760669    1.1993832    1.2179783
:EIG00026:       1.2501915    1.3463319    1.3480654    1.4270041    1.4684702
:EIG00031:       1.5178926    1.6967670    1.7187674    1.7928405    2.0906305
:EIG00036:       2.1387554    2.1754852    2.3940790    2.4226996    2.5312565
:EIG00041:       2.7278775    2.7874485    2.9402240    2.9859704    3.1370404
:EIG00046:       3.1506998    3.1621446    3.3393012    3.3434715    3.4887129
 
:EIG00051:       3.5829100    3.7053877    3.7402667    3.8966528    3.9089980
:EIG00056:       3.9781002    4.0434889    4.2338131    4.2436489    4.3167257
:EIG00061:       4.3842324    4.4826586    4.5151047    4.5997437    4.6649923
:EIG00066:       4.7668812    4.7725968    4.8312087    4.9354069    4.9535618
:EIG00071:       5.0533782    5.0913105    5.1562705    5.2387227    5.2448966
:EIG00076:       5.2569723    5.3179858    5.3223067    5.3504645    5.4473851
:EIG00081:       5.4606161    5.4980462    5.5525091    5.5833418    5.6230096
:EIG00086:       5.6866461    5.8076316    5.8799034    5.9153552    5.9485663
:EIG00091:       6.0063636    6.0636811    6.0948418    6.1225669    6.1263847
:EIG00096:       6.2571680    6.2801492    6.2877332    6.3450735    6.4374670
 
:EIG00101:       6.4433824    6.5740346    6.6373896    6.6706556    6.6818264
:EIG00106:       6.8158294    6.8241678    6.8636937    6.9518469    7.1126555
:EIG00111:       7.1937482    7.2374113    7.2795092    7.3165048    7.4288807
:EIG00116:       7.5210165    7.5835164    7.6958227    7.6961288    7.7548567
:EIG00121:       7.8176737    7.8447563    7.8927436    8.0077402    8.0267657
:EIG00126:       8.0411828    8.1302079    8.2201937    8.2230302    8.2762865
:EIG00131:       8.2932622    8.3286446    8.3563547    8.5105753    8.5368541
:EIG00136:       8.5945504
       ********************************************************

:KPT   :      NUMBER OF K-POINTS:   288
   0.0   0.0 angle (M,z), angle (M,x) deg
 
        SPIN-ORBIT EIGENVALUES:
     K=   0.06250   0.00000   0.06250            1
      MATRIX SIZE=  272   WEIGHT= 4.00
     EIGENVALUES ARE:
          -1.5514830   -1.5514830   -1.4775772   -1.4775772   -0.3974868
          -0.3974868   -0.1999584   -0.1999584   -0.1332106   -0.1332106
           0.0179829    0.0179829    0.0227167    0.0227167    0.0473806
           0.0473806    0.9595833    0.9595833    0.9679153    0.9679153
           1.0811457    1.0811457    1.0873382    1.0873382    1.0899405
           1.0899405    1.0995699    1.0995699    1.1152508    1.1152508
           1.1338405    1.1338405    1.1448737    1.1448737    1.1541183
           1.1541183    1.1638797    1.1638797    1.1664037    1.1664037

           1.1748497    1.1748497    1.1775770    1.1775770    1.1806908
           1.1806908    1.2018709    1.2018709    1.2194811    1.2194811
           1.2504855    1.2504856    1.3409929    1.3409930    1.3534073
           1.3534073    1.4275336    1.4275336    1.4684101    1.4684101
           1.5182818    1.5182818    1.6969556    1.6969556    1.7188934
           1.7188934    1.7930543    1.7930543    2.0910912    2.0910912
           2.1388279    2.1388279    2.1754892    2.1754892    2.3939326
           2.3939326    2.4225589    2.4225589    2.5306570    2.5306570

           2.7281570    2.7281570    2.7870084    2.7870084    2.9400846
           2.9400846    2.9856021    2.9856021    3.1370079    3.1370079
           3.1500725    3.1500725    3.1624548    3.1624548    3.3345222
           3.3345222    3.3482759    3.3482759    3.4889873    3.4889873
           3.5825419    3.5825419    3.7030510    3.7030510    3.7411017
           3.7411017    3.8964554    3.8964554    3.9084317    3.9084317
           3.9785906    3.9785906    4.0412001    4.0412001    4.2353130
           4.2353130    4.2443468    4.2443468    4.3166652    4.3166652

           4.3858536    4.3858536    4.4821427    4.4821427
       ********************************************************
:GAP (global)   :    0.0    Ry =     0.0   eV (metal)
:GAP (this spin):    0.0    Ry =     0.0   eV (metal)
         Bandranges (emin - emax) and occupancy:
:BAN00020:  20    0.930339    1.064982  1.00000000
:BAN00021:  21    0.971233    1.107421  1.00000000
:BAN00022:  22    0.971233    1.107421  1.00000000
:BAN00023:  23    1.036026    1.113609  0.98649996
:BAN00024:  24    1.036026    1.113609  0.98649996
:BAN00025:  25    1.064984    1.131153  0.64811112
:BAN00026:  26    1.064984    1.131153  0.64811105
:BAN00027:  27    1.089884    1.138709  0.36039806
:BAN00028:  28    1.089884    1.138709  0.36039798
:BAN00029:  29    1.105978    1.141894  0.00499093
:BAN00030:  30    1.105978    1.141894  0.00499093
:BAN00031:  31    1.116063    1.150395  0.00000000
:BAN00032:  32    1.116063    1.150395  0.00000000
:BAN00033:  33    1.136640    1.160060  0.00000000
:BAN00034:  34    1.136640    1.160060  0.00000000
:BAN00035:  35    1.141737    1.167049  0.00000000
        Energy to separate low and high energystates:    0.83096


:NOE  : NUMBER OF ELECTRONS          =   26.000

:FER  : F E R M I - ENERGY(TETRAH.M.)=   1.1093762442
:GMA  : POTENTIAL AND CHARGE CUT-OFF  12.00 Ry**.5

:POS001: ATOM   -1 X,Y,Z = 0.00000 0.89750 0.25000  MULT= 2  ZZ= 59.000  Pr1       

       LMMAX 16
       LM=   0 0  1 0  2 0  2 2  3 0  3 2  4 0  4 2  4 4  5 0  5 2  5 4  6 0  6 2  6 4  6 6

:CHA001: TOTAL VALENCE CHARGE INSIDE SPHERE   1 =   9.8166    (RMT=  2.3000 )
:PCS001: PARTIAL CHARGES SPHERE =  1 S,P,D,F,PX,PY,PZ,D-Z2,D-X2Y2,D-XY,D-XZ,D-YZ 
:QTL001: 1.9325 4.9633 0.8383 2.0797 1.6544 1.6494 1.6595 0.1636 0.1487 0.1723 0.1733 0.1804
        Q-s-low E-s-low   Q-p-low E-p-low   Q-d-low E-d-low   Q-f-low E-f-low
:EPL001:  1.8692 -1.4711    4.8786 -0.1718    0.0204 -0.1944    0.0065 -0.2038
        Q-s-hi  E-s-hi    Q-p-hi  E-p-hi    Q-d-hi  E-d-hi    Q-f-hi  E-f-hi 
:EPH001:  0.0633  1.0227    0.0847  1.0404    0.8179  1.0176    2.0732  1.0756

                      VXX         VYY         VZZ       UP TO R
:VZZ001:             0.23001     8.41064    -8.64065       2.300

:CHA  : TOTAL VALENCE CHARGE INSIDE UNIT CELL =      26.000000

:SUM  : SUM OF EIGENVALUES =           2.419712891


        1.ATOM      Pr1                  14 CORE STATES
       CORE-FORCE in mRy/a.u. = |F|      Fx             Fy             Fz
:FCO001:   1.ATOM   1623.301875558247      0.000000000000      0.000000000000   1623.301875558247

:1S 001: 1S               -3066.475053045 Ry
:2S 001: 2S                -492.228097984 Ry
:2PP001: 2P*               -465.326607466 Ry
:2P 001: 2P                -429.929320782 Ry
:3S 001: 3S                -105.326836348 Ry
:3PP001: 3P*                -93.864348250 Ry
:3P 001: 3P                 -86.856682981 Ry
:3DD001: 3D*                -66.782508230 Ry
:3D 001: 3D                 -65.271062329 Ry
:4S 001: 4S                 -19.993286306 Ry
:4PP001: 4P*                -15.699013769 Ry
:4P 001: 4P                 -14.170116056 Ry
:4DD001: 4D*                 -7.100151072 Ry
:4D 001: 4D                  -6.830236153 Ry
:CINT001 Core Integral Atom   1   45.998493

       DENSITY AT NUCLEUS
        JATOM        VALENCE       SEMI-CORE          CORE           TOTAL
:RTO001:   1      643.307758        0.000000   656826.529398   657469.837156
     
       CHARGES OF NEW CHARGE DENSITY
:NTO   : INTERSTITIAL CHARGE =     6.366786
:NPC   : PW Pseudocharge     =    17.540400
:NTO001: CHARGE SPHERE  1    =    55.815098

:NEC01: NUCLEAR AND ELECTRONIC CHARGE    118.00000   117.99698
     
       CHARGES OF OLD CHARGE DENSITY
:OTO   : INTERSTITIAL CHARGE =     6.404642
:OPC   : PW Pseudocharge     =    17.582583
:OTO001: CHARGE SPHERE  1    =    55.797679

:NEC02: NUCLEAR AND ELECTRONIC CHARGE    118.00000   118.00000
     
       CONVERGENCE TEST
:DTO001: DIFFERENCE IN SPHERE  1 =  0.0425009

:DIS  :  CHARGE DISTANCE       ( 0.0425009 for atom    1 spin 1)      0.0425009
 PW Mixed is          316
 
******************************************************
* MULTISECANT MIXING VER9 RELEASE 10.4.0              *
* Standard Mode with controls                        *
* Fixed density scale                                *
* Regularization       1.000E-04                     *
* Trust Upper Limit    5.000E+00                     *
* Max Number of Memory Steps    8                    *
******************************************************
 
:PWTMP   1.8960E+02  1.9467E+02  2.9153E+02
:PLANE:  PW TOTAL      6.0284 DISTAN   1.23E-02  2.04E-01 %
:CHARG:  CLM/ATOM   1381.9485 DISTAN   6.11E-02  4.42E-03 %
 
Step History
        DMIX         DMIXT        Red     Pred      Trust     Lambda    MagRel    MagAbs     Beta
  1   3.5000E-02   3.5000E-02 -1.00E+00  1.00E+00 -1.00E+01  1.00E+00  3.50E-02  3.50E-02  1.00E+00
:INFO :  Note, Pratt in use
:TRUST:  Step 3.75E-02  Charge 7.50E-02 (e) CTO  2.50E-01 (e) PW  3.50E-01 (e)
:DIRM :  MEMORY  0/ 8 SCALE   1.000
Performing Pseudo Compensation
Final Pseudo Compensation Rescaling     1.00000E+00
:MIX  :   PRATT  REGULARIZATION:  1.00E-04 GREED: 0.02500                  
     
       CHARGES OF MIXED CHARGE DENSITY
:CTO   : INTERSTITIAL CHARGE =     6.403771
:CPC   : PW Pseudocharge     =    17.571889
:CTO001: CHARGE SPHERE  1    =    55.798114

:NEC03: NUCLEAR AND ELECTRONIC CHARGE    118.00000   118.00000

PW CHANGE     H    K    L      Current       Change    Residue
:PTO001:      0    0    0  8.22413585E-02 -3.967E-05 -2.357E-04
:PTO003:      0    2    0  1.88364515E-02 -1.127E-05  7.466E-06
:PTO004:     -1    1    0  8.80868415E-02 -5.861E-05 -8.675E-05
:PTO005:      0    2   -1 -1.00411655E-01  6.740E-05  6.815E-05
:PTO006:      0    0   -2 -5.20841391E-02  3.492E-05  3.323E-05
:PTO007:     -1    1   -1 -1.03659367E-01  7.259E-05  1.045E-04
:PTO008:      0    2   -2 -1.41535442E-02  1.065E-05  1.653E-05
:PTO009:     -1    1   -2 -7.06525485E-02  4.913E-05  4.586E-05
:PTO011:     -1    3    0 -1.03554029E-02  6.508E-06  1.723E-05
:PTO012:     -1    3   -1 -4.17491183E-02  2.229E-05 -1.003E-05
:PTO013:      0    4    0 -6.94963172E-03  2.956E-06 -2.070E-06
:PTO014:      0    2   -3  1.62627283E-02 -6.757E-06 -4.956E-06

:ENE  : ********** TOTAL ENERGY IN Ry =       -36944.36585620

       TOTAL FORCE IN mRy/a.u. = |F|     Fx             Fy             Fz     with/without FOR in case.in2
:FOR001:   1.ATOM          6.760          0.000          0.000          6.760 partial forces
       TOTAL FORCE WITH RESPECT TO GLOBAL CARTESIAN COORDINATES:
:FCA001:   1.ATOM                         0.000          6.760          0.000 partial forces
       TOTAL FORCE WITH RESPECT TO THE GLOBAL COORDINATE SYSTEM:
:FGL001:   1.ATOM                 0.000000000     6.759899936     0.000000000 partial forces
 Flat Integration
 New Mode for Coulomb Integral
 Consistent 3/8+Simpson combinations
 Extension of core to zero
 LDM version in phi
 Fifth-order quadrature in outwin


            ---------
:ITE015: 15. ITERATION
            ---------

:NATO :    1 INDEPENDENT AND    2 TOTAL ATOMS IN UNITCELL
       SUBSTANCE: aU                                                          

       LATTICE                      = CXY 
:POT  : POTENTIAL OPTION EX_LDA EC_LDA VX_LDA VC_LDA
:LAT  : LATTICE CONSTANTS=  5.47380 11.10771  9.58952    1.571    1.571    1.571
:VOL  : UNIT CELL VOLUME =     291.52801
       MODE OF CALCULATION IS       = RELA
       NON-SPINPOLARIZED CALCULATION
:IFFT  : FFT-parameters:   48   90   80 Factor: 2.00


   CONVERGENCE PARAMETER FOR PSEUDOCHARGE: NCON=  9
   MAXIMAL VALUE OF RMT(JATOM)*ABSK(NKK) : RK  =27.59917


:VKCOUL :  VK-COUL convergence: 0.264E-06
       ATOMNUMBER=  1 Pr1        VCOUL-ZERO =  0.58670E+00
:EFG001:                        EFG         =    -9.06837   *10**21  V / m**2
                               V20  TOT/SRF=    -7.85344    -0.06644
                               V22  TOT/SRF=    -4.21175    -0.01228
                               V22M TOT/SRF=     0.00000     0.00000
                               V21  TOT/SRF=     0.00000     0.00000
                               V21M TOT/SRF=     0.00000     0.00000

              0.32244    0.00000    0.00000        0.32244    0.00000    0.00000
              0.00000    8.74594    0.00000        0.00000    8.74594    0.00000
              0.00000    0.00000   -9.06837        0.00000    0.00000   -9.06837

         MAIN DIRECTIONS OF THE EFG   1.0000  0.0000  0.0000
                                      0.0000  1.0000  0.0000
                                      0.0000  0.0000  1.0000
:ANG001:  ANGLE WITH OLD X-AXIS =         0.0

:ETA001:                         ASYMM. ETA =     0.92889


     HELLMANN-FEYNMAN-FORCE IN mRy/a.u. = |F|  Fx       Fy             Fz
:FHF001:   1.ATOM   1615.809030005591      0.000000000000      0.000000000000  -1615.809030005591

:FIT001: LUSE= 13 SIGMA OF V-XC FIT FOR ATOM  1  0.7629327E-04
:FIT001: LUSE= 13 SIGMA OF V-XC FIT FOR ATOM  1  0.7629327E-04
:DEN  : DENSITY INTEGRAL  =        -14207.29761868   (Ry)
       ELS_POTENTIAL_AT Z=0 and Z=0.5:   0.98911   0.98911
       ELS_POTENTIAL_AT Y=0 and Y=0.5:  -0.00059  -0.00059
:VZERO:v0,v0c,v0x   0.26013   0.98911  -0.72897 v5,v5c,v5x   0.26013   0.98911  -0.72897
:VZERY:v0,v0c,v0x  -0.95258  -0.00059  -0.95200 v5,v5c,v5x  -0.95258  -0.00059  -0.95200
:VZERX:v0,v0c,v0x  -1.28750  -0.39614  -0.89135 v5,v5c,v5x  -1.28750  -0.39614  -0.89135
:LMAX-WF:   10   Non-Spherical LMAX:   4

          ATOMIC SPHERE DEPENDENT PARAMETERS FOR ATOM  Pr1       
:e__0001: OVERALL ENERGY PARAMETER IS    0.9102
          OVERALL BASIS SET ON ATOM IS LAPW
:E0_0001: E( 0)=    0.9102
             APW+lo
:E0_0001: E( 0)=   -1.5148   E(BOTTOM)=   -2.154   E(TOP)=   -0.876  4  5   225
             LOCAL ORBITAL
:E1_0001: E( 1)=    1.3102
             APW+lo
:E1_0001: E( 1)=   -0.0462   E(BOTTOM)=   -1.009   E(TOP)=    0.917  3  4   238
             LOCAL ORBITAL
:E3_0001: E( 3)=    1.1259   E(BOTTOM)=    0.919   E(TOP)=    1.332  0  1   117
             APW+lo
:E2_0001: E( 2)=    0.9102   E(BOTTOM)=    0.727   E(TOP)= -200.000  2 -1   121
             APW+lo

       K=   0.06250   0.00000   0.06250            1
:RKM  : MATRIX SIZE   297LOs:  40  RKM= 8.46  WEIGHT= 4.00  PGR:    
       EIGENVALUES ARE:
:EIG00001:      -1.5513920   -1.4774626   -0.3624548   -0.1199435   -0.0631319
:EIG00006:      -0.0414080   -0.0181608   -0.0167890    0.9593289    0.9677909
:EIG00011:       1.0831227    1.0897232    1.0921636    1.1014568    1.1182152
:EIG00016:       1.1412340    1.1506667    1.1534202    1.1595615    1.1636599
:EIG00021:       1.1751065    1.1757466    1.1764681    1.1998651    1.2182385
:EIG00026:       1.2502910    1.3462280    1.3480551    1.4269172    1.4683879
:EIG00031:       1.5178180    1.6967074    1.7186706    1.7927944    2.0905205
:EIG00036:       2.1386427    2.1753487    2.3939766    2.4225361    2.5311251
:EIG00041:       2.7277412    2.7873023    2.9400656    2.9858391    3.1368890
:EIG00046:       3.1505126    3.1620077    3.3391250    3.3433122    3.4885189
 
:EIG00051:       3.5827656    3.7052478    3.7401550    3.8965798    3.9088484
:EIG00056:       3.9779715    4.0433479    4.2336710    4.2436417    4.3165838
:EIG00061:       4.3840533    4.4825037    4.5149168    4.5996696    4.6649389
:EIG00066:       4.7667057    4.7724216    4.8310252    4.9352513    4.9534073
:EIG00071:       5.0532144    5.0911452    5.1561294    5.2385404    5.2447126
:EIG00076:       5.2567940    5.3177914    5.3221321    5.3502816    5.4471838
:EIG00081:       5.4604293    5.4978531    5.5523027    5.5831501    5.6228307
:EIG00086:       5.6864124    5.8074240    5.8797385    5.9151473    5.9483932
:EIG00091:       6.0061748    6.0634911    6.0947455    6.1224041    6.1263234
:EIG00096:       6.2569565    6.2799325    6.2875713    6.3449386    6.4373071
 
:EIG00101:       6.4432308    6.5738671    6.6372205    6.6704560    6.6816267
:EIG00106:       6.8156457    6.8239365    6.8635357    6.9516675    7.1124497
:EIG00111:       7.1936344    7.2372376    7.2793145    7.3163012    7.4287611
:EIG00116:       7.5207916    7.5834676    7.6957727    7.6960885    7.7547596
:EIG00121:       7.8175254    7.8446632    7.8925841    8.0075746    8.0266016
:EIG00126:       8.0410063    8.1300444    8.2200310    8.2228376    8.2760748
:EIG00131:       8.2930983    8.3284443    8.3562057    8.5103686    8.5366963
:EIG00136:       8.5943764
       ********************************************************

:KPT   :      NUMBER OF K-POINTS:   288
   0.0   0.0 angle (M,z), angle (M,x) deg
 
        SPIN-ORBIT EIGENVALUES:
     K=   0.06250   0.00000   0.06250            1
      MATRIX SIZE=  272   WEIGHT= 4.00
     EIGENVALUES ARE:
          -1.5513940   -1.5513940   -1.4774643   -1.4774643   -0.3975062
          -0.3975062   -0.1998965   -0.1998965   -0.1331930   -0.1331930
           0.0180211    0.0180211    0.0227593    0.0227593    0.0474209
           0.0474209    0.9594059    0.9594059    0.9677448    0.9677448
           1.0814074    1.0814074    1.0876686    1.0876686    1.0902916
           1.0902916    1.0999019    1.0999019    1.1155807    1.1155807
           1.1342842    1.1342842    1.1452813    1.1452813    1.1545508
           1.1545508    1.1643147    1.1643147    1.1668240    1.1668240

           1.1752428    1.1752428    1.1779202    1.1779202    1.1811346
           1.1811346    1.2023506    1.2023506    1.2197503    1.2197503
           1.2505924    1.2505924    1.3409420    1.3409421    1.3533483
           1.3533483    1.4274464    1.4274464    1.4683285    1.4683285
           1.5182072    1.5182072    1.6968959    1.6968959    1.7187971
           1.7187971    1.7930081    1.7930081    2.0909812    2.0909812
           2.1387152    2.1387153    2.1753528    2.1753528    2.3938299
           2.3938299    2.4223956    2.4223956    2.5305255    2.5305255

           2.7280208    2.7280208    2.7868623    2.7868623    2.9399266
           2.9399266    2.9854705    2.9854705    3.1368562    3.1368562
           3.1498861    3.1498861    3.1623175    3.1623175    3.3343516
           3.3343516    3.3481112    3.3481112    3.4887936    3.4887936
           3.5823974    3.5823974    3.7029137    3.7029137    3.7409877
           3.7409877    3.8963823    3.8963823    3.9082822    3.9082822
           3.9784610    3.9784610    4.0410595    4.0410595    4.2351757
           4.2351757    4.2443327    4.2443327    4.3165240    4.3165240

           4.3856757    4.3856757    4.4819892    4.4819892
       ********************************************************
:GAP (global)   :    0.0    Ry =     0.0   eV (metal)
:GAP (this spin):    0.0    Ry =     0.0   eV (metal)
         Bandranges (emin - emax) and occupancy:
:BAN00020:  20    0.930157    1.065095  1.00000000
:BAN00021:  21    0.971075    1.107747  1.00000000
:BAN00022:  22    0.971075    1.107747  1.00000000
:BAN00023:  23    1.036032    1.113942  0.98650467
:BAN00024:  24    1.036032    1.113942  0.98650465
:BAN00025:  25    1.065063    1.131592  0.64851639
:BAN00026:  26    1.065063    1.131592  0.64851636
:BAN00027:  27    1.090165    1.139095  0.35999883
:BAN00028:  28    1.090165    1.139095  0.35999878
:BAN00029:  29    1.106279    1.142356  0.00498016
:BAN00030:  30    1.106279    1.142356  0.00498016
:BAN00031:  31    1.116420    1.150794  0.00000000
:BAN00032:  32    1.116420    1.150794  0.00000000
:BAN00033:  33    1.137043    1.160486  0.00000000
:BAN00034:  34    1.137043    1.160486  0.00000000
:BAN00035:  35    1.142167    1.167473  0.00000000
        Energy to separate low and high energystates:    0.83077


:NOE  : NUMBER OF ELECTRONS          =   26.000

:FER  : F E R M I - ENERGY(TETRAH.M.)=   1.1097196647
:GMA  : POTENTIAL AND CHARGE CUT-OFF  12.00 Ry**.5

:POS001: ATOM   -1 X,Y,Z = 0.00000 0.89750 0.25000  MULT= 2  ZZ= 59.000  Pr1       

       LMMAX 16
       LM=   0 0  1 0  2 0  2 2  3 0  3 2  4 0  4 2  4 4  5 0  5 2  5 4  6 0  6 2  6 4  6 6

:CHA001: TOTAL VALENCE CHARGE INSIDE SPHERE   1 =   9.8125    (RMT=  2.3000 )
:PCS001: PARTIAL CHARGES SPHERE =  1 S,P,D,F,PX,PY,PZ,D-Z2,D-X2Y2,D-XY,D-XZ,D-YZ 
:QTL001: 1.9327 4.9634 0.8401 2.0735 1.6544 1.6494 1.6596 0.1640 0.1491 0.1726 0.1737 0.1808
        Q-s-low E-s-low   Q-p-low E-p-low   Q-d-low E-d-low   Q-f-low E-f-low
:EPL001:  1.8692 -1.4710    4.8783 -0.1718    0.0204 -0.1943    0.0065 -0.2038
        Q-s-hi  E-s-hi    Q-p-hi  E-p-hi    Q-d-hi  E-d-hi    Q-f-hi  E-f-hi 
:EPH001:  0.0635  1.0228    0.0851  1.0406    0.8198  1.0177    2.0670  1.0759

                      VXX         VYY         VZZ       UP TO R
:VZZ001:             0.25179     8.44690    -8.69869       2.300

:CHA  : TOTAL VALENCE CHARGE INSIDE UNIT CELL =      26.000000

:SUM  : SUM OF EIGENVALUES =           2.421066760


        1.ATOM      Pr1                  14 CORE STATES
       CORE-FORCE in mRy/a.u. = |F|      Fx             Fy             Fz
:FCO001:   1.ATOM   1622.629927263745      0.000000000000      0.000000000000   1622.629927263745

:1S 001: 1S               -3066.473917598 Ry
:2S 001: 2S                -492.226957821 Ry
:2PP001: 2P*               -465.325468266 Ry
:2P 001: 2P                -429.928181254 Ry
:3S 001: 3S                -105.325726135 Ry
:3PP001: 3P*                -93.863235096 Ry
:3P 001: 3P                 -86.855575399 Ry
:3DD001: 3D*                -66.781390594 Ry
:3D 001: 3D                 -65.269946052 Ry
:4S 001: 4S                 -19.992474516 Ry
:4PP001: 4P*                -15.698220695 Ry
:4P 001: 4P                 -14.169351996 Ry
:4DD001: 4D*                 -7.099438116 Ry
:4D 001: 4D                  -6.829533070 Ry
:CINT001 Core Integral Atom   1   45.998492

       DENSITY AT NUCLEUS
        JATOM        VALENCE       SEMI-CORE          CORE           TOTAL
:RTO001:   1      643.339343        0.000000   656826.468264   657469.807606
     
       CHARGES OF NEW CHARGE DENSITY
:NTO   : INTERSTITIAL CHARGE =     6.375041
:NPC   : PW Pseudocharge     =    17.544498
:NTO001: CHARGE SPHERE  1    =    55.810969

:NEC01: NUCLEAR AND ELECTRONIC CHARGE    118.00000   117.99698
     
       CHARGES OF OLD CHARGE DENSITY
:OTO   : INTERSTITIAL CHARGE =     6.403771
:OPC   : PW Pseudocharge     =    17.571889
:OTO001: CHARGE SPHERE  1    =    55.798114

:NEC02: NUCLEAR AND ELECTRONIC CHARGE    118.00000   118.00000
     
       CONVERGENCE TEST
:DTO001: DIFFERENCE IN SPHERE  1 =  0.0335503

:DIS  :  CHARGE DISTANCE       ( 0.0335503 for atom    1 spin 1)      0.0335503
 PW Mixed is          316
 
******************************************************
* MULTISECANT MIXING VER9 RELEASE 10.4.0              *
* Slow Mode, cautious                                *
* Fixed density scale                                *
* Regularization       1.000E-04                     *
* Step Trust Radius    0.75000                       *
* Trust Upper Limit    2.000E+00                     *
* Max Number of Memory Steps   12                    *
******************************************************
 
:PWTMP   1.8960E+02  1.9467E+02  2.9153E+02
:PLANE:  PW TOTAL      6.0249 DISTAN   7.86E-03  1.30E-01 %
:CHARG:  CLM/ATOM   1381.9485 DISTAN   4.86E-02  3.52E-03 %
 
Step History
        DMIX         DMIXT        Red     Pred      Trust     Lambda    MagRel    MagAbs     Beta
  1   3.5000E-02   3.5000E-02 -1.00E+00  1.00E+00 -1.00E+01  1.00E+00  3.50E-02  3.50E-02  1.00E+00
  2   2.5000E-02   2.5000E-02 -1.00E+00  1.00E+00 -1.00E+01  1.00E+00  2.50E-02  1.56E-03  1.00E+00
:JACOBIANS    4.590E-02   5.071E-02
  
:NORMS:  1/Froebius, Min, Max, Used   0.8365E-01  0.8365E-01  0.1927E+00  0.8365E-01
:INFO :  Number of Memory Steps    1 Skipping    0
:PREDicted Charge, CTotal, PW Trust    1.889E-03   3.778E-03   3.263E-02
:PREDicted DMix, Beta, BLim   1.0000E-02  4.3380E+00  5.8083E-01

Eigenvalues, unscaled except for SY+YY
   #     SY Real        SY Imag          SS             YY         SY+YY Real      SY+YY Imag
   1   1.926612E-01   0.000000E+00   8.365495E-02   1.000000E+00   1.192661E+00   0.000000E+00
 
:BLIM :  VZERO Control Off
:TRUST:  Step 5.81E-01  Charge 7.50E-02 (e) CTO  2.50E-01 (e) PW  3.50E-01 (e)
:DIRM :  MEMORY  1/12 SCALE   1.000 RED  0.79 PRED  1.00 NEXT  0.35 
:TRAVE:  Charge 1.41E-03 (e) CTO  2.81E-03 (e) PW  2.47E-02 (e)
:DIRP :  |MSR1|= 1.210E-02 |PRATT|= 7.861E-03 ANGLE=  55.3 DEGREES
:DIRQ :  |MSR1|= 5.234E-03 |PRATT|= 4.858E-02 ANGLE=   0.6 DEGREES
:DIRT :  |MSR1|= 1.319E-02 |PRATT|= 4.921E-02 ANGLE=  61.6 DEGREES
:MIX  :   MSR1   REGULARIZATION:  1.00E-04 GREED: 0.02000  Newton 1.00  0.2679                
     
       CHARGES OF MIXED CHARGE DENSITY
:CTO   : INTERSTITIAL CHARGE =     6.400959
:CPC   : PW Pseudocharge     =    17.536798
:CTO001: CHARGE SPHERE  1    =    55.799520

:NEC03: NUCLEAR AND ELECTRONIC CHARGE    118.00000   118.00000

PW CHANGE     H    K    L      Current       Change    Residue
:PTO001:      0    0    0  8.21113441E-02 -1.300E-04 -1.536E-04
:PTO003:      0    2    0  1.87994805E-02 -3.697E-05  1.324E-05
:PTO004:     -1    1    0  8.78945732E-02 -1.923E-04 -2.776E-05
:PTO005:      0    2   -1 -1.00191052E-01  2.206E-04  1.842E-06
:PTO006:      0    0   -2 -5.19698556E-02  1.143E-04 -6.607E-07
:PTO007:     -1    1   -1 -1.03421325E-01  2.380E-04  3.114E-05
:PTO008:      0    2   -2 -1.41186780E-02  3.487E-05  4.817E-06
:PTO009:     -1    1   -2 -7.04918367E-02  1.607E-04 -2.716E-06
:PTO011:     -1    3    0 -1.03341380E-02  2.126E-05  7.956E-06
:PTO012:     -1    3   -1 -4.16769135E-02  7.221E-05 -3.314E-05
:PTO013:      0    4    0 -6.94010284E-03  9.529E-06 -5.478E-06
:PTO014:      0    2   -3  1.62409279E-02 -2.180E-05  4.892E-06

:ENE  : ********** TOTAL ENERGY IN Ry =       -36944.36580076

       TOTAL FORCE IN mRy/a.u. = |F|     Fx             Fy             Fz     with/without FOR in case.in2
:FOR001:   1.ATOM          6.821          0.000          0.000          6.821 partial forces
       TOTAL FORCE WITH RESPECT TO GLOBAL CARTESIAN COORDINATES:
:FCA001:   1.ATOM                         0.000          6.821          0.000 partial forces
       TOTAL FORCE WITH RESPECT TO THE GLOBAL COORDINATE SYSTEM:
:FGL001:   1.ATOM                 0.000000000     6.820897258     0.000000000 partial forces
 Flat Integration
 New Mode for Coulomb Integral
 Consistent 3/8+Simpson combinations
 Extension of core to zero
 LDM version in phi
 Fifth-order quadrature in outwin


            ---------
:ITE016: 16. ITERATION
            ---------

:NATO :    1 INDEPENDENT AND    2 TOTAL ATOMS IN UNITCELL
       SUBSTANCE: aU                                                          

       LATTICE                      = CXY 
:POT  : POTENTIAL OPTION EX_LDA EC_LDA VX_LDA VC_LDA
:LAT  : LATTICE CONSTANTS=  5.47380 11.10771  9.58952    1.571    1.571    1.571
:VOL  : UNIT CELL VOLUME =     291.52801
       MODE OF CALCULATION IS       = RELA
       NON-SPINPOLARIZED CALCULATION
:IFFT  : FFT-parameters:   48   90   80 Factor: 2.00


   CONVERGENCE PARAMETER FOR PSEUDOCHARGE: NCON=  9
   MAXIMAL VALUE OF RMT(JATOM)*ABSK(NKK) : RK  =27.59917


:VKCOUL :  VK-COUL convergence: 0.264E-06
       ATOMNUMBER=  1 Pr1        VCOUL-ZERO =  0.58586E+00
:EFG001:                        EFG         =    -9.03773   *10**21  V / m**2
                               V20  TOT/SRF=    -7.82690    -0.06632
                               V22  TOT/SRF=    -4.19994    -0.01218
                               V22M TOT/SRF=     0.00000     0.00000
                               V21  TOT/SRF=     0.00000     0.00000
                               V21M TOT/SRF=     0.00000     0.00000

              0.31893    0.00000    0.00000        0.31893    0.00000    0.00000
              0.00000    8.71880    0.00000        0.00000    8.71880    0.00000
              0.00000    0.00000   -9.03773        0.00000    0.00000   -9.03773

         MAIN DIRECTIONS OF THE EFG   1.0000  0.0000  0.0000
                                      0.0000  1.0000  0.0000
                                      0.0000  0.0000  1.0000
:ANG001:  ANGLE WITH OLD X-AXIS =         0.0

:ETA001:                         ASYMM. ETA =     0.92942


     HELLMANN-FEYNMAN-FORCE IN mRy/a.u. = |F|  Fx       Fy             Fz
:FHF001:   1.ATOM   1613.261175153237      0.000000000000      0.000000000000  -1613.261175153237

:FIT001: LUSE= 13 SIGMA OF V-XC FIT FOR ATOM  1  0.7621828E-04
:FIT001: LUSE= 13 SIGMA OF V-XC FIT FOR ATOM  1  0.7621828E-04
:DEN  : DENSITY INTEGRAL  =        -14207.60581913   (Ry)
       ELS_POTENTIAL_AT Z=0 and Z=0.5:   0.98804   0.98804
       ELS_POTENTIAL_AT Y=0 and Y=0.5:  -0.00075  -0.00075
:VZERO:v0,v0c,v0x   0.25918   0.98804  -0.72886 v5,v5c,v5x   0.25918   0.98804  -0.72886
:VZERY:v0,v0c,v0x  -0.95235  -0.00075  -0.95160 v5,v5c,v5x  -0.95235  -0.00075  -0.95160
:VZERX:v0,v0c,v0x  -1.28655  -0.39552  -0.89104 v5,v5c,v5x  -1.28655  -0.39552  -0.89104
:LMAX-WF:   10   Non-Spherical LMAX:   4

          ATOMIC SPHERE DEPENDENT PARAMETERS FOR ATOM  Pr1       
:e__0001: OVERALL ENERGY PARAMETER IS    0.9099
          OVERALL BASIS SET ON ATOM IS LAPW
:E0_0001: E( 0)=    0.9099
             APW+lo
:E0_0001: E( 0)=   -1.5143   E(BOTTOM)=   -2.153   E(TOP)=   -0.875  4  5   232
             LOCAL ORBITAL
:E1_0001: E( 1)=    1.3099
             APW+lo
:E1_0001: E( 1)=   -0.0458   E(BOTTOM)=   -1.009   E(TOP)=    0.917  3  4   234
             LOCAL ORBITAL
:E3_0001: E( 3)=    1.1275   E(BOTTOM)=    0.921   E(TOP)=    1.334  0  1   116
             APW+lo
:E2_0001: E( 2)=    0.9099   E(BOTTOM)=    0.727   E(TOP)= -200.000  2 -1   124
             APW+lo

       K=   0.06250   0.00000   0.06250            1
:RKM  : MATRIX SIZE   297LOs:  40  RKM= 8.46  WEIGHT= 4.00  PGR:    
       EIGENVALUES ARE:
:EIG00001:      -1.5510738   -1.4770635   -0.3625719   -0.1198540   -0.0629913
:EIG00006:      -0.0412048   -0.0179867   -0.0165626    0.9587555    0.9672366
:EIG00011:       1.0839776    1.0908321    1.0933569    1.1025738    1.1192957
:EIG00016:       1.1427017    1.1521824    1.1549586    1.1610580    1.1651077
:EIG00021:       1.1764345    1.1770418    1.1779343    1.2015104    1.2191567
:EIG00026:       1.2506643    1.3458999    1.3480446    1.4266477    1.4681330
:EIG00031:       1.5175872    1.6965232    1.7183644    1.7926501    2.0901761
:EIG00036:       2.1382890    2.1749101    2.3936346    2.4220062    2.5306881
:EIG00041:       2.7272966    2.7868179    2.9395302    2.9853937    3.1363607
:EIG00046:       3.1498835    3.1614968    3.3385107    3.3427593    3.4878598
 
:EIG00051:       3.5822198    3.7047145    3.7397275    3.8961987    3.9082837
:EIG00056:       3.9775058    4.0428510    4.2331608    4.2433825    4.3159671
:EIG00061:       4.3834179    4.4819344    4.5142278    4.5992859    4.6645127
:EIG00066:       4.7660111    4.7717236    4.8303244    4.9346120    4.9527942
:EIG00071:       5.0525725    5.0905194    5.1555898    5.2378594    5.2440146
:EIG00076:       5.2561185    5.3170702    5.3214563    5.3495690    5.4464556
:EIG00081:       5.4597038    5.4971215    5.5515303    5.5824318    5.6221553
:EIG00086:       5.6855847    5.8066747    5.8790621    5.9143429    5.9476652
:EIG00091:       6.0054403    6.0627857    6.0941480    6.1217294    6.1257937
:EIG00096:       6.2562015    6.2791410    6.2868612    6.3442773    6.4366621
 
:EIG00101:       6.4425727    6.5731496    6.6365348    6.6696751    6.6808668
:EIG00106:       6.8149030    6.8230979    6.8628880    6.9509642    7.1116415
:EIG00111:       7.1930467    7.2364850    7.2785178    7.3155124    7.4280668
:EIG00116:       7.5199407    7.5828679    7.6952366    7.6955158    7.7540797
:EIG00121:       7.8167898    7.8439885    7.8918446    8.0068084    8.0258395
:EIG00126:       8.0402301    8.1293189    8.2192973    8.2220202    8.2752449
:EIG00131:       8.2923564    8.3276399    8.3554595    8.5095522    8.5359248
:EIG00136:       8.5936321
       ********************************************************

:KPT   :      NUMBER OF K-POINTS:   288
   0.0   0.0 angle (M,z), angle (M,x) deg
 
        SPIN-ORBIT EIGENVALUES:
     K=   0.06250   0.00000   0.06250            1
      MATRIX SIZE=  272   WEIGHT= 4.00
     EIGENVALUES ARE:
          -1.5510758   -1.5510758   -1.4770652   -1.4770652   -0.3975551
          -0.3975551   -0.1996703   -0.1996703   -0.1331153   -0.1331153
           0.0181690    0.0181690    0.0229226    0.0229226    0.0475742
           0.0475742    0.9588330    0.9588330    0.9671918    0.9671918
           1.0823020    1.0823020    1.0888033    1.0888033    1.0914927
           1.0914927    1.1010393    1.1010393    1.1167075    1.1167075
           1.1358023    1.1358023    1.1466773    1.1466773    1.1560305
           1.1560305    1.1658019    1.1658019    1.1682592    1.1682592

           1.1765846    1.1765846    1.1790901    1.1790901    1.1826574
           1.1826574    1.2039884    1.2039884    1.2206980    1.2206980
           1.2509907    1.2509907    1.3407897    1.3407897    1.3531766
           1.3531766    1.4271759    1.4271759    1.4680757    1.4680757
           1.5179765    1.5179765    1.6967114    1.6967114    1.7184922
           1.7184922    1.7928632    1.7928632    2.0906369    2.0906369
           2.1383618    2.1383618    2.1749144    2.1749144    2.3934872
           2.3934872    2.4218664    2.4218664    2.5300883    2.5300884

           2.7275762    2.7275762    2.7863781    2.7863781    2.9393929
           2.9393929    2.9850238    2.9850238    3.1363269    3.1363269
           3.1492591    3.1492591    3.1618058    3.1618058    3.3337585
           3.3337585    3.3475374    3.3475374    3.4881349    3.4881349
           3.5818516    3.5818516    3.7023875    3.7023875    3.7405535
           3.7405535    3.8960009    3.8960009    3.9077183    3.9077183
           3.9779925    3.9779925    4.0405620    4.0405620    4.2346739
           4.2346739    4.2440604    4.2440604    4.3159093    4.3159093

           4.3850416    4.3850416    4.4814219    4.4814219
       ********************************************************
:GAP (global)   :    0.0    Ry =     0.0   eV (metal)
:GAP (this spin):    0.0    Ry =     0.0   eV (metal)
         Bandranges (emin - emax) and occupancy:
:BAN00020:  20    0.929565    1.065489  1.00000000
:BAN00021:  21    0.970566    1.108853  1.00000000
:BAN00022:  22    0.970566    1.108853  1.00000000
:BAN00023:  23    1.036069    1.115070  0.98654650
:BAN00024:  24    1.036069    1.115070  0.98654649
:BAN00025:  25    1.065345    1.133093  0.64991120
:BAN00026:  26    1.065345    1.133093  0.64991116
:BAN00027:  27    1.091131    1.140422  0.35859045
:BAN00028:  28    1.091131    1.140422  0.35859039
:BAN00029:  29    1.107309    1.143938  0.00495190
:BAN00030:  30    1.107309    1.143938  0.00495190
:BAN00031:  31    1.117645    1.152160  0.00000000
:BAN00032:  32    1.117645    1.152160  0.00000000
:BAN00033:  33    1.138423    1.161938  0.00000000
:BAN00034:  34    1.138423    1.161938  0.00000000
:BAN00035:  35    1.143641    1.168922  0.00000000
        Energy to separate low and high energystates:    0.83013


:NOE  : NUMBER OF ELECTRONS          =   26.000

:FER  : F E R M I - ENERGY(TETRAH.M.)=   1.1108989298
:GMA  : POTENTIAL AND CHARGE CUT-OFF  12.00 Ry**.5

:POS001: ATOM   -1 X,Y,Z = 0.00000 0.89750 0.25000  MULT= 2  ZZ= 59.000  Pr1       

       LMMAX 16
       LM=   0 0  1 0  2 0  2 2  3 0  3 2  4 0  4 2  4 4  5 0  5 2  5 4  6 0  6 2  6 4  6 6

:CHA001: TOTAL VALENCE CHARGE INSIDE SPHERE   1 =   9.7987    (RMT=  2.3000 )
:PCS001: PARTIAL CHARGES SPHERE =  1 S,P,D,F,PX,PY,PZ,D-Z2,D-X2Y2,D-XY,D-XZ,D-YZ 
:QTL001: 1.9331 4.9636 0.8463 2.0529 1.6544 1.6494 1.6598 0.1653 0.1505 0.1735 0.1750 0.1820
        Q-s-low E-s-low   Q-p-low E-p-low   Q-d-low E-d-low   Q-f-low E-f-low
:EPL001:  1.8691 -1.4706    4.8773 -0.1718    0.0204 -0.1943    0.0065 -0.2037
        Q-s-hi  E-s-hi    Q-p-hi  E-p-hi    Q-d-hi  E-d-hi    Q-f-hi  E-f-hi 
:EPH001:  0.0640  1.0230    0.0863  1.0410    0.8259  1.0180    2.0464  1.0767

                      VXX         VYY         VZZ       UP TO R
:VZZ001:             0.32217     8.57417    -8.89634       2.300

:CHA  : TOTAL VALENCE CHARGE INSIDE UNIT CELL =      26.000000

:SUM  : SUM OF EIGENVALUES =           2.426081736


        1.ATOM      Pr1                  14 CORE STATES
       CORE-FORCE in mRy/a.u. = |F|      Fx             Fy             Fz
:FCO001:   1.ATOM   1620.238274186463      0.000000000000      0.000000000000   1620.238274186463

:1S 001: 1S               -3066.470100631 Ry
:2S 001: 2S                -492.223114897 Ry
:2PP001: 2P*               -465.321630826 Ry
:2P 001: 2P                -429.924341871 Ry
:3S 001: 3S                -105.321965663 Ry
:3PP001: 3P*                -93.859465683 Ry
:3P 001: 3P                 -86.851823875 Ry
:3DD001: 3D*                -66.777607709 Ry
:3D 001: 3D                 -65.266167410 Ry
:4S 001: 4S                 -19.989711358 Ry
:4PP001: 4P*                -15.695520940 Ry
:4P 001: 4P                 -14.166750215 Ry
:4DD001: 4D*                 -7.097009464 Ry
:4D 001: 4D                  -6.827137791 Ry
:CINT001 Core Integral Atom   1   45.998490

       DENSITY AT NUCLEUS
        JATOM        VALENCE       SEMI-CORE          CORE           TOTAL
:RTO001:   1      643.437866        0.000000   656826.265582   657469.703448
     
       CHARGES OF NEW CHARGE DENSITY
:NTO   : INTERSTITIAL CHARGE =     6.402660
:NPC   : PW Pseudocharge     =    17.558201
:NTO001: CHARGE SPHERE  1    =    55.797158

:NEC01: NUCLEAR AND ELECTRONIC CHARGE    118.00000   117.99698
     
       CHARGES OF OLD CHARGE DENSITY
:OTO   : INTERSTITIAL CHARGE =     6.400959
:OPC   : PW Pseudocharge     =    17.536798
:OTO001: CHARGE SPHERE  1    =    55.799520

:NEC02: NUCLEAR AND ELECTRONIC CHARGE    118.00000   118.00000
     
       CONVERGENCE TEST
:DTO001: DIFFERENCE IN SPHERE  1 =  0.0057262

:DIS  :  CHARGE DISTANCE       ( 0.0057262 for atom    1 spin 1)      0.0057262
 PW Mixed is          316
 
******************************************************
* MULTISECANT MIXING VER9 RELEASE 10.4.0              *
* Slow Mode, cautious                                *
* Fixed density scale                                *
* Regularization       1.000E-04                     *
* Step Trust Radius    0.75000                       *
* Trust Upper Limit    2.000E+00                     *
* Max Number of Memory Steps   12                    *
******************************************************
 
:PWTMP   1.8960E+02  1.9467E+02  2.9153E+02
:PLANE:  PW TOTAL      6.0134 DISTAN   1.14E-02  1.89E-01 %
:CHARG:  CLM/ATOM   1381.9487 DISTAN   1.23E-02  8.88E-04 %
 
Step History
        DMIX         DMIXT        Red     Pred      Trust     Lambda    MagRel    MagAbs     Beta
  1   3.5000E-02   3.5000E-02 -1.00E+00  1.00E+00 -1.00E+01  1.00E+00  3.50E-02  3.50E-02  1.00E+00
  2   2.5000E-02   2.5000E-02  7.89E-01  1.00E+00 -1.00E+01  1.00E+00  2.50E-02  1.56E-03  1.00E+00
  3   2.0000E-02   2.0000E-02 -1.00E+00  3.48E-01  5.81E-01  1.00E+00  2.68E-01  1.32E-02  1.00E+00
:JACOBIANS    6.729E-02   7.701E-02
  
:NORMS:  1/Froebius, Min, Max, Used   0.2854E+00  0.2854E+00  0.6240E+00  0.2858E+00
:INFO :  Number of Memory Steps    2 Skipping    0
:INFO :  SLambda=    0.0106129773  Max    0.0106129773
:PREDicted Charge, CTotal, PW Trust    1.411E-03   2.821E-03   2.469E-02
:PREDicted DMix, Beta, BLim   8.0705E-03  1.0121E+00  4.2599E-01

Eigenvalues, unscaled except for SY+YY
   #     SY Real        SY Imag          SS             YY         SY+YY Real      SY+YY Imag
   1   3.820585E-01   0.000000E+00   1.628912E-01   1.999997E+00   2.004052E+00   0.000000E+00
   2   1.755867E-06   0.000000E+00   1.158234E-06   3.037047E-06   3.056706E-06   0.000000E+00
 
:INFO :  Singular value  2.004E+00 Weight  1.000E+00 Projection  2.755E-05
:INFO :  Singular value  3.057E-06 Weight  2.335E-04 Projection -1.844E-03
:RANK :  ACTIVE   1.00/2  =  50.01 % ; YY RANK   1.00/2  =  50.01 %
 
:BLIM :  VZERO Control Off
:TRUST:  Step 7.26E-01  Charge 7.50E-02 (e) CTO  2.50E-01 (e) PW  3.50E-01 (e)
:DIRM :  MEMORY  2/12 SCALE   1.000 RED  0.34 PRED  0.35 NEXT  1.00 
:TRAVE:  Charge 7.23E-04 (e) CTO  1.45E-03 (e) PW  1.25E-02 (e)
:DIRP :  |MSR1|= 1.994E-04 |PRATT|= 1.136E-02 ANGLE=   0.6 DEGREES
:DIRQ :  |MSR1|= 2.023E-04 |PRATT|= 1.227E-02 ANGLE=   0.9 DEGREES
:DIRT :  |MSR1|= 2.840E-04 |PRATT|= 1.672E-02 ANGLE=   1.9 DEGREES
:MIX  :   MSD1   REGULARIZATION:  2.00E-04 GREED: 0.01654  Newton 1.00  0.0170                
     
       CHARGES OF MIXED CHARGE DENSITY
:CTO   : INTERSTITIAL CHARGE =     6.401040
:CPC   : PW Pseudocharge     =    17.537322
:CTO001: CHARGE SPHERE  1    =    55.799480

:NEC03: NUCLEAR AND ELECTRONIC CHARGE    118.00000   118.00000

PW CHANGE     H    K    L      Current       Change    Residue
:PTO001:      0    0    0  8.21134205E-02  2.076E-06  1.181E-04
:PTO003:      0    2    0  1.88000450E-02  5.645E-07  3.197E-05
:PTO004:     -1    1    0  8.78974990E-02  2.926E-06  1.657E-04
:PTO005:      0    2   -1 -1.00194817E-01 -3.765E-06 -2.146E-04
:PTO006:      0    0   -2 -5.19718086E-02 -1.953E-06 -1.113E-04
:PTO007:     -1    1   -1 -1.03425005E-01 -3.680E-06 -2.087E-04
:PTO008:      0    2   -2 -1.41192621E-02 -5.841E-07 -3.327E-05
:PTO009:     -1    1   -2 -7.04946471E-02 -2.810E-06 -1.604E-04
:PTO011:     -1    3    0 -1.03345248E-02 -3.868E-07 -2.213E-05
:PTO012:     -1    3   -1 -4.16787598E-02 -1.846E-06 -1.071E-04
:PTO013:      0    4    0 -6.94038244E-03 -2.796E-07 -1.629E-05
:PTO014:      0    2   -3  1.62415526E-02  6.247E-07  3.637E-05

:ENE  : ********** TOTAL ENERGY IN Ry =       -36944.36570487

       TOTAL FORCE IN mRy/a.u. = |F|     Fx             Fy             Fz     with/without FOR in case.in2
:FOR001:   1.ATOM          6.977          0.000          0.000          6.977 partial forces
       TOTAL FORCE WITH RESPECT TO GLOBAL CARTESIAN COORDINATES:
:FCA001:   1.ATOM                         0.000          6.977          0.000 partial forces
       TOTAL FORCE WITH RESPECT TO THE GLOBAL COORDINATE SYSTEM:
:FGL001:   1.ATOM                 0.000000000     6.977099033     0.000000000 partial forces
 Flat Integration
 New Mode for Coulomb Integral
 Consistent 3/8+Simpson combinations
 Extension of core to zero
 LDM version in phi
 Fifth-order quadrature in outwin


            ---------
:ITE017: 17. ITERATION
            ---------

:NATO :    1 INDEPENDENT AND    2 TOTAL ATOMS IN UNITCELL
       SUBSTANCE: aU                                                          

       LATTICE                      = CXY 
:POT  : POTENTIAL OPTION EX_LDA EC_LDA VX_LDA VC_LDA
:LAT  : LATTICE CONSTANTS=  5.47380 11.10771  9.58952    1.571    1.571    1.571
:VOL  : UNIT CELL VOLUME =     291.52801
       MODE OF CALCULATION IS       = RELA
       NON-SPINPOLARIZED CALCULATION
:IFFT  : FFT-parameters:   48   90   80 Factor: 2.00


   CONVERGENCE PARAMETER FOR PSEUDOCHARGE: NCON=  9
   MAXIMAL VALUE OF RMT(JATOM)*ABSK(NKK) : RK  =27.59917


:VKCOUL :  VK-COUL convergence: 0.264E-06
       ATOMNUMBER=  1 Pr1        VCOUL-ZERO =  0.58587E+00
:EFG001:                        EFG         =    -9.03681   *10**21  V / m**2
                               V20  TOT/SRF=    -7.82611    -0.06632
                               V22  TOT/SRF=    -4.19874    -0.01217
                               V22M TOT/SRF=     0.00000     0.00000
                               V21  TOT/SRF=     0.00000     0.00000
                               V21M TOT/SRF=     0.00000     0.00000

              0.31966    0.00000    0.00000        0.31966    0.00000    0.00000
              0.00000    8.71715    0.00000        0.00000    8.71715    0.00000
              0.00000    0.00000   -9.03681        0.00000    0.00000   -9.03681

         MAIN DIRECTIONS OF THE EFG   1.0000  0.0000  0.0000
                                      0.0000  1.0000  0.0000
                                      0.0000  0.0000  1.0000
:ANG001:  ANGLE WITH OLD X-AXIS =         0.0

:ETA001:                         ASYMM. ETA =     0.92925


     HELLMANN-FEYNMAN-FORCE IN mRy/a.u. = |F|  Fx       Fy             Fz
:FHF001:   1.ATOM   1613.174959099570      0.000000000000      0.000000000000  -1613.174959099570

:FIT001: LUSE= 13 SIGMA OF V-XC FIT FOR ATOM  1  0.7621161E-04
:FIT001: LUSE= 13 SIGMA OF V-XC FIT FOR ATOM  1  0.7621161E-04
:DEN  : DENSITY INTEGRAL  =        -14207.60949841   (Ry)
       ELS_POTENTIAL_AT Z=0 and Z=0.5:   0.98806   0.98806
       ELS_POTENTIAL_AT Y=0 and Y=0.5:  -0.00075  -0.00075
:VZERO:v0,v0c,v0x   0.25919   0.98806  -0.72887 v5,v5c,v5x   0.25919   0.98806  -0.72887
:VZERY:v0,v0c,v0x  -0.95236  -0.00075  -0.95161 v5,v5c,v5x  -0.95236  -0.00075  -0.95161
:VZERX:v0,v0c,v0x  -1.28657  -0.39553  -0.89104 v5,v5c,v5x  -1.28657  -0.39553  -0.89104
:LMAX-WF:   10   Non-Spherical LMAX:   4

          ATOMIC SPHERE DEPENDENT PARAMETERS FOR ATOM  Pr1       
:e__0001: OVERALL ENERGY PARAMETER IS    0.9106
          OVERALL BASIS SET ON ATOM IS LAPW
:E0_0001: E( 0)=    0.9106
             APW+lo
:E0_0001: E( 0)=   -1.5143   E(BOTTOM)=   -2.153   E(TOP)=   -0.875  4  5   232
             LOCAL ORBITAL
:E1_0001: E( 1)=    1.3106
             APW+lo
:E1_0001: E( 1)=   -0.0458   E(BOTTOM)=   -1.009   E(TOP)=    0.917  3  4   236
             LOCAL ORBITAL
:E3_0001: E( 3)=    1.1275   E(BOTTOM)=    0.921   E(TOP)=    1.334  0  1   111
             APW+lo
:E2_0001: E( 2)=    0.9106   E(BOTTOM)=    0.727   E(TOP)= -200.000  2 -1   121
             APW+lo

       K=   0.06250   0.00000   0.06250            1
:RKM  : MATRIX SIZE   297LOs:  40  RKM= 8.46  WEIGHT= 4.00  PGR:    
       EIGENVALUES ARE:
:EIG00001:      -1.5510570   -1.4770460   -0.3625590   -0.1198385   -0.0629756
:EIG00006:      -0.0411871   -0.0179723   -0.0165446    0.9587716    0.9672514
:EIG00011:       1.0840020    1.0908602    1.0933807    1.1026000    1.1193189
:EIG00016:       1.1427314    1.1522116    1.1549884    1.1610872    1.1651345
:EIG00021:       1.1764636    1.1770695    1.1779642    1.2015381    1.2191820
:EIG00026:       1.2506849    1.3459147    1.3480607    1.4266641    1.4681494
:EIG00031:       1.5176028    1.6965384    1.7183798    1.7926633    2.0901949
:EIG00036:       2.1383077    2.1749267    2.3936476    2.4220229    2.5307011
:EIG00041:       2.7273106    2.7868316    2.9395431    2.9854054    3.1363709
:EIG00046:       3.1498955    3.1615024    3.3385197    3.3427691    3.4878713
 
:EIG00051:       3.5822235    3.7047180    3.7397312    3.8961916    3.9082865
:EIG00056:       3.9775137    4.0428603    4.2331692    4.2433631    4.3159599
:EIG00061:       4.3834247    4.4819394    4.5142301    4.5992796    4.6644913
:EIG00066:       4.7660068    4.7717192    4.8303242    4.9346073    4.9527928
:EIG00071:       5.0525718    5.0905218    5.1555925    5.2378614    5.2440156
:EIG00076:       5.2561191    5.3170716    5.3214558    5.3495671    5.4464595
:EIG00081:       5.4597020    5.4971214    5.5515305    5.5824326    5.6221566
:EIG00086:       5.6855900    5.8066778    5.8790568    5.9143398    5.9476566
:EIG00091:       6.0054373    6.0627878    6.0941225    6.1217231    6.1257605
:EIG00096:       6.2562066    6.2791434    6.2868492    6.3442596    6.4366583
 
:EIG00101:       6.4425640    6.5731385    6.6365297    6.6696709    6.6808654
:EIG00106:       6.8148968    6.8231006    6.8628838    6.9509617    7.1116367
:EIG00111:       7.1930302    7.2364732    7.2785090    7.3155086    7.4280379
:EIG00116:       7.5199386    7.5828196    7.6951977    7.6954668    7.7540425
:EIG00121:       7.8167688    7.8439502    7.8918271    8.0067905    8.0258212
:EIG00126:       8.0402161    8.1293059    8.2192825    8.2220082    8.2752389
:EIG00131:       8.2923413    8.3276316    8.3554369    8.5095464    8.5359028
:EIG00136:       8.5936214
       ********************************************************

:KPT   :      NUMBER OF K-POINTS:   288
   0.0   0.0 angle (M,z), angle (M,x) deg
 
        SPIN-ORBIT EIGENVALUES:
     K=   0.06250   0.00000   0.06250            1
      MATRIX SIZE=  272   WEIGHT= 4.00
     EIGENVALUES ARE:
          -1.5510589   -1.5510589   -1.4770477   -1.4770477   -0.3975417
          -0.3975417   -0.1996542   -0.1996542   -0.1330997   -0.1330997
           0.0181857    0.0181857    0.0229397    0.0229397    0.0475895
           0.0475895    0.9588491    0.9588491    0.9672066    0.9672066
           1.0823267    1.0823267    1.0888315    1.0888315    1.0915167
           1.0915167    1.1010657    1.1010657    1.1167312    1.1167312
           1.1358320    1.1358320    1.1467057    1.1467057    1.1560597
           1.1560597    1.1658311    1.1658311    1.1682866    1.1682866

           1.1766135    1.1766135    1.1791169    1.1791169    1.1826875
           1.1826875    1.2040162    1.2040162    1.2207236    1.2207236
           1.2510115    1.2510116    1.3408052    1.3408052    1.3531922
           1.3531922    1.4271923    1.4271923    1.4680921    1.4680921
           1.5179921    1.5179921    1.6967266    1.6967266    1.7185075
           1.7185075    1.7928764    1.7928764    2.0906556    2.0906556
           2.1383804    2.1383805    2.1749310    2.1749310    2.3935001
           2.3935001    2.4218831    2.4218831    2.5301014    2.5301014

           2.7275901    2.7275901    2.7863917    2.7863917    2.9394058
           2.9394058    2.9850354    2.9850354    3.1363372    3.1363372
           3.1492710    3.1492710    3.1618114    3.1618114    3.3337678
           3.3337678    3.3475467    3.3475467    3.4881464    3.4881464
           3.5818554    3.5818554    3.7023908    3.7023908    3.7405574
           3.7405574    3.8959938    3.8959938    3.9077211    3.9077211
           3.9780004    3.9780004    4.0405711    4.0405711    4.2346814
           4.2346814    4.2440422    4.2440422    4.3159020    4.3159020

           4.3850481    4.3850481    4.4814265    4.4814265
       ********************************************************
:GAP (global)   :    0.0    Ry =     0.0   eV (metal)
:GAP (this spin):    0.0    Ry =     0.0   eV (metal)
         Bandranges (emin - emax) and occupancy:
:BAN00020:  20    0.929580    1.065510  1.00000000
:BAN00021:  21    0.970581    1.108878  1.00000000
:BAN00022:  22    0.970581    1.108878  1.00000000
:BAN00023:  23    1.036087    1.115096  0.98654950
:BAN00024:  24    1.036087    1.115096  0.98654949
:BAN00025:  25    1.065366    1.133121  0.64992844
:BAN00026:  26    1.065366    1.133121  0.64992840
:BAN00027:  27    1.091157    1.140450  0.35856996
:BAN00028:  28    1.091157    1.140450  0.35856990
:BAN00029:  29    1.107333    1.143968  0.00495216
:BAN00030:  30    1.107333    1.143968  0.00495215
:BAN00031:  31    1.117672    1.152188  0.00000000
:BAN00032:  32    1.117672    1.152188  0.00000000
:BAN00033:  33    1.138451    1.161966  0.00000000
:BAN00034:  34    1.138451    1.161966  0.00000000
:BAN00035:  35    1.143668    1.168950  0.00000000
        Energy to separate low and high energystates:    0.83015


:NOE  : NUMBER OF ELECTRONS          =   26.000

:FER  : F E R M I - ENERGY(TETRAH.M.)=   1.1109253878
:GMA  : POTENTIAL AND CHARGE CUT-OFF  12.00 Ry**.5

:POS001: ATOM   -1 X,Y,Z = 0.00000 0.89750 0.25000  MULT= 2  ZZ= 59.000  Pr1       

       LMMAX 16
       LM=   0 0  1 0  2 0  2 2  3 0  3 2  4 0  4 2  4 4  5 0  5 2  5 4  6 0  6 2  6 4  6 6

:CHA001: TOTAL VALENCE CHARGE INSIDE SPHERE   1 =   9.7986    (RMT=  2.3000 )
:PCS001: PARTIAL CHARGES SPHERE =  1 S,P,D,F,PX,PY,PZ,D-Z2,D-X2Y2,D-XY,D-XZ,D-YZ 
:QTL001: 1.9331 4.9636 0.8464 2.0527 1.6544 1.6494 1.6598 0.1653 0.1505 0.1735 0.1750 0.1820
        Q-s-low E-s-low   Q-p-low E-p-low   Q-d-low E-d-low   Q-f-low E-f-low
:EPL001:  1.8691 -1.4706    4.8773 -0.1717    0.0204 -0.1942    0.0065 -0.2037
        Q-s-hi  E-s-hi    Q-p-hi  E-p-hi    Q-d-hi  E-d-hi    Q-f-hi  E-f-hi 
:EPH001:  0.0640  1.0230    0.0863  1.0410    0.8259  1.0180    2.0462  1.0767

                      VXX         VYY         VZZ       UP TO R
:VZZ001:             0.32045     8.57803    -8.89848       2.300

:CHA  : TOTAL VALENCE CHARGE INSIDE UNIT CELL =      26.000000

:SUM  : SUM OF EIGENVALUES =           2.426536897


        1.ATOM      Pr1                  14 CORE STATES
       CORE-FORCE in mRy/a.u. = |F|      Fx             Fy             Fz
:FCO001:   1.ATOM   1620.113933094750      0.000000000000      0.000000000000   1620.113933094750

:1S 001: 1S               -3066.470083408 Ry
:2S 001: 2S                -492.223089363 Ry
:2PP001: 2P*               -465.321607138 Ry
:2P 001: 2P                -429.924317493 Ry
:3S 001: 3S                -105.321925721 Ry
:3PP001: 3P*                -93.859426464 Ry
:3P 001: 3P                 -86.851784053 Ry
:3DD001: 3D*                -66.777569720 Ry
:3D 001: 3D                 -65.266129179 Ry
:4S 001: 4S                 -19.989671153 Ry
:4PP001: 4P*                -15.695481410 Ry
:4P 001: 4P                 -14.166711483 Ry
:4DD001: 4D*                 -7.096972570 Ry
:4D 001: 4D                  -6.827101193 Ry
:CINT001 Core Integral Atom   1   45.998490

       DENSITY AT NUCLEUS
        JATOM        VALENCE       SEMI-CORE          CORE           TOTAL
:RTO001:   1      643.438239        0.000000   656826.266963   657469.705202
     
       CHARGES OF NEW CHARGE DENSITY
:NTO   : INTERSTITIAL CHARGE =     6.402833
:NPC   : PW Pseudocharge     =    17.558309
:NTO001: CHARGE SPHERE  1    =    55.797071

:NEC01: NUCLEAR AND ELECTRONIC CHARGE    118.00000   117.99698
     
       CHARGES OF OLD CHARGE DENSITY
:OTO   : INTERSTITIAL CHARGE =     6.401040
:OPC   : PW Pseudocharge     =    17.537322
:OTO001: CHARGE SPHERE  1    =    55.799480

:NEC02: NUCLEAR AND ELECTRONIC CHARGE    118.00000   118.00000
     
       CONVERGENCE TEST
:DTO001: DIFFERENCE IN SPHERE  1 =  0.0055319

:DIS  :  CHARGE DISTANCE       ( 0.0055319 for atom    1 spin 1)      0.0055319
 PW Mixed is          316
 
******************************************************
* MULTISECANT MIXING VER9 RELEASE 10.4.0              *
* Slow Mode, cautious                                *
* Fixed density scale                                *
* Regularization       1.000E-04                     *
* Step Trust Radius    0.75000                       *
* Trust Upper Limit    2.000E+00                     *
* Max Number of Memory Steps   12                    *
******************************************************
 
:PWTMP   1.8960E+02  1.9467E+02  2.9153E+02
:PLANE:  PW TOTAL      6.0135 DISTAN   1.12E-02  1.86E-01 %
:CHARG:  CLM/ATOM   1381.9487 DISTAN   1.19E-02  8.64E-04 %
 
Step History
        DMIX         DMIXT        Red     Pred      Trust     Lambda    MagRel    MagAbs     Beta
  1   3.5000E-02   3.5000E-02 -1.00E+00  1.00E+00 -1.00E+01  1.00E+00  3.50E-02  3.50E-02  1.00E+00
  2   2.5000E-02   2.5000E-02  7.89E-01  1.00E+00 -1.00E+01  1.00E+00  2.50E-02  1.56E-03  1.00E+00
  3   2.0000E-02   2.0000E-02  3.40E-01  3.48E-01  5.81E-01  1.06E-02  2.68E-01  1.32E-02  1.00E+00
  4   1.6535E-02   1.6535E-02 -1.00E+00  1.00E+00  7.26E-01  1.00E+00  1.70E-02  2.84E-04  1.00E+00
:JACOBIANS    3.227E-01   2.559E-01
  
:NORMS:  1/Froebius, Min, Max, Used   0.4265E+00  0.3471E+00  0.8595E+00  0.4298E+00
:INFO :  Number of Memory Steps    3 Skipping    0
:INFO :  SLambda=    1.1991916784  Max    1.1991916784
:PREDicted Charge, CTotal, PW Trust    2.177E-03   4.355E-03   2.399E-02
:PREDicted DMix, Beta, BLim   8.1136E-01  2.5670E+01  9.9040E-01

Eigenvalues, unscaled except for SY+YY
   #     SY Real        SY Imag          SS             YY         SY+YY Real      SY+YY Imag
   1   1.407936E-08   0.000000E+00   4.366327E-01   2.455215E+00   2.932122E+00   0.000000E+00
   2   3.783619E-01   0.000000E+00   1.090327E-01   5.447848E-01   6.283278E-07   0.000000E+00
   3   4.814061E-01   0.000000E+00   4.291593E-10   6.093923E-07   1.098904E+00   0.000000E+00
 
:INFO :  Singular value  2.932E+00 Weight  1.000E+00 Projection -3.216E-03
:INFO :  Singular value  1.099E+00 Weight  1.000E+00 Projection -2.126E-02
:INFO :  Singular value  6.283E-07 Weight  6.549E-06 Projection  1.037E-05
:RANK :  ACTIVE   2.00/3  =  66.67 % ; YY RANK   2.00/3  =  66.67 %
 
:BLIM :  VZERO Control Off
:TRUST:  Step 8.22E-01  Charge 7.50E-02 (e) CTO  2.50E-01 (e) PW  3.50E-01 (e)
:DTRUS:  Lambda    1.963E-02 Increment    1.819E-12 Iterations    96 DMIX    3.905E-02
:INFOA:  Angle SubSpace to MSR1      0.17
:DIRM :  MEMORY  3/12 SCALE   1.000 RED  0.98 PRED  1.00 NEXT  0.29 
:INFO :  Limited by Atoms F by Step T

:TRAVE:  Charge 1.37E-03 (e) CTO  2.73E-03 (e) PW  1.72E-02 (e)
:DIRP :  |MSR1|= 1.095E-02 |PRATT|= 1.119E-02 ANGLE=   3.2 DEGREES
:DIRQ :  |MSR1|= 7.803E-03 |PRATT|= 1.194E-02 ANGLE=   7.6 DEGREES
:DIRT :  |MSR1|= 1.345E-02 |PRATT|= 1.636E-02 ANGLE=  12.6 DEGREES
:MIX  :   MSE1   REGULARIZATION:  2.46E-04 GREED: 0.04134  LMStep 0.94  0.8219 Step           
     
       CHARGES OF MIXED CHARGE DENSITY
:CTO   : INTERSTITIAL CHARGE =     6.405060
:CPC   : PW Pseudocharge     =    17.566966
:CTO001: CHARGE SPHERE  1    =    55.797470

:NEC03: NUCLEAR AND ELECTRONIC CHARGE    118.00000   118.00000

PW CHANGE     H    K    L      Current       Change    Residue
:PTO001:      0    0    0  8.22288932E-02  1.155E-04  1.170E-04
:PTO003:      0    2    0  1.88321549E-02  3.211E-05  3.156E-05
:PTO004:     -1    1    0  8.80624853E-02  1.650E-04  1.632E-04
:PTO005:      0    2   -1 -1.00400311E-01 -2.055E-04 -2.109E-04
:PTO006:      0    0   -2 -5.20782991E-02 -1.065E-04 -1.093E-04
:PTO007:     -1    1   -1 -1.03630886E-01 -2.059E-04 -2.051E-04
:PTO008:      0    2   -2 -1.41513304E-02 -3.207E-05 -3.273E-05
:PTO009:     -1    1   -2 -7.06469848E-02 -1.523E-04 -1.575E-04
:PTO011:     -1    3    0 -1.03551635E-02 -2.064E-05 -2.170E-05
:PTO012:     -1    3   -1 -4.17716886E-02 -9.293E-05 -1.053E-04
:PTO013:      0    4    0 -6.95409025E-03 -1.371E-05 -1.599E-05
:PTO014:      0    2   -3  1.62723194E-02  3.077E-05  3.576E-05

:ENE  : ********** TOTAL ENERGY IN Ry =       -36944.36570716

       TOTAL FORCE IN mRy/a.u. = |F|     Fx             Fy             Fz     with/without FOR in case.in2
:FOR001:   1.ATOM          6.939          0.000          0.000          6.939 partial forces
       TOTAL FORCE WITH RESPECT TO GLOBAL CARTESIAN COORDINATES:
:FCA001:   1.ATOM                         0.000          6.939          0.000 partial forces
       TOTAL FORCE WITH RESPECT TO THE GLOBAL COORDINATE SYSTEM:
:FGL001:   1.ATOM                 0.000000000     6.938973995     0.000000000 partial forces
 Flat Integration
 New Mode for Coulomb Integral
 Consistent 3/8+Simpson combinations
 Extension of core to zero
 LDM version in phi
 Fifth-order quadrature in outwin


            ---------
:ITE018: 18. ITERATION
            ---------

:NATO :    1 INDEPENDENT AND    2 TOTAL ATOMS IN UNITCELL
       SUBSTANCE: aU                                                          

       LATTICE                      = CXY 
:POT  : POTENTIAL OPTION EX_LDA EC_LDA VX_LDA VC_LDA
:LAT  : LATTICE CONSTANTS=  5.47380 11.10771  9.58952    1.571    1.571    1.571
:VOL  : UNIT CELL VOLUME =     291.52801
       MODE OF CALCULATION IS       = RELA
       NON-SPINPOLARIZED CALCULATION
:IFFT  : FFT-parameters:   48   90   80 Factor: 2.00


   CONVERGENCE PARAMETER FOR PSEUDOCHARGE: NCON=  9
   MAXIMAL VALUE OF RMT(JATOM)*ABSK(NKK) : RK  =27.59917


:VKCOUL :  VK-COUL convergence: 0.262E-06
       ATOMNUMBER=  1 Pr1        VCOUL-ZERO =  0.58654E+00
:EFG001:                        EFG         =    -9.00703   *10**21  V / m**2
                               V20  TOT/SRF=    -7.80032    -0.06627
                               V22  TOT/SRF=    -4.15608    -0.01178
                               V22M TOT/SRF=     0.00000     0.00000
                               V21  TOT/SRF=     0.00000     0.00000
                               V21M TOT/SRF=     0.00000     0.00000

              0.34743    0.00000    0.00000        0.34743    0.00000    0.00000
              0.00000    8.65959    0.00000        0.00000    8.65959    0.00000
              0.00000    0.00000   -9.00703        0.00000    0.00000   -9.00703

         MAIN DIRECTIONS OF THE EFG   1.0000  0.0000  0.0000
                                      0.0000  1.0000  0.0000
                                      0.0000  0.0000  1.0000
:ANG001:  ANGLE WITH OLD X-AXIS =         0.0

:ETA001:                         ASYMM. ETA =     0.92285


     HELLMANN-FEYNMAN-FORCE IN mRy/a.u. = |F|  Fx       Fy             Fz
:FHF001:   1.ATOM   1609.756032111660      0.000000000000      0.000000000000  -1609.756032111660

:FIT001: LUSE= 13 SIGMA OF V-XC FIT FOR ATOM  1  0.7597472E-04
:FIT001: LUSE= 13 SIGMA OF V-XC FIT FOR ATOM  1  0.7597472E-04
:DEN  : DENSITY INTEGRAL  =        -14207.68916958   (Ry)
       ELS_POTENTIAL_AT Z=0 and Z=0.5:   0.98895   0.98895
       ELS_POTENTIAL_AT Y=0 and Y=0.5:  -0.00070  -0.00070
:VZERO:v0,v0c,v0x   0.25994   0.98895  -0.72901 v5,v5c,v5x   0.25994   0.98895  -0.72901
:VZERY:v0,v0c,v0x  -0.95266  -0.00070  -0.95196 v5,v5c,v5x  -0.95266  -0.00070  -0.95196
:VZERX:v0,v0c,v0x  -1.28744  -0.39607  -0.89137 v5,v5c,v5x  -1.28744  -0.39607  -0.89137
:LMAX-WF:   10   Non-Spherical LMAX:   4

          ATOMIC SPHERE DEPENDENT PARAMETERS FOR ATOM  Pr1       
:e__0001: OVERALL ENERGY PARAMETER IS    0.9108
          OVERALL BASIS SET ON ATOM IS LAPW
:E0_0001: E( 0)=    0.9108
             APW+lo
:E0_0001: E( 0)=   -1.5137   E(BOTTOM)=   -2.153   E(TOP)=   -0.874  4  5   229
             LOCAL ORBITAL
:E1_0001: E( 1)=    1.3108
             APW+lo
:E1_0001: E( 1)=   -0.0452   E(BOTTOM)=   -1.008   E(TOP)=    0.918  3  4   236
             LOCAL ORBITAL
:E3_0001: E( 3)=    1.1284   E(BOTTOM)=    0.921   E(TOP)=    1.335  0  1   117
             APW+lo
:E2_0001: E( 2)=    0.9108   E(BOTTOM)=    0.727   E(TOP)= -200.000  2 -1   120
             APW+lo

       K=   0.06250   0.00000   0.06250            1
:RKM  : MATRIX SIZE   297LOs:  40  RKM= 8.46  WEIGHT= 4.00  PGR:    
       EIGENVALUES ARE:
:EIG00001:      -1.5504382   -1.4764208   -0.3619977   -0.1192207   -0.0623603
:EIG00006:      -0.0405115   -0.0174174   -0.0158615    0.9595656    0.9679892
:EIG00011:       1.0848028    1.0917548    1.0940913    1.1034230    1.1200310
:EIG00016:       1.1436130    1.1530615    1.1558591    1.1619424    1.1659070
:EIG00021:       1.1773490    1.1779204    1.1788442    1.2023024    1.2200017
:EIG00026:       1.2514420    1.3466063    1.3487354    1.4274097    1.4688930
:EIG00031:       1.5183101    1.6972360    1.7191009    1.7932909    2.0910493
:EIG00036:       2.1391661    2.1757394    2.3943700    2.4228656    2.5314401
:EIG00041:       2.7280358    2.7876004    2.9403505    2.9861380    3.1371580
:EIG00046:       3.1506619    3.1622706    3.3392829    3.3435256    3.4886737
 
:EIG00051:       3.5829746    3.7054742    3.7403961    3.8968856    3.9090018
:EIG00056:       3.9782596    4.0436212    4.2339492    4.2440874    4.3167360
:EIG00061:       4.3841651    4.4826829    4.5149293    4.5999976    4.6652459
:EIG00066:       4.7667087    4.7724393    4.8310806    4.9353544    4.9535405
:EIG00071:       5.0533416    5.0912982    5.1563224    5.2386174    5.2447992
:EIG00076:       5.2568622    5.3178062    5.3222277    5.3503384    5.4472103
:EIG00081:       5.4604818    5.4978847    5.5522910    5.5831830    5.6229133
:EIG00086:       5.6863691    5.8073914    5.8798103    5.9151335    5.9484427
:EIG00091:       6.0061803    6.0635437    6.0948872    6.1224848    6.1264878
:EIG00096:       6.2569649    6.2799123    6.2875916    6.3449942    6.4373891
 
:EIG00101:       6.4433367    6.5738527    6.6372727    6.6704341    6.6816195
:EIG00106:       6.8156576    6.8238827    6.8636544    6.9517248    7.1124192
:EIG00111:       7.1937880    7.2372522    7.2792701    7.3162555    7.4288087
:EIG00116:       7.5207208    7.5835892    7.6959526    7.6962035    7.7548203
:EIG00121:       7.8175575    7.8447298    7.8925667    8.0075549    8.0265707
:EIG00126:       8.0409924    8.1300728    8.2200353    8.2228080    8.2759887
:EIG00131:       8.2931082    8.3283467    8.3562122    8.5103188    8.5366847
:EIG00136:       8.5943917
       ********************************************************

:KPT   :      NUMBER OF K-POINTS:   288
   0.0   0.0 angle (M,z), angle (M,x) deg
 
        SPIN-ORBIT EIGENVALUES:
     K=   0.06250   0.00000   0.06250            1
      MATRIX SIZE=  272   WEIGHT= 4.00
     EIGENVALUES ARE:
          -1.5504402   -1.5504402   -1.4764225   -1.4764225   -0.3969724
          -0.3969724   -0.1990378   -0.1990378   -0.1324756   -0.1324756
           0.0188344    0.0188344    0.0235974    0.0235974    0.0481822
           0.0481822    0.9596426    0.9596426    0.9679450    0.9679450
           1.0831330    1.0831330    1.0897208    1.0897208    1.0922363
           1.0922363    1.1018896    1.1018896    1.1174503    1.1174503
           1.1367014    1.1367014    1.1475521    1.1475521    1.1569178
           1.1569178    1.1666858    1.1666858    1.1690868    1.1690868

           1.1774880    1.1774881    1.1799468    1.1799468    1.1835719
           1.1835719    1.2047860    1.2047860    1.2215464    1.2215464
           1.2517704    1.2517704    1.3414922    1.3414922    1.3538721
           1.3538721    1.4279375    1.4279375    1.4688356    1.4688356
           1.5186996    1.5186996    1.6974242    1.6974242    1.7192287
           1.7192287    1.7935043    1.7935043    2.0915100    2.0915100
           2.1392389    2.1392389    2.1757437    2.1757437    2.3942228
           2.3942228    2.4227257    2.4227257    2.5308404    2.5308404

           2.7283156    2.7283156    2.7871605    2.7871605    2.9402119
           2.9402119    2.9857692    2.9857692    3.1371241    3.1371241
           3.1500373    3.1500373    3.1625801    3.1625801    3.3345279
           3.3345279    3.3483066    3.3483066    3.4889484    3.4889484
           3.5826064    3.5826064    3.7031433    3.7031433    3.7412267
           3.7412267    3.8966880    3.8966880    3.9084371    3.9084371
           3.9787457    3.9787457    4.0413312    4.0413312    4.2354593
           4.2354593    4.2447688    4.2447688    4.3166776    4.3166776

           4.3857882    4.3857882    4.4821693    4.4821693
       ********************************************************
:GAP (global)   :    0.0    Ry =     0.0   eV (metal)
:GAP (this spin):    0.0    Ry =     0.0   eV (metal)
         Bandranges (emin - emax) and occupancy:
:BAN00020:  20    0.930341    1.066262  1.00000000
:BAN00021:  21    0.971352    1.109659  1.00000000
:BAN00022:  22    0.971352    1.109659  1.00000000
:BAN00023:  23    1.036828    1.115910  0.98662438
:BAN00024:  24    1.036828    1.115910  0.98662438
:BAN00025:  25    1.066167    1.133922  0.65031254
:BAN00026:  26    1.066167    1.133922  0.65031250
:BAN00027:  27    1.091988    1.141318  0.35810084
:BAN00028:  28    1.091988    1.141318  0.35810078
:BAN00029:  29    1.108110    1.144850  0.00496228
:BAN00030:  30    1.108110    1.144850  0.00496228
:BAN00031:  31    1.118483    1.153025  0.00000000
:BAN00032:  32    1.118483    1.153025  0.00000000
:BAN00033:  33    1.139274    1.162814  0.00000000
:BAN00034:  34    1.139274    1.162814  0.00000000
:BAN00035:  35    1.144459    1.169750  0.00000000
        Energy to separate low and high energystates:    0.83090


:NOE  : NUMBER OF ELECTRONS          =   26.000

:FER  : F E R M I - ENERGY(TETRAH.M.)=   1.1117414277
:GMA  : POTENTIAL AND CHARGE CUT-OFF  12.00 Ry**.5

:POS001: ATOM   -1 X,Y,Z = 0.00000 0.89750 0.25000  MULT= 2  ZZ= 59.000  Pr1       

       LMMAX 16
       LM=   0 0  1 0  2 0  2 2  3 0  3 2  4 0  4 2  4 4  5 0  5 2  5 4  6 0  6 2  6 4  6 6

:CHA001: TOTAL VALENCE CHARGE INSIDE SPHERE   1 =   9.7982    (RMT=  2.3000 )
:PCS001: PARTIAL CHARGES SPHERE =  1 S,P,D,F,PX,PY,PZ,D-Z2,D-X2Y2,D-XY,D-XZ,D-YZ 
:QTL001: 1.9331 4.9637 0.8469 2.0516 1.6545 1.6495 1.6598 0.1654 0.1507 0.1736 0.1752 0.1820
        Q-s-low E-s-low   Q-p-low E-p-low   Q-d-low E-d-low   Q-f-low E-f-low
:EPL001:  1.8691 -1.4700    4.8774 -0.1711    0.0204 -0.1937    0.0065 -0.2032
        Q-s-hi  E-s-hi    Q-p-hi  E-p-hi    Q-d-hi  E-d-hi    Q-f-hi  E-f-hi 
:EPH001:  0.0641  1.0238    0.0863  1.0418    0.8265  1.0188    2.0452  1.0775

                      VXX         VYY         VZZ       UP TO R
:VZZ001:             0.25168     8.68511    -8.93679       2.300

:CHA  : TOTAL VALENCE CHARGE INSIDE UNIT CELL =      26.000000

:SUM  : SUM OF EIGENVALUES =           2.444212850


        1.ATOM      Pr1                  14 CORE STATES
       CORE-FORCE in mRy/a.u. = |F|      Fx             Fy             Fz
:FCO001:   1.ATOM   1615.177600045168      0.000000000000      0.000000000000   1615.177600045168

:1S 001: 1S               -3066.470267187 Ry
:2S 001: 2S                -492.222936518 Ry
:2PP001: 2P*               -465.321529231 Ry
:2P 001: 2P                -429.924211551 Ry
:3S 001: 3S                -105.321157696 Ry
:3PP001: 3P*                -93.858690467 Ry
:3P 001: 3P                 -86.851018904 Ry
:3DD001: 3D*                -66.776887855 Ry
:3D 001: 3D                 -65.265436316 Ry
:4S 001: 4S                 -19.988656666 Ry
:4PP001: 4P*                -15.694479973 Ry
:4P 001: 4P                 -14.165720040 Ry
:4DD001: 4D*                 -7.096016689 Ry
:4D 001: 4D                  -6.826149764 Ry
:CINT001 Core Integral Atom   1   45.998489

       DENSITY AT NUCLEUS
        JATOM        VALENCE       SEMI-CORE          CORE           TOTAL
:RTO001:   1      643.435884        0.000000   656826.371655   657469.807538
     
       CHARGES OF NEW CHARGE DENSITY
:NTO   : INTERSTITIAL CHARGE =     6.403643
:NPC   : PW Pseudocharge     =    17.559769
:NTO001: CHARGE SPHERE  1    =    55.796666

:NEC01: NUCLEAR AND ELECTRONIC CHARGE    118.00000   117.99697
     
       CHARGES OF OLD CHARGE DENSITY
:OTO   : INTERSTITIAL CHARGE =     6.405060
:OPC   : PW Pseudocharge     =    17.566966
:OTO001: CHARGE SPHERE  1    =    55.797470

:NEC02: NUCLEAR AND ELECTRONIC CHARGE    118.00000   118.00000
     
       CONVERGENCE TEST
:DTO001: DIFFERENCE IN SPHERE  1 =  0.0011692

:DIS  :  CHARGE DISTANCE       ( 0.0011692 for atom    1 spin 1)      0.0011692
 PW Mixed is          316
 
******************************************************
* MULTISECANT MIXING VER9 RELEASE 10.4.0              *
* Standard Mode with controls                        *
* Fixed density scale                                *
* Regularization       1.000E-04                     *
* Trust Upper Limit    5.000E+00                     *
* Max Number of Memory Steps    8                    *
******************************************************
 
:PWTMP   1.8960E+02  1.9467E+02  2.9153E+02
:PLANE:  PW TOTAL      6.0240 DISTAN   9.97E-04  1.66E-02 %
:CHARG:  CLM/ATOM   1381.9470 DISTAN   4.19E-03  3.03E-04 %
 
Step History
        DMIX         DMIXT        Red     Pred      Trust     Lambda    MagRel    MagAbs     Beta
  1   3.5000E-02   3.5000E-02 -1.00E+00  1.00E+00 -1.00E+01  1.00E+00  3.50E-02  3.50E-02  1.00E+00
  2   2.5000E-02   2.5000E-02  7.89E-01  1.00E+00 -1.00E+01  1.00E+00  2.50E-02  1.56E-03  1.00E+00
  3   2.0000E-02   2.0000E-02  3.40E-01  3.48E-01  5.81E-01  1.06E-02  2.68E-01  1.32E-02  1.00E+00
  4   1.6535E-02   1.6535E-02  9.79E-01  1.00E+00  7.26E-01  1.20E+00  1.70E-02  2.84E-04  1.00E+00
  5   4.1338E-02   3.9053E-02 -1.00E+00  2.92E-01  8.22E-01  1.00E+00  8.22E-01  1.34E-02  1.00E+00
:JACOBIANS    4.568E-01   3.483E-01
  
:NORMS:  1/Froebius, Min, Max, Used   0.6442E+00  0.3680E+00  0.9950E+00  0.7796E+00
:INFO :  Number of Memory Steps    4 Skipping    0
:INFO :  SLambda=    0.4377837661  Max    0.4377837661
:PREDicted Charge, CTotal, PW Trust    2.134E-03   4.269E-03   2.332E-02
:PREDicted DMix, Beta, BLim   2.5000E-02  1.0593E+00  1.6750E+00

Eigenvalues, unscaled except for SY+YY
   #     SY Real        SY Imag          SS             YY         SY+YY Real      SY+YY Imag
   1   1.701947E+00   0.000000E+00   1.574564E+00   2.590912E+00   3.177971E+00   0.000000E+00
   2   2.984309E-01   0.000000E+00   8.553803E-02   1.409087E+00   1.697761E+00   0.000000E+00
   3   8.671480E-09   0.000000E+00   4.218450E-08   7.826484E-07   8.298141E-07   0.000000E+00
   4   1.318135E-07   0.000000E+00   2.107200E-10   2.138780E-07   2.390048E-07   0.000000E+00
 
:INFO :  Singular value  3.178E+00 Weight  1.000E+00 Projection -4.418E-04
:INFO :  Singular value  1.698E+00 Weight  1.000E+00 Projection -5.818E-04
:INFO :  Singular value  8.300E-07 Weight  1.026E-05 Projection -3.132E-05
:INFO :  Singular value  2.390E-07 Weight  8.506E-07 Projection -5.626E-06
:RANK :  ACTIVE   2.00/4  =  50.00 % ; YY RANK   2.00/4  =  50.00 %
 
:BLIM :  VZERO Control Off
:TRUST:  Step 1.21E+00  Charge 7.50E-02 (e) CTO  2.50E-01 (e) PW  3.50E-01 (e)
:DIRM :  MEMORY  4/8  SCALE   1.000 RED  0.26 PRED  0.29 NEXT  0.99 
:TRAVE:  Charge 7.55E-04 (e) CTO  1.51E-03 (e) PW  9.32E-03 (e)
:DIRP :  |MSR1|= 7.127E-04 |PRATT|= 9.974E-04 ANGLE=  50.0 DEGREES
:DIRQ :  |MSR1|= 4.862E-04 |PRATT|= 4.188E-03 ANGLE=  50.2 DEGREES
:DIRT :  |MSR1|= 8.628E-04 |PRATT|= 4.306E-03 ANGLE=  61.7 DEGREES
:MIX  :   MSD1   REGULARIZATION:  2.59E-04 GREED: 0.02803  Newton 1.00  0.2004                
     
       CHARGES OF MIXED CHARGE DENSITY
:CTO   : INTERSTITIAL CHARGE =     6.405345
:CPC   : PW Pseudocharge     =    17.568895
:CTO001: CHARGE SPHERE  1    =    55.797327

:NEC03: NUCLEAR AND ELECTRONIC CHARGE    118.00000   118.00000

PW CHANGE     H    K    L      Current       Change    Residue
:PTO001:      0    0    0  8.22364897E-02  7.597E-06  9.288E-06
:PTO003:      0    2    0  1.88344978E-02  2.343E-06  9.744E-06
:PTO004:     -1    1    0  8.80734960E-02  1.101E-05  1.552E-05
:PTO005:      0    2   -1 -1.00413517E-01 -1.321E-05 -6.892E-06
:PTO006:      0    0   -2 -5.20850946E-02 -6.796E-06 -1.954E-06
:PTO007:     -1    1   -1 -1.03644106E-01 -1.322E-05 -2.318E-06
:PTO008:      0    2   -2 -1.41534191E-02 -2.089E-06 -1.930E-06
:PTO009:     -1    1   -2 -7.06566459E-02 -9.661E-06 -1.478E-06
:PTO011:     -1    3    0 -1.03563849E-02 -1.221E-06  2.555E-06
:PTO012:     -1    3   -1 -4.17777769E-02 -6.088E-06 -1.397E-05
:PTO013:      0    4    0 -6.95495959E-03 -8.693E-07 -1.381E-06
:PTO014:      0    2   -3  1.62742957E-02  1.976E-06  3.890E-06

:ENE  : ********** TOTAL ENERGY IN Ry =       -36944.36570095

       TOTAL FORCE IN mRy/a.u. = |F|     Fx             Fy             Fz     with/without FOR in case.in2
:FOR001:   1.ATOM          5.422          0.000          0.000          5.422 partial forces
       TOTAL FORCE WITH RESPECT TO GLOBAL CARTESIAN COORDINATES:
:FCA001:   1.ATOM                         0.000          5.422          0.000 partial forces
       TOTAL FORCE WITH RESPECT TO THE GLOBAL COORDINATE SYSTEM:
:FGL001:   1.ATOM                 0.000000000     5.421567934     0.000000000 partial forces
 Flat Integration
 New Mode for Coulomb Integral
 Consistent 3/8+Simpson combinations
 Extension of core to zero
 LDM version in phi
 Fifth-order quadrature in outwin


            ---------
:ITE019: 19. ITERATION
            ---------

:NATO :    1 INDEPENDENT AND    2 TOTAL ATOMS IN UNITCELL
       SUBSTANCE: aU                                                          

       LATTICE                      = CXY 
:POT  : POTENTIAL OPTION EX_LDA EC_LDA VX_LDA VC_LDA
:LAT  : LATTICE CONSTANTS=  5.47380 11.10771  9.58952    1.571    1.571    1.571
:VOL  : UNIT CELL VOLUME =     291.52801
[...]
:INFO :  Singular value  1.730E-08 Weight  2.923E-09 Projection -8.738E-10
:INFO :  Singular value  4.249E-09 Weight  1.764E-10 Projection  1.246E-10
:RANK :  ACTIVE   5.00/9  =  55.56 % ; YY RANK   5.00/9  =  55.56 %
 
:BLIM :  VZERO Control Off
:TRUST:  Step 2.62E+00  Charge 2.16E-02 (e) CTO  7.20E-02 (e) PW  1.01E-01 (e)
:DIRM :  MEMORY  9/12 SCALE   1.000 RED  0.94 PRED  1.00 NEXT  0.40 
:TRAVE:  Charge 6.49E-05 (e) CTO  1.30E-04 (e) PW  4.65E-04 (e)
:DIRP :  |MSR1|= 3.693E-05 |PRATT|= 7.993E-05 ANGLE=  12.9 DEGREES
:DIRQ :  |MSR1|= 1.290E-04 |PRATT|= 2.539E-04 ANGLE=  14.3 DEGREES
:DIRT :  |MSR1|= 1.342E-04 |PRATT|= 2.662E-04 ANGLE=  14.3 DEGREES
:MIX  :   MSE1   REGULARIZATION:  3.20E-04 GREED: 0.07229  Newton 1.00  0.5040                
     
       CHARGES OF MIXED CHARGE DENSITY
:CTO   : INTERSTITIAL CHARGE =     6.406485
:CPC   : PW Pseudocharge     =    17.567986
:CTO001: CHARGE SPHERE  1    =    55.796757

:NEC03: NUCLEAR AND ELECTRONIC CHARGE    118.00000   118.00000

PW CHANGE     H    K    L      Current       Change    Residue
:PTO001:      0    0    0  8.22372807E-02  1.591E-07  2.569E-07
:PTO003:      0    2    0  1.88378872E-02 -4.349E-07 -1.113E-06
:PTO004:     -1    1    0  8.80734944E-02  3.808E-07  7.627E-07
:PTO005:      0    2   -1 -1.00410581E-01 -6.557E-07 -1.428E-06
:PTO006:      0    0   -2 -5.20825191E-02 -3.575E-07 -8.222E-07
:PTO007:     -1    1   -1 -1.03633904E-01 -8.501E-07 -2.152E-06
:PTO008:      0    2   -2 -1.41525313E-02  1.854E-07  4.021E-07
:PTO009:     -1    1   -2 -7.06474144E-02  2.106E-07  7.633E-08
:PTO011:     -1    3    0 -1.03541448E-02 -1.250E-07 -3.497E-07
:PTO012:     -1    3   -1 -4.17835810E-02  1.352E-07  3.648E-07
:PTO013:      0    4    0 -6.95596074E-03 -4.191E-08 -6.939E-08
:PTO014:      0    2   -3  1.62783396E-02  2.195E-07  3.360E-07

:ENE  : ********** TOTAL ENERGY IN Ry =       -36944.36570191

       TOTAL FORCE IN mRy/a.u. = |F|     Fx             Fy             Fz     with/without FOR in case.in2
:FOR001:   1.ATOM          6.116          0.000          0.000          6.116 partial forces
       TOTAL FORCE WITH RESPECT TO GLOBAL CARTESIAN COORDINATES:
:FCA001:   1.ATOM                         0.000          6.116          0.000 partial forces
       TOTAL FORCE WITH RESPECT TO THE GLOBAL COORDINATE SYSTEM:
:FGL001:   1.ATOM                 0.000000000     6.116009374     0.000000000 partial forces
 Flat Integration
 New Mode for Coulomb Integral
 Consistent 3/8+Simpson combinations
 Extension of core to zero
 LDM version in phi
 Fifth-order quadrature in outwin


            ---------
:ITE024: 24. ITERATION
            ---------

:NATO :    1 INDEPENDENT AND    2 TOTAL ATOMS IN UNITCELL
       SUBSTANCE: aU                                                          

       LATTICE                      = CXY 
:POT  : POTENTIAL OPTION EX_LDA EC_LDA VX_LDA VC_LDA
:LAT  : LATTICE CONSTANTS=  5.47380 11.10771  9.58952    1.571    1.571    1.571
:VOL  : UNIT CELL VOLUME =     291.52801
       MODE OF CALCULATION IS       = RELA
       NON-SPINPOLARIZED CALCULATION
:IFFT  : FFT-parameters:   48   90   80 Factor: 2.00


   CONVERGENCE PARAMETER FOR PSEUDOCHARGE: NCON=  9
   MAXIMAL VALUE OF RMT(JATOM)*ABSK(NKK) : RK  =27.59917


:VKCOUL :  VK-COUL convergence: 0.261E-06
       ATOMNUMBER=  1 Pr1        VCOUL-ZERO =  0.58660E+00
:EFG001:                        EFG         =    -9.00678   *10**21  V / m**2
                               V20  TOT/SRF=    -7.80010    -0.06618
                               V22  TOT/SRF=    -4.16285    -0.01189
                               V22M TOT/SRF=     0.00000     0.00000
                               V21  TOT/SRF=     0.00000     0.00000
                               V21M TOT/SRF=     0.00000     0.00000

              0.34054    0.00000    0.00000        0.34054    0.00000    0.00000
              0.00000    8.66624    0.00000        0.00000    8.66624    0.00000
              0.00000    0.00000   -9.00678        0.00000    0.00000   -9.00678

         MAIN DIRECTIONS OF THE EFG   1.0000  0.0000  0.0000
                                      0.0000  1.0000  0.0000
                                      0.0000  0.0000  1.0000
:ANG001:  ANGLE WITH OLD X-AXIS =         0.0

:ETA001:                         ASYMM. ETA =     0.92438


     HELLMANN-FEYNMAN-FORCE IN mRy/a.u. = |F|  Fx       Fy             Fz
:FHF001:   1.ATOM   1604.855516735872      0.000000000000      0.000000000000  -1604.855516735872

:FIT001: LUSE= 13 SIGMA OF V-XC FIT FOR ATOM  1  0.7617557E-04
:FIT001: LUSE= 13 SIGMA OF V-XC FIT FOR ATOM  1  0.7617557E-04
:DEN  : DENSITY INTEGRAL  =        -14207.68447394   (Ry)
       ELS_POTENTIAL_AT Z=0 and Z=0.5:   0.98908   0.98908
       ELS_POTENTIAL_AT Y=0 and Y=0.5:  -0.00063  -0.00063
:VZERO:v0,v0c,v0x   0.26002   0.98908  -0.72906 v5,v5c,v5x   0.26002   0.98908  -0.72906
:VZERY:v0,v0c,v0x  -0.95265  -0.00063  -0.95201 v5,v5c,v5x  -0.95265  -0.00063  -0.95201
:VZERX:v0,v0c,v0x  -1.28749  -0.39607  -0.89143 v5,v5c,v5x  -1.28749  -0.39607  -0.89143
:LMAX-WF:   10   Non-Spherical LMAX:   4

          ATOMIC SPHERE DEPENDENT PARAMETERS FOR ATOM  Pr1       
:e__0001: OVERALL ENERGY PARAMETER IS    0.9118
          OVERALL BASIS SET ON ATOM IS LAPW
:E0_0001: E( 0)=    0.9118
             APW+lo
:E0_0001: E( 0)=   -1.5137   E(BOTTOM)=   -2.153   E(TOP)=   -0.874  4  5   232
             LOCAL ORBITAL
:E1_0001: E( 1)=    1.3118
             APW+lo
:E1_0001: E( 1)=   -0.0452   E(BOTTOM)=   -1.008   E(TOP)=    0.918  3  4   235
             LOCAL ORBITAL
:E3_0001: E( 3)=    1.1284   E(BOTTOM)=    0.921   E(TOP)=    1.335  0  1   121
             APW+lo
:E2_0001: E( 2)=    0.9118   E(BOTTOM)=    0.727   E(TOP)= -200.000  2 -1   123
             APW+lo

       K=   0.06250   0.00000   0.06250            1
:RKM  : MATRIX SIZE   297LOs:  40  RKM= 8.46  WEIGHT= 4.00  PGR:    
       EIGENVALUES ARE:
:EIG00001:      -1.5504213   -1.4764111   -0.3619352   -0.1191990   -0.0623375
:EIG00006:      -0.0405349   -0.0173719   -0.0158907    0.9596238    0.9680440
:EIG00011:       1.0848226    1.0917525    1.0941827    1.1034670    1.1201060
:EIG00016:       1.1436369    1.1531055    1.1558950    1.1619817    1.1659669
:EIG00021:       1.1773640    1.1779327    1.1788921    1.2023783    1.2200022
:EIG00026:       1.2514550    1.3466527    1.3488001    1.4274369    1.4689154
:EIG00031:       1.5183551    1.6972726    1.7191600    1.7933450    2.0911038
:EIG00036:       2.1392197    2.1758053    2.3944189    2.4229186    2.5315027
:EIG00041:       2.7281011    2.7876566    2.9403837    2.9861956    3.1371948
:EIG00046:       3.1507268    3.1623144    3.3393425    3.3435695    3.4887113
 
:EIG00051:       3.5829928    3.7054965    3.7404590    3.8969028    3.9090235
:EIG00056:       3.9782882    4.0436605    4.2339726    4.2440650    4.3167681
:EIG00061:       4.3842112    4.4827167    4.5149633    4.6000201    4.6652214
:EIG00066:       4.7667583    4.7724683    4.8311025    4.9353677    4.9535706
:EIG00071:       5.0533532    5.0913296    5.1563527    5.2386499    5.2448277
:EIG00076:       5.2568982    5.3178504    5.3222461    5.3503643    5.4472570
:EIG00081:       5.4605042    5.4979150    5.5523263    5.5832270    5.6229341
:EIG00086:       5.6864210    5.8074417    5.8798246    5.9151698    5.9484623
:EIG00091:       6.0062119    6.0635900    6.0948730    6.1225126    6.1264599
:EIG00096:       6.2570085    6.2799531    6.2876164    6.3450128    6.4374184
 
:EIG00101:       6.4433469    6.5738860    6.6373010    6.6704657    6.6816556
:EIG00106:       6.8156874    6.8239408    6.8636785    6.9517543    7.1124520
:EIG00111:       7.1937867    7.2372778    7.2792941    7.3162865    7.4287931
:EIG00116:       7.5207761    7.5835414    7.6959321    7.6961644    7.7547936
:EIG00121:       7.8175516    7.8447103    7.8925807    8.0075680    8.0265876
:EIG00126:       8.0410122    8.1300874    8.2200496    8.2228280    8.2760317
:EIG00131:       8.2931220    8.3283790    8.3562174    8.5103529    8.5366928
:EIG00136:       8.5944084
       ********************************************************

:KPT   :      NUMBER OF K-POINTS:   288
   0.0   0.0 angle (M,z), angle (M,x) deg
 
        SPIN-ORBIT EIGENVALUES:
     K=   0.06250   0.00000   0.06250            1
      MATRIX SIZE=  272   WEIGHT= 4.00
     EIGENVALUES ARE:
          -1.5504232   -1.5504232   -1.4764128   -1.4764128   -0.3969181
          -0.3969181   -0.1990247   -0.1990247   -0.1324573   -0.1324573
           0.0188317    0.0188317    0.0235885    0.0235885    0.0482078
           0.0482078    0.9597008    0.9597008    0.9679997    0.9679997
           1.0831525    1.0831525    1.0897221    1.0897221    1.0923237
           1.0923237    1.1019337    1.1019337    1.1175242    1.1175242
           1.1367341    1.1367341    1.1475916    1.1475916    1.1569518
           1.1569518    1.1667246    1.1667246    1.1691383    1.1691383

           1.1775123    1.1775123    1.1799646    1.1799646    1.1836145
           1.1836145    1.2048599    1.2048599    1.2215469    1.2215469
           1.2517836    1.2517836    1.3415452    1.3415452    1.3539300
           1.3539300    1.4279650    1.4279650    1.4688581    1.4688581
           1.5187444    1.5187444    1.6974608    1.6974608    1.7192876
           1.7192876    1.7935584    1.7935584    2.0915645    2.0915645
           2.1392925    2.1392925    2.1758095    2.1758095    2.3942717
           2.3942717    2.4227786    2.4227786    2.5309030    2.5309030

           2.7283807    2.7283807    2.7872167    2.7872167    2.9402455
           2.9402455    2.9858264    2.9858264    3.1371612    3.1371612
           3.1501018    3.1501018    3.1626237    3.1626237    3.3345829
           3.3345829    3.3483549    3.3483549    3.4889861    3.4889861
           3.5826249    3.5826249    3.7031669    3.7031669    3.7412878
           3.7412878    3.8967051    3.8967051    3.9084588    3.9084588
           3.9787747    3.9787747    4.0413702    4.0413702    4.2354813
           4.2354813    4.2447489    4.2447489    4.3167095    4.3167095

           4.3858336    4.3858336    4.4822027    4.4822027
       ********************************************************
:GAP (global)   :    0.0    Ry =     0.0   eV (metal)
:GAP (this spin):    0.0    Ry =     0.0   eV (metal)
         Bandranges (emin - emax) and occupancy:
:BAN00020:  20    0.930388    1.066324  1.00000000
:BAN00021:  21    0.971395    1.109712  1.00000000
:BAN00022:  22    0.971395    1.109712  1.00000000
:BAN00023:  23    1.036859    1.115947  0.98663375
:BAN00024:  24    1.036859    1.115947  0.98663374
:BAN00025:  25    1.066191    1.133968  0.65022021
:BAN00026:  26    1.066191    1.133968  0.65022017
:BAN00027:  27    1.092008    1.141353  0.35821332
:BAN00028:  28    1.092008    1.141353  0.35821327
:BAN00029:  29    1.108175    1.144876  0.00493277
:BAN00030:  30    1.108175    1.144876  0.00493277
:BAN00031:  31    1.118536    1.153063  0.00000000
:BAN00032:  32    1.118536    1.153063  0.00000000
:BAN00033:  33    1.139320    1.162855  0.00000000
:BAN00034:  34    1.139320    1.162855  0.00000000
:BAN00035:  35    1.144521    1.169807  0.00000000
        Energy to separate low and high energystates:    0.83095


:NOE  : NUMBER OF ELECTRONS          =   26.000

:FER  : F E R M I - ENERGY(TETRAH.M.)=   1.1117828307
:GMA  : POTENTIAL AND CHARGE CUT-OFF  12.00 Ry**.5

:POS001: ATOM   -1 X,Y,Z = 0.00000 0.89750 0.25000  MULT= 2  ZZ= 59.000  Pr1       

       LMMAX 16
       LM=   0 0  1 0  2 0  2 2  3 0  3 2  4 0  4 2  4 4  5 0  5 2  5 4  6 0  6 2  6 4  6 6

:CHA001: TOTAL VALENCE CHARGE INSIDE SPHERE   1 =   9.7983    (RMT=  2.3000 )
:PCS001: PARTIAL CHARGES SPHERE =  1 S,P,D,F,PX,PY,PZ,D-Z2,D-X2Y2,D-XY,D-XZ,D-YZ 
:QTL001: 1.9331 4.9638 0.8469 2.0517 1.6545 1.6495 1.6598 0.1654 0.1507 0.1736 0.1752 0.1820
        Q-s-low E-s-low   Q-p-low E-p-low   Q-d-low E-d-low   Q-f-low E-f-low
:EPL001:  1.8691 -1.4699    4.8774 -0.1711    0.0204 -0.1936    0.0065 -0.2031
        Q-s-hi  E-s-hi    Q-p-hi  E-p-hi    Q-d-hi  E-d-hi    Q-f-hi  E-f-hi 
:EPH001:  0.0641  1.0238    0.0863  1.0419    0.8265  1.0188    2.0452  1.0776

                      VXX         VYY         VZZ       UP TO R
:VZZ001:             0.29907     8.62038    -8.91945       2.300

:CHA  : TOTAL VALENCE CHARGE INSIDE UNIT CELL =      26.000000

:SUM  : SUM OF EIGENVALUES =           2.444969916


        1.ATOM      Pr1                  14 CORE STATES
       CORE-FORCE in mRy/a.u. = |F|      Fx             Fy             Fz
:FCO001:   1.ATOM   1610.813514739826      0.000000000000      0.000000000000   1610.813514739826

:1S 001: 1S               -3066.470480332 Ry
:2S 001: 2S                -492.223120711 Ry
:2PP001: 2P*               -465.321721370 Ry
:2P 001: 2P                -429.924400732 Ry
:3S 001: 3S                -105.321237874 Ry
:3PP001: 3P*                -93.858776651 Ry
:3P 001: 3P                 -86.851098538 Ry
:3DD001: 3D*                -66.776985676 Ry
:3D 001: 3D                 -65.265531935 Ry
:4S 001: 4S                 -19.988612621 Ry
:4PP001: 4P*                -15.694435663 Ry
:4P 001: 4P                 -14.165672498 Ry
:4DD001: 4D*                 -7.095971161 Ry
:4D 001: 4D                  -6.826103739 Ry
:CINT001 Core Integral Atom   1   45.998489

       DENSITY AT NUCLEUS
        JATOM        VALENCE       SEMI-CORE          CORE           TOTAL
:RTO001:   1      643.434174        0.000000   656826.398215   657469.832389
     
       CHARGES OF NEW CHARGE DENSITY
:NTO   : INTERSTITIAL CHARGE =     6.403442
:NPC   : PW Pseudocharge     =    17.559758
:NTO001: CHARGE SPHERE  1    =    55.796767

:NEC01: NUCLEAR AND ELECTRONIC CHARGE    118.00000   117.99697
     
       CHARGES OF OLD CHARGE DENSITY
:OTO   : INTERSTITIAL CHARGE =     6.406485
:OPC   : PW Pseudocharge     =    17.567986
:OTO001: CHARGE SPHERE  1    =    55.796757

:NEC02: NUCLEAR AND ELECTRONIC CHARGE    118.00000   118.00000
     
       CONVERGENCE TEST
:DTO001: DIFFERENCE IN SPHERE  1 =  0.0000400

:DIS  :  CHARGE DISTANCE       ( 0.0000400 for atom    1 spin 1)      0.0000400
 PW Mixed is          316
 
******************************************************
* MULTISECANT MIXING VER9 RELEASE 10.4.0              *
* Standard Mode with controls                        *
* Fixed density scale                                *
* Regularization       1.000E-04                     *
* Trust Upper Limit    5.000E+00                     *
* Max Number of Memory Steps    8                    *
******************************************************
 
:PWTMP   1.8960E+02  1.9467E+02  2.9153E+02
:PLANE:  PW TOTAL      6.0246 DISTAN   2.73E-05  4.53E-04 %
:CHARG:  CLM/ATOM   1381.9468 DISTAN   8.25E-05  5.97E-06 %
 
Step History
        DMIX         DMIXT        Red     Pred      Trust     Lambda    MagRel    MagAbs     Beta
  3   2.0000E-02   2.0000E-02  3.40E-01  3.48E-01  5.81E-01  1.06E-02  2.68E-01  1.32E-02  1.00E+00
  4   1.6535E-02   1.6535E-02  9.79E-01  1.00E+00  7.26E-01  1.20E+00  1.70E-02  2.84E-04  1.00E+00
  5   4.1338E-02   3.9053E-02  2.63E-01  2.92E-01  8.22E-01  4.38E-01  8.22E-01  1.34E-02  1.00E+00
  6   2.8026E-02   2.8026E-02  9.17E-01  9.89E-01  1.21E+00  8.00E-01  2.00E-01  8.63E-04  1.00E+00
  7   7.0066E-02   7.0066E-02  3.68E-01  4.13E-01  1.32E+00  3.39E-01  4.22E-01  1.67E-03  1.00E+00
  8   2.8916E-02   2.8916E-02  9.57E-01  9.98E-01  1.75E+00  7.58E-01  5.98E-02  8.68E-05  1.00E+00
  9   7.2290E-02   7.2290E-02  2.05E-01  2.47E-01  1.83E+00  7.25E-01  8.87E-01  1.23E-03  1.00E+00
 10   2.8916E-02   2.8916E-02  9.35E-01  9.95E-01  2.45E+00  1.09E+00  7.30E-02  2.08E-05  1.00E+00
 11   7.2290E-02   7.2290E-02 -1.00E+00  3.96E-01  2.62E+00  1.00E+00  5.04E-01  1.34E-04  1.00E+00
:JACOBIANS    8.789E-01   1.722E+00
  
:NORMS:  1/Froebius, Min, Max, Used   0.7950E+00  0.4327E+00  0.9871E+00  0.9608E+00
:INFO :  Number of Memory Steps    8 Skipping    2
:INFO :  SLambda=    0.1989414493  Max    0.1989414493
:PREDicted Charge, CTotal, PW Trust    2.017E-06   4.035E-06   2.773E-05
:PREDicted DMix, Beta, BLim   2.4879E-02  9.9517E-01  6.1311E-01

Eigenvalues, unscaled except for SY+YY
   #     SY Real        SY Imag          SS             YY         SY+YY Real      SY+YY Imag
   1   2.908394E+00   0.000000E+00   2.836472E+00   3.072843E+00   3.647051E+00   0.000000E+00
   2   1.732453E+00   0.000000E+00   1.644736E+00   2.125745E+00   2.416811E+00   0.000000E+00
   3   8.399050E-01   0.000000E+00   4.813703E-01   1.645600E+00   1.865353E+00   0.000000E+00
   4   3.310942E-01   0.000000E+00   9.379206E-02   1.145773E+00   1.216904E+00   0.000000E+00
   5   1.354495E-03   0.000000E+00   2.006076E-04   1.003509E-02   1.036301E-02   0.000000E+00
   6   1.778530E-06   0.000000E+00   7.027440E-07   3.864889E-06   4.296713E-06   0.000000E+00
   7   8.117013E-11   0.000000E+00   6.605635E-10   7.231438E-08   1.969212E-09   0.000000E+00
   8   6.482985E-09   0.000000E+00   8.533501E-12   1.950125E-09   7.309319E-08   0.000000E+00
 
:INFO :  Singular value  3.647E+00 Weight  1.000E+00 Projection  7.787E-08
:INFO :  Singular value  2.417E+00 Weight  1.000E+00 Projection -3.206E-06
:INFO :  Singular value  1.865E+00 Weight  1.000E+00 Projection -1.098E-06
:INFO :  Singular value  1.217E+00 Weight  1.000E+00 Projection  1.608E-06
:INFO :  Singular value  1.036E-02 Weight  9.991E-01 Projection -3.554E-05
:INFO :  Singular value  4.297E-06 Weight  1.955E-04 Projection  8.278E-06
:INFO :  Singular value  7.309E-08 Weight  5.658E-08 Projection -3.103E-09
:INFO :  Singular value  1.969E-09 Weight  4.107E-11 Projection  1.370E-12
:RANK :  ACTIVE   5.00/8  =  62.49 % ; YY RANK   5.00/8  =  62.49 %
 
:DLIM :  Beta Active  9.964E-01
:BLIM :  VZERO Control Off
:TRUST:  Step 3.49E+00  Charge 1.62E-02 (e) CTO  5.40E-02 (e) PW  7.56E-02 (e)
:DIRM :  MEMORY  8/8  SCALE   1.000 RED  0.33 PRED  0.40 NEXT  1.00 BETA  1.00
:TRAVE:  Charge 3.28E-05 (e) CTO  6.56E-05 (e) PW  2.33E-04 (e)
:DIRP :  |MSR1|= 8.574E-07 |PRATT|= 2.727E-05 ANGLE=  53.0 DEGREES
:DIRQ :  |MSR1|= 5.270E-06 |PRATT|= 8.249E-05 ANGLE=  26.7 DEGREES
:DIRT :  |MSR1|= 5.339E-06 |PRATT|= 8.688E-05 ANGLE=  29.8 DEGREES
:MIX  :   MSD1   REGULARIZATION:  3.07E-04 GREED: 0.04110  Newton 1.00  0.0615                
     
       CHARGES OF MIXED CHARGE DENSITY
:CTO   : INTERSTITIAL CHARGE =     6.406484
:CPC   : PW Pseudocharge     =    17.567986
:CTO001: CHARGE SPHERE  1    =    55.796758

:NEC03: NUCLEAR AND ELECTRONIC CHARGE    118.00000   118.00000

PW CHANGE     H    K    L      Current       Change    Residue
:PTO001:      0    0    0  8.22372783E-02 -2.412E-09  1.720E-07
:PTO003:      0    2    0  1.88378814E-02 -5.736E-09  9.436E-08
:PTO004:     -1    1    0  8.80735070E-02  1.263E-08  5.647E-07
:PTO005:      0    2   -1 -1.00410592E-01 -1.093E-08 -5.419E-07
:PTO006:      0    0   -2 -5.20825239E-02 -4.809E-09 -2.557E-07
:PTO007:     -1    1   -1 -1.03633923E-01 -1.952E-08 -6.795E-07
:PTO008:      0    2   -2 -1.41525297E-02  1.608E-09 -1.136E-07
:PTO009:     -1    1   -2 -7.06473922E-02  2.218E-08  3.595E-08
:PTO011:     -1    3    0 -1.03541456E-02 -8.676E-10 -3.289E-08
:PTO012:     -1    3   -1 -4.17835663E-02  1.469E-08  3.310E-08
:PTO013:      0    4    0 -6.95596010E-03  6.401E-10 -8.921E-09
:PTO014:      0    2   -3  1.62783406E-02  9.625E-10  2.299E-08

:ENE  : ********** TOTAL ENERGY IN Ry =       -36944.36570184

       TOTAL FORCE IN mRy/a.u. = |F|     Fx             Fy             Fz     with/without FOR in case.in2
:FOR001:   1.ATOM          5.958          0.000          0.000          5.958 partial forces
       TOTAL FORCE WITH RESPECT TO GLOBAL CARTESIAN COORDINATES:
:FCA001:   1.ATOM                         0.000          5.958          0.000 partial forces
       TOTAL FORCE WITH RESPECT TO THE GLOBAL COORDINATE SYSTEM:
:FGL001:   1.ATOM                 0.000000000     5.957998004     0.000000000 partial forces
