
------- alpha_Pu_8.scf0 --------


            ---------
:ITE082: 82. ITERATION
            ---------

:NATO :    8 INDEPENDENT AND   16 TOTAL ATOMS IN UNITCELL
       SUBSTANCE: alpha_Pu                                                    

       LATTICE                      = P   
:POT  : POTENTIAL OPTION    5
:LAT  : LATTICE CONSTANTS= 12.41394  9.68476 22.01836    1.571    1.777    1.571
:VOL  : UNIT CELL VOLUME =    2591.35995
       MODE OF CALCULATION IS       = RELA
       NON-SPINPOLARIZED CALCULATION
:IFFT  : FFT-parameters:   96   80  180 Factor: 2.00
       ATOMNUMBER=  1 Pu  0+     VCOUL-ZERO =  0.32330E+00
:EFG001:                        EFG         =    19.18513   *10**21  V / m**2
                               V20  TOT/SRF=    -2.05726    -0.04291
                               V22  TOT/SRF=     9.01005     0.05346
                               V22M TOT/SRF=   -15.57961    -0.03381
                               V21  TOT/SRF=     0.00000     0.00000
                               V21M TOT/SRF=     0.00000     0.00000

             10.19781  -15.57961    0.00000       19.18513    0.00000    0.00000
            -15.57961   -7.82229    0.00000        0.00000  -16.80961    0.00000
              0.00000    0.00000   -2.37551        0.00000    0.00000   -2.37551

         MAIN DIRECTIONS OF THE EFG   1.0000  0.5769  0.0000
                                     -0.5769  1.0000  0.0000
                                      0.0000  0.0000  1.0000
:ANG001:  ANGLE WITH OLD X-AXIS =        30.0

:ETA001:                         ASYMM. ETA =     0.75236


       ATOMNUMBER=  2 Pu  0+     VCOUL-ZERO =  0.32226E+00
:EFG002:                        EFG         =   -31.15384   *10**21  V / m**2
                               V20  TOT/SRF=     9.13591     0.01037
                               V22  TOT/SRF=   -19.89506    -0.03895
                               V22M TOT/SRF=    16.55054     0.02925
                               V21  TOT/SRF=     0.00000     0.00000
                               V21M TOT/SRF=     0.00000     0.00000

            -25.16968   16.55054    0.00000      -31.15384    0.00000    0.00000
             16.55054   14.62044    0.00000        0.00000   20.60460    0.00000
              0.00000    0.00000   10.54924        0.00000    0.00000   10.54924

         MAIN DIRECTIONS OF THE EFG   1.0000  0.3616  0.0000
                                     -0.3616  1.0000  0.0000
                                      0.0000  0.0000  1.0000
:ANG002:  ANGLE WITH OLD X-AXIS =        19.9

:ETA002:                         ASYMM. ETA =     0.32276


       ATOMNUMBER=  3 Pu  0+     VCOUL-ZERO =  0.32469E+00
:EFG003:                        EFG         =   -14.69293   *10**21  V / m**2
                               V20  TOT/SRF=     2.04135     0.00006
                               V22  TOT/SRF=    -2.89318    -0.00318
                               V22M TOT/SRF=   -13.20104    -0.00212
                               V21  TOT/SRF=     0.00000     0.00000
                               V21M TOT/SRF=     0.00000     0.00000

             -4.07176  -13.20104    0.00000      -14.69293    0.00000    0.00000
            -13.20104    1.71461    0.00000        0.00000   12.33579    0.00000
              0.00000    0.00000    2.35715        0.00000    0.00000    2.35715

         MAIN DIRECTIONS OF THE EFG   1.0000 -0.8046  0.0000
                                      0.8046  1.0000  0.0000
                                      0.0000  0.0000  1.0000
:ANG003:  ANGLE WITH OLD X-AXIS =        38.8

:ETA003:                         ASYMM. ETA =     0.67915


       ATOMNUMBER=  4 Pu  0+     VCOUL-ZERO =  0.32380E+00
:EFG004:                        EFG         =    11.95434   *10**21  V / m**2
                               V20  TOT/SRF=    -0.71930    -0.01216
                               V22  TOT/SRF=    -1.68636     0.00936
                               V22M TOT/SRF=    11.41516     0.01261
                               V21  TOT/SRF=     0.00000     0.00000
                               V21M TOT/SRF=     0.00000     0.00000

             -1.27107   11.41516    0.00000      -11.12376    0.00000    0.00000
             11.41516    2.10164    0.00000        0.00000   11.95434    0.00000
              0.00000    0.00000   -0.83057        0.00000    0.00000   -0.83057

         MAIN DIRECTIONS OF THE EFG   1.0000  0.8631  0.0000
                                     -0.8631  1.0000  0.0000
                                      0.0000  0.0000  1.0000
:ANG004:  ANGLE WITH OLD X-AXIS =        40.8

:ETA004:                         ASYMM. ETA =     0.86104


       ATOMNUMBER=  5 Pu  0+     VCOUL-ZERO =  0.32443E+00
:EFG005:                        EFG         =   -39.78673   *10**21  V / m**2
                               V20  TOT/SRF=     9.36598     0.00686
                               V22  TOT/SRF=   -33.85830    -0.05584
                               V22M TOT/SRF=     5.96244     0.02435
                               V21  TOT/SRF=     0.00000     0.00000
                               V21M TOT/SRF=     0.00000     0.00000

            -39.26575    5.96244    0.00000      -39.78673    0.00000    0.00000
              5.96244   28.45085    0.00000        0.00000   28.97183    0.00000
              0.00000    0.00000   10.81490        0.00000    0.00000   10.81490

         MAIN DIRECTIONS OF THE EFG   1.0000  0.0874  0.0000
                                     -0.0874  1.0000  0.0000
                                      0.0000  0.0000  1.0000
:ANG005:  ANGLE WITH OLD X-AXIS =         5.0

:ETA005:                         ASYMM. ETA =     0.45636


       ATOMNUMBER=  6 Pu  0+     VCOUL-ZERO =  0.32215E+00
:EFG006:                        EFG         =   -12.73901   *10**21  V / m**2
                               V20  TOT/SRF=     4.36660     0.00113
                               V22  TOT/SRF=    -2.23035    -0.00036
                               V22M TOT/SRF=    -9.97157    -0.03362
                               V21  TOT/SRF=     0.00000     0.00000
                               V21M TOT/SRF=     0.00000     0.00000

             -4.75141   -9.97157    0.00000      -12.73901    0.00000    0.00000
             -9.97157   -0.29071    0.00000        0.00000    7.69690    0.00000
              0.00000    0.00000    5.04212        0.00000    0.00000    5.04212

         MAIN DIRECTIONS OF THE EFG   1.0000 -0.8010  0.0000
                                      0.8010  1.0000  0.0000
                                      0.0000  0.0000  1.0000
:ANG006:  ANGLE WITH OLD X-AXIS =        38.7

:ETA006:                         ASYMM. ETA =     0.20840


       ATOMNUMBER=  7 Pu  0+     VCOUL-ZERO =  0.32357E+00
:EFG007:                        EFG         =   -16.86834   *10**21  V / m**2
                               V20  TOT/SRF=     6.02593    -0.00527
                               V22  TOT/SRF=    11.01252     0.03873
                               V22M TOT/SRF=     7.61557     0.00578
                               V21  TOT/SRF=     0.00000     0.00000
                               V21M TOT/SRF=     0.00000     0.00000

              7.53344    7.61557    0.00000        9.91019    0.00000    0.00000
              7.61557  -14.49159    0.00000        0.00000  -16.86834    0.00000
              0.00000    0.00000    6.95815        0.00000    0.00000    6.95815

         MAIN DIRECTIONS OF THE EFG   1.0000 -0.3121  0.0000
                                      0.3121  1.0000  0.0000
                                      0.0000  0.0000  1.0000
:ANG007:  ANGLE WITH OLD X-AXIS =        17.3

:ETA007:                         ASYMM. ETA =     0.17500


       ATOMNUMBER=  8 Pu  0+     VCOUL-ZERO =  0.31734E+00
:EFG008:                        EFG         =   -39.36391   *10**21  V / m**2
                               V20  TOT/SRF=    11.08556     0.01424
                               V22  TOT/SRF=   -32.78494    -0.02451
                               V22M TOT/SRF=     3.42786    -0.00003
                               V21  TOT/SRF=     0.00000     0.00000
                               V21M TOT/SRF=     0.00000     0.00000

            -39.18519    3.42786    0.00000      -39.36391    0.00000    0.00000
              3.42786   26.38469    0.00000        0.00000   26.56341    0.00000
              0.00000    0.00000   12.80050        0.00000    0.00000   12.80050

         MAIN DIRECTIONS OF THE EFG   1.0000  0.0521  0.0000
                                     -0.0521  1.0000  0.0000
                                      0.0000  0.0000  1.0000
:ANG008:  ANGLE WITH OLD X-AXIS =         3.0

:ETA008:                         ASYMM. ETA =     0.34963


     HELLMANN-FEYNMAN-FORCE IN mRy/a.u. = |F|  Fx       Fy             Fz
:FHF001:   1.ATOM       3119.959       2881.126       1197.186          0.000

     HELLMANN-FEYNMAN-FORCE IN mRy/a.u. = |F|  Fx       Fy             Fz
:FHF002:   2.ATOM       1187.398       -114.266       1181.887          0.000

     HELLMANN-FEYNMAN-FORCE IN mRy/a.u. = |F|  Fx       Fy             Fz
:FHF003:   3.ATOM       5265.918       3882.544       3557.492          0.000

     HELLMANN-FEYNMAN-FORCE IN mRy/a.u. = |F|  Fx       Fy             Fz
:FHF004:   4.ATOM       2875.376      -2827.248       -523.890          0.000

     HELLMANN-FEYNMAN-FORCE IN mRy/a.u. = |F|  Fx       Fy             Fz
:FHF005:   5.ATOM       1872.203        906.886       1637.896          0.000

     HELLMANN-FEYNMAN-FORCE IN mRy/a.u. = |F|  Fx       Fy             Fz
:FHF006:   6.ATOM       5086.842       4215.900       2846.428          0.000

     HELLMANN-FEYNMAN-FORCE IN mRy/a.u. = |F|  Fx       Fy             Fz
:FHF007:   7.ATOM       4816.458      -3329.380       3480.444          0.000

     HELLMANN-FEYNMAN-FORCE IN mRy/a.u. = |F|  Fx       Fy             Fz
:FHF008:   8.ATOM        868.293        804.934        325.598          0.000

:FIT001: LUSE= 13 SIGMA OF V-XC FIT FOR ATOM  1  0.8674895E-04
:FIT001: LUSE= 13 SIGMA OF V-XC FIT FOR ATOM  1  0.8674895E-04
:FIT002: LUSE= 13 SIGMA OF V-XC FIT FOR ATOM  2  0.5712948E-04
:FIT002: LUSE= 13 SIGMA OF V-XC FIT FOR ATOM  2  0.5712948E-04
:FIT003: LUSE= 13 SIGMA OF V-XC FIT FOR ATOM  3  0.5678419E-04
:FIT003: LUSE= 13 SIGMA OF V-XC FIT FOR ATOM  3  0.5678419E-04
:FIT004: LUSE= 13 SIGMA OF V-XC FIT FOR ATOM  4  0.6216825E-04
:FIT004: LUSE= 13 SIGMA OF V-XC FIT FOR ATOM  4  0.6216825E-04
:FIT005: LUSE= 13 SIGMA OF V-XC FIT FOR ATOM  5  0.5202732E-04
:FIT005: LUSE= 13 SIGMA OF V-XC FIT FOR ATOM  5  0.5202732E-04
:FIT006: LUSE= 13 SIGMA OF V-XC FIT FOR ATOM  6  0.3798926E-04
:FIT006: LUSE= 13 SIGMA OF V-XC FIT FOR ATOM  6  0.3798926E-04
:FIT007: LUSE= 13 SIGMA OF V-XC FIT FOR ATOM  7  0.9060969E-04
:FIT007: LUSE= 13 SIGMA OF V-XC FIT FOR ATOM  7  0.9060969E-04
:FIT008: LUSE= 13 SIGMA OF V-XC FIT FOR ATOM  8  0.2225897E-04
:FIT008: LUSE= 13 SIGMA OF V-XC FIT FOR ATOM  8  0.2225897E-04
:DEN  : DENSITY INTEGRAL  =       -350197.66757514   (Ry)
       ELS_POTENTIAL_AT Z=0 and Z=0.5:   0.86916   0.42910
       ELS_POTENTIAL_AT Y=0 and Y=0.5:   1.07133   1.07133
:VZERO:v0,v0c,v0x   0.09485   0.86916  -0.77431 v5,v5c,v5x  -0.40413   0.42910  -0.83323
:VZERY:v0,v0c,v0x   0.34299   1.07133  -0.72835 v5,v5c,v5x   0.34299   1.07133  -0.72835
:VZERX:v0,v0c,v0x  -0.74176   0.12795  -0.86970 v5,v5c,v5x  -0.66099   0.19740  -0.85839

------- alpha_Pu_8.scf1 --------

          ATOMIC SPHERE DEPENDENT PARAMETERS FOR ATOM  Pu  0+    
:e__0001: OVERALL ENERGY PARAMETER IS    0.9422
          OVERALL BASIS SET ON ATOM IS LAPW
:E0_0001: E( 0)=    0.9422
             APW+lo
:E0_0001: E( 0)=   -2.2605   E(BOTTOM)=   -3.033   E(TOP)=   -1.488
             LOCAL ORBITAL
:E1_0001: E( 1)=   -1.3360   E(BOTTOM)=   -1.336   E(TOP)= -200.000
             APW+lo
:E1_0001: E( 1)=    0.9422
             LOCAL ORBITAL
:E3_0001: E( 3)=    0.9422   E(BOTTOM)=    0.707   E(TOP)= -200.000
             APW+lo
:E2_0001: E( 2)=    0.9422   E(BOTTOM)=    0.867   E(TOP)= -200.000
             APW+lo

          ATOMIC SPHERE DEPENDENT PARAMETERS FOR ATOM  Pu  0+    
:e__0002: OVERALL ENERGY PARAMETER IS    0.9422
          OVERALL BASIS SET ON ATOM IS LAPW
:E0_0002: E( 0)=    0.9422
             APW+lo
:E0_0002: E( 0)=   -2.2610   E(BOTTOM)=   -3.033   E(TOP)=   -1.489
             LOCAL ORBITAL
:E1_0002: E( 1)=   -1.3340   E(BOTTOM)=   -1.334   E(TOP)= -200.000
             APW+lo
:E1_0002: E( 1)=    0.9422
             LOCAL ORBITAL
:E3_0002: E( 3)=    0.9422   E(BOTTOM)=    0.707   E(TOP)= -200.000
             APW+lo
:E2_0002: E( 2)=    0.9422   E(BOTTOM)=    0.872   E(TOP)= -200.000
             APW+lo

          ATOMIC SPHERE DEPENDENT PARAMETERS FOR ATOM  Pu  0+    
:e__0003: OVERALL ENERGY PARAMETER IS    0.9422
          OVERALL BASIS SET ON ATOM IS LAPW
:E0_0003: E( 0)=    0.9422
             APW+lo
:E0_0003: E( 0)=   -2.2600   E(BOTTOM)=   -3.032   E(TOP)=   -1.488
             LOCAL ORBITAL
:E1_0003: E( 1)=   -1.3320   E(BOTTOM)=   -1.332   E(TOP)= -200.000
             APW+lo
:E1_0003: E( 1)=    0.9422
             LOCAL ORBITAL
:E3_0003: E( 3)=    0.9422   E(BOTTOM)=    0.707   E(TOP)= -200.000
             APW+lo
:E2_0003: E( 2)=    0.9422   E(BOTTOM)=    0.872   E(TOP)= -200.000
             APW+lo

          ATOMIC SPHERE DEPENDENT PARAMETERS FOR ATOM  Pu  0+    
:e__0004: OVERALL ENERGY PARAMETER IS    0.9422
          OVERALL BASIS SET ON ATOM IS LAPW
:E0_0004: E( 0)=    0.9422
             APW+lo
:E0_0004: E( 0)=   -2.2610   E(BOTTOM)=   -3.033   E(TOP)=   -1.489
             LOCAL ORBITAL
:E1_0004: E( 1)=   -1.3340   E(BOTTOM)=   -1.334   E(TOP)= -200.000
             APW+lo
:E1_0004: E( 1)=    0.9422
             LOCAL ORBITAL
:E3_0004: E( 3)=    0.9422   E(BOTTOM)=    0.707   E(TOP)= -200.000
             APW+lo
:E2_0004: E( 2)=    0.9422   E(BOTTOM)=    0.872   E(TOP)= -200.000
             APW+lo

          ATOMIC SPHERE DEPENDENT PARAMETERS FOR ATOM  Pu  0+    
:e__0005: OVERALL ENERGY PARAMETER IS    0.9422
          OVERALL BASIS SET ON ATOM IS LAPW
:E0_0005: E( 0)=    0.9422
             APW+lo
:E0_0005: E( 0)=   -2.2605   E(BOTTOM)=   -3.032   E(TOP)=   -1.489
             LOCAL ORBITAL
:E1_0005: E( 1)=   -1.3340   E(BOTTOM)=   -1.334   E(TOP)= -200.000
             APW+lo
:E1_0005: E( 1)=    0.9422
             LOCAL ORBITAL
:E3_0005: E( 3)=    0.9422   E(BOTTOM)=    0.707   E(TOP)= -200.000
             APW+lo
:E2_0005: E( 2)=    0.9422   E(BOTTOM)=    0.872   E(TOP)= -200.000
             APW+lo

          ATOMIC SPHERE DEPENDENT PARAMETERS FOR ATOM  Pu  0+    
:e__0006: OVERALL ENERGY PARAMETER IS    0.9422
          OVERALL BASIS SET ON ATOM IS LAPW
:E0_0006: E( 0)=    0.9422
             APW+lo
:E0_0006: E( 0)=   -2.2615   E(BOTTOM)=   -3.034   E(TOP)=   -1.489
             LOCAL ORBITAL
:E1_0006: E( 1)=   -1.3340   E(BOTTOM)=   -1.334   E(TOP)= -200.000
             APW+lo
:E1_0006: E( 1)=    0.9422
             LOCAL ORBITAL
:E3_0006: E( 3)=    0.9422   E(BOTTOM)=    0.707   E(TOP)= -200.000
             APW+lo
:E2_0006: E( 2)=    0.9422   E(BOTTOM)=    0.872   E(TOP)= -200.000
             APW+lo

          ATOMIC SPHERE DEPENDENT PARAMETERS FOR ATOM  Pu  0+    
:e__0007: OVERALL ENERGY PARAMETER IS    0.9422
          OVERALL BASIS SET ON ATOM IS LAPW
:E0_0007: E( 0)=    0.9422
             APW+lo
:E0_0007: E( 0)=   -2.2600   E(BOTTOM)=   -3.032   E(TOP)=   -1.488
             LOCAL ORBITAL
:E1_0007: E( 1)=   -1.3340   E(BOTTOM)=   -1.334   E(TOP)= -200.000
             APW+lo
:E1_0007: E( 1)=    0.9422
             LOCAL ORBITAL
:E3_0007: E( 3)=    0.9422   E(BOTTOM)=    0.707   E(TOP)= -200.000
             APW+lo
:E2_0007: E( 2)=    0.9422   E(BOTTOM)=    0.872   E(TOP)= -200.000
             APW+lo

          ATOMIC SPHERE DEPENDENT PARAMETERS FOR ATOM  Pu  0+    
:e__0008: OVERALL ENERGY PARAMETER IS    0.9422
          OVERALL BASIS SET ON ATOM IS LAPW
:E0_0008: E( 0)=    0.9422
             APW+lo
:E0_0008: E( 0)=   -2.2605   E(BOTTOM)=   -3.033   E(TOP)=   -1.488
             LOCAL ORBITAL
:E1_0008: E( 1)=   -1.3340   E(BOTTOM)=   -1.334   E(TOP)= -200.000
             APW+lo
:E1_0008: E( 1)=    0.9422
             LOCAL ORBITAL
:E3_0008: E( 3)=    0.9422   E(BOTTOM)=    0.707   E(TOP)= -200.000
             APW+lo
:E2_0008: E( 2)=    0.9422   E(BOTTOM)=    0.872   E(TOP)= -200.000
             APW+lo

       K=   0.00000   0.00000   0.00000            1
:RKM  : MATRIX SIZE 3007LOs: 320  RKM= 8.50  WEIGHT= 1.00  PGR:    
       EIGENVALUES ARE:
:EIG00001:      -2.2549999   -2.2450574   -2.2424877   -2.2340928   -2.2269411
:EIG00006:      -2.2248832   -2.2197427   -2.2167364   -2.2166250   -2.2089867
:EIG00011:      -2.2051523   -2.2039335   -2.1965600   -2.1962494   -2.1920243
:EIG00016:      -2.1873578   -0.4093626   -0.4069093   -0.4013142   -0.3822601
:EIG00021:      -0.3821843   -0.3722947   -0.3716800   -0.3692008   -0.3484491
:EIG00026:      -0.3409505   -0.3393326   -0.3270742   -0.3263235   -0.3153224
:EIG00031:      -0.3145202   -0.3144739   -0.3107017   -0.3078187   -0.2929946
:EIG00036:      -0.2903274   -0.2654421   -0.2653687   -0.2327818   -0.2248877
:EIG00041:      -0.2208064   -0.2103740   -0.1889269   -0.1862482   -0.1705044
:EIG00046:      -0.1697203   -0.1624636   -0.1560578   -0.1511434   -0.1476039
 
:EIG00051:      -0.1472031   -0.1447211   -0.1297561   -0.1270059   -0.1266089
:EIG00056:      -0.1247309   -0.1133432   -0.1109793   -0.1105356   -0.1103349
:EIG00061:      -0.1044247   -0.0993545   -0.0813455   -0.0791132    0.8067731
:EIG00066:       0.9578214    0.9659390    0.9853095    0.9904356    0.9917075
:EIG00071:       0.9967153    0.9988663    1.0114023    1.0152091    1.0317871
:EIG00076:       1.0354454    1.0392075    1.0488141    1.0503520    1.0541403
:EIG00081:       1.0568083    1.0653100    1.0785448    1.0890544    1.0938540
:EIG00086:       1.0950008    1.0977462    1.1070003    1.1099385    1.1118525
:EIG00091:       1.1149396    1.1172844    1.1192277    1.1226938    1.1231412
:EIG00096:       1.1243211    1.1268488    1.1269145    1.1282910    1.1312913
 
:EIG00101:       1.1317533    1.1322294    1.1327657    1.1344960    1.1346291
:EIG00106:       1.1347930    1.1352279    1.1403046    1.1410755    1.1432615
:EIG00111:       1.1442763    1.1452559    1.1476599    1.1518290    1.1527962
:EIG00116:       1.1561788    1.1581275    1.1583585    1.1589269    1.1614552
:EIG00121:       1.1636650    1.1674605    1.1699044    1.1699781    1.1756196
:EIG00126:       1.1784608    1.1787499    1.1813749    1.1818758    1.1882037
:EIG00131:       1.1956538    1.1956748    1.2031743    1.2034365    1.2039857
:EIG00136:       1.2055779    1.2082083    1.2091038    1.2114374    1.2117535
:EIG00141:       1.2127866    1.2158351    1.2163001    1.2164276    1.2181625
:EIG00146:       1.2204178    1.2225207    1.2245264    1.2262291    1.2263700
 
:EIG00151:       1.2274612    1.2316769    1.2329224    1.2342120    1.2366391
:EIG00156:       1.2379157    1.2384375    1.2399782    1.2411540    1.2418213
:EIG00161:       1.2420940    1.2444261    1.2471645    1.2475336    1.2479904
:EIG00166:       1.2481831    1.2492377    1.2500354    1.2515745    1.2527655
:EIG00171:       1.2567450    1.2581322    1.2584692    1.2586840    1.2587800
:EIG00176:       1.2630298    1.2647799    1.2654895    1.2661809    1.2665396
:EIG00181:       1.2666236    1.2667929    1.2721907    1.2744753    1.2764506
:EIG00186:       1.2787937    1.2793115    1.2794054    1.2800049    1.2845548
:EIG00191:       1.2849776    1.2862117    1.2866391    1.2885208    1.2916059
:EIG00196:       1.2966294    1.3154625    1.3179238    1.3227196    1.3332588
 
:EIG00201:       1.3395802    1.3540021    1.3570024    1.3601081    1.3605163
:EIG00206:       1.3682710    1.3736653    1.3874548    1.3904257    1.3925028
:EIG00211:       1.3948155    1.4010626    1.4016532    1.4041577    1.4278411
:EIG00216:       1.4299180    1.4367862    1.4658449    1.4793239    1.4888571
:EIG00221:       1.5085595    1.5166590    1.5198161    1.5258197    1.5380919
:EIG00226:       1.5448930    1.5459712    1.5583401    1.5787461    1.5795001
:EIG00231:       1.6014286    1.6058014    1.6385002    1.6515109    1.6529038
:EIG00236:       1.6620287    1.6656877    1.6686020    1.6754690    1.7034404
:EIG00241:       1.7052995    1.7118106    1.7121157    1.7373170    1.7507057
:EIG00246:       1.7619344    1.7667320    1.7857443    1.7890255    1.7942330
 
:EIG00251:       1.8002096    1.8040398    1.8104108    1.8213168    1.8348192
:EIG00256:       1.8356846    1.8575714    1.8723133    1.8789310    1.8797540
:EIG00261:       1.9084996    1.9162088    1.9573725    1.9577531    1.9915361
:EIG00266:       2.0336603    2.0422946    2.0632133    2.0997508    2.1037056
:EIG00271:       2.1054503    2.1097219    2.1181596    2.1285874    2.1320565
:EIG00276:       2.1495452    2.1615937    2.1712053    2.1789888    2.1928067
:EIG00281:       2.2134525    2.2351143    2.2495077    2.2645490    2.2665221
:EIG00286:       2.2843756    2.3003182    2.3058609    2.3268540    2.3380153
:EIG00291:       2.3555677    2.3596118    2.3622496    2.3722519    2.3959107
:EIG00296:       2.4093711    2.4458719    2.4502222    2.4617257    2.4666677
 
:EIG00301:       2.4783196    2.4795423    2.4964926    2.5028236    2.5324214
:EIG00306:       2.5360563    2.5452599    2.5562615    2.5731393    2.5861991
:EIG00311:       2.5865555    2.6021796    2.6043996    2.6099573    2.6257130
:EIG00316:       2.6295672    2.6364735    2.6455422    2.6562378    2.6787142
:EIG00321:       2.6904670    2.6980110    2.7087341    2.7105195    2.7181349
:EIG00326:       2.7304463    2.7369122    2.7425051    2.7470324    2.7493681
:EIG00331:       2.7678689    2.7732887    2.7903008    2.7994064    2.8132451
:EIG00336:       2.8225239    2.8328686    2.8404614    2.8530221    2.8625000
:EIG00341:       2.8739973    2.8744554    2.8836722    2.8924272    2.9018548
:EIG00346:       2.9187780    2.9311961    2.9354479    2.9420311    2.9540296
 
:EIG00351:       2.9690664    2.9718740    2.9988155    2.9997520    3.0150338
:EIG00356:       3.0299784    3.0358310    3.0450091    3.0486929    3.0508286
:EIG00361:       3.0717775    3.0729910    3.0785464    3.0800889    3.0971855
:EIG00366:       3.1017047    3.1050926    3.1276580    3.1471818    3.1484748
:EIG00371:       3.1617880    3.1643134    3.1834748    3.1860551    3.2002394
:EIG00376:       3.2235100    3.2296655    3.2370496    3.2422185    3.2466254
:EIG00381:       3.2480451    3.2537259    3.2559874    3.2686273    3.3076580
:EIG00386:       3.3101366    3.3251265    3.3312694    3.3416561    3.3473627
:EIG00391:       3.3508038    3.3508571    3.3677394    3.3696627    3.3723619
:EIG00396:       3.3884161    3.4195754    3.4252224    3.4272980    3.4324591
 
:EIG00401:       3.4369686    3.4374303    3.4660206    3.4712405    3.4754769
:EIG00406:       3.4860919    3.4961632    3.5007252    3.5131698    3.5227505
:EIG00411:       3.5317060    3.5320943    3.5339528    3.5546661    3.5650535
:EIG00416:       3.5715520    3.5773376    3.5851767    3.6075215    3.6091484
:EIG00421:       3.6138051    3.6227192    3.6358336    3.6523971    3.6672175
:EIG00426:       3.6711298    3.6758033    3.6773907    3.6862235    3.6905279
:EIG00431:       3.6933777    3.7147678    3.7204553    3.7285934    3.7294901
:EIG00436:       3.7345931    3.7409465    3.7418038    3.7537781    3.7596918
:EIG00441:       3.7685834    3.7722155    3.7765523    3.7814954    3.7915713
:EIG00446:       3.8031406    3.8144940    3.8230467    3.8273297    3.8273400
 
:EIG00451:       3.8359609    3.8653602    3.8682139    3.8682237    3.8719516
:EIG00456:       3.8797554    3.8808167    3.8861826    3.8867520    3.9125334
:EIG00461:       3.9253922    3.9406292    3.9487278    3.9602808    3.9641975
:EIG00466:       3.9789384    3.9808074    3.9985929    4.0035130    4.0149760
:EIG00471:       4.0176625    4.0308666    4.0389880    4.0394260    4.0647279
:EIG00476:       4.0649127    4.0835880    4.0886366    4.0986684    4.0993962
:EIG00481:       4.1027478    4.1098629    4.1162893    4.1221056    4.1371558
:EIG00486:       4.1430003    4.1453413    4.1472701    4.1577522    4.1682274
:EIG00491:       4.1773303    4.1841788    4.1846456    4.1930332    4.1969235
:EIG00496:       4.2095780    4.2097565    4.2203497    4.2210894    4.2278783
 
:EIG00501:       4.2301075    4.2334886    4.2392148    4.2398417    4.2446992
:EIG00506:       4.2517976    4.2590373    4.2615287    4.2628584    4.2636056
:EIG00511:       4.2765006    4.2814254    4.2972828    4.3095959    4.3135426
:EIG00516:       4.3210071    4.3226110    4.3252256    4.3312762    4.3345566
:EIG00521:       4.3351126    4.3458376    4.3520659    4.3522670    4.3524819
:EIG00526:       4.3551023    4.3804172    4.3829724    4.4058806    4.4083025
:EIG00531:       4.4110487    4.4188423    4.4198505    4.4368415    4.4413651
:EIG00536:       4.4578505    4.4768065    4.4866421    4.4941921    4.4991685
:EIG00541:       4.5032931    4.5099383    4.5129607    4.5342116    4.5356554
:EIG00546:       4.5438998    4.5475899    4.5569526    4.5593604    4.5716084
 
:EIG00551:       4.5780682    4.5790195    4.5818872    4.5839993    4.5931211
:EIG00556:       4.6004969    4.6027735    4.6175060    4.6250551    4.6439664
:EIG00561:       4.6450338    4.6484377    4.6545497    4.6546437    4.6566497
:EIG00566:       4.6611319    4.6662485    4.6696178    4.6739943    4.6822374
:EIG00571:       4.6938337    4.6939171    4.7157665    4.7160397    4.7199560
:EIG00576:       4.7232872    4.7286197    4.7366192    4.7386058    4.7466405
:EIG00581:       4.7599101    4.7731809    4.7756275    4.7774289    4.7820956
:EIG00586:       4.7908444    4.8009675    4.8049615    4.8052638    4.8144966
:EIG00591:       4.8177222    4.8273576    4.8305885    4.8368651    4.8383100
:EIG00596:       4.8458424    4.8574377    4.8698462    4.8740562    4.8896853
 
:EIG00601:       4.8904512    4.8917019    4.9009778    4.9164077    4.9181386
:EIG00606:       4.9200941    4.9217558    4.9297476    4.9347832    4.9384806
:EIG00611:       4.9451268    4.9453947    4.9489258    4.9655251    4.9674858
:EIG00616:       4.9819958    4.9866255    4.9906730    4.9973855    5.0026338
:EIG00621:       5.0207708    5.0298199    5.0364407    5.0369885    5.0446105
:EIG00626:       5.0466645    5.0502812    5.0773721    5.0794760    5.0885175
:EIG00631:       5.0950651    5.0974102    5.1121235    5.1146151    5.1183952
:EIG00636:       5.1239682    5.1257012    5.1394548    5.1405134    5.1437044
:EIG00641:       5.1491957    5.1524973    5.1595787    5.1740265    5.1780681
:EIG00646:       5.1829399    5.1902367    5.1920507    5.1974840    5.2045375
 
:EIG00651:       5.2107456    5.2311017    5.2338353    5.2417183    5.2485533
:EIG00656:       5.2537591    5.2632577    5.2647161    5.2654701    5.2745212
:EIG00661:       5.2814164    5.2852222    5.2958911    5.3018155    5.3270579
:EIG00666:       5.3307719    5.3326741    5.3407802    5.3519035    5.3541557
:EIG00671:       5.3683752    5.3740471    5.3842534    5.3946943    5.4024950
:EIG00676:       5.4187508    5.4293997    5.4422218    5.4477554    5.4574895
:EIG00681:       5.4634333    5.4656064    5.4727273    5.4749898    5.4944326
:EIG00686:       5.4957158    5.5086696    5.5134693    5.5203465    5.5283106
:EIG00691:       5.5324227    5.5357325    5.5393009    5.5539251    5.5543232
:EIG00696:       5.5683344    5.5717415    5.5744524    5.5784039    5.5928511
 
:EIG00701:       5.6039906    5.6101794    5.6266434    5.6280933    5.6419950
:EIG00706:       5.6482222    5.6505065    5.6529798    5.6577537    5.6578299
:EIG00711:       5.6808487    5.6868459    5.6873120    5.6912334    5.6957736
:EIG00716:       5.7071676    5.7121198    5.7426394    5.7468480    5.7471278
:EIG00721:       5.7503934    5.7546303    5.7659200    5.7686951    5.7687435
:EIG00726:       5.7702741    5.7723508    5.7806824    5.7855756    5.7873120
:EIG00731:       5.7962420    5.7986275    5.8041810    5.8162707    5.8182481
:EIG00736:       5.8253686    5.8303995    5.8488742    5.8586704    5.8594418
:EIG00741:       5.8610155    5.8631099    5.8775644    5.8819933    5.8823204
:EIG00746:       5.8896905    5.8993445    5.9124666    5.9152586    5.9183543
 
:EIG00751:       5.9278638    5.9328726    5.9335798    5.9473911    5.9512353
:EIG00756:       5.9577894    5.9598103    5.9721791    5.9774977    5.9863745
:EIG00761:       5.9872843    5.9909653    5.9911399    6.0028360    6.0218773
:EIG00766:       6.0269760    6.0329540    6.0481549    6.0553395    6.0641870
:EIG00771:       6.0710014    6.0732586    6.0774479    6.0792690    6.0818592
:EIG00776:       6.0893457    6.0961978    6.0998546    6.1130810    6.1170243
:EIG00781:       6.1349800    6.1369797    6.1413670    6.1476279    6.1537264
:EIG00786:       6.1608375    6.1632526    6.1686426    6.1727197    6.1806100
:EIG00791:       6.1946356    6.1946752    6.2050009    6.2092398    6.2144386
:EIG00796:       6.2159184    6.2218556    6.2260629    6.2325240    6.2474019
 
:EIG00801:       6.2579457    6.2599001    6.2634420    6.2665439    6.2782007
:EIG00806:       6.2790086    6.2881765    6.2934574    6.2960123    6.3053829
:EIG00811:       6.3154974    6.3182163    6.3280421    6.3311725    6.3393424
:EIG00816:       6.3480774    6.3497524    6.3514120    6.3678287    6.3687070
:EIG00821:       6.3775382    6.3832479    6.3931112    6.3936747    6.4032895
:EIG00826:       6.4043465    6.4147285    6.4166376    6.4277267    6.4307313
:EIG00831:       6.4356839    6.4391980    6.4393075    6.4472520    6.4592175
:EIG00836:       6.4614105    6.4706210    6.4789087    6.4911555    6.5004866
:EIG00841:       6.5028332    6.5088924    6.5134345    6.5135319    6.5195629
:EIG00846:       6.5242435    6.5348711    6.5396683    6.5421575    6.5519843
 
:EIG00851:       6.5538535    6.5649597    6.5715563    6.5719206    6.5754137
:EIG00856:       6.5927694    6.5973885    6.6136998    6.6171427    6.6248333
:EIG00861:       6.6248420    6.6299041    6.6330424    6.6477143    6.6483987
:EIG00866:       6.6505980    6.6599533    6.6687220    6.6812587    6.6857684
:EIG00871:       6.6858257    6.6954683    6.6979220    6.7047349    6.7096228
:EIG00876:       6.7096575    6.7186455    6.7198656    6.7244793    6.7380197
:EIG00881:       6.7391385    6.7436278    6.7666270    6.7711939    6.7732377
:EIG00886:       6.7765682    6.7798264    6.8053344    6.8096514    6.8098494
:EIG00891:       6.8161432    6.8166987    6.8274410    6.8330914    6.8369940
:EIG00896:       6.8445759    6.8500886    6.8507155    6.8550648    6.8610431
 
:EIG00901:       6.8620460    6.8653258    6.8839289    6.8847944    6.8944463
:EIG00906:       6.8976619    6.9068059    6.9088582    6.9123627    6.9132311
:EIG00911:       6.9189699    6.9229509    6.9238830    6.9385895    6.9488436
:EIG00916:       6.9512244    6.9534540    6.9597963    6.9624530    6.9679933
:EIG00921:       6.9680245    6.9765855    6.9810507    6.9941149    6.9952618
:EIG00926:       6.9966703    6.9992955    7.0168472    7.0219786    7.0253179
:EIG00931:       7.0407279    7.0420877    7.0484841    7.0495483    7.0520418
:EIG00936:       7.0540521    7.0625918    7.0674691    7.0726329    7.0761243
:EIG00941:       7.0861746    7.0903348    7.0940428    7.0971761    7.1072597
:EIG00946:       7.1124180    7.1141283    7.1260442    7.1309559    7.1336586
 
:EIG00951:       7.1382190    7.1547466    7.1632808    7.1653638    7.1677762
:EIG00956:       7.1687237    7.1891248    7.1914349    7.1955887    7.1992768
:EIG00961:       7.2105747    7.2163804    7.2167500    7.2210120    7.2334158
:EIG00966:       7.2340281    7.2350106    7.2476171    7.2581202    7.2596492
:EIG00971:       7.2597450    7.2694371    7.2760877    7.2844141    7.2872803
:EIG00976:       7.2902773    7.3041715    7.3047665    7.3112593    7.3132656
:EIG00981:       7.3136775    7.3277781    7.3303878    7.3311583    7.3492790
:EIG00986:       7.3521515    7.3565952    7.3567288    7.3660688    7.3684751
:EIG00991:       7.3746460    7.3766274    7.3782104    7.3827519    7.3956911
:EIG00996:       7.4069927    7.4164608    7.4200682    7.4206209    7.4238346
 
:EIG01001:       7.4247202    7.4411257    7.4477142    7.4615185    7.4646164
:EIG01006:       7.4670269    7.4799839    7.4823455    7.4835812    7.4928500
:EIG01011:       7.4950242
       ********************************************************

:KPT   :      NUMBER OF K-POINTS:    272

------- alpha_Pu_8.scfso --------
   0.0   0.0 angle (M,z), angle (M,x) deg
 
        SPIN-ORBIT EIGENVALUES:
     K=   0.00000   0.00000   0.00000            1
      MATRIX SIZE= 2022   WEIGHT= 1.00
     EIGENVALUES ARE:
          -2.2550040   -2.2550040   -2.2450659   -2.2450659   -2.2424973
          -2.2424973   -2.2341046   -2.2341046   -2.2269485   -2.2269485
          -2.2248945   -2.2248945   -2.2197520   -2.2197520   -2.2167441
          -2.2167441   -2.2166277   -2.2166277   -2.2089960   -2.2089960
          -2.2051658   -2.2051658   -2.2039431   -2.2039431   -2.1965695
          -2.1965695   -2.1962574   -2.1962574   -2.1920313   -2.1920313
          -2.1873673   -2.1873673   -0.7179950   -0.7179950   -0.7153011
          -0.7153011   -0.7043964   -0.7043964   -0.7038612   -0.7038612

          -0.6999384   -0.6999384   -0.6951433   -0.6951433   -0.6935966
          -0.6935966   -0.6796540   -0.6796540   -0.6749579   -0.6749579
          -0.6738042   -0.6738042   -0.6674684   -0.6674684   -0.6674488
          -0.6674488   -0.6599450   -0.6599450   -0.6295190   -0.6295190
          -0.6208495   -0.6208495   -0.5927520   -0.5927520   -0.2048774
          -0.2048774   -0.1856123   -0.1856123   -0.1787659   -0.1787659
          -0.1785800   -0.1785800   -0.1684314   -0.1684314   -0.1629027
          -0.1629027   -0.1552613   -0.1552613   -0.1503771   -0.1503771

          -0.1309128   -0.1309128   -0.1240332   -0.1240332   -0.1212356
          -0.1212356   -0.1150719   -0.1150719   -0.0989807   -0.0989807
          -0.0894499   -0.0894499   -0.0885490   -0.0885490   -0.0755366
          -0.0755366   -0.0501040   -0.0501040   -0.0395839   -0.0395839
          -0.0274248   -0.0274248   -0.0066955   -0.0066955    0.0008735
           0.0008735    0.0068580    0.0068580    0.0227857    0.0227857
           0.0354453    0.0354453    0.0421639    0.0421639    0.0435047
           0.0435047    0.0555494    0.0555494    0.0610937    0.0610937

           0.0722654    0.0722654    0.0877624    0.0877624    0.0937770
           0.0937770    0.0950227    0.0950227    0.8067761    0.8067761
           0.9591707    0.9591707    0.9659745    0.9659745    0.9832725
           0.9832725    0.9886967    0.9886967    0.9930304    0.9930304
           0.9937249    0.9937249    0.9962738    0.9962738    1.0099080
           1.0099080    1.0141755    1.0141755    1.0296331    1.0296331
           1.0331734    1.0331734    1.0367560    1.0367560    1.0436214
           1.0436214    1.0499919    1.0499919    1.0525874    1.0525874

           1.0554871    1.0554871    1.0641062    1.0641062    1.0712715
           1.0712715    1.0807943    1.0807943    1.0821748    1.0821748
           1.0875732    1.0875732    1.0970436    1.0970436    1.0981485
           1.0981485    1.1037355    1.1037355    1.1046921    1.1046921
           1.1048024    1.1048024    1.1089230    1.1089230    1.1108452
           1.1108452    1.1116838    1.1116838    1.1138618    1.1138618
           1.1152668    1.1152668    1.1167706    1.1167706    1.1188106
           1.1188106    1.1201959    1.1201959    1.1215353    1.1215353

           1.1220861    1.1220861    1.1238542    1.1238542    1.1241068
           1.1241068    1.1254997    1.1254997    1.1280369    1.1280369
           1.1285318    1.1285318    1.1296651    1.1296651    1.1309217
           1.1309217    1.1332995    1.1332995    1.1339481    1.1339481
           1.1355454    1.1355454    1.1364467    1.1364467    1.1399832
           1.1399832    1.1409937    1.1409937    1.1414984    1.1414984
           1.1435635    1.1435635    1.1448388    1.1448388    1.1454903
           1.1454903    1.1467298    1.1467298    1.1480055    1.1480055

           1.1512849    1.1512849    1.1535690    1.1535690    1.1555803
           1.1555803    1.1573585    1.1573585    1.1604042    1.1604042
           1.1609028    1.1609028    1.1613701    1.1613701    1.1651166
           1.1651166    1.1660790    1.1660790    1.1714188    1.1714188
           1.1723932    1.1723932    1.1780353    1.1780353    1.1798614
           1.1798614    1.1806120    1.1806120    1.1852341    1.1852341
           1.1882939    1.1882939    1.1944997    1.1944997    1.2009164
           1.2009164    1.2013853    1.2013853    1.2074609    1.2074609

           1.2118034    1.2118034    1.2180229    1.2180229    1.2189660
           1.2189660    1.2206940    1.2206940    1.2262781    1.2262781
           1.2283373    1.2283373    1.2288266    1.2288266    1.2305103
           1.2305103    1.2325126    1.2325126    1.2342475    1.2342475
           1.2372886    1.2372886    1.2379001    1.2379001    1.2399136
           1.2399136    1.2414069    1.2414069    1.2426255    1.2426255
           1.2461254    1.2461254    1.2466109    1.2466109    1.2474626
           1.2474626    1.2490640    1.2490640    1.2494461    1.2494461

           1.2514855    1.2514855    1.2533895    1.2533895    1.2538481
           1.2538481    1.2543341    1.2543341    1.2564183    1.2564183
           1.2578161    1.2578161    1.2592809    1.2592809    1.2602779
           1.2602779    1.2610377    1.2610377    1.2628634    1.2628634
           1.2645025    1.2645025    1.2673073    1.2673073    1.2684029
           1.2684029    1.2704018    1.2704018    1.2726264    1.2726264
           1.2732374    1.2732374    1.2751774    1.2751774    1.2754620
           1.2754620    1.2767678    1.2767678    1.2780327    1.2780327

           1.2788048    1.2788048    1.2800542    1.2800542    1.2802338
           1.2802338    1.2833068    1.2833068    1.2837783    1.2837783
           1.2864882    1.2864882    1.2866186    1.2866186    1.2916060
           1.2916060    1.2927031    1.2927031    1.2942523    1.2942523
           1.2945414    1.2945414    1.2964406    1.2964406    1.2986652
           1.2986652    1.2994614    1.2994614    1.2998342    1.2998342
           1.3120651    1.3120651    1.3215113    1.3215113    1.3294245
           1.3294245    1.3313440    1.3313440    1.3335042    1.3335042

           1.3487870    1.3487870    1.3570439    1.3570439    1.3580122
           1.3580122    1.3678543    1.3678543    1.3684557    1.3684557
           1.3735922    1.3735922    1.3800618    1.3800618    1.3872525
           1.3872525    1.3905807    1.3905807    1.3996118    1.3996118
           1.4008038    1.4008038    1.4043499    1.4043499    1.4073866
           1.4073866    1.4103754    1.4103754    1.4262386    1.4262386
           1.4417168    1.4417168    1.4420042    1.4420042    1.4675186
           1.4675186    1.4811675    1.4811675    1.4893275    1.4893275

           1.5040201    1.5040201    1.5139280    1.5139280    1.5274002
           1.5274002    1.5333287    1.5333287    1.5344829    1.5344829
           1.5460719    1.5460719    1.5501502    1.5501502    1.5600332
           1.5600332    1.5776198    1.5776198    1.5795855    1.5795855
           1.6043299    1.6043299    1.6051621    1.6051621    1.6375111
           1.6375111    1.6514890    1.6514890    1.6515538    1.6515538
           1.6617270    1.6617270    1.6628964    1.6628964    1.6690682
           1.6690682    1.6838671    1.6838671    1.6974833    1.6974833

           1.7006143    1.7006143    1.7056069    1.7056069    1.7210362
           1.7210362    1.7382944    1.7382944    1.7510667    1.7510667
           1.7584429    1.7584429    1.7668872    1.7668872    1.7832016
           1.7832016    1.7839392    1.7839392    1.7943791    1.7943791
           1.7979690    1.7979690    1.7996293    1.7996293    1.8169567
           1.8169567    1.8214492    1.8214492    1.8357120    1.8357120
           1.8439650    1.8439650    1.8561327    1.8561327    1.8753053
           1.8753053    1.8757163    1.8757163    1.8867927    1.8867927

           1.9121617    1.9121617    1.9162944    1.9162944    1.9564003
           1.9564003    1.9599810    1.9599810    1.9914468    1.9914468
           2.0231819    2.0231819    2.0388394    2.0388394    2.0521729
           2.0521729    2.0846001    2.0846001    2.0894194    2.0894194
           2.1015489    2.1015489    2.1028047    2.1028047    2.1198587
           2.1198587    2.1217809    2.1217809    2.1323771    2.1323771
           2.1547377    2.1547377    2.1658840    2.1658840    2.1831991
           2.1831991    2.2064153    2.2064153    2.2071473    2.2071473

           2.2272362    2.2272362    2.2376729    2.2376729    2.2448593
           2.2448593    2.2657093    2.2657093    2.2825652    2.2825652
           2.2887362    2.2887362    2.3023147    2.3023147    2.3074614
           2.3074614    2.3307880    2.3307880    2.3443720    2.3443720
           2.3579855    2.3579855    2.3592397    2.3592397    2.3661820
           2.3661820    2.3770946    2.3770946    2.3984041    2.3984041
           2.4089529    2.4089529    2.4419827    2.4419827    2.4517891
           2.4517891    2.4599051    2.4599051    2.4649310    2.4649310

           2.4776331    2.4776331    2.4829091    2.4829091    2.5001627
           2.5001627    2.5081067    2.5081067    2.5340110    2.5340110
           2.5391364    2.5391364    2.5487726    2.5487726    2.5546774
           2.5546774    2.5696494    2.5696494    2.5833726    2.5833726
           2.5932147    2.5932147    2.5933980    2.5933980    2.6062778
           2.6062778    2.6165540    2.6165540    2.6241728    2.6241728
           2.6331226    2.6331226    2.6348446    2.6348446    2.6581084
           2.6581084    2.6609231    2.6609231    2.6789053    2.6789053

           2.6942853    2.6942853    2.6966463    2.6966463    2.7056573
           2.7056573    2.7125384    2.7125384    2.7235680    2.7235680
           2.7313751    2.7313751    2.7368408    2.7368408    2.7474768
           2.7474768    2.7528202    2.7528202    2.7531288    2.7531288
           2.7693148    2.7693148    2.7747840    2.7747840    2.7912782
           2.7912782    2.8011680    2.8011680    2.8151554    2.8151554
           2.8225410    2.8225410    2.8323180    2.8323180    2.8432587
           2.8432587    2.8494018    2.8494018    2.8641912    2.8641912

           2.8716880    2.8716880    2.8779857    2.8779857    2.8853529
           2.8853529    2.8943891    2.8943891    2.9032380    2.9032380
           2.9191692    2.9191692    2.9314208    2.9314208    2.9375237
           2.9375237    2.9437596    2.9437596    2.9547496    2.9547496
           2.9673714    2.9673714    2.9743716    2.9743716    2.9975387
           2.9975387    3.0009322    3.0009322    3.0154049    3.0154049
           3.0290040    3.0290040    3.0327094    3.0327094    3.0459378
           3.0459378    3.0470844    3.0470844    3.0526685    3.0526685

           3.0646687    3.0646687    3.0735752    3.0735752    3.0806976
           3.0806976    3.0810955    3.0810955    3.0989667    3.0989667
           3.1003579    3.1003579    3.1074072    3.1074072    3.1287500
           3.1287500    3.1464698    3.1464698    3.1514242    3.1514242
           3.1514313    3.1514313    3.1643698    3.1643698    3.1824832
           3.1824832    3.1854651    3.1854651    3.1989483    3.1989483
           3.2192160    3.2192160    3.2270832    3.2270832    3.2291672
           3.2291672    3.2416953    3.2416953    3.2430095    3.2430095

           3.2515927    3.2515927    3.2538628    3.2538628    3.2620335
           3.2620335    3.2691463    3.2691463    3.3060218    3.3060218
           3.3070647    3.3070647    3.3152450    3.3152450    3.3279479
           3.3279479    3.3435641    3.3435641    3.3472370    3.3472370
           3.3483871    3.3483871    3.3588014    3.3588014    3.3632926
           3.3632926    3.3675009    3.3675009    3.3736305    3.3736305
           3.3921013    3.3921013    3.4058371    3.4058371    3.4199515
           3.4199515    3.4209813    3.4209813    3.4330536    3.4330536

           3.4387386    3.4387386    3.4511870    3.4511870    3.4707436
           3.4707436    3.4725501    3.4725501    3.4735660    3.4735660
           3.4866482    3.4866482    3.4961886    3.4961886    3.4996354
           3.4996354    3.5202127    3.5202127    3.5220205    3.5220205
           3.5279448    3.5279448    3.5367909    3.5367909    3.5407356
           3.5407356    3.5600977    3.5600977    3.5645561    3.5645561
           3.5783252    3.5783252    3.5787644    3.5787644    3.5843501
           3.5843501    3.5990382    3.5990382    3.6058823    3.6058823

           3.6245014    3.6245014    3.6285633    3.6285633    3.6305841
           3.6305841    3.6459933    3.6459933    3.6559952    3.6559952
           3.6673089    3.6673089    3.6751794    3.6751794    3.6799638
           3.6799638    3.6867523    3.6867523    3.6950162    3.6950162
           3.6998214    3.6998214    3.7110516    3.7110516    3.7178393
           3.7178393    3.7187280    3.7187280    3.7315593    3.7315593
           3.7434724    3.7434724    3.7435872    3.7435872    3.7493686
           3.7493686    3.7594603    3.7594603    3.7666179    3.7666179

           3.7728357    3.7728357    3.7760389    3.7760389    3.7823077
           3.7823077    3.7898071    3.7898071    3.8015099    3.8015099
           3.8070460    3.8070460    3.8169280    3.8169280    3.8231208
           3.8231208    3.8241750    3.8241750    3.8363339    3.8363339
           3.8385089    3.8385089    3.8655844    3.8655844    3.8680629
           3.8680629    3.8748332    3.8748332    3.8790867    3.8790867
           3.8823154    3.8823154    3.8854360    3.8854360    3.8934065
           3.8934065    3.9057396    3.9057396    3.9112073    3.9112073

           3.9257453    3.9257453    3.9448919    3.9448919    3.9532922
           3.9532922    3.9648931    3.9648931    3.9707297    3.9707297
           3.9771966    3.9771966    3.9808807    3.9808807    4.0040975
           4.0040975    4.0064959    4.0064959    4.0179407    4.0179407
           4.0230871    4.0230871    4.0321351    4.0321351    4.0415388
           4.0415388    4.0462513    4.0462513    4.0656621    4.0656621
           4.0680187    4.0680187    4.0861771    4.0861771    4.0903365
           4.0903365    4.0977342    4.0977342    4.1037368    4.1037368

           4.1068776    4.1068776    4.1107374    4.1107374    4.1202259
           4.1202259    4.1267638    4.1267638    4.1383000    4.1383000
           4.1441837    4.1441837    4.1473527    4.1473527    4.1524936
           4.1524936    4.1593988    4.1593988    4.1712921    4.1712921
           4.1788528    4.1788528    4.1835824    4.1835824    4.1890114
           4.1890114    4.1922032    4.1922032    4.2038507    4.2038507
           4.2098621    4.2098621    4.2150998    4.2150998    4.2213714
           4.2213714    4.2226579    4.2226579    4.2287604    4.2287604

           4.2318974    4.2318974    4.2323476    4.2323476    4.2403141
           4.2403141    4.2414146    4.2414146    4.2505667    4.2505667
           4.2526581    4.2526581    4.2587337    4.2587337    4.2631927
           4.2631927    4.2675307    4.2675307    4.2680382    4.2680382
           4.2798005    4.2798005    4.2864225    4.2864225    4.2992369
           4.2992369    4.3116933    4.3116933    4.3135320    4.3135320
           4.3146356    4.3146356    4.3259794    4.3259794    4.3280937
           4.3280937    4.3316117    4.3316117    4.3364850    4.3364850

           4.3412303    4.3412303    4.3478326    4.3478326    4.3518892
           4.3518892    4.3567984    4.3567984    4.3571816    4.3571816
           4.3598444    4.3598444    4.3823478    4.3823478    4.3841020
           4.3841020    4.4045227    4.4045227    4.4115020    4.4115020
           4.4118455    4.4118455    4.4243440    4.4243440    4.4245580
           4.4245580    4.4398905    4.4398905    4.4426965    4.4426965
           4.4590705    4.4590705    4.4779326    4.4779326    4.4906361
           4.4906361    4.4945746    4.4945746
       ********************************************************

------- alpha_Pu_8.scf2 --------
:GMA  : POTENTIAL AND CHARGE CUT-OFF  12.00 Ry**.5
         Bandranges (emin - emax) and occupancy:
:BAN00250: 250    1.158109    1.166148  1.00000000
:BAN00251: 251    1.159467    1.167546  1.00000000
:BAN00252: 252    1.159467    1.167546  1.00000000
:BAN00253: 253    1.161233    1.169566  0.94281292
:BAN00254: 254    1.161233    1.169566  0.94281292
:BAN00255: 255    1.163762    1.170248  0.69995450
:BAN00256: 256    1.163762    1.170248  0.69995450
:BAN00257: 257    1.165801    1.172179  0.35476685
:BAN00258: 258    1.165801    1.172179  0.35476685
:BAN00259: 259    1.168070    1.173406  0.00246572
:BAN00260: 260    1.168070    1.173406  0.00246572
:BAN00261: 261    1.170305    1.176375  0.00000000
:BAN00262: 262    1.170305    1.176375  0.00000000
:BAN00263: 263    1.173652    1.178274  0.00000000
:BAN00264: 264    1.173652    1.178274  0.00000000
:BAN00265: 265    1.175094    1.181043  0.00000000
        Energy to separate low and high energystates:    0.75678


:NLDA  : NUMBER OF ELECTRONS          = 256.000

:FLDA  : F E R M I - ENERGY           =   1.66825




:POS001: AT.NR.  -1 POSITION = 0.33900 0.25000 0.15650  MULTIPLICITY =  2

       LMMAX 28
       LM=   0 0  1 1 -1 1  2 0  2 2 -2 2  3 1 -3 1  3 3 -3 3  4 0  4 2 -4 2  4 4 -4 4  5 1 -5 1
         5 3 -5 3  5 5 -5 5  6 0  6 2 -6 2  6 4 -6 4  6 6 -6 6




:POS002: AT.NR.  -2 POSITION = 0.33900 0.25000 0.15650  MULTIPLICITY =  2

       LMMAX 28
       LM=   0 0  1 1 -1 1  2 0  2 2 -2 2  3 1 -3 1  3 3 -3 3  4 0  4 2 -4 2  4 4 -4 4  5 1 -5 1
         5 3 -5 3  5 5 -5 5  6 0  6 2 -6 2  6 4 -6 4  6 6 -6 6




:POS003: AT.NR.  -3 POSITION = 0.33900 0.25000 0.15650  MULTIPLICITY =  2

       LMMAX 28
       LM=   0 0  1 1 -1 1  2 0  2 2 -2 2  3 1 -3 1  3 3 -3 3  4 0  4 2 -4 2  4 4 -4 4  5 1 -5 1
         5 3 -5 3  5 5 -5 5  6 0  6 2 -6 2  6 4 -6 4  6 6 -6 6




:POS004: AT.NR.  -4 POSITION = 0.33900 0.25000 0.15650  MULTIPLICITY =  2

       LMMAX 28
       LM=   0 0  1 1 -1 1  2 0  2 2 -2 2  3 1 -3 1  3 3 -3 3  4 0  4 2 -4 2  4 4 -4 4  5 1 -5 1
         5 3 -5 3  5 5 -5 5  6 0  6 2 -6 2  6 4 -6 4  6 6 -6 6




:POS005: AT.NR.  -5 POSITION = 0.33900 0.25000 0.15650  MULTIPLICITY =  2

       LMMAX 28
       LM=   0 0  1 1 -1 1  2 0  2 2 -2 2  3 1 -3 1  3 3 -3 3  4 0  4 2 -4 2  4 4 -4 4  5 1 -5 1
         5 3 -5 3  5 5 -5 5  6 0  6 2 -6 2  6 4 -6 4  6 6 -6 6




:POS006: AT.NR.  -6 POSITION = 0.33900 0.25000 0.15650  MULTIPLICITY =  2

       LMMAX 28
       LM=   0 0  1 1 -1 1  2 0  2 2 -2 2  3 1 -3 1  3 3 -3 3  4 0  4 2 -4 2  4 4 -4 4  5 1 -5 1
         5 3 -5 3  5 5 -5 5  6 0  6 2 -6 2  6 4 -6 4  6 6 -6 6




:POS007: AT.NR.  -7 POSITION = 0.33900 0.25000 0.15650  MULTIPLICITY =  2

       LMMAX 28
       LM=   0 0  1 1 -1 1  2 0  2 2 -2 2  3 1 -3 1  3 3 -3 3  4 0  4 2 -4 2  4 4 -4 4  5 1 -5 1
         5 3 -5 3  5 5 -5 5  6 0  6 2 -6 2  6 4 -6 4  6 6 -6 6




:POS008: AT.NR.  -8 POSITION = 0.33900 0.25000 0.15650  MULTIPLICITY =  2

       LMMAX 28
       LM=   0 0  1 1 -1 1  2 0  2 2 -2 2  3 1 -3 1  3 3 -3 3  4 0  4 2 -4 2  4 4 -4 4  5 1 -5 1
         5 3 -5 3  5 5 -5 5  6 0  6 2 -6 2  6 4 -6 4  6 6 -6 6
:FER DMFT Fermi Energy   1.14962
:EORB    2.13036222
:SUM SUM OF DMFT BAND ENERGIES   43.47797816

:CHA001: TOTAL CHARGE INSIDE SPHERE   1 =    11.684088
:PCS001: PARTIAL CHARGES SPHERE =  1 S,P,D,F,PX,PY,PZ,D-Z2,D-X2Y2,D-XY,D-XZ,D-YZ 
:QTL001: 1.9463 4.5743 0.5866 4.5732 2.7691 2.7108 2.7135 0.1034 0.1192 0.1408 0.1357 0.1070
        Q-s-low E-s-low   Q-p-low E-p-low   Q-d-low E-d-low   Q-f-low E-f-low
:EPL001:  1.8778 -2.2058    4.4880 -0.2843    0.0204 -0.1657    0.0094 -0.1640
        Q-s-hi  E-s-hi    Q-p-hi  E-p-hi    Q-d-hi  E-d-hi    Q-f-hi  E-f-hi 
:EPH001:  0.0685  1.0120    0.0863  1.0469    0.5662  1.0520    4.5638  1.1279

                      QXX         QXY         QYY         QZZ       UP TO R

:VZZ001:            10.18856   -15.71038    -7.86553    -2.32303       2.150

:CHA002: TOTAL CHARGE INSIDE SPHERE   2 =    11.625288
:PCS002: PARTIAL CHARGES SPHERE =  2 S,P,D,F,PX,PY,PZ,D-Z2,D-X2Y2,D-XY,D-XZ,D-YZ 
:QTL002: 1.9496 4.5921 0.5153 4.5655 2.7082 2.7863 2.7577 0.0993 0.1034 0.1005 0.1030 0.1246
        Q-s-low E-s-low   Q-p-low E-p-low   Q-d-low E-d-low   Q-f-low E-f-low
:EPL002:  1.8764 -2.2081    4.4957 -0.2818    0.0141 -0.1528    0.0064 -0.1518
        Q-s-hi  E-s-hi    Q-p-hi  E-p-hi    Q-d-hi  E-d-hi    Q-f-hi  E-f-hi 
:EPH002:  0.0732  1.0074    0.0963  1.0484    0.5012  1.0551    4.5592  1.1328

                      QXX         QXY         QYY         QZZ       UP TO R

:VZZ002:           -25.22027    16.44663    14.76777    10.45250       2.150

:CHA003: TOTAL CHARGE INSIDE SPHERE   3 =    11.631507
:PCS003: PARTIAL CHARGES SPHERE =  3 S,P,D,F,PX,PY,PZ,D-Z2,D-X2Y2,D-XY,D-XZ,D-YZ 
:QTL003: 1.9483 4.5856 0.5315 4.5633 2.7516 2.7490 2.7574 0.1030 0.1148 0.1013 0.1195 0.1092
        Q-s-low E-s-low   Q-p-low E-p-low   Q-d-low E-d-low   Q-f-low E-f-low
:EPL003:  1.8765 -2.2067    4.4929 -0.2811    0.0147 -0.1518    0.0067 -0.1428
        Q-s-hi  E-s-hi    Q-p-hi  E-p-hi    Q-d-hi  E-d-hi    Q-f-hi  E-f-hi 
:EPH003:  0.0718  1.0040    0.0926  1.0517    0.5168  1.0549    4.5567  1.1300

                      QXX         QXY         QYY         QZZ       UP TO R

:VZZ003:            -4.09020   -13.33365     1.82395     2.26625       2.150

:CHA004: TOTAL CHARGE INSIDE SPHERE   4 =    11.618236
:PCS004: PARTIAL CHARGES SPHERE =  4 S,P,D,F,PX,PY,PZ,D-Z2,D-X2Y2,D-XY,D-XZ,D-YZ 
:QTL004: 1.9519 4.5916 0.5151 4.5571 2.7631 2.7574 2.7547 0.1021 0.1018 0.1061 0.1046 0.1154
        Q-s-low E-s-low   Q-p-low E-p-low   Q-d-low E-d-low   Q-f-low E-f-low
:EPL004:  1.8761 -2.2082    4.4912 -0.2822    0.0131 -0.1562    0.0059 -0.1485
        Q-s-hi  E-s-hi    Q-p-hi  E-p-hi    Q-d-hi  E-d-hi    Q-f-hi  E-f-hi 
:EPH004:  0.0758  1.0076    0.1004  1.0491    0.5020  1.0537    4.5512  1.1304

                      QXX         QXY         QYY         QZZ       UP TO R

:VZZ004:            -1.26661    11.30307     2.15914    -0.89253       2.150

:CHA005: TOTAL CHARGE INSIDE SPHERE   5 =    11.617013
:PCS005: PARTIAL CHARGES SPHERE =  5 S,P,D,F,PX,PY,PZ,D-Z2,D-X2Y2,D-XY,D-XZ,D-YZ 
:QTL005: 1.9493 4.5953 0.5152 4.5546 2.7138 2.7932 2.7661 0.0999 0.1011 0.1018 0.1028 0.1248
        Q-s-low E-s-low   Q-p-low E-p-low   Q-d-low E-d-low   Q-f-low E-f-low
:EPL005:  1.8762 -2.2079    4.4949 -0.2810    0.0132 -0.1524    0.0060 -0.1523
        Q-s-hi  E-s-hi    Q-p-hi  E-p-hi    Q-d-hi  E-d-hi    Q-f-hi  E-f-hi 
:EPH005:  0.0731  1.0063    0.1004  1.0491    0.5020  1.0551    4.5486  1.1354

                      QXX         QXY         QYY         QZZ       UP TO R

:VZZ005:           -39.02246     5.90736    28.26100    10.76146       2.150

:CHA006: TOTAL CHARGE INSIDE SPHERE   6 =    11.609486
:PCS006: PARTIAL CHARGES SPHERE =  6 S,P,D,F,PX,PY,PZ,D-Z2,D-X2Y2,D-XY,D-XZ,D-YZ 
:QTL006: 1.9489 4.5921 0.4997 4.5664 2.7480 2.7611 2.7564 0.0932 0.0979 0.1079 0.1047 0.1105
        Q-s-low E-s-low   Q-p-low E-p-low   Q-d-low E-d-low   Q-f-low E-f-low
:EPL006:  1.8759 -2.2094    4.4971 -0.2816    0.0120 -0.1464    0.0053 -0.1416
        Q-s-hi  E-s-hi    Q-p-hi  E-p-hi    Q-d-hi  E-d-hi    Q-f-hi  E-f-hi 
:EPH006:  0.0731  0.9984    0.0950  1.0475    0.4877  1.0544    4.5611  1.1371

                      QXX         QXY         QYY         QZZ       UP TO R

:VZZ006:            -5.01071    -9.94747    -0.15410     5.16481       2.150

:CHA007: TOTAL CHARGE INSIDE SPHERE   7 =    11.637650
:PCS007: PARTIAL CHARGES SPHERE =  7 S,P,D,F,PX,PY,PZ,D-Z2,D-X2Y2,D-XY,D-XZ,D-YZ 
:QTL007: 1.9459 4.5902 0.5326 4.5659 2.7523 2.7267 2.7613 0.1050 0.0888 0.1209 0.1278 0.1072
        Q-s-low E-s-low   Q-p-low E-p-low   Q-d-low E-d-low   Q-f-low E-f-low
:EPL007:  1.8770 -2.2063    4.4960 -0.2806    0.0160 -0.1675    0.0074 -0.1616
        Q-s-hi  E-s-hi    Q-p-hi  E-p-hi    Q-d-hi  E-d-hi    Q-f-hi  E-f-hi 
:EPH007:  0.0690  1.0036    0.0942  1.0474    0.5166  1.0546    4.5585  1.1275

                      QXX         QXY         QYY         QZZ       UP TO R

:VZZ007:             7.49987     7.82939   -14.38605     6.88618       2.150

:CHA008: TOTAL CHARGE INSIDE SPHERE   8 =    11.563702
:PCS008: PARTIAL CHARGES SPHERE =  8 S,P,D,F,PX,PY,PZ,D-Z2,D-X2Y2,D-XY,D-XZ,D-YZ 
:QTL008: 1.9497 4.6134 0.4208 4.5782 2.7328 2.7913 2.7742 0.0878 0.0724 0.0840 0.0897 0.0979
        Q-s-low E-s-low   Q-p-low E-p-low   Q-d-low E-d-low   Q-f-low E-f-low
:EPL008:  1.8747 -2.2101    4.5068 -0.2783    0.0069 -0.1373    0.0030 -0.1410
        Q-s-hi  E-s-hi    Q-p-hi  E-p-hi    Q-d-hi  E-d-hi    Q-f-hi  E-f-hi 
:EPH008:  0.0751  1.0008    0.1066  1.0461    0.4139  1.0560    4.5752  1.1414

                      QXX         QXY         QYY         QZZ       UP TO R

:VZZ008:           -39.33658     3.56275    26.46419    12.87239       2.150

:CHA  : TOTAL CHARGE INSIDE UNIT CELL =     256.000000

:ESUM  : SUM OF EIGENVALUES =          45.860322586


------- alpha_Pu_8.scfc --------

        1.ATOM      Pu  0+               21 CORE STATES
       CORE-FORCE in mRy/a.u. = |F|      Fx             Fy             Fz
:FCO001:   1.ATOM       3030.627      -2787.210      -1190.027          0.000

:1S 001: 1S               -8966.582104990 Ry
:2S 001: 2S               -1687.254242732 Ry
:2PP001: 2P*              -1627.948014204 Ry
:2P 001: 2P               -1314.796435870 Ry
:3S 001: 3S                -427.794331162 Ry
:3PP001: 3P*               -400.870036745 Ry
:3P 001: 3P                -328.308582417 Ry
:3DD001: 3D*               -286.068729494 Ry
:3D 001: 3D                -271.526435949 Ry
:4S 001: 4S                -109.275728508 Ry
:4PP001: 4P*                -97.087898908 Ry
:4P 001: 4P                 -77.942634113 Ry
:4DD001: 4D*                -58.655224085 Ry
:4D 001: 4D                 -55.160667925 Ry
:5S 001: 5S                 -23.431753350 Ry
:5PP001: 5P*                -18.613989307 Ry
:5P 001: 5P                 -13.925482564 Ry
:4FF001: 4F*                -29.760449900 Ry
:4F 001: 4F                 -28.832396929 Ry
:5DD001: 5D*                 -6.890687100 Ry
:5D 001: 5D                  -6.191845881 Ry

        2.ATOM      Pu  0+               21 CORE STATES
       CORE-FORCE in mRy/a.u. = |F|      Fx             Fy             Fz
:FCO002:   2.ATOM       1123.531         64.661      -1121.669          0.000

:1S 002: 1S               -8966.578312035 Ry
:2S 002: 2S               -1687.250794246 Ry
:2PP002: 2P*              -1627.944596061 Ry
:2P 002: 2P               -1314.792991809 Ry
:3S 002: 3S                -427.789880203 Ry
:3PP002: 3P*               -400.865637174 Ry
:3P 002: 3P                -328.304121654 Ry
:3DD002: 3D*               -286.064434377 Ry
:3D 002: 3D                -271.522099204 Ry
:4S 002: 4S                -109.271626682 Ry
:4PP002: 4P*                -97.083797838 Ry
:4P 002: 4P                 -77.938628832 Ry
:4DD002: 4D*                -58.651224913 Ry
:4D 002: 4D                 -55.156692927 Ry
:5S 002: 5S                 -23.428504614 Ry
:5PP002: 5P*                -18.610861311 Ry
:5P 002: 5P                 -13.922765978 Ry
:4FF002: 4F*                -29.756328063 Ry
:4F 002: 4F                 -28.828290006 Ry
:5DD002: 5D*                 -6.888514271 Ry
:5D 002: 5D                  -6.189847722 Ry

        3.ATOM      Pu  0+               21 CORE STATES
       CORE-FORCE in mRy/a.u. = |F|      Fx             Fy             Fz
:FCO003:   3.ATOM       5142.524      -3789.717      -3476.148          0.000

:1S 003: 1S               -8966.578698301 Ry
:2S 003: 2S               -1687.251024929 Ry
:2PP003: 2P*              -1627.944834232 Ry
:2P 003: 2P               -1314.793221199 Ry
:3S 003: 3S                -427.790290631 Ry
:3PP003: 3P*               -400.866039379 Ry
:3P 003: 3P                -328.304532980 Ry
:3DD003: 3D*               -286.064810640 Ry
:3D 003: 3D                -271.522483154 Ry
:4S 003: 4S                -109.271949347 Ry
:4PP003: 4P*                -97.084120660 Ry
:4P 003: 4P                 -77.938927621 Ry
:4DD003: 4D*                -58.651521660 Ry
:4D 003: 4D                 -55.156983315 Ry
:5S 003: 5S                 -23.428597476 Ry
:5PP003: 5P*                -18.610923037 Ry
:5P 003: 5P                 -13.922719894 Ry
:4FF003: 4F*                -29.756648742 Ry
:4F 003: 4F                 -28.828607003 Ry
:5DD003: 5D*                 -6.888313374 Ry
:5D 003: 5D                  -6.189595523 Ry

        4.ATOM      Pu  0+               21 CORE STATES
       CORE-FORCE in mRy/a.u. = |F|      Fx             Fy             Fz
:FCO004:   4.ATOM       2805.791       2763.756        483.854          0.000

:1S 004: 1S               -8966.578365871 Ry
:2S 004: 2S               -1687.251072592 Ry
:2PP004: 2P*              -1627.944832208 Ry
:2P 004: 2P               -1314.793272453 Ry
:3S 004: 3S                -427.790335415 Ry
:3PP004: 3P*               -400.866081186 Ry
:3P 004: 3P                -328.304580071 Ry
:3DD004: 3D*               -286.064880979 Ry
:3D 004: 3D                -271.522552124 Ry
:4S 004: 4S                -109.272060721 Ry
:4PP004: 4P*                -97.084231383 Ry
:4P 004: 4P                 -77.939057627 Ry
:4DD004: 4D*                -58.651656537 Ry
:4D 004: 4D                 -55.157123956 Ry
:5S 004: 5S                 -23.428925729 Ry
:5PP004: 5P*                -18.611271033 Ry
:5P 004: 5P                 -13.923135659 Ry
:4FF004: 4F*                -29.756777848 Ry
:4F 004: 4F                 -28.828738941 Ry
:5DD004: 5D*                 -6.888815715 Ry
:5D 004: 5D                  -6.190125088 Ry

        5.ATOM      Pu  0+               21 CORE STATES
       CORE-FORCE in mRy/a.u. = |F|      Fx             Fy             Fz
:FCO005:   5.ATOM       1836.417       -871.100      -1616.667          0.000

:1S 005: 1S               -8966.578594341 Ry
:2S 005: 2S               -1687.251315616 Ry
:2PP005: 2P*              -1627.945059140 Ry
:2P 005: 2P               -1314.793510649 Ry
:3S 005: 3S                -427.790655258 Ry
:3PP005: 3P*               -400.866395187 Ry
:3P 005: 3P                -328.304901091 Ry
:3DD005: 3D*               -286.065192202 Ry
:3D 005: 3D                -271.522866684 Ry
:4S 005: 4S                -109.272384479 Ry
:4PP005: 4P*                -97.084554454 Ry
:4P 005: 4P                 -77.939379631 Ry
:4DD005: 4D*                -58.651978401 Ry
:4D 005: 4D                 -55.157445779 Ry
:5S 005: 5S                 -23.429237460 Ry
:5PP005: 5P*                -18.611575413 Ry
:5P 005: 5P                 -13.923414307 Ry
:4FF005: 4F*                -29.757106726 Ry
:4F 005: 4F                 -28.829067621 Ry
:5DD005: 5D*                 -6.889048644 Ry
:5D 005: 5D                  -6.190342488 Ry

        6.ATOM      Pu  0+               21 CORE STATES
       CORE-FORCE in mRy/a.u. = |F|      Fx             Fy             Fz
:FCO006:   6.ATOM       4972.526      -4126.119      -2775.096          0.000

:1S 006: 1S               -8966.578475662 Ry
:2S 006: 2S               -1687.250778811 Ry
:2PP006: 2P*              -1627.944638917 Ry
:2P 006: 2P               -1314.792976931 Ry
:3S 006: 3S                -427.789442255 Ry
:3PP006: 3P*               -400.865224261 Ry
:3P 006: 3P                -328.303677133 Ry
:3DD006: 3D*               -286.064040494 Ry
:3D 006: 3D                -271.521688649 Ry
:4S 006: 4S                -109.271261885 Ry
:4PP006: 4P*                -97.083434222 Ry
:4P 006: 4P                 -77.938285362 Ry
:4DD006: 4D*                -58.650880203 Ry
:4D 006: 4D                 -55.156352389 Ry
:5S 006: 5S                 -23.428276687 Ry
:5PP006: 5P*                -18.610662929 Ry
:5P 006: 5P                 -13.922666979 Ry
:4FF006: 4F*                -29.755937451 Ry
:4F 006: 4F                 -28.827902700 Ry
:5DD006: 5D*                 -6.888544522 Ry
:5D 006: 5D                  -6.189918958 Ry

        7.ATOM      Pu  0+               21 CORE STATES
       CORE-FORCE in mRy/a.u. = |F|      Fx             Fy             Fz
:FCO007:   7.ATOM       4710.986       3201.331      -3456.135          0.000

:1S 007: 1S               -8966.578531967 Ry
:2S 007: 2S               -1687.250864970 Ry
:2PP007: 2P*              -1627.944663010 Ry
:2P 007: 2P               -1314.793056565 Ry
:3S 007: 3S                -427.790158732 Ry
:3PP007: 3P*               -400.865904780 Ry
:3P 007: 3P                -328.304400761 Ry
:3DD007: 3D*               -286.064676300 Ry
:3D 007: 3D                -271.522349992 Ry
:4S 007: 4S                -109.271818256 Ry
:4PP007: 4P*                -97.083989117 Ry
:4P 007: 4P                 -77.938795518 Ry
:4DD007: 4D*                -58.651389665 Ry
:4D 007: 4D                 -55.156851240 Ry
:5S 007: 5S                 -23.428463061 Ry
:5PP007: 5P*                -18.610788343 Ry
:5P 007: 5P                 -13.922585976 Ry
:4FF007: 4F*                -29.756519111 Ry
:4F 007: 4F                 -28.828477269 Ry
:5DD007: 5D*                 -6.888190640 Ry
:5D 007: 5D                  -6.189477669 Ry

        8.ATOM      Pu  0+               21 CORE STATES
       CORE-FORCE in mRy/a.u. = |F|      Fx             Fy             Fz
:FCO008:   8.ATOM        820.640       -769.323       -285.645          0.000

:1S 008: 1S               -8966.570035095 Ry
:2S 008: 2S               -1687.242311404 Ry
:2PP008: 2P*              -1627.936293581 Ry
:2P 008: 2P               -1314.784511679 Ry
:3S 008: 3S                -427.779422982 Ry
:3PP008: 3P*               -400.855288407 Ry
:3P 008: 3P                -328.293641708 Ry
:3DD008: 3D*               -286.054224809 Ry
:3D 008: 3D                -271.511810939 Ry
:4S 008: 4S                -109.261744250 Ry
:4PP008: 4P*                -97.073918145 Ry
:4P 008: 4P                 -77.928904742 Ry
:4DD008: 4D*                -58.641500233 Ry
:4D 008: 4D                 -55.147005909 Ry
:5S 008: 5S                 -23.419942253 Ry
:5PP008: 5P*                -18.602516818 Ry
:5P 008: 5P                 -13.915168566 Ry
:4FF008: 4F*                -29.746372571 Ry
:4F 008: 4F                 -28.818359070 Ry
:5DD008: 5D*                 -6.881957960 Ry
:5D 008: 5D                  -6.183633717 Ry

------- alpha_Pu_8.scfm --------

       DENSITY AT NUCLEUS
        JATOM    VALENCE       SEMI-CORE            CORE           TOTAL
:RTO001:   1    23431.022488        0.000000 45141822.009117 45165253.031605
:RTO002:   2    23493.780882        0.000000 45141815.360515 45165309.141396
:RTO003:   3    23473.199213        0.000000 45141817.587856 45165290.787070
:RTO004:   4    23538.859265        0.000000 45141814.353669 45165353.212934
:RTO005:   5    23492.714293        0.000000 45141814.583966 45165307.298259
:RTO006:   6    23482.405281        0.000000 45141815.564965 45165297.970246
:RTO007:   7    23426.999523        0.000000 45141817.725112 45165244.724635
:RTO008:   8    23484.313069        0.000000 45141808.237567 45165292.550636
     
       CHARGES OF NEW CHARGE DENSITY
:NTO  : TOTAL   INTERSTITIAL CHARGE=   70.0260191
:NTO001: TOTAL   CHARGE IN SPHERE  1 =       89.6748287
:NTO002: TOTAL   CHARGE IN SPHERE  2 =       89.6160281
:NTO003: TOTAL   CHARGE IN SPHERE  3 =       89.6222533
:NTO004: TOTAL   CHARGE IN SPHERE  4 =       89.6089823
:NTO005: TOTAL   CHARGE IN SPHERE  5 =       89.6077632
:NTO006: TOTAL   CHARGE IN SPHERE  6 =       89.6002289
:NTO007: TOTAL   CHARGE IN SPHERE  7 =       89.6283917
:NTO008: TOTAL   CHARGE IN SPHERE  8 =       89.5544164

:NEC01: NUCLEAR AND ELECTRONIC CHARGE   1504.00000  1503.85180     1.00010
     
       CHARGES OF OLD CHARGE DENSITY
:OTO  : TOTAL   INTERSTITIAL CHARGE=   70.5242794
:OTO001: TOTAL   CHARGE IN SPHERE  1 =       89.6491626
:OTO002: TOTAL   CHARGE IN SPHERE  2 =       89.5939427
:OTO003: TOTAL   CHARGE IN SPHERE  3 =       89.6004961
:OTO004: TOTAL   CHARGE IN SPHERE  4 =       89.5888522
:OTO005: TOTAL   CHARGE IN SPHERE  5 =       89.5872500
:OTO006: TOTAL   CHARGE IN SPHERE  6 =       89.5776449
:OTO007: TOTAL   CHARGE IN SPHERE  7 =       89.6058284
:OTO008: TOTAL   CHARGE IN SPHERE  8 =       89.5346833

:NEC02: NUCLEAR AND ELECTRONIC CHARGE   1504.00000  1504.00000     1.00000
     
       CONVERGENCE TEST
:DTO001: TOTAL   DIFFERENCE CHARGE**2 IN SPHERE  1 =  0.0263184
:DTO002: TOTAL   DIFFERENCE CHARGE**2 IN SPHERE  2 =  0.0230124
:DTO003: TOTAL   DIFFERENCE CHARGE**2 IN SPHERE  3 =  0.0229049
:DTO004: TOTAL   DIFFERENCE CHARGE**2 IN SPHERE  4 =  0.0212764
:DTO005: TOTAL   DIFFERENCE CHARGE**2 IN SPHERE  5 =  0.0221381
:DTO006: TOTAL   DIFFERENCE CHARGE**2 IN SPHERE  6 =  0.0232935
:DTO007: TOTAL   DIFFERENCE CHARGE**2 IN SPHERE  7 =  0.0232445
:DTO008: TOTAL   DIFFERENCE CHARGE**2 IN SPHERE  8 =  0.0200045

:DIS  :  CHARGE DISTANCE       ( 0.0263184 for atom    1 spin 1)      0.0227741
:BIG check (qbig,qrms,qtot)    0.877D-02   0.161D-01   0.228D-01
 
******************************************************
* MULTISECANT MIXING VER4 OPTIONS                    *
* Unpredicted Step Limit   0.100000                  *
* Plane Wave Dynamic Rescaling                       *
* Dynamic Regularization active                      *
* Upper Cutoff Lambda  1.0E-01 Lower 3.5E-04         *
* SQRT Multiplicity/Degeneracy                       *
* Max Number of Memory Steps    8                    *
******************************************************
 
:PLANE:  INTERSTITIAL TOTAL      7.44754 DISTAN  1.283E-01 % 
:CHARG:  CLM CHARGE   /ATOM    356.61290 DISTAN  7.620E-03 % 
:MIX  :  PRATT  REGULARIZATION: 3.50E-04  GREED: 0.035
     
       CHARGES OF MIXED CHARGE DENSITY
:CTO  : TOTAL   INTERSTITIAL CHARGE=   70.5120272
:CTO001: TOTAL   CHARGE IN SPHERE  1 =       89.6500609
:CTO002: TOTAL   CHARGE IN SPHERE  2 =       89.5947157
:CTO003: TOTAL   CHARGE IN SPHERE  3 =       89.6012576
:CTO004: TOTAL   CHARGE IN SPHERE  4 =       89.5895567
:CTO005: TOTAL   CHARGE IN SPHERE  5 =       89.5879679
:CTO006: TOTAL   CHARGE IN SPHERE  6 =       89.5784354
:CTO007: TOTAL   CHARGE IN SPHERE  7 =       89.6066181
:CTO008: TOTAL   CHARGE IN SPHERE  8 =       89.5353740

:NEC03: NUCLEAR AND ELECTRONIC CHARGE   1504.00000  1504.00000     1.00000


:ENE  : ********** TOTAL ENERGY IN Ry =      -949675.78550835

       TOTAL FORCE IN mRy/a.u. = |F|     Fx             Fy             Fz     with/without FOR in case.in2
:FOR001:   1.ATOM         94.188         93.916          7.159          0.000 partial forces
:FOR002:   2.ATOM         78.018        -49.605         60.218          0.000 partial forces
:FOR003:   3.ATOM        123.425         92.827         81.344          0.000 partial forces
:FOR004:   4.ATOM         75.061        -63.492        -40.036          0.000 partial forces
:FOR005:   5.ATOM         41.609         35.786         21.229          0.000 partial forces
:FOR006:   6.ATOM        114.669         89.781         71.332          0.000 partial forces
:FOR007:   7.ATOM        130.336       -128.049         24.309          0.000 partial forces
:FOR008:   8.ATOM         53.520         35.611         39.953          0.000 partial forces

       TOTAL FORCE WITH RESPECT TO GLOBAL CARTESIAN COORDINATES:
:FCA001:   1.ATOM                         7.159          0.000         93.916 partial forces
:FCA002:   2.ATOM                        60.218          0.000        -49.605 partial forces
:FCA003:   3.ATOM                        81.344          0.000         92.827 partial forces
:FCA004:   4.ATOM                       -40.036          0.000        -63.492 partial forces
:FCA005:   5.ATOM                        21.229          0.000         35.786 partial forces
:FCA006:   6.ATOM                        71.332          0.000         89.781 partial forces
:FCA007:   7.ATOM                        24.309          0.000       -128.049 partial forces
:FCA008:   8.ATOM                        39.953          0.000         35.611 partial forces

       TOTAL FORCE WITH RESPECT TO THE GLOBAL COORDINATE SYSTEM:
:FGL001:   1.ATOM                 7.313208044     0.000000000    95.409897884 partial forces
:FGL002:   2.ATOM                61.515122498     0.000000000   -37.039063028 partial forces
:FGL003:   3.ATOM                83.096185933     0.000000000   109.801386015 partial forces
:FGL004:   4.ATOM               -40.898393244     0.000000000   -71.846476280 partial forces
:FGL005:   5.ATOM                21.686282100     0.000000000    40.215942475 partial forces
:FGL006:   6.ATOM                72.868523001     0.000000000   104.666140923 partial forces
:FGL007:   7.ATOM                24.832626670     0.000000000  -122.976341296 partial forces
:FGL008:   8.ATOM                40.813605387     0.000000000    43.948156330 partial forces

------- alpha_Pu_8.scf0 --------


            ---------
:ITE083: 83. ITERATION
            ---------

:NATO :    8 INDEPENDENT AND   16 TOTAL ATOMS IN UNITCELL
       SUBSTANCE: alpha_Pu                                                    

       LATTICE                      = P   
:POT  : POTENTIAL OPTION    5
:LAT  : LATTICE CONSTANTS= 12.41394  9.68476 22.01836    1.571    1.777    1.571
:VOL  : UNIT CELL VOLUME =    2591.35995
       MODE OF CALCULATION IS       = RELA
       NON-SPINPOLARIZED CALCULATION
:IFFT  : FFT-parameters:   96   80  180 Factor: 2.00
       ATOMNUMBER=  1 Pu  0+     VCOUL-ZERO =  0.32341E+00
:EFG001:                        EFG         =    19.18925   *10**21  V / m**2
                               V20  TOT/SRF=    -2.05739    -0.04293
                               V22  TOT/SRF=     9.01171     0.05346
                               V22M TOT/SRF=   -15.58332    -0.03386
                               V21  TOT/SRF=     0.00000     0.00000
                               V21M TOT/SRF=     0.00000     0.00000

             10.19955  -15.58332    0.00000       19.18925    0.00000    0.00000
            -15.58332   -7.82388    0.00000        0.00000  -16.81358    0.00000
              0.00000    0.00000   -2.37567        0.00000    0.00000   -2.37567

         MAIN DIRECTIONS OF THE EFG   1.0000  0.5769  0.0000
                                     -0.5769  1.0000  0.0000
                                      0.0000  0.0000  1.0000
:ANG001:  ANGLE WITH OLD X-AXIS =        30.0

:ETA001:                         ASYMM. ETA =     0.75240


       ATOMNUMBER=  2 Pu  0+     VCOUL-ZERO =  0.32230E+00
:EFG002:                        EFG         =   -31.15008   *10**21  V / m**2
                               V20  TOT/SRF=     9.13195     0.01038
                               V22  TOT/SRF=   -19.89711    -0.03899
                               V22M TOT/SRF=    16.54577     0.02930
                               V21  TOT/SRF=     0.00000     0.00000
                               V21M TOT/SRF=     0.00000     0.00000

            -25.16945   16.54577    0.00000      -31.15008    0.00000    0.00000
             16.54577   14.62478    0.00000        0.00000   20.60541    0.00000
              0.00000    0.00000   10.54467        0.00000    0.00000   10.54467

         MAIN DIRECTIONS OF THE EFG   1.0000  0.3615  0.0000
                                     -0.3615  1.0000  0.0000
                                      0.0000  0.0000  1.0000
:ANG002:  ANGLE WITH OLD X-AXIS =        19.9

:ETA002:                         ASYMM. ETA =     0.32298


       ATOMNUMBER=  3 Pu  0+     VCOUL-ZERO =  0.32467E+00
:EFG003:                        EFG         =   -14.69415   *10**21  V / m**2
                               V20  TOT/SRF=     2.03830     0.00011
                               V22  TOT/SRF=    -2.89509    -0.00317
                               V22M TOT/SRF=   -13.20367    -0.00215
                               V21  TOT/SRF=     0.00000     0.00000
                               V21M TOT/SRF=     0.00000     0.00000

             -4.07191  -13.20367    0.00000      -14.69415    0.00000    0.00000
            -13.20367    1.71828    0.00000        0.00000   12.34053    0.00000
              0.00000    0.00000    2.35362        0.00000    0.00000    2.35362

         MAIN DIRECTIONS OF THE EFG   1.0000 -0.8045  0.0000
                                      0.8045  1.0000  0.0000
                                      0.0000  0.0000  1.0000
:ANG003:  ANGLE WITH OLD X-AXIS =        38.8

:ETA003:                         ASYMM. ETA =     0.67965


       ATOMNUMBER=  4 Pu  0+     VCOUL-ZERO =  0.32374E+00
:EFG004:                        EFG         =    11.95072   *10**21  V / m**2
                               V20  TOT/SRF=    -0.72167    -0.01216
                               V22  TOT/SRF=    -1.68658     0.00934
                               V22M TOT/SRF=    11.41009     0.01262
                               V21  TOT/SRF=     0.00000     0.00000
                               V21M TOT/SRF=     0.00000     0.00000

             -1.26992   11.41009    0.00000      -11.11741    0.00000    0.00000
             11.41009    2.10323    0.00000        0.00000   11.95072    0.00000
              0.00000    0.00000   -0.83331        0.00000    0.00000   -0.83331

         MAIN DIRECTIONS OF THE EFG   1.0000  0.8631  0.0000
                                     -0.8631  1.0000  0.0000
                                      0.0000  0.0000  1.0000
:ANG004:  ANGLE WITH OLD X-AXIS =        40.8

:ETA004:                         ASYMM. ETA =     0.86054


       ATOMNUMBER=  5 Pu  0+     VCOUL-ZERO =  0.32434E+00
:EFG005:                        EFG         =   -39.77453   *10**21  V / m**2
                               V20  TOT/SRF=     9.36316     0.00687
                               V22  TOT/SRF=   -33.84788    -0.05592
                               V22M TOT/SRF=     5.96062     0.02437
                               V21  TOT/SRF=     0.00000     0.00000
                               V21M TOT/SRF=     0.00000     0.00000

            -39.25370    5.96062    0.00000      -39.77453    0.00000    0.00000
              5.96062   28.44205    0.00000        0.00000   28.96288    0.00000
              0.00000    0.00000   10.81165        0.00000    0.00000   10.81165

         MAIN DIRECTIONS OF THE EFG   1.0000  0.0874  0.0000
                                     -0.0874  1.0000  0.0000
                                      0.0000  0.0000  1.0000
:ANG005:  ANGLE WITH OLD X-AXIS =         5.0

:ETA005:                         ASYMM. ETA =     0.45635


       ATOMNUMBER=  6 Pu  0+     VCOUL-ZERO =  0.32216E+00
:EFG006:                        EFG         =   -12.74129   *10**21  V / m**2
                               V20  TOT/SRF=     4.36960     0.00112
                               V22  TOT/SRF=    -2.23693    -0.00040
                               V22M TOT/SRF=    -9.97066    -0.03366
                               V21  TOT/SRF=     0.00000     0.00000
                               V21M TOT/SRF=     0.00000     0.00000

             -4.75971   -9.97066    0.00000      -12.74129    0.00000    0.00000
             -9.97066   -0.28586    0.00000        0.00000    7.69572    0.00000
              0.00000    0.00000    5.04558        0.00000    0.00000    5.04558

         MAIN DIRECTIONS OF THE EFG   1.0000 -0.8005  0.0000
                                      0.8005  1.0000  0.0000
[...]

                      QXX         QXY         QYY         QZZ       UP TO R

:VZZ004:            -1.41273    11.26646     2.29291    -0.88017       2.150

:CHA005: TOTAL CHARGE INSIDE SPHERE   5 =    11.609536
:PCS005: PARTIAL CHARGES SPHERE =  5 S,P,D,F,PX,PY,PZ,D-Z2,D-X2Y2,D-XY,D-XZ,D-YZ 
:QTL005: 1.9487 4.5908 0.5123 4.5551 2.7098 2.7892 2.7621 0.0993 0.1005 0.1012 0.1022 0.1243
        Q-s-low E-s-low   Q-p-low E-p-low   Q-d-low E-d-low   Q-f-low E-f-low
:EPL005:  1.8758 -2.2024    4.4901 -0.2778    0.0133 -0.1495    0.0060 -0.1497
        Q-s-hi  E-s-hi    Q-p-hi  E-p-hi    Q-d-hi  E-d-hi    Q-f-hi  E-f-hi 
:EPH005:  0.0729  1.0071    0.1007  1.0510    0.4990  1.0570    4.5492  1.1402

                      QXX         QXY         QYY         QZZ       UP TO R

:VZZ005:           -38.59457     5.80188    27.91797    10.67659       2.150

:CHA006: TOTAL CHARGE INSIDE SPHERE   6 =    11.600732
:PCS006: PARTIAL CHARGES SPHERE =  6 S,P,D,F,PX,PY,PZ,D-Z2,D-X2Y2,D-XY,D-XZ,D-YZ 
:QTL006: 1.9484 4.5870 0.4959 4.5672 2.7436 2.7567 2.7519 0.0923 0.0971 0.1071 0.1039 0.1098
        Q-s-low E-s-low   Q-p-low E-p-low   Q-d-low E-d-low   Q-f-low E-f-low
:EPL006:  1.8754 -2.2034    4.4919 -0.2780    0.0121 -0.1439    0.0053 -0.1391
        Q-s-hi  E-s-hi    Q-p-hi  E-p-hi    Q-d-hi  E-d-hi    Q-f-hi  E-f-hi 
:EPH006:  0.0730  0.9991    0.0951  1.0493    0.4838  1.0562    4.5618  1.1417

                      QXX         QXY         QYY         QZZ       UP TO R

:VZZ006:            -5.11182    -9.78363    -0.10928     5.22110       2.150

:CHA007: TOTAL CHARGE INSIDE SPHERE   7 =    11.628203
:PCS007: PARTIAL CHARGES SPHERE =  7 S,P,D,F,PX,PY,PZ,D-Z2,D-X2Y2,D-XY,D-XZ,D-YZ 
:QTL007: 1.9454 4.5854 0.5290 4.5653 2.7477 2.7227 2.7573 0.1042 0.0880 0.1203 0.1272 0.1065
        Q-s-low E-s-low   Q-p-low E-p-low   Q-d-low E-d-low   Q-f-low E-f-low
:EPL007:  1.8766 -2.2004    4.4910 -0.2771    0.0161 -0.1642    0.0074 -0.1585
        Q-s-hi  E-s-hi    Q-p-hi  E-p-hi    Q-d-hi  E-d-hi    Q-f-hi  E-f-hi 
:EPH007:  0.0688  1.0043    0.0944  1.0492    0.5129  1.0565    4.5579  1.1326

                      QXX         QXY         QYY         QZZ       UP TO R

:VZZ007:             7.17772     7.76933   -13.93055     6.75282       2.150

:CHA008: TOTAL CHARGE INSIDE SPHERE   8 =    11.556956
:PCS008: PARTIAL CHARGES SPHERE =  8 S,P,D,F,PX,PY,PZ,D-Z2,D-X2Y2,D-XY,D-XZ,D-YZ 
:QTL008: 1.9492 4.6088 0.4177 4.5797 2.7287 2.7875 2.7702 0.0870 0.0718 0.0834 0.0891 0.0972
        Q-s-low E-s-low   Q-p-low E-p-low   Q-d-low E-d-low   Q-f-low E-f-low
:EPL008:  1.8743 -2.2045    4.5019 -0.2750    0.0070 -0.1337    0.0030 -0.1377
        Q-s-hi  E-s-hi    Q-p-hi  E-p-hi    Q-d-hi  E-d-hi    Q-f-hi  E-f-hi 
:EPH008:  0.0749  1.0015    0.1069  1.0479    0.4107  1.0578    4.5767  1.1449

                      QXX         QXY         QYY         QZZ       UP TO R

:VZZ008:           -39.01183     3.59443    26.18987    12.82196       2.150

:CHA  : TOTAL CHARGE INSIDE UNIT CELL =     256.000000

:ESUM  : SUM OF EIGENVALUES =          46.902095345


------- alpha_Pu_8.scfc --------

        1.ATOM      Pu  0+               21 CORE STATES
       CORE-FORCE in mRy/a.u. = |F|      Fx             Fy             Fz
:FCO001:   1.ATOM       2966.789      -2733.571      -1153.008          0.000

:1S 001: 1S               -8966.570256206 Ry
:2S 001: 2S               -1687.241604425 Ry
:2PP001: 2P*              -1627.935572950 Ry
:2P 001: 2P               -1314.783801120 Ry
:3S 001: 3S                -427.780695991 Ry
:3PP001: 3P*               -400.856462903 Ry
:3P 001: 3P                -328.294936081 Ry
:3DD001: 3D*               -286.055171831 Ry
:3D 001: 3D                -271.512841487 Ry
:4S 001: 4S                -109.262334476 Ry
:4PP001: 4P*                -97.074507319 Ry
:4P 001: 4P                 -77.929307114 Ry
:4DD001: 4D*                -58.641885556 Ry
:4D 001: 4D                 -55.147344176 Ry
:5S 001: 5S                 -23.418878372 Ry
:5PP001: 5P*                -18.601225480 Ry
:5P 001: 5P                 -13.913103551 Ry
:4FF001: 4F*                -29.747001752 Ry
:4F 001: 4F                 -28.818959150 Ry
:5DD001: 5D*                 -6.878888835 Ry
:5D 001: 5D                  -6.180246321 Ry

        2.ATOM      Pu  0+               21 CORE STATES
       CORE-FORCE in mRy/a.u. = |F|      Fx             Fy             Fz
:FCO002:   2.ATOM       1073.479         40.347      -1072.721          0.000

:1S 002: 1S               -8966.568043749 Ry
:2S 002: 2S               -1687.239829198 Ry
:2PP002: 2P*              -1627.933805219 Ry
:2P 002: 2P               -1314.782030170 Ry
:3S 002: 3S                -427.778036822 Ry
:3PP002: 3P*               -400.853848025 Ry
:3P 002: 3P                -328.292268194 Ry
:3DD002: 3D*               -286.052659242 Ry
:3D 002: 3D                -271.510291578 Ry
:4S 002: 4S                -109.259989959 Ry
:4PP002: 4P*                -97.072163354 Ry
:4P 002: 4P                 -77.927050198 Ry
:4DD002: 4D*                -58.639636241 Ry
:4D 002: 4D                 -55.145116988 Ry
:5S 002: 5S                 -23.417317900 Ry
:5PP002: 5P*                -18.599772037 Ry
:5P 002: 5P                 -13.912014333 Ry
:4FF002: 4F*                -29.744643269 Ry
:4F 002: 4F                 -28.816614192 Ry
:5DD002: 5D*                 -6.878273547 Ry
:5D 002: 5D                  -6.179781833 Ry

        3.ATOM      Pu  0+               21 CORE STATES
       CORE-FORCE in mRy/a.u. = |F|      Fx             Fy             Fz
:FCO003:   3.ATOM       5042.189      -3720.890      -3402.741          0.000

:1S 003: 1S               -8966.568539910 Ry
:2S 003: 2S               -1687.240183253 Ry
:2PP003: 2P*              -1627.934164822 Ry
:2P 003: 2P               -1314.782383332 Ry
:3S 003: 3S                -427.778580738 Ry
:3PP003: 3P*               -400.854382972 Ry
:3P 003: 3P                -328.292813630 Ry
:3DD003: 3D*               -286.053168391 Ry
:3D 003: 3D                -271.510808865 Ry
:4S 003: 4S                -109.260452496 Ry
:4PP003: 4P*                -97.072625953 Ry
:4P 003: 4P                 -77.927490066 Ry
:4DD003: 4D*                -58.640074020 Ry
:4D 003: 4D                 -55.145548817 Ry
:5S 003: 5S                 -23.417562765 Ry
:5PP003: 5P*                -18.599986255 Ry
:5P 003: 5P                 -13.912122202 Ry
:4FF003: 4F*                -29.745105501 Ry
:4F 003: 4F                 -28.817072927 Ry
:5DD003: 5D*                 -6.878226681 Ry
:5D 003: 5D                  -6.179683597 Ry

        4.ATOM      Pu  0+               21 CORE STATES
       CORE-FORCE in mRy/a.u. = |F|      Fx             Fy             Fz
:FCO004:   4.ATOM       2761.987       2723.535        459.273          0.000

:1S 004: 1S               -8966.569059676 Ry
:2S 004: 2S               -1687.241134641 Ry
:2PP004: 2P*              -1627.935051846 Ry
:2P 004: 2P               -1314.783337725 Ry
:3S 004: 3S                -427.779613459 Ry
:3PP004: 3P*               -400.855407226 Ry
:3P 004: 3P                -328.293850464 Ry
:3DD004: 3D*               -286.054218892 Ry
:3D 004: 3D                -271.511861393 Ry
:4S 004: 4S                -109.261549557 Ry
:4PP004: 4P*                -97.073721962 Ry
:4P 004: 4P                 -77.928603837 Ry
:4DD004: 4D*                -58.641192950 Ry
:4D 004: 4D                 -55.146673399 Ry
:5S 004: 5S                 -23.418869353 Ry
:5PP004: 5P*                -18.601306794 Ry
:5P 004: 5P                 -13.913490014 Ry
:4FF004: 4F*                -29.746226917 Ry
:4F 004: 4F                 -28.818196893 Ry
:5DD004: 5D*                 -6.879645384 Ry
:5D 004: 5D                  -6.181117304 Ry

        5.ATOM      Pu  0+               21 CORE STATES
       CORE-FORCE in mRy/a.u. = |F|      Fx             Fy             Fz
:FCO005:   5.ATOM       1800.214       -844.386      -1589.901          0.000

:1S 005: 1S               -8966.568768937 Ry
:2S 005: 2S               -1687.240806993 Ry
:2PP005: 2P*              -1627.934721761 Ry
:2P 005: 2P               -1314.783005633 Ry
:3S 005: 3S                -427.779286693 Ry
:3PP005: 3P*               -400.855079697 Ry
:3P 005: 3P                -328.293522926 Ry
:3DD005: 3D*               -286.053890273 Ry
:3D 005: 3D                -271.511532999 Ry
:4S 005: 4S                -109.261222459 Ry
:4PP005: 4P*                -97.073394606 Ry
:4P 005: 4P                 -77.928275446 Ry
:4DD005: 4D*                -58.640864265 Ry
:4D 005: 4D                 -55.146344400 Ry
:5S 005: 5S                 -23.418526379 Ry
:5PP005: 5P*                -18.600960765 Ry
:5P 005: 5P                 -13.913133516 Ry
:4FF005: 4F*                -29.745898291 Ry
:4F 005: 4F                 -28.817868130 Ry
:5DD005: 5D*                 -6.879271225 Ry
:5D 005: 5D                  -6.180737259 Ry

        6.ATOM      Pu  0+               21 CORE STATES
       CORE-FORCE in mRy/a.u. = |F|      Fx             Fy             Fz
:FCO006:   6.ATOM       4849.345      -4029.820      -2697.536          0.000

:1S 006: 1S               -8966.567986703 Ry
:2S 006: 2S               -1687.239587831 Ry
:2PP006: 2P*              -1627.933625216 Ry
:2P 006: 2P               -1314.781789995 Ry
:3S 006: 3S                -427.777356196 Ry
:3PP006: 3P*               -400.853193642 Ry
:3P 006: 3P                -328.291580637 Ry
:3DD006: 3D*               -286.052024501 Ry
:3D 006: 3D                -271.509639444 Ry
:4S 006: 4S                -109.259381228 Ry
:4PP006: 4P*                -97.071555934 Ry
:4P 006: 4P                 -77.926463019 Ry
:4DD006: 4D*                -58.639047860 Ry
:4D 006: 4D                 -55.144532748 Ry
:5S 006: 5S                 -23.416846936 Ry
:5PP006: 5P*                -18.599331891 Ry
:5P 006: 5P                 -13.911678122 Ry
:4FF006: 4F*                -29.744007475 Ry
:4F 006: 4F                 -28.815981726 Ry
:5DD006: 5D*                 -6.878075003 Ry
:5D 006: 5D                  -6.179627132 Ry

        7.ATOM      Pu  0+               21 CORE STATES
       CORE-FORCE in mRy/a.u. = |F|      Fx             Fy             Fz
:FCO007:   7.ATOM       4627.904       3150.421      -3390.037          0.000

:1S 007: 1S               -8966.568236083 Ry
:2S 007: 2S               -1687.239890646 Ry
:2PP007: 2P*              -1627.933859140 Ry
:2P 007: 2P               -1314.782085925 Ry
:3S 007: 3S                -427.778328318 Ry
:3PP007: 3P*               -400.854127093 Ry
:3P 007: 3P                -328.292561102 Ry
:3DD007: 3D*               -286.052912254 Ry
:3D 007: 3D                -271.510554396 Ry
:4S 007: 4S                -109.260199867 Ry
:4PP007: 4P*                -97.072372829 Ry
:4P 007: 4P                 -77.927236154 Ry
:4DD007: 4D*                -58.639820256 Ry
:4D 007: 4D                 -55.145294970 Ry
:5S 007: 5S                 -23.417308270 Ry
:5PP007: 5P*                -18.599731054 Ry
:5P 007: 5P                 -13.911866248 Ry
:4FF007: 4F*                -29.744855441 Ry
:4F 007: 4F                 -28.816822727 Ry
:5DD007: 5D*                 -6.877978592 Ry
:5D 007: 5D                  -6.179439281 Ry

        8.ATOM      Pu  0+               21 CORE STATES
       CORE-FORCE in mRy/a.u. = |F|      Fx             Fy             Fz
:FCO008:   8.ATOM        816.625       -769.640       -273.002          0.000

:1S 008: 1S               -8966.560563663 Ry
:2S 008: 2S               -1687.232191838 Ry
:2PP008: 2P*              -1627.926335924 Ry
:2P 008: 2P               -1314.774395745 Ry
:3S 008: 3S                -427.768495669 Ry
:3PP008: 3P*               -400.844411628 Ry
:3P 008: 3P                -328.282704054 Ry
:3DD008: 3D*               -286.043359966 Ry
:3D 008: 3D                -271.500915966 Ry
:4S 008: 4S                -109.250982704 Ry
:4PP008: 4P*                -97.063158957 Ry
:4P 008: 4P                 -77.918191800 Ry
:4DD008: 4D*                -58.630778507 Ry
:4D 008: 4D                 -55.136294433 Ry
:5S 008: 5S                 -23.409549424 Ry
:5PP008: 5P*                -18.592209465 Ry
:5P 008: 5P                 -13.905158805 Ry
:4FF008: 4F*                -29.735564088 Ry
:4F 008: 4F                 -28.807558079 Ry
:5DD008: 5D*                 -6.872404477 Ry
:5D 008: 5D                  -6.174236515 Ry

------- alpha_Pu_8.scfm --------

       DENSITY AT NUCLEUS
        JATOM    VALENCE       SEMI-CORE            CORE           TOTAL
:RTO001:   1    23397.090378        0.000000 45141821.621256 45165218.711635
:RTO002:   2    23465.650117        0.000000 45141815.067383 45165280.717500
:RTO003:   3    23446.981077        0.000000 45141817.119495 45165264.100573
:RTO004:   4    23513.982423        0.000000 45141813.699001 45165327.681424
:RTO005:   5    23466.678145        0.000000 45141814.207915 45165280.886060
:RTO006:   6    23456.762640        0.000000 45141815.267473 45165272.030113
:RTO007:   7    23400.837000        0.000000 45141817.221927 45165218.058927
:RTO008:   8    23460.209134        0.000000 45141808.325421 45165268.534554
     
       CHARGES OF NEW CHARGE DENSITY
:NTO  : TOTAL   INTERSTITIAL CHARGE=   70.1627450
:NTO001: TOTAL   CHARGE IN SPHERE  1 =       89.6642595
:NTO002: TOTAL   CHARGE IN SPHERE  2 =       89.6073712
:NTO003: TOTAL   CHARGE IN SPHERE  3 =       89.6134875
:NTO004: TOTAL   CHARGE IN SPHERE  4 =       89.6008871
:NTO005: TOTAL   CHARGE IN SPHERE  5 =       89.6002507
:NTO006: TOTAL   CHARGE IN SPHERE  6 =       89.5914373
:NTO007: TOTAL   CHARGE IN SPHERE  7 =       89.6189094
:NTO008: TOTAL   CHARGE IN SPHERE  8 =       89.5476370

:NEC01: NUCLEAR AND ELECTRONIC CHARGE   1504.00000  1503.85122     1.00010
     
       CHARGES OF OLD CHARGE DENSITY
:OTO  : TOTAL   INTERSTITIAL CHARGE=   70.3229829
:OTO001: TOTAL   CHARGE IN SPHERE  1 =       89.6632731
:OTO002: TOTAL   CHARGE IN SPHERE  2 =       89.6066378
:OTO003: TOTAL   CHARGE IN SPHERE  3 =       89.6128439
:OTO004: TOTAL   CHARGE IN SPHERE  4 =       89.6005259
:OTO005: TOTAL   CHARGE IN SPHERE  5 =       89.5996099
:OTO006: TOTAL   CHARGE IN SPHERE  6 =       89.5905188
:OTO007: TOTAL   CHARGE IN SPHERE  7 =       89.6182704
:OTO008: TOTAL   CHARGE IN SPHERE  8 =       89.5468289

:NEC02: NUCLEAR AND ELECTRONIC CHARGE   1504.00000  1504.00000     1.00000
     
       CONVERGENCE TEST
:DTO001: TOTAL   DIFFERENCE CHARGE**2 IN SPHERE  1 =  0.0009416
:DTO002: TOTAL   DIFFERENCE CHARGE**2 IN SPHERE  2 =  0.0007428
:DTO003: TOTAL   DIFFERENCE CHARGE**2 IN SPHERE  3 =  0.0006804
:DTO004: TOTAL   DIFFERENCE CHARGE**2 IN SPHERE  4 =  0.0004549
:DTO005: TOTAL   DIFFERENCE CHARGE**2 IN SPHERE  5 =  0.0006774
:DTO006: TOTAL   DIFFERENCE CHARGE**2 IN SPHERE  6 =  0.0008939
:DTO007: TOTAL   DIFFERENCE CHARGE**2 IN SPHERE  7 =  0.0006674
:DTO008: TOTAL   DIFFERENCE CHARGE**2 IN SPHERE  8 =  0.0007866

:DIS  :  CHARGE DISTANCE       ( 0.0009416 for atom    1 spin 1)      0.0007306
:BIG check (qbig,qrms,qtot)    0.314D-03   0.526D-03   0.731D-03
 
******************************************************
* MULTISECANT MIXING VER4 OPTIONS                    *
* Unpredicted Step Limit   0.100000                  *
* Plane Wave Dynamic Rescaling                       *
* Dynamic Regularization active                      *
* Upper Cutoff Lambda  1.0E-01 Lower 3.5E-04         *
* SQRT Multiplicity/Degeneracy                       *
* Max Number of Memory Steps    8                    *
******************************************************
 
:PLANE:  INTERSTITIAL TOTAL      7.43924 DISTAN  3.903E-03 % 
:CHARG:  CLM CHARGE   /ATOM    356.61335 DISTAN  2.351E-04 % 
:INFO :  Dynamic rescale   2.259E+01  1.000E-01
:INFO :  Number of Memory Steps    8 Skipping   15
:INFO :  Singular value   7.735E+00 Weight   1.000E+00 Projections  -3.018E-03 -3.315E-03
:INFO :  Singular value   8.298E-03 Weight   9.982E-01 Projections   1.632E-03 -1.297E-03
:INFO :  Singular value   6.498E-03 Weight   9.971E-01 Projections   2.295E-03 -2.923E-03
:INFO :  Singular value   2.989E-03 Weight   9.865E-01 Projections   1.117E-03 -3.944E-03
:INFO :  Singular value   1.195E-03 Weight   9.210E-01 Projections   2.682E-03 -2.319E-03
:INFO :  Singular value   4.071E-04 Weight   5.750E-01 Projections   2.055E-03 -2.488E-03
:INFO :  Singular value   2.111E-04 Weight   2.668E-01 Projections  -1.516E-03  6.136E-04
:INFO :  Singular value   9.913E-05 Weight   7.426E-02 Projections   4.131E-03  5.871E-04
:INFO :  Bounds         0.388D-01  0.200D+00  0.299D+01  0.388D-01
:DIRM :  MEMORY 8/8 RESCALE  22.59 RED 1.205 PRED 0.041 NEXT 0.033 COND 9.30E-01
:DIRP :  |BROYD|= 4.394E-04 |PRATT|= 2.548E-04 ANGLE= 130.7 DEGREES
:DIRB :  |BROYD|= 4.817E-04 |PRATT|= 3.644E-04 ANGLE= 133.4 DEGREES
:MIX  :  MSR1   REGULARIZATION: 3.50E-04  GREED: 0.039
     
       CHARGES OF MIXED CHARGE DENSITY
:CTO  : TOTAL   INTERSTITIAL CHARGE=   70.3233160
:CTO001: TOTAL   CHARGE IN SPHERE  1 =       89.6632484
:CTO002: TOTAL   CHARGE IN SPHERE  2 =       89.6066162
:CTO003: TOTAL   CHARGE IN SPHERE  3 =       89.6128236
:CTO004: TOTAL   CHARGE IN SPHERE  4 =       89.6005105
:CTO005: TOTAL   CHARGE IN SPHERE  5 =       89.5995900
:CTO006: TOTAL   CHARGE IN SPHERE  6 =       89.5904957
:CTO007: TOTAL   CHARGE IN SPHERE  7 =       89.6182524
:CTO008: TOTAL   CHARGE IN SPHERE  8 =       89.5468051

:NEC03: NUCLEAR AND ELECTRONIC CHARGE   1504.00000  1504.00000     1.00000


:ENE  : ********** TOTAL ENERGY IN Ry =      -949675.77333653

       TOTAL FORCE IN mRy/a.u. = |F|     Fx             Fy             Fz     with/without FOR in case.in2
:FOR001:   1.ATOM         92.137         92.025          4.549          0.000 partial forces
:FOR002:   2.ATOM         74.856        -50.240         55.492          0.000 partial forces
:FOR003:   3.ATOM        118.029         88.934         77.599          0.000 partial forces
:FOR004:   4.ATOM         72.891        -61.391        -39.297          0.000 partial forces
:FOR005:   5.ATOM         39.956         34.634         19.924          0.000 partial forces
:FOR006:   6.ATOM        107.985         85.549         65.895          0.000 partial forces
:FOR007:   7.ATOM        128.696       -127.366         18.454          0.000 partial forces
:FOR008:   8.ATOM         51.998         35.934         37.584          0.000 partial forces

       TOTAL FORCE WITH RESPECT TO GLOBAL CARTESIAN COORDINATES:
:FCA001:   1.ATOM                         4.549          0.000         92.025 partial forces
:FCA002:   2.ATOM                        55.492          0.000        -50.240 partial forces
:FCA003:   3.ATOM                        77.599          0.000         88.934 partial forces
:FCA004:   4.ATOM                       -39.297          0.000        -61.391 partial forces
:FCA005:   5.ATOM                        19.924          0.000         34.634 partial forces
:FCA006:   6.ATOM                        65.895          0.000         85.549 partial forces
:FCA007:   7.ATOM                        18.454          0.000       -127.366 partial forces
:FCA008:   8.ATOM                        37.584          0.000         35.934 partial forces

       TOTAL FORCE WITH RESPECT TO THE GLOBAL COORDINATE SYSTEM:
:FGL001:   1.ATOM                 4.646987483     0.000000000    92.974258482 partial forces
:FGL002:   2.ATOM                56.687322357     0.000000000   -38.660256826 partial forces
:FGL003:   3.ATOM                79.270516968     0.000000000   105.126901510 partial forces
:FGL004:   4.ATOM               -40.143474855     0.000000000   -69.591266120 partial forces
:FGL005:   5.ATOM                20.353171820     0.000000000    38.791622775 partial forces
:FGL006:   6.ATOM                67.314407603     0.000000000    99.299579840 partial forces
:FGL007:   7.ATOM                18.851507366     0.000000000  -123.515128153 partial forces
:FGL008:   8.ATOM                38.393576073     0.000000000    43.776807386 partial forces
