
------- case.scf0 --------
 Flat Integration
 New Mode for Coulomb Integral
 Consistent 3/8+Simpson combinations
 Extension of core to zero
 LDM version in phi
 Fifth-order quadrature in outwin


            ---------
:ITE061: 61. ITERATION
            ---------

:NATO :    1 INDEPENDENT AND    2 TOTAL ATOMS IN UNITCELL
       SUBSTANCE: aU                                                          

       LATTICE                      = CXY 
:POT  : POTENTIAL OPTION EX_LDA EC_LDA VX_LDA VC_LDA
:LAT  : LATTICE CONSTANTS=  6.83209 13.86404 11.96912    1.571    1.571    1.571
:VOL  : UNIT CELL VOLUME =     566.85996
       MODE OF CALCULATION IS       = RELA
       NON-SPINPOLARIZED CALCULATION
:IFFT  : FFT-parameters:   60  108   96 Factor: 2.00


   CONVERGENCE PARAMETER FOR PSEUDOCHARGE: NCON=  9
   MAXIMAL VALUE OF RMT(JATOM)*ABSK(NKK) : RK  =27.59644


:VKCOUL :  VK-COUL convergence: 0.729E-07
       ATOMNUMBER=  1 Pr1        VCOUL-ZERO = -0.82000E-01
:EFG001:                        EFG         =    -6.47446   *10**21  V / m**2
                               V20  TOT/SRF=    -5.60705    -0.01611
                               V22  TOT/SRF=     0.87468     0.00238
                               V22M TOT/SRF=     0.00000     0.00000
                               V21  TOT/SRF=     0.00000     0.00000
                               V21M TOT/SRF=     0.00000     0.00000

              4.11191    0.00000    0.00000        4.11191    0.00000    0.00000
              0.00000    2.36255    0.00000        0.00000    2.36255    0.00000
              0.00000    0.00000   -6.47446        0.00000    0.00000   -6.47446

         MAIN DIRECTIONS OF THE EFG   1.0000  0.0000  0.0000
                                      0.0000  1.0000  0.0000
                                      0.0000  0.0000  1.0000
:ANG001:  ANGLE WITH OLD X-AXIS =         0.0

:ETA001:                         ASYMM. ETA =     0.27019


     HELLMANN-FEYNMAN-FORCE IN mRy/a.u. = |F|  Fx       Fy             Fz
:FHF001:   1.ATOM    384.632562266148      0.000000000000      0.000000000000   -384.632562266148

:FIT001: LUSE= 13 SIGMA OF V-XC FIT FOR ATOM  1  0.7649884E-05
:FIT001: LUSE= 13 SIGMA OF V-XC FIT FOR ATOM  1  0.7649884E-05
:DEN  : DENSITY INTEGRAL  =        -14130.12893094   (Ry)
       ELS_POTENTIAL_AT Z=0 and Z=0.5:   0.64474   0.64474
       ELS_POTENTIAL_AT Y=0 and Y=0.5:   0.08097   0.08097
:VZERO:v0,v0c,v0x   0.10979   0.64474  -0.53495 v5,v5c,v5x   0.10979   0.64474  -0.53495
:VZERY:v0,v0c,v0x  -0.63424   0.08097  -0.71521 v5,v5c,v5x  -0.63424   0.08097  -0.71521
:VZERX:v0,v0c,v0x  -1.05953  -0.36644  -0.69309 v5,v5c,v5x  -1.05953  -0.36644  -0.69309

------- case.scf1 --------
:LMAX-WF:   10   Non-Spherical LMAX:   4

          ATOMIC SPHERE DEPENDENT PARAMETERS FOR ATOM  Pr1       
:e__0001: OVERALL ENERGY PARAMETER IS    0.3082
          OVERALL BASIS SET ON ATOM IS LAPW
:E0_0001: E( 0)=    0.3082
             APW+lo
:E0_0001: E( 0)=   -2.1977   E(BOTTOM)=   -2.831   E(TOP)=   -1.564  4  5   165
             LOCAL ORBITAL
:E1_0001: E( 1)=    0.7082
             APW+lo
:E1_0001: E( 1)=   -0.7267   E(BOTTOM)=   -1.682   E(TOP)=    0.229  3  4   196
             LOCAL ORBITAL
:E3_0001: E( 3)=    0.4537   E(BOTTOM)=    0.247   E(TOP)=    0.660  0  1   122
             APW+lo
:E2_0001: E( 2)=    0.3082   E(BOTTOM)=    0.061   E(TOP)= -200.000  2 -1   101
             APW+lo

       K=   0.06250   0.00000   0.06250            1
:RKM  : MATRIX SIZE   530LOs:  40  RKM= 8.48  WEIGHT= 4.00  PGR:    
       EIGENVALUES ARE:
:EIG00001:      -2.1607178   -2.1534344   -0.8641122   -0.8172362   -0.8066455
:EIG00006:      -0.8028289   -0.7985739   -0.7985070    0.2725186    0.4170080
:EIG00011:       0.4733252    0.4741033    0.4742043    0.4764874    0.4777655
:EIG00016:       0.4845866    0.4878674    0.4878919    0.4902317    0.4921706
:EIG00021:       0.4949963    0.4973538    0.4974892    0.4999853    0.5593491
:EIG00026:       0.5741689    0.6302975    0.6571330    0.6632925    0.7054992
:EIG00031:       0.7193795    0.7833645    0.8248879    0.8576337    1.0927047
:EIG00036:       1.1562706    1.2447439    1.2493122    1.3858542    1.4376388
:EIG00041:       1.4646412    1.5655240    1.6190208    1.6432409    1.7057916
:EIG00046:       1.7896475    1.7956088    1.8218487    1.8933235    1.9603021
 
:EIG00051:       2.0124456    2.0648329    2.0876139    2.1259241    2.1506866
:EIG00056:       2.2369450    2.2708678    2.2954851    2.3797194    2.4069933
:EIG00061:       2.4654233    2.5067271    2.6150985    2.7009164    2.7223510
:EIG00066:       2.8057142    2.8315791    2.8455507    2.8628102    2.9477728
:EIG00071:       2.9625267    3.0050131    3.0290223    3.0566717    3.0694403
:EIG00076:       3.1102771    3.1517690    3.1806101    3.2109207    3.2290712
:EIG00081:       3.2693669    3.3208212    3.3270893    3.3587610    3.4175874
:EIG00086:       3.4443334    3.5108178    3.5201331    3.5501965    3.5567870
:EIG00091:       3.5925458    3.6051785    3.6525029    3.6577447    3.6623477
:EIG00096:       3.7264263    3.7405313    3.7507351    3.7652971    3.8448797
 
:EIG00101:       3.8862953    4.0142016    4.0163613    4.0718771    4.1089530
:EIG00106:       4.1277444    4.1549244    4.1584707    4.2089148    4.2346825
:EIG00111:       4.2916714    4.3160830    4.3281245    4.3564817    4.3683278
:EIG00116:       4.4372943    4.5028131    4.5402752    4.5507515    4.5703518
:EIG00121:       4.6092585    4.6862978    4.6932497    4.7268603    4.7857109
:EIG00126:       4.8341220    4.8487687    4.8875198    4.9399146    4.9557494
:EIG00131:       4.9875945    5.0250432    5.0611535    5.0827657    5.0925052
:EIG00136:       5.1449060    5.1886841    5.2369670    5.2456198    5.2792758
:EIG00141:       5.2893555    5.2933316    5.3406138    5.3923561    5.3974357
:EIG00146:       5.4191962    5.4393145    5.4489319    5.4552161    5.5420659
 
:EIG00151:       5.5483536    5.5846570    5.6561611    5.6762822    5.6966503
:EIG00156:       5.8041185    5.8714520    5.8804025    5.9376547    5.9405311
:EIG00161:       5.9763753    6.0548381    6.0861243    6.0904203    6.1012813
:EIG00166:       6.1652241    6.2079585    6.2112494    6.2386232    6.2517289
:EIG00171:       6.2706818    6.3374099    6.3478366    6.3679765    6.4140711
:EIG00176:       6.4254388    6.4596215    6.4772675    6.5175852    6.5268309
:EIG00181:       6.6062297    6.6178579    6.6278124    6.6607887    6.6825874
:EIG00186:       6.6969972    6.7120562    6.7772675    6.7877769    6.7931962
:EIG00191:       6.8479862    6.8569434    6.8992309    6.9147435    6.9400755
:EIG00196:       6.9553353    6.9697677    6.9990346    7.0006198    7.0402812
 
:EIG00201:       7.0736032    7.1260886    7.1301643    7.1323366    7.1773497
:EIG00206:       7.1935166    7.2129051    7.2683974    7.2939661    7.3208049
:EIG00211:       7.3289358    7.3702647    7.3736908    7.3946149    7.4059347
:EIG00216:       7.4322281    7.4456887    7.4533638    7.4812096    7.5207317
:EIG00221:       7.5488417    7.5928648    7.5931824    7.6016352    7.6055542
:EIG00226:       7.6181174    7.6470958    7.6544732    7.6926180    7.7505441
:EIG00231:       7.7571119    7.7937172    7.8407167    7.8433618    7.8523599
:EIG00236:       7.8605859    7.8997184    7.9103189    7.9223739    7.9669362
:EIG00241:       7.9739907    7.9926909
       ********************************************************

:KPT   :      NUMBER OF K-POINTS:   288

------- case.scfso --------
   0.0   0.0 angle (M,z), angle (M,x) deg
 
        SPIN-ORBIT EIGENVALUES:
     K=   0.06250   0.00000   0.06250            1
      MATRIX SIZE=  484   WEIGHT= 4.00
     EIGENVALUES ARE:
          -2.1607179   -2.1607179   -2.1534345   -2.1534345   -0.9713901
          -0.9713901   -0.9494347   -0.9494347   -0.7802058   -0.7802058
          -0.7390556   -0.7390556   -0.7368696   -0.7368696   -0.7316914
          -0.7316914    0.2725401    0.2725401    0.4168247    0.4168248
           0.4647054    0.4647054    0.4660177    0.4660177    0.4671503
           0.4671503    0.4683289    0.4683289    0.4695412    0.4695412
           0.4709201    0.4709201    0.4916251    0.4916251    0.4952931
           0.4952931    0.4974440    0.4974440    0.4984445    0.4984445

           0.5015416    0.5015416    0.5042071    0.5042071    0.5050728
           0.5050728    0.5070776    0.5070777    0.5593356    0.5593356
           0.5738186    0.5738186    0.6301461    0.6301461    0.6538783
           0.6538783    0.6660746    0.6660746    0.7060536    0.7060536
           0.7193406    0.7193406    0.7831465    0.7831465    0.8252166
           0.8252166    0.8577875    0.8577875    1.0927299    1.0927299
           1.1564351    1.1564351    1.2447089    1.2447089    1.2493367
           1.2493367    1.3853036    1.3853036    1.4368436    1.4368436

           1.4646959    1.4646959    1.5628157    1.5628157    1.6188033
           1.6188033    1.6440256    1.6440256    1.7064517    1.7064517
           1.7870915    1.7870915    1.7940667    1.7940667    1.8248848
           1.8248848    1.8936170    1.8936170    1.9598287    1.9598287
           2.0120887    2.0120887    2.0629962    2.0629962    2.0887650
           2.0887650    2.1279571    2.1279571    2.1511837    2.1511837
           2.2367006    2.2367006    2.2712312    2.2712312    2.2957168
           2.2957168    2.3795708    2.3795708    2.4067596    2.4067596

           2.4686192    2.4686192    2.5068698    2.5068698    2.6150356
           2.6150356    2.7010323    2.7010323    2.7224413    2.7224413
           2.8052191    2.8052191    2.8316096    2.8316096    2.8457846
           2.8457846    2.8629764    2.8629764    2.9479662    2.9479662
           2.9625823    2.9625823    3.0050697    3.0050697    3.0290654
           3.0290654    3.0560823    3.0560823    3.0703449    3.0703449
           3.1103918    3.1103918    3.1528721    3.1528721    3.1806850
           3.1806850    3.2109153    3.2109153    3.2294644    3.2294644

           3.2695771    3.2695771    3.3208351    3.3208351    3.3271324
           3.3271324    3.3589191    3.3589191    3.4176049    3.4176049
           3.4444610    3.4444610    3.5109106    3.5109106    3.5201169
           3.5201169    3.5501684    3.5501684    3.5568346    3.5568346
           3.5925514    3.5925514    3.6052203    3.6052203    3.6519170
           3.6519170    3.6578900    3.6578900    3.6625097    3.6625097
           3.7263756    3.7263756    3.7403116    3.7403116    3.7511434
           3.7511434    3.7653855    3.7653855    3.8449036    3.8449036

           3.8861180    3.8861180    4.0114014    4.0114014    4.0186332
           4.0186332    4.0726807    4.0726807    4.1087854    4.1087854
           4.1278122    4.1278122    4.1553733    4.1553733    4.1590584
           4.1590584    4.2090798    4.2090798    4.2347711    4.2347711
           4.2917152    4.2917152    4.3160942    4.3160942    4.3285570
           4.3285570    4.3565554    4.3565554    4.3683466    4.3683466
           4.4373075    4.4373075
       ********************************************************

------- case.scf2 --------
:GMA  : POTENTIAL AND CHARGE CUT-OFF  12.00 Ry**.5




:POS001: at.nr.  -1 position = 0.00000 0.89750 0.25000  multiplicity =  2

       lmmax 16
       lm=   0 0  1 0  2 0  2 2  3 0  3 2  4 0  4 2  4 4  5 0  5 2  5 4  6 0  6 2  6 4  6 6
:FER gutzwiller fermi energy   0.52168
:EORB         -0.339768272
:SUM sum of gutz band energies        -13.749437153

:CHA001: total charge inside sphere   1 =     9.457506
:PCS001: partial charges sphere =  1 s,p,d,f,px,py,pz,d-z2,d-x2y2,d-xy,d-xz,d-yz 
:QTL001: 1.9413 5.0431 0.5071 1.9659 1.6778 1.6793 1.6860 0.0941 0.0968 0.1111 0.0947 0.1105

                      vxx         vyy         vzz       up to r

:VZZ001:             4.21550     2.30776    -6.52326       2.300

:CHA  : total charge inside unit cell =      13.000000

------- case.scfc --------

        1.ATOM      Pr1                  14 CORE STATES
       CORE-FORCE in mRy/a.u. = |F|      Fx             Fy             Fz
:FCO001:   1.ATOM    362.867761077732      0.000000000000      0.000000000000    362.867761077732

:1S 001: 1S               -3067.130413324 Ry
:2S 001: 2S                -492.884671165 Ry
:2PP001: 2P*               -465.983596351 Ry
:2P 001: 2P                -430.586187770 Ry
:3S 001: 3S                -105.975442864 Ry
:3PP001: 3P*                -94.513239302 Ry
:3P 001: 3P                 -87.505443741 Ry
:3DD001: 3D*                -67.432424245 Ry
:3D 001: 3D                 -65.920873267 Ry
:4S 001: 4S                 -20.653454236 Ry
:4PP001: 4P*                -16.360219865 Ry
:4P 001: 4P                 -14.832808774 Ry
:4DD001: 4D*                 -7.765625151 Ry
:4D 001: 4D                  -7.496204608 Ry

------- case.scfm --------
:CINT001 Core Integral Atom   1   45.998501

       DENSITY AT NUCLEUS
        JATOM        VALENCE       SEMI-CORE          CORE           TOTAL
:RTO001:   1      649.168443        0.000000   656824.361263   657473.529706
     
       CHARGES OF NEW CHARGE DENSITY
:NTO   : INTERSTITIAL CHARGE =     7.085667
:NPC   : PW Pseudocharge     =    16.887014
:NTO001: CHARGE SPHERE  1    =    55.456008

:NEC01: NUCLEAR AND ELECTRONIC CHARGE    118.00000   117.99768
     
       CHARGES OF OLD CHARGE DENSITY
:OTO   : INTERSTITIAL CHARGE =     7.087140
:OPC   : PW Pseudocharge     =    16.893751
:OTO001: CHARGE SPHERE  1    =    55.456430

:NEC02: NUCLEAR AND ELECTRONIC CHARGE    118.00000   118.00000
     
       CONVERGENCE TEST
:DTO001: DIFFERENCE IN SPHERE  1 =  0.0009091

:DIS  :  CHARGE DISTANCE       ( 0.0009091 for atom    1 spin 1)      0.0009091
 PW Mixed is          580
 
******************************************************
* MULTISECANT MIXING VER9 RELEASE 10.4.0              *
* Standard Mode with controls                        *
* Fixed density scale                                *
* Regularization       1.000E-04                     *
* Trust Upper Limit    5.000E+00                     *
* Max Number of Memory Steps    8                    *
******************************************************
 
:INFO : Forcing a restart
:PWTMP   4.6493E+02  1.9467E+02  5.6686E+02
:PLANE:  PW TOTAL      4.2767 DISTAN   9.00E-04  2.10E-02 %
:CHARG:  CLM/ATOM   1381.9561 DISTAN   2.92E-03  2.12E-04 %
 
Step History
        DMIX         DMIXT        Red     Pred      Trust     Lambda    MagRel    MagAbs     Beta
  1   3.5000E-02   3.5000E-02 -1.00E+00  1.00E+00 -1.00E+01  1.00E+00  3.50E-02  3.50E-02  1.00E+00
:INFO :  Note, Pratt in use
:TRUST:  Step 2.25E-01  Charge 7.50E-02 (e) CTO  2.50E-01 (e) PW  3.50E-01 (e)
:DIRM :  MEMORY  0/ 8 SCALE   1.000
Performing Pseudo Compensation
Final Pseudo Compensation Rescaling     1.00000E+00
:MIX  :   PRATT  REGULARIZATION:  1.00E-04 GREED: 0.15000                  
     
       CHARGES OF MIXED CHARGE DENSITY
:CTO   : INTERSTITIAL CHARGE =     7.087267
:CPC   : PW Pseudocharge     =    16.892972
:CTO001: CHARGE SPHERE  1    =    55.456367

:NEC03: NUCLEAR AND ELECTRONIC CHARGE    118.00000   118.00000

PW CHANGE     H    K    L      Current       Change    Residue
:PTO001:      0    0    0  4.23036384E-02 -1.151E-06 -6.490E-07
:PTO003:      0    2    0  1.24116584E-02 -5.305E-07 -4.003E-07
:PTO004:     -1    1    0  6.21728585E-02 -2.454E-06  5.255E-07
:PTO005:      0    2   -1 -7.28100939E-02  5.760E-06  1.837E-05
:PTO006:      0    0   -2 -3.76918119E-02  5.591E-07 -6.685E-06
:PTO007:     -1    1   -1 -8.02760914E-02  6.620E-06  2.062E-05
:PTO008:      0    2   -2 -1.37574261E-02  9.024E-08 -4.028E-06
:PTO009:     -1    1   -2 -7.13904675E-02  2.893E-06 -5.606E-06
:PTO011:     -1    3    0 -1.22039642E-02  2.420E-06  1.141E-05
:PTO012:     -1    3   -1 -5.58737966E-02  4.369E-06  6.014E-06
:PTO013:      0    4    0 -1.05853522E-02  1.695E-06  6.533E-06
:PTO014:      0    2   -3  2.39771226E-02 -1.298E-06  2.137E-06

:ENE  : ********** TOTAL ENERGY IN Ry =       -36944.20713674

       TOTAL FORCE IN mRy/a.u. = |F|     Fx             Fy             Fz     with/without FOR in case.in2
:FOR001:   1.ATOM         21.765          0.000          0.000        -21.765 partial forces
       TOTAL FORCE WITH RESPECT TO GLOBAL CARTESIAN COORDINATES:
:FCA001:   1.ATOM                         0.000        -21.765          0.000 partial forces
       TOTAL FORCE WITH RESPECT TO THE GLOBAL COORDINATE SYSTEM:
:FGL001:   1.ATOM                 0.000000000   -21.764801188     0.000000000 partial forces
