
:LABEL1: Calculations in /home/ykent/GWIEN/example/Pr/aU/V8/case
:LABEL2: on didymium-2.cmpgroup.ameslab.gov at Fri Jul 10 14:12:04 CDT 2020
:LABEL3: using WIEN2k_19.1 (Release 25/6/2019) in /home/ykent/opt/src/WIEN2k_19.1
:LABEL4: using the command: run_lapw -so -i 70 -cc 0.0001

:LABEL1: Calculations in /home/ykent/GWIEN/example/Pr/aU/V8/case
:LABEL2: on didymium-2.cmpgroup.ameslab.gov at Fri Jul 10 14:18:54 CDT 2020
:LABEL3: using WIEN2k_19.1 (Release 25/6/2019) in /home/ykent/opt/src/WIEN2k_19.1
:LABEL4: using the command: run_lapw -so -i 70 -cc 0.0001
 Flat Integration
 New Mode for Coulomb Integral
 Consistent 3/8+Simpson combinations
 Extension of core to zero
 LDM version in phi
 Fifth-order quadrature in outwin


            ---------
:ITE017: 17. ITERATION
            ---------

:NATO :    1 INDEPENDENT AND    2 TOTAL ATOMS IN UNITCELL
       SUBSTANCE: aU                                                          

       LATTICE                      = CXY 
:POT  : POTENTIAL OPTION EX_LDA EC_LDA VX_LDA VC_LDA
:LAT  : LATTICE CONSTANTS=  5.66945 11.50475  9.93229    1.571    1.571    1.571
:VOL  : UNIT CELL VOLUME =     323.91998
       MODE OF CALCULATION IS       = RELA
       NON-SPINPOLARIZED CALCULATION
:IFFT  : FFT-parameters:   48   90   80 Factor: 2.00


   CONVERGENCE PARAMETER FOR PSEUDOCHARGE: NCON=  9
   MAXIMAL VALUE OF RMT(JATOM)*ABSK(NKK) : RK  =27.59882


:VKCOUL :  VK-COUL convergence: 0.231E-06
       ATOMNUMBER=  1 Pr1        VCOUL-ZERO =  0.46539E+00
:EFG001:                        EFG         =    -9.63197   *10**21  V / m**2
                               V20  TOT/SRF=    -8.34153    -0.05683
                               V22  TOT/SRF=    -2.99902    -0.00986
                               V22M TOT/SRF=     0.00000     0.00000
                               V21  TOT/SRF=     0.00000     0.00000
                               V21M TOT/SRF=     0.00000     0.00000

              1.81697    0.00000    0.00000        1.81697    0.00000    0.00000
              0.00000    7.81500    0.00000        0.00000    7.81500    0.00000
              0.00000    0.00000   -9.63197        0.00000    0.00000   -9.63197

         MAIN DIRECTIONS OF THE EFG   1.0000  0.0000  0.0000
                                      0.0000  1.0000  0.0000
                                      0.0000  0.0000  1.0000
:ANG001:  ANGLE WITH OLD X-AXIS =         0.0

:ETA001:                         ASYMM. ETA =     0.62272


     HELLMANN-FEYNMAN-FORCE IN mRy/a.u. = |F|  Fx       Fy             Fz
:FHF001:   1.ATOM   1648.470663340045      0.000000000000      0.000000000000  -1648.470663340045

:FIT001: LUSE= 13 SIGMA OF V-XC FIT FOR ATOM  1  0.6244855E-04
:FIT001: LUSE= 13 SIGMA OF V-XC FIT FOR ATOM  1  0.6244855E-04
:DEN  : DENSITY INTEGRAL  =        -14192.00002018   (Ry)
       ELS_POTENTIAL_AT Z=0 and Z=0.5:   0.92654   0.92654
       ELS_POTENTIAL_AT Y=0 and Y=0.5:   0.01947   0.01947
:VZERO:v0,v0c,v0x   0.23406   0.92654  -0.69248 v5,v5c,v5x   0.23406   0.92654  -0.69248
:VZERY:v0,v0c,v0x  -0.89238   0.01947  -0.91185 v5,v5c,v5x  -0.89238   0.01947  -0.91185
:VZERX:v0,v0c,v0x  -1.25203  -0.39468  -0.85735 v5,v5c,v5x  -1.25203  -0.39468  -0.85735
:LMAX-WF:   10   Non-Spherical LMAX:   4

          ATOMIC SPHERE DEPENDENT PARAMETERS FOR ATOM  Pr1       
:e__0001: OVERALL ENERGY PARAMETER IS    0.7887
          OVERALL BASIS SET ON ATOM IS LAPW
:E0_0001: E( 0)=    0.7887
             APW+lo
:E0_0001: E( 0)=   -1.6449   E(BOTTOM)=   -2.282   E(TOP)=   -1.008  4  5   218
             LOCAL ORBITAL
:E1_0001: E( 1)=    1.1887
             APW+lo
:E1_0001: E( 1)=   -0.1751   E(BOTTOM)=   -1.135   E(TOP)=    0.785  3  4   224
             LOCAL ORBITAL
:E3_0001: E( 3)=    0.9946   E(BOTTOM)=    0.789   E(TOP)=    1.200  0  1   113
             APW+lo
:E2_0001: E( 2)=    0.7887   E(BOTTOM)=    0.603   E(TOP)= -200.000  2 -1   119
             APW+lo

       K=   0.06250   0.00000   0.06250            1
:RKM  : MATRIX SIZE   315LOs:  40  RKM= 8.49  WEIGHT= 4.00  PGR:    
       EIGENVALUES ARE:
:EIG00001:      -1.6590522   -1.6056307   -0.4483094   -0.2550934   -0.2104178
:EIG00006:      -0.1931725   -0.1743356   -0.1740049    0.8056361    0.8584740
:EIG00011:       0.9678592    0.9734858    0.9747427    0.9814449    0.9936953
:EIG00016:       1.0137573    1.0214278    1.0229820    1.0284825    1.0326186
:EIG00021:       1.0417744    1.0427750    1.0440752    1.0617053    1.0830878
:EIG00026:       1.1091152    1.2084725    1.2106044    1.2833578    1.3207174
:EIG00031:       1.3492203    1.5171058    1.5243429    1.6065292    1.9083450
:EIG00036:       1.9572450    1.9926338    2.1461108    2.2201993    2.3022237
:EIG00041:       2.4751839    2.5481866    2.6865500    2.7192600    2.8720413
:EIG00046:       2.8849580    2.8892342    3.0552886    3.0618860    3.2028491
 
:EIG00051:       3.2808956    3.3872239    3.3973125    3.5436260    3.5878628
:EIG00056:       3.6131746    3.6782813    3.8371636    3.8552426    3.9575434
:EIG00061:       4.0031996    4.1152490    4.1690378    4.1736375    4.2533594
:EIG00066:       4.3988897    4.4069261    4.4817733    4.5309653    4.5594653
:EIG00071:       4.6279581    4.6796136    4.7042265    4.8188078    4.8273881
:EIG00076:       4.8499592    4.9003355    4.9240309    4.9390659    5.0236740
:EIG00081:       5.0281713    5.0589096    5.1270705    5.1408862    5.1542247
:EIG00086:       5.2743509    5.3444715    5.4134917    5.4535737    5.4857494
:EIG00091:       5.5326872    5.5530582    5.6108819    5.6338812    5.6374085
:EIG00096:       5.6937137    5.7586760    5.7600205    5.8357880    5.8826590
 
:EIG00101:       5.9435743    6.0636821    6.1217897    6.1751574    6.1858115
:EIG00106:       6.2966256    6.2988133    6.3433861    6.4112223    6.5185856
:EIG00111:       6.6066746    6.6398654    6.7429791    6.7719670    6.8472498
:EIG00116:       6.9229616    6.9721350    7.0292993    7.0604993    7.1065425
:EIG00121:       7.1869553    7.2191535    7.2943472    7.2958224    7.4027968
:EIG00126:       7.4356500    7.4921490    7.5039651    7.5622143    7.5953254
:EIG00131:       7.6635366    7.6967916    7.6990948    7.8473062    7.8853206
:EIG00136:       7.9134103    7.9206662    8.0490336    8.0644780    8.0830485
:EIG00141:       8.1194936    8.1359679    8.1411338    8.2688038    8.2985165
:EIG00146:       8.3008515    8.3501876    8.4192548    8.4821289
 
       ********************************************************

:KPT   :      NUMBER OF K-POINTS:   288
   0.0   0.0 angle (M,z), angle (M,x) deg
 
        SPIN-ORBIT EIGENVALUES:
     K=   0.06250   0.00000   0.06250            1
      MATRIX SIZE=  298   WEIGHT= 4.00
     EIGENVALUES ARE:
          -1.6590534   -1.6590534   -1.6056315   -1.6056315   -0.4926601
          -0.4926601   -0.3485298   -0.3485298   -0.2636034   -0.2636034
          -0.1331725   -0.1331725   -0.1293281   -0.1293281   -0.1084308
          -0.1084308    0.8057396    0.8057396    0.8583657    0.8583657
           0.9655146    0.9655146    0.9707583    0.9707583    0.9724358
           0.9724358    0.9793755    0.9793755    0.9904747    0.9904747
           1.0052787    1.0052787    1.0162492    1.0162492    1.0255831
           1.0255831    1.0338660    1.0338660    1.0357505    1.0357505

           1.0430749    1.0430749    1.0459595    1.0459595    1.0482748
           1.0482748    1.0646727    1.0646727    1.0845575    1.0845575
           1.1093978    1.1093979    1.2034062    1.2034062    1.2155807
           1.2155807    1.2838698    1.2838698    1.3205412    1.3205412
           1.3497161    1.3497161    1.5170232    1.5170232    1.5246958
           1.5246958    1.6066964    1.6066964    1.9087358    1.9087358
           1.9572993    1.9572993    1.9926277    1.9926277    2.1460611
           2.1460611    2.2199905    2.2199905    2.3016574    2.3016574

           2.4753646    2.4753646    2.5476475    2.5476475    2.6860814
           2.6860814    2.7191225    2.7191225    2.8720123    2.8720123
           2.8849308    2.8849308    2.8888006    2.8888006    3.0511481
           3.0511481    3.0660396    3.0660396    3.2030451    3.2030451
           3.2804298    3.2804298    3.3820669    3.3820669    3.4009978
           3.4009978    3.5434067    3.5434067    3.5867184    3.5867184
           3.6145694    3.6145694    3.6766325    3.6766325    3.8375133
           3.8375133    3.8569857    3.8569857    3.9572212    3.9572212

           4.0045117    4.0045117    4.1156776    4.1156776    4.1722941
           4.1722941    4.1744822    4.1744822    4.2535083    4.2535083
           4.3987906    4.3987906    4.4072486    4.4072486    4.4818545
           4.4818545
       ********************************************************
:GAP (global)   :    0.0    Ry =     0.0   eV (metal)
:GAP (this spin):    0.0    Ry =     0.0   eV (metal)
         Bandranges (emin - emax) and occupancy:
:BAN00020:  20    0.834178    0.948855  1.00000000
:BAN00021:  21    0.863957    0.982965  1.00000000
:BAN00022:  22    0.863957    0.982965  1.00000000
:BAN00023:  23    0.928582    0.988621  0.99121548
:BAN00024:  24    0.928582    0.988621  0.99121548
:BAN00025:  25    0.946652    1.002750  0.67239887
:BAN00026:  26    0.946652    1.002750  0.67239879
:BAN00027:  27    0.970776    1.006908  0.33580148
:BAN00028:  28    0.970776    1.006908  0.33580133
:BAN00029:  29    0.985458    1.010860  0.00058429
:BAN00030:  30    0.985458    1.010860  0.00058428
:BAN00031:  31    0.992312    1.020014  0.00000000
:BAN00032:  32    0.992312    1.020014  0.00000000
:BAN00033:  33    1.008902    1.028797  0.00000000
:BAN00034:  34    1.008902    1.028797  0.00000000
:BAN00035:  35    1.012027    1.035047  0.00000000
        Energy to separate low and high energystates:    0.73924


:NOE  : NUMBER OF ELECTRONS          =   26.000

:FER  : F E R M I - ENERGY(TETRAH.M.)=   0.9858627055
:GMA  : POTENTIAL AND CHARGE CUT-OFF  12.00 Ry**.5

:POS001: ATOM   -1 X,Y,Z = 0.00000 0.89750 0.25000  MULT= 2  ZZ= 59.000  Pr1       

       LMMAX 16
       LM=   0 0  1 0  2 0  2 2  3 0  3 2  4 0  4 2  4 4  5 0  5 2  5 4  6 0  6 2  6 4  6 6

:CHA001: TOTAL VALENCE CHARGE INSIDE SPHERE   1 =   9.7341    (RMT=  2.3000 )
:PCS001: PARTIAL CHARGES SPHERE =  1 S,P,D,F,PX,PY,PZ,D-Z2,D-X2Y2,D-XY,D-XZ,D-YZ 
:QTL001: 1.9370 4.9743 0.7523 2.0689 1.6570 1.6534 1.6639 0.1454 0.1335 0.1558 0.1545 0.1630
        Q-s-low E-s-low   Q-p-low E-p-low   Q-d-low E-d-low   Q-f-low E-f-low
:EPL001:  1.8689 -1.6021    4.8951 -0.2968    0.0124 -0.3131    0.0038 -0.3255
        Q-s-hi  E-s-hi    Q-p-hi  E-p-hi    Q-d-hi  E-d-hi    Q-f-hi  E-f-hi 
:EPH001:  0.0682  0.8991    0.0791  0.9241    0.7399  0.9073    2.0650  0.9585

                      VXX         VYY         VZZ       UP TO R
:VZZ001:             1.74748     7.33132    -9.07880       2.300

:CHA  : TOTAL VALENCE CHARGE INSIDE UNIT CELL =      26.000000

:SUM  : SUM OF EIGENVALUES =          -0.717811796


        1.ATOM      Pr1                  14 CORE STATES
       CORE-FORCE in mRy/a.u. = |F|      Fx             Fy             Fz
:FCO001:   1.ATOM   1644.845322617740      0.000000000000      0.000000000000   1644.845322617740

:1S 001: 1S               -3066.605657100 Ry
:2S 001: 2S                -492.359446897 Ry
:2PP001: 2P*               -465.457952141 Ry
:2P 001: 2P                -430.060675964 Ry
:3S 001: 3S                -105.457045462 Ry
:3PP001: 3P*                -93.994597005 Ry
:3P 001: 3P                 -86.986906945 Ry
:3DD001: 3D*                -66.912938002 Ry
:3D 001: 3D                 -65.401474908 Ry
:4S 001: 4S                 -20.124468680 Ry
:4PP001: 4P*                -15.830282674 Ry
:4P 001: 4P                 -14.301507200 Ry
:4DD001: 4D*                 -7.231748391 Ry
:4D 001: 4D                  -6.961868319 Ry
:CINT001 Core Integral Atom   1   45.998502

       DENSITY AT NUCLEUS
        JATOM        VALENCE       SEMI-CORE          CORE           TOTAL
:RTO001:   1      646.468232        0.000000   656826.300726   657472.768957
     
       CHARGES OF NEW CHARGE DENSITY
:NTO   : INTERSTITIAL CHARGE =     6.531805
:NPC   : PW Pseudocharge     =    17.415105
:NTO001: CHARGE SPHERE  1    =    55.732598

:NEC01: NUCLEAR AND ELECTRONIC CHARGE    118.00000   117.99700
     
       CHARGES OF OLD CHARGE DENSITY
:OTO   : INTERSTITIAL CHARGE =     6.588728
:OPC   : PW Pseudocharge     =    17.463170
:OTO001: CHARGE SPHERE  1    =    55.705636

:NEC02: NUCLEAR AND ELECTRONIC CHARGE    118.00000   118.00000
     
       CONVERGENCE TEST
:DTO001: DIFFERENCE IN SPHERE  1 =  0.0583390

:DIS  :  CHARGE DISTANCE       ( 0.0583390 for atom    1 spin 1)      0.0583390
 PW Mixed is          345
 
******************************************************
* MULTISECANT MIXING VER9 RELEASE 10.4.0              *
* Standard Mode with controls                        *
* Fixed density scale                                *
* Regularization       1.000E-04                     *
* Trust Upper Limit    5.000E+00                     *
* Max Number of Memory Steps    8                    *
******************************************************
 
:PWTMP   2.2199E+02  1.9467E+02  3.2392E+02
:PLANE:  PW TOTAL      5.7904 DISTAN   1.51E-02  2.61E-01 %
:CHARG:  CLM/ATOM   1381.9533 DISTAN   8.51E-02  6.15E-03 %
 
Step History
        DMIX         DMIXT        Red     Pred      Trust     Lambda    MagRel    MagAbs     Beta
  1   3.5000E-02   3.5000E-02 -1.00E+00  1.00E+00 -1.00E+01  1.00E+00  3.50E-02  3.50E-02  1.00E+00
:INFO :  Note, Pratt in use
:TRUST:  Step 3.75E-02  Charge 7.50E-02 (e) CTO  2.50E-01 (e) PW  3.50E-01 (e)
:DIRM :  MEMORY  0/ 8 SCALE   1.000
Performing Pseudo Compensation
Final Pseudo Compensation Rescaling     1.00000E+00
:MIX  :   PRATT  REGULARIZATION:  1.00E-04 GREED: 0.02500                  
     
       CHARGES OF MIXED CHARGE DENSITY
:CTO   : INTERSTITIAL CHARGE =     6.587380
:CPC   : PW Pseudocharge     =    17.450618
:CTO001: CHARGE SPHERE  1    =    55.706310

:NEC03: NUCLEAR AND ELECTRONIC CHARGE    118.00000   118.00000

PW CHANGE     H    K    L      Current       Change    Residue
:PTO001:      0    0    0  7.42096786E-02 -4.292E-05 -2.902E-04
:PTO003:      0    2    0  1.77982962E-02 -1.241E-05  1.542E-05
:PTO004:     -1    1    0  8.46360726E-02 -6.658E-05 -9.192E-05
:PTO005:      0    2   -1 -9.69929631E-02  7.693E-05  7.147E-05
:PTO006:      0    0   -2 -5.02808698E-02  3.970E-05  2.776E-05
:PTO007:     -1    1   -1 -1.01599963E-01  8.473E-05  1.140E-04
:PTO008:      0    2   -2 -1.46104318E-02  1.358E-05  2.594E-05
:PTO009:     -1    1   -2 -7.36241154E-02  6.450E-05  5.651E-05
:PTO011:     -1    3    0 -1.12215726E-02  9.819E-06  2.644E-05
:PTO012:     -1    3   -1 -4.65252513E-02  3.830E-05  1.178E-05
:PTO013:      0    4    0 -8.01818141E-03  6.317E-06  2.228E-06
:PTO014:      0    2   -3  1.85550206E-02 -1.443E-05 -1.698E-05

:ENE  : ********** TOTAL ENERGY IN Ry =       -36944.34596255

       TOTAL FORCE IN mRy/a.u. = |F|     Fx             Fy             Fz     with/without FOR in case.in2
:FOR001:   1.ATOM          3.625          0.000          0.000         -3.625 partial forces
       TOTAL FORCE WITH RESPECT TO GLOBAL CARTESIAN COORDINATES:
:FCA001:   1.ATOM                         0.000         -3.625          0.000 partial forces
       TOTAL FORCE WITH RESPECT TO THE GLOBAL COORDINATE SYSTEM:
:FGL001:   1.ATOM                 0.000000000    -3.625340722     0.000000000 partial forces
 Flat Integration
 New Mode for Coulomb Integral
 Consistent 3/8+Simpson combinations
 Extension of core to zero
 LDM version in phi
 Fifth-order quadrature in outwin


            ---------
:ITE018: 18. ITERATION
            ---------

:NATO :    1 INDEPENDENT AND    2 TOTAL ATOMS IN UNITCELL
       SUBSTANCE: aU                                                          

       LATTICE                      = CXY 
:POT  : POTENTIAL OPTION EX_LDA EC_LDA VX_LDA VC_LDA
:LAT  : LATTICE CONSTANTS=  5.66945 11.50475  9.93229    1.571    1.571    1.571
:VOL  : UNIT CELL VOLUME =     323.91998
       MODE OF CALCULATION IS       = RELA
       NON-SPINPOLARIZED CALCULATION
:IFFT  : FFT-parameters:   48   90   80 Factor: 2.00


   CONVERGENCE PARAMETER FOR PSEUDOCHARGE: NCON=  9
   MAXIMAL VALUE OF RMT(JATOM)*ABSK(NKK) : RK  =27.59882


:VKCOUL :  VK-COUL convergence: 0.231E-06
       ATOMNUMBER=  1 Pr1        VCOUL-ZERO =  0.46514E+00
:EFG001:                        EFG         =    -9.61987   *10**21  V / m**2
                               V20  TOT/SRF=    -8.33105    -0.05678
                               V22  TOT/SRF=    -2.99388    -0.00982
                               V22M TOT/SRF=     0.00000     0.00000
                               V21  TOT/SRF=     0.00000     0.00000
                               V21M TOT/SRF=     0.00000     0.00000

              1.81606    0.00000    0.00000        1.81606    0.00000    0.00000
              0.00000    7.80381    0.00000        0.00000    7.80381    0.00000
              0.00000    0.00000   -9.61987        0.00000    0.00000   -9.61987

         MAIN DIRECTIONS OF THE EFG   1.0000  0.0000  0.0000
                                      0.0000  1.0000  0.0000
                                      0.0000  0.0000  1.0000
:ANG001:  ANGLE WITH OLD X-AXIS =         0.0

:ETA001:                         ASYMM. ETA =     0.62244


     HELLMANN-FEYNMAN-FORCE IN mRy/a.u. = |F|  Fx       Fy             Fz
:FHF001:   1.ATOM   1647.648960432602      0.000000000000      0.000000000000  -1647.648960432602

:FIT001: LUSE= 13 SIGMA OF V-XC FIT FOR ATOM  1  0.6238715E-04
:FIT001: LUSE= 13 SIGMA OF V-XC FIT FOR ATOM  1  0.6238715E-04
:DEN  : DENSITY INTEGRAL  =        -14192.13916057   (Ry)
       ELS_POTENTIAL_AT Z=0 and Z=0.5:   0.92617   0.92617
       ELS_POTENTIAL_AT Y=0 and Y=0.5:   0.01942   0.01942
:VZERO:v0,v0c,v0x   0.23374   0.92617  -0.69243 v5,v5c,v5x   0.23374   0.92617  -0.69243
:VZERY:v0,v0c,v0x  -0.89230   0.01942  -0.91172 v5,v5c,v5x  -0.89230   0.01942  -0.91172
:VZERX:v0,v0c,v0x  -1.25170  -0.39446  -0.85724 v5,v5c,v5x  -1.25170  -0.39446  -0.85724
:LMAX-WF:   10   Non-Spherical LMAX:   4

          ATOMIC SPHERE DEPENDENT PARAMETERS FOR ATOM  Pr1       
:e__0001: OVERALL ENERGY PARAMETER IS    0.7868
          OVERALL BASIS SET ON ATOM IS LAPW
:E0_0001: E( 0)=    0.7868
             APW+lo
:E0_0001: E( 0)=   -1.6446   E(BOTTOM)=   -2.281   E(TOP)=   -1.008  4  5   222
             LOCAL ORBITAL
:E1_0001: E( 1)=    1.1868
             APW+lo
:E1_0001: E( 1)=   -0.1749   E(BOTTOM)=   -1.135   E(TOP)=    0.785  3  4   220
             LOCAL ORBITAL
:E3_0001: E( 3)=    0.9954   E(BOTTOM)=    0.790   E(TOP)=    1.201  0  1   118
             APW+lo
:E2_0001: E( 2)=    0.7868   E(BOTTOM)=    0.603   E(TOP)= -200.000  2 -1   120
             APW+lo

       K=   0.06250   0.00000   0.06250            1
:RKM  : MATRIX SIZE   315LOs:  40  RKM= 8.49  WEIGHT= 4.00  PGR:    
       EIGENVALUES ARE:
:EIG00001:      -1.6588060   -1.6053576   -0.4482486   -0.2549556   -0.2102612
:EIG00006:      -0.1929888   -0.1741656   -0.1738129    0.8054611    0.8583228
:EIG00011:       0.9683505    0.9740725    0.9753561    0.9820275    0.9942709
:EIG00016:       1.0144757    1.0221629    1.0237262    1.0292133    1.0333258
:EIG00021:       1.0425277    1.0434438    1.0447073    1.0624785    1.0834774
:EIG00026:       1.1093024    1.2085269    1.2105456    1.2833179    1.3206870
:EIG00031:       1.3491914    1.5170573    1.5243443    1.6065481    1.9082640
:EIG00036:       1.9571619    1.9925184    2.1460733    2.2200511    2.3020989
:EIG00041:       2.4750734    2.5480637    2.6864177    2.7191633    2.8719189
:EIG00046:       2.8848578    2.8890578    3.0551553    3.0617273    3.2026723
 
:EIG00051:       3.2807762    3.3871049    3.3972452    3.5435843    3.5877275
:EIG00056:       3.6130902    3.6781616    3.8372211    3.8551315    3.9574127
:EIG00061:       4.0030921    4.1150819    4.1689889    4.1734601    4.2533270
:EIG00066:       4.3987110    4.4067915    4.4815914    4.5307943    4.5593255
:EIG00071:       4.6278439    4.6794351    4.7041393    4.8186202    4.8272130
:EIG00076:       4.8497732    4.9001809    4.9238375    4.9388924    5.0234691
:EIG00081:       5.0279886    5.0587123    5.1269080    5.1407142    5.1540188
:EIG00086:       5.2741009    5.3442773    5.4133272    5.4534268    5.4855250
:EIG00091:       5.5325010    5.5529098    5.6108373    5.6336926    5.6373698
:EIG00096:       5.6934928    5.7584872    5.7597925    5.8356729    5.8825024
 
:EIG00101:       5.9434285    6.0635230    6.1216287    6.1749466    6.1855992
:EIG00106:       6.2964305    6.2986657    6.3431510    6.4110282    6.5184181
:EIG00111:       6.6065329    6.6397081    6.7428094    6.7717523    6.8471254
:EIG00116:       6.9229258    6.9719248    7.0293031    7.0604389    7.1064664
:EIG00121:       7.1868288    7.2190410    7.2941901    7.2956927    7.4026184
:EIG00126:       7.4354738    7.4919609    7.5038090    7.5620623    7.5951621
:EIG00131:       7.6633805    7.6965933    7.6989625    7.8471236    7.8851614
:EIG00136:       7.9133128    7.9205088    8.0489548    8.0642583    8.0829165
:EIG00141:       8.1193134    8.1358157    8.1409688    8.2686008    8.2984611
:EIG00146:       8.3007541    8.3501149    8.4190791    8.4819639
 
       ********************************************************

:KPT   :      NUMBER OF K-POINTS:   288
   0.0   0.0 angle (M,z), angle (M,x) deg
 
        SPIN-ORBIT EIGENVALUES:
     K=   0.06250   0.00000   0.06250            1
      MATRIX SIZE=  298   WEIGHT= 4.00
     EIGENVALUES ARE:
          -1.6588071   -1.6588071   -1.6053585   -1.6053585   -0.4925622
          -0.4925622   -0.3483359   -0.3483359   -0.2634769   -0.2634769
          -0.1330110   -0.1330110   -0.1291667   -0.1291667   -0.1082693
          -0.1082693    0.8055647    0.8055647    0.8582152    0.8582152
           0.9660291    0.9660291    0.9713612    0.9713612    0.9730514
           0.9730514    0.9799718    0.9799718    0.9910740    0.9910740
           1.0060203    1.0060203    1.0169198    1.0169198    1.0263004
           1.0263004    1.0345921    1.0345921    1.0364534    1.0364534

           1.0437480    1.0437480    1.0465860    1.0465860    1.0489899
           1.0489899    1.0654428    1.0654428    1.0849672    1.0849672
           1.1095983    1.1095983    1.2034312    1.2034312    1.2155575
           1.2155576    1.2838295    1.2838295    1.3205119    1.3205119
           1.3496871    1.3496871    1.5169764    1.5169764    1.5246959
           1.5246959    1.6067151    1.6067151    1.9086548    1.9086548
           1.9572162    1.9572162    1.9925125    1.9925125    2.1460235
           2.1460235    2.2198425    2.2198425    2.3015326    2.3015326

           2.4752541    2.4752541    2.5475248    2.5475248    2.6859504
           2.6859504    2.7190247    2.7190247    2.8718895    2.8718895
           2.8848250    2.8848250    2.8886303    2.8886303    3.0510070
           3.0510070    3.0658891    3.0658891    3.2028687    3.2028687
           3.2803102    3.2803102    3.3819627    3.3819627    3.4009159
           3.4009159    3.5433650    3.5433650    3.5865848    3.5865848
           3.6144816    3.6144816    3.6765134    3.6765134    3.8375681
           3.8375681    3.8568758    3.8568758    3.9570913    3.9570913

           4.0044066    4.0044066    4.1155062    4.1155062    4.1722006
           4.1722006    4.1743509    4.1743509    4.2534759    4.2534759
           4.3986131    4.3986131    4.4071124    4.4071124    4.4816725
           4.4816725
       ********************************************************
:GAP (global)   :    0.0    Ry =     0.0   eV (metal)
:GAP (this spin):    0.0    Ry =     0.0   eV (metal)
         Bandranges (emin - emax) and occupancy:
:BAN00020:  20    0.834016    0.949135  1.00000000
:BAN00021:  21    0.863824    0.983488  1.00000000
:BAN00022:  22    0.863824    0.983488  1.00000000
:BAN00023:  23    0.928709    0.989222  0.99126729
:BAN00024:  24    0.928709    0.989222  0.99126728
:BAN00025:  25    0.946910    1.003479  0.67329104
:BAN00026:  26    0.946910    1.003479  0.67329097
:BAN00027:  27    0.971254    1.007602  0.33483726
:BAN00028:  28    0.971254    1.007602  0.33483711
:BAN00029:  29    0.986062    1.011621  0.00060453
:BAN00030:  30    0.986062    1.011621  0.00060453
:BAN00031:  31    0.992937    1.020664  0.00000000
:BAN00032:  32    0.992937    1.020664  0.00000000
:BAN00033:  33    1.009558    1.029484  0.00000000
:BAN00034:  34    1.009558    1.029484  0.00000000
:BAN00035:  35    1.012689    1.035713  0.00000000
        Energy to separate low and high energystates:    0.73906


:NOE  : NUMBER OF ELECTRONS          =   26.000

:FER  : F E R M I - ENERGY(TETRAH.M.)=   0.9864698153
:GMA  : POTENTIAL AND CHARGE CUT-OFF  12.00 Ry**.5

:POS001: ATOM   -1 X,Y,Z = 0.00000 0.89750 0.25000  MULT= 2  ZZ= 59.000  Pr1       

       LMMAX 16
       LM=   0 0  1 0  2 0  2 2  3 0  3 2  4 0  4 2  4 4  5 0  5 2  5 4  6 0  6 2  6 4  6 6

:CHA001: TOTAL VALENCE CHARGE INSIDE SPHERE   1 =   9.7271    (RMT=  2.3000 )
:PCS001: PARTIAL CHARGES SPHERE =  1 S,P,D,F,PX,PY,PZ,D-Z2,D-X2Y2,D-XY,D-XZ,D-YZ 
:QTL001: 1.9372 4.9744 0.7551 2.0587 1.6570 1.6534 1.6640 0.1461 0.1341 0.1562 0.1551 0.1635
        Q-s-low E-s-low   Q-p-low E-p-low   Q-d-low E-d-low   Q-f-low E-f-low
:EPL001:  1.8688 -1.6018    4.8947 -0.2967    0.0124 -0.3130    0.0038 -0.3254
        Q-s-hi  E-s-hi    Q-p-hi  E-p-hi    Q-d-hi  E-d-hi    Q-f-hi  E-f-hi 
:EPH001:  0.0684  0.8992    0.0797  0.9244    0.7427  0.9075    2.0549  0.9590

                      VXX         VYY         VZZ       UP TO R
:VZZ001:             1.78001     7.39363    -9.17363       2.300

:CHA  : TOTAL VALENCE CHARGE INSIDE UNIT CELL =      26.000000

:SUM  : SUM OF EIGENVALUES =          -0.713098519


        1.ATOM      Pr1                  14 CORE STATES
       CORE-FORCE in mRy/a.u. = |F|      Fx             Fy             Fz
:FCO001:   1.ATOM   1644.131654043013      0.000000000000      0.000000000000   1644.131654043013

:1S 001: 1S               -3066.603971606 Ry
:2S 001: 2S                -492.357754890 Ry
:2PP001: 2P*               -465.456261464 Ry
:2P 001: 2P                -430.058984836 Ry
:3S 001: 3S                -105.455394752 Ry
:3PP001: 3P*                -93.992942250 Ry
:3P 001: 3P                 -86.985259854 Ry
:3DD001: 3D*                -66.911277068 Ry
:3D 001: 3D                 -65.399815843 Ry
:4S 001: 4S                 -20.123228517 Ry
:4PP001: 4P*                -15.829068291 Ry
:4P 001: 4P                 -14.300332767 Ry
:4DD001: 4D*                 -7.230644432 Ry
:4D 001: 4D                  -6.960777968 Ry
:CINT001 Core Integral Atom   1   45.998501

       DENSITY AT NUCLEUS
        JATOM        VALENCE       SEMI-CORE          CORE           TOTAL
:RTO001:   1      646.505373        0.000000   656826.216564   657472.721938
     
       CHARGES OF NEW CHARGE DENSITY
:NTO   : INTERSTITIAL CHARGE =     6.545776
:NPC   : PW Pseudocharge     =    17.420996
:NTO001: CHARGE SPHERE  1    =    55.725612

:NEC01: NUCLEAR AND ELECTRONIC CHARGE    118.00000   117.99700
     
       CHARGES OF OLD CHARGE DENSITY
:OTO   : INTERSTITIAL CHARGE =     6.587380
:OPC   : PW Pseudocharge     =    17.450618
:OTO001: CHARGE SPHERE  1    =    55.706310

:NEC02: NUCLEAR AND ELECTRONIC CHARGE    118.00000   118.00000
     
       CONVERGENCE TEST
:DTO001: DIFFERENCE IN SPHERE  1 =  0.0440941

:DIS  :  CHARGE DISTANCE       ( 0.0440941 for atom    1 spin 1)      0.0440941
 PW Mixed is          345
 
******************************************************
* MULTISECANT MIXING VER9 RELEASE 10.4.0              *
* Slow Mode, cautious                                *
* Fixed density scale                                *
* Regularization       1.000E-04                     *
* Step Trust Radius    0.75000                       *
* Trust Upper Limit    2.000E+00                     *
* Max Number of Memory Steps   12                    *
******************************************************
 
:PWTMP   2.2199E+02  1.9467E+02  3.2392E+02
:PLANE:  PW TOTAL      5.7863 DISTAN   9.54E-03  1.65E-01 %
:CHARG:  CLM/ATOM   1381.9534 DISTAN   6.52E-02  4.72E-03 %
 
Step History
        DMIX         DMIXT        Red     Pred      Trust     Lambda    MagRel    MagAbs     Beta
  1   3.5000E-02   3.5000E-02 -1.00E+00  1.00E+00 -1.00E+01  1.00E+00  3.50E-02  3.50E-02  1.00E+00
  2   2.5000E-02   2.5000E-02 -1.00E+00  1.00E+00 -1.00E+01  1.00E+00  2.50E-02  2.16E-03  1.00E+00
:JACOBIANS    2.633E-02   4.655E-02
  
:NORMS:  1/Froebius, Min, Max, Used   0.4924E-01  0.4924E-01  0.1454E+00  0.4924E-01
:INFO :  Number of Memory Steps    1 Skipping    0
:PREDicted Charge, CTotal, PW Trust    2.631E-03   5.261E-03   3.260E-02
:PREDicted DMix, Beta, BLim   1.0000E-02  3.9025E+00  5.0894E-01

Eigenvalues, unscaled except for SY+YY
   #     SY Real        SY Imag          SS             YY         SY+YY Real      SY+YY Imag
   1   1.453919E-01   0.000000E+00   4.923929E-02   1.000000E+00   1.145392E+00   0.000000E+00
 
:BLIM :  VZERO Control Off
:TRUST:  Step 5.09E-01  Charge 7.50E-02 (e) CTO  2.50E-01 (e) PW  3.50E-01 (e)
:DIRM :  MEMORY  1/12 SCALE   1.000 RED  0.76 PRED  1.00 NEXT  0.33 
:TRAVE:  Charge 1.90E-03 (e) CTO  3.80E-03 (e) PW  2.38E-02 (e)
:DIRP :  |MSR1|= 1.210E-02 |PRATT|= 9.544E-03 ANGLE=  59.7 DEGREES
:DIRQ :  |MSR1|= 6.322E-03 |PRATT|= 6.521E-02 ANGLE=   0.7 DEGREES
:DIRT :  |MSR1|= 1.365E-02 |PRATT|= 6.590E-02 ANGLE=  58.5 DEGREES
:MIX  :   MSR1   REGULARIZATION:  1.00E-04 GREED: 0.02000  Newton 1.00  0.2071                
     
       CHARGES OF MIXED CHARGE DENSITY
:CTO   : INTERSTITIAL CHARGE =     6.583585
:CPC   : PW Pseudocharge     =    17.414820
:CTO001: CHARGE SPHERE  1    =    55.708208

:NEC03: NUCLEAR AND ELECTRONIC CHARGE    118.00000   118.00000

PW CHANGE     H    K    L      Current       Change    Residue
:PTO001:      0    0    0  7.40874456E-02 -1.222E-04 -1.860E-04
:PTO003:      0    2    0  1.77629479E-02 -3.535E-05  2.007E-05
:PTO004:     -1    1    0  8.44461671E-02 -1.899E-04 -2.539E-05
:PTO005:      0    2   -1 -9.67740849E-02  2.189E-04 -3.344E-06
:PTO006:      0    0   -2 -5.01680374E-02  1.128E-04 -1.007E-05
:PTO007:     -1    1   -1 -1.01358221E-01  2.417E-04  3.127E-05
:PTO008:      0    2   -2 -1.45716305E-02  3.880E-05  1.135E-05
:PTO009:     -1    1   -2 -7.34405143E-02  1.836E-04 -4.185E-06
:PTO011:     -1    3    0 -1.11935788E-02  2.799E-05  1.318E-05
:PTO012:     -1    3   -1 -4.64166372E-02  1.086E-04 -2.404E-05
:PTO013:      0    4    0 -8.00026457E-03  1.792E-05 -3.715E-06
:PTO014:      0    2   -3  1.85141505E-02 -4.087E-05  4.689E-07

:ENE  : ********** TOTAL ENERGY IN Ry =       -36944.34586356

       TOTAL FORCE IN mRy/a.u. = |F|     Fx             Fy             Fz     with/without FOR in case.in2
:FOR001:   1.ATOM          3.517          0.000          0.000         -3.517 partial forces
       TOTAL FORCE WITH RESPECT TO GLOBAL CARTESIAN COORDINATES:
:FCA001:   1.ATOM                         0.000         -3.517          0.000 partial forces
       TOTAL FORCE WITH RESPECT TO THE GLOBAL COORDINATE SYSTEM:
:FGL001:   1.ATOM                 0.000000000    -3.517306390     0.000000000 partial forces
 Flat Integration
 New Mode for Coulomb Integral
 Consistent 3/8+Simpson combinations
 Extension of core to zero
 LDM version in phi
 Fifth-order quadrature in outwin


            ---------
:ITE019: 19. ITERATION
            ---------

:NATO :    1 INDEPENDENT AND    2 TOTAL ATOMS IN UNITCELL
       SUBSTANCE: aU                                                          

       LATTICE                      = CXY 
:POT  : POTENTIAL OPTION EX_LDA EC_LDA VX_LDA VC_LDA
:LAT  : LATTICE CONSTANTS=  5.66945 11.50475  9.93229    1.571    1.571    1.571
:VOL  : UNIT CELL VOLUME =     323.91998
       MODE OF CALCULATION IS       = RELA
       NON-SPINPOLARIZED CALCULATION
:IFFT  : FFT-parameters:   48   90   80 Factor: 2.00


   CONVERGENCE PARAMETER FOR PSEUDOCHARGE: NCON=  9
   MAXIMAL VALUE OF RMT(JATOM)*ABSK(NKK) : RK  =27.59882


:VKCOUL :  VK-COUL convergence: 0.230E-06
       ATOMNUMBER=  1 Pr1        VCOUL-ZERO =  0.46443E+00
:EFG001:                        EFG         =    -9.58346   *10**21  V / m**2
                               V20  TOT/SRF=    -8.29952    -0.05665
                               V22  TOT/SRF=    -2.97642    -0.00969
                               V22M TOT/SRF=     0.00000     0.00000
                               V21  TOT/SRF=     0.00000     0.00000
                               V21M TOT/SRF=     0.00000     0.00000

              1.81531    0.00000    0.00000        1.81531    0.00000    0.00000
              0.00000    7.76815    0.00000        0.00000    7.76815    0.00000
              0.00000    0.00000   -9.58346        0.00000    0.00000   -9.58346

         MAIN DIRECTIONS OF THE EFG   1.0000  0.0000  0.0000
                                      0.0000  1.0000  0.0000
                                      0.0000  0.0000  1.0000
:ANG001:  ANGLE WITH OLD X-AXIS =         0.0

:ETA001:                         ASYMM. ETA =     0.62116


     HELLMANN-FEYNMAN-FORCE IN mRy/a.u. = |F|  Fx       Fy             Fz
:FHF001:   1.ATOM   1645.201338538969      0.000000000000      0.000000000000  -1645.201338538969

:FIT001: LUSE= 13 SIGMA OF V-XC FIT FOR ATOM  1  0.6217815E-04
:FIT001: LUSE= 13 SIGMA OF V-XC FIT FOR ATOM  1  0.6217815E-04
:DEN  : DENSITY INTEGRAL  =        -14192.54515909   (Ry)
       ELS_POTENTIAL_AT Z=0 and Z=0.5:   0.92512   0.92512
       ELS_POTENTIAL_AT Y=0 and Y=0.5:   0.01928   0.01928
:VZERO:v0,v0c,v0x   0.23283   0.92512  -0.69229 v5,v5c,v5x   0.23283   0.92512  -0.69229
:VZERY:v0,v0c,v0x  -0.89207   0.01928  -0.91135 v5,v5c,v5x  -0.89207   0.01928  -0.91135
:VZERX:v0,v0c,v0x  -1.25076  -0.39386  -0.85690 v5,v5c,v5x  -1.25076  -0.39386  -0.85690
:LMAX-WF:   10   Non-Spherical LMAX:   4

          ATOMIC SPHERE DEPENDENT PARAMETERS FOR ATOM  Pr1       
:e__0001: OVERALL ENERGY PARAMETER IS    0.7866
          OVERALL BASIS SET ON ATOM IS LAPW
:E0_0001: E( 0)=    0.7866
             APW+lo
:E0_0001: E( 0)=   -1.6437   E(BOTTOM)=   -2.281   E(TOP)=   -1.007  4  5   222
             LOCAL ORBITAL
:E1_0001: E( 1)=    1.1866
             APW+lo
:E1_0001: E( 1)=   -0.1742   E(BOTTOM)=   -1.135   E(TOP)=    0.786  3  4   228
             LOCAL ORBITAL
:E3_0001: E( 3)=    0.9977   E(BOTTOM)=    0.792   E(TOP)=    1.204  0  1   117
             APW+lo
:E2_0001: E( 2)=    0.7866   E(BOTTOM)=    0.603   E(TOP)= -200.000  2 -1   120
             APW+lo

       K=   0.06250   0.00000   0.06250            1
:RKM  : MATRIX SIZE   315LOs:  40  RKM= 8.49  WEIGHT= 4.00  PGR:    
       EIGENVALUES ARE:
:EIG00001:      -1.6580784   -1.6045517   -0.4480641   -0.2545436   -0.2097946
:EIG00006:      -0.1924395   -0.1736635   -0.1732391    0.8049698    0.8578968
:EIG00011:       0.9697801    0.9757942    0.9771495    0.9837318    0.9959526
:EIG00016:       1.0165831    1.0243177    1.0259078    1.0313534    1.0353943
:EIG00021:       1.0447140    1.0453998    1.0465673    1.0647420    1.0846606
:EIG00026:       1.1098901    1.2087041    1.2103897    1.2832192    1.3206153
:EIG00031:       1.3491217    1.5169287    1.5243583    1.6066073    1.9080491
:EIG00036:       1.9569405    1.9921981    2.1459602    2.2196357    2.3017428
:EIG00041:       2.4747612    2.5477104    2.6860268    2.7188759    2.8715435
:EIG00046:       2.8845145    2.8885417    3.0547517    3.0612420    3.2021473
 
:EIG00051:       3.2803778    3.3867083    3.3969984    3.5433533    3.5872785
:EIG00056:       3.6128037    3.6777935    3.8371829    3.8547755    3.9569119
:EIG00061:       4.0027483    4.1145551    4.1687239    4.1728869    4.2530430
:EIG00066:       4.3981082    4.4062714    4.4809922    4.5302455    4.5588180
:EIG00071:       4.6274237    4.6788720    4.7038068    4.8180359    4.8266408
:EIG00076:       4.8491781    4.8996408    4.9232157    4.9382838    5.0228444
:EIG00081:       5.0273719    5.0580862    5.1263584    5.1401310    5.1533595
:EIG00086:       5.2733394    5.3436674    5.4127566    5.4528335    5.4848065
:EIG00091:       5.5318689    5.5524171    5.6104317    5.6330647    5.6369858
:EIG00096:       5.6928235    5.7578409    5.7590864    5.8351677    5.8819572
 
:EIG00101:       5.9428717    6.0629165    6.1210691    6.1742401    6.1849014
:EIG00106:       6.2957637    6.2981200    6.3424032    6.4103899    6.5177929
:EIG00111:       6.6059871    6.6390874    6.7421444    6.7710395    6.8465323
:EIG00116:       6.9224606    6.9711945    7.0289684    7.0599406    7.1059138
:EIG00121:       7.1862117    7.2184501    7.2935550    7.2950796    7.4019337
:EIG00126:       7.4348032    7.4912775    7.5031981    7.5614061    7.5945244
:EIG00131:       7.6627604    7.6959018    7.6983255    7.8464543    7.8844954
:EIG00136:       7.9127511    7.9198871    8.0484211    8.0634939    8.0823210
:EIG00141:       8.1186122    8.1351482    8.1402606    8.2678878    8.2978825
:EIG00146:       8.3001678    8.3495406    8.4183654    8.4812827
 
       ********************************************************

:KPT   :      NUMBER OF K-POINTS:   288
   0.0   0.0 angle (M,z), angle (M,x) deg
 
        SPIN-ORBIT EIGENVALUES:
     K=   0.06250   0.00000   0.06250            1
      MATRIX SIZE=  298   WEIGHT= 4.00
     EIGENVALUES ARE:
          -1.6580796   -1.6580796   -1.6045526   -1.6045526   -0.4922700
          -0.4922700   -0.3477614   -0.3477614   -0.2630977   -0.2630977
          -0.1325278   -0.1325278   -0.1286839   -0.1286839   -0.1077897
          -0.1077897    0.8050737    0.8050737    0.8577912    0.8577912
           0.9675272    0.9675272    0.9731286    0.9731286    0.9748526
           0.9748526    0.9817157    0.9817157    0.9928229    0.9928229
           1.0081948    1.0081948    1.0188857    1.0188857    1.0284022
           1.0284022    1.0367194    1.0367194    1.0385076    1.0385076

           1.0457132    1.0457132    1.0484071    1.0484071    1.0510951
           1.0510951    1.0676974    1.0676974    1.0862080    1.0862080
           1.1102258    1.1102258    1.2035180    1.2035180    1.2155104
           1.2155104    1.2837297    1.2837298    1.3204433    1.3204433
           1.3496173    1.3496173    1.5168519    1.5168519    1.5247064
           1.5247064    1.6067737    1.6067737    1.9084401    1.9084401
           1.9569951    1.9569951    1.9921925    1.9921925    2.1459098
           2.1459098    2.2194276    2.2194276    2.3011762    2.3011762

           2.4749421    2.4749421    2.5471718    2.5471718    2.6855631
           2.6855631    2.7187339    2.7187339    2.8715132    2.8715132
           2.8844692    2.8844692    2.8881282    2.8881282    3.0505793
           3.0505793    3.0654286    3.0654286    3.2023444    3.2023444
           3.2799118    3.2799118    3.3816050    3.3816050    3.4006300
           3.4006300    3.5431338    3.5431338    3.5861415    3.5861415
           3.6141860    3.6141860    3.6761451    3.6761451    3.8375241
           3.8375241    3.8565226    3.8565226    3.9565925    3.9565925

           4.0040667    4.0040667    4.1149672    4.1149672    4.1718145
           4.1718145    4.1739055    4.1739055    4.2531918    4.2531918
           4.3980124    4.3980124    4.4065897    4.4065897    4.4810734
           4.4810734
       ********************************************************
:GAP (global)   :    0.0    Ry =     0.0   eV (metal)
:GAP (this spin):    0.0    Ry =     0.0   eV (metal)
         Bandranges (emin - emax) and occupancy:
:BAN00020:  20    0.833561    0.949944  1.00000000
:BAN00021:  21    0.863452    0.984987  1.00000000
:BAN00022:  22    0.863452    0.984987  1.00000000
:BAN00023:  23    0.929081    0.990968  0.99144477
:BAN00024:  24    0.929081    0.990968  0.99144476
:BAN00025:  25    0.947667    1.005615  0.67593975
:BAN00026:  26    0.947667    1.005615  0.67593965
:BAN00027:  27    0.972659    1.009711  0.33194297
:BAN00028:  28    0.972659    1.009711  0.33194280
:BAN00029:  29    0.987836    1.013853  0.00067265
:BAN00030:  30    0.987836    1.013853  0.00067265
:BAN00031:  31    0.994767    1.022569  0.00000000
:BAN00032:  32    0.994767    1.022569  0.00000000
:BAN00033:  33    1.011495    1.031492  0.00000000
:BAN00034:  34    1.011495    1.031492  0.00000000
:BAN00035:  35    1.014649    1.037664  0.00000000
        Energy to separate low and high energystates:    0.73854


:NOE  : NUMBER OF ELECTRONS          =   26.000

:FER  : F E R M I - ENERGY(TETRAH.M.)=   0.9882498694
:GMA  : POTENTIAL AND CHARGE CUT-OFF  12.00 Ry**.5

:POS001: ATOM   -1 X,Y,Z = 0.00000 0.89750 0.25000  MULT= 2  ZZ= 59.000  Pr1       

       LMMAX 16
       LM=   0 0  1 0  2 0  2 2  3 0  3 2  4 0  4 2  4 4  5 0  5 2  5 4  6 0  6 2  6 4  6 6

:CHA001: TOTAL VALENCE CHARGE INSIDE SPHERE   1 =   9.7069    (RMT=  2.3000 )
:PCS001: PARTIAL CHARGES SPHERE =  1 S,P,D,F,PX,PY,PZ,D-Z2,D-X2Y2,D-XY,D-XZ,D-YZ 
:QTL001: 1.9377 4.9747 0.7633 2.0295 1.6570 1.6534 1.6642 0.1479 0.1360 0.1575 0.1569 0.1651
        Q-s-low E-s-low   Q-p-low E-p-low   Q-d-low E-d-low   Q-f-low E-f-low
:EPL001:  1.8687 -1.6010    4.8934 -0.2963    0.0124 -0.3126    0.0038 -0.3250
        Q-s-hi  E-s-hi    Q-p-hi  E-p-hi    Q-d-hi  E-d-hi    Q-f-hi  E-f-hi 
:EPH001:  0.0691  0.8996    0.0812  0.9252    0.7509  0.9081    2.0256  0.9604

                      VXX         VYY         VZZ       UP TO R
:VZZ001:             1.87091     7.58293    -9.45384       2.300

:CHA  : TOTAL VALENCE CHARGE INSIDE UNIT CELL =      26.000000

:SUM  : SUM OF EIGENVALUES =          -0.699163600


        1.ATOM      Pr1                  14 CORE STATES
       CORE-FORCE in mRy/a.u. = |F|      Fx             Fy             Fz
:FCO001:   1.ATOM   1641.948599510859      0.000000000000      0.000000000000   1641.948599510859

:1S 001: 1S               -3066.599092672 Ry
:2S 001: 2S                -492.352844034 Ry
:2PP001: 2P*               -465.451357343 Ry
:2P 001: 2P                -430.054078328 Ry
:3S 001: 3S                -105.450580535 Ry
:3PP001: 3P*                -93.988117496 Ry
:3P 001: 3P                 -86.980456263 Ry
:3DD001: 3D*                -66.906436401 Ry
:3D 001: 3D                 -65.394980190 Ry
:4S 001: 4S                 -20.119597725 Ry
:4PP001: 4P*                -15.825512890 Ry
:4P 001: 4P                 -14.296893804 Ry
:4DD001: 4D*                 -7.227411582 Ry
:4D 001: 4D                  -6.957584819 Ry
:CINT001 Core Integral Atom   1   45.998498

       DENSITY AT NUCLEUS
        JATOM        VALENCE       SEMI-CORE          CORE           TOTAL
:RTO001:   1      646.608757        0.000000   656825.976057   657472.584814
     
       CHARGES OF NEW CHARGE DENSITY
:NTO   : INTERSTITIAL CHARGE =     6.586164
:NPC   : PW Pseudocharge     =    17.438046
:NTO001: CHARGE SPHERE  1    =    55.705415

:NEC01: NUCLEAR AND ELECTRONIC CHARGE    118.00000   117.99699
     
       CHARGES OF OLD CHARGE DENSITY
:OTO   : INTERSTITIAL CHARGE =     6.583585
:OPC   : PW Pseudocharge     =    17.414820
:OTO001: CHARGE SPHERE  1    =    55.708208

:NEC02: NUCLEAR AND ELECTRONIC CHARGE    118.00000   118.00000
     
       CONVERGENCE TEST
:DTO001: DIFFERENCE IN SPHERE  1 =  0.0061562

:DIS  :  CHARGE DISTANCE       ( 0.0061562 for atom    1 spin 1)      0.0061562
 PW Mixed is          345
 
******************************************************
* MULTISECANT MIXING VER9 RELEASE 10.4.0              *
* Slow Mode, cautious                                *
* Fixed density scale                                *
* Regularization       1.000E-04                     *
* Step Trust Radius    0.75000                       *
* Trust Upper Limit    2.000E+00                     *
* Max Number of Memory Steps   12                    *
******************************************************
 
:PWTMP   2.2199E+02  1.9467E+02  3.2392E+02
:PLANE:  PW TOTAL      5.7746 DISTAN   1.16E-02  2.01E-01 %
:CHARG:  CLM/ATOM   1381.9537 DISTAN   1.80E-02  1.30E-03 %
 
Step History
        DMIX         DMIXT        Red     Pred      Trust     Lambda    MagRel    MagAbs     Beta
  1   3.5000E-02   3.5000E-02 -1.00E+00  1.00E+00 -1.00E+01  1.00E+00  3.50E-02  3.50E-02  1.00E+00
  2   2.5000E-02   2.5000E-02  7.63E-01  1.00E+00 -1.00E+01  1.00E+00  2.50E-02  2.16E-03  1.00E+00
  3   2.0000E-02   2.0000E-02 -1.00E+00  3.33E-01  5.09E-01  1.00E+00  2.07E-01  1.36E-02  1.00E+00
:JACOBIANS    3.883E-02   7.062E-02
  
:NORMS:  1/Froebius, Min, Max, Used   0.2203E+00  0.2203E+00  0.4029E+00  0.2209E+00
:INFO :  Number of Memory Steps    2 Skipping    0
:INFO :  SLambda=    0.1954072449  Max    0.1954072449
:PREDicted Charge, CTotal, PW Trust    1.904E-03   3.808E-03   2.384E-02
:PREDicted DMix, Beta, BLim   6.7128E-04  1.0096E+00  3.7055E-01

Eigenvalues, unscaled except for SY+YY
   #     SY Real        SY Imag          SS             YY         SY+YY Real      SY+YY Imag
   1   2.906110E-01   0.000000E+00   9.709546E-02   1.999995E+00   2.056783E+00   0.000000E+00
   2   1.867609E-06   0.000000E+00   1.488015E-06   4.507899E-06   4.866612E-06   0.000000E+00
 
:INFO :  Singular value  2.057E+00 Weight  1.000E+00 Projection  5.455E-07
:INFO :  Singular value  4.867E-06 Weight  5.917E-04 Projection -4.330E-03
:RANK :  ACTIVE   1.00/2  =  50.03 % ; YY RANK   1.00/2  =  50.03 %
 
:BLIM :  VZERO Control Off
:TRUST:  Step 6.36E-01  Charge 7.50E-02 (e) CTO  2.50E-01 (e) PW  3.50E-01 (e)
:DIRM :  MEMORY  2/12 SCALE   1.000 RED  0.33 PRED  0.33 NEXT  1.00 
:TRAVE:  Charge 9.67E-04 (e) CTO  1.93E-03 (e) PW  1.20E-02 (e)
:DIRP :  |MSR1|= 1.520E-04 |PRATT|= 1.162E-02 ANGLE=   0.0 DEGREES
:DIRQ :  |MSR1|= 2.361E-04 |PRATT|= 1.803E-02 ANGLE=   0.0 DEGREES
:DIRT :  |MSR1|= 2.808E-04 |PRATT|= 2.145E-02 ANGLE=   0.0 DEGREES
:MIX  :   MSD1   REGULARIZATION:  2.00E-04 GREED: 0.01284  Newton 1.00  0.0131                
     
       CHARGES OF MIXED CHARGE DENSITY
:CTO   : INTERSTITIAL CHARGE =     6.583658
:CPC   : PW Pseudocharge     =    17.415227
:CTO001: CHARGE SPHERE  1    =    55.708171

:NEC03: NUCLEAR AND ELECTRONIC CHARGE    118.00000   118.00000

PW CHANGE     H    K    L      Current       Change    Residue
:PTO001:      0    0    0  7.40889300E-02  1.484E-06  1.135E-04
:PTO003:      0    2    0  1.77633807E-02  4.328E-07  3.311E-05
:PTO004:     -1    1    0  8.44483156E-02  2.148E-06  1.643E-04
:PTO005:      0    2   -1 -9.67769150E-02 -2.830E-06 -2.164E-04
:PTO006:      0    0   -2 -5.01695731E-02 -1.536E-06 -1.174E-04
:PTO007:     -1    1   -1 -1.01360895E-01 -2.673E-06 -2.045E-04
:PTO008:      0    2   -2 -1.45720256E-02 -3.951E-07 -3.023E-05
:PTO009:     -1    1   -2 -7.34428177E-02 -2.303E-06 -1.762E-04
:PTO011:     -1    3    0 -1.11938969E-02 -3.182E-07 -2.433E-05
:PTO012:     -1    3   -1 -4.64182682E-02 -1.631E-06 -1.247E-04
:PTO013:      0    4    0 -8.00053289E-03 -2.683E-07 -2.052E-05
:PTO014:      0    2   -3  1.85147992E-02  6.488E-07  4.960E-05

:ENE  : ********** TOTAL ENERGY IN Ry =       -36944.34572460

       TOTAL FORCE IN mRy/a.u. = |F|     Fx             Fy             Fz     with/without FOR in case.in2
:FOR001:   1.ATOM          3.253          0.000          0.000         -3.253 partial forces
       TOTAL FORCE WITH RESPECT TO GLOBAL CARTESIAN COORDINATES:
:FCA001:   1.ATOM                         0.000         -3.253          0.000 partial forces
       TOTAL FORCE WITH RESPECT TO THE GLOBAL COORDINATE SYSTEM:
:FGL001:   1.ATOM                 0.000000000    -3.252739028     0.000000000 partial forces
 Flat Integration
 New Mode for Coulomb Integral
 Consistent 3/8+Simpson combinations
 Extension of core to zero
 LDM version in phi
 Fifth-order quadrature in outwin


            ---------
:ITE020: 20. ITERATION
            ---------

:NATO :    1 INDEPENDENT AND    2 TOTAL ATOMS IN UNITCELL
       SUBSTANCE: aU                                                          

       LATTICE                      = CXY 
:POT  : POTENTIAL OPTION EX_LDA EC_LDA VX_LDA VC_LDA
:LAT  : LATTICE CONSTANTS=  5.66945 11.50475  9.93229    1.571    1.571    1.571
:VOL  : UNIT CELL VOLUME =     323.91998
       MODE OF CALCULATION IS       = RELA
       NON-SPINPOLARIZED CALCULATION
:IFFT  : FFT-parameters:   48   90   80 Factor: 2.00


   CONVERGENCE PARAMETER FOR PSEUDOCHARGE: NCON=  9
   MAXIMAL VALUE OF RMT(JATOM)*ABSK(NKK) : RK  =27.59882


:VKCOUL :  VK-COUL convergence: 0.230E-06
       ATOMNUMBER=  1 Pr1        VCOUL-ZERO =  0.46444E+00
:EFG001:                        EFG         =    -9.58268   *10**21  V / m**2
                               V20  TOT/SRF=    -8.29884    -0.05665
                               V22  TOT/SRF=    -2.97487    -0.00967
                               V22M TOT/SRF=     0.00000     0.00000
                               V21  TOT/SRF=     0.00000     0.00000
                               V21M TOT/SRF=     0.00000     0.00000

              1.81647    0.00000    0.00000        1.81647    0.00000    0.00000
              0.00000    7.76621    0.00000        0.00000    7.76621    0.00000
              0.00000    0.00000   -9.58268        0.00000    0.00000   -9.58268

         MAIN DIRECTIONS OF THE EFG   1.0000  0.0000  0.0000
                                      0.0000  1.0000  0.0000
                                      0.0000  0.0000  1.0000
:ANG001:  ANGLE WITH OLD X-AXIS =         0.0

:ETA001:                         ASYMM. ETA =     0.62088


     HELLMANN-FEYNMAN-FORCE IN mRy/a.u. = |F|  Fx       Fy             Fz
:FHF001:   1.ATOM   1645.159084438438      0.000000000000      0.000000000000  -1645.159084438438

:FIT001: LUSE= 13 SIGMA OF V-XC FIT FOR ATOM  1  0.6215852E-04
:FIT001: LUSE= 13 SIGMA OF V-XC FIT FOR ATOM  1  0.6215852E-04
:DEN  : DENSITY INTEGRAL  =        -14192.54673671   (Ry)
       ELS_POTENTIAL_AT Z=0 and Z=0.5:   0.92513   0.92513
       ELS_POTENTIAL_AT Y=0 and Y=0.5:   0.01928   0.01928
:VZERO:v0,v0c,v0x   0.23284   0.92513  -0.69229 v5,v5c,v5x   0.23284   0.92513  -0.69229
:VZERY:v0,v0c,v0x  -0.89207   0.01928  -0.91135 v5,v5c,v5x  -0.89207   0.01928  -0.91135
:VZERX:v0,v0c,v0x  -1.25077  -0.39386  -0.85691 v5,v5c,v5x  -1.25077  -0.39386  -0.85691
:LMAX-WF:   10   Non-Spherical LMAX:   4

          ATOMIC SPHERE DEPENDENT PARAMETERS FOR ATOM  Pr1       
:e__0001: OVERALL ENERGY PARAMETER IS    0.7877
          OVERALL BASIS SET ON ATOM IS LAPW
:E0_0001: E( 0)=    0.7877
             APW+lo
:E0_0001: E( 0)=   -1.6437   E(BOTTOM)=   -2.281   E(TOP)=   -1.007  4  5   215
             LOCAL ORBITAL
:E1_0001: E( 1)=    1.1877
             APW+lo
:E1_0001: E( 1)=   -0.1742   E(BOTTOM)=   -1.135   E(TOP)=    0.786  3  4   219
             LOCAL ORBITAL
:E3_0001: E( 3)=    0.9977   E(BOTTOM)=    0.792   E(TOP)=    1.204  0  1   117
             APW+lo
:E2_0001: E( 2)=    0.7877   E(BOTTOM)=    0.603   E(TOP)= -200.000  2 -1   122
             APW+lo

       K=   0.06250   0.00000   0.06250            1
:RKM  : MATRIX SIZE   315LOs:  40  RKM= 8.49  WEIGHT= 4.00  PGR:    
       EIGENVALUES ARE:
:EIG00001:      -1.6580693   -1.6045423   -0.4480580   -0.2545350   -0.2097859
:EIG00006:      -0.1924286   -0.1736572   -0.1732280    0.8049804    0.8579064
:EIG00011:       0.9697953    0.9758116    0.9771612    0.9837469    0.9959647
:EIG00016:       1.0166000    1.0243341    1.0259246    1.0313697    1.0354077
:EIG00021:       1.0447317    1.0454173    1.0465835    1.0647555    1.0846748
:EIG00026:       1.1099027    1.2087127    1.2103985    1.2832295    1.3206257
:EIG00031:       1.3491308    1.5169374    1.5243663    1.6066132    1.9080615
:EIG00036:       1.9569528    1.9922082    2.1459657    2.2196465    2.3017507
:EIG00041:       2.4747693    2.5477179    2.6860327    2.7188811    2.8715464
:EIG00046:       2.8845103    2.8885477    3.0547549    3.0612438    3.2021520
 
:EIG00051:       3.2803738    3.3867045    3.3969931    3.5433366    3.5872730
:EIG00056:       3.6128020    3.6777962    3.8371468    3.8547759    3.9568932
:EIG00061:       4.0027484    4.1145528    4.1687040    4.1728805    4.2530100
:EIG00066:       4.3980962    4.4062504    4.4809843    4.5302407    4.5588035
:EIG00071:       4.6274119    4.6788695    4.7037968    4.8180341    4.8266343
:EIG00076:       4.8491731    4.8996286    4.9232089    4.9382684    5.0228445
:EIG00081:       5.0273605    5.0580814    5.1263489    5.1401199    5.1533529
:EIG00086:       5.2733385    5.3436637    5.4127439    5.4528057    5.4847991
:EIG00091:       5.5318560    5.5524109    5.6103813    5.6330539    5.6369352
:EIG00096:       5.6928238    5.7578266    5.7590834    5.8351383    5.8819447
 
:EIG00101:       5.9428504    6.0628923    6.1210561    6.1742267    6.1848909
:EIG00106:       6.2957493    6.2981023    6.3423960    6.4103809    6.5177705
:EIG00111:       6.6059653    6.6390598    6.7421148    6.7710271    6.8464901
:EIG00116:       6.9223919    6.9711760    7.0289024    7.0598790    7.1058510
:EIG00121:       7.1861663    7.2184015    7.2935237    7.2950367    7.4019052
:EIG00126:       7.4347765    7.4912545    7.5031717    7.5613676    7.5944967
:EIG00131:       7.6627320    7.6958836    7.6982793    7.8464317    7.8844595
:EIG00136:       7.9126994    7.9198592    8.0483642    8.0634744    8.0822833
:EIG00141:       8.1185818    8.1351074    8.1402189    8.2678683    8.2978021
:EIG00146:       8.3001104    8.3494711    8.4183293    8.4812469
 
       ********************************************************

:KPT   :      NUMBER OF K-POINTS:   288
   0.0   0.0 angle (M,z), angle (M,x) deg
 
        SPIN-ORBIT EIGENVALUES:
     K=   0.06250   0.00000   0.06250            1
      MATRIX SIZE=  298   WEIGHT= 4.00
     EIGENVALUES ARE:
          -1.6580705   -1.6580705   -1.6045432   -1.6045432   -0.4922634
          -0.4922634   -0.3477527   -0.3477527   -0.2630891   -0.2630891
          -0.1325179   -0.1325179   -0.1286741   -0.1286741   -0.1077821
          -0.1077821    0.8050843    0.8050844    0.8578007    0.8578007
           0.9675425    0.9675425    0.9731456    0.9731456    0.9748650
           0.9748650    0.9817309    0.9817309    0.9928353    0.9928353
           1.0082116    1.0082116    1.0189014    1.0189014    1.0284187
           1.0284187    1.0367358    1.0367358    1.0385222    1.0385223

           1.0457301    1.0457301    1.0484232    1.0484232    1.0511122
           1.0511122    1.0677111    1.0677111    1.0862223    1.0862223
           1.1102385    1.1102385    1.2035265    1.2035265    1.2155193
           1.2155193    1.2837401    1.2837401    1.3204536    1.3204536
           1.3496263    1.3496263    1.5168605    1.5168605    1.5247145
           1.5247145    1.6067797    1.6067797    1.9084526    1.9084526
           1.9570075    1.9570075    1.9922025    1.9922025    2.1459153
           2.1459153    2.2194385    2.2194385    2.3011841    2.3011841

           2.4749501    2.4749501    2.5471792    2.5471792    2.6855689
           2.6855689    2.7187390    2.7187390    2.8715161    2.8715161
           2.8844660    2.8844660    2.8881332    2.8881332    3.0505823
           3.0505823    3.0654304    3.0654304    3.2023491    3.2023491
           3.2799080    3.2799080    3.3816002    3.3816002    3.4006256
           3.4006256    3.5431170    3.5431170    3.5861361    3.5861361
           3.6141842    3.6141842    3.6761473    3.6761473    3.8374884
           3.8374884    3.8565228    3.8565228    3.9565738    3.9565738

           4.0040661    4.0040661    4.1149648    4.1149648    4.1718007
           4.1718007    4.1738935    4.1738935    4.2531589    4.2531589
           4.3980002    4.3980002    4.4065692    4.4065692    4.4810654
           4.4810654
       ********************************************************
:GAP (global)   :    0.0    Ry =     0.0   eV (metal)
:GAP (this spin):    0.0    Ry =     0.0   eV (metal)
         Bandranges (emin - emax) and occupancy:
:BAN00020:  20    0.833571    0.949956  1.00000000
:BAN00021:  21    0.863462    0.985001  1.00000000
:BAN00022:  22    0.863462    0.985001  1.00000000
:BAN00023:  23    0.929092    0.990983  0.99144540
:BAN00024:  24    0.929092    0.990983  0.99144539
:BAN00025:  25    0.947682    1.005630  0.67595553
:BAN00026:  26    0.947682    1.005630  0.67595543
:BAN00027:  27    0.972674    1.009728  0.33192507
:BAN00028:  28    0.972674    1.009728  0.33192493
:BAN00029:  29    0.987850    1.013871  0.00067412
:BAN00030:  30    0.987850    1.013871  0.00067412
:BAN00031:  31    0.994781    1.022585  0.00000000
:BAN00032:  32    0.994781    1.022585  0.00000000
:BAN00033:  33    1.011510    1.031508  0.00000000
:BAN00034:  34    1.011510    1.031508  0.00000000
:BAN00035:  35    1.014664    1.037679  0.00000000
        Energy to separate low and high energystates:    0.73855


:NOE  : NUMBER OF ELECTRONS          =   26.000

:FER  : F E R M I - ENERGY(TETRAH.M.)=   0.9882648655
:GMA  : POTENTIAL AND CHARGE CUT-OFF  12.00 Ry**.5

:POS001: ATOM   -1 X,Y,Z = 0.00000 0.89750 0.25000  MULT= 2  ZZ= 59.000  Pr1       

       LMMAX 16
       LM=   0 0  1 0  2 0  2 2  3 0  3 2  4 0  4 2  4 4  5 0  5 2  5 4  6 0  6 2  6 4  6 6

:CHA001: TOTAL VALENCE CHARGE INSIDE SPHERE   1 =   9.7069    (RMT=  2.3000 )
:PCS001: PARTIAL CHARGES SPHERE =  1 S,P,D,F,PX,PY,PZ,D-Z2,D-X2Y2,D-XY,D-XZ,D-YZ 
:QTL001: 1.9377 4.9747 0.7634 2.0294 1.6570 1.6534 1.6642 0.1479 0.1360 0.1575 0.1569 0.1651
        Q-s-low E-s-low   Q-p-low E-p-low   Q-d-low E-d-low   Q-f-low E-f-low
:EPL001:  1.8687 -1.6009    4.8934 -0.2963    0.0124 -0.3126    0.0038 -0.3250
        Q-s-hi  E-s-hi    Q-p-hi  E-p-hi    Q-d-hi  E-d-hi    Q-f-hi  E-f-hi 
:EPH001:  0.0691  0.8996    0.0812  0.9252    0.7509  0.9081    2.0256  0.9604

                      VXX         VYY         VZZ       UP TO R
:VZZ001:             1.86775     7.58749    -9.45524       2.300

:CHA  : TOTAL VALENCE CHARGE INSIDE UNIT CELL =      26.000000

:SUM  : SUM OF EIGENVALUES =          -0.698904942


        1.ATOM      Pr1                  14 CORE STATES
       CORE-FORCE in mRy/a.u. = |F|      Fx             Fy             Fz
:FCO001:   1.ATOM   1641.875406171235      0.000000000000      0.000000000000   1641.875406171235

:1S 001: 1S               -3066.599098583 Ry
:2S 001: 2S                -492.352841639 Ry
:2PP001: 2P*               -465.451356784 Ry
:2P 001: 2P                -430.054077081 Ry
:3S 001: 3S                -105.450563384 Ry
:3PP001: 3P*                -93.988101109 Ry
:3P 001: 3P                 -86.980439194 Ry
:3DD001: 3D*                -66.906421295 Ry
:3D 001: 3D                 -65.394964824 Ry
:4S 001: 4S                 -20.119575846 Ry
:4PP001: 4P*                -15.825491397 Ry
:4P 001: 4P                 -14.296872664 Ry
:4DD001: 4D*                 -7.227391489 Ry
:4D 001: 4D                  -6.957564872 Ry
:CINT001 Core Integral Atom   1   45.998498

       DENSITY AT NUCLEUS
        JATOM        VALENCE       SEMI-CORE          CORE           TOTAL
:RTO001:   1      646.608695        0.000000   656825.978363   657472.587058
     
       CHARGES OF NEW CHARGE DENSITY
:NTO   : INTERSTITIAL CHARGE =     6.586254
:NPC   : PW Pseudocharge     =    17.438101
:NTO001: CHARGE SPHERE  1    =    55.705370

:NEC01: NUCLEAR AND ELECTRONIC CHARGE    118.00000   117.99699
     
       CHARGES OF OLD CHARGE DENSITY
:OTO   : INTERSTITIAL CHARGE =     6.583658
:OPC   : PW Pseudocharge     =    17.415227
:OTO001: CHARGE SPHERE  1    =    55.708171

:NEC02: NUCLEAR AND ELECTRONIC CHARGE    118.00000   118.00000
     
       CONVERGENCE TEST
:DTO001: DIFFERENCE IN SPHERE  1 =  0.0060286

:DIS  :  CHARGE DISTANCE       ( 0.0060286 for atom    1 spin 1)      0.0060286
 PW Mixed is          345
 
******************************************************
* MULTISECANT MIXING VER9 RELEASE 10.4.0              *
* Slow Mode, cautious                                *
* Fixed density scale                                *
* Regularization       1.000E-04                     *
* Step Trust Radius    0.75000                       *
* Trust Upper Limit    2.000E+00                     *
* Max Number of Memory Steps   12                    *
******************************************************
 
:PWTMP   2.2199E+02  1.9467E+02  3.2392E+02
:PLANE:  PW TOTAL      5.7747 DISTAN   1.15E-02  1.99E-01 %
:CHARG:  CLM/ATOM   1381.9536 DISTAN   1.77E-02  1.28E-03 %
 
Step History
        DMIX         DMIXT        Red     Pred      Trust     Lambda    MagRel    MagAbs     Beta
  1   3.5000E-02   3.5000E-02 -1.00E+00  1.00E+00 -1.00E+01  1.00E+00  3.50E-02  3.50E-02  1.00E+00
  2   2.5000E-02   2.5000E-02  7.63E-01  1.00E+00 -1.00E+01  1.00E+00  2.50E-02  2.16E-03  1.00E+00
  3   2.0000E-02   2.0000E-02  3.26E-01  3.33E-01  5.09E-01  1.95E-01  2.07E-01  1.36E-02  1.00E+00
  4   1.2836E-02   1.2836E-02 -1.00E+00  1.00E+00  6.36E-01  1.00E+00  1.31E-02  2.81E-04  1.00E+00
:JACOBIANS    1.589E-01   3.204E-01
  
:NORMS:  1/Froebius, Min, Max, Used   0.4371E+00  0.2978E+00  0.7203E+00  0.4670E+00
:INFO :  Number of Memory Steps    3 Skipping    0
:INFO :  SLambda=    1.2106701421  Max    1.2106701421
:PREDicted Charge, CTotal, PW Trust    2.370E-03   4.739E-03   1.997E-02
:PREDicted DMix, Beta, BLim   7.0198E-01  3.0098E+01  7.7601E-01

Eigenvalues, unscaled except for SY+YY
   #     SY Real        SY Imag          SS             YY         SY+YY Real      SY+YY Imag
   1   3.628672E-08   0.000000E+00   4.870965E-01   2.233443E+00   2.666902E+00   0.000000E+00
   2   2.892292E-01   0.000000E+00   8.597598E-02   7.665552E-01   1.515545E-06   0.000000E+00
   3   5.869969E-01   0.000000E+00   1.033095E-09   1.447076E-06   1.393918E+00   0.000000E+00
 
:INFO :  Singular value  2.667E+00 Weight  1.000E+00 Projection -6.004E-03
:INFO :  Singular value  1.394E+00 Weight  1.000E+00 Projection -2.275E-02
:INFO :  Singular value  1.516E-06 Weight  4.604E-05 Projection  1.311E-04
:RANK :  ACTIVE   2.00/3  =  66.67 % ; YY RANK   2.00/3  =  66.67 %
 
:BLIM :  VZERO Control Off
:TRUST:  Step 6.74E-01  Charge 7.50E-02 (e) CTO  2.50E-01 (e) PW  3.50E-01 (e)
:DTRUS:  Lambda    5.161E-02 Increment    3.638E-12 Iterations    99 DMIX    2.783E-02
:INFOA:  Angle SubSpace to MSR1      0.26
:DIRM :  MEMORY  3/12 SCALE   1.000 RED  0.98 PRED  1.00 NEXT  0.42 
:INFO :  Limited by Atoms F by Step T

:TRAVE:  Charge 1.48E-03 (e) CTO  2.96E-03 (e) PW  1.44E-02 (e)
:DIRP :  |MSR1|= 8.789E-03 |PRATT|= 1.148E-02 ANGLE=   1.6 DEGREES
:DIRQ :  |MSR1|= 1.120E-02 |PRATT|= 1.771E-02 ANGLE=   2.9 DEGREES
:DIRT :  |MSR1|= 1.423E-02 |PRATT|= 2.111E-02 ANGLE=   5.8 DEGREES
:MIX  :   MSE1   REGULARIZATION:  2.23E-04 GREED: 0.03209  LMStep 0.87  0.6743 Step           
     
       CHARGES OF MIXED CHARGE DENSITY
:CTO   : INTERSTITIAL CHARGE =     6.587652
:CPC   : PW Pseudocharge     =    17.439242
:CTO001: CHARGE SPHERE  1    =    55.706174

:NEC03: NUCLEAR AND ELECTRONIC CHARGE    118.00000   118.00000

PW CHANGE     H    K    L      Current       Change    Residue
:PTO001:      0    0    0  7.41753986E-02  8.647E-05  1.125E-04
:PTO003:      0    2    0  1.77888514E-02  2.547E-05  3.281E-05
:PTO004:     -1    1    0  8.45755111E-02  1.272E-04  1.626E-04
:PTO005:      0    2   -1 -9.69401296E-02 -1.632E-04 -2.136E-04
:PTO006:      0    0   -2 -5.02573107E-02 -8.774E-05 -1.158E-04
:PTO007:     -1    1   -1 -1.01519201E-01 -1.583E-04 -2.019E-04
:PTO008:      0    2   -2 -1.45957419E-02 -2.372E-05 -2.984E-05
:PTO009:     -1    1   -2 -7.35761037E-02 -1.333E-04 -1.737E-04
:PTO011:     -1    3    0 -1.12125156E-02 -1.862E-05 -2.397E-05
:PTO012:     -1    3   -1 -4.65104451E-02 -9.218E-05 -1.231E-04
:PTO013:      0    4    0 -8.01566299E-03 -1.513E-05 -2.023E-05
:PTO014:      0    2   -3  1.85510282E-02  3.623E-05  4.888E-05

:ENE  : ********** TOTAL ENERGY IN Ry =       -36944.34572676

       TOTAL FORCE IN mRy/a.u. = |F|     Fx             Fy             Fz     with/without FOR in case.in2
:FOR001:   1.ATOM          3.284          0.000          0.000         -3.284 partial forces
       TOTAL FORCE WITH RESPECT TO GLOBAL CARTESIAN COORDINATES:
:FCA001:   1.ATOM                         0.000         -3.284          0.000 partial forces
       TOTAL FORCE WITH RESPECT TO THE GLOBAL COORDINATE SYSTEM:
:FGL001:   1.ATOM                 0.000000000    -3.283678267     0.000000000 partial forces
 Flat Integration
 New Mode for Coulomb Integral
 Consistent 3/8+Simpson combinations
 Extension of core to zero
 LDM version in phi
 Fifth-order quadrature in outwin


            ---------
:ITE021: 21. ITERATION
            ---------

:NATO :    1 INDEPENDENT AND    2 TOTAL ATOMS IN UNITCELL
       SUBSTANCE: aU                                                          

       LATTICE                      = CXY 
:POT  : POTENTIAL OPTION EX_LDA EC_LDA VX_LDA VC_LDA
:LAT  : LATTICE CONSTANTS=  5.66945 11.50475  9.93229    1.571    1.571    1.571
:VOL  : UNIT CELL VOLUME =     323.91998
       MODE OF CALCULATION IS       = RELA
       NON-SPINPOLARIZED CALCULATION
:IFFT  : FFT-parameters:   48   90   80 Factor: 2.00


   CONVERGENCE PARAMETER FOR PSEUDOCHARGE: NCON=  9
   MAXIMAL VALUE OF RMT(JATOM)*ABSK(NKK) : RK  =27.59882


:VKCOUL :  VK-COUL convergence: 0.226E-06
       ATOMNUMBER=  1 Pr1        VCOUL-ZERO =  0.46489E+00
:EFG001:                        EFG         =    -9.54974   *10**21  V / m**2
                               V20  TOT/SRF=    -8.27032    -0.05661
                               V22  TOT/SRF=    -2.90643    -0.00909
                               V22M TOT/SRF=     0.00000     0.00000
                               V21  TOT/SRF=     0.00000     0.00000
                               V21M TOT/SRF=     0.00000     0.00000

              1.86844    0.00000    0.00000        1.86844    0.00000    0.00000
              0.00000    7.68130    0.00000        0.00000    7.68130    0.00000
              0.00000    0.00000   -9.54974        0.00000    0.00000   -9.54974

         MAIN DIRECTIONS OF THE EFG   1.0000  0.0000  0.0000
                                      0.0000  1.0000  0.0000
                                      0.0000  0.0000  1.0000
:ANG001:  ANGLE WITH OLD X-AXIS =         0.0

:ETA001:                         ASYMM. ETA =     0.60869


     HELLMANN-FEYNMAN-FORCE IN mRy/a.u. = |F|  Fx       Fy             Fz
:FHF001:   1.ATOM   1643.100289638973      0.000000000000      0.000000000000  -1643.100289638973

:FIT001: LUSE= 13 SIGMA OF V-XC FIT FOR ATOM  1  0.6124290E-04
:FIT001: LUSE= 13 SIGMA OF V-XC FIT FOR ATOM  1  0.6124290E-04
:DEN  : DENSITY INTEGRAL  =        -14192.57895868   (Ry)
       ELS_POTENTIAL_AT Z=0 and Z=0.5:   0.92576   0.92576
       ELS_POTENTIAL_AT Y=0 and Y=0.5:   0.01934   0.01934
:VZERO:v0,v0c,v0x   0.23336   0.92576  -0.69240 v5,v5c,v5x   0.23336   0.92576  -0.69240
:VZERY:v0,v0c,v0x  -0.89229   0.01934  -0.91163 v5,v5c,v5x  -0.89229   0.01934  -0.91163
:VZERX:v0,v0c,v0x  -1.25149  -0.39431  -0.85718 v5,v5c,v5x  -1.25149  -0.39431  -0.85718
:LMAX-WF:   10   Non-Spherical LMAX:   4

          ATOMIC SPHERE DEPENDENT PARAMETERS FOR ATOM  Pr1       
:e__0001: OVERALL ENERGY PARAMETER IS    0.7881
          OVERALL BASIS SET ON ATOM IS LAPW
:E0_0001: E( 0)=    0.7881
             APW+lo
:E0_0001: E( 0)=   -1.6433   E(BOTTOM)=   -2.280   E(TOP)=   -1.006  4  5   215
             LOCAL ORBITAL
:E1_0001: E( 1)=    1.1881
             APW+lo
:E1_0001: E( 1)=   -0.1738   E(BOTTOM)=   -1.134   E(TOP)=    0.786  3  4   227
             LOCAL ORBITAL
:E3_0001: E( 3)=    0.9982   E(BOTTOM)=    0.792   E(TOP)=    1.204  0  1   119
             APW+lo
:E2_0001: E( 2)=    0.7881   E(BOTTOM)=    0.604   E(TOP)= -200.000  2 -1   121
             APW+lo

       K=   0.06250   0.00000   0.06250            1
:RKM  : MATRIX SIZE   315LOs:  40  RKM= 8.49  WEIGHT= 4.00  PGR:    
       EIGENVALUES ARE:
:EIG00001:      -1.6577022   -1.6041714   -0.4477713   -0.2541570   -0.2094078
:EIG00006:      -0.1919671   -0.1733923   -0.1727601    0.8055575    0.8584246
:EIG00011:       0.9703713    0.9764629    0.9775522    0.9842981    0.9963801
:EIG00016:       1.0171919    1.0248960    1.0265047    1.0319345    1.0358465
:EIG00021:       1.0453580    1.0460536    1.0471620    1.0651751    1.0852282
:EIG00026:       1.1104438    1.2091283    1.2108583    1.2837579    1.3211570
:EIG00031:       1.3496015    1.5174063    1.5248122    1.6069811    1.9087023
:EIG00036:       1.9575976    1.9927771    2.1464388    2.2202702    2.3022825
:EIG00041:       2.4752664    2.5482609    2.6866073    2.7193927    2.8721048
:EIG00046:       2.8850368    2.8891076    3.0552862    3.0617989    3.2027358
 
:EIG00051:       3.2809167    3.3872511    3.3974181    3.5438164    3.5877691
:EIG00056:       3.6133282    3.6783442    3.8376340    3.8553481    3.9574336
:EIG00061:       4.0032740    4.1150682    4.1691610    4.1733572    4.2535282
:EIG00066:       4.3985720    4.4067435    4.4815460    4.5307588    4.5593494
:EIG00071:       4.6279444    4.6794273    4.7043097    4.8185804    4.8271989
:EIG00076:       4.8497199    4.9001784    4.9237115    4.9388036    5.0233832
:EIG00081:       5.0279131    5.0586147    5.1268886    5.1406497    5.1538889
:EIG00086:       5.2739056    5.3441711    5.4132802    5.4533807    5.4853654
:EIG00091:       5.5323824    5.5529480    5.6109263    5.6335850    5.6374251
:EIG00096:       5.6933585    5.7583529    5.7596198    5.8356581    5.8824734
 
:EIG00101:       5.9433857    6.0633949    6.1215705    6.1747685    6.1854407
:EIG00106:       6.2963023    6.2986540    6.3429518    6.4109381    6.5183211
:EIG00111:       6.6064942    6.6396065    6.7426419    6.7715610    6.8470193
:EIG00116:       6.9229164    6.9717308    7.0293862    7.0603714    7.1063772
:EIG00121:       7.1867218    7.2189394    7.2940363    7.2955828    7.4024439
:EIG00126:       7.4353217    7.4917534    7.5037123    7.5619063    7.5950395
:EIG00131:       7.6632700    7.6963901    7.6988247    7.8469668    7.8850114
:EIG00136:       7.9132382    7.9204046    8.0489055    8.0640712    8.0828367
:EIG00141:       8.1191399    8.1356361    8.1407657    8.2684122    8.2983487
:EIG00146:       8.3006091    8.3499999    8.4188797    8.4817952
 
       ********************************************************

:KPT   :      NUMBER OF K-POINTS:   288
   0.0   0.0 angle (M,z), angle (M,x) deg
 
        SPIN-ORBIT EIGENVALUES:
     K=   0.06250   0.00000   0.06250            1
      MATRIX SIZE=  298   WEIGHT= 4.00
     EIGENVALUES ARE:
          -1.6577033   -1.6577033   -1.6041722   -1.6041722   -0.4919579
          -0.4919578   -0.3473832   -0.3473832   -0.2627079   -0.2627079
          -0.1320906   -0.1320906   -0.1282488   -0.1282488   -0.1074530
          -0.1074530    0.8056613    0.8056613    0.8583189    0.8583190
           0.9681227    0.9681227    0.9737682    0.9737682    0.9752907
           0.9752907    0.9822803    0.9822803    0.9932595    0.9932595
           1.0087884    1.0087884    1.0194502    1.0194502    1.0289943
           1.0289943    1.0373024    1.0373024    1.0390152    1.0390152

           1.0463335    1.0463336    1.0490049    1.0490049    1.0517107
           1.0517107    1.0681429    1.0681429    1.0867791    1.0867791
           1.1107807    1.1107807    1.2039612    1.2039612    1.2159599
           1.2159599    1.2842680    1.2842680    1.3209842    1.3209842
           1.3500979    1.3500979    1.5173287    1.5173287    1.5251614
           1.5251614    1.6071478    1.6071478    1.9090933    1.9090933
           1.9576521    1.9576521    1.9927716    1.9927716    2.1463885
           2.1463885    2.2200620    2.2200620    2.3017160    2.3017160

           2.4754473    2.4754473    2.5477222    2.5477222    2.6861416
           2.6861416    2.7192523    2.7192523    2.8720744    2.8720744
           2.8849939    2.8849939    2.8886919    2.8886919    3.0511205
           3.0511205    3.0659787    3.0659787    3.2029325    3.2029325
           3.2804506    3.2804506    3.3821204    3.3821204    3.4010783
           3.4010783    3.5435970    3.5435970    3.5866343    3.5866343
           3.6147086    3.6147086    3.6766943    3.6766943    3.8379768
           3.8379768    3.8570938    3.8570938    3.9571136    3.9571136

           4.0045912    4.0045912    4.1154792    4.1154792    4.1722686
           4.1722686    4.1743621    4.1743621    4.2536768    4.2536768
           4.3984766    4.3984766    4.4070618    4.4070618    4.4816271
           4.4816271
       ********************************************************
:GAP (global)   :    0.0    Ry =     0.0   eV (metal)
:GAP (this spin):    0.0    Ry =     0.0   eV (metal)
         Bandranges (emin - emax) and occupancy:
:BAN00020:  20    0.834130    0.950448  1.00000000
:BAN00021:  21    0.864024    0.985507  1.00000000
:BAN00022:  22    0.864024    0.985507  1.00000000
:BAN00023:  23    0.929609    0.991521  0.99146141
:BAN00024:  24    0.929609    0.991521  0.99146139
:BAN00025:  25    0.948283    1.006136  0.67643126
:BAN00026:  26    0.948283    1.006136  0.67643122
:BAN00027:  27    0.973226    1.010319  0.33137714
:BAN00028:  28    0.973226    1.010319  0.33137700
:BAN00029:  29    0.988367    1.014469  0.00073029
:BAN00030:  30    0.988367    1.014469  0.00073029
:BAN00031:  31    0.995284    1.023141  0.00000000
:BAN00032:  32    0.995284    1.023141  0.00000000
:BAN00033:  33    1.012063    1.032069  0.00000000
:BAN00034:  34    1.012063    1.032069  0.00000000
:BAN00035:  35    1.015179    1.038198  0.00000000
        Energy to separate low and high energystates:    0.73909


:NOE  : NUMBER OF ELECTRONS          =   26.000

:FER  : F E R M I - ENERGY(TETRAH.M.)=   0.9888025295
:GMA  : POTENTIAL AND CHARGE CUT-OFF  12.00 Ry**.5

:POS001: ATOM   -1 X,Y,Z = 0.00000 0.89750 0.25000  MULT= 2  ZZ= 59.000  Pr1       

       LMMAX 16
       LM=   0 0  1 0  2 0  2 2  3 0  3 2  4 0  4 2  4 4  5 0  5 2  5 4  6 0  6 2  6 4  6 6

:CHA001: TOTAL VALENCE CHARGE INSIDE SPHERE   1 =   9.7069    (RMT=  2.3000 )
:PCS001: PARTIAL CHARGES SPHERE =  1 S,P,D,F,PX,PY,PZ,D-Z2,D-X2Y2,D-XY,D-XZ,D-YZ 
:QTL001: 1.9378 4.9748 0.7637 2.0290 1.6570 1.6534 1.6643 0.1479 0.1362 0.1575 0.1570 0.1651
        Q-s-low E-s-low   Q-p-low E-p-low   Q-d-low E-d-low   Q-f-low E-f-low
:EPL001:  1.8687 -1.6006    4.8935 -0.2959    0.0124 -0.3122    0.0038 -0.3247
        Q-s-hi  E-s-hi    Q-p-hi  E-p-hi    Q-d-hi  E-d-hi    Q-f-hi  E-f-hi 
:EPH001:  0.0691  0.9001    0.0812  0.9257    0.7513  0.9086    2.0252  0.9609

                      VXX         VYY         VZZ       UP TO R
:VZZ001:             1.71640     7.77131    -9.48770       2.300

:CHA  : TOTAL VALENCE CHARGE INSIDE UNIT CELL =      26.000000

:SUM  : SUM OF EIGENVALUES =          -0.687618949


        1.ATOM      Pr1                  14 CORE STATES
       CORE-FORCE in mRy/a.u. = |F|      Fx             Fy             Fz
:FCO001:   1.ATOM   1638.345897307247      0.000000000000      0.000000000000   1638.345897307247

:1S 001: 1S               -3066.599921629 Ry
:2S 001: 2S                -492.353265576 Ry
:2PP001: 2P*               -465.451869011 Ry
:2P 001: 2P                -430.054556254 Ry
:3S 001: 3S                -105.450259939 Ry
:3PP001: 3P*                -93.987835929 Ry
:3P 001: 3P                 -86.980138510 Ry
:3DD001: 3D*                -66.906220161 Ry
:3D 001: 3D                 -65.394750492 Ry
:4S 001: 4S                 -20.118909494 Ry
:4PP001: 4P*                -15.824835383 Ry
:4P 001: 4P                 -14.296220823 Ry
:4DD001: 4D*                 -7.226767658 Ry
:4D 001: 4D                  -6.956943683 Ry
:CINT001 Core Integral Atom   1   45.998498

       DENSITY AT NUCLEUS
        JATOM        VALENCE       SEMI-CORE          CORE           TOTAL
:RTO001:   1      646.602184        0.000000   656826.117184   657472.719368
     
       CHARGES OF NEW CHARGE DENSITY
:NTO   : INTERSTITIAL CHARGE =     6.586172
:NPC   : PW Pseudocharge     =    17.439141
:NTO001: CHARGE SPHERE  1    =    55.705411

:NEC01: NUCLEAR AND ELECTRONIC CHARGE    118.00000   117.99699
     
       CHARGES OF OLD CHARGE DENSITY
:OTO   : INTERSTITIAL CHARGE =     6.587652
:OPC   : PW Pseudocharge     =    17.439242
:OTO001: CHARGE SPHERE  1    =    55.706174

:NEC02: NUCLEAR AND ELECTRONIC CHARGE    118.00000   118.00000
     
       CONVERGENCE TEST
:DTO001: DIFFERENCE IN SPHERE  1 =  0.0015370

:DIS  :  CHARGE DISTANCE       ( 0.0015370 for atom    1 spin 1)      0.0015370
 PW Mixed is          345
 
******************************************************
* MULTISECANT MIXING VER9 RELEASE 10.4.0              *
* Slow Mode, cautious                                *
* Fixed density scale                                *
* Regularization       1.000E-04                     *
* Step Trust Radius    0.75000                       *
* Trust Upper Limit    2.000E+00                     *
* Max Number of Memory Steps   12                    *
******************************************************
 
:PWTMP   2.2199E+02  1.9467E+02  3.2392E+02
:PLANE:  PW TOTAL      5.7832 DISTAN   3.05E-03  5.27E-02 %
:CHARG:  CLM/ATOM   1381.9516 DISTAN   7.68E-03  5.56E-04 %
 
Step History
        DMIX         DMIXT        Red     Pred      Trust     Lambda    MagRel    MagAbs     Beta
  1   3.5000E-02   3.5000E-02 -1.00E+00  1.00E+00 -1.00E+01  1.00E+00  3.50E-02  3.50E-02  1.00E+00
  2   2.5000E-02   2.5000E-02  7.63E-01  1.00E+00 -1.00E+01  1.00E+00  2.50E-02  2.16E-03  1.00E+00
  3   2.0000E-02   2.0000E-02  3.26E-01  3.33E-01  5.09E-01  1.95E-01  2.07E-01  1.36E-02  1.00E+00
  4   1.2836E-02   1.2836E-02  9.84E-01  1.00E+00  6.36E-01  1.21E+00  1.31E-02  2.81E-04  1.00E+00
  5   3.2089E-02   2.7835E-02 -1.00E+00  4.23E-01  6.74E-01  1.00E+00  6.74E-01  1.42E-02  1.00E+00
:JACOBIANS    2.266E-01   4.528E-01
  
:NORMS:  1/Froebius, Min, Max, Used   0.5867E+00  0.3555E+00  0.1005E+01  0.7137E+00
:INFO :  Number of Memory Steps    4 Skipping    0
:INFO :  SLambda=    0.4395272916  Max    0.4395272916
:PREDicted Charge, CTotal, PW Trust    2.301E-03   4.601E-03   1.947E-02
:PREDicted DMix, Beta, BLim   1.0000E-02  1.1411E+00  1.0208E+00

Eigenvalues, unscaled except for SY+YY
   #     SY Real        SY Imag          SS             YY         SY+YY Real      SY+YY Imag
   1   1.512944E+00   0.000000E+00   1.303486E+00   2.558840E+00   3.106866E+00   0.000000E+00
   2   2.518280E-01   0.000000E+00   7.352766E-02   1.441158E+00   1.668798E+00   0.000000E+00
   3   1.778214E-08   0.000000E+00   4.124732E-08   1.574105E-06   1.645067E-06   0.000000E+00
   4   1.645836E-07   0.000000E+00   4.630133E-10   2.710196E-07   3.169265E-07   0.000000E+00
 
:INFO :  Singular value  3.107E+00 Weight  1.000E+00 Projection -1.314E-03
:INFO :  Singular value  1.669E+00 Weight  1.000E+00 Projection -1.476E-03
:INFO :  Singular value  1.646E-06 Weight  4.135E-05 Projection -1.535E-04
:INFO :  Singular value  3.168E-07 Weight  1.533E-06 Projection -1.931E-05
:RANK :  ACTIVE   2.00/4  =  50.00 % ; YY RANK   2.00/4  =  50.00 %
 
:BLIM :  VZERO Control Off
:TRUST:  Step 8.43E-01  Charge 7.50E-02 (e) CTO  2.50E-01 (e) PW  3.50E-01 (e)
:DIRM :  MEMORY  4/12 SCALE   1.000 RED  0.39 PRED  0.42 NEXT  0.98 
:TRAVE:  Charge 8.96E-04 (e) CTO  1.79E-03 (e) PW  8.57E-03 (e)
:DIRP :  |MSR1|= 1.410E-03 |PRATT|= 3.045E-03 ANGLE=  12.0 DEGREES
:DIRQ :  |MSR1|= 1.621E-03 |PRATT|= 7.684E-03 ANGLE=  56.1 DEGREES
:DIRT :  |MSR1|= 2.148E-03 |PRATT|= 8.265E-03 ANGLE=  51.1 DEGREES
:MIX  :   MSD1   REGULARIZATION:  2.56E-04 GREED: 0.01775  Newton 1.00  0.2599                
     
       CHARGES OF MIXED CHARGE DENSITY
:CTO   : INTERSTITIAL CHARGE =     6.588273
:CPC   : PW Pseudocharge     =    17.443120
:CTO001: CHARGE SPHERE  1    =    55.705864

:NEC03: NUCLEAR AND ELECTRONIC CHARGE    118.00000   118.00000

[...]
:TRAVE:  Charge 5.98E-05 (e) CTO  1.20E-04 (e) PW  5.71E-04 (e)
:DIRP :  |MSR1|= 9.986E-05 |PRATT|= 1.630E-04 ANGLE=  20.4 DEGREES
:DIRQ :  |MSR1|= 2.470E-04 |PRATT|= 6.013E-04 ANGLE=  32.0 DEGREES
:DIRT :  |MSR1|= 2.665E-04 |PRATT|= 6.230E-04 ANGLE=  31.7 DEGREES
:MIX  :   MSD1   REGULARIZATION:  3.28E-04 GREED: 0.05456  Newton 1.00  0.4277                
     
       CHARGES OF MIXED CHARGE DENSITY
:CTO   : INTERSTITIAL CHARGE =     6.589279
:CPC   : PW Pseudocharge     =    17.447437
:CTO001: CHARGE SPHERE  1    =    55.705360

:NEC03: NUCLEAR AND ELECTRONIC CHARGE    118.00000   118.00000

PW CHANGE     H    K    L      Current       Change    Residue
:PTO001:      0    0    0  7.42057240E-02 -8.312E-07 -1.203E-06
:PTO003:      0    2    0  1.78020165E-02 -6.959E-07 -2.246E-06
:PTO004:     -1    1    0  8.46260872E-02 -1.459E-06 -2.590E-06
:PTO005:      0    2   -1 -9.69975631E-02  1.598E-06  2.575E-06
:PTO006:      0    0   -2 -5.02856779E-02  7.279E-07  6.759E-07
:PTO007:     -1    1   -1 -1.01571548E-01  1.636E-06  1.250E-06
:PTO008:      0    2   -2 -1.46031454E-02  5.307E-07  1.102E-06
:PTO009:     -1    1   -2 -7.36125704E-02  2.126E-06  2.502E-06
:PTO011:     -1    3    0 -1.12166954E-02  1.949E-07 -1.080E-08
:PTO012:     -1    3   -1 -4.65421587E-02  1.328E-06  2.526E-06
:PTO013:      0    4    0 -8.02080315E-03  1.591E-07  3.036E-07
:PTO014:      0    2   -3  1.85641667E-02 -1.230E-07 -2.170E-07

:ENE  : ********** TOTAL ENERGY IN Ry =       -36944.34572388

       TOTAL FORCE IN mRy/a.u. = |F|     Fx             Fy             Fz     with/without FOR in case.in2
:FOR001:   1.ATOM          4.367          0.000          0.000         -4.367 partial forces
       TOTAL FORCE WITH RESPECT TO GLOBAL CARTESIAN COORDINATES:
:FCA001:   1.ATOM                         0.000         -4.367          0.000 partial forces
       TOTAL FORCE WITH RESPECT TO THE GLOBAL COORDINATE SYSTEM:
:FGL001:   1.ATOM                 0.000000000    -4.367072386     0.000000000 partial forces
 Flat Integration
 New Mode for Coulomb Integral
 Consistent 3/8+Simpson combinations
 Extension of core to zero
 LDM version in phi
 Fifth-order quadrature in outwin


            ---------
:ITE027: 27. ITERATION
            ---------

:NATO :    1 INDEPENDENT AND    2 TOTAL ATOMS IN UNITCELL
       SUBSTANCE: aU                                                          

       LATTICE                      = CXY 
:POT  : POTENTIAL OPTION EX_LDA EC_LDA VX_LDA VC_LDA
:LAT  : LATTICE CONSTANTS=  5.66945 11.50475  9.93229    1.571    1.571    1.571
:VOL  : UNIT CELL VOLUME =     323.91998
       MODE OF CALCULATION IS       = RELA
       NON-SPINPOLARIZED CALCULATION
:IFFT  : FFT-parameters:   48   90   80 Factor: 2.00


   CONVERGENCE PARAMETER FOR PSEUDOCHARGE: NCON=  9
   MAXIMAL VALUE OF RMT(JATOM)*ABSK(NKK) : RK  =27.59882


:VKCOUL :  VK-COUL convergence: 0.224E-06
       ATOMNUMBER=  1 Pr1        VCOUL-ZERO =  0.46507E+00
:EFG001:                        EFG         =    -9.53926   *10**21  V / m**2
                               V20  TOT/SRF=    -8.26124    -0.05651
                               V22  TOT/SRF=    -2.91882    -0.00925
                               V22M TOT/SRF=     0.00000     0.00000
                               V21  TOT/SRF=     0.00000     0.00000
                               V21M TOT/SRF=     0.00000     0.00000

              1.85081    0.00000    0.00000        1.85081    0.00000    0.00000
              0.00000    7.68845    0.00000        0.00000    7.68845    0.00000
              0.00000    0.00000   -9.53926        0.00000    0.00000   -9.53926

         MAIN DIRECTIONS OF THE EFG   1.0000  0.0000  0.0000
                                      0.0000  1.0000  0.0000
                                      0.0000  0.0000  1.0000
:ANG001:  ANGLE WITH OLD X-AXIS =         0.0

:ETA001:                         ASYMM. ETA =     0.61196


     HELLMANN-FEYNMAN-FORCE IN mRy/a.u. = |F|  Fx       Fy             Fz
:FHF001:   1.ATOM   1639.450343272028      0.000000000000      0.000000000000  -1639.450343272028

:FIT001: LUSE= 13 SIGMA OF V-XC FIT FOR ATOM  1  0.6097829E-04
:FIT001: LUSE= 13 SIGMA OF V-XC FIT FOR ATOM  1  0.6097829E-04
:DEN  : DENSITY INTEGRAL  =        -14192.59137350   (Ry)
       ELS_POTENTIAL_AT Z=0 and Z=0.5:   0.92604   0.92604
       ELS_POTENTIAL_AT Y=0 and Y=0.5:   0.01947   0.01947
:VZERO:v0,v0c,v0x   0.23358   0.92604  -0.69246 v5,v5c,v5x   0.23358   0.92604  -0.69246
:VZERY:v0,v0c,v0x  -0.89228   0.01947  -0.91175 v5,v5c,v5x  -0.89228   0.01947  -0.91175
:VZERX:v0,v0c,v0x  -1.25169  -0.39441  -0.85728 v5,v5c,v5x  -1.25169  -0.39441  -0.85728
:LMAX-WF:   10   Non-Spherical LMAX:   4

          ATOMIC SPHERE DEPENDENT PARAMETERS FOR ATOM  Pr1       
:e__0001: OVERALL ENERGY PARAMETER IS    0.7890
          OVERALL BASIS SET ON ATOM IS LAPW
:E0_0001: E( 0)=    0.7890
             APW+lo
:E0_0001: E( 0)=   -1.6432   E(BOTTOM)=   -2.280   E(TOP)=   -1.006  4  5   219
             LOCAL ORBITAL
:E1_0001: E( 1)=    1.1890
             APW+lo
:E1_0001: E( 1)=   -0.1737   E(BOTTOM)=   -1.134   E(TOP)=    0.787  3  4   227
             LOCAL ORBITAL
:E3_0001: E( 3)=    0.9984   E(BOTTOM)=    0.792   E(TOP)=    1.204  0  1   122
             APW+lo
:E2_0001: E( 2)=    0.7890   E(BOTTOM)=    0.604   E(TOP)= -200.000  2 -1   123
             APW+lo

       K=   0.06250   0.00000   0.06250            1
:RKM  : MATRIX SIZE   315LOs:  40  RKM= 8.49  WEIGHT= 4.00  PGR:    
       EIGENVALUES ARE:
:EIG00001:      -1.6575525   -1.6040280   -0.4475600   -0.2540015   -0.2092527
:EIG00006:      -0.1918819   -0.1731937   -0.1726807    0.8057539    0.8586187
:EIG00011:       0.9705177    0.9765918    0.9778238    0.9844973    0.9966313
:EIG00016:       1.0173681    1.0250974    1.0266977    1.0321370    1.0360784
:EIG00021:       1.0455434    1.0462025    1.0473294    1.0654427    1.0853636
:EIG00026:       1.1105806    1.2093395    1.2110414    1.2839136    1.3213053
:EIG00031:       1.3497867    1.5176039    1.5249856    1.6071755    1.9088941
:EIG00036:       1.9577850    1.9929890    2.1466195    2.2204662    2.3024966
:EIG00041:       2.4754740    2.5484562    2.6867782    2.7195869    2.8722802
:EIG00046:       2.8852288    2.8893089    3.0554699    3.0619959    3.2029094
 
:EIG00051:       3.2810721    3.3874110    3.3976278    3.5439865    3.5879288
:EIG00056:       3.6134895    3.6785188    3.8377564    3.8555035    3.9576156
:EIG00061:       4.0034477    4.1152509    4.1693360    4.1735330    4.2536591
:EIG00066:       4.3987722    4.4069065    4.4817041    4.5309472    4.5594919
:EIG00071:       4.6280948    4.6795975    4.7044686    4.8187529    4.8273688
:EIG00076:       4.8499013    4.9003343    4.9238957    4.9389727    5.0235675
:EIG00081:       5.0280733    5.0587944    5.1270433    5.1408295    5.1540655
:EIG00086:       5.2741021    5.3443566    5.4134409    5.4535349    5.4855543
:EIG00091:       5.5325552    5.5531283    5.6110482    5.6337713    5.6375560
:EIG00096:       5.6935403    5.7585301    5.7598116    5.8358229    5.8826451
 
:EIG00101:       5.9435475    6.0635705    6.1217457    6.1749457    6.1856222
:EIG00106:       6.2964778    6.2988153    6.3431543    6.4111121    6.5184901
:EIG00111:       6.6066555    6.6397739    6.7428067    6.7717358    6.8471638
:EIG00116:       6.9230318    6.9719242    7.0295269    7.0605056    7.1065045
:EIG00121:       7.1868598    7.2190875    7.2941984    7.2957342    7.4026145
:EIG00126:       7.4354952    7.4919324    7.5038786    7.5620648    7.5952057
:EIG00131:       7.6634338    7.6965647    7.6989759    7.8471339    7.8851742
:EIG00136:       7.9133871    7.9205647    8.0490427    8.0642426    8.0829929
:EIG00141:       8.1193058    8.1357883    8.1409233    8.2685906    8.2984685
:EIG00146:       8.3007484    8.3501286    8.4190428    8.4819460
 
       ********************************************************

:KPT   :      NUMBER OF K-POINTS:   288
   0.0   0.0 angle (M,z), angle (M,x) deg
 
        SPIN-ORBIT EIGENVALUES:
     K=   0.06250   0.00000   0.06250            1
      MATRIX SIZE=  298   WEIGHT= 4.00
     EIGENVALUES ARE:
          -1.6575537   -1.6575537   -1.6040289   -1.6040289   -0.4917625
          -0.4917625   -0.3472390   -0.3472390   -0.2625558   -0.2625558
          -0.1319778   -0.1319778   -0.1281319   -0.1281319   -0.1072891
          -0.1072891    0.8058577    0.8058578    0.8585130    0.8585130
           0.9682704    0.9682704    0.9739143    0.9739143    0.9755437
           0.9755437    0.9824814    0.9824815    0.9935072    0.9935072
           1.0089791    1.0089791    1.0196489    1.0196489    1.0291798
           1.0291798    1.0375011    1.0375011    1.0392308    1.0392308

           1.0465066    1.0465066    1.0491614    1.0491614    1.0519040
           1.0519040    1.0684050    1.0684050    1.0869150    1.0869150
           1.1109180    1.1109180    1.2041600    1.2041600    1.2161554
           1.2161554    1.2844239    1.2844240    1.3211329    1.3211329
           1.3502825    1.3502825    1.5175259    1.5175260    1.5253350
           1.5253350    1.6073422    1.6073422    1.9092850    1.9092850
           1.9578396    1.9578396    1.9929834    1.9929834    2.1465692
           2.1465692    2.2202580    2.2202580    2.3019300    2.3019300

           2.4756548    2.4756548    2.5479174    2.5479174    2.6863132
           2.6863132    2.7194459    2.7194459    2.8722501    2.8722501
           2.8851872    2.8851872    2.8888914    2.8888914    3.0513086
           3.0513086    3.0661711    3.0661711    3.2031061    3.2031061
           3.2806064    3.2806064    3.3822906    3.3822906    3.4012770
           3.4012770    3.5437671    3.5437671    3.5867937    3.5867937
           3.6148705    3.6148705    3.6768685    3.6768685    3.8381001
           3.8381001    3.8572490    3.8572490    3.9572956    3.9572956

           4.0047642    4.0047642    4.1156627    4.1156627    4.1724431
           4.1724431    4.1745378    4.1745378    4.2538078    4.2538078
           4.3986758    4.3986758    4.4072259    4.4072259    4.4817853
           4.4817853
       ********************************************************
:GAP (global)   :    0.0    Ry =     0.0   eV (metal)
:GAP (this spin):    0.0    Ry =     0.0   eV (metal)
         Bandranges (emin - emax) and occupancy:
:BAN00020:  20    0.834308    0.950662  1.00000000
:BAN00021:  21    0.864197    0.985716  1.00000000
:BAN00022:  22    0.864197    0.985716  1.00000000
:BAN00023:  23    0.929774    0.991712  0.99149280
:BAN00024:  24    0.929774    0.991712  0.99149279
:BAN00025:  25    0.948433    1.006344  0.67636637
:BAN00026:  26    0.948433    1.006344  0.67636632
:BAN00027:  27    0.973405    1.010507  0.33145011
:BAN00028:  28    0.973405    1.010507  0.33144998
:BAN00029:  29    0.988580    1.014652  0.00069081
:BAN00030:  30    0.988580    1.014652  0.00069081
:BAN00031:  31    0.995505    1.023333  0.00000000
:BAN00032:  32    0.995505    1.023333  0.00000000
:BAN00033:  33    1.012254    1.032269  0.00000000
:BAN00034:  34    1.012254    1.032269  0.00000000
:BAN00035:  35    1.015391    1.038408  0.00000000
        Energy to separate low and high energystates:    0.73928


:NOE  : NUMBER OF ELECTRONS          =   26.000

:FER  : F E R M I - ENERGY(TETRAH.M.)=   0.9889984471
:GMA  : POTENTIAL AND CHARGE CUT-OFF  12.00 Ry**.5

:POS001: ATOM   -1 X,Y,Z = 0.00000 0.89750 0.25000  MULT= 2  ZZ= 59.000  Pr1       

       LMMAX 16
       LM=   0 0  1 0  2 0  2 2  3 0  3 2  4 0  4 2  4 4  5 0  5 2  5 4  6 0  6 2  6 4  6 6

:CHA001: TOTAL VALENCE CHARGE INSIDE SPHERE   1 =   9.7069    (RMT=  2.3000 )
:PCS001: PARTIAL CHARGES SPHERE =  1 S,P,D,F,PX,PY,PZ,D-Z2,D-X2Y2,D-XY,D-XZ,D-YZ 
:QTL001: 1.9378 4.9748 0.7638 2.0288 1.6570 1.6535 1.6643 0.1480 0.1362 0.1575 0.1570 0.1651
        Q-s-low E-s-low   Q-p-low E-p-low   Q-d-low E-d-low   Q-f-low E-f-low
:EPL001:  1.8687 -1.6004    4.8936 -0.2957    0.0124 -0.3120    0.0038 -0.3245
        Q-s-hi  E-s-hi    Q-p-hi  E-p-hi    Q-d-hi  E-d-hi    Q-f-hi  E-f-hi 
:EPH001:  0.0691  0.9003    0.0812  0.9259    0.7514  0.9088    2.0250  0.9611

                      VXX         VYY         VZZ       UP TO R
:VZZ001:             1.81601     7.65007    -9.46608       2.300

:CHA  : TOTAL VALENCE CHARGE INSIDE UNIT CELL =      26.000000

:SUM  : SUM OF EIGENVALUES =          -0.683318465


        1.ATOM      Pr1                  14 CORE STATES
       CORE-FORCE in mRy/a.u. = |F|      Fx             Fy             Fz
:FCO001:   1.ATOM   1634.931529762662      0.000000000000      0.000000000000   1634.931529762662

:1S 001: 1S               -3066.600055684 Ry
:2S 001: 2S                -492.353344945 Ry
:2PP001: 2P*               -465.451961980 Ry
:2P 001: 2P                -430.054644143 Ry
:3S 001: 3S                -105.450186748 Ry
:3PP001: 3P*                -93.987771378 Ry
:3P 001: 3P                 -86.980064944 Ry
:3DD001: 3D*                -66.906171707 Ry
:3D 001: 3D                 -65.394698937 Ry
:4S 001: 4S                 -20.118688165 Ry
:4PP001: 4P*                -15.824614976 Ry
:4P 001: 4P                 -14.295998062 Ry
:4DD001: 4D*                 -7.226550340 Ry
:4D 001: 4D                  -6.956726293 Ry
:CINT001 Core Integral Atom   1   45.998498

       DENSITY AT NUCLEUS
        JATOM        VALENCE       SEMI-CORE          CORE           TOTAL
:RTO001:   1      646.601460        0.000000   656826.152008   657472.753468
     
       CHARGES OF NEW CHARGE DENSITY
:NTO   : INTERSTITIAL CHARGE =     6.586291
:NPC   : PW Pseudocharge     =    17.439340
:NTO001: CHARGE SPHERE  1    =    55.705351

:NEC01: NUCLEAR AND ELECTRONIC CHARGE    118.00000   117.99699
     
       CHARGES OF OLD CHARGE DENSITY
:OTO   : INTERSTITIAL CHARGE =     6.589279
:OPC   : PW Pseudocharge     =    17.447437
:OTO001: CHARGE SPHERE  1    =    55.705360

:NEC02: NUCLEAR AND ELECTRONIC CHARGE    118.00000   118.00000
     
       CONVERGENCE TEST
:DTO001: DIFFERENCE IN SPHERE  1 =  0.0000423

:DIS  :  CHARGE DISTANCE       ( 0.0000423 for atom    1 spin 1)      0.0000423
 PW Mixed is          345
 
******************************************************
* MULTISECANT MIXING VER9 RELEASE 10.4.0              *
* Standard Mode with controls                        *
* Fixed density scale                                *
* Regularization       1.000E-04                     *
* Trust Upper Limit    5.000E+00                     *
* Max Number of Memory Steps    8                    *
******************************************************
 
:PWTMP   2.2199E+02  1.9467E+02  3.2392E+02
:PLANE:  PW TOTAL      5.7862 DISTAN   5.65E-05  9.76E-04 %
:CHARG:  CLM/ATOM   1381.9513 DISTAN   1.31E-04  9.46E-06 %
 
Step History
        DMIX         DMIXT        Red     Pred      Trust     Lambda    MagRel    MagAbs     Beta
  3   2.0000E-02   2.0000E-02  3.26E-01  3.33E-01  5.09E-01  1.95E-01  2.07E-01  1.36E-02  1.00E+00
  4   1.2836E-02   1.2836E-02  9.84E-01  1.00E+00  6.36E-01  1.21E+00  1.31E-02  2.81E-04  1.00E+00
  5   3.2089E-02   2.7835E-02  3.92E-01  4.23E-01  6.74E-01  4.40E-01  6.74E-01  1.42E-02  1.00E+00
  6   1.7752E-02   1.7752E-02  9.26E-01  9.82E-01  8.43E-01  2.73E-01  2.60E-01  2.15E-03  1.00E+00
  7   4.4379E-02   4.4379E-02  2.63E-01  2.77E-01  9.10E-01  2.61E-01  4.87E-01  3.73E-03  1.00E+00
  8   1.7752E-02   1.7752E-02  9.75E-01  1.00E+00  1.21E+00  1.00E+00  2.41E-02  4.85E-05  9.99E-01
  9   4.4379E-02   4.4379E-02  3.54E-01  3.76E-01  1.24E+00  1.13E+00  7.11E-01  1.39E-03  1.00E+00
 10   2.1822E-02   2.1822E-02  8.98E-01  9.68E-01  1.66E+00  7.50E-01  1.92E-01  1.33E-04  1.00E+00
 11   5.4556E-02   5.4556E-02 -1.00E+00  2.43E-01  1.85E+00  1.00E+00  4.28E-01  2.66E-04  1.00E+00
:JACOBIANS    4.584E-01   1.819E+00
  
:NORMS:  1/Froebius, Min, Max, Used   0.7515E+00  0.3341E+00  0.9602E+00  0.9602E+00
:INFO :  Number of Memory Steps    8 Skipping    2
:INFO :  SLambda=    1.1251878989  Max    1.1251878989
:PREDicted Charge, CTotal, PW Trust    8.148E-06   1.630E-05   1.645E-04
:PREDicted DMix, Beta, BLim   4.7664E-03  9.9438E-01  6.8694E-01

Eigenvalues, unscaled except for SY+YY
   #     SY Real        SY Imag          SS             YY         SY+YY Real      SY+YY Imag
   1   2.884487E+00   0.000000E+00   2.829525E+00   3.068809E+00   6.295754E+00   0.000000E+00
   2   1.790807E+00   0.000000E+00   1.500005E+00   2.366787E+00   4.321551E+00   0.000000E+00
   3   4.150121E-01   0.000000E+00   1.220085E-01   1.433556E+00   1.958367E+00   0.000000E+00
   4   2.693775E-01   0.000000E+00   6.495388E-02   1.084279E+00   1.408268E+00   0.000000E+00
   5   6.338090E-03   0.000000E+00   1.484574E-03   4.656772E-02   5.384052E-02   0.000000E+00
   6   1.694523E-07   0.000000E+00   2.632930E-08   1.866811E-06   5.745501E-09   0.000000E+00
   7   1.877099E-10   0.000000E+00   1.306892E-09   7.503383E-08   1.022928E-07   0.000000E+00
   8   1.509093E-08   0.000000E+00   7.604173E-12   5.560281E-09   1.702482E-06   0.000000E+00
 
:INFO :  Singular value  6.299E+00 Weight  1.000E+00 Projection -1.555E-06
:INFO :  Singular value  4.320E+00 Weight  1.000E+00 Projection -1.849E-06
:INFO :  Singular value  1.958E+00 Weight  1.000E+00 Projection -7.415E-06
:INFO :  Singular value  1.408E+00 Weight  1.000E+00 Projection  1.817E-05
:INFO :  Singular value  5.384E-02 Weight  1.000E+00 Projection -4.335E-05
:INFO :  Singular value  1.706E-06 Weight  3.090E-05 Projection  1.752E-06
:INFO :  Singular value  1.026E-07 Weight  1.117E-07 Projection  4.711E-08
:INFO :  Singular value  5.718E-09 Weight  3.472E-10 Projection  1.066E-10
:RANK :  ACTIVE   5.00/8  =  62.50 % ; YY RANK   5.00/8  =  62.50 %
 
:DLIM :  Beta Active  9.958E-01
:BLIM :  VZERO Control Off
:TRUST:  Step 2.46E+00  Charge 1.52E-02 (e) CTO  5.06E-02 (e) PW  7.09E-02 (e)
:DIRM :  MEMORY  8/8  SCALE   1.000 RED  0.23 PRED  0.24 NEXT  0.99 BETA  1.00
:TRAVE:  Charge 3.01E-05 (e) CTO  6.01E-05 (e) PW  2.87E-04 (e)
:DIRP :  |MSR1|= 2.593E-06 |PRATT|= 5.646E-05 ANGLE=  16.6 DEGREES
:DIRQ :  |MSR1|= 7.277E-06 |PRATT|= 1.307E-04 ANGLE=  59.8 DEGREES
:DIRT :  |MSR1|= 7.725E-06 |PRATT|= 1.423E-04 ANGLE=  55.8 DEGREES
:MIX  :   MSE1   REGULARIZATION:  3.07E-04 GREED: 0.02311  Newton 1.00  0.0543                
     
       CHARGES OF MIXED CHARGE DENSITY
:CTO   : INTERSTITIAL CHARGE =     6.589279
:CPC   : PW Pseudocharge     =    17.447431
:CTO001: CHARGE SPHERE  1    =    55.705361

:NEC03: NUCLEAR AND ELECTRONIC CHARGE    118.00000   118.00000

PW CHANGE     H    K    L      Current       Change    Residue
:PTO001:      0    0    0  7.42057029E-02 -2.103E-08 -3.670E-07
:PTO003:      0    2    0  1.78019829E-02 -3.358E-08 -8.075E-07
:PTO004:     -1    1    0  8.46260492E-02 -3.796E-08 -9.144E-07
:PTO005:      0    2   -1 -9.69975155E-02  4.762E-08  8.660E-07
:PTO006:      0    0   -2 -5.02856580E-02  1.982E-08  3.875E-07
:PTO007:     -1    1   -1 -1.01571537E-01  1.120E-08  3.004E-07
:PTO008:      0    2   -2 -1.46031340E-02  1.140E-08  2.427E-07
:PTO009:     -1    1   -2 -7.36125389E-02  3.145E-08  9.443E-07
:PTO011:     -1    3    0 -1.12166983E-02 -2.904E-09 -1.073E-07
:PTO012:     -1    3   -1 -4.65421211E-02  3.760E-08  7.969E-07
:PTO013:      0    4    0 -8.02079823E-03  4.922E-09  6.452E-08
:PTO014:      0    2   -3  1.85641510E-02 -1.568E-08 -2.793E-07

:ENE  : ********** TOTAL ENERGY IN Ry =       -36944.34572380

       TOTAL FORCE IN mRy/a.u. = |F|     Fx             Fy             Fz     with/without FOR in case.in2
:FOR001:   1.ATOM          4.519          0.000          0.000         -4.519 partial forces
       TOTAL FORCE WITH RESPECT TO GLOBAL CARTESIAN COORDINATES:
:FCA001:   1.ATOM                         0.000         -4.519          0.000 partial forces
       TOTAL FORCE WITH RESPECT TO THE GLOBAL COORDINATE SYSTEM:
:FGL001:   1.ATOM                 0.000000000    -4.518813509     0.000000000 partial forces
