
------- case.scf0 --------
 Flat Integration
 New Mode for Coulomb Integral
 Consistent 3/8+Simpson combinations
 Extension of core to zero
 LDM version in phi
 Fifth-order quadrature in outwin


            ---------
:ITE043: 43. ITERATION
            ---------

:NATO :    1 INDEPENDENT AND    2 TOTAL ATOMS IN UNITCELL
       SUBSTANCE: aU                                                          

       LATTICE                      = CXY 
:POT  : POTENTIAL OPTION EX_LDA EC_LDA VX_LDA VC_LDA
:LAT  : LATTICE CONSTANTS=  6.34235 12.87024 11.11114    1.571    1.571    1.571
:VOL  : UNIT CELL VOLUME =     453.48796
       MODE OF CALCULATION IS       = RELA
       NON-SPINPOLARIZED CALCULATION
:IFFT  : FFT-parameters:   54  100   90 Factor: 2.00


   CONVERGENCE PARAMETER FOR PSEUDOCHARGE: NCON=  9
   MAXIMAL VALUE OF RMT(JATOM)*ABSK(NKK) : RK  =27.59759


:VKCOUL :  VK-COUL convergence: 0.574E-07
       ATOMNUMBER=  1 Pr1        VCOUL-ZERO =  0.11660E+00
:EFG001:                        EFG         =    -8.21799   *10**21  V / m**2
                               V20  TOT/SRF=    -7.11699    -0.03254
                               V22  TOT/SRF=     0.43858     0.00242
                               V22M TOT/SRF=     0.00000     0.00000
                               V21  TOT/SRF=     0.00000     0.00000
                               V21M TOT/SRF=     0.00000     0.00000

              4.54758    0.00000    0.00000        4.54758    0.00000    0.00000
              0.00000    3.67041    0.00000        0.00000    3.67041    0.00000
              0.00000    0.00000   -8.21799        0.00000    0.00000   -8.21799

         MAIN DIRECTIONS OF THE EFG   1.0000  0.0000  0.0000
                                      0.0000  1.0000  0.0000
                                      0.0000  0.0000  1.0000
:ANG001:  ANGLE WITH OLD X-AXIS =         0.0

:ETA001:                         ASYMM. ETA =     0.10674


     HELLMANN-FEYNMAN-FORCE IN mRy/a.u. = |F|  Fx       Fy             Fz
:FHF001:   1.ATOM    633.207094057366      0.000000000000      0.000000000000   -633.207094057366

:FIT001: LUSE= 13 SIGMA OF V-XC FIT FOR ATOM  1  0.8892376E-05
:FIT001: LUSE= 13 SIGMA OF V-XC FIT FOR ATOM  1  0.8892376E-05
:DEN  : DENSITY INTEGRAL  =        -14154.57195548   (Ry)
       ELS_POTENTIAL_AT Z=0 and Z=0.5:   0.74376   0.74376
       ELS_POTENTIAL_AT Y=0 and Y=0.5:   0.06150   0.06150
:VZERO:v0,v0c,v0x   0.15367   0.74376  -0.59009 v5,v5c,v5x   0.15367   0.74376  -0.59009
:VZERY:v0,v0c,v0x  -0.72731   0.06150  -0.78882 v5,v5c,v5x  -0.72731   0.06150  -0.78882
:VZERX:v0,v0c,v0x  -1.13506  -0.38139  -0.75367 v5,v5c,v5x  -1.13506  -0.38139  -0.75367

------- case.scf1 --------
:LMAX-WF:   10   Non-Spherical LMAX:   4

          ATOMIC SPHERE DEPENDENT PARAMETERS FOR ATOM  Pr1       
:e__0001: OVERALL ENERGY PARAMETER IS    0.4692
          OVERALL BASIS SET ON ATOM IS LAPW
:E0_0001: E( 0)=    0.4692
             APW+lo
:E0_0001: E( 0)=   -1.9913   E(BOTTOM)=   -2.627   E(TOP)=   -1.355  4  5   187
             LOCAL ORBITAL
:E1_0001: E( 1)=    0.8692
             APW+lo
:E1_0001: E( 1)=   -0.5215   E(BOTTOM)=   -1.480   E(TOP)=    0.437  3  4   196
             LOCAL ORBITAL
:E3_0001: E( 3)=    0.6623   E(BOTTOM)=    0.454   E(TOP)=    0.870  0  1   112
             APW+lo
:E2_0001: E( 2)=    0.4692   E(BOTTOM)=    0.261   E(TOP)= -200.000  2 -1    91
             APW+lo

       K=   0.06250   0.00000   0.06250            1
:RKM  : MATRIX SIZE   431LOs:  40  RKM= 8.49  WEIGHT= 4.00  PGR:    
       EIGENVALUES ARE:
:EIG00001:      -1.9661588   -1.9488767   -0.7005339   -0.6116528   -0.5919453
:EIG00006:      -0.5854311   -0.5775576   -0.5771781    0.4389474    0.5696446
:EIG00011:       0.6654161    0.6682493    0.6682740    0.6721501    0.6763318
:EIG00016:       0.6885575    0.6933226    0.6938220    0.6969480    0.7002556
:EIG00021:       0.7045302    0.7073988    0.7088164    0.7138328    0.7421171
:EIG00026:       0.7564305    0.8397204    0.8518229    0.8854406    0.9143829
:EIG00031:       0.9308832    1.0254262    1.0698365    1.1180291    1.4209349
:EIG00036:       1.4317973    1.5077511    1.5157861    1.6785488    1.7309794
:EIG00041:       1.8108521    1.9111320    1.9980610    2.0122638    2.1240762
:EIG00046:       2.1652956    2.1804753    2.2605469    2.3063003    2.4101028
 
:EIG00051:       2.4595593    2.5132645    2.5338957    2.6161316    2.6507354
:EIG00056:       2.7224671    2.7448555    2.7955232    2.8797979    2.9479301
:EIG00061:       3.0069732    3.0289953    3.1663653    3.2192591    3.2454298
:EIG00066:       3.3508975    3.4052182    3.4513128    3.4636016    3.5029157
:EIG00071:       3.5123222    3.5641321    3.5985341    3.6702287    3.6869016
:EIG00076:       3.7302127    3.7503906    3.7988409    3.8247156    3.8569863
:EIG00081:       3.8667172    3.9150756    3.9293698    4.0188730    4.0292668
:EIG00086:       4.0501289    4.1481499    4.1666793    4.1990309    4.2111508
:EIG00091:       4.2452404    4.2890377    4.3058525    4.3312085    4.3454870
:EIG00096:       4.3829528    4.4272326    4.4402101    4.4569382    4.5314032
 
:EIG00101:       4.6130379    4.7343565    4.7523006    4.8268767    4.8480095
:EIG00106:       4.8513001    4.9093111    4.9386544    4.9658898    4.9963503
:EIG00111:       5.0836325    5.1282691    5.1490914    5.2119162    5.2608772
:EIG00116:       5.3046925    5.3387646    5.3595438    5.4065102    5.4473047
:EIG00121:       5.4603564    5.5195699    5.5877016    5.5967027    5.6548508
:EIG00126:       5.7426293    5.7893750    5.8040499    5.8305766    5.8863742
:EIG00131:       5.9020146    5.9653747    5.9782807    5.9849405    6.0229374
:EIG00136:       6.1090227    6.1240936    6.1854483    6.1886396    6.2233079
:EIG00141:       6.2481176    6.2745682    6.3145952    6.3320366    6.3996010
:EIG00146:       6.4058965    6.4182784    6.4630603    6.4697756    6.5344795
 
:EIG00151:       6.5869143    6.6060631    6.6746021    6.7076092    6.7873034
:EIG00156:       6.8652962    6.9594939    6.9723826    7.0008447    7.0747812
:EIG00161:       7.1348774    7.1704838    7.1986348    7.2343088    7.2388756
:EIG00166:       7.2947802    7.3029915    7.3052163    7.3690112    7.4412290
:EIG00171:       7.4485226    7.4951338    7.5299732    7.5465245    7.6084628
:EIG00176:       7.6200826    7.6623242    7.6739326    7.7288690    7.7537139
:EIG00181:       7.7896302    7.8046158    7.8119931    7.8631003    7.8870789
:EIG00186:       7.8992299    7.9889464    8.0631844    8.0751062    8.0876926
:EIG00191:       8.1067120    8.1342950
       ********************************************************

:KPT   :      NUMBER OF K-POINTS:   288

------- case.scfso --------
   0.0   0.0 angle (M,z), angle (M,x) deg
 
        SPIN-ORBIT EIGENVALUES:
     K=   0.06250   0.00000   0.06250            1
      MATRIX SIZE=  384   WEIGHT= 4.00
     EIGENVALUES ARE:
          -1.9661592   -1.9661592   -1.9488768   -1.9488768   -0.7822526
          -0.7822526   -0.7336860   -0.7336860   -0.5947537   -0.5947537
          -0.5232806   -0.5232806   -0.5199368   -0.5199368   -0.5108692
          -0.5108692    0.4389917    0.4389917    0.5695247    0.5695247
           0.6599511    0.6599511    0.6635805    0.6635805    0.6649864
           0.6649864    0.6670690    0.6670690    0.6710736    0.6710736
           0.6765340    0.6765340    0.6914013    0.6914013    0.6991842
           0.6991842    0.7026104    0.7026104    0.7048407    0.7048407

           0.7077559    0.7077559    0.7124076    0.7124076    0.7142510
           0.7142510    0.7192329    0.7192329    0.7432746    0.7432746
           0.7565552    0.7565552    0.8380792    0.8380792    0.8530489
           0.8530489    0.8857262    0.8857262    0.9148142    0.9148142
           0.9309840    0.9309840    1.0252772    1.0252773    1.0701133
           1.0701133    1.1181531    1.1181531    1.4209515    1.4209515
           1.4320103    1.4320103    1.5076855    1.5076855    1.5158815
           1.5158815    1.6781795    1.6781795    1.7304563    1.7304563

           1.8108119    1.8108119    1.9098568    1.9098568    1.9961342
           1.9961342    2.0136850    2.0136850    2.1244514    2.1244514
           2.1651159    2.1651159    2.1789728    2.1789728    2.2603507
           2.2603507    2.3072276    2.3072276    2.4098391    2.4098391
           2.4589821    2.4589821    2.5108781    2.5108781    2.5354439
           2.5354439    2.6162242    2.6162242    2.6520942    2.6520942
           2.7225008    2.7225008    2.7443855    2.7443855    2.7962378
           2.7962378    2.8801916    2.8801916    2.9477179    2.9477179

           3.0067959    3.0067959    3.0333270    3.0333270    3.1662495
           3.1662495    3.2192932    3.2192932    3.2456341    3.2456341
           3.3509066    3.3509066    3.4052597    3.4052597    3.4515435
           3.4515435    3.4631647    3.4631647    3.5030634    3.5030634
           3.5125555    3.5125555    3.5640937    3.5640937    3.5985989
           3.5985989    3.6693861    3.6693861    3.6878507    3.6878507
           3.7304211    3.7304211    3.7521157    3.7521157    3.7989277
           3.7989277    3.8249768    3.8249768    3.8573148    3.8573148

           3.8668220    3.8668220    3.9151010    3.9151010    3.9297552
           3.9297552    4.0187821    4.0187821    4.0295742    4.0295742
           4.0502542    4.0502542    4.1481416    4.1481416    4.1668245
           4.1668245    4.1990552    4.1990552    4.2112174    4.2112174
           4.2452716    4.2452716    4.2890820    4.2890820    4.3058818
           4.3058818    4.3311295    4.3311295    4.3454229    4.3454229
           4.3830151    4.3830151    4.4270959    4.4270959    4.4403643
           4.4403643    4.4571076    4.4571076
       ********************************************************

------- case.scf2 --------
:GMA  : POTENTIAL AND CHARGE CUT-OFF  12.00 Ry**.5




:POS001: at.nr.  -1 position = 0.00000 0.89750 0.25000  multiplicity =  2

       lmmax 16
       lm=   0 0  1 0  2 0  2 2  3 0  3 2  4 0  4 2  4 4  5 0  5 2  5 4  6 0  6 2  6 4  6 6
:FER gutzwiller fermi energy   0.68759
:EORB         -0.166782262
:SUM sum of gutz band energies         -8.944871887

:CHA001: total charge inside sphere   1 =     9.534991
:PCS001: partial charges sphere =  1 s,p,d,f,px,py,pz,d-z2,d-x2y2,d-xy,d-xz,d-yz 
:QTL001: 1.9448 5.0187 0.5974 1.9737 1.6697 1.6704 1.6786 0.1120 0.1110 0.1279 0.1169 0.1296

                      vxx         vyy         vzz       up to r

:VZZ001:             4.53234     3.65520    -8.18754       2.300

:CHA  : total charge inside unit cell =      13.000000

------- case.scfc --------

        1.ATOM      Pr1                  14 CORE STATES
       CORE-FORCE in mRy/a.u. = |F|      Fx             Fy             Fz
:FCO001:   1.ATOM    617.994716330955      0.000000000000      0.000000000000    617.994716330955

:1S 001: 1S               -3066.919599337 Ry
:2S 001: 2S                -492.672584221 Ry
:2PP001: 2P*               -465.771641404 Ry
:2P 001: 2P                -430.374178289 Ry
:3S 001: 3S                -105.763984668 Ry
:3PP001: 3P*                -94.301760773 Ry
:3P 001: 3P                 -87.293996510 Ry
:3DD001: 3D*                -67.220784954 Ry
:3D 001: 3D                 -65.709248228 Ry
:4S 001: 4S                 -20.442754257 Ry
:4PP001: 4P*                -16.149558523 Ry
:4P 001: 4P                 -14.622211306 Ry
:4DD001: 4D*                 -7.555134729 Ry
:4D 001: 4D                  -7.285739822 Ry

------- case.scfm --------
:CINT001 Core Integral Atom   1   45.998490

       DENSITY AT NUCLEUS
        JATOM        VALENCE       SEMI-CORE          CORE           TOTAL
:RTO001:   1      650.206314        0.000000   656824.311469   657474.517782
     
       CHARGES OF NEW CHARGE DENSITY
:NTO   : INTERSTITIAL CHARGE =     6.930353
:NPC   : PW Pseudocharge     =    17.042354
:NTO001: CHARGE SPHERE  1    =    55.533481

:NEC01: NUCLEAR AND ELECTRONIC CHARGE    118.00000   117.99731
     
       CHARGES OF OLD CHARGE DENSITY
:OTO   : INTERSTITIAL CHARGE =     6.931705
:OPC   : PW Pseudocharge     =    17.048732
:OTO001: CHARGE SPHERE  1    =    55.534147

:NEC02: NUCLEAR AND ELECTRONIC CHARGE    118.00000   118.00000
     
       CONVERGENCE TEST
:DTO001: DIFFERENCE IN SPHERE  1 =  0.0011492

:DIS  :  CHARGE DISTANCE       ( 0.0011492 for atom    1 spin 1)      0.0011492
 PW Mixed is          471
 
******************************************************
* MULTISECANT MIXING VER9 RELEASE 10.4.0              *
* Standard Mode with controls                        *
* Fixed density scale                                *
* Regularization       1.000E-04                     *
* Trust Upper Limit    5.000E+00                     *
* Max Number of Memory Steps    8                    *
******************************************************
 
:INFO : Forcing a restart
:PWTMP   3.5156E+02  1.9467E+02  4.5349E+02
:PLANE:  PW TOTAL      4.8112 DISTAN   1.86E-04  3.87E-03 %
:CHARG:  CLM/ATOM   1381.9530 DISTAN   1.72E-03  1.25E-04 %
 
Step History
        DMIX         DMIXT        Red     Pred      Trust     Lambda    MagRel    MagAbs     Beta
  1   3.5000E-02   3.5000E-02 -1.00E+00  1.00E+00 -1.00E+01  1.00E+00  3.50E-02  3.50E-02  1.00E+00
:INFO :  Note, Pratt in use
:TRUST:  Step 2.25E-01  Charge 7.50E-02 (e) CTO  2.50E-01 (e) PW  3.50E-01 (e)
:DIRM :  MEMORY  0/ 8 SCALE   1.000
Performing Pseudo Compensation
Final Pseudo Compensation Rescaling     1.00000E+00
:MIX  :   PRATT  REGULARIZATION:  1.00E-04 GREED: 0.15000                  
     
       CHARGES OF MIXED CHARGE DENSITY
:CTO   : INTERSTITIAL CHARGE =     6.931905
:CPC   : PW Pseudocharge     =    17.048773
:CTO001: CHARGE SPHERE  1    =    55.534047

:NEC03: NUCLEAR AND ELECTRONIC CHARGE    118.00000   118.00000

PW CHANGE     H    K    L      Current       Change    Residue
:PTO001:      0    0    0  5.28805182E-02  5.317E-07  3.437E-06
:PTO003:      0    2    0  1.43499922E-02 -1.691E-07 -1.157E-06
:PTO004:     -1    1    0  7.09678499E-02 -7.944E-08 -6.598E-07
:PTO005:      0    2   -1 -8.26091853E-02  1.536E-07  1.172E-06
:PTO006:      0    0   -2 -4.28037471E-02 -2.923E-08 -1.185E-07
:PTO007:     -1    1   -1 -8.95249031E-02 -3.588E-08 -1.047E-07
:PTO008:      0    2   -2 -1.46380465E-02  2.266E-08  1.586E-07
:PTO009:     -1    1   -2 -7.45588460E-02  1.536E-07  1.027E-06
:PTO011:     -1    3    0 -1.21031882E-02 -5.981E-08 -4.135E-07
:PTO012:     -1    3   -1 -5.42132167E-02  1.010E-07  5.661E-07
:PTO013:      0    4    0 -9.86019498E-03  2.337E-08  1.261E-07
:PTO014:      0    2   -3  2.25443921E-02 -6.330E-08 -3.539E-07

:ENE  : ********** TOTAL ENERGY IN Ry =       -36944.24144526

       TOTAL FORCE IN mRy/a.u. = |F|     Fx             Fy             Fz     with/without FOR in case.in2
:FOR001:   1.ATOM         15.212          0.000          0.000        -15.212 partial forces
       TOTAL FORCE WITH RESPECT TO GLOBAL CARTESIAN COORDINATES:
:FCA001:   1.ATOM                         0.000        -15.212          0.000 partial forces
       TOTAL FORCE WITH RESPECT TO THE GLOBAL COORDINATE SYSTEM:
:FGL001:   1.ATOM                 0.000000000   -15.212377726     0.000000000 partial forces

------- case.scf0 --------
 Flat Integration
 New Mode for Coulomb Integral
 Consistent 3/8+Simpson combinations
 Extension of core to zero
 LDM version in phi
 Fifth-order quadrature in outwin


            ---------
:ITE044: 44. ITERATION
            ---------

:NATO :    1 INDEPENDENT AND    2 TOTAL ATOMS IN UNITCELL
       SUBSTANCE: aU                                                          

       LATTICE                      = CXY 
:POT  : POTENTIAL OPTION EX_LDA EC_LDA VX_LDA VC_LDA
:LAT  : LATTICE CONSTANTS=  6.34235 12.87024 11.11114    1.571    1.571    1.571
:VOL  : UNIT CELL VOLUME =     453.48796
       MODE OF CALCULATION IS       = RELA
       NON-SPINPOLARIZED CALCULATION
:IFFT  : FFT-parameters:   54  100   90 Factor: 2.00


   CONVERGENCE PARAMETER FOR PSEUDOCHARGE: NCON=  9
   MAXIMAL VALUE OF RMT(JATOM)*ABSK(NKK) : RK  =27.59759


:VKCOUL :  VK-COUL convergence: 0.574E-07
       ATOMNUMBER=  1 Pr1        VCOUL-ZERO =  0.11660E+00
:EFG001:                        EFG         =    -8.21906   *10**21  V / m**2
                               V20  TOT/SRF=    -7.11791    -0.03255
                               V22  TOT/SRF=     0.43915     0.00242
                               V22M TOT/SRF=     0.00000     0.00000
                               V21  TOT/SRF=     0.00000     0.00000
                               V21M TOT/SRF=     0.00000     0.00000

              4.54868    0.00000    0.00000        4.54868    0.00000    0.00000
              0.00000    3.67038    0.00000        0.00000    3.67038    0.00000
              0.00000    0.00000   -8.21906        0.00000    0.00000   -8.21906

         MAIN DIRECTIONS OF THE EFG   1.0000  0.0000  0.0000
                                      0.0000  1.0000  0.0000
                                      0.0000  0.0000  1.0000
:ANG001:  ANGLE WITH OLD X-AXIS =         0.0

:ETA001:                         ASYMM. ETA =     0.10686


     HELLMANN-FEYNMAN-FORCE IN mRy/a.u. = |F|  Fx       Fy             Fz
:FHF001:   1.ATOM    632.980230216383      0.000000000000      0.000000000000   -632.980230216383

:FIT001: LUSE= 13 SIGMA OF V-XC FIT FOR ATOM  1  0.8888572E-05
:FIT001: LUSE= 13 SIGMA OF V-XC FIT FOR ATOM  1  0.8888572E-05
:DEN  : DENSITY INTEGRAL  =        -14154.55087807   (Ry)
       ELS_POTENTIAL_AT Z=0 and Z=0.5:   0.74377   0.74377
       ELS_POTENTIAL_AT Y=0 and Y=0.5:   0.06149   0.06149
:VZERO:v0,v0c,v0x   0.15368   0.74377  -0.59010 v5,v5c,v5x   0.15368   0.74377  -0.59010
:VZERY:v0,v0c,v0x  -0.72733   0.06149  -0.78882 v5,v5c,v5x  -0.72733   0.06149  -0.78882
:VZERX:v0,v0c,v0x  -1.13507  -0.38139  -0.75367 v5,v5c,v5x  -1.13507  -0.38139  -0.75367

------- case.scf1 --------
:LMAX-WF:   10   Non-Spherical LMAX:   4

          ATOMIC SPHERE DEPENDENT PARAMETERS FOR ATOM  Pr1       
:e__0001: OVERALL ENERGY PARAMETER IS    0.4692
          OVERALL BASIS SET ON ATOM IS LAPW
:E0_0001: E( 0)=    0.4692
             APW+lo
:E0_0001: E( 0)=   -1.9914   E(BOTTOM)=   -2.627   E(TOP)=   -1.356  4  5   182
             LOCAL ORBITAL
:E1_0001: E( 1)=    0.8692
             APW+lo
:E1_0001: E( 1)=   -0.5216   E(BOTTOM)=   -1.480   E(TOP)=    0.437  3  4   192
             LOCAL ORBITAL
:E3_0001: E( 3)=    0.6622   E(BOTTOM)=    0.454   E(TOP)=    0.870  0  1   115
             APW+lo
:E2_0001: E( 2)=    0.4692   E(BOTTOM)=    0.261   E(TOP)= -200.000  2 -1    89
             APW+lo

       K=   0.06250   0.00000   0.06250            1
:RKM  : MATRIX SIZE   431LOs:  40  RKM= 8.49  WEIGHT= 4.00  PGR:    
       EIGENVALUES ARE:
:EIG00001:      -1.9662291   -1.9489483   -0.7005829   -0.6117048   -0.5919987
:EIG00006:      -0.5854884   -0.5776151   -0.5772360    0.4389446    0.5696365
:EIG00011:       0.6653141    0.6681346    0.6681559    0.6720357    0.6762162
:EIG00016:       0.6884298    0.6931938    0.6936945    0.6968195    0.7001310
:EIG00021:       0.7044003    0.7072772    0.7086914    0.7137012    0.7420610
:EIG00026:       0.7563944    0.8396902    0.8518018    0.8854195    0.9143622
:EIG00031:       0.9308602    1.0254012    1.0698076    1.1179981    1.4209223
:EIG00036:       1.4317746    1.5077417    1.5157709    1.6785416    1.7309711
:EIG00041:       1.8108400    1.9111205    1.9980495    2.0122493    2.1240585
:EIG00046:       2.1652834    2.1804690    2.2605350    2.3062914    2.4100895
 
:EIG00051:       2.4595479    2.5132513    2.5338852    2.6161171    2.6507177
:EIG00056:       2.7224580    2.7448489    2.7954981    2.8797872    2.9479141
:EIG00061:       3.0069670    3.0289762    3.1663505    3.2192577    3.2454237
:EIG00066:       3.3508864    3.4052138    3.4512993    3.4635871    3.5029153
:EIG00071:       3.5123191    3.5641277    3.5985283    3.6702211    3.6868972
:EIG00076:       3.7302021    3.7503875    3.7988354    3.8247114    3.8569783
:EIG00081:       3.8667142    3.9150766    3.9293667    4.0188702    4.0292557
:EIG00086:       4.0501313    4.1481543    4.1666781    4.1990282    4.2111453
:EIG00091:       4.2452406    4.2890332    4.3058543    4.3311995    4.3454769
:EIG00096:       4.3829528    4.4272323    4.4402090    4.4569350    4.5314044
 
:EIG00101:       4.6130318    4.7343557    4.7522936    4.8268725    4.8480099
:EIG00106:       4.8513014    4.9093113    4.9386519    4.9658868    4.9963521
:EIG00111:       5.0836348    5.1282721    5.1490797    5.2119088    5.2608762
:EIG00116:       5.3046851    5.3387661    5.3595403    5.4065029    5.4472949
:EIG00121:       5.4603454    5.5195694    5.5876942    5.5967031    5.6548451
:EIG00126:       5.7426276    5.7893673    5.8040449    5.8305734    5.8863717
:EIG00131:       5.9020083    5.9653725    5.9782769    5.9849380    6.0229324
:EIG00136:       6.1090207    6.1240932    6.1854496    6.1886404    6.2233048
:EIG00141:       6.2481133    6.2745596    6.3145933    6.3320398    6.3996036
:EIG00146:       6.4058974    6.4182779    6.4630576    6.4697618    6.5344816
 
:EIG00151:       6.5869179    6.6060598    6.6746050    6.7076031    6.7872992
:EIG00156:       6.8652936    6.9594924    6.9723826    7.0008456    7.0747784
:EIG00161:       7.1348782    7.1704762    7.1986333    7.2343017    7.2388711
:EIG00166:       7.2947787    7.3029885    7.3052138    7.3690091    7.4412253
:EIG00171:       7.4485163    7.4951303    7.5299677    7.5465201    7.6084576
:EIG00176:       7.6200785    7.6623127    7.6739290    7.7288634    7.7537103
:EIG00181:       7.7896295    7.8046108    7.8119943    7.8630917    7.8870781
:EIG00186:       7.8992300    7.9889373    8.0631830    8.0751027    8.0876863
:EIG00191:       8.1067104    8.1342952
       ********************************************************

:KPT   :      NUMBER OF K-POINTS:   288

------- case.scfso --------
   0.0   0.0 angle (M,z), angle (M,x) deg
 
        SPIN-ORBIT EIGENVALUES:
     K=   0.06250   0.00000   0.06250            1
      MATRIX SIZE=  384   WEIGHT= 4.00
     EIGENVALUES ARE:
          -1.9662295   -1.9662295   -1.9489484   -1.9489484   -0.7823075
          -0.7823075   -0.7337454   -0.7337454   -0.5948035   -0.5948035
          -0.5233347   -0.5233347   -0.5199904   -0.5199904   -0.5109248
          -0.5109248    0.4389888    0.4389888    0.5695165    0.5695165
           0.6598405    0.6598405    0.6634608    0.6634608    0.6648701
           0.6648701    0.6669517    0.6669517    0.6709541    0.6709541
           0.6764044    0.6764045    0.6912866    0.6912866    0.6990603
           0.6990603    0.7024823    0.7024823    0.7047179    0.7047179

           0.7076328    0.7076328    0.7122865    0.7122865    0.7141257
           0.7141257    0.7191032    0.7191032    0.7432140    0.7432140
           0.7565167    0.7565167    0.8380483    0.8380483    0.8530275
           0.8530275    0.8857050    0.8857050    0.9147935    0.9147935
           0.9309610    0.9309610    1.0252522    1.0252522    1.0700844
           1.0700844    1.1181222    1.1181222    1.4209387    1.4209387
           1.4319878    1.4319878    1.5076760    1.5076760    1.5158663
           1.5158663    1.6781723    1.6781723    1.7304480    1.7304480

           1.8107997    1.8107997    1.9098452    1.9098452    1.9961222
           1.9961222    2.0136710    2.0136710    2.1244337    2.1244337
           2.1651037    2.1651037    2.1789663    2.1789663    2.2603390
           2.2603390    2.3072185    2.3072185    2.4098258    2.4098258
           2.4589708    2.4589708    2.5108652    2.5108652    2.5354331
           2.5354331    2.6162098    2.6162098    2.6520767    2.6520767
           2.7224915    2.7224915    2.7443788    2.7443788    2.7962130
           2.7962130    2.8801809    2.8801809    2.9477018    2.9477018

           3.0067896    3.0067896    3.0333082    3.0333082    3.1662348
           3.1662348    3.2192919    3.2192919    3.2456279    3.2456279
           3.3508955    3.3508955    3.4052552    3.4052552    3.4515300
           3.4515300    3.4631502    3.4631502    3.5030630    3.5030630
           3.5125523    3.5125523    3.5640893    3.5640893    3.5985932
           3.5985932    3.6693787    3.6693787    3.6878460    3.6878460
           3.7304105    3.7304105    3.7521126    3.7521126    3.7989222
           3.7989222    3.8249725    3.8249725    3.8573068    3.8573068

           3.8668189    3.8668189    3.9151020    3.9151020    3.9297521
           3.9297521    4.0187792    4.0187792    4.0295632    4.0295632
           4.0502567    4.0502567    4.1481460    4.1481460    4.1668233
           4.1668233    4.1990524    4.1990524    4.2112119    4.2112119
           4.2452718    4.2452718    4.2890774    4.2890774    4.3058836
           4.3058836    4.3311205    4.3311205    4.3454128    4.3454128
           4.3830152    4.3830152    4.4270956    4.4270956    4.4403633
           4.4403633    4.4571042    4.4571042
       ********************************************************

------- case.scf2 --------
:GMA  : POTENTIAL AND CHARGE CUT-OFF  12.00 Ry**.5




:POS001: at.nr.  -1 position = 0.00000 0.89750 0.25000  multiplicity =  2

       lmmax 16
       lm=   0 0  1 0  2 0  2 2  3 0  3 2  4 0  4 2  4 4  5 0  5 2  5 4  6 0  6 2  6 4  6 6
:FER gutzwiller fermi energy   0.68762
:EORB         -0.167530288
:SUM sum of gutz band energies         -8.945619981

:CHA001: total charge inside sphere   1 =     9.534776
:PCS001: partial charges sphere =  1 s,p,d,f,px,py,pz,d-z2,d-x2y2,d-xy,d-xz,d-yz 
:QTL001: 1.9449 5.0188 0.5976 1.9732 1.6697 1.6704 1.6786 0.1121 0.1110 0.1280 0.1169 0.1296

                      vxx         vyy         vzz       up to r

:VZZ001:             4.53530     3.65547    -8.19078       2.300

:CHA  : total charge inside unit cell =      13.000000

------- case.scfc --------

        1.ATOM      Pr1                  14 CORE STATES
       CORE-FORCE in mRy/a.u. = |F|      Fx             Fy             Fz
:FCO001:   1.ATOM    617.738062373597      0.000000000000      0.000000000000    617.738062373597

:1S 001: 1S               -3066.919836269 Ry
:2S 001: 2S                -492.672822511 Ry
:2PP001: 2P*               -465.771879387 Ry
:2P 001: 2P                -430.374416379 Ry
:3S 001: 3S                -105.764219478 Ry
:3PP001: 3P*                -94.301995985 Ry
:3P 001: 3P                 -87.294230896 Ry
:3DD001: 3D*                -67.221020763 Ry
:3D 001: 3D                 -65.709483844 Ry
:4S 001: 4S                 -20.442942055 Ry
:4PP001: 4P*                -16.149743280 Ry
:4P 001: 4P                 -14.622391391 Ry
:4DD001: 4D*                 -7.555306433 Ry
:4D 001: 4D                  -7.285909923 Ry

------- case.scfm --------
:CINT001 Core Integral Atom   1   45.998490

       DENSITY AT NUCLEUS
        JATOM        VALENCE       SEMI-CORE          CORE           TOTAL
:RTO001:   1      650.219716        0.000000   656824.321043   657474.540759
     
       CHARGES OF NEW CHARGE DENSITY
:NTO   : INTERSTITIAL CHARGE =     6.930836
:NPC   : PW Pseudocharge     =    17.042666
:NTO001: CHARGE SPHERE  1    =    55.533266

:NEC01: NUCLEAR AND ELECTRONIC CHARGE    118.00000   117.99737
     
       CHARGES OF OLD CHARGE DENSITY
:OTO   : INTERSTITIAL CHARGE =     6.931905
:OPC   : PW Pseudocharge     =    17.048773
:OTO001: CHARGE SPHERE  1    =    55.534047

:NEC02: NUCLEAR AND ELECTRONIC CHARGE    118.00000   118.00000
     
       CONVERGENCE TEST
:DTO001: DIFFERENCE IN SPHERE  1 =  0.0013515

:DIS  :  CHARGE DISTANCE       ( 0.0013515 for atom    1 spin 1)      0.0013515
 PW Mixed is          471
 
******************************************************
* MULTISECANT MIXING VER9 RELEASE 10.4.0              *
* Standard Mode with controls                        *
* Fixed density scale                                *
* Restart from converged density                     *
* Regularization       1.000E-04                     *
* Trust Upper Limit    5.000E+00                     *
* Max Number of Memory Steps    8                    *
******************************************************
 
:INFO : Forcing a restart
:PWTMP   3.5156E+02  1.9467E+02  4.5349E+02
:PLANE:  PW TOTAL      4.8112 DISTAN   2.28E-04  4.73E-03 %
:CHARG:  CLM/ATOM   1381.9530 DISTAN   2.05E-03  1.48E-04 %
 
Step History
        DMIX         DMIXT        Red     Pred      Trust     Lambda    MagRel    MagAbs     Beta
  1   3.5000E-02   3.5000E-02 -1.00E+00  1.00E+00 -1.00E+01  1.00E+00  3.50E-02  3.50E-02  1.00E+00
  2   1.5000E-01   1.5000E-01 -1.00E+00  1.00E+00 -1.00E+01  1.00E+00  1.50E-01  2.60E-04  1.00E+00
:JACOBIANS    3.896E-03   2.259E-01
  
:NORMS:  1/Froebius, Min, Max, Used   0.3792E+00 -0.4462E+00  0.3792E+00  0.3792E+00
:INFO :  Number of Memory Steps    1 Skipping    0
:PREDicted Charge, CTotal, PW Trust    2.974E-04   5.948E-04   3.079E-04
:PREDicted DMix, Beta, BLim   5.0000E-02  5.0000E-01  1.8080E+00

Eigenvalues, unscaled except for SY+YY
   #     SY Real        SY Imag          SS             YY         SY+YY Real      SY+YY Imag
   1  -4.461730E-01   0.000000E+00   3.792248E-01   1.000000E+00   5.538270E-01   0.000000E+00
 
:DLIM :  Beta Active  8.000E-01
:BLIM :  VZERO Control Off
:TRUST:  Step 3.00E+00  Charge 6.82E-02 (e) CTO  2.27E-01 (e) PW  3.18E-01 (e)
:DIRM :  MEMORY  1/8  SCALE   1.000 RED  1.19 PRED  1.00 NEXT  0.60 BETA  0.80
:TRAVE:  Charge 2.95E-04 (e) CTO  5.90E-04 (e) PW  3.15E-04 (e)
:DIRP :  |MSR1|= 8.646E-05 |PRATT|= 2.278E-04 ANGLE= 169.8 DEGREES
:DIRQ :  |MSR1|= 7.654E-04 |PRATT|= 2.046E-03 ANGLE= 176.5 DEGREES
:DIRT :  |MSR1|= 7.703E-04 |PRATT|= 2.059E-03 ANGLE= 176.3 DEGREES
:MIX  :   MSR1   REGULARIZATION:  1.00E-04 GREED: 0.07125  Newton 1.00  0.3742                
     
       CHARGES OF MIXED CHARGE DENSITY
:CTO   : INTERSTITIAL CHARGE =     6.931316
:CPC   : PW Pseudocharge     =    17.048629
:CTO001: CHARGE SPHERE  1    =    55.534342

:NEC03: NUCLEAR AND ELECTRONIC CHARGE    118.00000   118.00000

PW CHANGE     H    K    L      Current       Change    Residue
:PTO001:      0    0    0  5.28788992E-02 -1.619E-06  4.254E-06
:PTO003:      0    2    0  1.43504440E-02  4.518E-07 -1.140E-06
:PTO004:     -1    1    0  7.09679703E-02  1.204E-07 -2.581E-07
:PTO005:      0    2   -1 -8.26094571E-02 -2.719E-07  5.438E-07
:PTO006:      0    0   -2 -4.28035881E-02  1.590E-07 -4.699E-07
:PTO007:     -1    1   -1 -8.95246743E-02  2.288E-07 -6.811E-07
:PTO008:      0    2   -2 -1.46380632E-02 -1.664E-08 -4.963E-08
:PTO009:     -1    1   -2 -7.45592036E-02 -3.576E-07  7.554E-07
:PTO011:     -1    3    0 -1.21029785E-02  2.097E-07 -6.449E-07
:PTO012:     -1    3   -1 -5.42133336E-02 -1.169E-07 -2.072E-07
:PTO013:      0    4    0 -9.86021438E-03 -1.940E-08 -9.056E-08
:PTO014:      0    2   -3  2.25444947E-02  1.026E-07 -7.234E-09

:ENE  : ********** TOTAL ENERGY IN Ry =       -36944.24143630

       TOTAL FORCE IN mRy/a.u. = |F|     Fx             Fy             Fz     with/without FOR in case.in2
:FOR001:   1.ATOM         15.242          0.000          0.000        -15.242 partial forces
       TOTAL FORCE WITH RESPECT TO GLOBAL CARTESIAN COORDINATES:
:FCA001:   1.ATOM                         0.000        -15.242          0.000 partial forces
       TOTAL FORCE WITH RESPECT TO THE GLOBAL COORDINATE SYSTEM:
:FGL001:   1.ATOM                 0.000000000   -15.242167843     0.000000000 partial forces

------- case.scf0 --------
 Flat Integration
 New Mode for Coulomb Integral
 Consistent 3/8+Simpson combinations
 Extension of core to zero
 LDM version in phi
 Fifth-order quadrature in outwin


            ---------
:ITE045: 45. ITERATION
            ---------

:NATO :    1 INDEPENDENT AND    2 TOTAL ATOMS IN UNITCELL
       SUBSTANCE: aU                                                          

       LATTICE                      = CXY 
:POT  : POTENTIAL OPTION EX_LDA EC_LDA VX_LDA VC_LDA
:LAT  : LATTICE CONSTANTS=  6.34235 12.87024 11.11114    1.571    1.571    1.571
:VOL  : UNIT CELL VOLUME =     453.48796
       MODE OF CALCULATION IS       = RELA
       NON-SPINPOLARIZED CALCULATION
:IFFT  : FFT-parameters:   54  100   90 Factor: 2.00


   CONVERGENCE PARAMETER FOR PSEUDOCHARGE: NCON=  9
   MAXIMAL VALUE OF RMT(JATOM)*ABSK(NKK) : RK  =27.59759


:VKCOUL :  VK-COUL convergence: 0.574E-07
       ATOMNUMBER=  1 Pr1        VCOUL-ZERO =  0.11661E+00
:EFG001:                        EFG         =    -8.21571   *10**21  V / m**2
                               V20  TOT/SRF=    -7.11502    -0.03252
                               V22  TOT/SRF=     0.43745     0.00242
                               V22M TOT/SRF=     0.00000     0.00000
                               V21  TOT/SRF=     0.00000     0.00000
                               V21M TOT/SRF=     0.00000     0.00000

              4.54531    0.00000    0.00000        4.54531    0.00000    0.00000
              0.00000    3.67040    0.00000        0.00000    3.67040    0.00000
              0.00000    0.00000   -8.21571        0.00000    0.00000   -8.21571

         MAIN DIRECTIONS OF THE EFG   1.0000  0.0000  0.0000
                                      0.0000  1.0000  0.0000
                                      0.0000  0.0000  1.0000
:ANG001:  ANGLE WITH OLD X-AXIS =         0.0

:ETA001:                         ASYMM. ETA =     0.10649


     HELLMANN-FEYNMAN-FORCE IN mRy/a.u. = |F|  Fx       Fy             Fz
:FHF001:   1.ATOM    633.790025834204      0.000000000000      0.000000000000   -633.790025834204

:FIT001: LUSE= 13 SIGMA OF V-XC FIT FOR ATOM  1  0.8900197E-05
:FIT001: LUSE= 13 SIGMA OF V-XC FIT FOR ATOM  1  0.8900197E-05
:DEN  : DENSITY INTEGRAL  =        -14154.61158285   (Ry)
       ELS_POTENTIAL_AT Z=0 and Z=0.5:   0.74373   0.74373
       ELS_POTENTIAL_AT Y=0 and Y=0.5:   0.06152   0.06152
:VZERO:v0,v0c,v0x   0.15365   0.74373  -0.59008 v5,v5c,v5x   0.15365   0.74373  -0.59008
:VZERY:v0,v0c,v0x  -0.72729   0.06152  -0.78881 v5,v5c,v5x  -0.72729   0.06152  -0.78881
:VZERX:v0,v0c,v0x  -1.13504  -0.38138  -0.75366 v5,v5c,v5x  -1.13504  -0.38138  -0.75366

------- case.scf1 --------
:LMAX-WF:   10   Non-Spherical LMAX:   4

          ATOMIC SPHERE DEPENDENT PARAMETERS FOR ATOM  Pr1       
:e__0001: OVERALL ENERGY PARAMETER IS    0.4692
          OVERALL BASIS SET ON ATOM IS LAPW
:E0_0001: E( 0)=    0.4692
             APW+lo
:E0_0001: E( 0)=   -1.9912   E(BOTTOM)=   -2.627   E(TOP)=   -1.355  4  5   186
             LOCAL ORBITAL
:E1_0001: E( 1)=    0.8692
             APW+lo
:E1_0001: E( 1)=   -0.5214   E(BOTTOM)=   -1.480   E(TOP)=    0.437  3  4   193
             LOCAL ORBITAL
:E3_0001: E( 3)=    0.6626   E(BOTTOM)=    0.455   E(TOP)=    0.871  0  1   116
             APW+lo
:E2_0001: E( 2)=    0.4692   E(BOTTOM)=    0.261   E(TOP)= -200.000  2 -1    92
             APW+lo

       K=   0.06250   0.00000   0.06250            1
:RKM  : MATRIX SIZE   431LOs:  40  RKM= 8.49  WEIGHT= 4.00  PGR:    
       EIGENVALUES ARE:
:EIG00001:      -1.9660230   -1.9487383   -0.7004395   -0.6115521   -0.5918419
:EIG00006:      -0.5853203   -0.5774466   -0.5770663    0.4389526    0.5696601
:EIG00011:       0.6656124    0.6684702    0.6685012    0.6723706    0.6765542
:EIG00016:       0.6888035    0.6935705    0.6940676    0.6971953    0.7004954
:EIG00021:       0.7047805    0.7076332    0.7090574    0.7140860    0.7422252
:EIG00026:       0.7564999    0.8397785    0.8518638    0.8854811    0.9144227
:EIG00031:       0.9309275    1.0254741    1.0698920    1.1180886    1.4209589
:EIG00036:       1.4318409    1.5077691    1.5158151    1.6785621    1.7309949
:EIG00041:       1.8108753    1.9111538    1.9980831    2.0122915    2.1241102
:EIG00046:       2.1653189    2.1804870    2.2605696    2.3063172    2.4101281
 
:EIG00051:       2.4595812    2.5132898    2.5339158    2.6161594    2.6507694
:EIG00056:       2.7224846    2.7448680    2.7955713    2.8798183    2.9479607
:EIG00061:       3.0069848    3.0290319    3.1663934    3.2192614    3.2454414
:EIG00066:       3.3509186    3.4052265    3.4513386    3.4636293    3.5029160
:EIG00071:       3.5123280    3.5641404    3.5985449    3.6702430    3.6869100
:EIG00076:       3.7302328    3.7503962    3.7988514    3.8247234    3.8570015
:EIG00081:       3.8667227    3.9150734    3.9293755    4.0188781    4.0292878
:EIG00086:       4.0501239    4.1481412    4.1666812    4.1990360    4.2111611
:EIG00091:       4.2452396    4.2890462    4.3058488    4.3312255    4.3455061
:EIG00096:       4.3829523    4.4272328    4.4402119    4.4569443    4.5314007
 
:EIG00101:       4.6130495    4.7343579    4.7523139    4.8268845    4.8480083
:EIG00106:       4.8512975    4.9093103    4.9386590    4.9658955    4.9963468
:EIG00111:       5.0836280    5.1282629    5.1491137    5.2119303    5.2608789
:EIG00116:       5.3047064    5.3387614    5.3595504    5.4065240    5.4473233
:EIG00121:       5.4603774    5.5195706    5.5877154    5.5967017    5.6548615
:EIG00126:       5.7426322    5.7893896    5.8040593    5.8305827    5.8863786
:EIG00131:       5.9020266    5.9653785    5.9782876    5.9849451    6.0229468
:EIG00136:       6.1090263    6.1240941    6.1854456    6.1886376    6.2233138
:EIG00141:       6.2481257    6.2745846    6.3145985    6.3320303    6.3995958
:EIG00146:       6.4058944    6.4182792    6.4630653    6.4698022    6.5344751
 
:EIG00151:       6.5869071    6.6060692    6.6745962    6.7076207    6.7873112
:EIG00156:       6.8653010    6.9594965    6.9723824    7.0008428    7.0747864
:EIG00161:       7.1348757    7.1704985    7.1986374    7.2343224    7.2388839
:EIG00166:       7.2947829    7.3029971    7.3052207    7.3690150    7.4412359
:EIG00171:       7.4485343    7.4951402    7.5299834    7.5465330    7.6084728
:EIG00176:       7.6200904    7.6623463    7.6739392    7.7288795    7.7537206
:EIG00181:       7.7896314    7.8046252    7.8119904    7.8631168    7.8870803
:EIG00186:       7.8992296    7.9889636    8.0631868    8.0751128    8.0877046
:EIG00191:       8.1067147    8.1342943
       ********************************************************

:KPT   :      NUMBER OF K-POINTS:   288

------- case.scfso --------
   0.0   0.0 angle (M,z), angle (M,x) deg
 
        SPIN-ORBIT EIGENVALUES:
     K=   0.06250   0.00000   0.06250            1
      MATRIX SIZE=  384   WEIGHT= 4.00
     EIGENVALUES ARE:
          -1.9660234   -1.9660234   -1.9487383   -1.9487383   -0.7821466
          -0.7821466   -0.7335712   -0.7335712   -0.5946575   -0.5946575
          -0.5231760   -0.5231760   -0.5198333   -0.5198333   -0.5107619
          -0.5107619    0.4389969    0.4389969    0.5695404    0.5695404
           0.6601640    0.6601640    0.6638109    0.6638109    0.6652106
           0.6652106    0.6672949    0.6672949    0.6713037    0.6713037
           0.6767836    0.6767836    0.6916221    0.6916222    0.6994230
           0.6994230    0.7028570    0.7028570    0.7050771    0.7050771

           0.7079930    0.7079930    0.7126409    0.7126409    0.7144923
           0.7144923    0.7194826    0.7194826    0.7433916    0.7433916
           0.7566295    0.7566295    0.8381389    0.8381389    0.8530900
           0.8530900    0.8857668    0.8857668    0.9148540    0.9148540
           0.9310284    0.9310284    1.0253251    1.0253252    1.0701687
           1.0701687    1.1182126    1.1182126    1.4209760    1.4209760
           1.4320535    1.4320535    1.5077036    1.5077036    1.5159104
           1.5159104    1.6781929    1.6781929    1.7304718    1.7304718

           1.8108351    1.8108351    1.9098787    1.9098787    1.9961570
           1.9961570    2.0137117    2.0137117    2.1244853    2.1244853
           2.1651391    2.1651391    2.1789850    2.1789850    2.2603730
           2.2603730    2.3072449    2.3072449    2.4098645    2.4098645
           2.4590039    2.4590039    2.5109027    2.5109027    2.5354645
           2.5354645    2.6162517    2.6162517    2.6521279    2.6521279
           2.7225186    2.7225186    2.7443983    2.7443983    2.7962854
           2.7962854    2.8802123    2.8802123    2.9477487    2.9477487

           3.0068079    3.0068079    3.0333630    3.0333630    3.1662776
           3.1662776    3.2192956    3.2192956    3.2456456    3.2456456
           3.3509277    3.3509277    3.4052680    3.4052680    3.4515692
           3.4515692    3.4631921    3.4631921    3.5030638    3.5030638
           3.5125613    3.5125613    3.5641020    3.5641020    3.5986097
           3.5986097    3.6694001    3.6694001    3.6878596    3.6878596
           3.7304411    3.7304411    3.7521213    3.7521213    3.7989382
           3.7989382    3.8249847    3.8249847    3.8573298    3.8573298

           3.8668274    3.8668274    3.9150989    3.9150989    3.9297609
           3.9297609    4.0187874    4.0187874    4.0295950    4.0295950
           4.0502494    4.0502494    4.1481329    4.1481329    4.1668264
           4.1668264    4.1990603    4.1990603    4.2112277    4.2112277
           4.2452709    4.2452709    4.2890905    4.2890905    4.3058782
           4.3058782    4.3311464    4.3311464    4.3454419    4.3454419
           4.3830147    4.3830147    4.4270963    4.4270963    4.4403660
           4.4403660    4.4571137    4.4571137
       ********************************************************

------- case.scf2 --------
:GMA  : POTENTIAL AND CHARGE CUT-OFF  12.00 Ry**.5




:POS001: at.nr.  -1 position = 0.00000 0.89750 0.25000  multiplicity =  2

       lmmax 16
       lm=   0 0  1 0  2 0  2 2  3 0  3 2  4 0  4 2  4 4  5 0  5 2  5 4  6 0  6 2  6 4  6 6
:FER gutzwiller fermi energy   0.68772
:EORB         -0.166533569
:SUM sum of gutz band energies         -8.942192298

:CHA001: total charge inside sphere   1 =     9.533765
:PCS001: partial charges sphere =  1 s,p,d,f,px,py,pz,d-z2,d-x2y2,d-xy,d-xz,d-yz 
:QTL001: 1.9448 5.0187 0.5978 1.9721 1.6697 1.6704 1.6786 0.1121 0.1111 0.1280 0.1170 0.1297

                      vxx         vyy         vzz       up to r

:VZZ001:             4.54050     3.66320    -8.20370       2.300

:CHA  : total charge inside unit cell =      13.000000

------- case.scfc --------

        1.ATOM      Pr1                  14 CORE STATES
       CORE-FORCE in mRy/a.u. = |F|      Fx             Fy             Fz
:FCO001:   1.ATOM    618.624444028038      0.000000000000      0.000000000000    618.624444028038

:1S 001: 1S               -3066.919170472 Ry
:2S 001: 2S                -492.672147426 Ry
:2PP001: 2P*               -465.771206384 Ry
:2P 001: 2P                -430.373742617 Ry
:3S 001: 3S                -105.763544115 Ry
:3PP001: 3P*                -94.301320021 Ry
:3P 001: 3P                 -87.293556767 Ry
:3DD001: 3D*                -67.220344008 Ry
:3D 001: 3D                 -65.708807450 Ry
:4S 001: 4S                 -20.442394465 Ry
:4PP001: 4P*                -16.149204456 Ry
:4P 001: 4P                 -14.621865866 Ry
:4DD001: 4D*                 -7.554805122 Ry
:4D 001: 4D                  -7.285413202 Ry

------- case.scfm --------
:CINT001 Core Integral Atom   1   45.998489

       DENSITY AT NUCLEUS
        JATOM        VALENCE       SEMI-CORE          CORE           TOTAL
:RTO001:   1      650.193601        0.000000   656824.295863   657474.489464
     
       CHARGES OF NEW CHARGE DENSITY
:NTO   : INTERSTITIAL CHARGE =     6.932690
:NPC   : PW Pseudocharge     =    17.043049
:NTO001: CHARGE SPHERE  1    =    55.532254

:NEC01: NUCLEAR AND ELECTRONIC CHARGE    118.00000   117.99720
     
       CHARGES OF OLD CHARGE DENSITY
:OTO   : INTERSTITIAL CHARGE =     6.931316
:OPC   : PW Pseudocharge     =    17.048629
:OTO001: CHARGE SPHERE  1    =    55.534342

:NEC02: NUCLEAR AND ELECTRONIC CHARGE    118.00000   118.00000
     
       CONVERGENCE TEST
:DTO001: DIFFERENCE IN SPHERE  1 =  0.0035076

:DIS  :  CHARGE DISTANCE       ( 0.0035076 for atom    1 spin 1)      0.0035076
 PW Mixed is          471
 
******************************************************
* MULTISECANT MIXING VER9 RELEASE 10.4.0              *
* Standard Mode with controls                        *
* Fixed density scale                                *
* Regularization       1.000E-04                     *
* Trust Upper Limit    5.000E+00                     *
* Max Number of Memory Steps    8                    *
******************************************************
 
:PWTMP   3.5156E+02  1.9467E+02  4.5349E+02
:PLANE:  PW TOTAL      4.8112 DISTAN   6.26E-04  1.30E-02 %
:CHARG:  CLM/ATOM   1381.9530 DISTAN   5.19E-03  3.75E-04 %
 
Step History
        DMIX         DMIXT        Red     Pred      Trust     Lambda    MagRel    MagAbs     Beta
  1   3.5000E-02   3.5000E-02 -1.00E+00  1.00E+00 -1.00E+01  1.00E+00  3.50E-02  3.50E-02  1.00E+00
  2   1.5000E-01   1.5000E-01  1.19E+00  1.00E+00 -1.00E+01  1.00E+00  1.50E-01  2.60E-04  1.00E+00
  3   7.1250E-02   7.1250E-02 -1.00E+00  6.02E-01  3.00E+00  1.00E+00  3.74E-01  7.70E-04  8.00E-01
:JACOBIANS    3.862E-03   3.721E-01
  
:NORMS:  1/Froebius, Min, Max, Used   0.1964E+00  0.3385E-02  0.1966E+00  0.1966E+00
:INFO :  Number of Memory Steps    2 Skipping    0
:INFO :  SLambda=    3.0000000000  Max    3.0000000000
:PREDicted Charge, CTotal, PW Trust    5.099E-05   1.020E-04   4.806E-05
:PREDicted DMix, Beta, BLim   2.1960E-01  1.7350E-01  8.5819E-01

Eigenvalues, unscaled except for SY+YY
   #     SY Real        SY Imag          SS             YY         SY+YY Real      SY+YY Imag
   1   3.835657E-04   0.000000E+00   7.713943E-02   1.994926E+00   3.747908E-03   0.000000E+00
   2   3.646908E-01   0.000000E+00   2.545274E-05   5.073905E-03   3.091475E+00   0.000000E+00
 
:INFO :  Singular value  3.104E+00 Weight  1.000E+00 Projection  3.719E-03
:INFO :  Singular value  3.732E-03 Weight  9.972E-01 Projection -6.457E-03
:RANK :  ACTIVE   2.00/2  =  99.86 % ; YY RANK   2.00/2  =  99.92 %
 
:DLIM :  Beta Active  6.400E-01
:BLIM :  VZERO Control Off
:TRUST:  Step 2.25E+00  Charge 6.20E-02 (e) CTO  2.07E-01 (e) PW  2.89E-01 (e)
:DIRM :  MEMORY  2/8  SCALE   1.000 RED  2.54 PRED  0.60 NEXT  0.36 BETA  0.64
:TRAVE:  Charge 2.16E-04 (e) CTO  4.31E-04 (e) PW  2.22E-04 (e)
:DIRP :  |MSR1|= 3.874E-05 |PRATT|= 6.264E-04 ANGLE=  24.1 DEGREES
:DIRQ :  |MSR1|= 3.736E-04 |PRATT|= 5.188E-03 ANGLE=  15.4 DEGREES
:DIRT :  |MSR1|= 3.756E-04 |PRATT|= 5.225E-03 ANGLE=  15.6 DEGREES
:MIX  :   MSE1   REGULARIZATION:  1.99E-04 GREED: 0.15074  Newton 1.00  0.0719                
     
       CHARGES OF MIXED CHARGE DENSITY
:CTO   : INTERSTITIAL CHARGE =     6.931588
:CPC   : PW Pseudocharge     =    17.048657
:CTO001: CHARGE SPHERE  1    =    55.534206

:NEC03: NUCLEAR AND ELECTRONIC CHARGE    118.00000   118.00000

PW CHANGE     H    K    L      Current       Change    Residue
:PTO001:      0    0    0  5.28795631E-02  6.639E-07  1.209E-05
:PTO003:      0    2    0  1.43502083E-02 -2.357E-07 -3.189E-06
:PTO004:     -1    1    0  7.09677812E-02 -1.891E-07  2.669E-08
:PTO005:      0    2   -1 -8.26091239E-02  3.332E-07  4.299E-07
:PTO006:      0    0   -2 -4.28035886E-02 -5.322E-10 -1.522E-06
:PTO007:     -1    1   -1 -8.95245790E-02  9.529E-08 -3.438E-06
:PTO008:      0    2   -2 -1.46380426E-02  2.056E-08  2.782E-07
:PTO009:     -1    1   -2 -7.45588818E-02  3.218E-07  8.302E-07
:PTO011:     -1    3    0 -1.21030543E-02 -7.582E-08 -1.622E-06
:PTO012:     -1    3   -1 -5.42132438E-02  8.976E-08  1.190E-06
:PTO013:      0    4    0 -9.86019344E-03  2.094E-08  2.026E-07
:PTO014:      0    2   -3  2.25444240E-02 -7.072E-08 -7.432E-07

:ENE  : ********** TOTAL ENERGY IN Ry =       -36944.24142094

       TOTAL FORCE IN mRy/a.u. = |F|     Fx             Fy             Fz     with/without FOR in case.in2
:FOR001:   1.ATOM         15.166          0.000          0.000        -15.166 partial forces
       TOTAL FORCE WITH RESPECT TO GLOBAL CARTESIAN COORDINATES:
:FCA001:   1.ATOM                         0.000        -15.166          0.000 partial forces
       TOTAL FORCE WITH RESPECT TO THE GLOBAL COORDINATE SYSTEM:
:FGL001:   1.ATOM                 0.000000000   -15.165581806     0.000000000 partial forces

------- case.scf0 --------
 Flat Integration
 New Mode for Coulomb Integral
 Consistent 3/8+Simpson combinations
 Extension of core to zero
 LDM version in phi
 Fifth-order quadrature in outwin


            ---------
:ITE046: 46. ITERATION
            ---------

:NATO :    1 INDEPENDENT AND    2 TOTAL ATOMS IN UNITCELL
       SUBSTANCE: aU                                                          

       LATTICE                      = CXY 
:POT  : POTENTIAL OPTION EX_LDA EC_LDA VX_LDA VC_LDA
:LAT  : LATTICE CONSTANTS=  6.34235 12.87024 11.11114    1.571    1.571    1.571
:VOL  : UNIT CELL VOLUME =     453.48796
       MODE OF CALCULATION IS       = RELA
       NON-SPINPOLARIZED CALCULATION
:IFFT  : FFT-parameters:   54  100   90 Factor: 2.00


   CONVERGENCE PARAMETER FOR PSEUDOCHARGE: NCON=  9
   MAXIMAL VALUE OF RMT(JATOM)*ABSK(NKK) : RK  =27.59759


:VKCOUL :  VK-COUL convergence: 0.574E-07
       ATOMNUMBER=  1 Pr1        VCOUL-ZERO =  0.11660E+00
:EFG001:                        EFG         =    -8.21704   *10**21  V / m**2
                               V20  TOT/SRF=    -7.11617    -0.03254
                               V22  TOT/SRF=     0.43870     0.00242
                               V22M TOT/SRF=     0.00000     0.00000
                               V21  TOT/SRF=     0.00000     0.00000
                               V21M TOT/SRF=     0.00000     0.00000

              4.54722    0.00000    0.00000        4.54722    0.00000    0.00000
              0.00000    3.66982    0.00000        0.00000    3.66982    0.00000
              0.00000    0.00000   -8.21704        0.00000    0.00000   -8.21704

         MAIN DIRECTIONS OF THE EFG   1.0000  0.0000  0.0000
                                      0.0000  1.0000  0.0000
                                      0.0000  0.0000  1.0000
:ANG001:  ANGLE WITH OLD X-AXIS =         0.0

:ETA001:                         ASYMM. ETA =     0.10678


     HELLMANN-FEYNMAN-FORCE IN mRy/a.u. = |F|  Fx       Fy             Fz
:FHF001:   1.ATOM    633.257164023356      0.000000000000      0.000000000000   -633.257164023356

:FIT001: LUSE= 13 SIGMA OF V-XC FIT FOR ATOM  1  0.8893963E-05
:FIT001: LUSE= 13 SIGMA OF V-XC FIT FOR ATOM  1  0.8893963E-05
:DEN  : DENSITY INTEGRAL  =        -14154.58332512   (Ry)
       ELS_POTENTIAL_AT Z=0 and Z=0.5:   0.74375   0.74375
       ELS_POTENTIAL_AT Y=0 and Y=0.5:   0.06150   0.06150
:VZERO:v0,v0c,v0x   0.15366   0.74375  -0.59009 v5,v5c,v5x   0.15366   0.74375  -0.59009
:VZERY:v0,v0c,v0x  -0.72731   0.06150  -0.78881 v5,v5c,v5x  -0.72731   0.06150  -0.78881
:VZERX:v0,v0c,v0x  -1.13505  -0.38139  -0.75366 v5,v5c,v5x  -1.13505  -0.38139  -0.75366

------- case.scf1 --------
:LMAX-WF:   10   Non-Spherical LMAX:   4

          ATOMIC SPHERE DEPENDENT PARAMETERS FOR ATOM  Pr1       
:e__0001: OVERALL ENERGY PARAMETER IS    0.4692
          OVERALL BASIS SET ON ATOM IS LAPW
:E0_0001: E( 0)=    0.4692
             APW+lo
:E0_0001: E( 0)=   -1.9913   E(BOTTOM)=   -2.627   E(TOP)=   -1.355  4  5   183
             LOCAL ORBITAL
:E1_0001: E( 1)=    0.8692
             APW+lo
:E1_0001: E( 1)=   -0.5215   E(BOTTOM)=   -1.480   E(TOP)=    0.437  3  4   191
             LOCAL ORBITAL
:E3_0001: E( 3)=    0.6624   E(BOTTOM)=    0.454   E(TOP)=    0.870  0  1   116
             APW+lo
:E2_0001: E( 2)=    0.4692   E(BOTTOM)=    0.261   E(TOP)= -200.000  2 -1    89
             APW+lo

       K=   0.06250   0.00000   0.06250            1
:RKM  : MATRIX SIZE   431LOs:  40  RKM= 8.49  WEIGHT= 4.00  PGR:    
       EIGENVALUES ARE:
:EIG00001:      -1.9661209   -1.9488380   -0.7005080   -0.6116245   -0.5919162
:EIG00006:      -0.5854004   -0.5775270   -0.5771472    0.4389479    0.5696482
:EIG00011:       0.6654712    0.6683110    0.6683377    0.6722122    0.6763943
:EIG00016:       0.6886263    0.6933919    0.6938910    0.6970174    0.7003230
:EIG00021:       0.7046002    0.7074650    0.7088845    0.7139039    0.7421468
:EIG00026:       0.7564493    0.8397359    0.8518339    0.8854512    0.9143935
:EIG00031:       0.9308951    1.0254388    1.0698514    1.1180453    1.4209407
:EIG00036:       1.4318088    1.5077553    1.5157934    1.6785513    1.7309826
:EIG00041:       1.8108578    1.9111371    1.9980662    2.0122706    2.1240850
:EIG00046:       2.1653012    2.1804775    2.2605524    2.3063041    2.4101090
 
:EIG00051:       2.4595647    2.5132709    2.5339006    2.6161386    2.6507442
:EIG00056:       2.7224713    2.7448582    2.7955359    2.8798029    2.9479380
:EIG00061:       3.0069755    3.0290048    3.1663723    3.2192587    3.2454321
:EIG00066:       3.3509025    3.4052196    3.4513192    3.4636085    3.5029148
:EIG00071:       3.5123229    3.5641335    3.5985362    3.6702318    3.6869030
:EIG00076:       3.7302174    3.7503911    3.7988429    3.8247169    3.8569897
:EIG00081:       3.8667178    3.9150740    3.9293705    4.0188735    4.0292719
:EIG00086:       4.0501265    4.1481463    4.1666788    4.1990314    4.2111529
:EIG00091:       4.2452392    4.2890393    4.3058505    4.3312125    4.3454914
:EIG00096:       4.3829515    4.4272317    4.4402097    4.4569389    4.5314016
 
:EIG00101:       4.6130403    4.7343560    4.7523035    4.8268779    4.8480081
:EIG00106:       4.8512984    4.9093099    4.9386548    4.9658905    4.9963484
:EIG00111:       5.0836302    5.1282662    5.1490968    5.2119193    5.2608767
:EIG00116:       5.3046955    5.3387627    5.3595447    5.4065131    5.4473090
:EIG00121:       5.4603614    5.5195691    5.5877044    5.5967014    5.6548529
:EIG00126:       5.7426291    5.7893781    5.8040517    5.8305774    5.8863744
:EIG00131:       5.9020170    5.9653748    5.9782817    5.9849408    6.0229391
:EIG00136:       6.1090228    6.1240927    6.1854466    6.1886381    6.2233086
:EIG00141:       6.2481190    6.2745719    6.3145951    6.3320339    6.3995986
:EIG00146:       6.4058949    6.4182777    6.4630608    6.4697824    6.5344772
 
:EIG00151:       6.5869113    6.6060638    6.6745994    6.7076115    6.7873047
:EIG00156:       6.8652966    6.9594937    6.9723815    7.0008432    7.0747817
:EIG00161:       7.1348760    7.1704871    7.1986345    7.2343118    7.2388769
:EIG00166:       7.2947800    7.3029921    7.3052166    7.3690113    7.4412300
:EIG00171:       7.4485248    7.4951346    7.5299751    7.5465260    7.6084647
:EIG00176:       7.6200839    7.6623294    7.6739335    7.7288710    7.7537148
:EIG00181:       7.7896295    7.8046175    7.8119913    7.8631040    7.8870783
:EIG00186:       7.8992289    7.9889503    8.0631840    8.0751071    8.0876950
:EIG00191:       8.1067117    8.1342937
       ********************************************************

:KPT   :      NUMBER OF K-POINTS:   288

------- case.scfso --------
   0.0   0.0 angle (M,z), angle (M,x) deg
 
        SPIN-ORBIT EIGENVALUES:
     K=   0.06250   0.00000   0.06250            1
      MATRIX SIZE=  384   WEIGHT= 4.00
     EIGENVALUES ARE:
          -1.9661213   -1.9661213   -1.9488381   -1.9488381   -0.7822233
          -0.7822233   -0.7336540   -0.7336540   -0.5947270   -0.5947270
          -0.5232516   -0.5232516   -0.5199080   -0.5199080   -0.5108395
          -0.5108395    0.4389921    0.4389921    0.5695283    0.5695283
           0.6600107    0.6600107    0.6636451    0.6636451    0.6650494
           0.6650494    0.6671324    0.6671324    0.6711383    0.6711383
           0.6766039    0.6766039    0.6914632    0.6914632    0.6992513
           0.6992513    0.7026793    0.7026793    0.7049072    0.7049072

           0.7078223    0.7078223    0.7124733    0.7124733    0.7143190
           0.7143190    0.7193031    0.7193031    0.7433069    0.7433069
           0.7565754    0.7565754    0.8380953    0.8380953    0.8530599
           0.8530599    0.8857368    0.8857368    0.9148248    0.9148248
           0.9309960    0.9309960    1.0252898    1.0252899    1.0701281
           1.0701281    1.1181693    1.1181693    1.4209575    1.4209575
           1.4320217    1.4320217    1.5076897    1.5076897    1.5158887
           1.5158887    1.6781821    1.6781821    1.7304595    1.7304595

           1.8108175    1.8108175    1.9098620    1.9098620    1.9961396
           1.9961396    2.0136916    2.0136916    2.1244602    2.1244602
           2.1651215    2.1651215    2.1789752    2.1789752    2.2603561
           2.2603561    2.3072315    2.3072315    2.4098453    2.4098453
           2.4589875    2.4589875    2.5108842    2.5108842    2.5354489
           2.5354489    2.6162311    2.6162311    2.6521029    2.6521029
           2.7225050    2.7225050    2.7443883    2.7443883    2.7962503
           2.7962503    2.8801967    2.8801967    2.9477258    2.9477258

           3.0067983    3.0067983    3.0333363    3.0333363    3.1662565
           3.1662565    3.2192929    3.2192929    3.2456364    3.2456364
           3.3509116    3.3509116    3.4052611    3.4052611    3.4515499
           3.4515499    3.4631715    3.4631715    3.5030625    3.5030625
           3.5125562    3.5125562    3.5640951    3.5640951    3.5986010
           3.5986010    3.6693892    3.6693892    3.6878523    3.6878523
           3.7304258    3.7304258    3.7521162    3.7521162    3.7989297
           3.7989297    3.8249781    3.8249781    3.8573181    3.8573181

           3.8668225    3.8668225    3.9150995    3.9150995    3.9297559
           3.9297559    4.0187827    4.0187827    4.0295792    4.0295792
           4.0502519    4.0502519    4.1481381    4.1481381    4.1668240
           4.1668240    4.1990556    4.1990556    4.2112195    4.2112195
           4.2452704    4.2452704    4.2890836    4.2890836    4.3058799
           4.3058799    4.3311335    4.3311335    4.3454272    4.3454272
           4.3830139    4.3830139    4.4270951    4.4270951    4.4403639
           4.4403639    4.4571083    4.4571083
       ********************************************************

------- case.scf2 --------
:GMA  : POTENTIAL AND CHARGE CUT-OFF  12.00 Ry**.5




:POS001: at.nr.  -1 position = 0.00000 0.89750 0.25000  multiplicity =  2

       lmmax 16
       lm=   0 0  1 0  2 0  2 2  3 0  3 2  4 0  4 2  4 4  5 0  5 2  5 4  6 0  6 2  6 4  6 6
:FER gutzwiller fermi energy   0.68774
:EORB         -0.167397168
:SUM sum of gutz band energies         -8.943414506

:CHA001: total charge inside sphere   1 =     9.533700
:PCS001: partial charges sphere =  1 s,p,d,f,px,py,pz,d-z2,d-x2y2,d-xy,d-xz,d-yz 
:QTL001: 1.9449 5.0188 0.5980 1.9717 1.6697 1.6704 1.6786 0.1122 0.1111 0.1280 0.1170 0.1297

                      vxx         vyy         vzz       up to r

:VZZ001:             4.54231     3.66256    -8.20487       2.300

:CHA  : total charge inside unit cell =      13.000000

------- case.scfc --------

        1.ATOM      Pr1                  14 CORE STATES
       CORE-FORCE in mRy/a.u. = |F|      Fx             Fy             Fz
:FCO001:   1.ATOM    618.068992678428      0.000000000000      0.000000000000    618.068992678428

:1S 001: 1S               -3066.919471733 Ry
:2S 001: 2S                -492.672455896 Ry
:2PP001: 2P*               -465.771513245 Ry
:2P 001: 2P                -430.374050071 Ry
:3S 001: 3S                -105.763858053 Ry
:3PP001: 3P*                -94.301633955 Ry
:3P 001: 3P                 -87.293870120 Ry
:3DD001: 3D*                -67.220657838 Ry
:3D 001: 3D                 -65.709121212 Ry
:4S 001: 4S                 -20.442652609 Ry
:4PP001: 4P*                -16.149458509 Ry
:4P 001: 4P                 -14.622113800 Ry
:4DD001: 4D*                 -7.555041738 Ry
:4D 001: 4D                  -7.285647693 Ry

------- case.scfm --------
:CINT001 Core Integral Atom   1   45.998490

       DENSITY AT NUCLEUS
        JATOM        VALENCE       SEMI-CORE          CORE           TOTAL
:RTO001:   1      650.209644        0.000000   656824.306367   657474.516012
     
       CHARGES OF NEW CHARGE DENSITY
:NTO   : INTERSTITIAL CHARGE =     6.932897
:NPC   : PW Pseudocharge     =    17.043301
:NTO001: CHARGE SPHERE  1    =    55.532189

:NEC01: NUCLEAR AND ELECTRONIC CHARGE    118.00000   117.99728
     
       CHARGES OF OLD CHARGE DENSITY
:OTO   : INTERSTITIAL CHARGE =     6.931588
:OPC   : PW Pseudocharge     =    17.048657
:OTO001: CHARGE SPHERE  1    =    55.534206

:NEC02: NUCLEAR AND ELECTRONIC CHARGE    118.00000   118.00000
     
       CONVERGENCE TEST
:DTO001: DIFFERENCE IN SPHERE  1 =  0.0033701

:DIS  :  CHARGE DISTANCE       ( 0.0033701 for atom    1 spin 1)      0.0033701
 PW Mixed is          471
 
******************************************************
* MULTISECANT MIXING VER9 RELEASE 10.4.0              *
* Standard Mode with controls                        *
* Fixed density scale                                *
* Regularization       1.000E-04                     *
* Trust Upper Limit    5.000E+00                     *
* Max Number of Memory Steps    8                    *
******************************************************
 
:PWTMP   3.5156E+02  1.9467E+02  4.5349E+02
:PLANE:  PW TOTAL      4.8112 DISTAN   6.16E-04  1.28E-02 %
:CHARG:  CLM/ATOM   1381.9530 DISTAN   5.01E-03  3.63E-04 %
 
Step History
        DMIX         DMIXT        Red     Pred      Trust     Lambda    MagRel    MagAbs     Beta
  1   3.5000E-02   3.5000E-02 -1.00E+00  1.00E+00 -1.00E+01  1.00E+00  3.50E-02  3.50E-02  1.00E+00
  2   1.5000E-01   1.5000E-01  1.19E+00  1.00E+00 -1.00E+01  1.00E+00  1.50E-01  2.60E-04  1.00E+00
  3   7.1250E-02   7.1250E-02  2.54E+00  6.02E-01  3.00E+00  3.00E+00  3.74E-01  7.70E-04  8.00E-01
  4   1.5074E-01   1.5074E-01 -1.00E+00  3.60E-01  2.25E+00  1.00E+00  7.19E-02  3.76E-04  6.40E-01
:JACOBIANS    1.055E-02   5.732E-01
  
:NORMS:  1/Froebius, Min, Max, Used   0.6161E+00  0.1697E+00  0.6908E+00  0.6908E+00
:INFO :  Number of Memory Steps    3 Skipping    0
:INFO :  SLambda=    1.4237020895  Max    1.4237020895
:PREDicted Charge, CTotal, PW Trust    2.623E-04   5.247E-04   2.681E-04
:PREDicted DMix, Beta, BLim   1.2347E-01  1.9001E+00  1.9768E+00

Eigenvalues, unscaled except for SY+YY
   #     SY Real        SY Imag          SS             YY         SY+YY Real      SY+YY Imag
   1   5.228939E-01   0.000000E+00   1.138030E+00   2.384449E+00   3.389902E+00   0.000000E+00
   2  -2.605174E-05   0.000000E+00   7.240716E-04   6.154874E-01   1.853358E-04   0.000000E+00
   3  -4.518614E-02   0.000000E+00   1.199158E-05   6.360861E-05   2.899894E-01   0.000000E+00
 
:INFO :  Singular value  3.922E+00 Weight  1.000E+00 Projection  3.219E-03
:INFO :  Singular value  2.515E-01 Weight  1.000E+00 Projection  1.777E-03
:INFO :  Singular value  1.847E-04 Weight  3.751E-01 Projection -9.662E-03
:RANK :  ACTIVE   2.38/3  =  79.17 % ; YY RANK   2.07/3  =  68.88 %
 
:DLIM :  Beta Active  8.000E-01
:BLIM :  VZERO Control Off
:TRUST:  Step 2.33E+00  Charge 6.20E-02 (e) CTO  2.07E-01 (e) PW  2.89E-01 (e)
:DIRM :  MEMORY  3/8  SCALE   1.000 RED  0.97 PRED  0.36 NEXT  0.20 BETA  0.80
:TRAVE:  Charge 1.53E-04 (e) CTO  3.07E-04 (e) PW  1.56E-04 (e)
:DIRP :  |MSR1|= 2.683E-05 |PRATT|= 6.161E-04 ANGLE=  22.6 DEGREES
:DIRQ :  |MSR1|= 2.607E-04 |PRATT|= 5.013E-03 ANGLE=  19.1 DEGREES
:DIRT :  |MSR1|= 2.621E-04 |PRATT|= 5.051E-03 ANGLE=  19.2 DEGREES
:MIX  :   MSE1   REGULARIZATION:  2.38E-04 GREED: 0.11989  Newton 1.00  0.0519                
     
       CHARGES OF MIXED CHARGE DENSITY
:CTO   : INTERSTITIAL CHARGE =     6.931771
:CPC   : PW Pseudocharge     =    17.048685
:CTO001: CHARGE SPHERE  1    =    55.534115

:NEC03: NUCLEAR AND ELECTRONIC CHARGE    118.00000   118.00000

PW CHANGE     H    K    L      Current       Change    Residue
:PTO001:      0    0    0  5.28800271E-02  4.640E-07  1.186E-05
:PTO003:      0    2    0  1.43500689E-02 -1.394E-07 -2.906E-06
:PTO004:     -1    1    0  7.09677021E-02 -7.912E-08  4.733E-07
:PTO005:      0    2   -1 -8.26089803E-02  1.436E-07 -3.365E-07
:PTO006:      0    0   -2 -4.28036198E-02 -3.119E-08 -1.759E-06
:PTO007:     -1    1   -1 -8.95245680E-02  1.100E-08 -3.826E-06
:PTO008:      0    2   -2 -1.46380520E-02 -9.413E-09  5.395E-08
:PTO009:     -1    1   -2 -7.45587071E-02  1.747E-07  3.952E-07
:PTO011:     -1    3    0 -1.21031260E-02 -7.167E-08 -1.757E-06
:PTO012:     -1    3   -1 -5.42132839E-02 -4.011E-08  2.263E-07
:PTO013:      0    4    0 -9.86020734E-03 -1.390E-08 -6.115E-08
:PTO014:      0    2   -3  2.25444215E-02 -2.468E-09 -2.980E-07

:ENE  : ********** TOTAL ENERGY IN Ry =       -36944.24140819

       TOTAL FORCE IN mRy/a.u. = |F|     Fx             Fy             Fz     with/without FOR in case.in2
:FOR001:   1.ATOM         15.188          0.000          0.000        -15.188 partial forces
       TOTAL FORCE WITH RESPECT TO GLOBAL CARTESIAN COORDINATES:
:FCA001:   1.ATOM                         0.000        -15.188          0.000 partial forces
       TOTAL FORCE WITH RESPECT TO THE GLOBAL COORDINATE SYSTEM:
:FGL001:   1.ATOM                 0.000000000   -15.188171345     0.000000000 partial forces

------- case.scf0 --------
 Flat Integration
 New Mode for Coulomb Integral
 Consistent 3/8+Simpson combinations
 Extension of core to zero
 LDM version in phi
 Fifth-order quadrature in outwin


            ---------
:ITE047: 47. ITERATION
            ---------

:NATO :    1 INDEPENDENT AND    2 TOTAL ATOMS IN UNITCELL
       SUBSTANCE: aU                                                          

       LATTICE                      = CXY 
:POT  : POTENTIAL OPTION EX_LDA EC_LDA VX_LDA VC_LDA
:LAT  : LATTICE CONSTANTS=  6.34235 12.87024 11.11114    1.571    1.571    1.571
:VOL  : UNIT CELL VOLUME =     453.48796
       MODE OF CALCULATION IS       = RELA
       NON-SPINPOLARIZED CALCULATION
:IFFT  : FFT-parameters:   54  100   90 Factor: 2.00


   CONVERGENCE PARAMETER FOR PSEUDOCHARGE: NCON=  9
   MAXIMAL VALUE OF RMT(JATOM)*ABSK(NKK) : RK  =27.59759


:VKCOUL :  VK-COUL convergence: 0.574E-07
       ATOMNUMBER=  1 Pr1        VCOUL-ZERO =  0.11660E+00
:EFG001:                        EFG         =    -8.21800   *10**21  V / m**2
                               V20  TOT/SRF=    -7.11700    -0.03254
                               V22  TOT/SRF=     0.43956     0.00242
                               V22M TOT/SRF=     0.00000     0.00000
                               V21  TOT/SRF=     0.00000     0.00000
                               V21M TOT/SRF=     0.00000     0.00000

              4.54856    0.00000    0.00000        4.54856    0.00000    0.00000
              0.00000    3.66944    0.00000        0.00000    3.66944    0.00000
              0.00000    0.00000   -8.21800        0.00000    0.00000   -8.21800

         MAIN DIRECTIONS OF THE EFG   1.0000  0.0000  0.0000
                                      0.0000  1.0000  0.0000
                                      0.0000  0.0000  1.0000
:ANG001:  ANGLE WITH OLD X-AXIS =         0.0

:ETA001:                         ASYMM. ETA =     0.10697


     HELLMANN-FEYNMAN-FORCE IN mRy/a.u. = |F|  Fx       Fy             Fz
:FHF001:   1.ATOM    632.812120570388      0.000000000000      0.000000000000   -632.812120570388

:FIT001: LUSE= 13 SIGMA OF V-XC FIT FOR ATOM  1  0.8889398E-05
:FIT001: LUSE= 13 SIGMA OF V-XC FIT FOR ATOM  1  0.8889398E-05
:DEN  : DENSITY INTEGRAL  =        -14154.56508031   (Ry)
       ELS_POTENTIAL_AT Z=0 and Z=0.5:   0.74376   0.74376
       ELS_POTENTIAL_AT Y=0 and Y=0.5:   0.06150   0.06150
:VZERO:v0,v0c,v0x   0.15367   0.74376  -0.59010 v5,v5c,v5x   0.15367   0.74376  -0.59010
:VZERY:v0,v0c,v0x  -0.72732   0.06150  -0.78882 v5,v5c,v5x  -0.72732   0.06150  -0.78882
:VZERX:v0,v0c,v0x  -1.13506  -0.38139  -0.75367 v5,v5c,v5x  -1.13506  -0.38139  -0.75367

------- case.scf1 --------
:LMAX-WF:   10   Non-Spherical LMAX:   4

          ATOMIC SPHERE DEPENDENT PARAMETERS FOR ATOM  Pr1       
:e__0001: OVERALL ENERGY PARAMETER IS    0.4692
          OVERALL BASIS SET ON ATOM IS LAPW
:E0_0001: E( 0)=    0.4692
             APW+lo
:E0_0001: E( 0)=   -1.9914   E(BOTTOM)=   -2.627   E(TOP)=   -1.355  4  5   186
             LOCAL ORBITAL
:E1_0001: E( 1)=    0.8692
             APW+lo
:E1_0001: E( 1)=   -0.5216   E(BOTTOM)=   -1.480   E(TOP)=    0.437  3  4   195
             LOCAL ORBITAL
:E3_0001: E( 3)=    0.6623   E(BOTTOM)=    0.454   E(TOP)=    0.870  0  1   120
             APW+lo
:E2_0001: E( 2)=    0.4692   E(BOTTOM)=    0.261   E(TOP)= -200.000  2 -1    91
             APW+lo

       K=   0.06250   0.00000   0.06250            1
:RKM  : MATRIX SIZE   431LOs:  40  RKM= 8.49  WEIGHT= 4.00  PGR:    
       EIGENVALUES ARE:
:EIG00001:      -1.9661863   -1.9489047   -0.7005536   -0.6116729   -0.5919659
:EIG00006:      -0.5854539   -0.5775804   -0.5772011    0.4389447    0.5696402
:EIG00011:       0.6653771    0.6682051    0.6682291    0.6721068    0.6762881
:EIG00016:       0.6885085    0.6932732    0.6937737    0.6968992    0.7002085
:EIG00021:       0.7044803    0.7073531    0.7087696    0.7137829    0.7420948
:EIG00026:       0.7564156    0.8397077    0.8518140    0.8854313    0.9143740
:EIG00031:       0.9308735    1.0254155    1.0698244    1.1180164    1.4209287
:EIG00036:       1.4317875    1.5077461    1.5157790    1.6785444    1.7309745
:EIG00041:       1.8108461    1.9111261    1.9980551    2.0122568    2.1240682
:EIG00046:       2.1652895    2.1804713    2.2605410    2.3062954    2.4100964
 
:EIG00051:       2.4595537    2.5132583    2.5338904    2.6161247    2.6507273
:EIG00056:       2.7224623    2.7448516    2.7955123    2.8797926    2.9479229
:EIG00061:       3.0069693    3.0289868    3.1663582    3.2192569    3.2454259
:EIG00066:       3.3508919    3.4052151    3.4513064    3.4635948    3.5029140
:EIG00071:       3.5123196    3.5641290    3.5985304    3.6702244    3.6868985
:EIG00076:       3.7302072    3.7503878    3.7988373    3.8247127    3.8569819
:EIG00081:       3.8667145    3.9150745    3.9293672    4.0188705    4.0292614
:EIG00086:       4.0501282    4.1481498    4.1666772    4.1990283    4.2111474
:EIG00091:       4.2452389    4.2890348    4.3058517    4.3312039    4.3454817
:EIG00096:       4.3829511    4.4272310    4.4402082    4.4569354    4.5314022
 
:EIG00101:       4.6130342    4.7343547    4.7522965    4.8268736    4.8480080
:EIG00106:       4.8512990    4.9093095    4.9386521    4.9658873    4.9963494
:EIG00111:       5.0836317    5.1282685    5.1490855    5.2119121    5.2608753
:EIG00116:       5.3046883    5.3387636    5.3595409    5.4065059    5.4472995
:EIG00121:       5.4603508    5.5195681    5.5876972    5.5967013    5.6548472
:EIG00126:       5.7426270    5.7893705    5.8040466    5.8305739    5.8863717
:EIG00131:       5.9020107    5.9653723    5.9782778    5.9849379    6.0229340
:EIG00136:       6.1090204    6.1240918    6.1854473    6.1886385    6.2233051
:EIG00141:       6.2481145    6.2745635    6.3145929    6.3320362    6.3996004
:EIG00146:       6.4058952    6.4182767    6.4630577    6.4697691    6.5344786
 
:EIG00151:       6.5869141    6.6060603    6.6746015    6.7076054    6.7873003
:EIG00156:       6.8652937    6.9594918    6.9723809    7.0008434    7.0747786
:EIG00161:       7.1348761    7.1704796    7.1986327    7.2343047    7.2388722
:EIG00166:       7.2947780    7.3029888    7.3052138    7.3690089    7.4412261
:EIG00171:       7.4485185    7.4951309    7.5299695    7.5465213    7.6084593
:EIG00176:       7.6200795    7.6623182    7.6739297    7.7288653    7.7537109
:EIG00181:       7.7896283    7.8046123    7.8119918    7.8630955    7.8870770
:EIG00186:       7.8992284    7.9889414    8.0631822    8.0751033    8.0876887
:EIG00191:       8.1067097    8.1342934
       ********************************************************

:KPT   :      NUMBER OF K-POINTS:   288

------- case.scfso --------
   0.0   0.0 angle (M,z), angle (M,x) deg
 
        SPIN-ORBIT EIGENVALUES:
     K=   0.06250   0.00000   0.06250            1
      MATRIX SIZE=  384   WEIGHT= 4.00
     EIGENVALUES ARE:
          -1.9661867   -1.9661867   -1.9489047   -1.9489047   -0.7822744
          -0.7822743   -0.7337093   -0.7337093   -0.5947734   -0.5947734
          -0.5233020   -0.5233020   -0.5199578   -0.5199578   -0.5108913
          -0.5108913    0.4389889    0.4389889    0.5695202    0.5695202
           0.6599087    0.6599087    0.6635349    0.6635349    0.6649422
           0.6649422    0.6670244    0.6670244    0.6710283    0.6710283
           0.6764845    0.6764845    0.6913576    0.6913576    0.6991372
           0.6991372    0.7025612    0.7025612    0.7047943    0.7047943

           0.7077087    0.7077087    0.7123618    0.7123618    0.7142038
           0.7142038    0.7191838    0.7191838    0.7432507    0.7432507
           0.7565395    0.7565395    0.8380663    0.8380663    0.8530398
           0.8530398    0.8857168    0.8857168    0.9148053    0.9148053
           0.9309744    0.9309744    1.0252664    1.0252665    1.0701012
           1.0701012    1.1181405    1.1181405    1.4209453    1.4209453
           1.4320006    1.4320006    1.5076805    1.5076805    1.5158744
           1.5158744    1.6781751    1.6781751    1.7304514    1.7304514

           1.8108058    1.8108058    1.9098509    1.9098509    1.9961281
           1.9961281    2.0136783    2.0136783    2.1244434    2.1244434
           2.1651098    2.1651098    2.1789688    2.1789688    2.2603448
           2.2603448    2.3072226    2.3072226    2.4098326    2.4098326
           2.4589765    2.4589765    2.5108720    2.5108720    2.5354385
           2.5354385    2.6162174    2.6162174    2.6520862    2.6520862
           2.7224960    2.7224960    2.7443815    2.7443815    2.7962270
           2.7962270    2.8801864    2.8801864    2.9477106    2.9477106

           3.0067920    3.0067920    3.0333186    3.0333186    3.1662425
           3.1662425    3.2192911    3.2192911    3.2456302    3.2456302
           3.3509010    3.3509010    3.4052565    3.4052565    3.4515371
           3.4515371    3.4631578    3.4631578    3.5030617    3.5030617
           3.5125529    3.5125529    3.5640906    3.5640906    3.5985953
           3.5985953    3.6693819    3.6693819    3.6878475    3.6878475
           3.7304157    3.7304157    3.7521129    3.7521129    3.7989241
           3.7989241    3.8249738    3.8249738    3.8573104    3.8573104

           3.8668192    3.8668192    3.9150999    3.9150999    3.9297526
           3.9297526    4.0187796    4.0187796    4.0295688    4.0295688
           4.0502536    4.0502536    4.1481415    4.1481415    4.1668225
           4.1668225    4.1990525    4.1990525    4.2112140    4.2112140
           4.2452702    4.2452702    4.2890790    4.2890790    4.3058810
           4.3058810    4.3311249    4.3311249    4.3454176    4.3454176
           4.3830134    4.3830134    4.4270943    4.4270943    4.4403625
           4.4403625    4.4571047    4.4571047
       ********************************************************

------- case.scf2 --------
:GMA  : POTENTIAL AND CHARGE CUT-OFF  12.00 Ry**.5




:POS001: at.nr.  -1 position = 0.00000 0.89750 0.25000  multiplicity =  2

       lmmax 16
       lm=   0 0  1 0  2 0  2 2  3 0  3 2  4 0  4 2  4 4  5 0  5 2  5 4  6 0  6 2  6 4  6 6
:FER gutzwiller fermi energy   0.68776
:EORB         -0.168112562
:SUM sum of gutz band energies         -8.944155387

:CHA001: total charge inside sphere   1 =     9.533543
:PCS001: partial charges sphere =  1 s,p,d,f,px,py,pz,d-z2,d-x2y2,d-xy,d-xz,d-yz 
:QTL001: 1.9449 5.0188 0.5982 1.9713 1.6697 1.6704 1.6787 0.1122 0.1112 0.1280 0.1170 0.1297

                      vxx         vyy         vzz       up to r

:VZZ001:             4.54575     3.66153    -8.20728       2.300

:CHA  : total charge inside unit cell =      13.000000

------- case.scfc --------

        1.ATOM      Pr1                  14 CORE STATES
       CORE-FORCE in mRy/a.u. = |F|      Fx             Fy             Fz
:FCO001:   1.ATOM    617.614612508604      0.000000000000      0.000000000000    617.614612508604

:1S 001: 1S               -3066.919656889 Ry
:2S 001: 2S                -492.672648717 Ry
:2PP001: 2P*               -465.771704356 Ry
:2P 001: 2P                -430.374241815 Ry
:3S 001: 3S                -105.764060194 Ry
:3PP001: 3P*                -94.301835779 Ry
:3P 001: 3P                 -87.294071876 Ry
:3DD001: 3D*                -67.220859071 Ry
:3D 001: 3D                 -65.709322510 Ry
:4S 001: 4S                 -20.442823074 Ry
:4PP001: 4P*                -16.149626329 Ry
:4P 001: 4P                 -14.622277762 Ry
:4DD001: 4D*                 -7.555198350 Ry
:4D 001: 4D                  -7.285802950 Ry

------- case.scfm --------
:CINT001 Core Integral Atom   1   45.998490

       DENSITY AT NUCLEUS
        JATOM        VALENCE       SEMI-CORE          CORE           TOTAL
:RTO001:   1      650.220797        0.000000   656824.311799   657474.532596
     
       CHARGES OF NEW CHARGE DENSITY
:NTO   : INTERSTITIAL CHARGE =     6.933250
:NPC   : PW Pseudocharge     =    17.043566
:NTO001: CHARGE SPHERE  1    =    55.532032

:NEC01: NUCLEAR AND ELECTRONIC CHARGE    118.00000   117.99731
     
       CHARGES OF OLD CHARGE DENSITY
:OTO   : INTERSTITIAL CHARGE =     6.931771
:OPC   : PW Pseudocharge     =    17.048685
:OTO001: CHARGE SPHERE  1    =    55.534115

:NEC02: NUCLEAR AND ELECTRONIC CHARGE    118.00000   118.00000
     
       CONVERGENCE TEST
:DTO001: DIFFERENCE IN SPHERE  1 =  0.0034867

:DIS  :  CHARGE DISTANCE       ( 0.0034867 for atom    1 spin 1)      0.0034867
 PW Mixed is          471
 
******************************************************
* MULTISECANT MIXING VER9 RELEASE 10.4.0              *
* Standard Mode with controls                        *
* Fixed density scale                                *
* Regularization       1.000E-04                     *
* Trust Upper Limit    5.000E+00                     *
* Max Number of Memory Steps    8                    *
******************************************************
 
:PWTMP   3.5156E+02  1.9467E+02  4.5349E+02
:PLANE:  PW TOTAL      4.8112 DISTAN   6.49E-04  1.35E-02 %
:CHARG:  CLM/ATOM   1381.9530 DISTAN   5.19E-03  3.76E-04 %
 
Step History
        DMIX         DMIXT        Red     Pred      Trust     Lambda    MagRel    MagAbs     Beta
  1   3.5000E-02   3.5000E-02 -1.00E+00  1.00E+00 -1.00E+01  1.00E+00  3.50E-02  3.50E-02  1.00E+00
  2   1.5000E-01   1.5000E-01  1.19E+00  1.00E+00 -1.00E+01  1.00E+00  1.50E-01  2.60E-04  1.00E+00
  3   7.1250E-02   7.1250E-02  2.54E+00  6.02E-01  3.00E+00  3.00E+00  3.74E-01  7.70E-04  8.00E-01
  4   1.5074E-01   1.5074E-01  9.67E-01  3.60E-01  2.25E+00  1.42E+00  7.19E-02  3.76E-04  6.40E-01
  5   1.1989E-01   1.1989E-01 -1.00E+00  2.02E-01  2.33E+00  1.00E+00  5.19E-02  2.62E-04  8.00E-01
:JACOBIANS    1.515E-02   7.815E-01
  
:NORMS:  1/Froebius, Min, Max, Used   0.8568E+00  0.1744E+00  0.1038E+01  0.1038E+01
:INFO :  Number of Memory Steps    4 Skipping    0
:INFO :  SLambda=    0.6194280652  Max    0.9659269567
:PREDicted Charge, CTotal, PW Trust    4.737E-05   9.474E-05   8.925E-05
:PREDicted DMix, Beta, BLim   3.7686E-03  2.3844E-01  1.6003E+00

Eigenvalues, unscaled except for SY+YY
   #     SY Real        SY Imag          SS             YY         SY+YY Real      SY+YY Imag
   1  -1.390997E+00   0.000000E+00   2.930971E+00   2.720394E+00   1.593064E+00   0.000000E+00
   2   1.205292E-01   0.000000E+00   5.257332E-03   1.255207E+00   1.593064E+00   0.000000E+00
   3  -3.701530E-06   0.000000E+00   1.921252E-04   2.436360E-02   6.289912E-05   0.000000E+00
   4   7.524687E-04   0.000000E+00   2.211508E-07   3.507270E-05   2.730998E-02   0.000000E+00
 
:INFO :  Singular value  2.500E+00 Weight  1.000E+00 Projection  3.365E-03
:INFO :  Singular value  1.019E+00 Weight  1.000E+00 Projection -2.506E-04
:INFO :  Singular value  2.722E-02 Weight  9.999E-01 Projection -1.787E-03
[...]
:MIX  :   MSD1   REGULARIZATION:  7.98E-04 GREED: 0.08992  Newton 1.00  0.4211                
     
       CHARGES OF MIXED CHARGE DENSITY
:CTO   : INTERSTITIAL CHARGE =     6.934803
:CPC   : PW Pseudocharge     =    17.051290
:CTO001: CHARGE SPHERE  1    =    55.532599

:NEC03: NUCLEAR AND ELECTRONIC CHARGE    118.00000   118.00000

PW CHANGE     H    K    L      Current       Change    Residue
:PTO001:      0    0    0  5.28924578E-02  7.177E-07  9.057E-07
:PTO003:      0    2    0  1.43509289E-02  3.008E-07  2.237E-07
:PTO004:     -1    1    0  7.09782557E-02  1.345E-06  9.261E-07
:PTO005:      0    2   -1 -8.26211012E-02 -1.616E-06 -1.459E-06
:PTO006:      0    0   -2 -4.28107034E-02 -8.677E-07 -1.435E-06
:PTO007:     -1    1   -1 -8.95378854E-02 -1.743E-06 -1.872E-06
:PTO008:      0    2   -2 -1.46419011E-02 -2.438E-07 -1.493E-08
:PTO009:     -1    1   -2 -7.45684225E-02 -1.447E-06 -9.443E-07
:PTO011:     -1    3    0 -1.21071578E-02 -1.891E-07  4.995E-08
:PTO012:     -1    3   -1 -5.42293105E-02 -8.436E-07  7.916E-07
:PTO013:      0    4    0 -9.86383859E-03 -1.591E-07  8.112E-08
:PTO014:      0    2   -3  2.25514874E-02  3.680E-07 -2.905E-07

:ENE  : ********** TOTAL ENERGY IN Ry =       -36944.24153325

       TOTAL FORCE IN mRy/a.u. = |F|     Fx             Fy             Fz     with/without FOR in case.in2
:FOR001:   1.ATOM         14.791          0.000          0.000        -14.791 partial forces
       TOTAL FORCE WITH RESPECT TO GLOBAL CARTESIAN COORDINATES:
:FCA001:   1.ATOM                         0.000        -14.791          0.000 partial forces
       TOTAL FORCE WITH RESPECT TO THE GLOBAL COORDINATE SYSTEM:
:FGL001:   1.ATOM                 0.000000000   -14.790509372     0.000000000 partial forces

------- case.scf0 --------
 Flat Integration
 New Mode for Coulomb Integral
 Consistent 3/8+Simpson combinations
 Extension of core to zero
 LDM version in phi
 Fifth-order quadrature in outwin


            ---------
:ITE068: 68. ITERATION
            ---------

:NATO :    1 INDEPENDENT AND    2 TOTAL ATOMS IN UNITCELL
       SUBSTANCE: aU                                                          

       LATTICE                      = CXY 
:POT  : POTENTIAL OPTION EX_LDA EC_LDA VX_LDA VC_LDA
:LAT  : LATTICE CONSTANTS=  6.34235 12.87024 11.11114    1.571    1.571    1.571
:VOL  : UNIT CELL VOLUME =     453.48796
       MODE OF CALCULATION IS       = RELA
       NON-SPINPOLARIZED CALCULATION
:IFFT  : FFT-parameters:   54  100   90 Factor: 2.00


   CONVERGENCE PARAMETER FOR PSEUDOCHARGE: NCON=  9
   MAXIMAL VALUE OF RMT(JATOM)*ABSK(NKK) : RK  =27.59759


:VKCOUL :  VK-COUL convergence: 0.572E-07
       ATOMNUMBER=  1 Pr1        VCOUL-ZERO =  0.11652E+00
:EFG001:                        EFG         =    -8.22476   *10**21  V / m**2
                               V20  TOT/SRF=    -7.12285    -0.03258
                               V22  TOT/SRF=     0.45564     0.00242
                               V22M TOT/SRF=     0.00000     0.00000
                               V21  TOT/SRF=     0.00000     0.00000
                               V21M TOT/SRF=     0.00000     0.00000

              4.56801    0.00000    0.00000        4.56801    0.00000    0.00000
              0.00000    3.65674    0.00000        0.00000    3.65674    0.00000
              0.00000    0.00000   -8.22476        0.00000    0.00000   -8.22476

         MAIN DIRECTIONS OF THE EFG   1.0000  0.0000  0.0000
                                      0.0000  1.0000  0.0000
                                      0.0000  0.0000  1.0000
:ANG001:  ANGLE WITH OLD X-AXIS =         0.0

:ETA001:                         ASYMM. ETA =     0.11080


     HELLMANN-FEYNMAN-FORCE IN mRy/a.u. = |F|  Fx       Fy             Fz
:FHF001:   1.ATOM    619.450201264270      0.000000000000      0.000000000000   -619.450201264270

:FIT001: LUSE= 13 SIGMA OF V-XC FIT FOR ATOM  1  0.8794926E-05
:FIT001: LUSE= 13 SIGMA OF V-XC FIT FOR ATOM  1  0.8794926E-05
:DEN  : DENSITY INTEGRAL  =        -14154.30677909   (Ry)
       ELS_POTENTIAL_AT Z=0 and Z=0.5:   0.74401   0.74401
       ELS_POTENTIAL_AT Y=0 and Y=0.5:   0.06139   0.06139
:VZERO:v0,v0c,v0x   0.15381   0.74401  -0.59020 v5,v5c,v5x   0.15381   0.74401  -0.59020
:VZERY:v0,v0c,v0x  -0.72748   0.06139  -0.78887 v5,v5c,v5x  -0.72748   0.06139  -0.78887
:VZERX:v0,v0c,v0x  -1.13523  -0.38147  -0.75377 v5,v5c,v5x  -1.13523  -0.38147  -0.75377

------- case.scf1 --------
:LMAX-WF:   10   Non-Spherical LMAX:   4

          ATOMIC SPHERE DEPENDENT PARAMETERS FOR ATOM  Pr1       
:e__0001: OVERALL ENERGY PARAMETER IS    0.4692
          OVERALL BASIS SET ON ATOM IS LAPW
:E0_0001: E( 0)=    0.4692
             APW+lo
:E0_0001: E( 0)=   -1.9925   E(BOTTOM)=   -2.628   E(TOP)=   -1.357  4  5   181
             LOCAL ORBITAL
:E1_0001: E( 1)=    0.8692
             APW+lo
:E1_0001: E( 1)=   -0.5225   E(BOTTOM)=   -1.480   E(TOP)=    0.435  3  4   195
             LOCAL ORBITAL
:E3_0001: E( 3)=    0.6604   E(BOTTOM)=    0.453   E(TOP)=    0.868  0  1   121
             APW+lo
:E2_0001: E( 2)=    0.4692   E(BOTTOM)=    0.260   E(TOP)= -200.000  2 -1    89
             APW+lo

       K=   0.06250   0.00000   0.06250            1
:RKM  : MATRIX SIZE   431LOs:  40  RKM= 8.49  WEIGHT= 4.00  PGR:    
       EIGENVALUES ARE:
:EIG00001:      -1.9672044   -1.9499426   -0.7012492   -0.6124297   -0.5927431
:EIG00006:      -0.5862778   -0.5784007   -0.5780331    0.4389129    0.5695296
:EIG00011:       0.6639115    0.6665476    0.6665607    0.6704669    0.6746419
:EIG00016:       0.6866791    0.6914323    0.6919571    0.6950677    0.6984348
:EIG00021:       0.7026212    0.7056110    0.7069824    0.7119110    0.7413119
:EIG00026:       0.7559145    0.8392871    0.8515172    0.8851398    0.9140839
:EIG00031:       0.9305494    1.0250755    1.0694256    1.1175851    1.4207619
:EIG00036:       1.4314730    1.5076213    1.5155755    1.6784611    1.7308723
:EIG00041:       1.8106839    1.9109769    1.9979003    2.0120641    2.1238211
:EIG00046:       2.1651264    2.1803956    2.2603810    2.3061794    2.4099171
 
:EIG00051:       2.4593929    2.5130817    2.5337459    2.6159260    2.6504754
:EIG00056:       2.7223373    2.7447632    2.7951602    2.8796473    2.9477047
:EIG00061:       3.0068916    3.0287237    3.1661592    3.2192501    3.2453498
:EIG00066:       3.3507495    3.4051639    3.4511289    3.4634035    3.5029248
:EIG00071:       3.5122855    3.5640778    3.5984623    3.6701312    3.6868468
:EIG00076:       3.7300696    3.7503591    3.7987726    3.8246690    3.8568823
:EIG00081:       3.8666882    3.9150992    3.9293358    4.0188439    4.0291229
:EIG00086:       4.0501738    4.1482273    4.1666758    4.1990021    4.2110800
:EIG00091:       4.2452569    4.2889834    4.3058895    4.3310882    4.3453578
:EIG00096:       4.3829689    4.4272384    4.4402052    4.4568998    4.5314277
 
:EIG00101:       4.6129587    4.7343540    4.7522085    4.8268253    4.8480280
:EIG00106:       4.8513263    4.9093238    4.9386308    4.9658579    4.9963815
:EIG00111:       5.0836753    5.1283229    5.1489311    5.2118213    5.2608761
:EIG00116:       5.3045993    5.3387964    5.3595032    5.4064144    5.4471737
:EIG00121:       5.4602082    5.5195744    5.5876070    5.5967207    5.6547783
:EIG00126:       5.7426155    5.7892735    5.8039852    5.8305375    5.8863506
:EIG00131:       5.9019334    5.9653562    5.9782362    5.9849133    6.0228746
:EIG00136:       6.1090033    6.1240993    6.1854767    6.1886647    6.2232705
:EIG00141:       6.2480651    6.2744461    6.3145797    6.3320901    6.3996472
:EIG00146:       6.4059204    6.4182795    6.4630308    6.4695764    6.5345187
 
:EIG00151:       6.5869771    6.6060228    6.6746531    6.7075294    6.7872509
:EIG00156:       6.8652665    6.9594820    6.9723911    7.0008672    7.0747476
:EIG00161:       7.1348985    7.1703784    7.1986249    7.2342127    7.2388205
:EIG00166:       7.2947650    7.3029548    7.3051903    7.3689918    7.4411845
:EIG00171:       7.4484414    7.4950902    7.5299014    7.5464626    7.6083927
:EIG00176:       7.6200268    7.6621611    7.6738890    7.7287956    7.7536717
:EIG00181:       7.7896277    7.8045519    7.8120215    7.8629827    7.8870762
:EIG00186:       7.8992399    7.9888227    8.0631739    8.0750628    8.0876102
:EIG00191:       8.1066990    8.1343091
       ********************************************************

:KPT   :      NUMBER OF K-POINTS:   288

------- case.scfso --------
   0.0   0.0 angle (M,z), angle (M,x) deg
 
        SPIN-ORBIT EIGENVALUES:
     K=   0.06250   0.00000   0.06250            1
      MATRIX SIZE=  384   WEIGHT= 4.00
     EIGENVALUES ARE:
          -1.9672048   -1.9672048   -1.9499427   -1.9499427   -0.7830622
          -0.7830622   -0.7345656   -0.7345655   -0.5954892   -0.5954892
          -0.5240818   -0.5240818   -0.5207314   -0.5207314   -0.5116862
          -0.5116862    0.4389571    0.4389571    0.5694081    0.5694081
           0.6583209    0.6583209    0.6618290    0.6618290    0.6632764
           0.6632764    0.6653456    0.6653456    0.6693242    0.6693242
           0.6746328    0.6746328    0.6897231    0.6897231    0.6973665
           0.6973665    0.7007291    0.7007291    0.7030423    0.7030423

           0.7059445    0.7059445    0.7106259    0.7106259    0.7124185
           0.7124185    0.7173376    0.7173376    0.7424028    0.7424028
           0.7560040    0.7560040    0.8376338    0.8376338    0.8527411
           0.8527411    0.8854242    0.8854243    0.9145152    0.9145152
           0.9306503    0.9306503    1.0249259    1.0249260    1.0697030
           1.0697030    1.1177096    1.1177096    1.4207748    1.4207748
           1.4316897    1.4316897    1.5075549    1.5075549    1.5156714
           1.5156714    1.6780913    1.6780913    1.7303492    1.7303492

           1.8106436    1.8106436    1.9097005    1.9097005    1.9959676
           1.9959676    2.0134923    2.0134923    2.1241971    2.1241971
           2.1649477    2.1649477    2.1788896    2.1788896    2.2601873
           2.2601873    2.3071038    2.3071038    2.4096527    2.4096527
           2.4588169    2.4588169    2.5106998    2.5106998    2.5352902
           2.5352902    2.6160207    2.6160207    2.6518369    2.6518369
           2.7223688    2.7223688    2.7442908    2.7442908    2.7958789
           2.7958789    2.8800396    2.8800396    2.9474908    2.9474908

           3.0067120    3.0067120    3.0330599    3.0330599    3.1660438
           3.1660438    3.2192843    3.2192843    3.2455540    3.2455540
           3.3507584    3.3507584    3.4052048    3.4052048    3.4513602
           3.4513602    3.4629683    3.4629683    3.5030718    3.5030718
           3.5125186    3.5125186    3.5640397    3.5640397    3.5985271
           3.5985271    3.6692912    3.6692912    3.6877924    3.6877924
           3.7302785    3.7302785    3.7520842    3.7520842    3.7988594
           3.7988594    3.8249290    3.8249290    3.8572116    3.8572116

           3.8667930    3.8667930    3.9151244    3.9151244    3.9297209
           3.9297209    4.0187517    4.0187517    4.0294320    4.0294320
           4.0502989    4.0502989    4.1482190    4.1482190    4.1668210
           4.1668210    4.1990264    4.1990264    4.2111465    4.2111465
           4.2452881    4.2452881    4.2890275    4.2890275    4.3059184
           4.3059184    4.3310099    4.3310099    4.3452939    4.3452939
           4.3830311    4.3830311    4.4271008    4.4271008    4.4403605
           4.4403605    4.4570681    4.4570681
       ********************************************************

------- case.scf2 --------
:GMA  : POTENTIAL AND CHARGE CUT-OFF  12.00 Ry**.5




:POS001: at.nr.  -1 position = 0.00000 0.89750 0.25000  multiplicity =  2

       lmmax 16
       lm=   0 0  1 0  2 0  2 2  3 0  3 2  4 0  4 2  4 4  5 0  5 2  5 4  6 0  6 2  6 4  6 6
:FER gutzwiller fermi energy   0.68773
:EORB         -0.176091511
:SUM sum of gutz band energies         -8.957798329

:CHA001: total charge inside sphere   1 =     9.534138
:PCS001: partial charges sphere =  1 s,p,d,f,px,py,pz,d-z2,d-x2y2,d-xy,d-xz,d-yz 
:QTL001: 1.9450 5.0196 0.5992 1.9699 1.6700 1.6707 1.6789 0.1124 0.1115 0.1282 0.1172 0.1299

                      vxx         vyy         vzz       up to r

:VZZ001:             4.55339     3.64390    -8.19729       2.300

:CHA  : total charge inside unit cell =      13.000000

------- case.scfc --------

        1.ATOM      Pr1                  14 CORE STATES
       CORE-FORCE in mRy/a.u. = |F|      Fx             Fy             Fz
:FCO001:   1.ATOM    604.647678444859      0.000000000000      0.000000000000    604.647678444859

:1S 001: 1S               -3066.921852267 Ry
:2S 001: 2S                -492.675085868 Ry
:2PP001: 2P*               -465.774087850 Ry
:2P 001: 2P                -430.376645327 Ry
:3S 001: 3S                -105.766890938 Ry
:3PP001: 3P*                -94.304647605 Ry
:3P 001: 3P                 -87.296897161 Ry
:3DD001: 3D*                -67.223638304 Ry
:3D 001: 3D                 -65.712107743 Ry
:4S 001: 4S                 -20.445422866 Ry
:4PP001: 4P*                -16.152188453 Ry
:4P 001: 4P                 -14.624789839 Ry
:4DD001: 4D*                 -7.557603591 Ry
:4D 001: 4D                  -7.288189741 Ry

------- case.scfm --------
:CINT001 Core Integral Atom   1   45.998491

       DENSITY AT NUCLEUS
        JATOM        VALENCE       SEMI-CORE          CORE           TOTAL
:RTO001:   1      650.384070        0.000000   656824.326078   657474.710148
     
       CHARGES OF NEW CHARGE DENSITY
:NTO   : INTERSTITIAL CHARGE =     6.932102
:NPC   : PW Pseudocharge     =    17.044913
:NTO001: CHARGE SPHERE  1    =    55.532629

:NEC01: NUCLEAR AND ELECTRONIC CHARGE    118.00000   117.99736
     
       CHARGES OF OLD CHARGE DENSITY
:OTO   : INTERSTITIAL CHARGE =     6.934803
:OPC   : PW Pseudocharge     =    17.051290
:OTO001: CHARGE SPHERE  1    =    55.532599

:NEC02: NUCLEAR AND ELECTRONIC CHARGE    118.00000   118.00000
     
       CONVERGENCE TEST
:DTO001: DIFFERENCE IN SPHERE  1 =  0.0000694

:DIS  :  CHARGE DISTANCE       ( 0.0000694 for atom    1 spin 1)      0.0000694
 PW Mixed is          471
 
******************************************************
* MULTISECANT MIXING VER9 RELEASE 10.4.0              *
* Standard Mode with controls                        *
* Fixed density scale                                *
* Regularization       1.000E-04                     *
* Trust Upper Limit    5.000E+00                     *
* Max Number of Memory Steps    8                    *
******************************************************
 
:PWTMP   3.5156E+02  1.9467E+02  4.5349E+02
:PLANE:  PW TOTAL      4.8121 DISTAN   6.93E-05  1.44E-03 %
:CHARG:  CLM/ATOM   1381.9540 DISTAN   2.06E-04  1.49E-05 %
 
Step History
        DMIX         DMIXT        Red     Pred      Trust     Lambda    MagRel    MagAbs     Beta
 18   2.8647E-02   2.8647E-02  9.94E-01  5.90E-01  4.43E-02  1.00E+00  2.33E-02  2.23E-04  4.10E-01
 19   7.1618E-02   7.1618E-02  9.88E-01  4.88E-01  8.48E-02  6.84E-01  1.02E-02  9.67E-05  5.12E-01
 20   1.7904E-01   1.7904E-01  9.42E-01  3.60E-01  8.65E-02  3.14E-01  3.82E-02  3.59E-04  6.40E-01
 21   7.6613E-02   7.6613E-02  1.01E+00  2.00E-01  1.86E-01  1.00E+00  1.12E-02  9.92E-05  8.00E-01
 22   1.9153E-01   1.9153E-01  8.92E-01  6.22E-03  1.26E-01  1.08E+00  4.43E-02  3.97E-04  1.00E+00
 23   3.5000E-01   3.5000E-01  6.08E-01  1.79E-02  2.37E-01  1.61E+00  2.20E-01  1.76E-03  1.00E+00
 24   1.5852E-01   1.5852E-01  5.47E-01  3.90E-02  1.19E+00  1.97E+00  2.28E-01  1.10E-03  1.00E+00
 25   1.0934E-01   1.0934E-01  9.42E-02  9.80E-02  2.05E+00  1.01E-01  4.77E-01  1.27E-03  1.00E+00
 26   8.9924E-02   8.9924E-02 -1.00E+00  9.17E-01  2.73E+00  1.00E+00  4.21E-01  1.05E-04  1.00E+00
:JACOBIANS    7.891E-01   1.368E+00
  
:NORMS:  1/Froebius, Min, Max, Used   0.5664E+00  0.4706E+00  0.1605E+01  0.6497E+00
:INFO :  Number of Memory Steps    8 Skipping   17
:INFO :  SLambda=    1.0000000000  Max    1.0000000000
:PREDicted Charge, CTotal, PW Trust    7.933E-05   1.587E-04   3.314E-04
:PREDicted DMix, Beta, BLim   8.5440E-01  4.6635E+00  2.8066E+00

Eigenvalues, unscaled except for SY+YY
   #     SY Real        SY Imag          SS             YY         SY+YY Real      SY+YY Imag
   1   2.517176E+00   0.000000E+00   1.667497E+00   7.530673E+00   1.011215E+01   0.000000E+00
   2   7.220630E-01   0.000000E+00   8.980012E-01   4.667138E-01   1.124313E+00   0.000000E+00
   3   1.424894E-03   0.000000E+00   8.576176E-04   2.372150E-03   3.964435E-03   0.000000E+00
   4   2.513976E-05   0.000000E+00   3.443533E-06   2.246377E-04   2.488400E-04   0.000000E+00
   5   4.395475E-06   0.000000E+00   1.499813E-06   1.127691E-05   1.579136E-05   0.000000E+00
   6   1.843402E-06   0.000000E+00   1.084243E-06   3.484943E-06   4.326671E-07   0.000000E+00
   7   1.312830E-08   0.000000E+00   5.412497E-08   1.525511E-06   1.342819E-06   0.000000E+00
   8   2.655676E-07   0.000000E+00   2.406575E-09   1.421281E-07   4.736022E-06   0.000000E+00
 
:INFO :  Singular value  1.018E+01 Weight  1.000E+00 Projection -2.557E-05
:INFO :  Singular value  1.118E+00 Weight  1.000E+00 Projection -1.346E-04
:INFO :  Singular value  3.966E-03 Weight  9.652E-01 Projection  3.648E-03
:INFO :  Singular value  2.488E-04 Weight  9.842E-02 Projection -7.496E-05
:INFO :  Singular value  1.640E-05 Weight  4.741E-04 Projection -2.218E-06
:INFO :  Singular value  5.078E-06 Weight  4.547E-05 Projection -4.633E-07
:INFO :  Singular value  1.371E-06 Weight  3.316E-06 Projection -1.823E-08
:INFO :  Singular value  3.800E-07 Weight  2.546E-07 Projection -4.375E-09
:RANK :  ACTIVE   3.06/8  =  38.30 % ; YY RANK   2.99/8  =  37.38 %
 
:BLIM :  VZERO Control Off
:TRUST:  Step 3.14E+00  Charge 4.90E-04 (e) CTO  2.50E-03 (e) PW  3.50E-03 (e)
:DIRM :  MEMORY  8/8  SCALE   1.000 RED  0.87 PRED  0.92 NEXT  0.19 
:TRAVE:  Charge 1.30E-04 (e) CTO  2.60E-04 (e) PW  3.27E-04 (e)
:DIRP :  |MSR1|= 1.478E-04 |PRATT|= 6.928E-05 ANGLE=  59.7 DEGREES
:DIRQ :  |MSR1|= 4.789E-04 |PRATT|= 2.057E-04 ANGLE=  46.0 DEGREES
:DIRT :  |MSR1|= 5.012E-04 |PRATT|= 2.170E-04 ANGLE=  47.4 DEGREES
:MIX  :   MSR1   REGULARIZATION:  7.53E-04 GREED: 0.22481  Newton 1.00  2.3092                
     
       CHARGES OF MIXED CHARGE DENSITY
:CTO   : INTERSTITIAL CHARGE =     6.934643
:CPC   : PW Pseudocharge     =    17.051860
:CTO001: CHARGE SPHERE  1    =    55.532679

:NEC03: NUCLEAR AND ELECTRONIC CHARGE    118.00000   118.00000

PW CHANGE     H    K    L      Current       Change    Residue
:PTO001:      0    0    0  5.28933614E-02  9.035E-07  1.098E-07
:PTO003:      0    2    0  1.43514811E-02  5.521E-07 -6.270E-10
:PTO004:     -1    1    0  7.09803750E-02  2.119E-06 -1.387E-07
:PTO005:      0    2   -1 -8.26238432E-02 -2.742E-06 -1.494E-07
:PTO006:      0    0   -2 -4.28124903E-02 -1.787E-06 -6.701E-07
:PTO007:     -1    1   -1 -8.95410459E-02 -3.161E-06 -4.350E-07
:PTO008:      0    2   -2 -1.46420348E-02 -1.337E-07  2.076E-07
:PTO009:     -1    1   -2 -7.45706969E-02 -2.274E-06  2.340E-07
:PTO011:     -1    3    0 -1.21071822E-02 -2.437E-08  2.204E-07
:PTO012:     -1    3   -1 -5.42291539E-02  1.567E-07  1.497E-06
:PTO013:      0    4    0 -9.86381701E-03  2.158E-08  2.144E-07
:PTO014:      0    2   -3  2.25514255E-02 -6.190E-08 -6.029E-07

:ENE  : ********** TOTAL ENERGY IN Ry =       -36944.24153590

       TOTAL FORCE IN mRy/a.u. = |F|     Fx             Fy             Fz     with/without FOR in case.in2
:FOR001:   1.ATOM         14.803          0.000          0.000        -14.803 partial forces
       TOTAL FORCE WITH RESPECT TO GLOBAL CARTESIAN COORDINATES:
:FCA001:   1.ATOM                         0.000        -14.803          0.000 partial forces
       TOTAL FORCE WITH RESPECT TO THE GLOBAL COORDINATE SYSTEM:
:FGL001:   1.ATOM                 0.000000000   -14.802522819     0.000000000 partial forces
