
:LABEL1: Calculations in /home/ykent/GWIEN/example/Pr/aU/V3/case
:LABEL2: on didymium-2.cmpgroup.ameslab.gov at Fri Jul 10 13:18:39 CDT 2020
:LABEL3: using WIEN2k_19.1 (Release 25/6/2019) in /home/ykent/opt/src/WIEN2k_19.1
:LABEL4: using the command: run_lapw -cc 0.0001
 Flat Integration
 New Mode for Coulomb Integral
 Consistent 3/8+Simpson combinations
 Extension of core to zero
 LDM version in phi
 Fifth-order quadrature in outwin


            ---------
:ITE001:  1. ITERATION
            ---------

:NATO :    1 INDEPENDENT AND    2 TOTAL ATOMS IN UNITCELL
       SUBSTANCE: aU                                                          

       LATTICE                      = CXY 
:POT  : POTENTIAL OPTION EX_LDA EC_LDA VX_LDA VC_LDA
:LAT  : LATTICE CONSTANTS=  5.15104 10.45276  9.02408    1.571    1.571    1.571
:VOL  : UNIT CELL VOLUME =     242.93998
       MODE OF CALCULATION IS       = RELA
       NON-SPINPOLARIZED CALCULATION
:IFFT  : FFT-parameters:   40   80   72 Factor: 2.00


   CONVERGENCE PARAMETER FOR PSEUDOCHARGE: NCON=  9
   MAXIMAL VALUE OF RMT(JATOM)*ABSK(NKK) : RK  =27.58363


:VKCOUL :  VK-COUL convergence: 0.218E-06
       ATOMNUMBER=  1 Pr1        VCOUL-ZERO =  0.77633E+00
:EFG001:                        EFG         =    -0.09603   *10**21  V / m**2
                               V20  TOT/SRF=    -0.08317    -0.10021
                               V22  TOT/SRF=     0.01238     0.01564
                               V22M TOT/SRF=     0.00000     0.00000
                               V21  TOT/SRF=     0.00000     0.00000
                               V21M TOT/SRF=     0.00000     0.00000

              0.06040    0.00000    0.00000        0.06040    0.00000    0.00000
              0.00000    0.03564    0.00000        0.00000    0.03564    0.00000
              0.00000    0.00000   -0.09603        0.00000    0.00000   -0.09603

         MAIN DIRECTIONS OF THE EFG   1.0000  0.0000  0.0000
                                      0.0000  1.0000  0.0000
                                      0.0000  0.0000  1.0000
:ANG001:  ANGLE WITH OLD X-AXIS =         0.0

:ETA001:                         ASYMM. ETA =     0.25785


     HELLMANN-FEYNMAN-FORCE IN mRy/a.u. = |F|  Fx       Fy             Fz
:FHF001:   1.ATOM   1036.376084846934      0.000000000000      0.000000000000  -1036.376084846934

:FIT001: LUSE= 13 SIGMA OF V-XC FIT FOR ATOM  1  0.9251821E-04
:FIT001: LUSE= 13 SIGMA OF V-XC FIT FOR ATOM  1  0.9251821E-04
:DEN  : DENSITY INTEGRAL  =        -14256.62677567   (Ry)
       ELS_POTENTIAL_AT Z=0 and Z=0.5:   1.06593   1.06593
       ELS_POTENTIAL_AT Y=0 and Y=0.5:  -0.06405  -0.06405
:VZERO:v0,v0c,v0x   0.27426   1.06593  -0.79167 v5,v5c,v5x   0.27426   1.06593  -0.79167
:VZERY:v0,v0c,v0x  -1.07238  -0.06405  -1.00834 v5,v5c,v5x  -1.07238  -0.06405  -1.00834
:VZERX:v0,v0c,v0x  -1.32215  -0.38247  -0.93967 v5,v5c,v5x  -1.32215  -0.38247  -0.93967
:LMAX-WF:   10   Non-Spherical LMAX:   4

          ATOMIC SPHERE DEPENDENT PARAMETERS FOR ATOM  Pr1       
:e__0001: OVERALL ENERGY PARAMETER IS    0.3000
          OVERALL BASIS SET ON ATOM IS LAPW
:E0_0001: E( 0)=    0.3000
             APW+lo
:E0_0001: E( 0)=   -1.2031   E(BOTTOM)=   -1.866   E(TOP)=   -0.540  4  5   261
             LOCAL ORBITAL
:E1_0001: E( 1)=    0.7000
             APW+lo
:E1_0001: E( 1)=   -0.7402   E(BOTTOM)=   -0.740   E(TOP)= -200.000  3 -1   207
             LOCAL ORBITAL
:E3_0001: E( 3)=    1.2729   E(BOTTOM)=    1.273   E(TOP)= -200.000  0 -1   147
             APW+lo
:E2_0001: E( 2)=    0.9790   E(BOTTOM)=    0.979   E(TOP)= -200.000  2 -1   119
             APW+lo

       K=   0.06250   0.00000   0.06250            1
:RKM  : MATRIX SIZE   251LOs:  40  RKM= 8.49  WEIGHT= 4.00  PGR:    
       EIGENVALUES ARE:
:EIG00001:      -1.3099252   -1.1755102   -0.1921966    0.1869406    0.2761731
:EIG00006:       0.3034586    0.3330184    0.3442112    1.1806782    1.2825907
:EIG00011:       1.3482323    1.3962307    1.4032144    1.4035548    1.4444253
:EIG00016:       1.4972675    1.5028616    1.5130275    1.5165824    1.5297324
:EIG00021:       1.5328321    1.5442166    1.5581976    1.6013993    1.6030767
:EIG00026:       1.6232222    1.6435395    1.6714471    1.7379104    1.7867310
:EIG00031:       1.8704881
       ********************************************************

:KPT   :      NUMBER OF K-POINTS:   288
:GAP (global)   :    0.0    Ry =     0.0   eV (metal)
         Bandranges (emin - emax) and occupancy:
:BAN00005:   5   -0.055231    0.276173  2.00000000
:BAN00006:   6   -0.012501    0.325348  2.00000000
:BAN00007:   7    0.068129    0.341011  2.00000000
:BAN00008:   8    0.210084    0.365899  2.00000000
:BAN00009:   9    1.044469    1.297644  2.00000000
:BAN00010:  10    1.111707    1.334690  2.00000000
:BAN00011:  11    1.184290    1.428841  2.00000000
:BAN00012:  12    1.262710    1.449128  1.97053353
:BAN00013:  13    1.349909    1.496072  1.34066757
:BAN00014:  14    1.386293    1.508301  0.65406719
:BAN00015:  15    1.423106    1.520365  0.03473172
:BAN00016:  16    1.448198    1.527672  0.00000000
:BAN00017:  17    1.492430    1.541571  0.00000000
:BAN00018:  18    1.502853    1.543500  0.00000000
:BAN00019:  19    1.512569    1.556042  0.00000000
:BAN00020:  20    1.519340    1.563198  0.00000000
        Energy to separate low and high energystates:    0.99447


:NOE  : NUMBER OF ELECTRONS          =   26.000

:FER  : F E R M I - ENERGY(TETRAH.M.)=   1.4385388548
:GMA  : POTENTIAL AND CHARGE CUT-OFF  12.00 Ry**.5

:POS001: ATOM   -1 X,Y,Z = 0.00000 0.89750 0.25000  MULT= 2  ZZ= 59.000  Pr1       

       LMMAX 16
       LM=   0 0  1 0  2 0  2 2  3 0  3 2  4 0  4 2  4 4  5 0  5 2  5 4  6 0  6 2  6 4  6 6

:CHA001: TOTAL VALENCE CHARGE INSIDE SPHERE   1 =   9.5390    (RMT=  2.3000 )
:PCS001: PARTIAL CHARGES SPHERE =  1 S,P,D,F,PX,PY,PZ,D-Z2,D-X2Y2,D-XY,D-XZ,D-YZ 
:QTL001: 1.9394 4.9465 1.2721 1.3728 1.6498 1.6428 1.6539 0.2550 0.2498 0.2465 0.2629 0.2579
        Q-s-low E-s-low   Q-p-low E-p-low   Q-d-low E-d-low   Q-f-low E-f-low
:EPL001:  1.8637 -1.1594    4.7891  0.1086    0.0503  0.0499    0.0160  0.0549
        Q-s-hi  E-s-hi    Q-p-hi  E-p-hi    Q-d-hi  E-d-hi    Q-f-hi  E-f-hi 
:EPH001:  0.0757  1.2966    0.1574  1.3073    1.2218  1.2715    1.3569  1.3665

                      VXX         VYY         VZZ       UP TO R
:VZZ001:            -2.19842     9.95458    -7.75617       2.300

:CHA  : TOTAL VALENCE CHARGE INSIDE UNIT CELL =      26.000000

:SUM  : SUM OF EIGENVALUES =           9.487060934



   QTL-B VALUE .EQ.    3.90711   in Band of energy    1.30237   ATOM=    1   L=  0
    Most likely no ghostbands, but adjust Energy-parameters for this ATOM and L


:WARN : QTL-B value eq.   3.91 in Band of energy   1.30237  ATOM=    1  L=  0
:WARN : You should change the E-parameter for this atom and L-value in case.in1 (or try the -in1new switch)

        1.ATOM      Pr1                  14 CORE STATES
       CORE-FORCE in mRy/a.u. = |F|      Fx             Fy             Fz
:FCO001:   1.ATOM    831.808483697090      0.000000000000      0.000000000000    831.808483697090

:1S 001: 1S               -3065.985042178 Ry
:2S 001: 2S                -491.751198859 Ry
:2PP001: 2P*               -464.848699974 Ry
:2P 001: 2P                -429.451946831 Ry
:3S 001: 3S                -104.851614346 Ry
:3PP001: 3P*                -93.388826444 Ry
:3P 001: 3P                 -86.381736600 Ry
:3DD001: 3D*                -66.307451460 Ry
:3D 001: 3D                 -64.796109824 Ry
:4S 001: 4S                 -19.551384588 Ry
:4PP001: 4P*                -15.259647315 Ry
:4P 001: 4P                 -13.734454398 Ry
:4DD001: 4D*                 -6.672522929 Ry
:4D 001: 4D                  -6.404021825 Ry
:CINT001 Core Integral Atom   1   45.998318

       DENSITY AT NUCLEUS
        JATOM        VALENCE       SEMI-CORE          CORE           TOTAL
:RTO001:   1      635.218575        0.000000   656817.254897   657452.473472
     
       CHARGES OF NEW CHARGE DENSITY
:NTO   : INTERSTITIAL CHARGE =     6.922072
:NPC   : PW Pseudocharge     =    18.521684
:NTO001: CHARGE SPHERE  1    =    55.537277

:NEC01: NUCLEAR AND ELECTRONIC CHARGE    118.00000   117.99663
     
       CHARGES OF OLD CHARGE DENSITY
:OTO   : INTERSTITIAL CHARGE =     5.776735
:OPC   : PW Pseudocharge     =    16.912728
:OTO001: CHARGE SPHERE  1    =    56.112240

:NEC02: NUCLEAR AND ELECTRONIC CHARGE    118.00000   118.00122
     
       CONVERGENCE TEST
:DTO001: DIFFERENCE IN SPHERE  1 =  1.1661111

:DIS  :  CHARGE DISTANCE       ( 1.1661111 for atom    1 spin 1)      1.1661111
 PW Mixed is          264
 
******************************************************
* MULTISECANT MIXING VER9 RELEASE 10.4.0              *
* Standard Mode with controls                        *
* Fixed density scale                                *
* Regularization       1.000E-04                     *
* Trust Upper Limit    5.000E+00                     *
* Max Number of Memory Steps    8                    *
******************************************************
 
:PWTMP   1.4101E+02  1.9467E+02  2.4294E+02
:PLANE:  PW TOTAL      5.3526 DISTAN   6.10E-01  1.14E+01 %
:CHARG:  CLM/ATOM   1382.0603 DISTAN   1.68E+00  1.22E-01 %
INFO: Reducing dbase  2.50000E-02 1.16611E+00 2.31510E-02
 
Step History
        DMIX         DMIXT        Red     Pred      Trust     Lambda    MagRel    MagAbs     Beta
  1   3.5000E-02   3.5000E-02 -1.00E+00  1.00E+00 -1.00E+01  1.00E+00  3.50E-02  3.50E-02  1.00E+00
:INFO :  Note, Pratt in use
INFO: Reducing dbase  2.31510E-02 1.16611E+00 2.14388E-02
:TRUST:  Step 3.75E-02  Charge 7.50E-02 (e) CTO  2.50E-01 (e) PW  3.50E-01 (e)
:DIRM :  MEMORY  0/ 8 SCALE   1.000
Performing Pseudo Compensation
Final Pseudo Compensation Rescaling     1.00000E+00
:MIX  :   PRATT  REGULARIZATION:  1.00E-04 GREED: 0.02500                  
     
       CHARGES OF MIXED CHARGE DENSITY
:CTO   : INTERSTITIAL CHARGE =     5.804268
:CPC   : PW Pseudocharge     =    17.601227
:CTO001: CHARGE SPHERE  1    =    56.097866

:NEC03: NUCLEAR AND ELECTRONIC CHARGE    118.00000   118.00000

PW CHANGE     H    K    L      Current       Change    Residue
:PTO001:      0    0    0  9.63427053E-02  2.967E-03  1.141E-02
:PTO003:      0    2    0  1.95859696E-02  1.163E-03  3.125E-03
:PTO004:     -1    1    0  9.06447394E-02  5.904E-03  9.143E-03
:PTO005:      0    2   -1 -1.04314616E-01 -6.885E-03 -7.814E-03
:PTO006:      0    0   -2 -5.40512029E-02 -3.569E-03 -3.710E-03
:PTO007:     -1    1   -1 -1.05870496E-01 -7.766E-03 -5.729E-03
:PTO008:      0    2   -2 -1.41703595E-02 -1.390E-03 -2.368E-04
:PTO009:     -1    1   -2 -6.51999335E-02 -7.305E-03 -4.187E-03
:PTO011:     -1    3    0 -8.26690846E-03 -1.288E-03 -1.161E-03
:PTO012:     -1    3   -1 -3.20319458E-02 -6.060E-03 -6.512E-03
:PTO013:      0    4    0 -4.86395966E-03 -1.188E-03 -1.426E-03
:PTO014:      0    2   -3  1.08582091E-02  2.705E-03  4.081E-03

:ENE  : *WARNING** TOTAL ENERGY IN Ry =       -36944.47184708

       TOTAL FORCE IN mRy/a.u. = |F|     Fx             Fy             Fz     with/without FOR in case.in2
:FOR001:   1.ATOM        204.568          0.000          0.000       -204.568 partial forces
       TOTAL FORCE WITH RESPECT TO GLOBAL CARTESIAN COORDINATES:
:FCA001:   1.ATOM                         0.000       -204.568          0.000 partial forces
       TOTAL FORCE WITH RESPECT TO THE GLOBAL COORDINATE SYSTEM:
:FGL001:   1.ATOM                 0.000000000  -204.567601150     0.000000000 partial forces

:LABEL1: Calculations in /home/ykent/GWIEN/example/Pr/aU/V3/case
:LABEL2: on didymium-2.cmpgroup.ameslab.gov at Fri Jul 10 13:19:10 CDT 2020
:LABEL3: using WIEN2k_19.1 (Release 25/6/2019) in /home/ykent/opt/src/WIEN2k_19.1
:LABEL4: using the command: run_lapw -cc 0.0001
 Flat Integration
 New Mode for Coulomb Integral
 Consistent 3/8+Simpson combinations
 Extension of core to zero
 LDM version in phi
 Fifth-order quadrature in outwin


            ---------
:ITE002:  2. ITERATION
            ---------

:NATO :    1 INDEPENDENT AND    2 TOTAL ATOMS IN UNITCELL
       SUBSTANCE: aU                                                          

       LATTICE                      = CXY 
:POT  : POTENTIAL OPTION EX_LDA EC_LDA VX_LDA VC_LDA
:LAT  : LATTICE CONSTANTS=  5.15104 10.45276  9.02408    1.571    1.571    1.571
:VOL  : UNIT CELL VOLUME =     242.93998
       MODE OF CALCULATION IS       = RELA
       NON-SPINPOLARIZED CALCULATION
:IFFT  : FFT-parameters:   40   80   72 Factor: 2.00


   CONVERGENCE PARAMETER FOR PSEUDOCHARGE: NCON=  9
   MAXIMAL VALUE OF RMT(JATOM)*ABSK(NKK) : RK  =27.58363


:VKCOUL :  VK-COUL convergence: 0.149E-06
       ATOMNUMBER=  1 Pr1        VCOUL-ZERO =  0.78580E+00
:EFG001:                        EFG         =    -0.29077   *10**21  V / m**2
                               V20  TOT/SRF=    -0.25182    -0.09986
                               V22  TOT/SRF=    -0.13995     0.01462
                               V22M TOT/SRF=     0.00000     0.00000
                               V21  TOT/SRF=     0.00000     0.00000
                               V21M TOT/SRF=     0.00000     0.00000

              0.00544    0.00000    0.00000        0.00544    0.00000    0.00000
              0.00000    0.28533    0.00000        0.00000    0.28533    0.00000
              0.00000    0.00000   -0.29077        0.00000    0.00000   -0.29077

         MAIN DIRECTIONS OF THE EFG   1.0000  0.0000  0.0000
                                      0.0000  1.0000  0.0000
                                      0.0000  0.0000  1.0000
:ANG001:  ANGLE WITH OLD X-AXIS =         0.0

:ETA001:                         ASYMM. ETA =     0.96257


     HELLMANN-FEYNMAN-FORCE IN mRy/a.u. = |F|  Fx       Fy             Fz
:FHF001:   1.ATOM   1023.667360221416      0.000000000000      0.000000000000  -1023.667360221416

:FIT001: LUSE= 13 SIGMA OF V-XC FIT FOR ATOM  1  0.9446815E-04
:FIT001: LUSE= 13 SIGMA OF V-XC FIT FOR ATOM  1  0.9446815E-04
:DEN  : DENSITY INTEGRAL  =        -14254.18930603   (Ry)
       ELS_POTENTIAL_AT Z=0 and Z=0.5:   1.07688   1.07688
       ELS_POTENTIAL_AT Y=0 and Y=0.5:  -0.06079  -0.06079
:VZERO:v0,v0c,v0x   0.28399   1.07688  -0.79289 v5,v5c,v5x   0.28399   1.07688  -0.79289
:VZERY:v0,v0c,v0x  -1.07448  -0.06079  -1.01369 v5,v5c,v5x  -1.07448  -0.06079  -1.01369
:VZERX:v0,v0c,v0x  -1.33579  -0.38946  -0.94634 v5,v5c,v5x  -1.33579  -0.38946  -0.94634
:LMAX-WF:   10   Non-Spherical LMAX:   4

          ATOMIC SPHERE DEPENDENT PARAMETERS FOR ATOM  Pr1       
:e__0001: OVERALL ENERGY PARAMETER IS    0.5000
          OVERALL BASIS SET ON ATOM IS LAPW
:E0_0001: E( 0)=    0.5000
             APW+lo
:E0_0001: E( 0)=   -1.2055   E(BOTTOM)=   -1.866   E(TOP)=   -0.545  4  5   256
             LOCAL ORBITAL
:E1_0001: E( 1)=    0.9000
             APW+lo
:E1_0001: E( 1)=   -0.7384   E(BOTTOM)=   -0.738   E(TOP)= -200.000  3 -1   209
             LOCAL ORBITAL
:E3_0001: E( 3)=    1.2645   E(BOTTOM)=    1.264   E(TOP)= -200.000  0 -1   126
             APW+lo
:E2_0001: E( 2)=    0.9821   E(BOTTOM)=    0.982   E(TOP)= -200.000  2 -1    99
             APW+lo

       K=   0.06250   0.00000   0.06250            1
:RKM  : MATRIX SIZE   251LOs:  40  RKM= 8.49  WEIGHT= 4.00  PGR:    
       EIGENVALUES ARE:
:EIG00001:      -1.3104863   -1.1772157   -0.1889650    0.1874178    0.2760807
:EIG00006:       0.3033964    0.3329522    0.3437993    1.1868553    1.2879708
:EIG00011:       1.3496680    1.3923142    1.3974615    1.4004517    1.4385619
:EIG00016:       1.4880704    1.4997112    1.5056868    1.5084479    1.5194286
:EIG00021:       1.5238369    1.5353187    1.5483596    1.5902241    1.5912900
:EIG00026:       1.6132895    1.6425337    1.6679992    1.7385989    1.7882561
:EIG00031:       1.8719074    2.0651932    2.1501472    2.1908423
       ********************************************************

:KPT   :      NUMBER OF K-POINTS:   288
:GAP (global)   :    0.0    Ry =     0.0   eV (metal)
         Bandranges (emin - emax) and occupancy:
:BAN00005:   5   -0.052993    0.276081  2.00000000
:BAN00006:   6   -0.010445    0.325116  2.00000000
:BAN00007:   7    0.069553    0.340640  2.00000000
:BAN00008:   8    0.211429    0.365301  2.00000000
:BAN00009:   9    1.051523    1.300307  2.00000000
:BAN00010:  10    1.118359    1.337084  2.00000000
:BAN00011:  11    1.190254    1.422755  2.00000000
:BAN00012:  12    1.266611    1.441828  1.96677141
:BAN00013:  13    1.350965    1.486069  1.32424655
:BAN00014:  14    1.384077    1.500836  0.67298669
:BAN00015:  15    1.417780    1.510965  0.03599535
:BAN00016:  16    1.442503    1.517548  0.00000000
:BAN00017:  17    1.486018    1.530866  0.00000000
:BAN00018:  18    1.494385    1.532770  0.00000000
:BAN00019:  19    1.503087    1.544409  0.00000000
:BAN00020:  20    1.509512    1.551567  0.00000000
        Energy to separate low and high energystates:    1.00152


:NOE  : NUMBER OF ELECTRONS          =   26.000

:FER  : F E R M I - ENERGY(TETRAH.M.)=   1.4332550314
:GMA  : POTENTIAL AND CHARGE CUT-OFF  12.00 Ry**.5

:POS001: ATOM   -1 X,Y,Z = 0.00000 0.89750 0.25000  MULT= 2  ZZ= 59.000  Pr1       

       LMMAX 16
       LM=   0 0  1 0  2 0  2 2  3 0  3 2  4 0  4 2  4 4  5 0  5 2  5 4  6 0  6 2  6 4  6 6

:CHA001: TOTAL VALENCE CHARGE INSIDE SPHERE   1 =   9.5996    (RMT=  2.3000 )
:PCS001: PARTIAL CHARGES SPHERE =  1 S,P,D,F,PX,PY,PZ,D-Z2,D-X2Y2,D-XY,D-XZ,D-YZ 
:QTL001: 1.9373 4.9477 1.2380 1.4688 1.6504 1.6433 1.6540 0.2469 0.2404 0.2412 0.2570 0.2525
        Q-s-low E-s-low   Q-p-low E-p-low   Q-d-low E-d-low   Q-f-low E-f-low
:EPL001:  1.8648 -1.1613    4.7983  0.1098    0.0497  0.0511    0.0159  0.0560
        Q-s-hi  E-s-hi    Q-p-hi  E-p-hi    Q-d-hi  E-d-hi    Q-f-hi  E-f-hi 
:EPH001:  0.0725  1.2965    0.1494  1.3075    1.1884  1.2721    1.4529  1.3649

                      VXX         VYY         VZZ       UP TO R
:VZZ001:            -2.88897     9.98404    -7.09507       2.300

:CHA  : TOTAL VALENCE CHARGE INSIDE UNIT CELL =      26.000000

:SUM  : SUM OF EIGENVALUES =           9.515041330


        1.ATOM      Pr1                  14 CORE STATES
       CORE-FORCE in mRy/a.u. = |F|      Fx             Fy             Fz
:FCO001:   1.ATOM    828.884267609690      0.000000000000      0.000000000000    828.884267609690

:1S 001: 1S               -3066.017273501 Ry
:2S 001: 2S                -491.782698941 Ry
:2PP001: 2P*               -464.880303926 Ry
:2P 001: 2P                -429.483506498 Ry
:3S 001: 3S                -104.881622288 Ry
:3PP001: 3P*                -93.418951624 Ry
:3P 001: 3P                 -86.411677599 Ry
:3DD001: 3D*                -66.337729672 Ry
:3D 001: 3D                 -64.826339672 Ry
:4S 001: 4S                 -19.573001717 Ry
:4PP001: 4P*                -15.280756322 Ry
:4P 001: 4P                 -13.754772814 Ry
:4DD001: 4D*                 -6.691413925 Ry
:4D 001: 4D                  -6.422640021 Ry
:CINT001 Core Integral Atom   1   45.998341

       DENSITY AT NUCLEUS
        JATOM        VALENCE       SEMI-CORE          CORE           TOTAL
:RTO001:   1      635.329467        0.000000   656819.118045   657454.447513
     
       CHARGES OF NEW CHARGE DENSITY
:NTO   : INTERSTITIAL CHARGE =     6.800770
:NPC   : PW Pseudocharge     =    18.446158
:NTO001: CHARGE SPHERE  1    =    55.597951

:NEC01: NUCLEAR AND ELECTRONIC CHARGE    118.00000   117.99667
     
       CHARGES OF OLD CHARGE DENSITY
:OTO   : INTERSTITIAL CHARGE =     5.804268
:OPC   : PW Pseudocharge     =    17.601227
:OTO001: CHARGE SPHERE  1    =    56.097866

:NEC02: NUCLEAR AND ELECTRONIC CHARGE    118.00000   118.00000
     
       CONVERGENCE TEST
:DTO001: DIFFERENCE IN SPHERE  1 =  1.0126798

:DIS  :  CHARGE DISTANCE       ( 1.0126798 for atom    1 spin 1)      1.0126798
 PW Mixed is          264
 
******************************************************
* MULTISECANT MIXING VER9 RELEASE 10.4.0              *
* Standard Mode with controls                        *
* Fixed density scale                                *
* Regularization       1.000E-04                     *
* Trust Upper Limit    5.000E+00                     *
* Max Number of Memory Steps    8                    *
******************************************************
 
:PWTMP   1.4101E+02  1.9467E+02  2.4294E+02
:PLANE:  PW TOTAL      5.6385 DISTAN   3.51E-01  6.23E+00 %
:CHARG:  CLM/ATOM   1382.0530 DISTAN   1.47E+00  1.06E-01 %
INFO: Reducing dbase  2.50000E-02 1.01268E+00 2.48430E-02
 
Step History
        DMIX         DMIXT        Red     Pred      Trust     Lambda    MagRel    MagAbs     Beta
  1   3.5000E-02   3.5000E-02 -1.00E+00  1.00E+00 -1.00E+01  1.00E+00  3.50E-02  3.50E-02  1.00E+00
:INFO :  Note, Pratt in use
INFO: Reducing dbase  2.48430E-02 1.01268E+00 2.46870E-02
:TRUST:  Step 3.75E-02  Charge 7.50E-02 (e) CTO  2.50E-01 (e) PW  3.50E-01 (e)
:DIRM :  MEMORY  0/ 8 SCALE   1.000
Performing Pseudo Compensation
Final Pseudo Compensation Rescaling     1.00000E+00
:MIX  :   PRATT  REGULARIZATION:  1.00E-04 GREED: 0.02500                  
     
       CHARGES OF MIXED CHARGE DENSITY
:CTO   : INTERSTITIAL CHARGE =     5.829264
:CPC   : PW Pseudocharge     =    17.823195
:CTO001: CHARGE SPHERE  1    =    56.085368

:NEC03: NUCLEAR AND ELECTRONIC CHARGE    118.00000   118.00000

PW CHANGE     H    K    L      Current       Change    Residue
:PTO001:      0    0    0  9.73592657E-02  1.017E-03  7.631E-03
:PTO003:      0    2    0  1.99111158E-02  3.251E-04  1.992E-03
:PTO004:     -1    1    0  9.20792388E-02  1.434E-03  3.391E-03
:PTO005:      0    2   -1 -1.05907768E-01 -1.593E-03 -9.443E-04
:PTO006:      0    0   -2 -5.48692311E-02 -8.180E-04 -1.504E-04
:PTO007:     -1    1   -1 -1.07489156E-01 -1.619E-03  1.837E-03
:PTO008:      0    2   -2 -1.43830244E-02 -2.127E-04  1.159E-03
:PTO009:     -1    1   -2 -6.62568878E-02 -1.057E-03  2.983E-03
:PTO011:     -1    3    0 -8.40862720E-03 -1.417E-04  9.099E-05
:PTO012:     -1    3   -1 -3.25857142E-02 -5.538E-04 -5.842E-04
:PTO013:      0    4    0 -4.94333051E-03 -7.937E-05 -2.244E-04
:PTO014:      0    2   -3  1.10549270E-02  1.967E-04  1.348E-03

:ENE  : ********** TOTAL ENERGY IN Ry =       -36944.43325836

       TOTAL FORCE IN mRy/a.u. = |F|     Fx             Fy             Fz     with/without FOR in case.in2
:FOR001:   1.ATOM        194.783          0.000          0.000       -194.783 partial forces
       TOTAL FORCE WITH RESPECT TO GLOBAL CARTESIAN COORDINATES:
:FCA001:   1.ATOM                         0.000       -194.783          0.000 partial forces
       TOTAL FORCE WITH RESPECT TO THE GLOBAL COORDINATE SYSTEM:
:FGL001:   1.ATOM                 0.000000000  -194.783092612     0.000000000 partial forces
 Flat Integration
 New Mode for Coulomb Integral
 Consistent 3/8+Simpson combinations
 Extension of core to zero
 LDM version in phi
 Fifth-order quadrature in outwin


            ---------
:ITE003:  3. ITERATION
            ---------

:NATO :    1 INDEPENDENT AND    2 TOTAL ATOMS IN UNITCELL
       SUBSTANCE: aU                                                          

       LATTICE                      = CXY 
:POT  : POTENTIAL OPTION EX_LDA EC_LDA VX_LDA VC_LDA
:LAT  : LATTICE CONSTANTS=  5.15104 10.45276  9.02408    1.571    1.571    1.571
:VOL  : UNIT CELL VOLUME =     242.93998
       MODE OF CALCULATION IS       = RELA
       NON-SPINPOLARIZED CALCULATION
:IFFT  : FFT-parameters:   40   80   72 Factor: 2.00


   CONVERGENCE PARAMETER FOR PSEUDOCHARGE: NCON=  9
   MAXIMAL VALUE OF RMT(JATOM)*ABSK(NKK) : RK  =27.58363


:VKCOUL :  VK-COUL convergence: 0.150E-06
       ATOMNUMBER=  1 Pr1        VCOUL-ZERO =  0.79258E+00
:EFG001:                        EFG         =     0.52956   *10**21  V / m**2
                               V20  TOT/SRF=    -0.40192    -0.09949
                               V22  TOT/SRF=    -0.29752     0.01353
                               V22M TOT/SRF=     0.00000     0.00000
                               V21  TOT/SRF=     0.00000     0.00000
                               V21M TOT/SRF=     0.00000     0.00000

             -0.06547    0.00000    0.00000       -0.06547    0.00000    0.00000
              0.00000    0.52956    0.00000        0.00000    0.52956    0.00000
              0.00000    0.00000   -0.46409        0.00000    0.00000   -0.46409

         MAIN DIRECTIONS OF THE EFG   1.0000  0.0000  0.0000
                                      0.0000  1.0000  0.0000
                                      0.0000  0.0000  1.0000
:ANG001:  ANGLE WITH OLD X-AXIS =         0.0

:ETA001:                         ASYMM. ETA =     0.75274


     HELLMANN-FEYNMAN-FORCE IN mRy/a.u. = |F|  Fx       Fy             Fz
:FHF001:   1.ATOM   1011.199302736717      0.000000000000      0.000000000000  -1011.199302736717

:FIT001: LUSE= 13 SIGMA OF V-XC FIT FOR ATOM  1  0.9643807E-04
:FIT001: LUSE= 13 SIGMA OF V-XC FIT FOR ATOM  1  0.9643807E-04
:DEN  : DENSITY INTEGRAL  =        -14251.90743730   (Ry)
       ELS_POTENTIAL_AT Z=0 and Z=0.5:   1.08500   1.08500
       ELS_POTENTIAL_AT Y=0 and Y=0.5:  -0.05921  -0.05921
:VZERO:v0,v0c,v0x   0.29103   1.08500  -0.79397 v5,v5c,v5x   0.29103   1.08500  -0.79397
:VZERY:v0,v0c,v0x  -1.07590  -0.05921  -1.01669 v5,v5c,v5x  -1.07590  -0.05921  -1.01669
:VZERX:v0,v0c,v0x  -1.34218  -0.39342  -0.94876 v5,v5c,v5x  -1.34218  -0.39342  -0.94876
:LMAX-WF:   10   Non-Spherical LMAX:   4

          ATOMIC SPHERE DEPENDENT PARAMETERS FOR ATOM  Pr1       
:e__0001: OVERALL ENERGY PARAMETER IS    0.7000
          OVERALL BASIS SET ON ATOM IS LAPW
:E0_0001: E( 0)=    0.7000
             APW+lo
:E0_0001: E( 0)=   -1.2092   E(BOTTOM)=   -1.868   E(TOP)=   -0.551  4  5   259
             LOCAL ORBITAL
:E1_0001: E( 1)=    1.1000
             APW+lo
:E1_0001: E( 1)=    0.2480   E(BOTTOM)=   -0.738   E(TOP)=    1.234  3  4   262
             LOCAL ORBITAL
:E3_0001: E( 3)=    1.4809   E(BOTTOM)=    1.256   E(TOP)=    1.706  0  1   177
             APW+lo
:E2_0001: E( 2)=    0.9833   E(BOTTOM)=    0.983   E(TOP)= -200.000  2 -1   123
             APW+lo

       K=   0.06250   0.00000   0.06250            1
:RKM  : MATRIX SIZE   251LOs:  40  RKM= 8.49  WEIGHT= 4.00  PGR:    
       EIGENVALUES ARE:
:EIG00001:      -1.3124667   -1.1801933   -0.1875871    0.1864121    0.2744719
:EIG00006:       0.3019855    0.3315379    0.3419925    1.1907528    1.2911529
:EIG00011:       1.3490182    1.3868810    1.3906966    1.3957989    1.4317664
:EIG00016:       1.4782550    1.4923102    1.4991389    1.4999456    1.5086868
:EIG00021:       1.5140267    1.5258372    1.5376581    1.5768766    1.5798946
:EIG00026:       1.6031187    1.6409422    1.6635035    1.7375406    1.7876215
:EIG00031:       1.8707752    2.0632841    2.1500445    2.1870904
       ********************************************************

:KPT   :      NUMBER OF K-POINTS:   288
:GAP (global)   :    0.0    Ry =     0.0   eV (metal)
         Bandranges (emin - emax) and occupancy:
:BAN00005:   5   -0.052326    0.274472  2.00000000
:BAN00006:   6   -0.010098    0.323585  2.00000000
:BAN00007:   7    0.069362    0.338963  2.00000000
:BAN00008:   8    0.211197    0.363349  2.00000000
:BAN00009:   9    1.056232    1.300873  2.00000000
:BAN00010:  10    1.122660    1.337945  2.00000000
:BAN00011:  11    1.193938    1.418224  2.00000000
:BAN00012:  12    1.268357    1.433804  1.96688234
:BAN00013:  13    1.349679    1.475669  1.30946608
:BAN00014:  14    1.380204    1.492229  0.68723488
:BAN00015:  15    1.411331    1.500601  0.03641670
:BAN00016:  16    1.435601    1.506935  0.00000000
:BAN00017:  17    1.476485    1.519699  0.00000000
:BAN00018:  18    1.484963    1.521768  0.00000000
:BAN00019:  19    1.493576    1.532296  0.00000000
:BAN00020:  20    1.499416    1.539474  0.00000000
        Energy to separate low and high energystates:    1.00623


:NOE  : NUMBER OF ELECTRONS          =   26.000

:FER  : F E R M I - ENERGY(TETRAH.M.)=   1.4266919516
:GMA  : POTENTIAL AND CHARGE CUT-OFF  12.00 Ry**.5

:POS001: ATOM   -1 X,Y,Z = 0.00000 0.89750 0.25000  MULT= 2  ZZ= 59.000  Pr1       

       LMMAX 16
       LM=   0 0  1 0  2 0  2 2  3 0  3 2  4 0  4 2  4 4  5 0  5 2  5 4  6 0  6 2  6 4  6 6

:CHA001: TOTAL VALENCE CHARGE INSIDE SPHERE   1 =   9.6566    (RMT=  2.3000 )
:PCS001: PARTIAL CHARGES SPHERE =  1 S,P,D,F,PX,PY,PZ,D-Z2,D-X2Y2,D-XY,D-XZ,D-YZ 
:QTL001: 1.9351 4.9484 1.2070 1.5585 1.6509 1.6436 1.6539 0.2396 0.2323 0.2364 0.2514 0.2473
        Q-s-low E-s-low   Q-p-low E-p-low   Q-d-low E-d-low   Q-f-low E-f-low
:EPL001:  1.8658 -1.1645    4.8062  0.1095    0.0491  0.0507    0.0163  0.0551
        Q-s-hi  E-s-hi    Q-p-hi  E-p-hi    Q-d-hi  E-d-hi    Q-f-hi  E-f-hi 
:EPH001:  0.0693  1.2944    0.1422  1.3058    1.1579  1.2710    1.5422  1.3616

                      VXX         VYY         VZZ       UP TO R
:VZZ001:            -3.52537     9.96967    -6.44431       2.300

:CHA  : TOTAL VALENCE CHARGE INSIDE UNIT CELL =      26.000000

:SUM  : SUM OF EIGENVALUES =           9.498927484


        1.ATOM      Pr1                  14 CORE STATES
       CORE-FORCE in mRy/a.u. = |F|      Fx             Fy             Fz
:FCO001:   1.ATOM    826.180097641669      0.000000000000      0.000000000000    826.180097641669

:1S 001: 1S               -3066.046542680 Ry
:2S 001: 2S                -491.811324996 Ry
:2PP001: 2P*               -464.909015684 Ry
:2P 001: 2P                -429.512181015 Ry
:3S 001: 3S                -104.909038224 Ry
:3PP001: 3P*                -93.446464765 Ry
:3P 001: 3P                 -86.439035921 Ry
:3DD001: 3D*                -66.365364885 Ry
:3D 001: 3D                 -64.853934713 Ry
:4S 001: 4S                 -19.593249919 Ry
:4PP001: 4P*                -15.300567213 Ry
:4P 001: 4P                 -13.773904267 Ry
:4DD001: 4D*                 -6.709315452 Ry
:4D 001: 4D                  -6.440306761 Ry
:CINT001 Core Integral Atom   1   45.998361

       DENSITY AT NUCLEUS
        JATOM        VALENCE       SEMI-CORE          CORE           TOTAL
:RTO001:   1      635.268781        0.000000   656820.712274   657455.981055
     
       CHARGES OF NEW CHARGE DENSITY
:NTO   : INTERSTITIAL CHARGE =     6.686790
:NPC   : PW Pseudocharge     =    18.376374
:NTO001: CHARGE SPHERE  1    =    55.654961

:NEC01: NUCLEAR AND ELECTRONIC CHARGE    118.00000   117.99671
     
       CHARGES OF OLD CHARGE DENSITY
:OTO   : INTERSTITIAL CHARGE =     5.829268
:OPC   : PW Pseudocharge     =    17.823190
:OTO001: CHARGE SPHERE  1    =    56.085368

:NEC02: NUCLEAR AND ELECTRONIC CHARGE    118.00000   118.00000
     
       CONVERGENCE TEST
:DTO001: DIFFERENCE IN SPHERE  1 =  0.8728607

:DIS  :  CHARGE DISTANCE       ( 0.8728607 for atom    1 spin 1)      0.8728607
 PW Mixed is          264
 
******************************************************
* MULTISECANT MIXING VER9 RELEASE 10.4.0              *
* Slow Mode, cautious                                *
* Fixed density scale                                *
* Regularization       1.000E-04                     *
* Step Trust Radius    0.75000                       *
* Trust Upper Limit    2.000E+00                     *
* Max Number of Memory Steps   12                    *
******************************************************
 
:PWTMP   1.4101E+02  1.9467E+02  2.4294E+02
:PLANE:  PW TOTAL      5.7122 DISTAN   2.80E-01  4.91E+00 %
:CHARG:  CLM/ATOM   1382.0465 DISTAN   1.28E+00  9.25E-02 %
 
Step History
        DMIX         DMIXT        Red     Pred      Trust     Lambda    MagRel    MagAbs     Beta
  1   3.5000E-02   3.5000E-02 -1.00E+00  1.00E+00 -1.00E+01  1.00E+00  3.50E-02  3.50E-02  1.00E+00
  2   2.5000E-02   2.5000E-02 -1.00E+00  1.00E+00 -1.00E+01  1.00E+00  2.50E-02  3.78E-02  1.00E+00
:JACOBIANS    7.076E-02   7.171E-02
  
:TRUST:  Step 5.39E-02  Charge 7.50E-02 (e) CTO  2.50E-01 (e) PW  3.50E-01 (e)
:DIRM :  MEMORY  1/12 SCALE   1.000
:MIX  :   PRATT  REGULARIZATION:  1.00E-04 GREED: 0.05389  Expand 2.16  0.0539 PW             
     
       CHARGES OF MIXED CHARGE DENSITY
:CTO   : INTERSTITIAL CHARGE =     5.888289
:CPC   : PW Pseudocharge     =    18.347287
:CTO001: CHARGE SPHERE  1    =    56.055856

:NEC03: NUCLEAR AND ELECTRONIC CHARGE    118.00000   118.00000

PW CHANGE     H    K    L      Current       Change    Residue
:PTO001:      0    0    0  9.97595178E-02  2.400E-03  5.858E-03
:PTO003:      0    2    0  2.06788652E-02  7.678E-04  1.701E-03
:PTO004:     -1    1    0  9.54664294E-02  3.387E-03  2.087E-03
:PTO005:      0    2   -1 -1.09669567E-01 -3.762E-03  6.108E-04
:PTO006:      0    0   -2 -5.68007819E-02 -1.932E-03  6.463E-04
:PTO007:     -1    1   -1 -1.11311184E-01 -3.822E-03  3.280E-03
:PTO008:      0    2   -2 -1.48851742E-02 -5.022E-04  1.378E-03
:PTO009:     -1    1   -2 -6.87526100E-02 -2.496E-03  3.905E-03
:PTO011:     -1    3    0 -8.74326032E-03 -3.346E-04  2.099E-04
:PTO012:     -1    3   -1 -3.38932996E-02 -1.308E-03 -1.385E-04
:PTO013:      0    4    0 -5.13074417E-03 -1.874E-04 -1.371E-04
:PTO014:      0    2   -3  1.15194285E-02  4.645E-04  1.128E-03

:ENE  : ********** TOTAL ENERGY IN Ry =       -36944.40263375

       TOTAL FORCE IN mRy/a.u. = |F|     Fx             Fy             Fz     with/without FOR in case.in2
:FOR001:   1.ATOM        185.019          0.000          0.000       -185.019 partial forces
       TOTAL FORCE WITH RESPECT TO GLOBAL CARTESIAN COORDINATES:
:FCA001:   1.ATOM                         0.000       -185.019          0.000 partial forces
       TOTAL FORCE WITH RESPECT TO THE GLOBAL COORDINATE SYSTEM:
:FGL001:   1.ATOM                 0.000000000  -185.019205095     0.000000000 partial forces
 Flat Integration
 New Mode for Coulomb Integral
 Consistent 3/8+Simpson combinations
 Extension of core to zero
 LDM version in phi
 Fifth-order quadrature in outwin


            ---------
:ITE004:  4. ITERATION
            ---------

:NATO :    1 INDEPENDENT AND    2 TOTAL ATOMS IN UNITCELL
       SUBSTANCE: aU                                                          

       LATTICE                      = CXY 
:POT  : POTENTIAL OPTION EX_LDA EC_LDA VX_LDA VC_LDA
:LAT  : LATTICE CONSTANTS=  5.15104 10.45276  9.02408    1.571    1.571    1.571
:VOL  : UNIT CELL VOLUME =     242.93998
       MODE OF CALCULATION IS       = RELA
       NON-SPINPOLARIZED CALCULATION
:IFFT  : FFT-parameters:   40   80   72 Factor: 2.00


   CONVERGENCE PARAMETER FOR PSEUDOCHARGE: NCON=  9
   MAXIMAL VALUE OF RMT(JATOM)*ABSK(NKK) : RK  =27.58363


:VKCOUL :  VK-COUL convergence: 0.152E-06
       ATOMNUMBER=  1 Pr1        VCOUL-ZERO =  0.80859E+00
:EFG001:                        EFG         =     1.10630   *10**21  V / m**2
                               V20  TOT/SRF=    -0.75636    -0.09859
                               V22  TOT/SRF=    -0.66962     0.01096
                               V22M TOT/SRF=     0.00000     0.00000
                               V21  TOT/SRF=     0.00000     0.00000
                               V21M TOT/SRF=     0.00000     0.00000

             -0.23293    0.00000    0.00000       -0.23293    0.00000    0.00000
              0.00000    1.10630    0.00000        0.00000    1.10630    0.00000
              0.00000    0.00000   -0.87337        0.00000    0.00000   -0.87337

         MAIN DIRECTIONS OF THE EFG   1.0000  0.0000  0.0000
                                      0.0000  1.0000  0.0000
                                      0.0000  0.0000  1.0000
:ANG001:  ANGLE WITH OLD X-AXIS =         0.0

:ETA001:                         ASYMM. ETA =     0.57890


     HELLMANN-FEYNMAN-FORCE IN mRy/a.u. = |F|  Fx       Fy             Fz
:FHF001:   1.ATOM    981.764358191777      0.000000000000      0.000000000000   -981.764358191777

:FIT001: LUSE= 13 SIGMA OF V-XC FIT FOR ATOM  1  0.1013496E-03
:FIT001: LUSE= 13 SIGMA OF V-XC FIT FOR ATOM  1  0.1013496E-03
:DEN  : DENSITY INTEGRAL  =        -14246.52223887   (Ry)
       ELS_POTENTIAL_AT Z=0 and Z=0.5:   1.10416   1.10416
       ELS_POTENTIAL_AT Y=0 and Y=0.5:  -0.05550  -0.05550
:VZERO:v0,v0c,v0x   0.30766   1.10416  -0.79650 v5,v5c,v5x   0.30766   1.10416  -0.79650
:VZERY:v0,v0c,v0x  -1.07916  -0.05550  -1.02367 v5,v5c,v5x  -1.07916  -0.05550  -1.02367
:VZERX:v0,v0c,v0x  -1.35718  -0.40276  -0.95442 v5,v5c,v5x  -1.35718  -0.40276  -0.95442
:LMAX-WF:   10   Non-Spherical LMAX:   4

          ATOMIC SPHERE DEPENDENT PARAMETERS FOR ATOM  Pr1       
:e__0001: OVERALL ENERGY PARAMETER IS    0.9000
          OVERALL BASIS SET ON ATOM IS LAPW
:E0_0001: E( 0)=    0.9000
             APW+lo
:E0_0001: E( 0)=   -1.2179   E(BOTTOM)=   -1.871   E(TOP)=   -0.564  4  5   259
             LOCAL ORBITAL
:E1_0001: E( 1)=    1.3000
             APW+lo
:E1_0001: E( 1)=    0.2422   E(BOTTOM)=   -0.738   E(TOP)=    1.223  3  4   264
             LOCAL ORBITAL
:E3_0001: E( 3)=    1.4530   E(BOTTOM)=    1.234   E(TOP)=    1.672  0  1   153
             APW+lo
:E2_0001: E( 2)=    0.9862   E(BOTTOM)=    0.986   E(TOP)= -200.000  2 -1   113
             APW+lo

       K=   0.06250   0.00000   0.06250            1
:RKM  : MATRIX SIZE   251LOs:  40  RKM= 8.49  WEIGHT= 4.00  PGR:    
       EIGENVALUES ARE:
:EIG00001:      -1.3172927   -1.1873688   -0.1844658    0.1836726    0.2705772
:EIG00006:       0.2982139    0.3278549    0.3374970    1.1997515    1.2984869
:EIG00011:       1.3454368    1.3724008    1.3737074    1.3829082    1.4153273
:EIG00016:       1.4547599    1.4696586    1.4756594    1.4837281    1.4883935
:EIG00021:       1.4907637    1.5042503    1.5123522    1.5467949    1.5541140
:EIG00026:       1.5836311    1.6408642    1.6564895    1.7377298    1.7885056
:EIG00031:       1.8714424    2.0641156    2.1536949    2.1869038    2.4721141
:EIG00036:       2.5165109    2.5596059
       ********************************************************

:KPT   :      NUMBER OF K-POINTS:   288
:GAP (global)   :    0.0    Ry =     0.0   eV (metal)
         Bandranges (emin - emax) and occupancy:
:BAN00005:   5   -0.051213    0.270577  2.00000000
:BAN00006:   6   -0.009552    0.319467  2.00000000
:BAN00007:   7    0.068593    0.334557  2.00000000
:BAN00008:   8    0.210308    0.358477  2.00000000
:BAN00009:   9    1.067065    1.300818  2.00000000
:BAN00010:  10    1.132701    1.336644  2.00000000
:BAN00011:  11    1.202388    1.407718  2.00000000
:BAN00012:  12    1.271563    1.414315  1.97079567
:BAN00013:  13    1.345070    1.451537  1.27701467
:BAN00014:  14    1.369372    1.473851  0.71594956
:BAN00015:  15    1.395112    1.475375  0.03624010
:BAN00016:  16    1.417841    1.482356  0.00000000
:BAN00017:  17    1.453575    1.493472  0.00000000
:BAN00018:  18    1.463755    1.495385  0.00000000
:BAN00019:  19    1.476454    1.505108  0.00000000
:BAN00020:  20    1.480908    1.516072  0.00000000
        Energy to separate low and high energystates:    1.01706


:NOE  : NUMBER OF ELECTRONS          =   26.000

:FER  : F E R M I - ENERGY(TETRAH.M.)=   1.4098237541
:GMA  : POTENTIAL AND CHARGE CUT-OFF  12.00 Ry**.5

:POS001: ATOM   -1 X,Y,Z = 0.00000 0.89750 0.25000  MULT= 2  ZZ= 59.000  Pr1       

       LMMAX 16
       LM=   0 0  1 0  2 0  2 2  3 0  3 2  4 0  4 2  4 4  5 0  5 2  5 4  6 0  6 2  6 4  6 6

:CHA001: TOTAL VALENCE CHARGE INSIDE SPHERE   1 =   9.7958    (RMT=  2.3000 )
:PCS001: PARTIAL CHARGES SPHERE =  1 S,P,D,F,PX,PY,PZ,D-Z2,D-X2Y2,D-XY,D-XZ,D-YZ 
:QTL001: 1.9303 4.9498 1.1300 1.7785 1.6519 1.6444 1.6535 0.2230 0.2129 0.2240 0.2363 0.2339
        Q-s-low E-s-low   Q-p-low E-p-low   Q-d-low E-d-low   Q-f-low E-f-low
:EPL001:  1.8679 -1.1722    4.8249  0.1084    0.0478  0.0495    0.0160  0.0539
        Q-s-hi  E-s-hi    Q-p-hi  E-p-hi    Q-d-hi  E-d-hi    Q-f-hi  E-f-hi 
:EPH001:  0.0624  1.2899    0.1249  1.3008    1.0823  1.2680    1.7625  1.3520

                      VXX         VYY         VZZ       UP TO R
:VZZ001:            -4.81893     9.35248    -4.53355       2.300

:CHA  : TOTAL VALENCE CHARGE INSIDE UNIT CELL =      26.000000

:SUM  : SUM OF EIGENVALUES =           9.444274420


        1.ATOM      Pr1                  14 CORE STATES
       CORE-FORCE in mRy/a.u. = |F|      Fx             Fy             Fz
:FCO001:   1.ATOM    819.822885702660      0.000000000000      0.000000000000    819.822885702660

:1S 001: 1S               -3066.115659680 Ry
:2S 001: 2S                -491.878923316 Ry
:2PP001: 2P*               -464.976816383 Ry
:2P 001: 2P                -429.579893775 Ry
:3S 001: 3S                -104.973778943 Ry
:3PP001: 3P*                -93.511435050 Ry
:3P 001: 3P                 -86.503640632 Ry
:3DD001: 3D*                -66.430623512 Ry
:3D 001: 3D                 -64.919098486 Ry
:4S 001: 4S                 -19.641071634 Ry
:4PP001: 4P*                -15.347358928 Ry
:4P 001: 4P                 -13.819093387 Ry
:4DD001: 4D*                 -6.751613367 Ry
:4D 001: 4D                  -6.482051480 Ry
:CINT001 Core Integral Atom   1   45.998406

       DENSITY AT NUCLEUS
        JATOM        VALENCE       SEMI-CORE          CORE           TOTAL
:RTO001:   1      635.282921        0.000000   656824.474434   657459.757356
     
       CHARGES OF NEW CHARGE DENSITY
:NTO   : INTERSTITIAL CHARGE =     6.408333
:NPC   : PW Pseudocharge     =    18.208019
:NTO001: CHARGE SPHERE  1    =    55.794234

:NEC01: NUCLEAR AND ELECTRONIC CHARGE    118.00000   117.99680
     
       CHARGES OF OLD CHARGE DENSITY
:OTO   : INTERSTITIAL CHARGE =     5.888289
:OPC   : PW Pseudocharge     =    18.347287
:OTO001: CHARGE SPHERE  1    =    56.055856

:NEC02: NUCLEAR AND ELECTRONIC CHARGE    118.00000   118.00000
     
       CONVERGENCE TEST
:DTO001: DIFFERENCE IN SPHERE  1 =  0.5319290

:DIS  :  CHARGE DISTANCE       ( 0.5319290 for atom    1 spin 1)      0.5319290
 PW Mixed is          264
 
******************************************************
* MULTISECANT MIXING VER9 RELEASE 10.4.0              *
* Standard Mode with controls                        *
* Fixed density scale                                *
* Regularization       1.000E-04                     *
* Trust Upper Limit    5.000E+00                     *
* Max Number of Memory Steps    8                    *
******************************************************
 
:PWTMP   1.4101E+02  1.9467E+02  2.4294E+02
:PLANE:  PW TOTAL      5.8866 DISTAN   2.14E-01  3.64E+00 %
:CHARG:  CLM/ATOM   1382.0313 DISTAN   8.32E-01  6.02E-02 %
 
Step History
        DMIX         DMIXT        Red     Pred      Trust     Lambda    MagRel    MagAbs     Beta
  1   3.5000E-02   3.5000E-02 -1.00E+00  1.00E+00 -1.00E+01  1.00E+00  3.50E-02  3.50E-02  1.00E+00
  2   2.5000E-02   2.5000E-02  8.66E-01  1.00E+00 -1.00E+01  1.00E+00  2.50E-02  3.78E-02  1.00E+00
  3   5.3887E-02   5.3887E-02 -1.00E+00  1.00E+00 -1.00E+01  1.00E+00  5.39E-02  7.05E-02  1.00E+00
:JACOBIANS    1.083E-01   1.044E-01
  
:NORMS:  1/Froebius, Min, Max, Used   0.3682E+00  0.2115E+00  0.4230E+00  0.3683E+00
:INFO :  Number of Memory Steps    2 Skipping    0
:INFO :  SLambda=    2.7303430232  Max    2.7303430232
:PREDicted Charge, CTotal, PW Trust    5.870E-02   1.174E-01   6.733E-01
:PREDicted DMix, Beta, BLim   1.4718E-01  1.5875E+00  1.1756E+00

Eigenvalues, unscaled except for SY+YY
   #     SY Real        SY Imag          SS             YY         SY+YY Real      SY+YY Imag
   1   5.352483E-01   0.000000E+00   2.712140E-01   1.999940E+00   3.461337E+00   0.000000E+00
   2  -3.053113E-15   0.000000E+00   0.000000E+00   5.961721E-05   7.423364E-05   0.000000E+00
 
:INFO :  Singular value  3.461E+00 Weight  1.000E+00 Projection -3.539E-01
:INFO :  Singular value  7.423E-05 Weight  1.211E-01 Projection -2.109E+00
:RANK :  ACTIVE   1.12/2  =  56.05 % ; YY RANK   1.08/2  =  54.08 %
 
Increasing PW by   1.561
:BLIM :  VZERO Control Off
:TRUST:  Step 3.69E-01  Charge 7.50E-02 (e) CTO  2.50E-01 (e) PW  6.01E-01 (e)
:DIRM :  MEMORY  2/8  SCALE   1.000 RED  0.66 PRED  1.00 NEXT  0.72 
:TRAVE:  Charge 3.64E-02 (e) CTO  7.28E-02 (e) PW  2.70E-01 (e)
:DIRP :  |MSR1|= 1.351E-01 |PRATT|= 2.142E-01 ANGLE= 109.7 DEGREES
:DIRQ :  |MSR1|= 1.167E-01 |PRATT|= 8.318E-01 ANGLE=   2.2 DEGREES
:DIRT :  |MSR1|= 1.785E-01 |PRATT|= 8.590E-01 ANGLE=  55.3 DEGREES
:MIX  :   MSE1   REGULARIZATION:  2.00E-04 GREED: 0.09456  Newton 1.00  0.2079                
     
       CHARGES OF MIXED CHARGE DENSITY
:CTO   : INTERSTITIAL CHARGE =     5.961100
:CPC   : PW Pseudocharge     =    18.739620
:CTO001: CHARGE SPHERE  1    =    56.019450

:NEC03: NUCLEAR AND ELECTRONIC CHARGE    118.00000   118.00000

PW CHANGE     H    K    L      Current       Change    Residue
:PTO001:      0    0    0  1.01674168E-01  1.915E-03  1.618E-03
:PTO003:      0    2    0  2.14017184E-02  7.229E-04  1.041E-03
:PTO004:     -1    1    0  9.80881931E-02  2.622E-03 -1.065E-03
:PTO005:      0    2   -1 -1.12304426E-01 -2.635E-03  4.177E-03
:PTO006:      0    0   -2 -5.81259796E-02 -1.325E-03  2.461E-03
:PTO007:     -1    1   -1 -1.13763728E-01 -2.453E-03  6.707E-03
:PTO008:      0    2   -2 -1.51047781E-02 -2.196E-04  1.901E-03
:PTO009:     -1    1   -2 -7.01977614E-02 -1.445E-03  6.087E-03
:PTO011:     -1    3    0 -8.96973776E-03 -2.265E-04  4.870E-04
:PTO012:     -1    3   -1 -3.48568819E-02 -9.636E-04  9.821E-04
:PTO013:      0    4    0 -5.27622308E-03 -1.455E-04  5.349E-05
:PTO014:      0    2   -3  1.19506769E-02  4.312E-04  6.370E-04

:ENE  : ********** TOTAL ENERGY IN Ry =       -36944.35085716

       TOTAL FORCE IN mRy/a.u. = |F|     Fx             Fy             Fz     with/without FOR in case.in2
:FOR001:   1.ATOM        161.941          0.000          0.000       -161.941 partial forces
       TOTAL FORCE WITH RESPECT TO GLOBAL CARTESIAN COORDINATES:
:FCA001:   1.ATOM                         0.000       -161.941          0.000 partial forces
       TOTAL FORCE WITH RESPECT TO THE GLOBAL COORDINATE SYSTEM:
:FGL001:   1.ATOM                 0.000000000  -161.941472489     0.000000000 partial forces
 Flat Integration
 New Mode for Coulomb Integral
 Consistent 3/8+Simpson combinations
 Extension of core to zero
 LDM version in phi
 Fifth-order quadrature in outwin


            ---------
:ITE005:  5. ITERATION
            ---------

:NATO :    1 INDEPENDENT AND    2 TOTAL ATOMS IN UNITCELL
       SUBSTANCE: aU                                                          

       LATTICE                      = CXY 
:POT  : POTENTIAL OPTION EX_LDA EC_LDA VX_LDA VC_LDA
:LAT  : LATTICE CONSTANTS=  5.15104 10.45276  9.02408    1.571    1.571    1.571
:VOL  : UNIT CELL VOLUME =     242.93998
       MODE OF CALCULATION IS       = RELA
       NON-SPINPOLARIZED CALCULATION
:IFFT  : FFT-parameters:   40   80   72 Factor: 2.00


   CONVERGENCE PARAMETER FOR PSEUDOCHARGE: NCON=  9
   MAXIMAL VALUE OF RMT(JATOM)*ABSK(NKK) : RK  =27.58363


:VKCOUL :  VK-COUL convergence: 0.153E-06
       ATOMNUMBER=  1 Pr1        VCOUL-ZERO =  0.82290E+00
:EFG001:                        EFG         =     2.26470   *10**21  V / m**2
                               V20  TOT/SRF=    -1.18985    -0.09478
                               V22  TOT/SRF=    -1.57774     0.00458
                               V22M TOT/SRF=     0.00000     0.00000
                               V21  TOT/SRF=     0.00000     0.00000
                               V21M TOT/SRF=     0.00000     0.00000

             -0.89078    0.00000    0.00000       -0.89078    0.00000    0.00000
              0.00000    2.26470    0.00000        0.00000    2.26470    0.00000
              0.00000    0.00000   -1.37392        0.00000    0.00000   -1.37392

         MAIN DIRECTIONS OF THE EFG   1.0000  0.0000  0.0000
                                      0.0000  1.0000  0.0000
                                      0.0000  0.0000  1.0000
:ANG001:  ANGLE WITH OLD X-AXIS =         0.0

:ETA001:                         ASYMM. ETA =     0.21333


     HELLMANN-FEYNMAN-FORCE IN mRy/a.u. = |F|  Fx       Fy             Fz
:FHF001:   1.ATOM    911.486327999680      0.000000000000      0.000000000000   -911.486327999680

:FIT001: LUSE= 13 SIGMA OF V-XC FIT FOR ATOM  1  0.1139688E-03
:FIT001: LUSE= 13 SIGMA OF V-XC FIT FOR ATOM  1  0.1139688E-03
:DEN  : DENSITY INTEGRAL  =        -14239.49986163   (Ry)
       ELS_POTENTIAL_AT Z=0 and Z=0.5:   1.12244   1.12244
       ELS_POTENTIAL_AT Y=0 and Y=0.5:  -0.04987  -0.04987
:VZERO:v0,v0c,v0x   0.32290   1.12244  -0.79955 v5,v5c,v5x   0.32290   1.12244  -0.79955
:VZERY:v0,v0c,v0x  -1.07982  -0.04987  -1.02995 v5,v5c,v5x  -1.07982  -0.04987  -1.02995
:VZERX:v0,v0c,v0x  -1.36954  -0.41006  -0.95947 v5,v5c,v5x  -1.36954  -0.41006  -0.95947
:LMAX-WF:   10   Non-Spherical LMAX:   4

          ATOMIC SPHERE DEPENDENT PARAMETERS FOR ATOM  Pr1       
:e__0001: OVERALL ENERGY PARAMETER IS    1.1000
          OVERALL BASIS SET ON ATOM IS LAPW
:E0_0001: E( 0)=    1.1000
             APW+lo
:E0_0001: E( 0)=   -1.2350   E(BOTTOM)=   -1.882   E(TOP)=   -0.588  4  5   255
             LOCAL ORBITAL
:E1_0001: E( 1)=    1.5000
             APW+lo
:E1_0001: E( 1)=    0.2288   E(BOTTOM)=   -0.744   E(TOP)=    1.202  3  4   261
             LOCAL ORBITAL
:E3_0001: E( 3)=    1.4125   E(BOTTOM)=    1.201   E(TOP)=    1.624  0  1   129
             APW+lo
:E2_0001: E( 2)=    1.1000   E(BOTTOM)=    0.984   E(TOP)= -200.000  2 -1   118
             APW+lo

       K=   0.06250   0.00000   0.06250            1
:RKM  : MATRIX SIZE   251LOs:  40  RKM= 8.49  WEIGHT= 4.00  PGR:    
       EIGENVALUES ARE:
:EIG00001:      -1.3295636   -1.2027565   -0.1858812    0.1731056    0.2585750
:EIG00006:       0.2873526    0.3175770    0.3255565    1.2042166    1.3005733
:EIG00011:       1.3308637    1.3452534    1.3454569    1.3585581    1.3886056
:EIG00016:       1.4192732    1.4335032    1.4387769    1.4469070    1.4536805
:EIG00021:       1.4631062    1.4707748    1.4738830    1.5037365    1.5188380
:EIG00026:       1.5616025    1.6373597    1.6459193    1.7333914    1.7841309
:EIG00031:       1.8675463    2.0595606    2.1527655    2.1812586    2.4699019
:EIG00036:       2.5147793    2.5593959
       ********************************************************

:KPT   :      NUMBER OF K-POINTS:   288
:GAP (global)   :    0.0    Ry =     0.0   eV (metal)
         Bandranges (emin - emax) and occupancy:
:BAN00005:   5   -0.054823    0.258575  2.00000000
:BAN00006:   6   -0.015462    0.308195  2.00000000
:BAN00007:   7    0.060988    0.322853  2.00000000
:BAN00008:   8    0.202969    0.346087  2.00000000
:BAN00009:   9    1.074461    1.292090  2.00000000
:BAN00010:  10    1.138722    1.325075  2.00000000
:BAN00011:  11    1.206017    1.379987  2.00000000
:BAN00012:  12    1.267740    1.387028  1.96943149
:BAN00013:  13    1.329767    1.419988  1.23973389
:BAN00014:  14    1.346640    1.437012  0.74293897
:BAN00015:  15    1.367147    1.439995  0.04789565
:BAN00016:  16    1.387571    1.443792  0.00000000
:BAN00017:  17    1.418613    1.454683  0.00000000
:BAN00018:  18    1.430446    1.459260  0.00000000
:BAN00019:  19    1.442229    1.470728  0.00000000
:BAN00020:  20    1.447893    1.476203  0.00000000
        Energy to separate low and high energystates:    1.02446


:NOE  : NUMBER OF ELECTRONS          =   26.000

:FER  : F E R M I - ENERGY(TETRAH.M.)=   1.3813676148
:GMA  : POTENTIAL AND CHARGE CUT-OFF  12.00 Ry**.5

:POS001: ATOM   -1 X,Y,Z = 0.00000 0.89750 0.25000  MULT= 2  ZZ= 59.000  Pr1       

       LMMAX 16
       LM=   0 0  1 0  2 0  2 2  3 0  3 2  4 0  4 2  4 4  5 0  5 2  5 4  6 0  6 2  6 4  6 6

:CHA001: TOTAL VALENCE CHARGE INSIDE SPHERE   1 =   9.9808    (RMT=  2.3000 )
:PCS001: PARTIAL CHARGES SPHERE =  1 S,P,D,F,PX,PY,PZ,D-Z2,D-X2Y2,D-XY,D-XZ,D-YZ 
:QTL001: 1.9244 4.9516 1.0267 2.0715 1.6530 1.6456 1.6531 0.2017 0.1877 0.2076 0.2140 0.2157
        Q-s-low E-s-low   Q-p-low E-p-low   Q-d-low E-d-low   Q-f-low E-f-low
:EPL001:  1.8706 -1.1882    4.8479  0.1007    0.0461  0.0426    0.0157  0.0469
        Q-s-hi  E-s-hi    Q-p-hi  E-p-hi    Q-d-hi  E-d-hi    Q-f-hi  E-f-hi 
:EPH001:  0.0538  1.2781    0.1038  1.2872    0.9806  1.2575    2.0558  1.3312

                      VXX         VYY         VZZ       UP TO R
:VZZ001:            -5.34745     8.67665    -3.32919       2.300

:CHA  : TOTAL VALENCE CHARGE INSIDE UNIT CELL =      26.000000

:SUM  : SUM OF EIGENVALUES =           9.191916031


        1.ATOM      Pr1                  14 CORE STATES
       CORE-FORCE in mRy/a.u. = |F|      Fx             Fy             Fz
:FCO001:   1.ATOM    806.040331256299      0.000000000000      0.000000000000    806.040331256299

:1S 001: 1S               -3066.201205943 Ry
:2S 001: 2S                -491.962237743 Ry
:2PP001: 2P*               -465.060319733 Ry
:2P 001: 2P                -429.663301055 Ry
:3S 001: 3S                -105.055222195 Ry
:3PP001: 3P*                -93.593069468 Ry
:3P 001: 3P                 -86.584933388 Ry
:3DD001: 3D*                -66.512390926 Ry
:3D 001: 3D                 -65.000786408 Ry
:4S 001: 4S                 -19.704611119 Ry
:4PP001: 4P*                -15.409735203 Ry
:4P 001: 4P                 -13.879688445 Ry
:4DD001: 4D*                 -6.808881950 Ry
:4D 001: 4D                  -6.538694894 Ry
:CINT001 Core Integral Atom   1   45.998459

       DENSITY AT NUCLEUS
        JATOM        VALENCE       SEMI-CORE          CORE           TOTAL
:RTO001:   1      635.345600        0.000000   656828.559692   657463.905292
     
       CHARGES OF NEW CHARGE DENSITY
:NTO   : INTERSTITIAL CHARGE =     6.038364
:NPC   : PW Pseudocharge     =    17.982463
:NTO001: CHARGE SPHERE  1    =    55.979271

:NEC01: NUCLEAR AND ELECTRONIC CHARGE    118.00000   117.99691
     
       CHARGES OF OLD CHARGE DENSITY
:OTO   : INTERSTITIAL CHARGE =     5.961100
:OPC   : PW Pseudocharge     =    18.739620
:OTO001: CHARGE SPHERE  1    =    56.019450

:NEC02: NUCLEAR AND ELECTRONIC CHARGE    118.00000   118.00000
     
       CONVERGENCE TEST
:DTO001: DIFFERENCE IN SPHERE  1 =  0.1691312

:DIS  :  CHARGE DISTANCE       ( 0.1691312 for atom    1 spin 1)      0.1691312
 PW Mixed is          264
 
******************************************************
* MULTISECANT MIXING VER9 RELEASE 10.4.0              *
* Standard Mode with controls                        *
* Fixed density scale                                *
* Regularization       1.000E-04                     *
* Trust Upper Limit    5.000E+00                     *
* Max Number of Memory Steps    8                    *
******************************************************
 
:PWTMP   1.4101E+02  1.9467E+02  2.4294E+02
:PLANE:  PW TOTAL      6.0167 DISTAN   2.97E-01  4.93E+00 %
:CHARG:  CLM/ATOM   1382.0093 DISTAN   4.10E-01  2.97E-02 %
 
Step History
        DMIX         DMIXT        Red     Pred      Trust     Lambda    MagRel    MagAbs     Beta
  1   3.5000E-02   3.5000E-02 -1.00E+00  1.00E+00 -1.00E+01  1.00E+00  3.50E-02  3.50E-02  1.00E+00
  2   2.5000E-02   2.5000E-02  8.66E-01  1.00E+00 -1.00E+01  1.00E+00  2.50E-02  3.78E-02  1.00E+00
  3   5.3887E-02   5.3887E-02  6.56E-01  1.00E+00 -1.00E+01  2.73E+00  5.39E-02  7.05E-02  1.00E+00
  4   9.4563E-02   9.4563E-02 -1.00E+00  7.18E-01  3.69E-01  1.00E+00  2.08E-01  1.79E-01  1.00E+00
:JACOBIANS    3.839E-01   1.817E-01
  
:NORMS:  1/Froebius, Min, Max, Used   0.2935E+00  0.2927E+00  0.7696E+00  0.3036E+00
:INFO :  Number of Memory Steps    3 Skipping    0
:INFO :  SLambda=    0.9780504238  Max    0.9780504238
:PREDicted Charge, CTotal, PW Trust    3.358E-02   6.716E-02   3.282E-01
:PREDicted DMix, Beta, BLim   2.2351E-01  1.7377E-01  8.9747E-01

Eigenvalues, unscaled except for SY+YY
   #     SY Real        SY Imag          SS             YY         SY+YY Real      SY+YY Imag
   1   6.367128E-01   0.000000E+00   2.566073E-01   2.994474E+00   3.616561E+00   0.000000E+00
   2  -7.662501E-16   0.000000E+00   1.806365E-03   5.513300E-03   1.338936E-05   0.000000E+00
   3   3.101457E-03   0.000000E+00  -2.232580E-17   1.238058E-05   9.196571E-03   0.000000E+00
 
:INFO :  Singular value  3.617E+00 Weight  1.000E+00 Projection  2.210E-02
:INFO :  Singular value  9.196E-03 Weight  9.989E-01 Projection -5.885E+00
:INFO :  Singular value  1.339E-05 Weight  1.995E-03 Projection  8.460E-02
:RANK :  ACTIVE   2.00/3  =  66.70 % ; YY RANK   2.00/3  =  66.63 %
 
:DLIM :  Beta Active  8.000E-01
:BLIM :  VZERO Control Off
:TRUST:  Step 6.33E-01  Charge 7.50E-02 (e) CTO  2.50E-01 (e) PW  6.01E-01 (e)
:DIRM :  MEMORY  3/8  SCALE   1.000 RED  0.59 PRED  0.72 NEXT  0.57 BETA  0.80
:TRAVE:  Charge 1.88E-02 (e) CTO  3.76E-02 (e) PW  3.46E-01 (e)
:DIRP :  |MSR1|= 2.620E-01 |PRATT|= 2.966E-01 ANGLE=  13.4 DEGREES
:DIRQ :  |MSR1|= 1.292E-01 |PRATT|= 4.102E-01 ANGLE=  21.5 DEGREES
:DIRT :  |MSR1|= 2.921E-01 |PRATT|= 5.062E-01 ANGLE=  32.4 DEGREES
:MIX  :   MSD1   REGULARIZATION:  2.99E-04 GREED: 0.14588  Newton 1.00  0.5770                
     
       CHARGES OF MIXED CHARGE DENSITY
:CTO   : INTERSTITIAL CHARGE =     5.958661
:CPC   : PW Pseudocharge     =    18.015913
:CTO001: CHARGE SPHERE  1    =    56.020670

:NEC03: NUCLEAR AND ELECTRONIC CHARGE    118.00000   118.00000

PW CHANGE     H    K    L      Current       Change    Residue
:PTO001:      0    0    0  9.86851718E-02 -2.989E-03 -2.748E-03
:PTO003:      0    2    0  2.07855566E-02 -6.162E-04  2.583E-04
:PTO004:     -1    1    0  9.37168006E-02 -4.371E-03 -3.591E-03
:PTO005:      0    2   -1 -1.06665414E-01  5.639E-03  6.448E-03
:PTO006:      0    0   -2 -5.51834812E-02  2.942E-03  3.497E-03
:PTO007:     -1    1   -1 -1.07224786E-01  6.539E-03  8.543E-03
:PTO008:      0    2   -2 -1.38398156E-02  1.265E-03  2.175E-03
:PTO009:     -1    1   -2 -6.54249181E-02  4.773E-03  6.962E-03
:PTO011:     -1    3    0 -8.44841522E-03  5.213E-04  6.194E-04
:PTO012:     -1    3   -1 -3.29967867E-02  1.860E-03  1.788E-03
:PTO013:      0    4    0 -5.05051050E-03  2.257E-04  1.910E-04
:PTO014:      0    2   -3  1.16314159E-02 -3.193E-04  1.783E-04

:ENE  : ********** TOTAL ENERGY IN Ry =       -36944.32089295

       TOTAL FORCE IN mRy/a.u. = |F|     Fx             Fy             Fz     with/without FOR in case.in2
:FOR001:   1.ATOM        105.446          0.000          0.000       -105.446 partial forces
       TOTAL FORCE WITH RESPECT TO GLOBAL CARTESIAN COORDINATES:
:FCA001:   1.ATOM                         0.000       -105.446          0.000 partial forces
       TOTAL FORCE WITH RESPECT TO THE GLOBAL COORDINATE SYSTEM:
:FGL001:   1.ATOM                 0.000000000  -105.445996743     0.000000000 partial forces
 Flat Integration
 New Mode for Coulomb Integral
 Consistent 3/8+Simpson combinations
 Extension of core to zero
 LDM version in phi
 Fifth-order quadrature in outwin


            ---------
:ITE006:  6. ITERATION
            ---------

:NATO :    1 INDEPENDENT AND    2 TOTAL ATOMS IN UNITCELL
       SUBSTANCE: aU                                                          

       LATTICE                      = CXY 
:POT  : POTENTIAL OPTION EX_LDA EC_LDA VX_LDA VC_LDA
:LAT  : LATTICE CONSTANTS=  5.15104 10.45276  9.02408    1.571    1.571    1.571
:VOL  : UNIT CELL VOLUME =     242.93998
       MODE OF CALCULATION IS       = RELA
       NON-SPINPOLARIZED CALCULATION
:IFFT  : FFT-parameters:   40   80   72 Factor: 2.00


   CONVERGENCE PARAMETER FOR PSEUDOCHARGE: NCON=  9
   MAXIMAL VALUE OF RMT(JATOM)*ABSK(NKK) : RK  =27.58363


:VKCOUL :  VK-COUL convergence: 0.169E-06
       ATOMNUMBER=  1 Pr1        VCOUL-ZERO =  0.80757E+00
:EFG001:                        EFG         =     4.14268   *10**21  V / m**2
                               V20  TOT/SRF=    -1.90060    -0.08695
                               V22  TOT/SRF=    -3.04536    -0.00306
                               V22M TOT/SRF=     0.00000     0.00000
                               V21  TOT/SRF=     0.00000     0.00000
                               V21M TOT/SRF=     0.00000     0.00000

             -1.94805    0.00000    0.00000       -1.94805    0.00000    0.00000
              0.00000    4.14268    0.00000        0.00000    4.14268    0.00000
              0.00000    0.00000   -2.19463        0.00000    0.00000   -2.19463

         MAIN DIRECTIONS OF THE EFG   1.0000  0.0000  0.0000
                                      0.0000  1.0000  0.0000
                                      0.0000  0.0000  1.0000
:ANG001:  ANGLE WITH OLD X-AXIS =         0.0

:ETA001:                         ASYMM. ETA =     0.05952


     HELLMANN-FEYNMAN-FORCE IN mRy/a.u. = |F|  Fx       Fy             Fz
:FHF001:   1.ATOM    921.087291163689      0.000000000000      0.000000000000   -921.087291163689

:FIT001: LUSE= 13 SIGMA OF V-XC FIT FOR ATOM  1  0.1382192E-03
:FIT001: LUSE= 13 SIGMA OF V-XC FIT FOR ATOM  1  0.1382192E-03
:DEN  : DENSITY INTEGRAL  =        -14239.16438268   (Ry)
       ELS_POTENTIAL_AT Z=0 and Z=0.5:   1.10598   1.10598
       ELS_POTENTIAL_AT Y=0 and Y=0.5:  -0.04601  -0.04601
:VZERO:v0,v0c,v0x   0.30710   1.10598  -0.79888 v5,v5c,v5x   0.30710   1.10598  -0.79888
:VZERY:v0,v0c,v0x  -1.06967  -0.04601  -1.02366 v5,v5c,v5x  -1.06967  -0.04601  -1.02366
:VZERX:v0,v0c,v0x  -1.35183  -0.39746  -0.95437 v5,v5c,v5x  -1.35183  -0.39746  -0.95437
:LMAX-WF:   10   Non-Spherical LMAX:   4

          ATOMIC SPHERE DEPENDENT PARAMETERS FOR ATOM  Pr1       
:e__0001: OVERALL ENERGY PARAMETER IS    1.1542
          OVERALL BASIS SET ON ATOM IS LAPW
:E0_0001: E( 0)=    1.1542
             APW+lo
:E0_0001: E( 0)=   -1.2522   E(BOTTOM)=   -1.900   E(TOP)=   -0.605  4  5   253
             LOCAL ORBITAL
:E1_0001: E( 1)=    1.5542
             APW+lo
:E1_0001: E( 1)=    0.2116   E(BOTTOM)=   -0.762   E(TOP)=    1.185  3  4   261
             LOCAL ORBITAL
:E3_0001: E( 3)=    1.3994   E(BOTTOM)=    1.187   E(TOP)=    1.612  0  1   124
             APW+lo
:E2_0001: E( 2)=    1.1542   E(BOTTOM)=    0.966   E(TOP)= -200.000  2 -1   120
             APW+lo

       K=   0.06250   0.00000   0.06250            1
:RKM  : MATRIX SIZE   251LOs:  40  RKM= 8.49  WEIGHT= 4.00  PGR:    
       EIGENVALUES ARE:
:EIG00001:      -1.3463646   -1.2202265   -0.2003216    0.1538827    0.2393608
:EIG00006:       0.2705247    0.3017298    0.3081831    1.1864975    1.2832794
:EIG00011:       1.3171922    1.3288230    1.3325937    1.3467161    1.3749078
:EIG00016:       1.4062469    1.4205256    1.4259099    1.4344983    1.4386328
:EIG00021:       1.4503050    1.4549291    1.4594286    1.4909114    1.5045817
:EIG00026:       1.5477834    1.6195444    1.6313845    1.7157554    1.7660947
:EIG00031:       1.8514680    2.0428793    2.1365284    2.1657298    2.4527250
:EIG00036:       2.4978747    2.5410099    2.8235267
       ********************************************************

:KPT   :      NUMBER OF K-POINTS:   288
:GAP (global)   :    0.0    Ry =     0.0   eV (metal)
         Bandranges (emin - emax) and occupancy:
:BAN00005:   5   -0.069273    0.239361  2.00000000
:BAN00006:   6   -0.033266    0.291411  2.00000000
:BAN00007:   7    0.042975    0.305834  2.00000000
:BAN00008:   8    0.185642    0.328733  2.00000000
:BAN00009:   9    1.058182    1.278254  2.00000000
:BAN00010:  10    1.121341    1.310963  2.00000000
:BAN00011:  11    1.188332    1.366847  2.00000000
:BAN00012:  12    1.252859    1.374289  1.95794534
:BAN00013:  13    1.312650    1.404838  1.23787171
:BAN00014:  14    1.333465    1.422322  0.74675895
:BAN00015:  15    1.352055    1.426277  0.05742399
:BAN00016:  16    1.372290    1.428693  0.00000000
:BAN00017:  17    1.406439    1.442022  0.00000000
:BAN00018:  18    1.416779    1.445882  0.00000000
:BAN00019:  19    1.428482    1.457867  0.00000000
:BAN00020:  20    1.434007    1.461436  0.00000000
        Energy to separate low and high energystates:    1.00818


:NOE  : NUMBER OF ELECTRONS          =   26.000

:FER  : F E R M I - ENERGY(TETRAH.M.)=   1.3672325321
:GMA  : POTENTIAL AND CHARGE CUT-OFF  12.00 Ry**.5

:POS001: ATOM   -1 X,Y,Z = 0.00000 0.89750 0.25000  MULT= 2  ZZ= 59.000  Pr1       

       LMMAX 16
       LM=   0 0  1 0  2 0  2 2  3 0  3 2  4 0  4 2  4 4  5 0  5 2  5 4  6 0  6 2  6 4  6 6

:CHA001: TOTAL VALENCE CHARGE INSIDE SPHERE   1 =   9.9598    (RMT=  2.3000 )
:PCS001: PARTIAL CHARGES SPHERE =  1 S,P,D,F,PX,PY,PZ,D-Z2,D-X2Y2,D-XY,D-XZ,D-YZ 
:QTL001: 1.9254 4.9541 1.0370 2.0366 1.6536 1.6461 1.6545 0.2048 0.1876 0.2101 0.2159 0.2186
        Q-s-low E-s-low   Q-p-low E-p-low   Q-d-low E-d-low   Q-f-low E-f-low
:EPL001:  1.8705 -1.2053    4.8478  0.0836    0.0459  0.0282    0.0156  0.0321
        Q-s-hi  E-s-hi    Q-p-hi  E-p-hi    Q-d-hi  E-d-hi    Q-f-hi  E-f-hi 
:EPH001:  0.0549  1.2626    0.1063  1.2721    0.9910  1.2421    2.0210  1.3169

                      VXX         VYY         VZZ       UP TO R
:VZZ001:            -3.58257     9.41847    -5.83590       2.300

:CHA  : TOTAL VALENCE CHARGE INSIDE UNIT CELL =      26.000000

:SUM  : SUM OF EIGENVALUES =           8.764556980


        1.ATOM      Pr1                  14 CORE STATES
       CORE-FORCE in mRy/a.u. = |F|      Fx             Fy             Fz
:FCO001:   1.ATOM    897.170513420307      0.000000000000      0.000000000000    897.170513420307

:1S 001: 1S               -3066.192998909 Ry
:2S 001: 2S                -491.951772690 Ry
:2PP001: 2P*               -465.049798857 Ry
:2P 001: 2P                -429.652760231 Ry
:3S 001: 3S                -105.049965585 Ry
:3PP001: 3P*                -93.587511912 Ry
:3P 001: 3P                 -86.579762223 Ry
:3DD001: 3D*                -66.506059401 Ry
:3D 001: 3D                 -64.994582808 Ry
:4S 001: 4S                 -19.711580633 Ry
:4PP001: 4P*                -15.417197910 Ry
:4P 001: 4P                 -13.888029144 Ry
:4DD001: 4D*                 -6.818308749 Ry
:4D 001: 4D                  -6.548380253 Ry
:CINT001 Core Integral Atom   1   45.998450

       DENSITY AT NUCLEUS
        JATOM        VALENCE       SEMI-CORE          CORE           TOTAL
:RTO001:   1      635.877611        0.000000   656826.420286   657462.297897
     
       CHARGES OF NEW CHARGE DENSITY
:NTO   : INTERSTITIAL CHARGE =     6.080442
:NPC   : PW Pseudocharge     =    18.005658
:NTO001: CHARGE SPHERE  1    =    55.958224

:NEC01: NUCLEAR AND ELECTRONIC CHARGE    118.00000   117.99689
     
       CHARGES OF OLD CHARGE DENSITY
:OTO   : INTERSTITIAL CHARGE =     5.958661
:OPC   : PW Pseudocharge     =    18.015913
:OTO001: CHARGE SPHERE  1    =    56.020670

:NEC02: NUCLEAR AND ELECTRONIC CHARGE    118.00000   118.00000
     
       CONVERGENCE TEST
:DTO001: DIFFERENCE IN SPHERE  1 =  0.1488593

:DIS  :  CHARGE DISTANCE       ( 0.1488593 for atom    1 spin 1)      0.1488593
 PW Mixed is          264
 
******************************************************
* MULTISECANT MIXING VER9 RELEASE 10.4.0              *
* Standard Mode with controls                        *
* Fixed density scale                                *
* Regularization       1.000E-04                     *
* Trust Upper Limit    5.000E+00                     *
* Max Number of Memory Steps    8                    *
******************************************************
 
:PWTMP   1.4101E+02  1.9467E+02  2.4294E+02
:PLANE:  PW TOTAL      5.7741 DISTAN   6.44E-02  1.12E+00 %
:CHARG:  CLM/ATOM   1381.9926 DISTAN   2.76E-01  1.99E-02 %
 
Step History
        DMIX         DMIXT        Red     Pred      Trust     Lambda    MagRel    MagAbs     Beta
  1   3.5000E-02   3.5000E-02 -1.00E+00  1.00E+00 -1.00E+01  1.00E+00  3.50E-02  3.50E-02  1.00E+00
  2   2.5000E-02   2.5000E-02  8.66E-01  1.00E+00 -1.00E+01  1.00E+00  2.50E-02  3.78E-02  1.00E+00
  3   5.3887E-02   5.3887E-02  6.56E-01  1.00E+00 -1.00E+01  2.73E+00  5.39E-02  7.05E-02  1.00E+00
  4   9.4563E-02   9.4563E-02  5.89E-01  7.18E-01  3.69E-01  9.78E-01  2.08E-01  1.79E-01  1.00E+00
  5   1.4588E-01   1.4588E-01 -1.00E+00  5.74E-01  6.33E-01  1.00E+00  5.77E-01  2.92E-01  8.00E-01
:JACOBIANS    5.342E-01   4.490E-01
  
:NORMS:  1/Froebius, Min, Max, Used   0.4961E+00  0.3733E+00  0.8635E+00  0.5235E+00
:INFO :  Number of Memory Steps    4 Skipping    0
:INFO :  SLambda=    1.4670756356  Max    1.4670756356
:PREDicted Charge, CTotal, PW Trust    2.851E-02   5.703E-02   4.725E-01
:PREDicted DMix, Beta, BLim   3.8281E-01  1.4311E+00  3.7789E+00

Eigenvalues, unscaled except for SY+YY
   #     SY Real        SY Imag          SS             YY         SY+YY Real      SY+YY Imag
   1   8.421866E-01   0.000000E+00   8.121258E-01   2.963286E+00   3.714035E+00   0.000000E+00
   2   5.638253E-01   0.000000E+00   1.722412E-01   1.035977E+00   2.347841E+00   0.000000E+00
   3  -1.742364E-16   0.000000E+00   5.673682E-05   7.229825E-04   1.424399E-05   0.000000E+00
   4   2.160577E-04   0.000000E+00  -1.551764E-17   1.374454E-05   1.152555E-03   0.000000E+00
 
:INFO :  Singular value  3.738E+00 Weight  1.000E+00 Projection -1.328E-01
:INFO :  Singular value  2.333E+00 Weight  1.000E+00 Projection -1.285E-01
:INFO :  Singular value  1.153E-03 Weight  9.380E-01 Projection  4.543E+00
:INFO :  Singular value  1.424E-05 Weight  2.304E-03 Projection -2.924E-02
:RANK :  ACTIVE   2.94/4  =  73.51 % ; YY RANK   2.86/4  =  71.46 %
 
:BLIM :  VZERO Control Off
:TRUST:  Step 2.14E+00  Charge 7.50E-02 (e) CTO  2.18E-01 (e) PW  6.01E-01 (e)
:DIRM :  MEMORY  4/8  SCALE   1.000 RED  0.56 PRED  0.57 NEXT  0.43 
:TRAVE:  Charge 1.94E-02 (e) CTO  3.87E-02 (e) PW  2.00E-01 (e)
:DIRP :  |MSR1|= 6.599E-02 |PRATT|= 6.439E-02 ANGLE=  42.3 DEGREES
:DIRQ :  |MSR1|= 1.752E-01 |PRATT|= 2.757E-01 ANGLE=  23.3 DEGREES
:DIRT :  |MSR1|= 1.872E-01 |PRATT|= 2.831E-01 ANGLE=  26.3 DEGREES
:MIX  :   MSE1   REGULARIZATION:  2.96E-04 GREED: 0.24494  Newton 1.00  0.6613                
     
       CHARGES OF MIXED CHARGE DENSITY
:CTO   : INTERSTITIAL CHARGE =     5.998498
:CPC   : PW Pseudocharge     =    17.881178
:CTO001: CHARGE SPHERE  1    =    56.000751

:NEC03: NUCLEAR AND ELECTRONIC CHARGE    118.00000   118.00000

PW CHANGE     H    K    L      Current       Change    Residue
:PTO001:      0    0    0  9.82945520E-02 -3.906E-04  5.098E-04
:PTO003:      0    2    0  2.08810833E-02  9.553E-05  2.844E-04
:PTO004:     -1    1    0  9.33492933E-02 -3.675E-04  4.298E-04
:PTO005:      0    2   -1 -1.05366184E-01  1.299E-03  7.541E-04
:PTO006:      0    0   -2 -5.44884814E-02  6.950E-04  4.304E-04
:PTO007:     -1    1   -1 -1.05331495E-01  1.893E-03  1.494E-03
:PTO008:      0    2   -2 -1.30316548E-02  8.082E-04  9.429E-04
:PTO009:     -1    1   -2 -6.35132045E-02  1.912E-03  1.914E-03
:PTO011:     -1    3    0 -8.41975877E-03  2.866E-05 -5.917E-05
:PTO012:     -1    3   -1 -3.26912116E-02  3.056E-04  6.052E-05
:PTO013:      0    4    0 -5.04194473E-03  8.566E-06 -3.694E-05
:PTO014:      0    2   -3  1.19027867E-02  2.714E-04  4.931E-04

:ENE  : ********** TOTAL ENERGY IN Ry =       -36944.31804640

       TOTAL FORCE IN mRy/a.u. = |F|     Fx             Fy             Fz     with/without FOR in case.in2
:FOR001:   1.ATOM         23.917          0.000          0.000        -23.917 partial forces
       TOTAL FORCE WITH RESPECT TO GLOBAL CARTESIAN COORDINATES:
:FCA001:   1.ATOM                         0.000        -23.917          0.000 partial forces
       TOTAL FORCE WITH RESPECT TO THE GLOBAL COORDINATE SYSTEM:
:FGL001:   1.ATOM                 0.000000000   -23.916777743     0.000000000 partial forces
 Flat Integration
 New Mode for Coulomb Integral
 Consistent 3/8+Simpson combinations
 Extension of core to zero
 LDM version in phi
 Fifth-order quadrature in outwin


            ---------
:ITE007:  7. ITERATION
            ---------

:NATO :    1 INDEPENDENT AND    2 TOTAL ATOMS IN UNITCELL
       SUBSTANCE: aU                                                          

       LATTICE                      = CXY 
:POT  : POTENTIAL OPTION EX_LDA EC_LDA VX_LDA VC_LDA
:LAT  : LATTICE CONSTANTS=  5.15104 10.45276  9.02408    1.571    1.571    1.571
:VOL  : UNIT CELL VOLUME =     242.93998
       MODE OF CALCULATION IS       = RELA
       NON-SPINPOLARIZED CALCULATION
:IFFT  : FFT-parameters:   40   80   72 Factor: 2.00


   CONVERGENCE PARAMETER FOR PSEUDOCHARGE: NCON=  9
   MAXIMAL VALUE OF RMT(JATOM)*ABSK(NKK) : RK  =27.58363


:VKCOUL :  VK-COUL convergence: 0.221E-06
       ATOMNUMBER=  1 Pr1        VCOUL-ZERO =  0.80872E+00
:EFG001:                        EFG         =     7.75084   *10**21  V / m**2
                               V20  TOT/SRF=    -3.90568    -0.08150
                               V22  TOT/SRF=    -5.49589    -0.01594
                               V22M TOT/SRF=     0.00000     0.00000
                               V21  TOT/SRF=     0.00000     0.00000
                               V21M TOT/SRF=     0.00000     0.00000

             -3.24094    0.00000    0.00000       -3.24094    0.00000    0.00000
              0.00000    7.75084    0.00000        0.00000    7.75084    0.00000
              0.00000    0.00000   -4.50989        0.00000    0.00000   -4.50989

         MAIN DIRECTIONS OF THE EFG   1.0000  0.0000  0.0000
                                      0.0000  1.0000  0.0000
                                      0.0000  0.0000  1.0000
:ANG001:  ANGLE WITH OLD X-AXIS =         0.0

:ETA001:                         ASYMM. ETA =     0.16372


     HELLMANN-FEYNMAN-FORCE IN mRy/a.u. = |F|  Fx       Fy             Fz
:FHF001:   1.ATOM   1152.880858468540      0.000000000000      0.000000000000  -1152.880858468540

:FIT001: LUSE= 13 SIGMA OF V-XC FIT FOR ATOM  1  0.1807103E-03
:FIT001: LUSE= 13 SIGMA OF V-XC FIT FOR ATOM  1  0.1807103E-03
:DEN  : DENSITY INTEGRAL  =        -14234.96663263   (Ry)
       ELS_POTENTIAL_AT Z=0 and Z=0.5:   1.10802   1.10802
       ELS_POTENTIAL_AT Y=0 and Y=0.5:  -0.04014  -0.04014
:VZERO:v0,v0c,v0x   0.30813   1.10802  -0.79989 v5,v5c,v5x   0.30813   1.10802  -0.79989
:VZERY:v0,v0c,v0x  -1.06416  -0.04014  -1.02402 v5,v5c,v5x  -1.06416  -0.04014  -1.02402
:VZERX:v0,v0c,v0x  -1.34958  -0.39505  -0.95453 v5,v5c,v5x  -1.34958  -0.39505  -0.95453
:LMAX-WF:   10   Non-Spherical LMAX:   4

          ATOMIC SPHERE DEPENDENT PARAMETERS FOR ATOM  Pr1       
:e__0001: OVERALL ENERGY PARAMETER IS    1.1629
          OVERALL BASIS SET ON ATOM IS LAPW
:E0_0001: E( 0)=    1.1629
             APW+lo
:E0_0001: E( 0)=   -1.2735   E(BOTTOM)=   -1.917   E(TOP)=   -0.630  4  5   250
             LOCAL ORBITAL
:E1_0001: E( 1)=    1.5629
             APW+lo
:E1_0001: E( 1)=    0.1928   E(BOTTOM)=   -0.776   E(TOP)=    1.162  3  4   263
             LOCAL ORBITAL
:E3_0001: E( 3)=    1.3666   E(BOTTOM)=    1.158   E(TOP)=    1.575  0  1   122
             APW+lo
:E2_0001: E( 2)=    1.1629   E(BOTTOM)=    0.955   E(TOP)= -200.000  2 -1   120
             APW+lo

       K=   0.06250   0.00000   0.06250            1
:RKM  : MATRIX SIZE   251LOs:  40  RKM= 8.49  WEIGHT= 4.00  PGR:    
       EIGENVALUES ARE:
:EIG00001:      -1.3644072   -1.2407327   -0.2095307    0.1357851    0.2201447
:EIG00006:       0.2531951    0.2856393    0.2899016    1.1792725    1.2741407
:EIG00011:       1.2962833    1.3011780    1.3068970    1.3241651    1.3517085
:EIG00016:       1.3763783    1.3895969    1.3944821    1.4048870    1.4062753
:EIG00021:       1.4233745    1.4247275    1.4254224    1.4571143    1.4777628
:EIG00026:       1.5298203    1.6083549    1.6179496    1.7035039    1.7534246
:EIG00031:       1.8400727    2.0306415    2.1265046    2.1541239    2.4421878
:EIG00036:       2.4876298    2.5307493    2.8157893    2.8496408
       ********************************************************

:KPT   :      NUMBER OF K-POINTS:   288
:GAP (global)   :    0.0    Ry =     0.0   eV (metal)
         Bandranges (emin - emax) and occupancy:
:BAN00005:   5   -0.081699    0.220145  2.00000000
:BAN00006:   6   -0.047603    0.273840  2.00000000
:BAN00007:   7    0.027041    0.287872  2.00000000
:BAN00008:   8    0.170564    0.310172  2.00000000
:BAN00009:   9    1.052750    1.263479  2.00000000
:BAN00010:  10    1.115027    1.295810  2.00000000
:BAN00011:  11    1.180017    1.339986  2.00000000
:BAN00012:  12    1.240852    1.349178  1.93811533
:BAN00013:  13    1.292014    1.371850  1.21915976
:BAN00014:  14    1.310523    1.393050  0.73783196
:BAN00015:  15    1.325193    1.395707  0.10489294
:BAN00016:  16    1.343694    1.397755  0.00000000
:BAN00017:  17    1.376218    1.409450  0.00000000
:BAN00018:  18    1.386062    1.414928  0.00000000
:BAN00019:  19    1.396273    1.424135  0.00000000
:BAN00020:  20    1.399149    1.426392  0.00000000
        Energy to separate low and high energystates:    1.00275


:NOE  : NUMBER OF ELECTRONS          =   26.000

:FER  : F E R M I - ENERGY(TETRAH.M.)=   1.3403586420
:GMA  : POTENTIAL AND CHARGE CUT-OFF  12.00 Ry**.5

:POS001: ATOM   -1 X,Y,Z = 0.00000 0.89750 0.25000  MULT= 2  ZZ= 59.000  Pr1       

       LMMAX 16
       LM=   0 0  1 0  2 0  2 2  3 0  3 2  4 0  4 2  4 4  5 0  5 2  5 4  6 0  6 2  6 4  6 6

:CHA001: TOTAL VALENCE CHARGE INSIDE SPHERE   1 =  10.0745    (RMT=  2.3000 )
:PCS001: PARTIAL CHARGES SPHERE =  1 S,P,D,F,PX,PY,PZ,D-Z2,D-X2Y2,D-XY,D-XZ,D-YZ 
:QTL001: 1.9214 4.9569 0.9725 2.2175 1.6548 1.6472 1.6549 0.1913 0.1711 0.2011 0.2009 0.2081
        Q-s-low E-s-low   Q-p-low E-p-low   Q-d-low E-d-low   Q-f-low E-f-low
:EPL001:  1.8722 -1.2259    4.8625  0.0684    0.0448  0.0155    0.0153  0.0192
        Q-s-hi  E-s-hi    Q-p-hi  E-p-hi    Q-d-hi  E-d-hi    Q-f-hi  E-f-hi 
:EPH001:  0.0492  1.2443    0.0943  1.2537    0.9277  1.2260    2.2022  1.2946

                      VXX         VYY         VZZ       UP TO R
:VZZ001:            -2.25841     9.51528    -7.25688       2.300

:CHA  : TOTAL VALENCE CHARGE INSIDE UNIT CELL =      26.000000

:SUM  : SUM OF EIGENVALUES =           8.340073836


        1.ATOM      Pr1                  14 CORE STATES
       CORE-FORCE in mRy/a.u. = |F|      Fx             Fy             Fz
:FCO001:   1.ATOM   1204.604055302322      0.000000000000      0.000000000000   1204.604055302322

:1S 001: 1S               -3066.236584205 Ry
:2S 001: 2S                -491.990758305 Ry
:2PP001: 2P*               -465.088967456 Ry
:2P 001: 2P                -429.691795824 Ry
:3S 001: 3S                -105.092259678 Ry
:3PP001: 3P*                -93.629672067 Ry
:3P 001: 3P                 -86.622038543 Ry
:3DD001: 3D*                -66.547567533 Ry
:3D 001: 3D                 -65.036152932 Ry
:4S 001: 4S                 -19.753498613 Ry
:4PP001: 4P*                -15.458833829 Ry
:4P 001: 4P                 -13.929344909 Ry
:4DD001: 4D*                 -6.858492400 Ry
:4D 001: 4D                  -6.588403885 Ry
:CINT001 Core Integral Atom   1   45.998476

       DENSITY AT NUCLEUS
        JATOM        VALENCE       SEMI-CORE          CORE           TOTAL
:RTO001:   1      635.837990        0.000000   656827.254748   657463.092738
     
       CHARGES OF NEW CHARGE DENSITY
:NTO   : INTERSTITIAL CHARGE =     5.851043
:NPC   : PW Pseudocharge     =    17.866889
:NTO001: CHARGE SPHERE  1    =    56.072949

:NEC01: NUCLEAR AND ELECTRONIC CHARGE    118.00000   117.99694
     
       CHARGES OF OLD CHARGE DENSITY
:OTO   : INTERSTITIAL CHARGE =     5.998498
:OPC   : PW Pseudocharge     =    17.881178
:OTO001: CHARGE SPHERE  1    =    56.000751

:NEC02: NUCLEAR AND ELECTRONIC CHARGE    118.00000   118.00000
     
       CONVERGENCE TEST
:DTO001: DIFFERENCE IN SPHERE  1 =  0.1512828

:DIS  :  CHARGE DISTANCE       ( 0.1512828 for atom    1 spin 1)      0.1512828
 PW Mixed is          264
 
******************************************************
* MULTISECANT MIXING VER9 RELEASE 10.4.0              *
* Standard Mode with controls                        *
* Fixed density scale                                *
* Regularization       1.000E-04                     *
* Trust Upper Limit    5.000E+00                     *
* Max Number of Memory Steps    8                    *
******************************************************
 
:PWTMP   1.4101E+02  1.9467E+02  2.4294E+02
:PLANE:  PW TOTAL      5.7296 DISTAN   4.53E-02  7.90E-01 %
:CHARG:  CLM/ATOM   1381.9548 DISTAN   2.29E-01  1.65E-02 %
 
Step History
        DMIX         DMIXT        Red     Pred      Trust     Lambda    MagRel    MagAbs     Beta
[...]
:OTO   : INTERSTITIAL CHARGE =     5.969320
:OPC   : PW Pseudocharge     =    17.949636
:OTO001: CHARGE SPHERE  1    =    56.015340

:NEC02: NUCLEAR AND ELECTRONIC CHARGE    118.00000   118.00000
     
       CONVERGENCE TEST
:DTO001: DIFFERENCE IN SPHERE  1 =  0.0003436

:DIS  :  CHARGE DISTANCE       ( 0.0003436 for atom    1 spin 1)      0.0003436
 PW Mixed is          264
 
******************************************************
* MULTISECANT MIXING VER9 RELEASE 10.4.0              *
* Standard Mode with controls                        *
* Fixed density scale                                *
* Regularization       1.000E-04                     *
* Trust Upper Limit    5.000E+00                     *
* Max Number of Memory Steps    8                    *
******************************************************
 
:PWTMP   1.4101E+02  1.9467E+02  2.4294E+02
:PLANE:  PW TOTAL      5.7549 DISTAN   1.79E-04  3.11E-03 %
:CHARG:  CLM/ATOM   1381.9359 DISTAN   6.52E-04  4.72E-05 %
 
Step History
        DMIX         DMIXT        Red     Pred      Trust     Lambda    MagRel    MagAbs     Beta
  3   5.3887E-02   5.3887E-02  6.56E-01  1.00E+00 -1.00E+01  2.73E+00  5.39E-02  7.05E-02  1.00E+00
  4   9.4563E-02   9.4563E-02  5.89E-01  7.18E-01  3.69E-01  9.78E-01  2.08E-01  1.79E-01  1.00E+00
  5   1.4588E-01   1.4588E-01  5.59E-01  5.74E-01  6.33E-01  1.47E+00  5.77E-01  2.92E-01  8.00E-01
  6   2.4494E-01   2.4494E-01  8.23E-01  4.28E-01  2.14E+00  2.17E+00  6.61E-01  1.87E-01  1.00E+00
  7   2.5595E-01   2.5595E-01  1.74E-01  3.05E-01  2.60E+00  8.07E-01  2.38E-01  5.56E-02  9.21E-01
  8   2.4048E-01   2.4048E-01  5.21E-01  6.42E-01  3.47E+00  1.21E+00  6.29E-01  2.55E-02  9.77E-01
  9   3.4209E-01   3.4209E-01  6.62E-01  3.08E-01  4.62E+00  1.80E+00  6.34E-01  1.34E-02  1.00E+00
 10   3.1361E-01   3.1361E-01  2.03E-01  1.61E-01  6.16E+00  1.73E+00  2.77E-01  3.86E-03  1.00E+00
 11   3.0011E-01   3.0011E-01 -1.00E+00  2.88E-01  8.22E+00  1.00E+00  3.97E-01  1.12E-03  1.00E+00
:JACOBIANS    1.074E+00   2.671E+00
  
:NORMS:  1/Froebius, Min, Max, Used   0.6242E+00  0.5796E+00  0.9762E+00  0.6783E+00
:INFO :  Number of Memory Steps    8 Skipping    2
:INFO :  SLambda=    1.6881915095  Max    1.6881915095
:PREDicted Charge, CTotal, PW Trust    5.720E-05   1.144E-04   5.662E-05
:PREDicted DMix, Beta, BLim   5.5197E-01  1.1001E+00  3.2702E+00

Eigenvalues, unscaled except for SY+YY
   #     SY Real        SY Imag          SS             YY         SY+YY Real      SY+YY Imag
   1   2.285561E+00   0.000000E+00   2.122898E+00   4.614049E+00   7.622550E+00   0.000000E+00
   2   7.106453E-01   5.187466E-02   5.815345E-01   1.970449E+00   4.040762E+00   0.000000E+00
   3   7.106453E-01  -5.187466E-02   2.094048E-01   9.475560E-01   2.092017E+00   0.000000E+00
   4   1.846995E-01   0.000000E+00   1.726805E-01   2.669972E-01   5.156831E-01   0.000000E+00
   5   9.776559E-02   0.000000E+00   2.909845E-02   1.941872E-01   4.564246E-01   0.000000E+00
   6   3.300613E-03   0.000000E+00   1.643492E-03   5.838962E-03   1.192151E-02   0.000000E+00
   7   2.043628E-04   0.000000E+00   6.869898E-05   6.002676E-04   9.623719E-04   0.000000E+00
   8   1.058304E-04   0.000000E+00   3.409450E-05   3.221500E-04   5.051902E-04   0.000000E+00
 
:INFO :  Singular value  7.643E+00 Weight  1.000E+00 Projection  1.373E-04
:INFO :  Singular value  4.050E+00 Weight  1.000E+00 Projection -1.683E-04
:INFO :  Singular value  2.083E+00 Weight  1.000E+00 Projection -1.260E-04
:INFO :  Singular value  5.161E-01 Weight  1.000E+00 Projection  1.753E-04
:INFO :  Singular value  4.560E-01 Weight  1.000E+00 Projection  2.972E-04
:INFO :  Singular value  1.192E-02 Weight  9.985E-01 Projection  5.663E-03
:INFO :  Singular value  9.619E-04 Weight  8.130E-01 Projection -4.309E-03
:INFO :  Singular value  5.051E-04 Weight  5.451E-01 Projection -1.343E-03
:RANK :  ACTIVE   7.36/8  =  91.96 % ; YY RANK   6.95/8  =  86.88 %
 
:BLIM :  VZERO Control Off
:TRUST:  Step 1.10E+01  Charge 2.44E-02 (e) CTO  5.73E-02 (e) PW  2.46E-01 (e)
:DIRM :  MEMORY  8/8  SCALE   1.000 RED  0.24 PRED  0.29 NEXT  0.25 
:TRAVE:  Charge 7.12E-04 (e) CTO  1.42E-03 (e) PW  4.19E-03 (e)
:DIRP :  |MSR1|= 1.084E-04 |PRATT|= 1.791E-04 ANGLE=  20.6 DEGREES
:DIRQ :  |MSR1|= 3.522E-04 |PRATT|= 6.521E-04 ANGLE=  36.8 DEGREES
:DIRT :  |MSR1|= 3.685E-04 |PRATT|= 6.762E-04 ANGLE=  35.9 DEGREES
:MIX  :   MSE1   REGULARIZATION:  4.61E-04 GREED: 0.35000  Newton 1.00  0.5450                
     
       CHARGES OF MIXED CHARGE DENSITY
:CTO   : INTERSTITIAL CHARGE =     5.969405
:CPC   : PW Pseudocharge     =    17.949871
:CTO001: CHARGE SPHERE  1    =    56.015297

:NEC03: NUCLEAR AND ELECTRONIC CHARGE    118.00000   118.00000

PW CHANGE     H    K    L      Current       Change    Residue
:PTO001:      0    0    0  9.84575539E-02  1.317E-06  2.987E-06
:PTO003:      0    2    0  2.08251334E-02  8.350E-07  1.005E-06
:PTO004:     -1    1    0  9.39118024E-02  1.595E-06  1.842E-06
:PTO005:      0    2   -1 -1.06164140E-01 -2.668E-06 -3.169E-06
:PTO006:      0    0   -2 -5.49230210E-02  6.858E-07  1.833E-06
:PTO007:     -1    1   -1 -1.06318845E-01 -2.505E-07  6.372E-07
:PTO008:      0    2   -2 -1.30064941E-02 -3.686E-08  2.657E-07
:PTO009:     -1    1   -2 -6.39726891E-02  1.768E-07  1.793E-06
:PTO011:     -1    3    0 -8.65449063E-03  2.388E-07  3.348E-07
:PTO012:     -1    3   -1 -3.29923239E-02 -3.975E-07 -4.103E-07
:PTO013:      0    4    0 -5.10320650E-03 -5.492E-07 -7.682E-07
:PTO014:      0    2   -3  1.20522022E-02 -7.779E-07 -1.103E-06

:ENE  : ********** TOTAL ENERGY IN Ry =       -36944.31540168

       TOTAL FORCE IN mRy/a.u. = |F|     Fx             Fy             Fz     with/without FOR in case.in2
:FOR001:   1.ATOM         10.487          0.000          0.000         10.487 partial forces
       TOTAL FORCE WITH RESPECT TO GLOBAL CARTESIAN COORDINATES:
:FCA001:   1.ATOM                         0.000         10.487          0.000 partial forces
       TOTAL FORCE WITH RESPECT TO THE GLOBAL COORDINATE SYSTEM:
:FGL001:   1.ATOM                 0.000000000    10.486778145     0.000000000 partial forces
 Flat Integration
 New Mode for Coulomb Integral
 Consistent 3/8+Simpson combinations
 Extension of core to zero
 LDM version in phi
 Fifth-order quadrature in outwin


            ---------
:ITE013: 13. ITERATION
            ---------

:NATO :    1 INDEPENDENT AND    2 TOTAL ATOMS IN UNITCELL
       SUBSTANCE: aU                                                          

       LATTICE                      = CXY 
:POT  : POTENTIAL OPTION EX_LDA EC_LDA VX_LDA VC_LDA
:LAT  : LATTICE CONSTANTS=  5.15104 10.45276  9.02408    1.571    1.571    1.571
:VOL  : UNIT CELL VOLUME =     242.93998
       MODE OF CALCULATION IS       = RELA
       NON-SPINPOLARIZED CALCULATION
:IFFT  : FFT-parameters:   40   80   72 Factor: 2.00


   CONVERGENCE PARAMETER FOR PSEUDOCHARGE: NCON=  9
   MAXIMAL VALUE OF RMT(JATOM)*ABSK(NKK) : RK  =27.58363


:VKCOUL :  VK-COUL convergence: 0.242E-06
       ATOMNUMBER=  1 Pr1        VCOUL-ZERO =  0.80849E+00
:EFG001:                        EFG         =     9.80603   *10**21  V / m**2
                               V20  TOT/SRF=    -5.69667    -0.08448
                               V22  TOT/SRF=    -6.51705    -0.01387
                               V22M TOT/SRF=     0.00000     0.00000
                               V21  TOT/SRF=     0.00000     0.00000
                               V21M TOT/SRF=     0.00000     0.00000

             -3.22808    0.00000    0.00000       -3.22808    0.00000    0.00000
              0.00000    9.80603    0.00000        0.00000    9.80603    0.00000
              0.00000    0.00000   -6.57795        0.00000    0.00000   -6.57795

         MAIN DIRECTIONS OF THE EFG   1.0000  0.0000  0.0000
                                      0.0000  1.0000  0.0000
                                      0.0000  0.0000  1.0000
:ANG001:  ANGLE WITH OLD X-AXIS =         0.0

:ETA001:                         ASYMM. ETA =     0.34161


     HELLMANN-FEYNMAN-FORCE IN mRy/a.u. = |F|  Fx       Fy             Fz
:FHF001:   1.ATOM   1440.465876722017      0.000000000000      0.000000000000  -1440.465876722017

:FIT001: LUSE= 13 SIGMA OF V-XC FIT FOR ATOM  1  0.1777468E-03
:FIT001: LUSE= 13 SIGMA OF V-XC FIT FOR ATOM  1  0.1777468E-03
:DEN  : DENSITY INTEGRAL  =        -14237.25106154   (Ry)
       ELS_POTENTIAL_AT Z=0 and Z=0.5:   1.10489   1.10489
       ELS_POTENTIAL_AT Y=0 and Y=0.5:  -0.04138  -0.04138
:VZERO:v0,v0c,v0x   0.30670   1.10489  -0.79819 v5,v5c,v5x   0.30670   1.10489  -0.79819
:VZERY:v0,v0c,v0x  -1.06500  -0.04138  -1.02362 v5,v5c,v5x  -1.06500  -0.04138  -1.02362
:VZERX:v0,v0c,v0x  -1.34943  -0.39539  -0.95404 v5,v5c,v5x  -1.34943  -0.39539  -0.95404
:LMAX-WF:   10   Non-Spherical LMAX:   4

          ATOMIC SPHERE DEPENDENT PARAMETERS FOR ATOM  Pr1       
:e__0001: OVERALL ENERGY PARAMETER IS    1.1520
          OVERALL BASIS SET ON ATOM IS LAPW
:E0_0001: E( 0)=    1.1520
             APW+lo
:E0_0001: E( 0)=   -1.2662   E(BOTTOM)=   -1.911   E(TOP)=   -0.621  4  5   257
             LOCAL ORBITAL
:E1_0001: E( 1)=    1.5520
             APW+lo
:E1_0001: E( 1)=    0.1991   E(BOTTOM)=   -0.772   E(TOP)=    1.170  3  4   262
             LOCAL ORBITAL
:E3_0001: E( 3)=    1.3810   E(BOTTOM)=    1.171   E(TOP)=    1.592  0  1   126
             APW+lo
:E2_0001: E( 2)=    1.1520   E(BOTTOM)=    0.958   E(TOP)= -200.000  2 -1   123
             APW+lo

       K=   0.06250   0.00000   0.06250            1
:RKM  : MATRIX SIZE   251LOs:  40  RKM= 8.49  WEIGHT= 4.00  PGR:    
       EIGENVALUES ARE:
:EIG00001:      -1.3583964   -1.2338180   -0.2069596    0.1421148    0.2267324
:EIG00006:       0.2586731    0.2904169    0.2958015    1.1814720    1.2769948
:EIG00011:       1.3056276    1.3131754    1.3182418    1.3339241    1.3619529
:EIG00016:       1.3890787    1.4029119    1.4079519    1.4175802    1.4202786
:EIG00021:       1.4357968    1.4369189    1.4399208    1.4723058    1.4892784
:EIG00026:       1.5370808    1.6119205    1.6229295    1.7075120    1.7576631
:EIG00031:       1.8431408    2.0342264    2.1289955    2.1580686    2.4460894
:EIG00036:       2.4911886    2.5338655    2.8179227    2.8517044
       ********************************************************

:KPT   :      NUMBER OF K-POINTS:   288
:GAP (global)   :    0.0    Ry =     0.0   eV (metal)
         Bandranges (emin - emax) and occupancy:
:BAN00005:   5   -0.078522    0.226732  2.00000000
:BAN00006:   6   -0.042964    0.279414  2.00000000
:BAN00007:   7    0.032038    0.293612  2.00000000
:BAN00008:   8    0.174807    0.316171  2.00000000
:BAN00009:   9    1.053122    1.269695  2.00000000
:BAN00010:  10    1.116475    1.301627  2.00000000
:BAN00011:  11    1.182192    1.351872  2.00000000
:BAN00012:  12    1.245346    1.360325  1.94457621
:BAN00013:  13    1.300724    1.386190  1.22281688
:BAN00014:  14    1.320774    1.405406  0.74881676
:BAN00015:  15    1.336198    1.409237  0.08379015
:BAN00016:  16    1.355752    1.410804  0.00000000
:BAN00017:  17    1.389275    1.423733  0.00000000
:BAN00018:  18    1.399599    1.428722  0.00000000
:BAN00019:  19    1.410944    1.439455  0.00000000
:BAN00020:  20    1.414639    1.441763  0.00000000
        Energy to separate low and high energystates:    1.00312


:NOE  : NUMBER OF ELECTRONS          =   26.000

:FER  : F E R M I - ENERGY(TETRAH.M.)=   1.3520192213
:GMA  : POTENTIAL AND CHARGE CUT-OFF  12.00 Ry**.5

:POS001: ATOM   -1 X,Y,Z = 0.00000 0.89750 0.25000  MULT= 2  ZZ= 59.000  Pr1       

       LMMAX 16
       LM=   0 0  1 0  2 0  2 2  3 0  3 2  4 0  4 2  4 4  5 0  5 2  5 4  6 0  6 2  6 4  6 6

:CHA001: TOTAL VALENCE CHARGE INSIDE SPHERE   1 =  10.0169    (RMT=  2.3000 )
:PCS001: PARTIAL CHARGES SPHERE =  1 S,P,D,F,PX,PY,PZ,D-Z2,D-X2Y2,D-XY,D-XZ,D-YZ 
:QTL001: 1.9236 4.9571 1.0053 2.1246 1.6548 1.6471 1.6552 0.1981 0.1787 0.2064 0.2083 0.2138
        Q-s-low E-s-low   Q-p-low E-p-low   Q-d-low E-d-low   Q-f-low E-f-low
:EPL001:  1.8715 -1.2190    4.8567  0.0732    0.0452  0.0198    0.0154  0.0238
        Q-s-hi  E-s-hi    Q-p-hi  E-p-hi    Q-d-hi  E-d-hi    Q-f-hi  E-f-hi 
:EPH001:  0.0521  1.2519    0.1004  1.2611    0.9601  1.2324    2.1092  1.3041

                      VXX         VYY         VZZ       UP TO R
:VZZ001:            -3.28533     9.74195    -6.45662       2.300

:CHA  : TOTAL VALENCE CHARGE INSIDE UNIT CELL =      26.000000

:SUM  : SUM OF EIGENVALUES =           8.489682741


        1.ATOM      Pr1                  14 CORE STATES
       CORE-FORCE in mRy/a.u. = |F|      Fx             Fy             Fz
:FCO001:   1.ATOM   1451.027091683638      0.000000000000      0.000000000000   1451.027091683638

:1S 001: 1S               -3066.215198693 Ry
:2S 001: 2S                -491.966252657 Ry
:2PP001: 2P*               -465.064914394 Ry
:2P 001: 2P                -429.667553880 Ry
:3S 001: 3S                -105.065924768 Ry
:3PP001: 3P*                -93.603415446 Ry
:3P 001: 3P                 -86.595764235 Ry
:3DD001: 3D*                -66.521345823 Ry
:3D 001: 3D                 -65.009915280 Ry
:4S 001: 4S                 -19.732017588 Ry
:4PP001: 4P*                -15.437774089 Ry
:4P 001: 4P                 -13.908908222 Ry
:4DD001: 4D*                 -6.839150318 Ry
:4D 001: 4D                  -6.569272471 Ry
:CINT001 Core Integral Atom   1   45.998461

       DENSITY AT NUCLEUS
        JATOM        VALENCE       SEMI-CORE          CORE           TOTAL
:RTO001:   1      636.166965        0.000000   656826.715492   657462.882458
     
       CHARGES OF NEW CHARGE DENSITY
:NTO   : INTERSTITIAL CHARGE =     5.966268
:NPC   : PW Pseudocharge     =    17.940548
:NTO001: CHARGE SPHERE  1    =    56.015321

:NEC01: NUCLEAR AND ELECTRONIC CHARGE    118.00000   117.99691
     
       CHARGES OF OLD CHARGE DENSITY
:OTO   : INTERSTITIAL CHARGE =     5.969405
:OPC   : PW Pseudocharge     =    17.949871
:OTO001: CHARGE SPHERE  1    =    56.015297

:NEC02: NUCLEAR AND ELECTRONIC CHARGE    118.00000   118.00000
     
       CONVERGENCE TEST
:DTO001: DIFFERENCE IN SPHERE  1 =  0.0000640

:DIS  :  CHARGE DISTANCE       ( 0.0000640 for atom    1 spin 1)      0.0000640
 PW Mixed is          264
 
******************************************************
* MULTISECANT MIXING VER9 RELEASE 10.4.0              *
* Standard Mode with controls                        *
* Fixed density scale                                *
* Regularization       1.000E-04                     *
* Trust Upper Limit    5.000E+00                     *
* Max Number of Memory Steps    8                    *
******************************************************
 
:PWTMP   1.4101E+02  1.9467E+02  2.4294E+02
:PLANE:  PW TOTAL      5.7550 DISTAN   2.70E-05  4.69E-04 %
:CHARG:  CLM/ATOM   1381.9361 DISTAN   1.32E-04  9.58E-06 %
 
Step History
        DMIX         DMIXT        Red     Pred      Trust     Lambda    MagRel    MagAbs     Beta
  4   9.4563E-02   9.4563E-02  5.89E-01  7.18E-01  3.69E-01  9.78E-01  2.08E-01  1.79E-01  1.00E+00
  5   1.4588E-01   1.4588E-01  5.59E-01  5.74E-01  6.33E-01  1.47E+00  5.77E-01  2.92E-01  8.00E-01
  6   2.4494E-01   2.4494E-01  8.23E-01  4.28E-01  2.14E+00  2.17E+00  6.61E-01  1.87E-01  1.00E+00
  7   2.5595E-01   2.5595E-01  1.74E-01  3.05E-01  2.60E+00  8.07E-01  2.38E-01  5.56E-02  9.21E-01
  8   2.4048E-01   2.4048E-01  5.21E-01  6.42E-01  3.47E+00  1.21E+00  6.29E-01  2.55E-02  9.77E-01
  9   3.4209E-01   3.4209E-01  6.62E-01  3.08E-01  4.62E+00  1.80E+00  6.34E-01  1.34E-02  1.00E+00
 10   3.1361E-01   3.1361E-01  2.03E-01  1.61E-01  6.16E+00  1.73E+00  2.77E-01  3.86E-03  1.00E+00
 11   3.0011E-01   3.0011E-01  2.39E-01  2.88E-01  8.22E+00  1.69E+00  3.97E-01  1.12E-03  1.00E+00
 12   3.5000E-01   3.5000E-01 -1.00E+00  2.51E-01  1.10E+01  1.00E+00  5.45E-01  3.69E-04  1.00E+00
:JACOBIANS    1.088E+00   2.978E+00
  
:NORMS:  1/Froebius, Min, Max, Used   0.6335E+00  0.6079E+00  0.9847E+00  0.6720E+00
:INFO :  Number of Memory Steps    8 Skipping    3
:INFO :  SLambda=    1.6254754701  Max    1.6254754701
:PREDicted Charge, CTotal, PW Trust    4.414E-05   8.828E-05   1.766E-04
:PREDicted DMix, Beta, BLim   2.5663E-01  1.0649E+00  7.4051E+00

Eigenvalues, unscaled except for SY+YY
   #     SY Real        SY Imag          SS             YY         SY+YY Real      SY+YY Imag
   1   2.071769E+00   0.000000E+00   1.919719E+00   4.250501E+00   6.635154E+00   0.000000E+00
   2   7.102718E-01   5.456249E-02   6.044838E-01   2.011166E+00   4.169272E+00   0.000000E+00
   3   7.102718E-01  -5.456249E-02   3.187661E-01   8.924177E-01   2.002522E+00   0.000000E+00
   4   4.032491E-01   0.000000E+00   1.892552E-01   5.010938E-01   1.165349E+00   0.000000E+00
   5   1.815531E-01   0.000000E+00   1.670907E-01   1.942331E-01   4.909306E-01   0.000000E+00
   6   4.486963E-02   0.000000E+00   1.069982E-02   1.498141E-01   2.361749E-01   0.000000E+00
   7   1.249220E-04   0.000000E+00   9.771188E-05   4.330895E-04   5.806645E-04   0.000000E+00
   8   1.860484E-04   0.000000E+00   3.773564E-05   3.412188E-04   7.076036E-04   0.000000E+00
 
:INFO :  Singular value  6.651E+00 Weight  1.000E+00 Projection -2.806E-05
:INFO :  Singular value  4.180E+00 Weight  1.000E+00 Projection -4.313E-05
:INFO :  Singular value  1.998E+00 Weight  1.000E+00 Projection -2.057E-06
:INFO :  Singular value  1.164E+00 Weight  1.000E+00 Projection  4.548E-05
:INFO :  Singular value  4.909E-01 Weight  1.000E+00 Projection  9.718E-06
:INFO :  Singular value  2.358E-01 Weight  1.000E+00 Projection -5.815E-05
:INFO :  Singular value  7.114E-04 Weight  7.369E-01 Projection -1.860E-03
:INFO :  Singular value  5.776E-04 Weight  6.487E-01 Projection -1.931E-03
:RANK :  ACTIVE   7.39/8  =  92.32 % ; YY RANK   6.90/8  =  86.27 %
 
:BLIM :  VZERO Control Off
:TRUST:  Step 1.46E+01  Charge 1.95E-02 (e) CTO  4.58E-02 (e) PW  1.97E-01 (e)
:DIRM :  MEMORY  8/8  SCALE   1.000 RED  0.20 PRED  0.25 NEXT  0.41 
:TRAVE:  Charge 3.56E-04 (e) CTO  7.12E-04 (e) PW  2.10E-03 (e)
:DIRP :  |MSR1|= 1.509E-05 |PRATT|= 2.699E-05 ANGLE=  30.8 DEGREES
:DIRQ :  |MSR1|= 5.261E-05 |PRATT|= 1.323E-04 ANGLE=  36.2 DEGREES
:DIRT :  |MSR1|= 5.473E-05 |PRATT|= 1.351E-04 ANGLE=  36.2 DEGREES
:MIX  :   MSE1   REGULARIZATION:  4.25E-04 GREED: 0.29075  Newton 1.00  0.4052                
     
       CHARGES OF MIXED CHARGE DENSITY
:CTO   : INTERSTITIAL CHARGE =     5.969404
:CPC   : PW Pseudocharge     =    17.949855
:CTO001: CHARGE SPHERE  1    =    56.015298

:NEC03: NUCLEAR AND ELECTRONIC CHARGE    118.00000   118.00000

PW CHANGE     H    K    L      Current       Change    Residue
:PTO001:      0    0    0  9.84574847E-02 -6.919E-08 -3.302E-07
:PTO003:      0    2    0  2.08250126E-02 -1.208E-07 -2.039E-07
:PTO004:     -1    1    0  9.39117289E-02 -7.351E-08 -4.266E-09
:PTO005:      0    2   -1 -1.06164077E-01  6.296E-08  8.051E-08
:PTO006:      0    0   -2 -5.49229182E-02  1.028E-07 -8.305E-08
:PTO007:     -1    1   -1 -1.06318661E-01  1.844E-07  7.073E-08
:PTO008:      0    2   -2 -1.30062145E-02  2.796E-07  5.209E-07
:PTO009:     -1    1   -2 -6.39722700E-02  4.191E-07  5.308E-07
:PTO011:     -1    3    0 -8.65439416E-03  9.646E-08  2.156E-07
:PTO012:     -1    3   -1 -3.29920056E-02  3.183E-07  6.390E-07
:PTO013:      0    4    0 -5.10323295E-03 -2.644E-08  2.839E-09
:PTO014:      0    2   -3  1.20521265E-02 -7.571E-08 -5.645E-08

:ENE  : ********** TOTAL ENERGY IN Ry =       -36944.31540217

       TOTAL FORCE IN mRy/a.u. = |F|     Fx             Fy             Fz     with/without FOR in case.in2
:FOR001:   1.ATOM         10.561          0.000          0.000         10.561 partial forces
       TOTAL FORCE WITH RESPECT TO GLOBAL CARTESIAN COORDINATES:
:FCA001:   1.ATOM                         0.000         10.561          0.000 partial forces
       TOTAL FORCE WITH RESPECT TO THE GLOBAL COORDINATE SYSTEM:
:FGL001:   1.ATOM                 0.000000000    10.561214962     0.000000000 partial forces
