
:LABEL1: Calculations in /home/ykent/GWIEN/example/Pr/V14/case
:LABEL2: on didymium-2.cmpgroup.ameslab.gov at Wed Jul  8 16:02:17 CDT 2020
:LABEL3: using WIEN2k_19.1 (Release 25/6/2019) in /home/ykent/opt/src/WIEN2k_19.1
:LABEL4: using the command: run_lapw -cc 0.0001
 Flat Integration
 New Mode for Coulomb Integral
 Consistent 3/8+Simpson combinations
 Extension of core to zero
 LDM version in phi
 Fifth-order quadrature in outwin


            ---------
:ITE001:  1. ITERATION
            ---------

:NATO :    1 INDEPENDENT AND    1 TOTAL ATOMS IN UNITCELL
       SUBSTANCE: blebleble                                                   

       LATTICE                      = F   
:POT  : POTENTIAL OPTION EX_LDA EC_LDA VX_LDA VC_LDA
:LAT  : LATTICE CONSTANTS= 10.27741 10.27741 10.27741    1.571    1.571    1.571
:VOL  : UNIT CELL VOLUME =     271.38850
       MODE OF CALCULATION IS       = RELA
       NON-SPINPOLARIZED CALCULATION
:IFFT  : FFT-parameters:   80   80   80 Factor: 2.00


   CONVERGENCE PARAMETER FOR PSEUDOCHARGE: NCON=  9
   MAXIMAL VALUE OF RMT(JATOM)*ABSK(NKK) : RK  =29.95033


:VKCOUL :  VK-COUL convergence: 0.205E-05
       ATOMNUMBER=  1 Pr         VCOUL-ZERO =  0.14028E+00
:FIT001: LUSE= 13 SIGMA OF V-XC FIT FOR ATOM  1  0.8739065E-06
:FIT001: LUSE= 13 SIGMA OF V-XC FIT FOR ATOM  1  0.8739065E-06
:DEN  : DENSITY INTEGRAL  =         -7066.40592399   (Ry)
       ELS_POTENTIAL_AT Z=0 and Z=0.5:  -2.31482  -2.31482
       ELS_POTENTIAL_AT Y=0 and Y=0.5:   0.00000   0.00000
:VZERO:v0,v0c,v0x  -3.24071  -2.31482  -0.92589 v5,v5c,v5x  -3.24071  -2.31482  -0.92589
:VZERY:v0,v0c,v0x  -0.67175   0.00000  -0.67175 v5,v5c,v5x  -0.67175   0.00000  -0.67175
:VZERX:v0,v0c,v0x  -0.67175   0.00000  -0.67175 v5,v5c,v5x  -0.67175   0.00000  -0.67175
:LMAX-WF:   10   Non-Spherical LMAX:   4

          ATOMIC SPHERE DEPENDENT PARAMETERS FOR ATOM  Pr        
:e__0001: OVERALL ENERGY PARAMETER IS    0.3000
          OVERALL BASIS SET ON ATOM IS LAPW
:E0_0001: E( 0)=    0.3000
             APW+lo
:E0_0001: E( 0)=   -2.1940   E(BOTTOM)=   -2.575   E(TOP)=   -1.813  4  5   167
             LOCAL ORBITAL
:E1_0001: E( 1)=    0.7000
             APW+lo
:E1_0001: E( 1)=   -0.8063   E(BOTTOM)=   -1.453   E(TOP)=   -0.160  3  4   167
             LOCAL ORBITAL
:E3_0001: E( 3)=    0.4784   E(BOTTOM)=    0.336   E(TOP)=    0.620  0  1   117
             APW+lo
:E2_0001: E( 2)=    0.3000   E(BOTTOM)=    0.123   E(TOP)= -200.000  2 -1    96
             APW+lo

       K=   0.00000   0.00000   0.00000            1
:RKM  : MATRIX SIZE   189LOs:  20  RKM= 7.94  WEIGHT= 1.00  PGR:    
       EIGENVALUES ARE:
:EIG00001:      -2.1509000   -0.7949831   -0.7949831   -0.7949831    0.2387482
:EIG00006:       0.4811736    0.4959363    0.4959363    0.4959363    0.5158851
:EIG00011:       0.5158851    0.5158851    0.6138129    0.6138129    0.6138129
:EIG00016:       0.7645521    0.7645521    1.1576162    1.3634437    1.3634437
:EIG00021:       1.3634437    1.4726259
       ********************************************************

:KPT   :      NUMBER OF K-POINTS:   165
:GAP (global)   :    0.0    Ry =     0.0   eV (metal)
         Bandranges (emin - emax) and occupancy:
:BAN00001:   1   -2.150900   -2.142307  2.00000000
:BAN00002:   2   -0.854533   -0.794983  2.00000000
:BAN00003:   3   -0.833532   -0.794983  2.00000000
:BAN00004:   4   -0.816963   -0.794983  2.00000000
:BAN00005:   5    0.238748    0.468133  2.00000000
:BAN00006:   6    0.431065    0.489736  2.00000000
:BAN00007:   7    0.480547    0.498060  1.00000000
:BAN00008:   8    0.492448    0.501652  0.00000000
:BAN00009:   9    0.495936    0.503546  0.00000000
:BAN00010:  10    0.499414    0.515885  0.00000000
:BAN00011:  11    0.503108    0.515885  0.00000000
:BAN00012:  12    0.505187    0.521336  0.00000000
        Energy to separate low and high energystates:    0.18875


:NOE  : NUMBER OF ELECTRONS          =   13.000

:FER  : F E R M I - ENERGY(TETRAH.M.)=   0.4912158036
:GMA  : POTENTIAL AND CHARGE CUT-OFF  12.00 Ry**.5

:POS001: ATOM    1 X,Y,Z = 0.00000 0.00000 0.50000  MULT= 1  ZZ= 59.000  Pr        

       LMMAX  5
       LM=   0 0  4 0  4 4  6 0  6 4

:CHA001: TOTAL VALENCE CHARGE INSIDE SPHERE   1 =   9.9966    (RMT=  2.5000 )
:PCS001: PARTIAL CHARGES SPHERE =  1 S,P,D,F,      D-EG,D-T2G 
:QTL001: 2.0253 5.3605 0.5688 2.0419 0.0000 0.0000 0.0000 0.2015 0.3673 0.0000 0.0000 0.0000
        Q-s-low E-s-low   Q-p-low E-p-low   Q-d-low E-d-low   Q-f-low E-f-low
:EPL001:  1.9258 -2.1441    5.2962 -0.8201    0.0006 -0.8327    0.0002 -0.8350
        Q-s-hi  E-s-hi    Q-p-hi  E-p-hi    Q-d-hi  E-d-hi    Q-f-hi  E-f-hi 
:EPH001:  0.0995  0.3865    0.0643  0.4268    0.5682  0.4457    2.0417  0.4798

:CHA  : TOTAL VALENCE CHARGE INSIDE UNIT CELL =      13.000000

:SUM  : SUM OF EIGENVALUES =          -6.960728170


        1.ATOM      Pr                   14 CORE STATES
:1S 001: 1S               -3067.083696816 Ry
:2S 001: 2S                -492.849332056 Ry
:2PP001: 2P*               -465.946980039 Ry
:2P 001: 2P                -430.550171846 Ry
:3S 001: 3S                -105.946599148 Ry
:3PP001: 3P*                -94.484035625 Ry
:3P 001: 3P                 -87.476617206 Ry
:3DD001: 3D*                -67.403040008 Ry
:3D 001: 3D                 -65.891606031 Ry
:4S 001: 4S                 -20.630764215 Ry
:4PP001: 4P*                -16.337680590 Ry
:4P 001: 4P                 -14.810554454 Ry
:4DD001: 4D*                 -7.744041748 Ry
:4D 001: 4D                  -7.474737485 Ry
:CINT001 Core Integral Atom   1   45.999516

       DENSITY AT NUCLEUS
        JATOM        VALENCE       SEMI-CORE          CORE           TOTAL
:RTO001:   1      648.912979        0.000000   656821.169773   657470.082751
     
       CHARGES OF NEW CHARGE DENSITY
:NTO   : INTERSTITIAL CHARGE =     3.003362
:NPC   : PW Pseudocharge     =     7.573124
:NTO001: CHARGE SPHERE  1    =    55.996154

:NEC01: NUCLEAR AND ELECTRONIC CHARGE     59.00000    58.99952
     
       CHARGES OF OLD CHARGE DENSITY
:OTO   : INTERSTITIAL CHARGE =     2.951229
:OPC   : PW Pseudocharge     =     6.889336
:OTO001: CHARGE SPHERE  1    =    56.049394

:NEC02: NUCLEAR AND ELECTRONIC CHARGE     59.00000    59.00062
     
       CONVERGENCE TEST
:DTO001: DIFFERENCE IN SPHERE  1 =  0.1175746

:DIS  :  CHARGE DISTANCE       ( 0.1175746 for atom    1 spin 1)      0.1175746
 PW Mixed is           59
 
******************************************************
* MULTISECANT MIXING VER9 RELEASE 10.4.0              *
* Standard Mode with controls                        *
* Fixed density scale                                *
* Regularization       1.000E-04                     *
* Trust Upper Limit    5.000E+00                     *
* Max Number of Memory Steps    8                    *
******************************************************
 
:PWTMP   2.0594E+02  1.2500E+02  2.7139E+02
:PLANE:  PW TOTAL      2.4991 DISTAN   3.72E-01  1.49E+01 %
:CHARG:  CLM/ATOM    977.2573 DISTAN   6.60E-01  6.75E-02 %
 
Step History
        DMIX         DMIXT        Red     Pred      Trust     Lambda    MagRel    MagAbs     Beta
  1   3.5000E-02   3.5000E-02 -1.00E+00  1.00E+00 -1.00E+01  1.00E+00  3.50E-02  3.50E-02  1.00E+00
:INFO :  Note, Pratt in use
:TRUST:  Step 3.75E-02  Charge 7.50E-02 (e) CTO  2.50E-01 (e) PW  3.50E-01 (e)
:DIRM :  MEMORY  0/ 8 SCALE   1.000
Performing Pseudo Compensation
Final Pseudo Compensation Rescaling     1.00000E+00
:MIX  :   PRATT  REGULARIZATION:  1.00E-04 GREED: 0.02500                  
     
       CHARGES OF MIXED CHARGE DENSITY
:CTO   : INTERSTITIAL CHARGE =     2.951937
:CPC   : PW Pseudocharge     =     7.408534
:CTO001: CHARGE SPHERE  1    =    56.048063

:NEC03: NUCLEAR AND ELECTRONIC CHARGE     59.00000    59.00000

PW CHANGE     H    K    L      Current       Change    Residue
:PTO001:      0    0    0  3.81757933E-02  1.923E-03  2.726E-03
:PTO002:     -1   -1   -1 -1.23312531E-01 -1.179E-02 -1.467E-02
:PTO003:      0    0   -2  7.41607570E-02  8.065E-03  9.537E-03
:PTO004:      0   -2   -2  6.48227383E-02  1.110E-02  1.497E-02
:PTO005:     -1   -1   -3 -6.75492164E-02 -1.627E-02 -1.753E-02
:PTO006:     -2   -2   -2  1.78415758E-02  4.871E-03  4.986E-03
:PTO007:      0    0   -4  4.51013664E-03  2.298E-03  1.570E-03
:PTO008:     -1   -3   -3 -5.22164585E-03 -6.292E-03 -5.737E-03
:PTO009:      0   -2   -4  2.49592233E-03  5.458E-03  4.440E-03
:PTO010:     -2   -2   -4 -3.53778043E-03  2.826E-03  1.064E-03
:PTO011:     -3   -3   -3  1.66623172E-03 -4.764E-04  3.191E-04
:PTO012:     -1   -1   -5  4.98871359E-03 -1.439E-03  5.581E-04

:ENE  : ********** TOTAL ENERGY IN Ry =       -18472.06059128

 Flat Integration
 New Mode for Coulomb Integral
 Consistent 3/8+Simpson combinations
 Extension of core to zero
 LDM version in phi
 Fifth-order quadrature in outwin


            ---------
:ITE002:  2. ITERATION
            ---------

:NATO :    1 INDEPENDENT AND    1 TOTAL ATOMS IN UNITCELL
       SUBSTANCE: blebleble                                                   

       LATTICE                      = F   
:POT  : POTENTIAL OPTION EX_LDA EC_LDA VX_LDA VC_LDA
:LAT  : LATTICE CONSTANTS= 10.27741 10.27741 10.27741    1.571    1.571    1.571
:VOL  : UNIT CELL VOLUME =     271.38850
       MODE OF CALCULATION IS       = RELA
       NON-SPINPOLARIZED CALCULATION
:IFFT  : FFT-parameters:   80   80   80 Factor: 2.00


   CONVERGENCE PARAMETER FOR PSEUDOCHARGE: NCON=  9
   MAXIMAL VALUE OF RMT(JATOM)*ABSK(NKK) : RK  =29.95033


:VKCOUL :  VK-COUL convergence: 0.338E-07
       ATOMNUMBER=  1 Pr         VCOUL-ZERO =  0.14469E+00
:FIT001: LUSE= 13 SIGMA OF V-XC FIT FOR ATOM  1  0.8532757E-06
:FIT001: LUSE= 13 SIGMA OF V-XC FIT FOR ATOM  1  0.8532757E-06
:DEN  : DENSITY INTEGRAL  =         -7066.53442786   (Ry)
       ELS_POTENTIAL_AT Z=0 and Z=0.5:  -2.35186  -2.35186
       ELS_POTENTIAL_AT Y=0 and Y=0.5:   0.00000   0.00000
:VZERO:v0,v0c,v0x  -3.29795  -2.35186  -0.94608 v5,v5c,v5x  -3.29795  -2.35186  -0.94608
:VZERY:v0,v0c,v0x  -0.67543   0.00000  -0.67543 v5,v5c,v5x  -0.67543   0.00000  -0.67543
:VZERX:v0,v0c,v0x  -0.67543   0.00000  -0.67543 v5,v5c,v5x  -0.67543   0.00000  -0.67543
:LMAX-WF:   10   Non-Spherical LMAX:   4

          ATOMIC SPHERE DEPENDENT PARAMETERS FOR ATOM  Pr        
:e__0001: OVERALL ENERGY PARAMETER IS    0.2941
          OVERALL BASIS SET ON ATOM IS LAPW
:E0_0001: E( 0)=    0.2941
             APW+lo
:E0_0001: E( 0)=   -2.1905   E(BOTTOM)=   -2.571   E(TOP)=   -1.810  4  5   164
             LOCAL ORBITAL
:E1_0001: E( 1)=    0.6941
             APW+lo
:E1_0001: E( 1)=   -0.8026   E(BOTTOM)=   -1.449   E(TOP)=   -0.156  3  4   165
             LOCAL ORBITAL
:E3_0001: E( 3)=    0.4813   E(BOTTOM)=    0.339   E(TOP)=    0.623  0  1   115
             APW+lo
:E2_0001: E( 2)=    0.2941   E(BOTTOM)=    0.127   E(TOP)= -200.000  2 -1    94
             APW+lo

       K=   0.00000   0.00000   0.00000            1
:RKM  : MATRIX SIZE   189LOs:  20  RKM= 7.94  WEIGHT= 1.00  PGR:    
       EIGENVALUES ARE:
:EIG00001:      -2.1473838   -0.7912879   -0.7912879   -0.7912879    0.2431468
:EIG00006:       0.4842297    0.4988742    0.4988742    0.4988742    0.5187509
:EIG00011:       0.5187509    0.5187509    0.6180372    0.6180372    0.6180372
:EIG00016:       0.7686700    0.7686700    1.1618743    1.3677908    1.3677908
:EIG00021:       1.3677908    1.4770584
       ********************************************************

:KPT   :      NUMBER OF K-POINTS:   165
:GAP (global)   :    0.0    Ry =     0.0   eV (metal)
         Bandranges (emin - emax) and occupancy:
:BAN00001:   1   -2.147384   -2.138802  2.00000000
:BAN00002:   2   -0.850763   -0.791288  2.00000000
:BAN00003:   3   -0.829788   -0.791288  2.00000000
:BAN00004:   4   -0.813240   -0.791288  2.00000000
:BAN00005:   5    0.243147    0.471787  2.00000000
:BAN00006:   6    0.435363    0.493190  2.00000000
:BAN00007:   7    0.483828    0.500985  1.00000000
:BAN00008:   8    0.495544    0.504598  0.00000000
:BAN00009:   9    0.498874    0.506552  0.00000000
:BAN00010:  10    0.502396    0.518751  0.00000000
:BAN00011:  11    0.506027    0.518751  0.00000000
:BAN00012:  12    0.508088    0.524559  0.00000000
        Energy to separate low and high energystates:    0.19315


:NOE  : NUMBER OF ELECTRONS          =   13.000

:FER  : F E R M I - ENERGY(TETRAH.M.)=   0.4943027706
:GMA  : POTENTIAL AND CHARGE CUT-OFF  12.00 Ry**.5

:POS001: ATOM    1 X,Y,Z = 0.00000 0.00000 0.50000  MULT= 1  ZZ= 59.000  Pr        

       LMMAX  5
       LM=   0 0  4 0  4 4  6 0  6 4

:CHA001: TOTAL VALENCE CHARGE INSIDE SPHERE   1 =  10.0166    (RMT=  2.5000 )
:PCS001: PARTIAL CHARGES SPHERE =  1 S,P,D,F,      D-EG,D-T2G 
:QTL001: 2.0251 5.3600 0.5614 2.0700 0.0000 0.0000 0.0000 0.1992 0.3622 0.0000 0.0000 0.0000
        Q-s-low E-s-low   Q-p-low E-p-low   Q-d-low E-d-low   Q-f-low E-f-low
:EPL001:  1.9259 -2.1406    5.2968 -0.8164    0.0006 -0.8290    0.0002 -0.8312
        Q-s-hi  E-s-hi    Q-p-hi  E-p-hi    Q-d-hi  E-d-hi    Q-f-hi  E-f-hi 
:EPH001:  0.0992  0.3906    0.0632  0.4300    0.5608  0.4493    2.0698  0.4831

:CHA  : TOTAL VALENCE CHARGE INSIDE UNIT CELL =      13.000000

:SUM  : SUM OF EIGENVALUES =          -6.912648682


        1.ATOM      Pr                   14 CORE STATES
:1S 001: 1S               -3067.083026349 Ry
:2S 001: 2S                -492.848236493 Ry
:2PP001: 2P*               -465.945946972 Ry
:2P 001: 2P                -430.549112272 Ry
:3S 001: 3S                -105.945044245 Ry
:3PP001: 3P*                -94.482507388 Ry
:3P 001: 3P                 -87.475058893 Ry
:3DD001: 3D*                -67.401544395 Ry
:3D 001: 3D                 -65.890100897 Ry
:4S 001: 4S                 -20.628477981 Ry
:4PP001: 4P*                -16.335365640 Ry
:4P 001: 4P                 -14.808189749 Ry
:4DD001: 4D*                 -7.741592200 Ry
:4D 001: 4D                  -7.472270997 Ry
:CINT001 Core Integral Atom   1   45.999517

       DENSITY AT NUCLEUS
        JATOM        VALENCE       SEMI-CORE          CORE           TOTAL
:RTO001:   1      648.954286        0.000000   656821.391390   657470.345676
     
       CHARGES OF NEW CHARGE DENSITY
:NTO   : INTERSTITIAL CHARGE =     2.983377
:NPC   : PW Pseudocharge     =     7.566918
:NTO001: CHARGE SPHERE  1    =    56.016140

:NEC01: NUCLEAR AND ELECTRONIC CHARGE     59.00000    58.99952
     
       CHARGES OF OLD CHARGE DENSITY
:OTO   : INTERSTITIAL CHARGE =     2.951937
:OPC   : PW Pseudocharge     =     7.408534
:OTO001: CHARGE SPHERE  1    =    56.048063

:NEC02: NUCLEAR AND ELECTRONIC CHARGE     59.00000    59.00000
     
       CONVERGENCE TEST
:DTO001: DIFFERENCE IN SPHERE  1 =  0.1007973

:DIS  :  CHARGE DISTANCE       ( 0.1007973 for atom    1 spin 1)      0.1007973
 PW Mixed is           59
 
******************************************************
* MULTISECANT MIXING VER9 RELEASE 10.4.0              *
* Slow Mode, cautious                                *
* Fixed density scale                                *
* Regularization       1.000E-04                     *
* Step Trust Radius    0.75000                       *
* Trust Upper Limit    2.000E+00                     *
* Max Number of Memory Steps   12                    *
******************************************************
 
:PWTMP   2.0594E+02  1.2500E+02  2.7139E+02
:PLANE:  PW TOTAL      2.7646 DISTAN   7.93E-02  2.87E+00 %
:CHARG:  CLM/ATOM    977.2551 DISTAN   6.42E-01  6.57E-02 %
 
Step History
        DMIX         DMIXT        Red     Pred      Trust     Lambda    MagRel    MagAbs     Beta
  1   3.5000E-02   3.5000E-02 -1.00E+00  1.00E+00 -1.00E+01  1.00E+00  3.50E-02  3.50E-02  1.00E+00
  2   2.5000E-02   2.5000E-02 -1.00E+00  1.00E+00 -1.00E+01  1.00E+00  2.50E-02  1.89E-02  1.00E+00
:JACOBIANS    4.913E-01   1.606E-03
  
:NORMS:  1/Froebius, Min, Max, Used   0.9832E+00  0.9832E+00  0.9857E+00  0.9832E+00
:INFO :  Number of Memory Steps    1 Skipping    0
:PREDicted Charge, CTotal, PW Trust    1.724E-03   1.724E-03   3.114E-01
:PREDicted DMix, Beta, BLim   1.0000E-02  1.2953E+00  5.6322E-01

Eigenvalues, unscaled except for SY+YY
   #     SY Real        SY Imag          SS             YY         SY+YY Real      SY+YY Imag
   1   9.857321E-01   0.000000E+00   9.831540E-01   1.000000E+00   1.985732E+00   0.000000E+00
 
:BLIM :  VZERO Control Off
:TRUST:  Step 2.12E-01  Charge 7.50E-02 (e) CTO  2.50E-01 (e) PW  3.50E-01 (e)
:DIRM :  MEMORY  1/12 SCALE   1.000 RED  0.85 PRED  1.00 NEXT  0.99 
:TRAVE:  Charge 9.06E-04 (e) CTO  9.06E-04 (e) PW  7.13E-02 (e)
:DIRP :  |MSR1|= 9.084E-02 |PRATT|= 7.927E-02 ANGLE=  43.1 DEGREES
:DIRQ :  |MSR1|= 1.759E-02 |PRATT|= 6.416E-01 ANGLE=   0.2 DEGREES
:DIRT :  |MSR1|= 9.253E-02 |PRATT|= 6.465E-01 ANGLE=  73.9 DEGREES
:MIX  :   MSR1   REGULARIZATION:  1.00E-04 GREED: 0.02000  Newton 1.00  0.1431                
     
       CHARGES OF MIXED CHARGE DENSITY
:CTO   : INTERSTITIAL CHARGE =     2.952842
:CPC   : PW Pseudocharge     =     7.562357
:CTO001: CHARGE SPHERE  1    =    56.047158

:NEC03: NUCLEAR AND ELECTRONIC CHARGE     59.00000    59.00000

PW CHANGE     H    K    L      Current       Change    Residue
:PTO001:      0    0    0  3.87459300E-02  5.701E-04  7.058E-04
:PTO002:     -1   -1   -1 -1.26781323E-01 -3.469E-03 -2.875E-03
:PTO003:      0    0   -2  7.65244914E-02  2.364E-03  1.494E-03
:PTO004:      0   -2   -2  6.81128927E-02  3.290E-03  3.863E-03
:PTO005:     -1   -1   -3 -7.22840671E-02 -4.735E-03 -1.290E-03
:PTO006:     -2   -2   -2  1.92536853E-02  1.412E-03  1.207E-04
:PTO007:      0    0   -4  5.16079237E-03  6.507E-04 -7.141E-04
:PTO008:     -1   -3   -3 -7.03139246E-03 -1.810E-03  5.531E-04
:PTO009:      0   -2   -4  4.05542625E-03  1.560E-03 -1.004E-03
:PTO010:     -2   -2   -4 -2.75505096E-03  7.827E-04 -1.753E-03
:PTO011:     -3   -3   -3  1.54422561E-03 -1.220E-04  7.934E-04
:PTO012:     -1   -1   -5  4.61167197E-03 -3.770E-04  1.977E-03

:ENE  : ********** TOTAL ENERGY IN Ry =       -18472.06050808

 Flat Integration
 New Mode for Coulomb Integral
 Consistent 3/8+Simpson combinations
 Extension of core to zero
 LDM version in phi
 Fifth-order quadrature in outwin


            ---------
:ITE003:  3. ITERATION
            ---------

:NATO :    1 INDEPENDENT AND    1 TOTAL ATOMS IN UNITCELL
       SUBSTANCE: blebleble                                                   

       LATTICE                      = F   
:POT  : POTENTIAL OPTION EX_LDA EC_LDA VX_LDA VC_LDA
:LAT  : LATTICE CONSTANTS= 10.27741 10.27741 10.27741    1.571    1.571    1.571
:VOL  : UNIT CELL VOLUME =     271.38850
       MODE OF CALCULATION IS       = RELA
       NON-SPINPOLARIZED CALCULATION
:IFFT  : FFT-parameters:   80   80   80 Factor: 2.00


   CONVERGENCE PARAMETER FOR PSEUDOCHARGE: NCON=  9
   MAXIMAL VALUE OF RMT(JATOM)*ABSK(NKK) : RK  =29.95033


:VKCOUL :  VK-COUL convergence: 0.352E-07
       ATOMNUMBER=  1 Pr         VCOUL-ZERO =  0.14595E+00
:FIT001: LUSE= 13 SIGMA OF V-XC FIT FOR ATOM  1  0.8584535E-06
:FIT001: LUSE= 13 SIGMA OF V-XC FIT FOR ATOM  1  0.8584535E-06
:DEN  : DENSITY INTEGRAL  =         -7066.52349043   (Ry)
       ELS_POTENTIAL_AT Z=0 and Z=0.5:  -2.36361  -2.36361
       ELS_POTENTIAL_AT Y=0 and Y=0.5:   0.00000   0.00000
:VZERO:v0,v0c,v0x  -3.31514  -2.36361  -0.95153 v5,v5c,v5x  -3.31514  -2.36361  -0.95153
:VZERY:v0,v0c,v0x  -0.67652   0.00000  -0.67652 v5,v5c,v5x  -0.67652   0.00000  -0.67652
:VZERX:v0,v0c,v0x  -0.67652   0.00000  -0.67652 v5,v5c,v5x  -0.67652   0.00000  -0.67652
:LMAX-WF:   10   Non-Spherical LMAX:   4

          ATOMIC SPHERE DEPENDENT PARAMETERS FOR ATOM  Pr        
:e__0001: OVERALL ENERGY PARAMETER IS    0.2942
          OVERALL BASIS SET ON ATOM IS LAPW
:E0_0001: E( 0)=    0.2942
             APW+lo
:E0_0001: E( 0)=   -2.1899   E(BOTTOM)=   -2.571   E(TOP)=   -1.809  4  5   167
             LOCAL ORBITAL
:E1_0001: E( 1)=    0.6942
             APW+lo
:E1_0001: E( 1)=   -0.8019   E(BOTTOM)=   -1.448   E(TOP)=   -0.156  3  4   167
             LOCAL ORBITAL
:E3_0001: E( 3)=    0.4817   E(BOTTOM)=    0.340   E(TOP)=    0.623  0  1   116
             APW+lo
:E2_0001: E( 2)=    0.2942   E(BOTTOM)=    0.128   E(TOP)= -200.000  2 -1    97
             APW+lo

       K=   0.00000   0.00000   0.00000            1
:RKM  : MATRIX SIZE   189LOs:  20  RKM= 7.94  WEIGHT= 1.00  PGR:    
       EIGENVALUES ARE:
:EIG00001:      -2.1466987   -0.7904816   -0.7904816   -0.7904816    0.2444852
:EIG00006:       0.4846724    0.4992215    0.4992215    0.4992215    0.5190528
:EIG00011:       0.5190528    0.5190528    0.6192389    0.6192389    0.6192389
:EIG00016:       0.7697845    0.7697845    1.1631135    1.3691012    1.3691012
:EIG00021:       1.3691012    1.4784052
       ********************************************************

:KPT   :      NUMBER OF K-POINTS:   165
:GAP (global)   :    0.0    Ry =     0.0   eV (metal)
         Bandranges (emin - emax) and occupancy:
:BAN00001:   1   -2.146699   -2.138125  2.00000000
:BAN00002:   2   -0.849901   -0.790482  2.00000000
:BAN00003:   3   -0.828945   -0.790482  2.00000000
:BAN00004:   4   -0.812413   -0.790482  2.00000000
:BAN00005:   5    0.244485    0.472605  2.00000000
:BAN00006:   6    0.436618    0.493798  2.00000000
:BAN00007:   7    0.484401    0.501326  1.00000000
:BAN00008:   8    0.495997    0.504952  0.00000000
:BAN00009:   9    0.499222    0.506960  0.00000000
:BAN00010:  10    0.502772    0.519053  0.00000000
:BAN00011:  11    0.506388    0.519053  0.00000000
:BAN00012:  12    0.508411    0.525105  0.00000000
        Energy to separate low and high energystates:    0.19449


:NOE  : NUMBER OF ELECTRONS          =   13.000

:FER  : F E R M I - ENERGY(TETRAH.M.)=   0.4947518249
:GMA  : POTENTIAL AND CHARGE CUT-OFF  12.00 Ry**.5

:POS001: ATOM    1 X,Y,Z = 0.00000 0.00000 0.50000  MULT= 1  ZZ= 59.000  Pr        

       LMMAX  5
       LM=   0 0  4 0  4 4  6 0  6 4

:CHA001: TOTAL VALENCE CHARGE INSIDE SPHERE   1 =  10.0300    (RMT=  2.5000 )
:PCS001: PARTIAL CHARGES SPHERE =  1 S,P,D,F,      D-EG,D-T2G 
:QTL001: 2.0250 5.3597 0.5565 2.0886 0.0000 0.0000 0.0000 0.1977 0.3588 0.0000 0.0000 0.0000
        Q-s-low E-s-low   Q-p-low E-p-low   Q-d-low E-d-low   Q-f-low E-f-low
:EPL001:  1.9259 -2.1399    5.2972 -0.8155    0.0006 -0.8282    0.0002 -0.8304
        Q-s-hi  E-s-hi    Q-p-hi  E-p-hi    Q-d-hi  E-d-hi    Q-f-hi  E-f-hi 
:EPH001:  0.0991  0.3917    0.0624  0.4306    0.5559  0.4501    2.0885  0.4836

:CHA  : TOTAL VALENCE CHARGE INSIDE UNIT CELL =      13.000000

:SUM  : SUM OF EIGENVALUES =          -6.901892486


        1.ATOM      Pr                   14 CORE STATES
:1S 001: 1S               -3067.084493601 Ry
:2S 001: 2S                -492.849254390 Ry
:2PP001: 2P*               -465.947030561 Ry
:2P 001: 2P                -430.550167977 Ry
:3S 001: 3S                -105.945611141 Ry
:3PP001: 3P*                -94.483099565 Ry
:3P 001: 3P                 -87.475624264 Ry
:3DD001: 3D*                -67.402166444 Ry
:3D 001: 3D                 -65.890714166 Ry
:4S 001: 4S                 -20.628518994 Ry
:4PP001: 4P*                -16.335391546 Ry
:4P 001: 4P                 -14.808186765 Ry
:4DD001: 4D*                 -7.741541493 Ry
:4D 001: 4D                  -7.472210480 Ry
:CINT001 Core Integral Atom   1   45.999517

       DENSITY AT NUCLEUS
        JATOM        VALENCE       SEMI-CORE          CORE           TOTAL
:RTO001:   1      648.978522        0.000000   656821.574135   657470.552657
     
       CHARGES OF NEW CHARGE DENSITY
:NTO   : INTERSTITIAL CHARGE =     2.970015
:NPC   : PW Pseudocharge     =     7.562951
:NTO001: CHARGE SPHERE  1    =    56.029502

:NEC01: NUCLEAR AND ELECTRONIC CHARGE     59.00000    58.99952
     
       CHARGES OF OLD CHARGE DENSITY
:OTO   : INTERSTITIAL CHARGE =     2.952842
:OPC   : PW Pseudocharge     =     7.562357
:OTO001: CHARGE SPHERE  1    =    56.047158

:NEC02: NUCLEAR AND ELECTRONIC CHARGE     59.00000    59.00000
     
       CONVERGENCE TEST
:DTO001: DIFFERENCE IN SPHERE  1 =  0.0942927

:DIS  :  CHARGE DISTANCE       ( 0.0942927 for atom    1 spin 1)      0.0942927
 PW Mixed is           59
 
******************************************************
* MULTISECANT MIXING VER9 RELEASE 10.4.0              *
* Slow Mode, cautious                                *
* Fixed density scale                                *
* Regularization       1.000E-04                     *
* Step Trust Radius    0.75000                       *
* Trust Upper Limit    2.000E+00                     *
* Max Number of Memory Steps   12                    *
******************************************************
 
:PWTMP   2.0594E+02  1.2500E+02  2.7139E+02
:PLANE:  PW TOTAL      2.8445 DISTAN   6.28E-02  2.21E+00 %
:CHARG:  CLM/ATOM    977.2528 DISTAN   6.24E-01  6.38E-02 %
 
Step History
        DMIX         DMIXT        Red     Pred      Trust     Lambda    MagRel    MagAbs     Beta
  1   3.5000E-02   3.5000E-02 -1.00E+00  1.00E+00 -1.00E+01  1.00E+00  3.50E-02  3.50E-02  1.00E+00
  2   2.5000E-02   2.5000E-02  8.53E-01  1.00E+00 -1.00E+01  1.00E+00  2.50E-02  1.89E-02  1.00E+00
  3   2.0000E-02   2.0000E-02 -1.00E+00  9.90E-01  2.12E-01  1.00E+00  1.43E-01  9.25E-02  1.00E+00
:JACOBIANS    7.466E-01   2.614E-01
  
:NORMS:  1/Froebius, Min, Max, Used   0.9775E+00  0.7533E+00  0.9986E+00  0.9786E+00
:INFO :  Number of Memory Steps    2 Skipping    0
:INFO :  SLambda=    0.9867521174  Max    0.9867521174
:PREDicted Charge, CTotal, PW Trust    1.782E-02   1.782E-02   5.814E-02
:PREDicted DMix, Beta, BLim   5.0526E-01  1.8721E+00  6.7814E-01

Eigenvalues, unscaled except for SY+YY
   #     SY Real        SY Imag          SS             YY         SY+YY Real      SY+YY Imag
   1   1.912698E+00   0.000000E+00   1.905376E+00   1.989515E+00   3.876781E+00   0.000000E+00
   2   5.532736E-03   0.000000E+00   5.454104E-03   1.048490E-02   1.603789E-02   0.000000E+00
 
:INFO :  Singular value  3.877E+00 Weight  1.000E+00 Projection -3.651E-02
:INFO :  Singular value  1.604E-02 Weight  9.998E-01 Projection -5.656E+00
:RANK :  ACTIVE   2.00/2  =  99.99 % ; YY RANK   2.00/2  =  99.98 %
 
:BLIM :  VZERO Control Off
:TRUST:  Step 4.45E-01  Charge 7.50E-02 (e) CTO  2.50E-01 (e) PW  3.50E-01 (e)
:DTRUS:  Lambda    9.641E-01 Increment    7.276E-12 Iterations   110 DMIX    3.256E-02
:INFOA:  Angle SubSpace to MSR1      2.29
:DIRM :  MEMORY  2/12 SCALE   1.000 RED  0.97 PRED  0.99 NEXT  0.71 
:INFO :  Limited by Atoms F by Step T

:TRAVE:  Charge 1.98E-03 (e) CTO  1.98E-03 (e) PW  3.75E-02 (e)
:DIRP :  |MSR1|= 3.157E-02 |PRATT|= 6.281E-02 ANGLE=  10.1 DEGREES
:DIRQ :  |MSR1|= 2.772E-01 |PRATT|= 6.238E-01 ANGLE=   1.7 DEGREES
:DIRT :  |MSR1|= 2.790E-01 |PRATT|= 6.269E-01 ANGLE=   2.1 DEGREES
:MIX  :   MSD1   REGULARIZATION:  1.99E-04 GREED: 0.05000  LMStep 0.65  0.4450 Step           
     
       CHARGES OF MIXED CHARGE DENSITY
:CTO   : INTERSTITIAL CHARGE =     2.955887
:CPC   : PW Pseudocharge     =     7.551324
:CTO001: CHARGE SPHERE  1    =    56.044113

:NEC03: NUCLEAR AND ELECTRONIC CHARGE     59.00000    59.00000

PW CHANGE     H    K    L      Current       Change    Residue
:PTO001:      0    0    0  3.87164941E-02 -2.944E-05  7.178E-05
:PTO002:     -1   -1   -1 -1.26282517E-01  4.988E-04  5.920E-04
:PTO003:      0    0   -2  7.59918567E-02 -5.326E-04 -8.507E-04
:PTO004:      0   -2   -2  6.81460915E-02  3.320E-05  5.732E-04
:PTO005:     -1   -1   -3 -7.04523263E-02  1.832E-03  3.414E-03
:PTO006:     -2   -2   -2  1.85867161E-02 -6.670E-04 -1.286E-03
:PTO007:      0    0   -4  4.51701485E-03 -6.438E-04 -1.354E-03
:PTO008:     -1   -3   -3 -5.85986166E-03  1.172E-03  2.357E-03
:PTO009:      0   -2   -4  2.81868903E-03 -1.237E-03 -2.549E-03
:PTO010:     -2   -2   -4 -3.93121425E-03 -1.176E-03 -2.526E-03
:PTO011:     -3   -3   -3  1.95913496E-03  4.149E-04  9.135E-04
:PTO012:     -1   -1   -5  5.67393531E-03  1.062E-03  2.339E-03

:ENE  : ********** TOTAL ENERGY IN Ry =       -18472.06047816

 Flat Integration
 New Mode for Coulomb Integral
 Consistent 3/8+Simpson combinations
 Extension of core to zero
 LDM version in phi
 Fifth-order quadrature in outwin


            ---------
:ITE004:  4. ITERATION
            ---------

:NATO :    1 INDEPENDENT AND    1 TOTAL ATOMS IN UNITCELL
       SUBSTANCE: blebleble                                                   

       LATTICE                      = F   
:POT  : POTENTIAL OPTION EX_LDA EC_LDA VX_LDA VC_LDA
:LAT  : LATTICE CONSTANTS= 10.27741 10.27741 10.27741    1.571    1.571    1.571
:VOL  : UNIT CELL VOLUME =     271.38850
       MODE OF CALCULATION IS       = RELA
       NON-SPINPOLARIZED CALCULATION
:IFFT  : FFT-parameters:   80   80   80 Factor: 2.00


   CONVERGENCE PARAMETER FOR PSEUDOCHARGE: NCON=  9
   MAXIMAL VALUE OF RMT(JATOM)*ABSK(NKK) : RK  =29.95033


:VKCOUL :  VK-COUL convergence: 0.686E-07
       ATOMNUMBER=  1 Pr         VCOUL-ZERO =  0.14503E+00
:FIT001: LUSE= 13 SIGMA OF V-XC FIT FOR ATOM  1  0.1151071E-04
:FIT001: LUSE= 13 SIGMA OF V-XC FIT FOR ATOM  1  0.1151071E-04
:DEN  : DENSITY INTEGRAL  =         -7066.31912749   (Ry)
       ELS_POTENTIAL_AT Z=0 and Z=0.5:  -2.37339  -2.37339
       ELS_POTENTIAL_AT Y=0 and Y=0.5:   0.00000   0.00000
:VZERO:v0,v0c,v0x  -3.32001  -2.37339  -0.94662 v5,v5c,v5x  -3.32001  -2.37339  -0.94662
:VZERY:v0,v0c,v0x  -0.67687   0.00000  -0.67687 v5,v5c,v5x  -0.67687   0.00000  -0.67687
:VZERX:v0,v0c,v0x  -0.67687   0.00000  -0.67687 v5,v5c,v5x  -0.67687   0.00000  -0.67687
:LMAX-WF:   10   Non-Spherical LMAX:   4

          ATOMIC SPHERE DEPENDENT PARAMETERS FOR ATOM  Pr        
:e__0001: OVERALL ENERGY PARAMETER IS    0.2946
          OVERALL BASIS SET ON ATOM IS LAPW
:E0_0001: E( 0)=    0.2946
             APW+lo
:E0_0001: E( 0)=   -2.1918   E(BOTTOM)=   -2.573   E(TOP)=   -1.811  4  5   168
             LOCAL ORBITAL
:E1_0001: E( 1)=    0.6946
             APW+lo
:E1_0001: E( 1)=   -0.8037   E(BOTTOM)=   -1.450   E(TOP)=   -0.158  3  4   166
             LOCAL ORBITAL
:E3_0001: E( 3)=    0.4806   E(BOTTOM)=    0.339   E(TOP)=    0.622  0  1   115
             APW+lo
:E2_0001: E( 2)=    0.2946   E(BOTTOM)=    0.126   E(TOP)= -200.000  2 -1    93
             APW+lo

       K=   0.00000   0.00000   0.00000            1
:RKM  : MATRIX SIZE   189LOs:  20  RKM= 7.94  WEIGHT= 1.00  PGR:    
       EIGENVALUES ARE:
:EIG00001:      -2.1485544   -0.7921461   -0.7921461   -0.7921461    0.2449400
:EIG00006:       0.4843442    0.4981333    0.4981333    0.4981333    0.5180055
:EIG00011:       0.5180055    0.5180055    0.6192410    0.6192410    0.6192410
:EIG00016:       0.7692078    0.7692078    1.1631888    1.3695778    1.3695778
:EIG00021:       1.3695778    1.4777774
       ********************************************************

:KPT   :      NUMBER OF K-POINTS:   165
:GAP (global)   :    0.0    Ry =     0.0   eV (metal)
         Bandranges (emin - emax) and occupancy:
:BAN00001:   1   -2.148554   -2.140008  2.00000000
:BAN00002:   2   -0.851350   -0.792146  2.00000000
:BAN00003:   3   -0.830467   -0.792146  2.00000000
:BAN00004:   4   -0.813995   -0.792146  2.00000000
:BAN00005:   5    0.244940    0.472039  2.00000000
:BAN00006:   6    0.436684    0.493152  2.00000000
:BAN00007:   7    0.483558    0.500336  1.00000000
:BAN00008:   8    0.495091    0.503894  0.00000000
:BAN00009:   9    0.498133    0.506578  0.00000000
:BAN00010:  10    0.501692    0.518005  0.00000000
:BAN00011:  11    0.505430    0.518005  0.00000000
:BAN00012:  12    0.507323    0.524253  0.00000000
        Energy to separate low and high energystates:    0.19494


:NOE  : NUMBER OF ELECTRONS          =   13.000

:FER  : F E R M I - ENERGY(TETRAH.M.)=   0.4938868427
:GMA  : POTENTIAL AND CHARGE CUT-OFF  12.00 Ry**.5

:POS001: ATOM    1 X,Y,Z = 0.00000 0.00000 0.50000  MULT= 1  ZZ= 59.000  Pr        

       LMMAX  5
       LM=   0 0  4 0  4 4  6 0  6 4

:CHA001: TOTAL VALENCE CHARGE INSIDE SPHERE   1 =  10.0459    (RMT=  2.5000 )
:PCS001: PARTIAL CHARGES SPHERE =  1 S,P,D,F,      D-EG,D-T2G 
:QTL001: 2.0248 5.3602 0.5526 2.1082 0.0000 0.0000 0.0000 0.1966 0.3560 0.0000 0.0000 0.0000
        Q-s-low E-s-low   Q-p-low E-p-low   Q-d-low E-d-low   Q-f-low E-f-low
:EPL001:  1.9260 -2.1418    5.2988 -0.8171    0.0006 -0.8297    0.0002 -0.8319
        Q-s-hi  E-s-hi    Q-p-hi  E-p-hi    Q-d-hi  E-d-hi    Q-f-hi  E-f-hi 
:EPH001:  0.0988  0.3917    0.0614  0.4299    0.5519  0.4496    2.1080  0.4830

:CHA  : TOTAL VALENCE CHARGE INSIDE UNIT CELL =      13.000000

:SUM  : SUM OF EIGENVALUES =          -6.916620937


        1.ATOM      Pr                   14 CORE STATES
:1S 001: 1S               -3067.100875044 Ry
:2S 001: 2S                -492.858696522 Ry
:2PP001: 2P*               -465.957478089 Ry
:2P 001: 2P                -430.560188065 Ry
:3S 001: 3S                -105.948836650 Ry
:3PP001: 3P*                -94.486652749 Ry
:3P 001: 3P                 -87.478870792 Ry
:3DD001: 3D*                -67.406081425 Ry
:3D 001: 3D                 -65.894521258 Ry
:4S 001: 4S                 -20.628943786 Ry
:4PP001: 4P*                -16.335912157 Ry
:4P 001: 4P                 -14.808772763 Ry
:4DD001: 4D*                 -7.742297116 Ry
:4D 001: 4D                  -7.472989504 Ry
:CINT001 Core Integral Atom   1   45.999517

       DENSITY AT NUCLEUS
        JATOM        VALENCE       SEMI-CORE          CORE           TOTAL
:RTO001:   1      648.945255        0.000000   656823.285788   657472.231043
     
       CHARGES OF NEW CHARGE DENSITY
:NTO   : INTERSTITIAL CHARGE =     2.954092
:NPC   : PW Pseudocharge     =     7.562796
:NTO001: CHARGE SPHERE  1    =    56.045424

:NEC01: NUCLEAR AND ELECTRONIC CHARGE     59.00000    58.99952
     
       CHARGES OF OLD CHARGE DENSITY
:OTO   : INTERSTITIAL CHARGE =     2.955887
:OPC   : PW Pseudocharge     =     7.551324
:OTO001: CHARGE SPHERE  1    =    56.044113

:NEC02: NUCLEAR AND ELECTRONIC CHARGE     59.00000    59.00000
     
       CONVERGENCE TEST
:DTO001: DIFFERENCE IN SPHERE  1 =  0.0493491

:DIS  :  CHARGE DISTANCE       ( 0.0493491 for atom    1 spin 1)      0.0493491
 PW Mixed is           59
 
******************************************************
* MULTISECANT MIXING VER9 RELEASE 10.4.0              *
* Standard Mode with controls                        *
* Fixed density scale                                *
* Regularization       1.000E-04                     *
* Trust Upper Limit    5.000E+00                     *
* Max Number of Memory Steps    8                    *
******************************************************
 
:PWTMP   2.0594E+02  1.2500E+02  2.7139E+02
:PLANE:  PW TOTAL      2.8317 DISTAN   3.13E-02  1.10E+00 %
:CHARG:  CLM/ATOM    977.2181 DISTAN   3.39E-01  3.47E-02 %
 
Step History
        DMIX         DMIXT        Red     Pred      Trust     Lambda    MagRel    MagAbs     Beta
  1   3.5000E-02   3.5000E-02 -1.00E+00  1.00E+00 -1.00E+01  1.00E+00  3.50E-02  3.50E-02  1.00E+00
  2   2.5000E-02   2.5000E-02  8.53E-01  1.00E+00 -1.00E+01  1.00E+00  2.50E-02  1.89E-02  1.00E+00
  3   2.0000E-02   2.0000E-02  9.70E-01  9.90E-01  2.12E-01  9.87E-01  1.43E-01  9.25E-02  1.00E+00
  4   5.0000E-02   3.2556E-02 -1.00E+00  7.13E-01  4.45E-01  1.00E+00  4.45E-01  2.79E-01  1.00E+00
:JACOBIANS    8.743E-01   6.298E-01
  
:NORMS:  1/Froebius, Min, Max, Used   0.9717E+00  0.6715E+00  0.9988E+00  0.9717E+00
:INFO :  Number of Memory Steps    3 Skipping    0
:INFO :  SLambda=    1.0194961935  Max    1.0194961935
:PREDicted Charge, CTotal, PW Trust    5.686E-03   5.686E-03   4.055E-03
:PREDicted DMix, Beta, BLim   2.2029E-01  2.0875E+00  9.6800E-01

Eigenvalues, unscaled except for SY+YY
   #     SY Real        SY Imag          SS             YY         SY+YY Real      SY+YY Imag
   1   2.461685E+00   0.000000E+00   2.412174E+00   2.567497E+00   5.077174E+00   0.000000E+00
   2   4.241438E-01   0.000000E+00   4.202108E-01   4.319894E-01   8.643988E-01   0.000000E+00
   3   2.703024E-05   0.000000E+00   1.391828E-06   5.133071E-04   5.464646E-04   0.000000E+00
 
:INFO :  Singular value  5.077E+00 Weight  1.000E+00 Projection -1.986E-01
:INFO :  Singular value  8.644E-01 Weight  1.000E+00 Projection -1.795E-01
:INFO :  Singular value  5.465E-04 Weight  8.192E-01 Projection  1.278E+00
:RANK :  ACTIVE   2.82/3  =  93.97 % ; YY RANK   2.80/3  =  93.33 %
 
:BLIM :  VZERO Control Off
:TRUST:  Step 6.48E-01  Charge 7.50E-02 (e) CTO  2.50E-01 (e) PW  3.50E-01 (e)
:DTRUS:  Lambda    9.250E-01 Increment    7.276E-12 Iterations   107 DMIX    1.116E-01
:INFOA:  Angle SubSpace to MSR1      0.32
:DIRM :  MEMORY  3/8  SCALE   1.000 RED  0.54 PRED  0.71 NEXT  0.34 
:INFO :  Limited by Atoms F by Step T

:TRAVE:  Charge 1.28E-03 (e) CTO  1.28E-03 (e) PW  2.09E-02 (e)
:DIRP :  |MSR1|= 1.968E-02 |PRATT|= 3.127E-02 ANGLE=   1.8 DEGREES
:DIRQ :  |MSR1|= 2.199E-01 |PRATT|= 3.392E-01 ANGLE=   1.8 DEGREES
:DIRT :  |MSR1|= 2.208E-01 |PRATT|= 3.406E-01 ANGLE=   1.8 DEGREES
:MIX  :   MSE1   REGULARIZATION:  2.57E-04 GREED: 0.12500  LMStep 0.67  0.6482 Step           
     
       CHARGES OF MIXED CHARGE DENSITY
:CTO   : INTERSTITIAL CHARGE =     2.956478
:CPC   : PW Pseudocharge     =     7.560190
:CTO001: CHARGE SPHERE  1    =    56.043522

:NEC03: NUCLEAR AND ELECTRONIC CHARGE     59.00000    59.00000

PW CHANGE     H    K    L      Current       Change    Residue
:PTO001:      0    0    0  3.87513438E-02  3.485E-05  4.200E-05
:PTO002:     -1   -1   -1 -1.26290654E-01 -8.136E-06  1.401E-05
:PTO003:      0    0   -2  7.58500805E-02 -1.418E-04 -2.300E-04
:PTO004:      0   -2   -2  6.85555145E-02  4.094E-04  6.152E-04
:PTO005:     -1   -1   -3 -6.95435886E-02  9.087E-04  1.480E-03
:PTO006:     -2   -2   -2  1.82146362E-02 -3.721E-04 -6.115E-04
:PTO007:      0    0   -4  4.08327115E-03 -4.337E-04 -6.826E-04
:PTO008:     -1   -3   -3 -5.12817618E-03  7.317E-04  1.191E-03
:PTO009:      0   -2   -4  2.01472515E-03 -8.040E-04 -1.283E-03
:PTO010:     -2   -2   -4 -4.77920907E-03 -8.480E-04 -1.349E-03
:PTO011:     -3   -3   -3  2.27634341E-03  3.172E-04  5.029E-04
:PTO012:     -1   -1   -5  6.46811024E-03  7.942E-04  1.237E-03

:ENE  : ********** TOTAL ENERGY IN Ry =       -18472.06044364

 Flat Integration
 New Mode for Coulomb Integral
 Consistent 3/8+Simpson combinations
 Extension of core to zero
 LDM version in phi
 Fifth-order quadrature in outwin


            ---------
:ITE005:  5. ITERATION
            ---------

:NATO :    1 INDEPENDENT AND    1 TOTAL ATOMS IN UNITCELL
       SUBSTANCE: blebleble                                                   

       LATTICE                      = F   
:POT  : POTENTIAL OPTION EX_LDA EC_LDA VX_LDA VC_LDA
:LAT  : LATTICE CONSTANTS= 10.27741 10.27741 10.27741    1.571    1.571    1.571
:VOL  : UNIT CELL VOLUME =     271.38850
       MODE OF CALCULATION IS       = RELA
       NON-SPINPOLARIZED CALCULATION
:IFFT  : FFT-parameters:   80   80   80 Factor: 2.00


   CONVERGENCE PARAMETER FOR PSEUDOCHARGE: NCON=  9
   MAXIMAL VALUE OF RMT(JATOM)*ABSK(NKK) : RK  =29.95033


:VKCOUL :  VK-COUL convergence: 0.110E-06
       ATOMNUMBER=  1 Pr         VCOUL-ZERO =  0.14449E+00
:FIT001: LUSE= 13 SIGMA OF V-XC FIT FOR ATOM  1  0.3322909E-04
:FIT001: LUSE= 13 SIGMA OF V-XC FIT FOR ATOM  1  0.3322909E-04
:DEN  : DENSITY INTEGRAL  =         -7066.31060904   (Ry)
       ELS_POTENTIAL_AT Z=0 and Z=0.5:  -2.38158  -2.38158
       ELS_POTENTIAL_AT Y=0 and Y=0.5:   0.00000   0.00000
:VZERO:v0,v0c,v0x  -3.32489  -2.38158  -0.94331 v5,v5c,v5x  -3.32489  -2.38158  -0.94331
:VZERY:v0,v0c,v0x  -0.67714   0.00000  -0.67714 v5,v5c,v5x  -0.67714   0.00000  -0.67714
:VZERX:v0,v0c,v0x  -0.67714   0.00000  -0.67714 v5,v5c,v5x  -0.67714   0.00000  -0.67714
:LMAX-WF:   10   Non-Spherical LMAX:   4

          ATOMIC SPHERE DEPENDENT PARAMETERS FOR ATOM  Pr        
:e__0001: OVERALL ENERGY PARAMETER IS    0.2941
          OVERALL BASIS SET ON ATOM IS LAPW
:E0_0001: E( 0)=    0.2941
             APW+lo
:E0_0001: E( 0)=   -2.1920   E(BOTTOM)=   -2.573   E(TOP)=   -1.811  4  5   163
             LOCAL ORBITAL
:E1_0001: E( 1)=    0.6941
             APW+lo
:E1_0001: E( 1)=   -0.8041   E(BOTTOM)=   -1.450   E(TOP)=   -0.158  3  4   168
             LOCAL ORBITAL
:E3_0001: E( 3)=    0.4818   E(BOTTOM)=    0.340   E(TOP)=    0.624  0  1   119
             APW+lo
:E2_0001: E( 2)=    0.2941   E(BOTTOM)=    0.126   E(TOP)= -200.000  2 -1    96
             APW+lo

       K=   0.00000   0.00000   0.00000            1
:RKM  : MATRIX SIZE   189LOs:  20  RKM= 7.94  WEIGHT= 1.00  PGR:    
       EIGENVALUES ARE:
:EIG00001:      -2.1487609   -0.7924193   -0.7924193   -0.7924193    0.2455197
:EIG00006:       0.4858335    0.4992227    0.4992227    0.4992227    0.5191670
:EIG00011:       0.5191670    0.5191670    0.6196849    0.6196849    0.6196849
:EIG00016:       0.7693178    0.7693178    1.1636060    1.3702125    1.3702125
:EIG00021:       1.3702125    1.4773412
       ********************************************************

:KPT   :      NUMBER OF K-POINTS:   165
:GAP (global)   :    0.0    Ry =     0.0   eV (metal)
         Bandranges (emin - emax) and occupancy:
:BAN00001:   1   -2.148761   -2.140223  2.00000000
:BAN00002:   2   -0.851538   -0.792419  2.00000000
:BAN00003:   3   -0.830682   -0.792419  2.00000000
:BAN00004:   4   -0.814234   -0.792419  2.00000000
:BAN00005:   5    0.245520    0.472709  2.00000000
:BAN00006:   6    0.437081    0.494019  2.00000000
:BAN00007:   7    0.484447    0.501478  1.00000000
:BAN00008:   8    0.496118    0.504990  0.00000000
:BAN00009:   9    0.499223    0.508079  0.00000000
:BAN00010:  10    0.502737    0.519167  0.00000000
:BAN00011:  11    0.506552    0.519167  0.00000000
:BAN00012:  12    0.508443    0.525159  0.00000000
        Energy to separate low and high energystates:    0.19552


:NOE  : NUMBER OF ELECTRONS          =   13.000

:FER  : F E R M I - ENERGY(TETRAH.M.)=   0.4949479719
:GMA  : POTENTIAL AND CHARGE CUT-OFF  12.00 Ry**.5

:POS001: ATOM    1 X,Y,Z = 0.00000 0.00000 0.50000  MULT= 1  ZZ= 59.000  Pr        

       LMMAX  5
       LM=   0 0  4 0  4 4  6 0  6 4

:CHA001: TOTAL VALENCE CHARGE INSIDE SPHERE   1 =  10.0343    (RMT=  2.5000 )
:PCS001: PARTIAL CHARGES SPHERE =  1 S,P,D,F,      D-EG,D-T2G 
:QTL001: 2.0248 5.3613 0.5585 2.0895 0.0000 0.0000 0.0000 0.1985 0.3601 0.0000 0.0000 0.0000
        Q-s-low E-s-low   Q-p-low E-p-low   Q-d-low E-d-low   Q-f-low E-f-low
:EPL001:  1.9260 -2.1420    5.2993 -0.8173    0.0006 -0.8300    0.0002 -0.8321
        Q-s-hi  E-s-hi    Q-p-hi  E-p-hi    Q-d-hi  E-d-hi    Q-f-hi  E-f-hi 
:EPH001:  0.0988  0.3923    0.0619  0.4309    0.5579  0.4505    2.0894  0.4840

:CHA  : TOTAL VALENCE CHARGE INSIDE UNIT CELL =      13.000000

:SUM  : SUM OF EIGENVALUES =          -6.914684696


        1.ATOM      Pr                   14 CORE STATES
:1S 001: 1S               -3067.110078955 Ry
:2S 001: 2S                -492.862620903 Ry
:2PP001: 2P*               -465.962153697 Ry
:2P 001: 2P                -430.564541990 Ry
:3S 001: 3S                -105.948184191 Ry
:3PP001: 3P*                -94.486240274 Ry
:3P 001: 3P                 -87.478236584 Ry
:3DD001: 3D*                -67.405927613 Ry
:3D 001: 3D                 -65.894289082 Ry
:4S 001: 4S                 -20.626641402 Ry
:4PP001: 4P*                -16.333715830 Ry
:4P 001: 4P                 -14.806677158 Ry
:4DD001: 4D*                 -7.740425927 Ry
:4D 001: 4D                  -7.471154173 Ry
:CINT001 Core Integral Atom   1   45.999516

       DENSITY AT NUCLEUS
        JATOM        VALENCE       SEMI-CORE          CORE           TOTAL
:RTO001:   1      648.866442        0.000000   656824.478476   657473.344917
     
       CHARGES OF NEW CHARGE DENSITY
:NTO   : INTERSTITIAL CHARGE =     2.965689
:NPC   : PW Pseudocharge     =     7.570041
:NTO001: CHARGE SPHERE  1    =    56.033827

:NEC01: NUCLEAR AND ELECTRONIC CHARGE     59.00000    58.99952
     
       CHARGES OF OLD CHARGE DENSITY
:OTO   : INTERSTITIAL CHARGE =     2.956478
:OPC   : PW Pseudocharge     =     7.560190
:OTO001: CHARGE SPHERE  1    =    56.043522

:NEC02: NUCLEAR AND ELECTRONIC CHARGE     59.00000    59.00000
     
       CONVERGENCE TEST
:DTO001: DIFFERENCE IN SPHERE  1 =  0.0241769

:DIS  :  CHARGE DISTANCE       ( 0.0241769 for atom    1 spin 1)      0.0241769
 PW Mixed is           59
 
******************************************************
* MULTISECANT MIXING VER9 RELEASE 10.4.0              *
* Standard Mode with controls                        *
* Fixed density scale                                *
* Regularization       1.000E-04                     *
* Trust Upper Limit    5.000E+00                     *
* Max Number of Memory Steps    8                    *
******************************************************
 
:PWTMP   2.0594E+02  1.2500E+02  2.7139E+02
:PLANE:  PW TOTAL      2.8310 DISTAN   1.22E-02  4.32E-01 %
:CHARG:  CLM/ATOM    977.1916 DISTAN   1.16E-01  1.19E-02 %
 
Step History
        DMIX         DMIXT        Red     Pred      Trust     Lambda    MagRel    MagAbs     Beta
  1   3.5000E-02   3.5000E-02 -1.00E+00  1.00E+00 -1.00E+01  1.00E+00  3.50E-02  3.50E-02  1.00E+00
  2   2.5000E-02   2.5000E-02  8.53E-01  1.00E+00 -1.00E+01  1.00E+00  2.50E-02  1.89E-02  1.00E+00
  3   2.0000E-02   2.0000E-02  9.70E-01  9.90E-01  2.12E-01  9.87E-01  1.43E-01  9.25E-02  1.00E+00
  4   5.0000E-02   3.2556E-02  5.43E-01  7.13E-01  4.45E-01  1.02E+00  4.45E-01  2.79E-01  1.00E+00
  5   1.2500E-01   1.1159E-01 -1.00E+00  3.43E-01  6.48E-01  1.00E+00  6.48E-01  2.21E-01  1.00E+00
:JACOBIANS    9.399E-01   8.240E-01
  
:NORMS:  1/Froebius, Min, Max, Used   0.9704E+00  0.6386E+00  0.9982E+00  0.9715E+00
:INFO :  Number of Memory Steps    4 Skipping    0
:INFO :  SLambda=    1.0170425276  Max    1.0170425276
:PREDicted Charge, CTotal, PW Trust    1.918E-03   1.918E-03   8.109E-03
:PREDicted DMix, Beta, BLim   3.6276E-02  1.4877E+00  9.6646E-01

Eigenvalues, unscaled except for SY+YY
   #     SY Real        SY Imag          SS             YY         SY+YY Real      SY+YY Imag
   1   3.603753E+00   0.000000E+00   3.506740E+00   3.715792E+00   7.380945E+00   0.000000E+00
   2   2.619570E-01   0.000000E+00   2.595965E-01   2.756594E-01   5.419042E-01   0.000000E+00
   3   2.441281E-06   0.000000E+00   9.478276E-05   8.543814E-03   7.882978E-06   0.000000E+00
   4   5.157822E-04   0.000000E+00   3.727957E-07   5.143441E-06   9.262079E-03   0.000000E+00
 
:INFO :  Singular value  7.381E+00 Weight  1.000E+00 Projection -5.686E-02
:INFO :  Singular value  5.419E-01 Weight  1.000E+00 Projection -3.077E-02
:INFO :  Singular value  9.262E-03 Weight  9.984E-01 Projection  1.960E-01
:INFO :  Singular value  7.883E-06 Weight  4.499E-04 Projection  6.592E-03
:RANK :  ACTIVE   3.00/4  =  74.97 % ; YY RANK   3.00/4  =  74.96 %
 
:BLIM :  VZERO Control Off
:TRUST:  Step 8.64E-01  Charge 7.50E-02 (e) CTO  2.50E-01 (e) PW  3.50E-01 (e)
:DTRUS:  Lambda    3.832E-02 Increment    3.638E-12 Iterations   102 DMIX    5.847E-02
:INFOA:  Angle SubSpace to MSR1      0.06
:DIRM :  MEMORY  4/8  SCALE   1.000 RED  0.34 PRED  0.34 NEXT  0.29 
:INFO :  Limited by Atoms F by Step T

:TRAVE:  Charge 1.27E-03 (e) CTO  1.27E-03 (e) PW  1.22E-02 (e)
:DIRP :  |MSR1|= 8.697E-03 |PRATT|= 1.223E-02 ANGLE=   9.2 DEGREES
:DIRQ :  |MSR1|= 1.003E-01 |PRATT|= 1.159E-01 ANGLE=  15.7 DEGREES
:DIRT :  |MSR1|= 1.007E-01 |PRATT|= 1.165E-01 ANGLE=  15.7 DEGREES
:MIX  :   MSE1   REGULARIZATION:  3.72E-04 GREED: 0.05876  LMStep 0.93  0.8643 Step           
     
       CHARGES OF MIXED CHARGE DENSITY
:CTO   : INTERSTITIAL CHARGE =     2.957741
:CPC   : PW Pseudocharge     =     7.566418
:CTO001: CHARGE SPHERE  1    =    56.042259

:NEC03: NUCLEAR AND ELECTRONIC CHARGE     59.00000    59.00000

PW CHANGE     H    K    L      Current       Change    Residue
:PTO001:      0    0    0  3.87789408E-02  2.760E-05  7.658E-05
:PTO002:     -1   -1   -1 -1.26337530E-01 -4.688E-05 -3.943E-05
:PTO003:      0    0   -2  7.58135502E-02 -3.653E-05 -5.064E-05
:PTO004:      0   -2   -2  6.87829596E-02  2.274E-04  2.681E-04
:PTO005:     -1   -1   -3 -6.91876185E-02  3.560E-04  5.506E-04
:PTO006:     -2   -2   -2  1.80631211E-02 -1.515E-04 -2.454E-04
:PTO007:      0    0   -4  3.89318941E-03 -1.901E-04 -2.491E-04
:PTO008:     -1   -3   -3 -4.81847530E-03  3.097E-04  4.749E-04
:PTO009:      0   -2   -4  1.66777488E-03 -3.470E-04 -4.847E-04
:PTO010:     -2   -2   -4 -5.15538161E-03 -3.762E-04 -5.180E-04
:PTO011:     -3   -3   -3  2.41908324E-03  1.427E-04  1.930E-04
:PTO012:     -1   -1   -5  6.82612724E-03  3.580E-04  4.434E-04

:ENE  : ********** TOTAL ENERGY IN Ry =       -18472.06046086

 Flat Integration
 New Mode for Coulomb Integral
 Consistent 3/8+Simpson combinations
 Extension of core to zero
 LDM version in phi
 Fifth-order quadrature in outwin


            ---------
:ITE006:  6. ITERATION
            ---------

:NATO :    1 INDEPENDENT AND    1 TOTAL ATOMS IN UNITCELL
       SUBSTANCE: blebleble                                                   

       LATTICE                      = F   
:POT  : POTENTIAL OPTION EX_LDA EC_LDA VX_LDA VC_LDA
:LAT  : LATTICE CONSTANTS= 10.27741 10.27741 10.27741    1.571    1.571    1.571
:VOL  : UNIT CELL VOLUME =     271.38850
       MODE OF CALCULATION IS       = RELA
       NON-SPINPOLARIZED CALCULATION
:IFFT  : FFT-parameters:   80   80   80 Factor: 2.00


   CONVERGENCE PARAMETER FOR PSEUDOCHARGE: NCON=  9
   MAXIMAL VALUE OF RMT(JATOM)*ABSK(NKK) : RK  =29.95033


:VKCOUL :  VK-COUL convergence: 0.129E-06
       ATOMNUMBER=  1 Pr         VCOUL-ZERO =  0.14424E+00
:FIT001: LUSE= 13 SIGMA OF V-XC FIT FOR ATOM  1  0.4695890E-04
:FIT001: LUSE= 13 SIGMA OF V-XC FIT FOR ATOM  1  0.4695890E-04
:DEN  : DENSITY INTEGRAL  =         -7066.20464896   (Ry)
       ELS_POTENTIAL_AT Z=0 and Z=0.5:  -2.38593  -2.38593
       ELS_POTENTIAL_AT Y=0 and Y=0.5:   0.00000   0.00000
:VZERO:v0,v0c,v0x  -3.32781  -2.38593  -0.94189 v5,v5c,v5x  -3.32781  -2.38593  -0.94189
:VZERY:v0,v0c,v0x  -0.67732   0.00000  -0.67732 v5,v5c,v5x  -0.67732   0.00000  -0.67732
:VZERX:v0,v0c,v0x  -0.67732   0.00000  -0.67732 v5,v5c,v5x  -0.67732   0.00000  -0.67732
:LMAX-WF:   10   Non-Spherical LMAX:   4

          ATOMIC SPHERE DEPENDENT PARAMETERS FOR ATOM  Pr        
:e__0001: OVERALL ENERGY PARAMETER IS    0.2947
          OVERALL BASIS SET ON ATOM IS LAPW
:E0_0001: E( 0)=    0.2947
             APW+lo
:E0_0001: E( 0)=   -2.1929   E(BOTTOM)=   -2.574   E(TOP)=   -1.812  4  5   164
             LOCAL ORBITAL
:E1_0001: E( 1)=    0.6947
             APW+lo
:E1_0001: E( 1)=   -0.8048   E(BOTTOM)=   -1.451   E(TOP)=   -0.159  3  4   168
             LOCAL ORBITAL
:E3_0001: E( 3)=    0.4811   E(BOTTOM)=    0.339   E(TOP)=    0.623  0  1   119
             APW+lo
:E2_0001: E( 2)=    0.2947   E(BOTTOM)=    0.125   E(TOP)= -200.000  2 -1    93
             APW+lo

       K=   0.00000   0.00000   0.00000            1
:RKM  : MATRIX SIZE   189LOs:  20  RKM= 7.94  WEIGHT= 1.00  PGR:    
       EIGENVALUES ARE:
:EIG00001:      -2.1495530   -0.7930941   -0.7930941   -0.7930941    0.2457945
:EIG00006:       0.4853769    0.4984988    0.4984988    0.4984988    0.5184208
:EIG00011:       0.5184208    0.5184208    0.6197390    0.6197390    0.6197390
:EIG00016:       0.7691418    0.7691418    1.1637244    1.3704658    1.3704658
:EIG00021:       1.3704658    1.4772755
       ********************************************************

:KPT   :      NUMBER OF K-POINTS:   165
:GAP (global)   :    0.0    Ry =     0.0   eV (metal)
         Bandranges (emin - emax) and occupancy:
:BAN00001:   1   -2.149553   -2.141028  2.00000000
:BAN00002:   2   -0.852116   -0.793094  2.00000000
:BAN00003:   3   -0.831293   -0.793094  2.00000000
:BAN00004:   4   -0.814872   -0.793094  2.00000000
:BAN00005:   5    0.245795    0.472384  2.00000000
:BAN00006:   6    0.437189    0.493606  2.00000000
:BAN00007:   7    0.483913    0.500771  1.00000000
:BAN00008:   8    0.495498    0.504273  0.00000000
:BAN00009:   9    0.498499    0.507597  0.00000000
:BAN00010:  10    0.502031    0.518421  0.00000000
:BAN00011:  11    0.505868    0.518421  0.00000000
:BAN00012:  12    0.507704    0.524612  0.00000000
        Energy to separate low and high energystates:    0.19579


:NOE  : NUMBER OF ELECTRONS          =   13.000

:FER  : F E R M I - ENERGY(TETRAH.M.)=   0.4943390814
:GMA  : POTENTIAL AND CHARGE CUT-OFF  12.00 Ry**.5

:POS001: ATOM    1 X,Y,Z = 0.00000 0.00000 0.50000  MULT= 1  ZZ= 59.000  Pr        

       LMMAX  5
       LM=   0 0  4 0  4 4  6 0  6 4

:CHA001: TOTAL VALENCE CHARGE INSIDE SPHERE   1 =  10.0466    (RMT=  2.5000 )
:PCS001: PARTIAL CHARGES SPHERE =  1 S,P,D,F,      D-EG,D-T2G 
:QTL001: 2.0247 5.3613 0.5546 2.1059 0.0000 0.0000 0.0000 0.1973 0.3573 0.0000 0.0000 0.0000
        Q-s-low E-s-low   Q-p-low E-p-low   Q-d-low E-d-low   Q-f-low E-f-low
:EPL001:  1.9261 -2.1428    5.3000 -0.8180    0.0006 -0.8306    0.0002 -0.8328
        Q-s-hi  E-s-hi    Q-p-hi  E-p-hi    Q-d-hi  E-d-hi    Q-f-hi  E-f-hi 
:EPH001:  0.0986  0.3924    0.0612  0.4304    0.5539  0.4502    2.1057  0.4835

:CHA  : TOTAL VALENCE CHARGE INSIDE UNIT CELL =      13.000000

:SUM  : SUM OF EIGENVALUES =          -6.921131603


        1.ATOM      Pr                   14 CORE STATES
:1S 001: 1S               -3067.116650767 Ry
:2S 001: 2S                -492.866761214 Ry
:2PP001: 2P*               -465.966641400 Ry
:2P 001: 2P                -430.568881115 Ry
:3S 001: 3S                -105.950148230 Ry
:3PP001: 3P*                -94.488320447 Ry
:3P 001: 3P                 -87.480205218 Ry
:3DD001: 3D*                -67.408135828 Ry
:3D 001: 3D                 -65.896458748 Ry
:4S 001: 4S                 -20.627383344 Ry
:4PP001: 4P*                -16.334477841 Ry
:4P 001: 4P                 -14.807440936 Ry
:4DD001: 4D*                 -7.741213679 Ry
:4D 001: 4D                  -7.471943163 Ry
:CINT001 Core Integral Atom   1   45.999516

       DENSITY AT NUCLEUS
        JATOM        VALENCE       SEMI-CORE          CORE           TOTAL
:RTO001:   1      648.863789        0.000000   656825.124561   657473.988350
     
       CHARGES OF NEW CHARGE DENSITY
:NTO   : INTERSTITIAL CHARGE =     2.953402
:NPC   : PW Pseudocharge     =     7.568011
:NTO001: CHARGE SPHERE  1    =    56.046114

:NEC01: NUCLEAR AND ELECTRONIC CHARGE     59.00000    58.99952
     
       CHARGES OF OLD CHARGE DENSITY
:OTO   : INTERSTITIAL CHARGE =     2.957741
:OPC   : PW Pseudocharge     =     7.566418
:OTO001: CHARGE SPHERE  1    =    56.042259

:NEC02: NUCLEAR AND ELECTRONIC CHARGE     59.00000    59.00000
     
       CONVERGENCE TEST
:DTO001: DIFFERENCE IN SPHERE  1 =  0.0087552

:DIS  :  CHARGE DISTANCE       ( 0.0087552 for atom    1 spin 1)      0.0087552
 PW Mixed is           59
 
******************************************************
* MULTISECANT MIXING VER9 RELEASE 10.4.0              *
* Standard Mode with controls                        *
* Fixed density scale                                *
* Regularization       1.000E-04                     *
* Trust Upper Limit    5.000E+00                     *
* Max Number of Memory Steps    8                    *
******************************************************
 
:PWTMP   2.0594E+02  1.2500E+02  2.7139E+02
:PLANE:  PW TOTAL      2.8318 DISTAN   3.06E-03  1.08E-01 %
:CHARG:  CLM/ATOM    977.1793 DISTAN   2.96E-02  3.03E-03 %
 
Step History
        DMIX         DMIXT        Red     Pred      Trust     Lambda    MagRel    MagAbs     Beta
  1   3.5000E-02   3.5000E-02 -1.00E+00  1.00E+00 -1.00E+01  1.00E+00  3.50E-02  3.50E-02  1.00E+00
  2   2.5000E-02   2.5000E-02  8.53E-01  1.00E+00 -1.00E+01  1.00E+00  2.50E-02  1.89E-02  1.00E+00
  3   2.0000E-02   2.0000E-02  9.70E-01  9.90E-01  2.12E-01  9.87E-01  1.43E-01  9.25E-02  1.00E+00
  4   5.0000E-02   3.2556E-02  5.43E-01  7.13E-01  4.45E-01  1.02E+00  4.45E-01  2.79E-01  1.00E+00
  5   1.2500E-01   1.1159E-01  3.42E-01  3.43E-01  6.48E-01  1.02E+00  6.48E-01  2.21E-01  1.00E+00
  6   5.8763E-02   5.8470E-02 -1.00E+00  2.94E-01  8.64E-01  1.00E+00  8.64E-01  1.01E-01  1.00E+00
:JACOBIANS    9.729E-01   9.560E-01
  
:NORMS:  1/Froebius, Min, Max, Used   0.9705E+00  0.5210E+00  0.9975E+00  0.9720E+00
:INFO :  Number of Memory Steps    5 Skipping    0
:INFO :  SLambda=    0.8749527460  Max    0.8749527460
:PREDicted Charge, CTotal, PW Trust    9.248E-04   9.248E-04   3.138E-03
:PREDicted DMix, Beta, BLim   1.3314E-01  1.0888E+00  9.4207E-01

Eigenvalues, unscaled except for SY+YY
   #     SY Real        SY Imag          SS             YY         SY+YY Real      SY+YY Imag
   1   4.605651E+00   0.000000E+00   4.494873E+00   4.757916E+00   8.787627E+00   0.000000E+00
   2   2.156149E-01   0.000000E+00   2.147831E-01   2.180886E-01   4.066391E-01   0.000000E+00
   3   1.243982E-03   0.000000E+00   6.573137E-05   2.379597E-02   2.500300E-02   0.000000E+00
   4   4.053377E-09   0.000000E+00   5.011602E-05   1.990461E-04   5.445092E-08   0.000000E+00
   5   1.000963E-04   0.000000E+00   8.409025E-10   5.084813E-08   2.866321E-04   0.000000E+00
 
:INFO :  Singular value  8.788E+00 Weight  1.000E+00 Projection -3.884E-03
:INFO :  Singular value  4.066E-01 Weight  1.000E+00 Projection -3.706E-03
:INFO :  Singular value  2.500E-02 Weight  9.996E-01 Projection -1.614E-02
:INFO :  Singular value  2.866E-04 Weight  2.663E-01 Projection -5.356E-01
:INFO :  Singular value  5.445E-08 Weight  1.310E-08 Projection -1.107E-08
:RANK :  ACTIVE   3.27/5  =  65.32 % ; YY RANK   3.15/5  =  62.97 %
 
:BLIM :  VZERO Control Off
:TRUST:  Step 1.15E+00  Charge 7.50E-02 (e) CTO  2.50E-01 (e) PW  3.50E-01 (e)
:DIRM :  MEMORY  5/8  SCALE   1.000 RED  0.26 PRED  0.29 NEXT  0.71 
:TRAVE:  Charge 1.05E-03 (e) CTO  1.05E-03 (e) PW  6.27E-03 (e)
:DIRP :  |MSR1|= 1.475E-03 |PRATT|= 3.063E-03 ANGLE=  25.0 DEGREES
:DIRQ :  |MSR1|= 1.072E-02 |PRATT|= 2.963E-02 ANGLE=  38.2 DEGREES
:DIRT :  |MSR1|= 1.082E-02 |PRATT|= 2.979E-02 ANGLE=  38.1 DEGREES
:MIX  :   MSD1   REGULARIZATION:  4.76E-04 GREED: 0.10157  Newton 1.00  0.3633                
     
       CHARGES OF MIXED CHARGE DENSITY
:CTO   : INTERSTITIAL CHARGE =     2.956912
:CPC   : PW Pseudocharge     =     7.566450
:CTO001: CHARGE SPHERE  1    =    56.043088

:NEC03: NUCLEAR AND ELECTRONIC CHARGE     59.00000    59.00000

PW CHANGE     H    K    L      Current       Change    Residue
:PTO001:      0    0    0  3.87760078E-02 -2.933E-06 -3.760E-06
:PTO002:     -1   -1   -1 -1.26323143E-01  1.439E-05 -2.161E-05
:PTO003:      0    0   -2  7.58018525E-02 -1.170E-05  2.754E-05
:PTO004:      0   -2   -2  6.87922929E-02  9.333E-06  6.778E-05
:PTO005:     -1   -1   -3 -6.91023045E-02  8.531E-05  1.399E-04
:PTO006:     -2   -2   -2  1.80250202E-02 -3.810E-05 -8.604E-05
:PTO007:      0    0   -4  3.86615398E-03 -2.704E-05 -4.432E-05
:PTO008:     -1   -3   -3 -4.75078821E-03  6.769E-05  1.603E-04
:PTO009:      0   -2   -4  1.60798043E-03 -5.979E-05 -1.187E-04
:PTO010:     -2   -2   -4 -5.21560496E-03 -6.022E-05 -1.345E-04
:PTO011:     -3   -3   -3  2.44052229E-03  2.144E-05  4.975E-05
:PTO012:     -1   -1   -5  6.86743873E-03  4.131E-05  6.423E-05

:ENE  : ********** TOTAL ENERGY IN Ry =       -18472.06046562

 Flat Integration
 New Mode for Coulomb Integral
 Consistent 3/8+Simpson combinations
 Extension of core to zero
 LDM version in phi
 Fifth-order quadrature in outwin


            ---------
:ITE007:  7. ITERATION
            ---------

:NATO :    1 INDEPENDENT AND    1 TOTAL ATOMS IN UNITCELL
       SUBSTANCE: blebleble                                                   

       LATTICE                      = F   
:POT  : POTENTIAL OPTION EX_LDA EC_LDA VX_LDA VC_LDA
:LAT  : LATTICE CONSTANTS= 10.27741 10.27741 10.27741    1.571    1.571    1.571
:VOL  : UNIT CELL VOLUME =     271.38850
       MODE OF CALCULATION IS       = RELA
       NON-SPINPOLARIZED CALCULATION
:IFFT  : FFT-parameters:   80   80   80 Factor: 2.00


   CONVERGENCE PARAMETER FOR PSEUDOCHARGE: NCON=  9
   MAXIMAL VALUE OF RMT(JATOM)*ABSK(NKK) : RK  =29.95033


:VKCOUL :  VK-COUL convergence: 0.131E-06
       ATOMNUMBER=  1 Pr         VCOUL-ZERO =  0.14423E+00
:FIT001: LUSE= 13 SIGMA OF V-XC FIT FOR ATOM  1  0.4859678E-04
:FIT001: LUSE= 13 SIGMA OF V-XC FIT FOR ATOM  1  0.4859678E-04
:DEN  : DENSITY INTEGRAL  =         -7066.21615286   (Ry)
       ELS_POTENTIAL_AT Z=0 and Z=0.5:  -2.38591  -2.38591
       ELS_POTENTIAL_AT Y=0 and Y=0.5:   0.00000   0.00000
:VZERO:v0,v0c,v0x  -3.32764  -2.38591  -0.94173 v5,v5c,v5x  -3.32764  -2.38591  -0.94173
:VZERY:v0,v0c,v0x  -0.67729   0.00000  -0.67729 v5,v5c,v5x  -0.67729   0.00000  -0.67729
:VZERX:v0,v0c,v0x  -0.67729   0.00000  -0.67729 v5,v5c,v5x  -0.67729   0.00000  -0.67729
:LMAX-WF:   10   Non-Spherical LMAX:   4

          ATOMIC SPHERE DEPENDENT PARAMETERS FOR ATOM  Pr        
:e__0001: OVERALL ENERGY PARAMETER IS    0.2944
          OVERALL BASIS SET ON ATOM IS LAPW
:E0_0001: E( 0)=    0.2944
             APW+lo
:E0_0001: E( 0)=   -2.1927   E(BOTTOM)=   -2.573   E(TOP)=   -1.812  4  5   164
             LOCAL ORBITAL
:E1_0001: E( 1)=    0.6944
             APW+lo
:E1_0001: E( 1)=   -0.8047   E(BOTTOM)=   -1.451   E(TOP)=   -0.159  3  4   168
             LOCAL ORBITAL
:E3_0001: E( 3)=    0.4813   E(BOTTOM)=    0.339   E(TOP)=    0.623  0  1   114
             APW+lo
:E2_0001: E( 2)=    0.2944   E(BOTTOM)=    0.125   E(TOP)= -200.000  2 -1    94
             APW+lo

       K=   0.00000   0.00000   0.00000            1
:RKM  : MATRIX SIZE   189LOs:  20  RKM= 7.94  WEIGHT= 1.00  PGR:    
       EIGENVALUES ARE:
:EIG00001:      -2.1493485   -0.7929205   -0.7929205   -0.7929205    0.2458102
:EIG00006:       0.4854664    0.4987524    0.4987524    0.4987524    0.5186047
:EIG00011:       0.5186047    0.5186047    0.6198137    0.6198137    0.6198137
:EIG00016:       0.7692640    0.7692640    1.1636772    1.3704875    1.3704875
:EIG00021:       1.3704875    1.4771838
       ********************************************************

:KPT   :      NUMBER OF K-POINTS:   165
:GAP (global)   :    0.0    Ry =     0.0   eV (metal)
         Bandranges (emin - emax) and occupancy:
:BAN00001:   1   -2.149348   -2.140821  2.00000000
:BAN00002:   2   -0.851956   -0.792920  2.00000000
:BAN00003:   3   -0.831128   -0.792920  2.00000000
:BAN00004:   4   -0.814703   -0.792920  2.00000000
:BAN00005:   5    0.245810    0.472531  2.00000000
:BAN00006:   6    0.437227    0.493765  2.00000000
:BAN00007:   7    0.484116    0.500952  1.00000000
:BAN00008:   8    0.495684    0.504513  0.00000000
:BAN00009:   9    0.498752    0.507703  0.00000000
:BAN00010:  10    0.502279    0.518605  0.00000000
:BAN00011:  11    0.506045    0.518605  0.00000000
:BAN00012:  12    0.507941    0.524811  0.00000000
        Energy to separate low and high energystates:    0.19581


:NOE  : NUMBER OF ELECTRONS          =   13.000

:FER  : F E R M I - ENERGY(TETRAH.M.)=   0.4945258967
:GMA  : POTENTIAL AND CHARGE CUT-OFF  12.00 Ry**.5

:POS001: ATOM    1 X,Y,Z = 0.00000 0.00000 0.50000  MULT= 1  ZZ= 59.000  Pr        

       LMMAX  5
       LM=   0 0  4 0  4 4  6 0  6 4

:CHA001: TOTAL VALENCE CHARGE INSIDE SPHERE   1 =  10.0440    (RMT=  2.5000 )
:PCS001: PARTIAL CHARGES SPHERE =  1 S,P,D,F,      D-EG,D-T2G 
:QTL001: 2.0247 5.3613 0.5554 2.1024 0.0000 0.0000 0.0000 0.1976 0.3578 0.0000 0.0000 0.0000
        Q-s-low E-s-low   Q-p-low E-p-low   Q-d-low E-d-low   Q-f-low E-f-low
:EPL001:  1.9261 -2.1426    5.2999 -0.8178    0.0006 -0.8304    0.0002 -0.8326
        Q-s-hi  E-s-hi    Q-p-hi  E-p-hi    Q-d-hi  E-d-hi    Q-f-hi  E-f-hi 
:EPH001:  0.0986  0.3924    0.0614  0.4306    0.5548  0.4503    2.1022  0.4836

:CHA  : TOTAL VALENCE CHARGE INSIDE UNIT CELL =      13.000000

:SUM  : SUM OF EIGENVALUES =          -6.919176565


        1.ATOM      Pr                   14 CORE STATES
:1S 001: 1S               -3067.116194578 Ry
:2S 001: 2S                -492.866427096 Ry
:2PP001: 2P*               -465.966268642 Ry
:2P 001: 2P                -430.568521137 Ry
:3S 001: 3S                -105.950049806 Ry
:3PP001: 3P*                -94.488211467 Ry
:3P 001: 3P                 -87.480102509 Ry
:3DD001: 3D*                -67.408009682 Ry
:3D 001: 3D                 -65.896335939 Ry
:4S 001: 4S                 -20.627195280 Ry
:4PP001: 4P*                -16.334283658 Ry
:4P 001: 4P                 -14.807238008 Ry
:4DD001: 4D*                 -7.741000766 Ry
:4D 001: 4D                  -7.471728055 Ry
:CINT001 Core Integral Atom   1   45.999516

       DENSITY AT NUCLEUS
        JATOM        VALENCE       SEMI-CORE          CORE           TOTAL
:RTO001:   1      648.853737        0.000000   656825.110169   657473.963906
     
       CHARGES OF NEW CHARGE DENSITY
:NTO   : INTERSTITIAL CHARGE =     2.955990
:NPC   : PW Pseudocharge     =     7.568819
:NTO001: CHARGE SPHERE  1    =    56.043526

:NEC01: NUCLEAR AND ELECTRONIC CHARGE     59.00000    58.99952
     
       CHARGES OF OLD CHARGE DENSITY
:OTO   : INTERSTITIAL CHARGE =     2.956912
:OPC   : PW Pseudocharge     =     7.566450
:OTO001: CHARGE SPHERE  1    =    56.043088

:NEC02: NUCLEAR AND ELECTRONIC CHARGE     59.00000    59.00000
     
       CONVERGENCE TEST
:DTO001: DIFFERENCE IN SPHERE  1 =  0.0094738

:DIS  :  CHARGE DISTANCE       ( 0.0094738 for atom    1 spin 1)      0.0094738
 PW Mixed is           59
 
******************************************************
* MULTISECANT MIXING VER9 RELEASE 10.4.0              *
* Standard Mode with controls                        *
* Fixed density scale                                *
* Regularization       1.000E-04                     *
* Trust Upper Limit    5.000E+00                     *
* Max Number of Memory Steps    8                    *
******************************************************
 
:PWTMP   2.0594E+02  1.2500E+02  2.7139E+02
:PLANE:  PW TOTAL      2.8313 DISTAN   1.91E-03  6.74E-02 %
:CHARG:  CLM/ATOM    977.1793 DISTAN   1.92E-02  1.97E-03 %
 
Step History
        DMIX         DMIXT        Red     Pred      Trust     Lambda    MagRel    MagAbs     Beta
  1   3.5000E-02   3.5000E-02 -1.00E+00  1.00E+00 -1.00E+01  1.00E+00  3.50E-02  3.50E-02  1.00E+00
  2   2.5000E-02   2.5000E-02  8.53E-01  1.00E+00 -1.00E+01  1.00E+00  2.50E-02  1.89E-02  1.00E+00
  3   2.0000E-02   2.0000E-02  9.70E-01  9.90E-01  2.12E-01  9.87E-01  1.43E-01  9.25E-02  1.00E+00
  4   5.0000E-02   3.2556E-02  5.43E-01  7.13E-01  4.45E-01  1.02E+00  4.45E-01  2.79E-01  1.00E+00
  5   1.2500E-01   1.1159E-01  3.42E-01  3.43E-01  6.48E-01  1.02E+00  6.48E-01  2.21E-01  1.00E+00
  6   5.8763E-02   5.8470E-02  2.56E-01  2.94E-01  8.64E-01  8.75E-01  8.64E-01  1.01E-01  1.00E+00
  7   1.0157E-01   1.0157E-01 -1.00E+00  7.11E-01  1.15E+00  1.00E+00  3.63E-01  1.08E-02  1.00E+00
:JACOBIANS    9.907E-01   1.264E+00
  
:NORMS:  1/Froebius, Min, Max, Used   0.9390E+00  0.4983E+00  0.9999E+00  0.9706E+00
:INFO :  Number of Memory Steps    6 Skipping    0
:INFO :  SLambda=    1.1745215380  Max    1.1745215380
:PREDicted Charge, CTotal, PW Trust    2.153E-03   2.153E-03   1.529E-04
:PREDicted DMix, Beta, BLim   5.5340E-01  1.4859E+00  6.2032E-01

Eigenvalues, unscaled except for SY+YY
   #     SY Real        SY Imag          SS             YY         SY+YY Real      SY+YY Imag
   1   5.059713E+00   0.000000E+00   4.913251E+00   5.215349E+00   1.115812E+01   0.000000E+00
   2   3.106892E-01   0.000000E+00   2.524617E-01   5.712581E-01   9.220648E-01   0.000000E+00
   3   1.705965E-01   0.000000E+00   1.249639E-01   1.949777E-01   4.083269E-01   0.000000E+00
   4   1.126712E-03   0.000000E+00   5.610476E-05   1.841417E-02   2.083199E-02   0.000000E+00
   5   3.873398E-09   0.000000E+00   5.616020E-08   7.252800E-07   5.404426E-08   0.000000E+00
   6   1.700331E-07   0.000000E+00   2.993392E-10   4.897991E-08   9.707517E-07   0.000000E+00
 
:INFO :  Singular value  1.116E+01 Weight  1.000E+00 Projection  4.990E-04
:INFO :  Singular value  9.221E-01 Weight  1.000E+00 Projection  1.941E-02
:INFO :  Singular value  4.083E-01 Weight  1.000E+00 Projection -1.535E-02
:INFO :  Singular value  2.083E-02 Weight  9.994E-01 Projection -8.942E-02
:INFO :  Singular value  9.709E-07 Weight  3.465E-06 Projection -1.173E-05
:INFO :  Singular value  5.404E-08 Weight  1.074E-08 Projection -2.069E-08
:RANK :  ACTIVE   4.00/6  =  66.66 % ; YY RANK   4.00/6  =  66.65 %
 
:BLIM :  VZERO Control Off
:TRUST:  Step 1.54E+00  Charge 6.00E-02 (e) CTO  2.00E-01 (e) PW  2.80E-01 (e)
:DIRM :  MEMORY  6/8  SCALE   1.000 RED  0.65 PRED  0.71 NEXT  0.19 
:TRAVE:  Charge 1.29E-03 (e) CTO  1.29E-03 (e) PW  3.22E-03 (e)
:DIRP :  |MSR1|= 1.080E-03 |PRATT|= 1.908E-03 ANGLE=  13.2 DEGREES
:DIRQ :  |MSR1|= 1.039E-02 |PRATT|= 1.924E-02 ANGLE=  10.7 DEGREES
:DIRT :  |MSR1|= 1.044E-02 |PRATT|= 1.933E-02 ANGLE=  10.7 DEGREES
:MIX  :   MSE1   REGULARIZATION:  5.22E-04 GREED: 0.25393  Newton 1.00  0.5402                
     
       CHARGES OF MIXED CHARGE DENSITY
:CTO   : INTERSTITIAL CHARGE =     2.955379
:CPC   : PW Pseudocharge     =     7.568330
:CTO001: CHARGE SPHERE  1    =    56.044621

:NEC03: NUCLEAR AND ELECTRONIC CHARGE     59.00000    59.00000

PW CHANGE     H    K    L      Current       Change    Residue
:PTO001:      0    0    0  3.87772863E-02  1.278E-06  1.168E-05
:PTO002:     -1   -1   -1 -1.26347534E-01 -2.439E-05 -3.620E-05
:PTO003:      0    0   -2  7.58278636E-02  2.601E-05  3.683E-05
:PTO004:      0   -2   -2  6.88326784E-02  4.039E-05  6.363E-05
:PTO005:     -1   -1   -3 -6.90753399E-02  2.696E-05  5.926E-05
:PTO006:     -2   -2   -2  1.80001031E-02 -2.492E-05 -4.646E-05
:PTO007:      0    0   -4  3.85536551E-03 -1.079E-05 -2.118E-05
:PTO008:     -1   -3   -3 -4.70154879E-03  4.924E-05  8.922E-05
:PTO009:      0   -2   -4  1.57477177E-03 -3.321E-05 -6.211E-05
:PTO010:     -2   -2   -4 -5.25586028E-03 -4.026E-05 -7.298E-05
:PTO011:     -3   -3   -3  2.45543657E-03  1.491E-05  2.681E-05
:PTO012:     -1   -1   -5  6.88185477E-03  1.442E-05  2.840E-05

:ENE  : ********** TOTAL ENERGY IN Ry =       -18472.06046285

 Flat Integration
 New Mode for Coulomb Integral
 Consistent 3/8+Simpson combinations
 Extension of core to zero
 LDM version in phi
 Fifth-order quadrature in outwin


            ---------
:ITE008:  8. ITERATION
            ---------

:NATO :    1 INDEPENDENT AND    1 TOTAL ATOMS IN UNITCELL
       SUBSTANCE: blebleble                                                   

       LATTICE                      = F   
:POT  : POTENTIAL OPTION EX_LDA EC_LDA VX_LDA VC_LDA
:LAT  : LATTICE CONSTANTS= 10.27741 10.27741 10.27741    1.571    1.571    1.571
:VOL  : UNIT CELL VOLUME =     271.38850
       MODE OF CALCULATION IS       = RELA
       NON-SPINPOLARIZED CALCULATION
:IFFT  : FFT-parameters:   80   80   80 Factor: 2.00


   CONVERGENCE PARAMETER FOR PSEUDOCHARGE: NCON=  9
   MAXIMAL VALUE OF RMT(JATOM)*ABSK(NKK) : RK  =29.95033


:VKCOUL :  VK-COUL convergence: 0.131E-06
       ATOMNUMBER=  1 Pr         VCOUL-ZERO =  0.14427E+00
:FIT001: LUSE= 13 SIGMA OF V-XC FIT FOR ATOM  1  0.4933159E-04
:FIT001: LUSE= 13 SIGMA OF V-XC FIT FOR ATOM  1  0.4933159E-04
:DEN  : DENSITY INTEGRAL  =         -7066.22114822   (Ry)
       ELS_POTENTIAL_AT Z=0 and Z=0.5:  -2.38552  -2.38552
       ELS_POTENTIAL_AT Y=0 and Y=0.5:   0.00000   0.00000
:VZERO:v0,v0c,v0x  -3.32730  -2.38552  -0.94178 v5,v5c,v5x  -3.32730  -2.38552  -0.94178
:VZERY:v0,v0c,v0x  -0.67725   0.00000  -0.67725 v5,v5c,v5x  -0.67725   0.00000  -0.67725
:VZERX:v0,v0c,v0x  -0.67725   0.00000  -0.67725 v5,v5c,v5x  -0.67725   0.00000  -0.67725
:LMAX-WF:   10   Non-Spherical LMAX:   4

          ATOMIC SPHERE DEPENDENT PARAMETERS FOR ATOM  Pr        
:e__0001: OVERALL ENERGY PARAMETER IS    0.2945
          OVERALL BASIS SET ON ATOM IS LAPW
:E0_0001: E( 0)=    0.2945
             APW+lo
:E0_0001: E( 0)=   -2.1924   E(BOTTOM)=   -2.573   E(TOP)=   -1.812  4  5   166
             LOCAL ORBITAL
:E1_0001: E( 1)=    0.6945
             APW+lo
:E1_0001: E( 1)=   -0.8044   E(BOTTOM)=   -1.450   E(TOP)=   -0.158  3  4   168
             LOCAL ORBITAL
:E3_0001: E( 3)=    0.4813   E(BOTTOM)=    0.339   E(TOP)=    0.623  0  1   114
             APW+lo
:E2_0001: E( 2)=    0.2945   E(BOTTOM)=    0.126   E(TOP)= -200.000  2 -1    95
             APW+lo

       K=   0.00000   0.00000   0.00000            1
:RKM  : MATRIX SIZE   189LOs:  20  RKM= 7.94  WEIGHT= 1.00  PGR:    
       EIGENVALUES ARE:
:EIG00001:      -2.1490650   -0.7926594   -0.7926594   -0.7926594    0.2458094
:EIG00006:       0.4853111    0.4988915    0.4988915    0.4988915    0.5186076
:EIG00011:       0.5186076    0.5186076    0.6199134    0.6199134    0.6199134
:EIG00016:       0.7694605    0.7694605    1.1635395    1.3704841    1.3704841
:EIG00021:       1.3704841    1.4770651
       ********************************************************

:KPT   :      NUMBER OF K-POINTS:   165
:GAP (global)   :    0.0    Ry =     0.0   eV (metal)
         Bandranges (emin - emax) and occupancy:
:BAN00001:   1   -2.149065   -2.140535  2.00000000
:BAN00002:   2   -0.851716   -0.792659  2.00000000
:BAN00003:   3   -0.830880   -0.792659  2.00000000
:BAN00004:   4   -0.814449   -0.792659  2.00000000
:BAN00005:   5    0.245809    0.472632  2.00000000
:BAN00006:   6    0.437270    0.493791  2.00000000
:BAN00007:   7    0.484237    0.500961  1.00000000
:BAN00008:   8    0.495737    0.504620  0.00000000
:BAN00009:   9    0.498892    0.507570  0.00000000
:BAN00010:  10    0.502417    0.518608  0.00000000
:BAN00011:  11    0.506066    0.518608  0.00000000
:BAN00012:  12    0.508045    0.524920  0.00000000
        Energy to separate low and high energystates:    0.19581


:NOE  : NUMBER OF ELECTRONS          =   13.000

:FER  : F E R M I - ENERGY(TETRAH.M.)=   0.4945788039
:GMA  : POTENTIAL AND CHARGE CUT-OFF  12.00 Ry**.5

:POS001: ATOM    1 X,Y,Z = 0.00000 0.00000 0.50000  MULT= 1  ZZ= 59.000  Pr        

       LMMAX  5
       LM=   0 0  4 0  4 4  6 0  6 4

:CHA001: TOTAL VALENCE CHARGE INSIDE SPHERE   1 =  10.0439    (RMT=  2.5000 )
:PCS001: PARTIAL CHARGES SPHERE =  1 S,P,D,F,      D-EG,D-T2G 
:QTL001: 2.0247 5.3612 0.5551 2.1028 0.0000 0.0000 0.0000 0.1975 0.3575 0.0000 0.0000 0.0000
        Q-s-low E-s-low   Q-p-low E-p-low   Q-d-low E-d-low   Q-f-low E-f-low
:EPL001:  1.9261 -2.1423    5.2998 -0.8176    0.0006 -0.8302    0.0002 -0.8324
        Q-s-hi  E-s-hi    Q-p-hi  E-p-hi    Q-d-hi  E-d-hi    Q-f-hi  E-f-hi 
:EPH001:  0.0986  0.3925    0.0614  0.4306    0.5544  0.4503    2.1026  0.4837

:CHA  : TOTAL VALENCE CHARGE INSIDE UNIT CELL =      13.000000

:SUM  : SUM OF EIGENVALUES =          -6.916889866


        1.ATOM      Pr                   14 CORE STATES
:1S 001: 1S               -3067.114809716 Ry
:2S 001: 2S                -492.865776831 Ry
:2PP001: 2P*               -465.965466864 Ry
:2P 001: 2P                -430.567775979 Ry
:3S 001: 3S                -105.950331089 Ry
:3PP001: 3P*                -94.488447916 Ry
:3P 001: 3P                 -87.480372529 Ry
:3DD001: 3D*                -67.408184158 Ry
:3D 001: 3D                 -65.896524790 Ry
:4S 001: 4S                 -20.627390807 Ry
:4PP001: 4P*                -16.334452052 Ry
:4P 001: 4P                 -14.807372284 Ry
:4DD001: 4D*                 -7.741079869 Ry
:4D 001: 4D                  -7.471796846 Ry
:CINT001 Core Integral Atom   1   45.999517

       DENSITY AT NUCLEUS
        JATOM        VALENCE       SEMI-CORE          CORE           TOTAL
:RTO001:   1      648.846053        0.000000   656824.982285   657473.828338
     
       CHARGES OF NEW CHARGE DENSITY
:NTO   : INTERSTITIAL CHARGE =     2.956072
:NPC   : PW Pseudocharge     =     7.568592
:NTO001: CHARGE SPHERE  1    =    56.043444

:NEC01: NUCLEAR AND ELECTRONIC CHARGE     59.00000    58.99952
     
       CHARGES OF OLD CHARGE DENSITY
:OTO   : INTERSTITIAL CHARGE =     2.955379
:OPC   : PW Pseudocharge     =     7.568330
:OTO001: CHARGE SPHERE  1    =    56.044621

:NEC02: NUCLEAR AND ELECTRONIC CHARGE     59.00000    59.00000
     
       CONVERGENCE TEST
:DTO001: DIFFERENCE IN SPHERE  1 =  0.0043211

:DIS  :  CHARGE DISTANCE       ( 0.0043211 for atom    1 spin 1)      0.0043211
 PW Mixed is           59
 
******************************************************
* MULTISECANT MIXING VER9 RELEASE 10.4.0              *
* Standard Mode with controls                        *
* Fixed density scale                                *
* Regularization       1.000E-04                     *
* Trust Upper Limit    5.000E+00                     *
* Max Number of Memory Steps    8                    *
******************************************************
 
:PWTMP   2.0594E+02  1.2500E+02  2.7139E+02
:PLANE:  PW TOTAL      2.8318 DISTAN   8.29E-04  2.93E-02 %
:CHARG:  CLM/ATOM    977.1816 DISTAN   4.43E-03  4.53E-04 %
 
Step History
        DMIX         DMIXT        Red     Pred      Trust     Lambda    MagRel    MagAbs     Beta
  1   3.5000E-02   3.5000E-02 -1.00E+00  1.00E+00 -1.00E+01  1.00E+00  3.50E-02  3.50E-02  1.00E+00
  2   2.5000E-02   2.5000E-02  8.53E-01  1.00E+00 -1.00E+01  1.00E+00  2.50E-02  1.89E-02  1.00E+00
  3   2.0000E-02   2.0000E-02  9.70E-01  9.90E-01  2.12E-01  9.87E-01  1.43E-01  9.25E-02  1.00E+00
  4   5.0000E-02   3.2556E-02  5.43E-01  7.13E-01  4.45E-01  1.02E+00  4.45E-01  2.79E-01  1.00E+00
  5   1.2500E-01   1.1159E-01  3.42E-01  3.43E-01  6.48E-01  1.02E+00  6.48E-01  2.21E-01  1.00E+00
  6   5.8763E-02   5.8470E-02  2.56E-01  2.94E-01  8.64E-01  8.75E-01  8.64E-01  1.01E-01  1.00E+00
  7   1.0157E-01   1.0157E-01  6.49E-01  7.11E-01  1.15E+00  1.17E+00  3.63E-01  1.08E-02  1.00E+00
  8   2.5393E-01   2.5393E-01 -1.00E+00  1.85E-01  1.54E+00  1.00E+00  5.40E-01  1.04E-02  1.00E+00
:JACOBIANS    1.003E+00   1.466E+00
  
:NORMS:  1/Froebius, Min, Max, Used   0.8804E+00  0.5156E+00  0.9979E+00  0.9673E+00
:INFO :  Number of Memory Steps    7 Skipping    0
:INFO :  SLambda=    1.1290825992  Max    1.1290825992
:PREDicted Charge, CTotal, PW Trust    1.660E-03   1.660E-03   2.526E-04
:PREDicted DMix, Beta, BLim   1.9121E-01  1.0193E+00  5.6043E-01

Eigenvalues, unscaled except for SY+YY
   #     SY Real        SY Imag          SS             YY         SY+YY Real      SY+YY Imag
   1   4.727677E+00   0.000000E+00   4.586376E+00   4.901457E+00   1.023611E+01   0.000000E+00
   2   1.062571E+00   0.000000E+00   6.286929E-01   1.848388E+00   3.051399E+00   0.000000E+00
   3   2.123114E-01   0.000000E+00   2.104687E-01   2.178800E-01   4.572692E-01   0.000000E+00
   4   2.107491E-03   0.000000E+00   2.546960E-04   3.209583E-02   3.477900E-02   0.000000E+00
   5   1.001190E-04   0.000000E+00   3.250464E-05   1.790750E-04   3.174947E-04   0.000000E+00
   6   3.902599E-09   0.000000E+00   3.868724E-09   3.009381E-07   5.148025E-08   0.000000E+00
   7   3.328716E-08   0.000000E+00   2.995888E-10   4.429040E-08   3.435558E-07   0.000000E+00
 
:INFO :  Singular value  1.024E+01 Weight  1.000E+00 Projection  2.131E-05
:INFO :  Singular value  3.051E+00 Weight  1.000E+00 Projection  4.520E-04
:INFO :  Singular value  4.573E-01 Weight  1.000E+00 Projection -7.989E-04
:INFO :  Singular value  3.478E-02 Weight  9.998E-01 Projection -2.190E-02
:INFO :  Singular value  3.175E-04 Weight  2.956E-01 Projection -4.647E-02
:INFO :  Singular value  3.437E-07 Weight  4.918E-07 Projection -3.036E-07
:INFO :  Singular value  5.145E-08 Weight  1.102E-08 Projection -5.661E-08
:RANK :  ACTIVE   4.30/7  =  61.36 % ; YY RANK   4.12/7  =  58.82 %
 
:BLIM :  VZERO Control Off
:TRUST:  Step 2.05E+00  Charge 4.80E-02 (e) CTO  1.60E-01 (e) PW  2.24E-01 (e)
:DIRM :  MEMORY  7/8  SCALE   1.000 RED  0.23 PRED  0.19 NEXT  0.39 
:TRAVE:  Charge 7.59E-04 (e) CTO  7.59E-04 (e) PW  1.65E-03 (e)
:DIRP :  |MSR1|= 2.819E-04 |PRATT|= 8.290E-04 ANGLE=  23.7 DEGREES
:DIRQ :  |MSR1|= 9.965E-04 |PRATT|= 4.429E-03 ANGLE=  39.1 DEGREES
:DIRT :  |MSR1|= 1.036E-03 |PRATT|= 4.506E-03 ANGLE=  38.7 DEGREES
:MIX  :   MSE1   REGULARIZATION:  4.90E-04 GREED: 0.18054  Newton 1.00  0.2298                
     
       CHARGES OF MIXED CHARGE DENSITY
[...]
 Extension of core to zero
 LDM version in phi
 Fifth-order quadrature in outwin


            ---------
:ITE011: 11. ITERATION
            ---------

:NATO :    1 INDEPENDENT AND    1 TOTAL ATOMS IN UNITCELL
       SUBSTANCE: blebleble                                                   

       LATTICE                      = F   
:POT  : POTENTIAL OPTION EX_LDA EC_LDA VX_LDA VC_LDA
:LAT  : LATTICE CONSTANTS= 10.27741 10.27741 10.27741    1.571    1.571    1.571
:VOL  : UNIT CELL VOLUME =     271.38850
       MODE OF CALCULATION IS       = RELA
       NON-SPINPOLARIZED CALCULATION
:IFFT  : FFT-parameters:   80   80   80 Factor: 2.00


   CONVERGENCE PARAMETER FOR PSEUDOCHARGE: NCON=  9
   MAXIMAL VALUE OF RMT(JATOM)*ABSK(NKK) : RK  =29.95033


:VKCOUL :  VK-COUL convergence: 0.131E-06
       ATOMNUMBER=  1 Pr         VCOUL-ZERO =  0.14426E+00
:FIT001: LUSE= 13 SIGMA OF V-XC FIT FOR ATOM  1  0.5012046E-04
:FIT001: LUSE= 13 SIGMA OF V-XC FIT FOR ATOM  1  0.5012046E-04
:DEN  : DENSITY INTEGRAL  =         -7066.22070686   (Ry)
       ELS_POTENTIAL_AT Z=0 and Z=0.5:  -2.38557  -2.38557
       ELS_POTENTIAL_AT Y=0 and Y=0.5:   0.00000   0.00000
:VZERO:v0,v0c,v0x  -3.32735  -2.38557  -0.94178 v5,v5c,v5x  -3.32735  -2.38557  -0.94178
:VZERY:v0,v0c,v0x  -0.67725   0.00000  -0.67725 v5,v5c,v5x  -0.67725   0.00000  -0.67725
:VZERX:v0,v0c,v0x  -0.67725   0.00000  -0.67725 v5,v5c,v5x  -0.67725   0.00000  -0.67725
:LMAX-WF:   10   Non-Spherical LMAX:   4

          ATOMIC SPHERE DEPENDENT PARAMETERS FOR ATOM  Pr        
:e__0001: OVERALL ENERGY PARAMETER IS    0.2945
          OVERALL BASIS SET ON ATOM IS LAPW
:E0_0001: E( 0)=    0.2945
             APW+lo
:E0_0001: E( 0)=   -2.1924   E(BOTTOM)=   -2.573   E(TOP)=   -1.812  4  5   162
             LOCAL ORBITAL
:E1_0001: E( 1)=    0.6945
             APW+lo
:E1_0001: E( 1)=   -0.8044   E(BOTTOM)=   -1.450   E(TOP)=   -0.158  3  4   171
             LOCAL ORBITAL
:E3_0001: E( 3)=    0.4812   E(BOTTOM)=    0.339   E(TOP)=    0.623  0  1   119
             APW+lo
:E2_0001: E( 2)=    0.2945   E(BOTTOM)=    0.126   E(TOP)= -200.000  2 -1    95
             APW+lo

       K=   0.00000   0.00000   0.00000            1
:RKM  : MATRIX SIZE   189LOs:  20  RKM= 7.94  WEIGHT= 1.00  PGR:    
       EIGENVALUES ARE:
:EIG00001:      -2.1490527   -0.7926397   -0.7926397   -0.7926397    0.2458182
:EIG00006:       0.4852215    0.4987904    0.4987904    0.4987904    0.5185031
:EIG00011:       0.5185031    0.5185031    0.6199431    0.6199431    0.6199431
:EIG00016:       0.7694931    0.7694931    1.1634875    1.3704879    1.3704879
:EIG00021:       1.3704879    1.4770148
       ********************************************************

:KPT   :      NUMBER OF K-POINTS:   165
:GAP (global)   :    0.0    Ry =     0.0   eV (metal)
         Bandranges (emin - emax) and occupancy:
:BAN00001:   1   -2.149053   -2.140523  2.00000000
:BAN00002:   2   -0.851695   -0.792640  2.00000000
:BAN00003:   3   -0.830860   -0.792640  2.00000000
:BAN00004:   4   -0.814429   -0.792640  2.00000000
:BAN00005:   5    0.245818    0.472591  2.00000000
:BAN00006:   6    0.437283    0.493711  2.00000000
:BAN00007:   7    0.484164    0.500863  1.00000000
:BAN00008:   8    0.495651    0.504521  0.00000000
:BAN00009:   9    0.498790    0.507478  0.00000000
:BAN00010:  10    0.502318    0.518503  0.00000000
:BAN00011:  11    0.505963    0.518503  0.00000000
:BAN00012:  12    0.507942    0.524846  0.00000000
        Energy to separate low and high energystates:    0.19582


:NOE  : NUMBER OF ELECTRONS          =   13.000

:FER  : F E R M I - ENERGY(TETRAH.M.)=   0.4944927698
:GMA  : POTENTIAL AND CHARGE CUT-OFF  12.00 Ry**.5

:POS001: ATOM    1 X,Y,Z = 0.00000 0.00000 0.50000  MULT= 1  ZZ= 59.000  Pr        

       LMMAX  5
       LM=   0 0  4 0  4 4  6 0  6 4

:CHA001: TOTAL VALENCE CHARGE INSIDE SPHERE   1 =  10.0456    (RMT=  2.5000 )
:PCS001: PARTIAL CHARGES SPHERE =  1 S,P,D,F,      D-EG,D-T2G 
:QTL001: 2.0247 5.3611 0.5543 2.1052 0.0000 0.0000 0.0000 0.1973 0.3571 0.0000 0.0000 0.0000
        Q-s-low E-s-low   Q-p-low E-p-low   Q-d-low E-d-low   Q-f-low E-f-low
:EPL001:  1.9261 -2.1423    5.2998 -0.8175    0.0006 -0.8302    0.0002 -0.8323
        Q-s-hi  E-s-hi    Q-p-hi  E-p-hi    Q-d-hi  E-d-hi    Q-f-hi  E-f-hi 
:EPH001:  0.0986  0.3924    0.0613  0.4306    0.5537  0.4503    2.1051  0.4836

:CHA  : TOTAL VALENCE CHARGE INSIDE UNIT CELL =      13.000000

:SUM  : SUM OF EIGENVALUES =          -6.916921656


        1.ATOM      Pr                   14 CORE STATES
:1S 001: 1S               -3067.114178384 Ry
:2S 001: 2S                -492.865450561 Ry
:2PP001: 2P*               -465.965074469 Ry
:2P 001: 2P                -430.567408043 Ry
:3S 001: 3S                -105.950452883 Ry
:3PP001: 3P*                -94.488547228 Ry
:3P 001: 3P                 -87.480490339 Ry
:3DD001: 3D*                -67.408249837 Ry
:3D 001: 3D                 -65.896597885 Ry
:4S 001: 4S                 -20.627582695 Ry
:4PP001: 4P*                -16.334634869 Ry
:4P 001: 4P                 -14.807545802 Ry
:4DD001: 4D*                 -7.741234003 Ry
:4D 001: 4D                  -7.471947892 Ry
:CINT001 Core Integral Atom   1   45.999517

       DENSITY AT NUCLEUS
        JATOM        VALENCE       SEMI-CORE          CORE           TOTAL
:RTO001:   1      648.845396        0.000000   656824.910018   657473.755414
     
       CHARGES OF NEW CHARGE DENSITY
:NTO   : INTERSTITIAL CHARGE =     2.954433
:NPC   : PW Pseudocharge     =     7.568059
:NTO001: CHARGE SPHERE  1    =    56.045083

:NEC01: NUCLEAR AND ELECTRONIC CHARGE     59.00000    58.99952
     
       CHARGES OF OLD CHARGE DENSITY
:OTO   : INTERSTITIAL CHARGE =     2.954893
:OPC   : PW Pseudocharge     =     7.569266
:OTO001: CHARGE SPHERE  1    =    56.045107

:NEC02: NUCLEAR AND ELECTRONIC CHARGE     59.00000    59.00000
     
       CONVERGENCE TEST
:DTO001: DIFFERENCE IN SPHERE  1 =  0.0000743

:DIS  :  CHARGE DISTANCE       ( 0.0000743 for atom    1 spin 1)      0.0000743
 PW Mixed is           59
 
******************************************************
* MULTISECANT MIXING VER9 RELEASE 10.4.0              *
* Standard Mode with controls                        *
* Fixed density scale                                *
* Regularization       1.000E-04                     *
* Trust Upper Limit    5.000E+00                     *
* Max Number of Memory Steps    8                    *
******************************************************
 
:PWTMP   2.0594E+02  1.2500E+02  2.7139E+02
:PLANE:  PW TOTAL      2.8320 DISTAN   1.72E-05  6.08E-04 %
:CHARG:  CLM/ATOM    977.1825 DISTAN   8.59E-05  8.79E-06 %
 
Step History
        DMIX         DMIXT        Red     Pred      Trust     Lambda    MagRel    MagAbs     Beta
  3   2.0000E-02   2.0000E-02  9.70E-01  9.90E-01  2.12E-01  9.87E-01  1.43E-01  9.25E-02  1.00E+00
  4   5.0000E-02   3.2556E-02  5.43E-01  7.13E-01  4.45E-01  1.02E+00  4.45E-01  2.79E-01  1.00E+00
  5   1.2500E-01   1.1159E-01  3.42E-01  3.43E-01  6.48E-01  1.02E+00  6.48E-01  2.21E-01  1.00E+00
  6   5.8763E-02   5.8470E-02  2.56E-01  2.94E-01  8.64E-01  8.75E-01  8.64E-01  1.01E-01  1.00E+00
  7   1.0157E-01   1.0157E-01  6.49E-01  7.11E-01  1.15E+00  1.17E+00  3.63E-01  1.08E-02  1.00E+00
  8   2.5393E-01   2.5393E-01  2.33E-01  1.85E-01  1.54E+00  1.13E+00  5.40E-01  1.04E-02  1.00E+00
  9   1.8054E-01   1.8054E-01  5.04E-01  3.91E-01  2.05E+00  1.33E+00  2.30E-01  1.04E-03  1.00E+00
 10   3.5000E-01   3.5000E-01  1.45E-01  1.57E-01  2.73E+00  1.42E+00  5.06E-01  1.15E-03  1.00E+00
 11   3.3448E-01   3.3448E-01 -1.00E+00  2.59E-01  6.48E+00  1.00E+00  6.43E-01  2.12E-04  1.00E+00
:JACOBIANS    9.068E-01   2.708E+00
  
:NORMS:  1/Froebius, Min, Max, Used   0.7431E+00  0.6374E+00  0.1006E+01  0.9453E+00
:INFO :  Number of Memory Steps    8 Skipping    2
:INFO :  SLambda=    1.4485300752  Max    1.4485300752
:PREDicted Charge, CTotal, PW Trust    1.292E-05   1.292E-05   4.429E-05
:PREDicted DMix, Beta, BLim   5.7254E-01  1.0552E+00  8.3952E-01

Eigenvalues, unscaled except for SY+YY
   #     SY Real        SY Imag          SS             YY         SY+YY Real      SY+YY Imag
   1   3.076493E+00   0.000000E+00   2.973054E+00   3.327273E+00   7.716548E+00   0.000000E+00
   2   1.233752E+00   0.000000E+00   8.024762E-01   2.730278E+00   4.400183E+00   0.000000E+00
   3   5.910670E-01   0.000000E+00   3.906074E-01   1.451591E+00   2.417632E+00   0.000000E+00
   4   3.729460E-01   0.000000E+00   2.511377E-01   4.850679E-01   1.097340E+00   0.000000E+00
   5   1.232502E-03   0.000000E+00   6.834258E-04   5.400026E-03   9.480174E-03   0.000000E+00
   6   2.588362E-04   0.000000E+00   3.559266E-05   3.685563E-04   8.776734E-04   0.000000E+00
   7   3.237781E-07   0.000000E+00   2.990390E-06   2.105761E-05   1.590520E-06   0.000000E+00
   8   7.296557E-06   0.000000E+00   1.297537E-07   1.011057E-06   3.110844E-05   0.000000E+00
 
:INFO :  Singular value  7.721E+00 Weight  1.000E+00 Projection -1.333E-05
:INFO :  Singular value  4.410E+00 Weight  1.000E+00 Projection -2.768E-05
:INFO :  Singular value  2.411E+00 Weight  1.000E+00 Projection  2.518E-05
:INFO :  Singular value  1.097E+00 Weight  1.000E+00 Projection -2.075E-05
:INFO :  Singular value  9.481E-03 Weight  9.988E-01 Projection  5.728E-04
:INFO :  Singular value  8.777E-04 Weight  8.744E-01 Projection -4.040E-04
:INFO :  Singular value  3.117E-05 Weight  8.699E-03 Projection -2.371E-05
:INFO :  Singular value  1.587E-06 Weight  2.275E-05 Projection  4.112E-07
:RANK :  ACTIVE   5.88/8  =  73.52 % ; YY RANK   5.55/8  =  69.39 %
 
:BLIM :  VZERO Control Off
:TRUST:  Step 1.24E+01  Charge 2.46E-02 (e) CTO  8.19E-02 (e) PW  1.15E-01 (e)
:DIRM :  MEMORY  8/8  SCALE   1.000 RED  0.27 PRED  0.26 NEXT  0.31 
:TRAVE:  Charge 1.32E-04 (e) CTO  1.32E-04 (e) PW  2.29E-04 (e)
:DIRP :  |MSR1|= 9.498E-06 |PRATT|= 1.722E-05 ANGLE=  28.0 DEGREES
:DIRQ :  |MSR1|= 3.531E-05 |PRATT|= 8.586E-05 ANGLE=  55.9 DEGREES
:DIRT :  |MSR1|= 3.657E-05 |PRATT|= 8.757E-05 ANGLE=  54.8 DEGREES
:MIX  :   MSE1   REGULARIZATION:  3.33E-04 GREED: 0.35000  Newton 1.00  0.4176                
     
       CHARGES OF MIXED CHARGE DENSITY
:CTO   : INTERSTITIAL CHARGE =     2.954887
:CPC   : PW Pseudocharge     =     7.569283
:CTO001: CHARGE SPHERE  1    =    56.045113

:NEC03: NUCLEAR AND ELECTRONIC CHARGE     59.00000    59.00000

PW CHANGE     H    K    L      Current       Change    Residue
:PTO001:      0    0    0  3.87789840E-02  4.275E-08  2.134E-07
:PTO002:     -1   -1   -1 -1.26354467E-01 -2.077E-07 -2.442E-07
:PTO003:      0    0   -2  7.58381845E-02  1.984E-07  1.457E-07
:PTO004:      0   -2   -2  6.88628067E-02  6.455E-07  8.982E-07
:PTO005:     -1   -1   -3 -6.90472417E-02  1.114E-07  5.701E-07
:PTO006:     -2   -2   -2  1.79844470E-02 -1.225E-07 -3.029E-07
:PTO007:      0    0   -4  3.84265920E-03 -1.010E-07 -2.547E-07
:PTO008:     -1   -3   -3 -4.67297996E-03  1.724E-07  4.320E-07
:PTO009:      0   -2   -4  1.54804906E-03 -1.642E-07 -4.372E-07
:PTO010:     -2   -2   -4 -5.28020483E-03 -1.439E-07 -3.502E-07
:PTO011:     -3   -3   -3  2.46312418E-03  4.324E-08  1.007E-07
:PTO012:     -1   -1   -5  6.89821545E-03  6.555E-08  2.203E-07

:ENE  : ********** TOTAL ENERGY IN Ry =       -18472.06045745


:LABEL1: Calculations in /home/ykent/GWIEN/example/Pr/V14/case
:LABEL2: on didymium-2.cmpgroup.ameslab.gov at Wed Jul  8 16:11:16 CDT 2020
:LABEL3: using WIEN2k_19.1 (Release 25/6/2019) in /home/ykent/opt/src/WIEN2k_19.1
:LABEL4: using the command: run_lapw -cc 0.0001
 Flat Integration
 New Mode for Coulomb Integral
 Consistent 3/8+Simpson combinations
 Extension of core to zero
 LDM version in phi
 Fifth-order quadrature in outwin


            ---------
:ITE012: 12. ITERATION
            ---------

:NATO :    1 INDEPENDENT AND    1 TOTAL ATOMS IN UNITCELL
       SUBSTANCE: blebleble                                                   

       LATTICE                      = F   
:POT  : POTENTIAL OPTION EX_LDA EC_LDA VX_LDA VC_LDA
:LAT  : LATTICE CONSTANTS= 10.27741 10.27741 10.27741    1.571    1.571    1.571
:VOL  : UNIT CELL VOLUME =     271.38850
       MODE OF CALCULATION IS       = RELA
       NON-SPINPOLARIZED CALCULATION
:IFFT  : FFT-parameters:   80   80   80 Factor: 2.00


   CONVERGENCE PARAMETER FOR PSEUDOCHARGE: NCON=  9
   MAXIMAL VALUE OF RMT(JATOM)*ABSK(NKK) : RK  =29.95033


:VKCOUL :  VK-COUL convergence: 0.131E-06
       ATOMNUMBER=  1 Pr         VCOUL-ZERO =  0.14426E+00
:FIT001: LUSE= 13 SIGMA OF V-XC FIT FOR ATOM  1  0.5013001E-04
:FIT001: LUSE= 13 SIGMA OF V-XC FIT FOR ATOM  1  0.5013001E-04
:DEN  : DENSITY INTEGRAL  =         -7066.22064175   (Ry)
       ELS_POTENTIAL_AT Z=0 and Z=0.5:  -2.38557  -2.38557
       ELS_POTENTIAL_AT Y=0 and Y=0.5:   0.00000   0.00000
:VZERO:v0,v0c,v0x  -3.32735  -2.38557  -0.94178 v5,v5c,v5x  -3.32735  -2.38557  -0.94178
:VZERY:v0,v0c,v0x  -0.67725   0.00000  -0.67725 v5,v5c,v5x  -0.67725   0.00000  -0.67725
:VZERX:v0,v0c,v0x  -0.67725   0.00000  -0.67725 v5,v5c,v5x  -0.67725   0.00000  -0.67725
:LMAX-WF:   10   Non-Spherical LMAX:   4

          ATOMIC SPHERE DEPENDENT PARAMETERS FOR ATOM  Pr        
:e__0001: OVERALL ENERGY PARAMETER IS    0.2945
          OVERALL BASIS SET ON ATOM IS LAPW
:E0_0001: E( 0)=    0.2945
             APW+lo
:E0_0001: E( 0)=   -2.1924   E(BOTTOM)=   -2.573   E(TOP)=   -1.812  4  5   165
             LOCAL ORBITAL
:E1_0001: E( 1)=    0.6945
             APW+lo
:E1_0001: E( 1)=   -0.8044   E(BOTTOM)=   -1.450   E(TOP)=   -0.158  3  4   170
             LOCAL ORBITAL
:E3_0001: E( 3)=    0.4812   E(BOTTOM)=    0.339   E(TOP)=    0.623  0  1   114
             APW+lo
:E2_0001: E( 2)=    0.2945   E(BOTTOM)=    0.126   E(TOP)= -200.000  2 -1    97
             APW+lo

       K=   0.00000   0.00000   0.00000            1
:RKM  : MATRIX SIZE   189LOs:  20  RKM= 7.94  WEIGHT= 1.00  PGR:    
       EIGENVALUES ARE:
:EIG00001:      -2.1490521   -0.7926392   -0.7926392   -0.7926392    0.2458184
:EIG00006:       0.4852218    0.4987906    0.4987906    0.4987906    0.5185033
:EIG00011:       0.5185033    0.5185033    0.6199436    0.6199436    0.6199436
:EIG00016:       0.7694935    0.7694935    1.1634870    1.3704882    1.3704882
:EIG00021:       1.3704882    1.4770140
       ********************************************************

:KPT   :      NUMBER OF K-POINTS:   165
:GAP (global)   :    0.0    Ry =     0.0   eV (metal)
         Bandranges (emin - emax) and occupancy:
:BAN00001:   1   -2.149052   -2.140522  2.00000000
:BAN00002:   2   -0.851695   -0.792639  2.00000000
:BAN00003:   3   -0.830859   -0.792639  2.00000000
:BAN00004:   4   -0.814428   -0.792639  2.00000000
:BAN00005:   5    0.245818    0.472591  2.00000000
:BAN00006:   6    0.437283    0.493711  2.00000000
:BAN00007:   7    0.484164    0.500863  1.00000000
:BAN00008:   8    0.495651    0.504521  0.00000000
:BAN00009:   9    0.498791    0.507478  0.00000000
:BAN00010:  10    0.502318    0.518503  0.00000000
:BAN00011:  11    0.505963    0.518503  0.00000000
:BAN00012:  12    0.507942    0.524846  0.00000000
        Energy to separate low and high energystates:    0.19582


:NOE  : NUMBER OF ELECTRONS          =   13.000

:FER  : F E R M I - ENERGY(TETRAH.M.)=   0.4944930118
:GMA  : POTENTIAL AND CHARGE CUT-OFF  12.00 Ry**.5

:POS001: ATOM    1 X,Y,Z = 0.00000 0.00000 0.50000  MULT= 1  ZZ= 59.000  Pr        

       LMMAX  5
       LM=   0 0  4 0  4 4  6 0  6 4

:CHA001: TOTAL VALENCE CHARGE INSIDE SPHERE   1 =  10.0456    (RMT=  2.5000 )
:PCS001: PARTIAL CHARGES SPHERE =  1 S,P,D,F,      D-EG,D-T2G 
:QTL001: 2.0247 5.3611 0.5543 2.1052 0.0000 0.0000 0.0000 0.1973 0.3571 0.0000 0.0000 0.0000
        Q-s-low E-s-low   Q-p-low E-p-low   Q-d-low E-d-low   Q-f-low E-f-low
:EPL001:  1.9261 -2.1423    5.2998 -0.8175    0.0006 -0.8302    0.0002 -0.8323
        Q-s-hi  E-s-hi    Q-p-hi  E-p-hi    Q-d-hi  E-d-hi    Q-f-hi  E-f-hi 
:EPH001:  0.0986  0.3924    0.0613  0.4306    0.5537  0.4503    2.1051  0.4836

:CHA  : TOTAL VALENCE CHARGE INSIDE UNIT CELL =      13.000000

:SUM  : SUM OF EIGENVALUES =          -6.916916629


        1.ATOM      Pr                   14 CORE STATES
:1S 001: 1S               -3067.114182678 Ry
:2S 001: 2S                -492.865453994 Ry
:2PP001: 2P*               -465.965078125 Ry
:2P 001: 2P                -430.567411619 Ry
:3S 001: 3S                -105.950454432 Ry
:3PP001: 3P*                -94.488548869 Ry
:3P 001: 3P                 -87.480491895 Ry
:3DD001: 3D*                -67.408251644 Ry
:3D 001: 3D                 -65.896599658 Ry
:4S 001: 4S                 -20.627582975 Ry
:4PP001: 4P*                -16.334635118 Ry
:4P 001: 4P                 -14.807545983 Ry
:4DD001: 4D*                 -7.741234098 Ry
:4D 001: 4D                  -7.471947965 Ry
:CINT001 Core Integral Atom   1   45.999517

       DENSITY AT NUCLEUS
        JATOM        VALENCE       SEMI-CORE          CORE           TOTAL
:RTO001:   1      648.845351        0.000000   656824.910477   657473.755827
     
       CHARGES OF NEW CHARGE DENSITY
:NTO   : INTERSTITIAL CHARGE =     2.954434
:NPC   : PW Pseudocharge     =     7.568060
:NTO001: CHARGE SPHERE  1    =    56.045082

:NEC01: NUCLEAR AND ELECTRONIC CHARGE     59.00000    58.99952
     
       CHARGES OF OLD CHARGE DENSITY
:OTO   : INTERSTITIAL CHARGE =     2.954887
:OPC   : PW Pseudocharge     =     7.569283
:OTO001: CHARGE SPHERE  1    =    56.045113

:NEC02: NUCLEAR AND ELECTRONIC CHARGE     59.00000    59.00000
     
       CONVERGENCE TEST
:DTO001: DIFFERENCE IN SPHERE  1 =  0.0000709

:DIS  :  CHARGE DISTANCE       ( 0.0000709 for atom    1 spin 1)      0.0000709
 PW Mixed is           59
 
******************************************************
* MULTISECANT MIXING VER9 RELEASE 10.4.0              *
* Standard Mode with controls                        *
* Fixed density scale                                *
* Regularization       1.000E-04                     *
* Trust Upper Limit    5.000E+00                     *
* Max Number of Memory Steps    8                    *
******************************************************
 
:INFO : Forcing a restart
:PWTMP   2.0594E+02  1.2500E+02  2.7139E+02
:PLANE:  PW TOTAL      2.8320 DISTAN   1.02E-05  3.61E-04 %
:CHARG:  CLM/ATOM    977.1825 DISTAN   7.12E-05  7.29E-06 %
 
Step History
        DMIX         DMIXT        Red     Pred      Trust     Lambda    MagRel    MagAbs     Beta
  1   3.5000E-02   3.5000E-02 -1.00E+00  1.00E+00 -1.00E+01  1.00E+00  3.50E-02  3.50E-02  1.00E+00
:INFO :  Note, Pratt in use
:TRUST:  Step 2.25E-01  Charge 7.50E-02 (e) CTO  2.50E-01 (e) PW  3.50E-01 (e)
:DIRM :  MEMORY  0/ 8 SCALE   1.000
Performing Pseudo Compensation
Final Pseudo Compensation Rescaling     1.00000E+00
:MIX  :   PRATT  REGULARIZATION:  1.00E-04 GREED: 0.15000                  
     
       CHARGES OF MIXED CHARGE DENSITY
:CTO   : INTERSTITIAL CHARGE =     2.954892
:CPC   : PW Pseudocharge     =     7.569291
:CTO001: CHARGE SPHERE  1    =    56.045108

:NEC03: NUCLEAR AND ELECTRONIC CHARGE     59.00000    59.00000

PW CHANGE     H    K    L      Current       Change    Residue
:PTO001:      0    0    0  3.87790299E-02  4.592E-08  1.766E-07
:PTO002:     -1   -1   -1 -1.26354536E-01 -6.932E-08 -4.681E-08
:PTO003:      0    0   -2  7.58382069E-02  2.232E-08 -4.703E-08
:PTO004:      0   -2   -2  6.88628145E-02  7.754E-09  2.908E-07
:PTO005:     -1   -1   -3 -6.90470289E-02  2.128E-07  4.562E-07
:PTO006:     -2   -2   -2  1.79843659E-02 -8.113E-08 -1.873E-07
:PTO007:      0    0   -4  3.84258993E-03 -6.927E-08 -1.549E-07
:PTO008:     -1   -3   -3 -4.67276185E-03  2.181E-07  2.634E-07
:PTO009:      0   -2   -4  1.54783451E-03 -2.145E-07 -2.719E-07
:PTO010:     -2   -2   -4 -5.28038252E-03 -1.777E-07 -2.140E-07
:PTO011:     -3   -3   -3  2.46317347E-03  4.929E-08  6.253E-08
:PTO012:     -1   -1   -5  6.89835835E-03  1.429E-07  1.546E-07

:ENE  : ********** TOTAL ENERGY IN Ry =       -18472.06045746

