
------- epsilon_Pu_14.scf0 --------


            ---------
:ITE098: 98. ITERATION
            ---------

:NATO :    1 INDEPENDENT AND    1 TOTAL ATOMS IN UNITCELL
       SUBSTANCE: cubic body-centered  (epsilon Pu)                           

       LATTICE                      = B   
:POT  : POTENTIAL OPTION    5
:LAT  : LATTICE CONSTANTS=  7.27261  7.27261  7.27261    1.571    1.571    1.571
:VOL  : UNIT CELL VOLUME =     192.32760
       MODE OF CALCULATION IS       = RELA
       NON-SPINPOLARIZED CALCULATION
:IFFT  : FFT-parameters:   60   60   60 Factor: 2.00
       ATOMNUMBER=  1 Pu  0+     VCOUL-ZERO =  0.12546E+00
:FIT001: LUSE= 13 SIGMA OF V-XC FIT FOR ATOM  1  0.1487435E-05
:FIT001: LUSE= 13 SIGMA OF V-XC FIT FOR ATOM  1  0.1487435E-05
:DEN  : DENSITY INTEGRAL  =        -21873.74834162   (Ry)
       ELS_POTENTIAL_AT Z=0 and Z=0.5:  -2.36378  -2.36378
       ELS_POTENTIAL_AT Y=0 and Y=0.5:   0.00000   0.00000
:VZERO:v0,v0c,v0x  -3.33832  -2.36378  -0.97454 v5,v5c,v5x  -3.33832  -2.36378  -0.97454
:VZERY:v0,v0c,v0x  -0.82995   0.00000  -0.82995 v5,v5c,v5x  -0.82995   0.00000  -0.82995
:VZERX:v0,v0c,v0x  -0.82995   0.00000  -0.82995 v5,v5c,v5x  -0.82995   0.00000  -0.82995

------- epsilon_Pu_14.scf1 --------

          ATOMIC SPHERE DEPENDENT PARAMETERS FOR ATOM  Pu  0+    
:e__0001: OVERALL ENERGY PARAMETER IS    0.7655
          OVERALL BASIS SET ON ATOM IS LAPW
:E0_0001: E( 0)=    0.7655
             APW+lo
:E0_0001: E( 0)=   -2.4310   E(BOTTOM)=   -3.207   E(TOP)=   -1.655
             LOCAL ORBITAL
:E1_0001: E( 1)=   -1.3800   E(BOTTOM)=   -1.514   E(TOP)= -200.000
             APW+lo
:E1_0001: E( 1)=    0.7655
             LOCAL ORBITAL
:E3_0001: E( 3)=    0.7655   E(BOTTOM)=    0.540   E(TOP)= -200.000
             APW+lo
:E2_0001: E( 2)=    0.7655   E(BOTTOM)=    0.691   E(TOP)= -200.000
             APW+lo

       K=   0.00000   0.00000   0.00000            1
:RKM  : MATRIX SIZE  221LOs:  20  RKM= 8.31  WEIGHT= 1.00  PGR:    
       EIGENVALUES ARE:
:EIG00001:      -2.3970708   -0.3381765   -0.3381765   -0.3381765    0.5933170
:EIG00006:       0.9867087    0.9867087    0.9867087    1.0809399    1.0809399
:EIG00011:       1.0809399    1.1121043    1.1422827    1.1422827    1.1422827
:EIG00016:       1.3650643    1.3650643    1.9632051    1.9632051    1.9632051
:EIG00021:       2.5652098    2.5652098    2.8218406    2.8218406    2.8218406
:EIG00026:       2.9153108    3.5491109    3.5491109    3.5491109    3.9383799
:EIG00031:       3.9383799    3.9383799    4.2239679    4.2556715    4.2556715
:EIG00036:       4.2556715    4.3279941    4.3279941    4.3377600    4.3377600
:EIG00041:       4.3377600    4.5740155    4.5740155    4.7502350    4.7502350
:EIG00046:       4.7502350    4.8086426    4.8086426    4.8086426    4.8097819
 
:EIG00051:       5.3876814    5.3876814    5.7097726    5.7097726    5.7097726
:EIG00056:       5.9008777    5.9008777    5.9008777    6.0499921    6.3407502
:EIG00061:       6.3407502    6.3407502    6.7417621    6.8045075    6.8045075
:EIG00066:       6.8045075    6.8209234    6.8209234    7.2182056    7.2182056
:EIG00071:       7.2182056    7.2740685    7.2740685    7.2740685
       ********************************************************

:KPT   :      NUMBER OF K-POINTS:   286

------- epsilon_Pu_14.scfso --------
   0.0   0.0 angle (M,z), angle (M,x) deg
 
        SPIN-ORBIT EIGENVALUES:
     K=   0.00000   0.00000   0.00000            1
      MATRIX SIZE=  148   WEIGHT= 1.00
     EIGENVALUES ARE:
          -2.3970708   -2.3970708   -0.7968435   -0.7968435   -0.1406856
          -0.1406856   -0.1406856   -0.1406856    0.5933170    0.5933170
           0.9671480    0.9671480    0.9766197    0.9766197    0.9766197
           0.9766197    1.0775290    1.0775290    1.0775290    1.0775290
           1.1156190    1.1156190    1.1212372    1.1212372    1.1277276
           1.1277276    1.1277276    1.1277276    1.1631570    1.1631570
           1.3674586    1.3674586    1.3674586    1.3674586    1.9597987
           1.9597987    1.9657642    1.9657642    1.9657642    1.9657642

           2.5643492    2.5643492    2.5643492    2.5643492    2.6783580
           2.6783580    2.8886933    2.8886933    2.8886933    2.8886933
           2.9153108    2.9153108    3.5299692    3.5299692    3.5299692
           3.5299692    3.5880076    3.5880076    3.7990965    3.7990965
           4.0305863    4.0305863    4.0305863    4.0305863    4.2239678
           4.2239678    4.2556541    4.2556541    4.2556802    4.2556802
           4.2556802    4.2556802    4.3237512    4.3237512    4.3237512
           4.3237512    4.3409557    4.3409557    4.3417366    4.3417366

           4.3417366    4.3417366
       ********************************************************

------- epsilon_Pu_14.scf2 --------
:GMA  : POTENTIAL AND CHARGE CUT-OFF  12.00 Ry**.5
         Bandranges (emin - emax) and occupancy:
:BAN00008:   8   -0.276781   -0.140686  1.00000000
:BAN00009:   9    0.593317    0.978785  1.00000000
:BAN00010:  10    0.593317    0.978785  1.00000000
:BAN00011:  11    0.806780    0.997833  1.00000000
:BAN00012:  12    0.806780    0.997833  1.00000000
:BAN00013:  13    0.940437    1.003169  1.00000000
:BAN00014:  14    0.940437    1.003169  1.00000000
:BAN00015:  15    0.976620    1.006811  0.98686382
:BAN00016:  16    0.976620    1.006811  0.98686382
:BAN00017:  17    1.001111    1.077529  0.01313618
:BAN00018:  18    1.001111    1.077529  0.01313618
:BAN00019:  19    1.020778    1.077529  0.00000000
:BAN00020:  20    1.020778    1.077529  0.00000000
:BAN00021:  21    1.077110    1.115619  0.00000000
:BAN00022:  22    1.077110    1.115619  0.00000000
:BAN00023:  23    1.082122    1.121237  0.00000000
        Energy to separate low and high energystates:    0.54332


:NLDA  : NUMBER OF ELECTRONS          =  16.000

:FLDA  : F E R M I - ENERGY           =   1.50575




:POS001: AT.NR.   1 POSITION = 0.00000 0.00000 0.00000  MULTIPLICITY =  1

       LMMAX  5
       LM=   0 0  4 0  4 4  6 0  6 4
:FER DMFT Fermi Energy   0.96564
:EORB    0.22630247
:SUM SUM OF DMFT BAND ENERGIES   -0.04630089

:CHA001: TOTAL CHARGE INSIDE SPHERE   1 =    11.549255
:PCS001: PARTIAL CHARGES SPHERE =  1 S,P,D,F,      D-EG,D-T2G 
:QTL001: 1.9563 4.5917 0.3429 4.6578 0.0000 0.0000 0.0000 0.1700 0.1801 0.0000 0.0000 0.0000
        Q-s-low E-s-low   Q-p-low E-p-low   Q-d-low E-d-low   Q-f-low E-f-low
:EPL001:  1.8719 -2.3828    4.4965 -0.4561    0.0028 -0.2736    0.0010 -0.2824
        Q-s-hi  E-s-hi    Q-p-hi  E-p-hi    Q-d-hi  E-d-hi    Q-f-hi  E-f-hi 
:EPH001:  0.0843  0.8152    0.0952  0.8723    0.3401  0.8913    4.6568  0.9807

:CHA  : TOTAL CHARGE INSIDE UNIT CELL =      16.000000

:ESUM  : SUM OF EIGENVALUES =           0.235073501


------- epsilon_Pu_14.scfc --------

        1.ATOM      Pu  0+               21 CORE STATES
:1S 001: 1S               -8966.723169938 Ry
:2S 001: 2S               -1687.392950736 Ry
:2PP001: 2P*              -1628.087665034 Ry
:2P 001: 2P               -1314.935182969 Ry
:3S 001: 3S                -427.925884449 Ry
:3PP001: 3P*               -401.002007830 Ry
:3P 001: 3P                -328.440048844 Ry
:3DD001: 3D*               -286.201066875 Ry
:3D 001: 3D                -271.658492308 Ry
:4S 001: 4S                -109.409029980 Ry
:4PP001: 4P*                -97.221216776 Ry
:4P 001: 4P                 -78.076435756 Ry
:4DD001: 4D*                -58.789000882 Ry
:4D 001: 4D                 -55.294557665 Ry
:5S 001: 5S                 -23.569067581 Ry
:5PP001: 5P*                -18.752063741 Ry
:5P 001: 5P                 -14.066171549 Ry
:4FF001: 4F*                -29.893421108 Ry
:4F 001: 4F                 -28.965445333 Ry
:5DD001: 5D*                 -7.035172961 Ry
:5D 001: 5D                  -6.337594731 Ry

------- epsilon_Pu_14.scfm --------

       DENSITY AT NUCLEUS
        JATOM    VALENCE       SEMI-CORE            CORE           TOTAL
:RTO001:   1    23547.111137        0.000000 45141805.745805 45165352.856942
     
       CHARGES OF NEW CHARGE DENSITY
:NTO  : TOTAL   INTERSTITIAL CHARGE=    4.4507433
:NTO001: TOTAL   CHARGE IN SPHERE  1 =       89.5398635

:NEC01: NUCLEAR AND ELECTRONIC CHARGE     94.00000    93.99061     1.00010
     
       CHARGES OF OLD CHARGE DENSITY
:OTO  : TOTAL   INTERSTITIAL CHARGE=    4.4560760
:OTO001: TOTAL   CHARGE IN SPHERE  1 =       89.5439240

:NEC02: NUCLEAR AND ELECTRONIC CHARGE     94.00000    94.00000     1.00000
     
       CONVERGENCE TEST
:DTO001: TOTAL   DIFFERENCE CHARGE**2 IN SPHERE  1 =  0.0038022

:DIS  :  CHARGE DISTANCE       ( 0.0038022 for atom    1 spin 1)      0.0038022
:BIG check (qbig,qrms,qtot)    0.127D-02   0.269D-02   0.380D-02
 
******************************************************
* MULTISECANT MIXING VER4 OPTIONS                    *
* Unpredicted Step Limit   0.100000                  *
* Plane Wave Dynamic Rescaling                       *
* Dynamic Regularization active                      *
* Upper Cutoff Lambda  1.0E-01 Lower 3.5E-04         *
* SQRT Multiplicity/Degeneracy                       *
* Max Number of Memory Steps    8                    *
******************************************************
 
:PLANE:  INTERSTITIAL TOTAL      1.85374 DISTAN  2.162E-02 % 
:CHARG:  CLM CHARGE   /ATOM    713.22946 DISTAN  1.684E-03 % 
:MIX  :  PRATT  REGULARIZATION: 3.50E-04  GREED: 0.035
     
       CHARGES OF MIXED CHARGE DENSITY
:CTO  : TOTAL   INTERSTITIAL CHARGE=    4.4562181
:CTO001: TOTAL   CHARGE IN SPHERE  1 =       89.5437819

:NEC03: NUCLEAR AND ELECTRONIC CHARGE     94.00000    94.00000     1.00000


:ENE  : ********** TOTAL ENERGY IN Ry =       -59354.73472905


------- epsilon_Pu_14.scf0 --------


            ---------
:ITE099: 99. ITERATION
            ---------

:NATO :    1 INDEPENDENT AND    1 TOTAL ATOMS IN UNITCELL
       SUBSTANCE: cubic body-centered  (epsilon Pu)                           

       LATTICE                      = B   
:POT  : POTENTIAL OPTION    5
:LAT  : LATTICE CONSTANTS=  7.27261  7.27261  7.27261    1.571    1.571    1.571
:VOL  : UNIT CELL VOLUME =     192.32760
       MODE OF CALCULATION IS       = RELA
       NON-SPINPOLARIZED CALCULATION
:IFFT  : FFT-parameters:   60   60   60 Factor: 2.00
       ATOMNUMBER=  1 Pu  0+     VCOUL-ZERO =  0.12545E+00
:FIT001: LUSE= 13 SIGMA OF V-XC FIT FOR ATOM  1  0.1485139E-05
:FIT001: LUSE= 13 SIGMA OF V-XC FIT FOR ATOM  1  0.1485139E-05
:DEN  : DENSITY INTEGRAL  =        -21873.73166700   (Ry)
       ELS_POTENTIAL_AT Z=0 and Z=0.5:  -2.36382  -2.36382
       ELS_POTENTIAL_AT Y=0 and Y=0.5:   0.00000   0.00000
:VZERO:v0,v0c,v0x  -3.33836  -2.36382  -0.97455 v5,v5c,v5x  -3.33836  -2.36382  -0.97455
:VZERY:v0,v0c,v0x  -0.82996   0.00000  -0.82996 v5,v5c,v5x  -0.82996   0.00000  -0.82996
:VZERX:v0,v0c,v0x  -0.82996   0.00000  -0.82996 v5,v5c,v5x  -0.82996   0.00000  -0.82996

------- epsilon_Pu_14.scf1 --------

          ATOMIC SPHERE DEPENDENT PARAMETERS FOR ATOM  Pu  0+    
:e__0001: OVERALL ENERGY PARAMETER IS    0.7655
          OVERALL BASIS SET ON ATOM IS LAPW
:E0_0001: E( 0)=    0.7655
             APW+lo
:E0_0001: E( 0)=   -2.4310   E(BOTTOM)=   -3.207   E(TOP)=   -1.655
             LOCAL ORBITAL
:E1_0001: E( 1)=   -1.3800   E(BOTTOM)=   -1.514   E(TOP)= -200.000
             APW+lo
:E1_0001: E( 1)=    0.7655
             LOCAL ORBITAL
:E3_0001: E( 3)=    0.7655   E(BOTTOM)=    0.540   E(TOP)= -200.000
             APW+lo
:E2_0001: E( 2)=    0.7655   E(BOTTOM)=    0.691   E(TOP)= -200.000
             APW+lo

       K=   0.00000   0.00000   0.00000            1
:RKM  : MATRIX SIZE  221LOs:  20  RKM= 8.31  WEIGHT= 1.00  PGR:    
       EIGENVALUES ARE:
:EIG00001:      -2.3971512   -0.3382330   -0.3382330   -0.3382330    0.5933176
:EIG00006:       0.9866297    0.9866297    0.9866297    1.0808395    1.0808395
:EIG00011:       1.0808395    1.1120043    1.1422697    1.1422697    1.1422697
:EIG00016:       1.3650510    1.3650510    1.9631856    1.9631856    1.9631856
:EIG00021:       2.5652029    2.5652029    2.8218257    2.8218257    2.8218257
:EIG00026:       2.9153131    3.5490834    3.5490834    3.5490834    3.9383593
:EIG00031:       3.9383593    3.9383593    4.2239489    4.2556675    4.2556675
:EIG00036:       4.2556675    4.3279900    4.3279900    4.3377573    4.3377573
:EIG00041:       4.3377573    4.5740239    4.5740239    4.7502222    4.7502222
:EIG00046:       4.7502222    4.8086371    4.8086371    4.8086371    4.8097287
 
:EIG00051:       5.3876698    5.3876698    5.7097708    5.7097708    5.7097708
:EIG00056:       5.9008789    5.9008789    5.9008789    6.0499947    6.3407335
:EIG00061:       6.3407335    6.3407335    6.7417301    6.8044945    6.8044945
:EIG00066:       6.8044945    6.8208999    6.8208999    7.2182022    7.2182022
:EIG00071:       7.2182022    7.2740684    7.2740684    7.2740684
       ********************************************************

:KPT   :      NUMBER OF K-POINTS:   286

------- epsilon_Pu_14.scfso --------
   0.0   0.0 angle (M,z), angle (M,x) deg
 
        SPIN-ORBIT EIGENVALUES:
     K=   0.00000   0.00000   0.00000            1
      MATRIX SIZE=  148   WEIGHT= 1.00
     EIGENVALUES ARE:
          -2.3971512   -2.3971512   -0.7969090   -0.7969090   -0.1407379
          -0.1407379   -0.1407379   -0.1407379    0.5933176    0.5933176
           0.9670656    0.9670656    0.9765361    0.9765361    0.9765361
           0.9765361    1.0774329    1.0774329    1.0774329    1.0774329
           1.1155202    1.1155202    1.1211398    1.1211398    1.1277139
           1.1277139    1.1277139    1.1277139    1.1631446    1.1631446
           1.3674455    1.3674455    1.3674455    1.3674455    1.9597795
           1.9597795    1.9657443    1.9657443    1.9657443    1.9657443

           2.5643423    2.5643423    2.5643423    2.5643423    2.6783423
           2.6783423    2.8886789    2.8886789    2.8886789    2.8886789
           2.9153131    2.9153131    3.5299416    3.5299416    3.5299416
           3.5299416    3.5879806    3.5879806    3.7990770    3.7990770
           4.0305652    4.0305652    4.0305653    4.0305653    4.2239489
           4.2239489    4.2556501    4.2556501    4.2556762    4.2556762
           4.2556762    4.2556762    4.3237475    4.3237475    4.3237475
           4.3237475    4.3409529    4.3409529    4.3417335    4.3417335

           4.3417335    4.3417335
       ********************************************************

------- epsilon_Pu_14.scf2 --------
:GMA  : POTENTIAL AND CHARGE CUT-OFF  12.00 Ry**.5
         Bandranges (emin - emax) and occupancy:
:BAN00008:   8   -0.276824   -0.140738  1.00000000
:BAN00009:   9    0.593318    0.978760  1.00000000
:BAN00010:  10    0.593318    0.978760  1.00000000
:BAN00011:  11    0.806779    0.997755  1.00000000
:BAN00012:  12    0.806779    0.997755  1.00000000
:BAN00013:  13    0.940402    1.003077  1.00000000
:BAN00014:  14    0.940402    1.003077  1.00000000
:BAN00015:  15    0.976536    1.006728  0.98680040
:BAN00016:  16    0.976536    1.006728  0.98680040
:BAN00017:  17    1.001026    1.077433  0.01319960
:BAN00018:  18    1.001026    1.077433  0.01319960
:BAN00019:  19    1.020713    1.077433  0.00000000
:BAN00020:  20    1.020713    1.077433  0.00000000
:BAN00021:  21    1.077022    1.115520  0.00000000
:BAN00022:  22    1.077022    1.115520  0.00000000
:BAN00023:  23    1.082032    1.121140  0.00000000
        Energy to separate low and high energystates:    0.54332


:NLDA  : NUMBER OF ELECTRONS          =  16.000

:FLDA  : F E R M I - ENERGY           =   1.50566




:POS001: AT.NR.   1 POSITION = 0.00000 0.00000 0.00000  MULTIPLICITY =  1

       LMMAX  5
       LM=   0 0  4 0  4 4  6 0  6 4
:FER DMFT Fermi Energy   0.96562
:EORB    0.22591945
:SUM SUM OF DMFT BAND ENERGIES   -0.04689363

:CHA001: TOTAL CHARGE INSIDE SPHERE   1 =    11.549574
:PCS001: PARTIAL CHARGES SPHERE =  1 S,P,D,F,      D-EG,D-T2G 
:QTL001: 1.9563 4.5918 0.3429 4.6581 0.0000 0.0000 0.0000 0.1699 0.1801 0.0000 0.0000 0.0000
        Q-s-low E-s-low   Q-p-low E-p-low   Q-d-low E-d-low   Q-f-low E-f-low
:EPL001:  1.8720 -2.3829    4.4966 -0.4561    0.0028 -0.2737    0.0010 -0.2825
        Q-s-hi  E-s-hi    Q-p-hi  E-p-hi    Q-d-hi  E-d-hi    Q-f-hi  E-f-hi 
:EPH001:  0.0843  0.8152    0.0952  0.8723    0.3401  0.8913    4.6570  0.9807

:CHA  : TOTAL CHARGE INSIDE UNIT CELL =      16.000000

:ESUM  : SUM OF EIGENVALUES =           0.234109737


------- epsilon_Pu_14.scfc --------

        1.ATOM      Pu  0+               21 CORE STATES
:1S 001: 1S               -8966.723402235 Ry
:2S 001: 2S               -1687.393182489 Ry
:2PP001: 2P*              -1628.087896970 Ry
:2P 001: 2P               -1314.935414706 Ry
:3S 001: 3S                -427.926110986 Ry
:3PP001: 3P*               -401.002235086 Ry
:3P 001: 3P                -328.440274250 Ry
:3DD001: 3D*               -286.201294346 Ry
:3D 001: 3D                -271.658719314 Ry
:4S 001: 4S                -109.409236260 Ry
:4PP001: 4P*                -97.221423305 Ry
:4P 001: 4P                 -78.076638095 Ry
:4DD001: 4D*                -58.789203813 Ry
:4D 001: 4D                 -55.294759397 Ry
:5S 001: 5S                 -23.569239650 Ry
:5PP001: 5P*                -18.752233026 Ry
:5P 001: 5P                 -14.066331492 Ry
:4FF001: 4F*                -29.893624935 Ry
:4F 001: 4F                 -28.965648548 Ry
:5DD001: 5D*                 -7.035322648 Ry
:5D 001: 5D                  -6.337740966 Ry

------- epsilon_Pu_14.scfm --------

       DENSITY AT NUCLEUS
        JATOM    VALENCE       SEMI-CORE            CORE           TOTAL
:RTO001:   1    23547.422231        0.000000 45141806.027351 45165353.449582
     
       CHARGES OF NEW CHARGE DENSITY
:NTO  : TOTAL   INTERSTITIAL CHARGE=    4.4504242
:NTO001: TOTAL   CHARGE IN SPHERE  1 =       89.5401831

:NEC01: NUCLEAR AND ELECTRONIC CHARGE     94.00000    93.99061     1.00010
     
       CHARGES OF OLD CHARGE DENSITY
:OTO  : TOTAL   INTERSTITIAL CHARGE=    4.4562181
:OTO001: TOTAL   CHARGE IN SPHERE  1 =       89.5437819

:NEC02: NUCLEAR AND ELECTRONIC CHARGE     94.00000    94.00000     1.00000
     
       CONVERGENCE TEST
:DTO001: TOTAL   DIFFERENCE CHARGE**2 IN SPHERE  1 =  0.0033495

:DIS  :  CHARGE DISTANCE       ( 0.0033495 for atom    1 spin 1)      0.0033495
:BIG check (qbig,qrms,qtot)    0.112D-02   0.237D-02   0.335D-02
 
******************************************************
* MULTISECANT MIXING VER4 OPTIONS                    *
* Unpredicted Step Limit   0.100000                  *
* Plane Wave Dynamic Rescaling                       *
* Dynamic Regularization active                      *
* Upper Cutoff Lambda  1.0E-01 Lower 3.5E-04         *
* SQRT Multiplicity/Degeneracy                       *
* Max Number of Memory Steps    8                    *
******************************************************
 
:PLANE:  INTERSTITIAL TOTAL      1.85374 DISTAN  1.936E-02 % 
:CHARG:  CLM CHARGE   /ATOM    713.22941 DISTAN  1.540E-03 % 
:INFO :  Dynamic rescale   3.028E+01  1.000E-01
:INFO :  Number of Memory Steps    1 Skipping    0
:INFO :  Bounds         0.387D-01  0.200D+00  0.220D+00  0.387D-01
:DIRM :  MEMORY 1/8 RESCALE  30.28 RED 0.905 PRED 1.000 NEXT 0.454 COND 1.00E+00
:DIRP :  |BROYD|= 3.303E-03 |PRATT|= 4.203E-04 ANGLE=   0.3 DEGREES
:DIRB :  |BROYD|= 4.701E-03 |PRATT|= 5.975E-04 ANGLE=   0.3 DEGREES
:MIX  :  MSR1   REGULARIZATION: 3.50E-04  GREED: 0.039
     
       CHARGES OF MIXED CHARGE DENSITY
:CTO  : TOTAL   INTERSTITIAL CHARGE=    4.4573103
:CTO001: TOTAL   CHARGE IN SPHERE  1 =       89.5426897

:NEC03: NUCLEAR AND ELECTRONIC CHARGE     94.00000    94.00000     1.00000


:ENE  : ********** TOTAL ENERGY IN Ry =       -59354.73473465


------- epsilon_Pu_14.scf0 --------


            ---------
:ITE100:100. ITERATION
            ---------

:NATO :    1 INDEPENDENT AND    1 TOTAL ATOMS IN UNITCELL
       SUBSTANCE: cubic body-centered  (epsilon Pu)                           

       LATTICE                      = B   
:POT  : POTENTIAL OPTION    5
:LAT  : LATTICE CONSTANTS=  7.27261  7.27261  7.27261    1.571    1.571    1.571
:VOL  : UNIT CELL VOLUME =     192.32760
       MODE OF CALCULATION IS       = RELA
       NON-SPINPOLARIZED CALCULATION
:IFFT  : FFT-parameters:   60   60   60 Factor: 2.00
       ATOMNUMBER=  1 Pu  0+     VCOUL-ZERO =  0.12537E+00
:FIT001: LUSE= 13 SIGMA OF V-XC FIT FOR ATOM  1  0.1466308E-05
:FIT001: LUSE= 13 SIGMA OF V-XC FIT FOR ATOM  1  0.1466308E-05
:DEN  : DENSITY INTEGRAL  =        -21873.60685348   (Ry)
       ELS_POTENTIAL_AT Z=0 and Z=0.5:  -2.36410  -2.36410
       ELS_POTENTIAL_AT Y=0 and Y=0.5:   0.00000   0.00000
:VZERO:v0,v0c,v0x  -3.33868  -2.36410  -0.97458 v5,v5c,v5x  -3.33868  -2.36410  -0.97458
:VZERY:v0,v0c,v0x  -0.83001   0.00000  -0.83001 v5,v5c,v5x  -0.83001   0.00000  -0.83001
:VZERX:v0,v0c,v0x  -0.83001   0.00000  -0.83001 v5,v5c,v5x  -0.83001   0.00000  -0.83001

------- epsilon_Pu_14.scf1 --------

          ATOMIC SPHERE DEPENDENT PARAMETERS FOR ATOM  Pu  0+    
:e__0001: OVERALL ENERGY PARAMETER IS    0.7655
          OVERALL BASIS SET ON ATOM IS LAPW
:E0_0001: E( 0)=    0.7655
             APW+lo
:E0_0001: E( 0)=   -2.4310   E(BOTTOM)=   -3.207   E(TOP)=   -1.655
             LOCAL ORBITAL
:E1_0001: E( 1)=   -1.3800   E(BOTTOM)=   -1.514   E(TOP)= -200.000
             APW+lo
:E1_0001: E( 1)=    0.7655
             LOCAL ORBITAL
:E3_0001: E( 3)=    0.7655   E(BOTTOM)=    0.535   E(TOP)= -200.000
             APW+lo
:E2_0001: E( 2)=    0.7655   E(BOTTOM)=    0.691   E(TOP)= -200.000
             APW+lo

       K=   0.00000   0.00000   0.00000            1
:RKM  : MATRIX SIZE  221LOs:  20  RKM= 8.31  WEIGHT= 1.00  PGR:    
       EIGENVALUES ARE:
:EIG00001:      -2.3977630   -0.3386636   -0.3386636   -0.3386636    0.5933226
:EIG00006:       0.9860295    0.9860295    0.9860295    1.0800764    1.0800764
:EIG00011:       1.0800764    1.1112476    1.1421707    1.1421707    1.1421707
:EIG00016:       1.3649488    1.3649488    1.9630382    1.9630382    1.9630382
:EIG00021:       2.5651506    2.5651506    2.8217127    2.8217127    2.8217127
:EIG00026:       2.9153304    3.5488751    3.5488751    3.5488751    3.9382028
:EIG00031:       3.9382028    3.9382028    4.2238043    4.2556364    4.2556364
:EIG00036:       4.2556364    4.3279587    4.3279587    4.3377365    4.3377365
:EIG00041:       4.3377365    4.5740886    4.5740886    4.7501249    4.7501249
:EIG00046:       4.7501249    4.8085956    4.8085956    4.8085956    4.8093257
 
:EIG00051:       5.3875803    5.3875803    5.7097574    5.7097574    5.7097574
:EIG00056:       5.9008880    5.9008880    5.9008880    6.0500148    6.3406067
:EIG00061:       6.3406067    6.3406067    6.7414859    6.8043951    6.8043951
:EIG00066:       6.8043951    6.8207210    6.8207210    7.2181765    7.2181765
:EIG00071:       7.2181765    7.2740678    7.2740678    7.2740678
       ********************************************************

:KPT   :      NUMBER OF K-POINTS:   286

------- epsilon_Pu_14.scfso --------
   0.0   0.0 angle (M,z), angle (M,x) deg
 
        SPIN-ORBIT EIGENVALUES:
     K=   0.00000   0.00000   0.00000            1
      MATRIX SIZE=  148   WEIGHT= 1.00
     EIGENVALUES ARE:
          -2.3977630   -2.3977630   -0.7974082   -0.7974082   -0.1411364
          -0.1411364   -0.1411364   -0.1411364    0.5933226    0.5933226
           0.9664401    0.9664401    0.9759014    0.9759014    0.9759014
           0.9759014    1.0767024    1.0767024    1.0767024    1.0767024
           1.1147693    1.1147693    1.1204025    1.1204025    1.1276098
           1.1276098    1.1276098    1.1276098    1.1630511    1.1630511
           1.3673450    1.3673450    1.3673450    1.3673450    1.9596349
           1.9596349    1.9655944    1.9655944    1.9655944    1.9655944

           2.5642899    2.5642899    2.5642899    2.5642899    2.6782229
           2.6782229    2.8885696    2.8885696    2.8885696    2.8885696
           2.9153304    2.9153304    3.5297323    3.5297323    3.5297323
           3.5297323    3.5877757    3.5877757    3.7989292    3.7989292
           4.0304062    4.0304062    4.0304062    4.0304062    4.2238042
           4.2238042    4.2556190    4.2556190    4.2556451    4.2556451
           4.2556451    4.2556451    4.3237189    4.3237189    4.3237189
           4.3237189    4.3409322    4.3409322    4.3417100    4.3417100

           4.3417100    4.3417100
       ********************************************************

------- epsilon_Pu_14.scf2 --------
:GMA  : POTENTIAL AND CHARGE CUT-OFF  12.00 Ry**.5
         Bandranges (emin - emax) and occupancy:
:BAN00008:   8   -0.277157   -0.141136  1.00000000
:BAN00009:   9    0.593323    0.978564  1.00000000
:BAN00010:  10    0.593323    0.978564  1.00000000
:BAN00011:  11    0.806776    0.997155  1.00000000
:BAN00012:  12    0.806776    0.997155  1.00000000
:BAN00013:  13    0.940132    1.002384  1.00000000
:BAN00014:  14    0.940132    1.002384  1.00000000
:BAN00015:  15    0.975901    1.006101  0.98630037
:BAN00016:  16    0.975901    1.006101  0.98630037
:BAN00017:  17    1.000383    1.076702  0.01369534
:BAN00018:  18    1.000383    1.076702  0.01369534
:BAN00019:  19    1.020217    1.076702  0.00000000
:BAN00020:  20    1.020217    1.076702  0.00000000
:BAN00021:  21    1.076354    1.114769  0.00000000
:BAN00022:  22    1.076354    1.114769  0.00000000
:BAN00023:  23    1.081348    1.120403  0.00000000
        Energy to separate low and high energystates:    0.54332


:NLDA  : NUMBER OF ELECTRONS          =  16.000

:FLDA  : F E R M I - ENERGY           =   1.50499




:POS001: AT.NR.   1 POSITION = 0.00000 0.00000 0.00000  MULTIPLICITY =  1

       LMMAX  5
       LM=   0 0  4 0  4 4  6 0  6 4
:FER DMFT Fermi Energy   0.96542
:EORB    0.22350288
:SUM SUM OF DMFT BAND ENERGIES   -0.05192086

:CHA001: TOTAL CHARGE INSIDE SPHERE   1 =    11.552586
:PCS001: PARTIAL CHARGES SPHERE =  1 S,P,D,F,      D-EG,D-T2G 
:QTL001: 1.9563 4.5922 0.3426 4.6610 0.0000 0.0000 0.0000 0.1698 0.1799 0.0000 0.0000 0.0000
        Q-s-low E-s-low   Q-p-low E-p-low   Q-d-low E-d-low   Q-f-low E-f-low
:EPL001:  1.8720 -2.3835    4.4971 -0.4565    0.0028 -0.2740    0.0010 -0.2828
        Q-s-hi  E-s-hi    Q-p-hi  E-p-hi    Q-d-hi  E-d-hi    Q-f-hi  E-f-hi 
:EPH001:  0.0843  0.8151    0.0950  0.8720    0.3398  0.8910    4.6599  0.9801

:CHA  : TOTAL CHARGE INSIDE UNIT CELL =      16.000000

:ESUM  : SUM OF EIGENVALUES =           0.226800678


------- epsilon_Pu_14.scfc --------

        1.ATOM      Pu  0+               21 CORE STATES
:1S 001: 1S               -8966.725120388 Ry
:2S 001: 2S               -1687.394900584 Ry
:2PP001: 2P*              -1628.089615446 Ry
:2P 001: 2P               -1314.937132673 Ry
:3S 001: 3S                -427.927797104 Ry
:3PP001: 3P*               -401.003925932 Ry
:3P 001: 3P                -328.441952559 Ry
:3DD001: 3D*               -286.202986641 Ry
:3D 001: 3D                -271.660408538 Ry
:4S 001: 4S                -109.410780207 Ry
:4PP001: 4P*                -97.222968963 Ry
:4P 001: 4P                 -78.078154070 Ry
:4DD001: 4D*                -58.790723934 Ry
:4D 001: 4D                 -55.296271020 Ry
:5S 001: 5S                 -23.570537608 Ry
:5PP001: 5P*                -18.753510456 Ry
:5P 001: 5P                 -14.067540011 Ry
:4FF001: 4F*                -29.895151645 Ry
:4F 001: 4F                 -28.967170919 Ry
:5DD001: 5D*                 -7.036454859 Ry
:5D 001: 5D                  -6.338847481 Ry

------- epsilon_Pu_14.scfm --------

       DENSITY AT NUCLEUS
        JATOM    VALENCE       SEMI-CORE            CORE           TOTAL
:RTO001:   1    23549.695740        0.000000 45141808.028406 45165357.724145
     
       CHARGES OF NEW CHARGE DENSITY
:NTO  : TOTAL   INTERSTITIAL CHARGE=    4.4474123
:NTO001: TOTAL   CHARGE IN SPHERE  1 =       89.5431992

:NEC01: NUCLEAR AND ELECTRONIC CHARGE     94.00000    93.99061     1.00010
     
       CHARGES OF OLD CHARGE DENSITY
:OTO  : TOTAL   INTERSTITIAL CHARGE=    4.4573103
:OTO001: TOTAL   CHARGE IN SPHERE  1 =       89.5426897

:NEC02: NUCLEAR AND ELECTRONIC CHARGE     94.00000    94.00000     1.00000
     
       CONVERGENCE TEST
:DTO001: TOTAL   DIFFERENCE CHARGE**2 IN SPHERE  1 =  0.0008594

:DIS  :  CHARGE DISTANCE       ( 0.0008594 for atom    1 spin 1)      0.0008594
:BIG check (qbig,qrms,qtot)    0.286D-03   0.608D-03   0.859D-03
 
******************************************************
* MULTISECANT MIXING VER4 OPTIONS                    *
* Unpredicted Step Limit   0.100000                  *
* Plane Wave Dynamic Rescaling                       *
* Dynamic Regularization active                      *
* Upper Cutoff Lambda  1.0E-01 Lower 3.5E-04         *
* SQRT Multiplicity/Degeneracy                       *
* Max Number of Memory Steps    8                    *
******************************************************
 
:PLANE:  INTERSTITIAL TOTAL      1.85373 DISTAN  7.919E-03 % 
:CHARG:  CLM CHARGE   /ATOM    713.22898 DISTAN  7.425E-04 % 
:INFO :  Dynamic rescale   3.210E+01  1.000E-01
:INFO :  Number of Memory Steps    2 Skipping    0
:INFO :  Singular value   2.550E+00 Weight   9.933E-01 Projections   4.333E-04 -6.128E-04
:INFO :  Singular value   3.633E-05 Weight   2.991E-08 Projections   4.334E-04 -8.756E-09
:INFO :  Bounds         0.773D-01  0.200D+00  0.102D+00  0.773D-01
:DIRM :  MEMORY 2/8 RESCALE  32.10 RED 0.445 PRED 0.454 NEXT 0.980 COND 1.28E+00
:DIRP :  |BROYD|= 3.719E-04 |PRATT|= 3.644E-04 ANGLE=  22.6 DEGREES
:DIRB :  |BROYD|= 5.118E-04 |PRATT|= 5.482E-04 ANGLE=  22.1 DEGREES
:MIX  :  MSR1   REGULARIZATION: 2.10E-01  GREED: 0.077
     
       CHARGES OF MIXED CHARGE DENSITY
:CTO  : TOTAL   INTERSTITIAL CHARGE=    4.4572284
:CTO001: TOTAL   CHARGE IN SPHERE  1 =       89.5427716

:NEC03: NUCLEAR AND ELECTRONIC CHARGE     94.00000    94.00000     1.00000


:ENE  : ********** TOTAL ENERGY IN Ry =       -59354.73480328


------- epsilon_Pu_14.scf0 --------


            ---------
:ITE101:101. ITERATION
            ---------

:NATO :    1 INDEPENDENT AND    1 TOTAL ATOMS IN UNITCELL
       SUBSTANCE: cubic body-centered  (epsilon Pu)                           

       LATTICE                      = B   
:POT  : POTENTIAL OPTION    5
:LAT  : LATTICE CONSTANTS=  7.27261  7.27261  7.27261    1.571    1.571    1.571
:VOL  : UNIT CELL VOLUME =     192.32760
       MODE OF CALCULATION IS       = RELA
       NON-SPINPOLARIZED CALCULATION
:IFFT  : FFT-parameters:   60   60   60 Factor: 2.00
       ATOMNUMBER=  1 Pu  0+     VCOUL-ZERO =  0.12538E+00
:FIT001: LUSE= 13 SIGMA OF V-XC FIT FOR ATOM  1  0.1464418E-05
:FIT001: LUSE= 13 SIGMA OF V-XC FIT FOR ATOM  1  0.1464418E-05
:DEN  : DENSITY INTEGRAL  =        -21873.62190248   (Ry)
       ELS_POTENTIAL_AT Z=0 and Z=0.5:  -2.36408  -2.36408
       ELS_POTENTIAL_AT Y=0 and Y=0.5:   0.00000   0.00000
:VZERO:v0,v0c,v0x  -3.33866  -2.36408  -0.97458 v5,v5c,v5x  -3.33866  -2.36408  -0.97458
:VZERY:v0,v0c,v0x  -0.83000   0.00000  -0.83000 v5,v5c,v5x  -0.83000   0.00000  -0.83000
:VZERX:v0,v0c,v0x  -0.83000   0.00000  -0.83000 v5,v5c,v5x  -0.83000   0.00000  -0.83000

------- epsilon_Pu_14.scf1 --------

          ATOMIC SPHERE DEPENDENT PARAMETERS FOR ATOM  Pu  0+    
:e__0001: OVERALL ENERGY PARAMETER IS    0.7655
          OVERALL BASIS SET ON ATOM IS LAPW
:E0_0001: E( 0)=    0.7655
             APW+lo
:E0_0001: E( 0)=   -2.4310   E(BOTTOM)=   -3.207   E(TOP)=   -1.655
             LOCAL ORBITAL
:E1_0001: E( 1)=   -1.3800   E(BOTTOM)=   -1.514   E(TOP)= -200.000
             APW+lo
:E1_0001: E( 1)=    0.7655
             LOCAL ORBITAL
:E3_0001: E( 3)=    0.7655   E(BOTTOM)=    0.535   E(TOP)= -200.000
             APW+lo
:E2_0001: E( 2)=    0.7655   E(BOTTOM)=    0.691   E(TOP)= -200.000
             APW+lo

       K=   0.00000   0.00000   0.00000            1
:RKM  : MATRIX SIZE  221LOs:  20  RKM= 8.31  WEIGHT= 1.00  PGR:    
       EIGENVALUES ARE:
:EIG00001:      -2.3977064   -0.3386250   -0.3386250   -0.3386250    0.5933226
:EIG00006:       0.9860878    0.9860878    0.9860878    1.0801477    1.0801477
:EIG00011:       1.0801477    1.1113257    1.1421801    1.1421801    1.1421801
:EIG00016:       1.3649560    1.3649560    1.9630538    1.9630538    1.9630538
:EIG00021:       2.5651549    2.5651549    2.8217233    2.8217233    2.8217233
:EIG00026:       2.9153289    3.5488952    3.5488952    3.5488952    3.9382183
:EIG00031:       3.9382183    3.9382183    4.2238165    4.2556377    4.2556377
:EIG00036:       4.2556377    4.3279606    4.3279606    4.3377386    4.3377386
:EIG00041:       4.3377386    4.5740828    4.5740828    4.7501338    4.7501338
:EIG00046:       4.7501338    4.8086005    4.8086005    4.8086005    4.8093667
 
:EIG00051:       5.3875867    5.3875867    5.7097588    5.7097588    5.7097588
:EIG00056:       5.9008873    5.9008873    5.9008873    6.0500123    6.3406187
:EIG00061:       6.3406187    6.3406187    6.7415071    6.8044029    6.8044029
:EIG00066:       6.8044029    6.8207371    6.8207371    7.2181781    7.2181781
:EIG00071:       7.2181781    7.2740680    7.2740680    7.2740680
       ********************************************************

:KPT   :      NUMBER OF K-POINTS:   286

------- epsilon_Pu_14.scfso --------
   0.0   0.0 angle (M,z), angle (M,x) deg
 
        SPIN-ORBIT EIGENVALUES:
     K=   0.00000   0.00000   0.00000            1
      MATRIX SIZE=  148   WEIGHT= 1.00
     EIGENVALUES ARE:
          -2.3977064   -2.3977064   -0.7973629   -0.7973629   -0.1411009
          -0.1411009   -0.1411008   -0.1411008    0.5933226    0.5933226
           0.9665013    0.9665013    0.9759626    0.9759626    0.9759626
           0.9759626    1.0767709    1.0767709    1.0767709    1.0767709
           1.1148393    1.1148393    1.1204784    1.1204784    1.1276197
           1.1276197    1.1276197    1.1276197    1.1630601    1.1630601
           1.3673521    1.3673521    1.3673521    1.3673521    1.9596502
           1.9596502    1.9656102    1.9656102    1.9656102    1.9656102

           2.5642941    2.5642941    2.5642941    2.5642941    2.6782340
           2.6782340    2.8885799    2.8885799    2.8885799    2.8885799
           2.9153289    2.9153289    3.5297525    3.5297525    3.5297525
           3.5297525    3.5877955    3.5877955    3.7989439    3.7989439
           4.0304219    4.0304219    4.0304219    4.0304219    4.2238164
           4.2238164    4.2556203    4.2556203    4.2556464    4.2556464
           4.2556464    4.2556464    4.3237209    4.3237209    4.3237209
           4.3237209    4.3409343    4.3409343    4.3417120    4.3417120

           4.3417120    4.3417120
       ********************************************************

------- epsilon_Pu_14.scf2 --------
:GMA  : POTENTIAL AND CHARGE CUT-OFF  12.00 Ry**.5
         Bandranges (emin - emax) and occupancy:
:BAN00008:   8   -0.277127   -0.141101  1.00000000
:BAN00009:   9    0.593323    0.978584  1.00000000
:BAN00010:  10    0.593323    0.978584  1.00000000
:BAN00011:  11    0.806775    0.997213  1.00000000
:BAN00012:  12    0.806775    0.997213  1.00000000
:BAN00013:  13    0.940157    1.002450  1.00000000
:BAN00014:  14    0.940157    1.002450  1.00000000
:BAN00015:  15    0.975963    1.006163  0.98634103
:BAN00016:  16    0.975963    1.006163  0.98634103
:BAN00017:  17    1.000444    1.076771  0.01365897
:BAN00018:  18    1.000444    1.076771  0.01365897
:BAN00019:  19    1.020264    1.076771  0.00000000
:BAN00020:  20    1.020264    1.076771  0.00000000
:BAN00021:  21    1.076418    1.114839  0.00000000
:BAN00022:  22    1.076418    1.114839  0.00000000
:BAN00023:  23    1.081414    1.120478  0.00000000
        Energy to separate low and high energystates:    0.54332


:NLDA  : NUMBER OF ELECTRONS          =  16.000

:FLDA  : F E R M I - ENERGY           =   1.50506




:POS001: AT.NR.   1 POSITION = 0.00000 0.00000 0.00000  MULTIPLICITY =  1

       LMMAX  5
       LM=   0 0  4 0  4 4  6 0  6 4
:FER DMFT Fermi Energy   0.96541
:EORB    0.22394138
:SUM SUM OF DMFT BAND ENERGIES   -0.05166391

:CHA001: TOTAL CHARGE INSIDE SPHERE   1 =    11.552550
:PCS001: PARTIAL CHARGES SPHERE =  1 S,P,D,F,      D-EG,D-T2G 
:QTL001: 1.9563 4.5921 0.3425 4.6610 0.0000 0.0000 0.0000 0.1698 0.1799 0.0000 0.0000 0.0000
        Q-s-low E-s-low   Q-p-low E-p-low   Q-d-low E-d-low   Q-f-low E-f-low
:EPL001:  1.8720 -2.3835    4.4971 -0.4565    0.0028 -0.2740    0.0010 -0.2828
        Q-s-hi  E-s-hi    Q-p-hi  E-p-hi    Q-d-hi  E-d-hi    Q-f-hi  E-f-hi 
:EPH001:  0.0843  0.8151    0.0950  0.8720    0.3397  0.8910    4.6600  0.9802

:CHA  : TOTAL CHARGE INSIDE UNIT CELL =      16.000000

:ESUM  : SUM OF EIGENVALUES =           0.227498762


------- epsilon_Pu_14.scfc --------

        1.ATOM      Pu  0+               21 CORE STATES
:1S 001: 1S               -8966.724877315 Ry
:2S 001: 2S               -1687.394664487 Ry
:2PP001: 2P*              -1628.089377606 Ry
:2P 001: 2P               -1314.936896587 Ry
:3S 001: 3S                -427.927576990 Ry
:3PP001: 3P*               -401.003704119 Ry
:3P 001: 3P                -328.441734538 Ry
:3DD001: 3D*               -286.202764388 Ry
:3D 001: 3D                -271.660187356 Ry
:4S 001: 4S                -109.410593949 Ry
:4PP001: 4P*                -97.222782231 Ry
:4P 001: 4P                 -78.077973872 Ry
:4DD001: 4D*                -58.790542730 Ry
:4D 001: 4D                 -55.296091673 Ry
:5S 001: 5S                 -23.570398418 Ry
:5PP001: 5P*                -18.753374262 Ry
:5P 001: 5P                 -14.067413827 Ry
:4FF001: 4F*                -29.894969404 Ry
:4F 001: 4F                 -28.966989610 Ry
:5DD001: 5D*                 -7.036338641 Ry
:5D 001: 5D                  -6.338734600 Ry

------- epsilon_Pu_14.scfm --------

       DENSITY AT NUCLEUS
        JATOM    VALENCE       SEMI-CORE            CORE           TOTAL
:RTO001:   1    23549.425231        0.000000 45141807.602921 45165357.028152
     
       CHARGES OF NEW CHARGE DENSITY
:NTO  : TOTAL   INTERSTITIAL CHARGE=    4.4474484
:NTO001: TOTAL   CHARGE IN SPHERE  1 =       89.5431626

:NEC01: NUCLEAR AND ELECTRONIC CHARGE     94.00000    93.99061     1.00010
     
       CHARGES OF OLD CHARGE DENSITY
:OTO  : TOTAL   INTERSTITIAL CHARGE=    4.4572284
:OTO001: TOTAL   CHARGE IN SPHERE  1 =       89.5427716

:NEC02: NUCLEAR AND ELECTRONIC CHARGE     94.00000    94.00000     1.00000
     
       CONVERGENCE TEST
:DTO001: TOTAL   DIFFERENCE CHARGE**2 IN SPHERE  1 =  0.0006864

:DIS  :  CHARGE DISTANCE       ( 0.0006864 for atom    1 spin 1)      0.0006864
:BIG check (qbig,qrms,qtot)    0.229D-03   0.485D-03   0.686D-03
 
******************************************************
* MULTISECANT MIXING VER4 OPTIONS                    *
* Unpredicted Step Limit   0.100000                  *
* Plane Wave Dynamic Rescaling                       *
* Dynamic Regularization active                      *
* Upper Cutoff Lambda  1.0E-01 Lower 3.5E-04         *
* SQRT Multiplicity/Degeneracy                       *
* Max Number of Memory Steps    8                    *
******************************************************
 
:PLANE:  INTERSTITIAL TOTAL      1.85373 DISTAN  6.808E-03 % 
:CHARG:  CLM CHARGE   /ATOM    713.22907 DISTAN  6.801E-04 % 
:INFO :  Dynamic rescale   3.358E+01  1.000E-01
:INFO :  Number of Memory Steps    3 Skipping    0
:INFO :  Singular value   3.187E+00 Weight   1.000E+00 Projections  -4.617E-03 -1.329E-03
:INFO :  Singular value   8.253E-01 Weight   1.000E+00 Projections   9.837E-04  7.665E-03
:INFO :  Singular value   2.537E-05 Weight   5.228E-03 Projections  -7.382E-03 -4.032E-03
:INFO :  Bounds         0.869D-01  0.200D+00  0.170D+00  0.869D-01
:DIRM :  MEMORY 3/8 RESCALE  33.58 RED 0.890 PRED 0.980 NEXT 0.588 COND 1.06E+00
:DIRP :  |BROYD|= 2.657E-03 |PRATT|= 3.681E-04 ANGLE=   9.8 DEGREES
:DIRB :  |BROYD|= 3.922E-03 |PRATT|= 5.595E-04 ANGLE=   8.6 DEGREES
:MIX  :  MSR1   REGULARIZATION: 3.50E-04  GREED: 0.087
     
       CHARGES OF MIXED CHARGE DENSITY
:CTO  : TOTAL   INTERSTITIAL CHARGE=    4.4568442
:CTO001: TOTAL   CHARGE IN SPHERE  1 =       89.5431558

:NEC03: NUCLEAR AND ELECTRONIC CHARGE     94.00000    94.00000     1.00000


:ENE  : ********** TOTAL ENERGY IN Ry =       -59354.73479717

