
------- case.scf0 --------
 Flat Integration
 New Mode for Coulomb Integral
 Consistent 3/8+Simpson combinations
 Extension of core to zero
 LDM version in phi
 Fifth-order quadrature in outwin


            ---------
:ITE023: 23. ITERATION
            ---------

:NATO :    1 INDEPENDENT AND    1 TOTAL ATOMS IN UNITCELL
       SUBSTANCE: blebleble                                                   

       LATTICE                      = F   
:POT  : POTENTIAL OPTION EX_LDA EC_LDA VX_LDA VC_LDA
:LAT  : LATTICE CONSTANTS=  9.43103  9.43103  9.43103    1.571    1.571    1.571
:VOL  : UNIT CELL VOLUME =     209.70929
       MODE OF CALCULATION IS       = RELA
       NON-SPINPOLARIZED CALCULATION
:IFFT  : FFT-parameters:   80   80   80 Factor: 2.00


   CONVERGENCE PARAMETER FOR PSEUDOCHARGE: NCON=  9
   MAXIMAL VALUE OF RMT(JATOM)*ABSK(NKK) : RK  =29.98011


:VKCOUL :  VK-COUL convergence: 0.205E-06
       ATOMNUMBER=  1 Pr         VCOUL-ZERO =  0.36241E+00
:FIT001: LUSE= 13 SIGMA OF V-XC FIT FOR ATOM  1  0.4749622E-04
:FIT001: LUSE= 13 SIGMA OF V-XC FIT FOR ATOM  1  0.4749622E-04
:DEN  : DENSITY INTEGRAL  =         -7077.96125897   (Ry)
       ELS_POTENTIAL_AT Z=0 and Z=0.5:  -2.61501  -2.61501
       ELS_POTENTIAL_AT Y=0 and Y=0.5:   0.00000   0.00000
:VZERO:v0,v0c,v0x  -3.62339  -2.61501  -1.00838 v5,v5c,v5x  -3.62339  -2.61501  -1.00838
:VZERY:v0,v0c,v0x  -0.75418   0.00000  -0.75418 v5,v5c,v5x  -0.75418   0.00000  -0.75418
:VZERX:v0,v0c,v0x  -0.75418   0.00000  -0.75418 v5,v5c,v5x  -0.75418   0.00000  -0.75418

------- case.scf1 --------
:LMAX-WF:   10   Non-Spherical LMAX:   4

          ATOMIC SPHERE DEPENDENT PARAMETERS FOR ATOM  Pr        
:e__0001: OVERALL ENERGY PARAMETER IS    0.4867
          OVERALL BASIS SET ON ATOM IS LAPW
:E0_0001: E( 0)=    0.4867
             APW+lo
:E0_0001: E( 0)=   -1.9764   E(BOTTOM)=   -2.357   E(TOP)=   -1.595  4  5   184
             LOCAL ORBITAL
:E1_0001: E( 1)=    0.8867
             APW+lo
:E1_0001: E( 1)=   -0.5881   E(BOTTOM)=   -1.235   E(TOP)=    0.059  3  4   182
             LOCAL ORBITAL
:E3_0001: E( 3)=    0.6874   E(BOTTOM)=    0.547   E(TOP)=    0.828  0  1   110
             APW+lo
:E2_0001: E( 2)=    0.4867   E(BOTTOM)=    0.339   E(TOP)= -200.000  2 -1    82
             APW+lo

       K=   0.00000   0.00000   0.00000            1
:RKM  : MATRIX SIZE   157LOs:  20  RKM= 8.16  WEIGHT= 1.00  PGR:    
       EIGENVALUES ARE:
:EIG00001:      -1.9462320   -0.5543074   -0.5543074   -0.5543074    0.4389945
:EIG00006:       0.6742629    0.6993295    0.6993295    0.6993295    0.7305982
:EIG00011:       0.7305982    0.7305982    0.8240440    0.8240440    0.8240440
:EIG00016:       1.0279494    1.0279494    1.4426877    1.6980350    1.6980350
:EIG00021:       1.6980350    1.7975437    2.6345878    2.6345878    2.6345878
:EIG00026:       2.7620384    2.7620384    2.7620384    2.9153591    2.9153591
:EIG00031:       3.3809007    3.5334585    3.5334585    3.5334585    4.0123486
:EIG00036:       4.0123486    4.2478827    4.2478827    4.2478827    4.3107618
:EIG00041:       4.3107618    4.3107618    4.3718777    4.3718777    4.3718777
:EIG00046:       4.6922500    4.6922500    4.6922500    4.7955332    4.7955332
 
:EIG00051:       4.8161112    4.9942163    4.9942163    4.9942163    4.9977417
:EIG00056:       4.9977417    4.9977417    5.1021823    5.1214614    5.1946069
:EIG00061:       5.1946069    5.1946069    5.4926672    5.4926672    5.4926672
:EIG00066:       5.9279751    6.8038212    6.8115546    6.8115546    7.2638994
:EIG00071:       7.2638994    7.2638994    7.8793654    7.8793654    8.0297532
:EIG00076:       8.0297532    8.0297532    8.0619789    8.0619789    8.0619789
       ********************************************************

:KPT   :      NUMBER OF K-POINTS:   165

------- case.scfso --------
   0.0   0.0 angle (M,z), angle (M,x) deg
 
        SPIN-ORBIT EIGENVALUES:
     K=   0.00000   0.00000   0.00000            1
      MATRIX SIZE=  160   WEIGHT= 1.00
     EIGENVALUES ARE:
          -1.9462320   -1.9462320   -0.7040506   -0.7040506   -0.4837763
          -0.4837763   -0.4837763   -0.4837763    0.4389945    0.4389945
           0.6709564    0.6709564    0.6892222    0.6892222    0.6892222
           0.6892222    0.7109161    0.7109161    0.7295912    0.7295912
           0.7369730    0.7369730    0.7369730    0.7369730    0.8201158
           0.8201158    0.8201158    0.8201158    0.8308204    0.8308204
           1.0283076    1.0283076    1.0283076    1.0283076    1.4427500
           1.4427500    1.6936478    1.6936478    1.7001103    1.7001103

           1.7001103    1.7001103    1.7975437    1.7975437    2.6293905
           2.6293905    2.6293905    2.6293905    2.6444696    2.6444696
           2.6831454    2.6831454    2.8024406    2.8024406    2.8024406
           2.8024406    2.9156567    2.9156567    2.9156567    2.9156567
           3.3809007    3.3809007    3.5330478    3.5330478    3.5336753
           3.5336753    3.5336753    3.5336753    4.0123105    4.0123105
           4.0123105    4.0123105    4.2464156    4.2464156    4.2464156
           4.2464156    4.2511300    4.2511300    4.2730416    4.2730416

           4.3317206    4.3317206    4.3317206    4.3317206    4.3718674
           4.3718674    4.3718829    4.3718829    4.3718829    4.3718829

       ********************************************************

------- case.scf2 --------
:GMA  : POTENTIAL AND CHARGE CUT-OFF  12.00 Ry**.5




:POS001: at.nr.   1 position = 0.00000 0.00000 0.50000  multiplicity =  1

       lmmax  5
       lm=   0 0  4 0  4 4  6 0  6 4
:FER gutzwiller fermi energy   0.70025
:EORB         -0.070500868
:SUM sum of gutz band energies         -4.254203352

:CHA001: total charge inside sphere   1 =    10.229084
:PCS001: partial charges sphere =  1 s,p,d,f,      d-eg,d-t2g 
:QTL001: 2.0366 5.3450 0.7521 2.0948 0.0000 0.0000 0.0000 0.2740 0.4781 0.0000 0.0000 0.0000

:CHA  : total charge inside unit cell =       6.499999

------- case.scfc --------

        1.ATOM      Pr                   14 CORE STATES
:1S 001: 1S               -3066.912467173 Ry
:2S 001: 2S                -492.665836513 Ry
:2PP001: 2P*               -465.764825368 Ry
:2P 001: 2P                -430.367390790 Ry
:3S 001: 3S                -105.757213922 Ry
:3PP001: 3P*                -94.295022776 Ry
:3P 001: 3P                 -87.287171521 Ry
:3DD001: 3D*                -67.214080639 Ry
:3D 001: 3D                 -65.702526641 Ry
:4S 001: 4S                 -20.430418096 Ry
:4PP001: 4P*                -16.136892992 Ry
:4P 001: 4P                 -14.609028017 Ry
:4DD001: 4D*                 -7.541092843 Ry
:4D 001: 4D                  -7.271528464 Ry

------- case.scfm --------
:CINT001 Core Integral Atom   1   45.999520

       DENSITY AT NUCLEUS
        JATOM        VALENCE       SEMI-CORE          CORE           TOTAL
:RTO001:   1      653.952929        0.000000   656825.311701   657479.264630
 :WARNING: K-list has changed
     
       CHARGES OF NEW CHARGE DENSITY
:NTO   : INTERSTITIAL CHARGE =     2.771027
:NPC   : PW Pseudocharge     =     7.713496
:NTO001: CHARGE SPHERE  1    =    56.228604

:NEC01: NUCLEAR AND ELECTRONIC CHARGE     59.00000    58.99963
     
       CHARGES OF OLD CHARGE DENSITY
:OTO   : INTERSTITIAL CHARGE =     2.839250
:OPC   : PW Pseudocharge     =     7.727810
:OTO001: CHARGE SPHERE  1    =    56.160750

:NEC02: NUCLEAR AND ELECTRONIC CHARGE     59.00000    59.00000
     
       CONVERGENCE TEST
:DTO001: DIFFERENCE IN SPHERE  1 =  0.1237790

:DIS  :  CHARGE DISTANCE       ( 0.1237790 for atom    1 spin 1)      0.1237790
 PW Mixed is           49
 
******************************************************
* MULTISECANT MIXING VER9 RELEASE 10.4.0              *
* Standard Mode with controls                        *
* Fixed density scale                                *
* Regularization       1.000E-04                     *
* Trust Upper Limit    5.000E+00                     *
* Max Number of Memory Steps    8                    *
******************************************************
 
:PWTMP   1.4426E+02  1.2500E+02  2.0971E+02
:PLANE:  PW TOTAL      3.2616 DISTAN   2.15E-02  6.60E-01 %
:CHARG:  CLM/ATOM    977.1912 DISTAN   3.93E-01  4.02E-02 %
 
Step History
        DMIX         DMIXT        Red     Pred      Trust     Lambda    MagRel    MagAbs     Beta
  1   3.5000E-02   3.5000E-02 -1.00E+00  1.00E+00 -1.00E+01  1.00E+00  3.50E-02  3.50E-02  1.00E+00
:INFO :  Note, Pratt in use
:TRUST:  Step 3.75E-02  Charge 7.50E-02 (e) CTO  2.50E-01 (e) PW  3.50E-01 (e)
:DIRM :  MEMORY  0/ 8 SCALE   1.000
Performing Pseudo Compensation
Final Pseudo Compensation Rescaling     1.00000E+00
:MIX  :   PRATT  REGULARIZATION:  1.00E-04 GREED: 0.02500                  
     
       CHARGES OF MIXED CHARGE DENSITY
:CTO   : INTERSTITIAL CHARGE =     2.837554
:CPC   : PW Pseudocharge     =     7.725758
:CTO001: CHARGE SPHERE  1    =    56.162446

:NEC03: NUCLEAR AND ELECTRONIC CHARGE     59.00000    59.00000

PW CHANGE     H    K    L      Current       Change    Residue
:PTO001:      0    0    0  5.03712147E-02 -1.787E-05 -3.869E-04
:PTO002:     -1   -1   -1 -1.44192282E-01 -2.149E-05 -2.233E-04
:PTO003:      0    0   -2  8.31365784E-02  3.793E-05  5.355E-04
:PTO004:      0   -2   -2  6.39634925E-02  8.994E-05 -3.262E-04
:PTO005:     -1   -1   -3 -5.19305029E-02 -2.094E-04 -3.039E-04
:PTO006:     -2   -2   -2  1.22498704E-02  7.577E-05  4.112E-04
:PTO007:      0    0   -4  3.95804040E-04  4.522E-05  2.329E-04
:PTO008:     -1   -3   -3  4.14270525E-03 -1.136E-04  3.460E-04
:PTO009:      0   -2   -4 -6.19001551E-03  9.995E-05 -4.325E-04
:PTO010:     -2   -2   -4 -8.88608243E-03  7.607E-05  2.246E-04
:PTO011:     -3   -3   -3  2.97908561E-03 -2.344E-05 -3.016E-04
:PTO012:     -1   -1   -5  8.74527649E-03 -5.400E-05 -2.522E-04

:ENE  : ********** TOTAL ENERGY IN Ry =       -18472.13070274


------- case.scf0 --------
 Flat Integration
 New Mode for Coulomb Integral
 Consistent 3/8+Simpson combinations
 Extension of core to zero
 LDM version in phi
 Fifth-order quadrature in outwin


            ---------
:ITE024: 24. ITERATION
            ---------

:NATO :    1 INDEPENDENT AND    1 TOTAL ATOMS IN UNITCELL
       SUBSTANCE: blebleble                                                   

       LATTICE                      = F   
:POT  : POTENTIAL OPTION EX_LDA EC_LDA VX_LDA VC_LDA
:LAT  : LATTICE CONSTANTS=  9.43103  9.43103  9.43103    1.571    1.571    1.571
:VOL  : UNIT CELL VOLUME =     209.70929
       MODE OF CALCULATION IS       = RELA
       NON-SPINPOLARIZED CALCULATION
:IFFT  : FFT-parameters:   80   80   80 Factor: 2.00


   CONVERGENCE PARAMETER FOR PSEUDOCHARGE: NCON=  9
   MAXIMAL VALUE OF RMT(JATOM)*ABSK(NKK) : RK  =29.98011


:VKCOUL :  VK-COUL convergence: 0.201E-06
       ATOMNUMBER=  1 Pr         VCOUL-ZERO =  0.36211E+00
:FIT001: LUSE= 13 SIGMA OF V-XC FIT FOR ATOM  1  0.4649865E-04
:FIT001: LUSE= 13 SIGMA OF V-XC FIT FOR ATOM  1  0.4649865E-04
:DEN  : DENSITY INTEGRAL  =         -7078.13782797   (Ry)
       ELS_POTENTIAL_AT Z=0 and Z=0.5:  -2.61295  -2.61295
       ELS_POTENTIAL_AT Y=0 and Y=0.5:   0.00000   0.00000
:VZERO:v0,v0c,v0x  -3.62143  -2.61295  -1.00849 v5,v5c,v5x  -3.62143  -2.61295  -1.00849
:VZERY:v0,v0c,v0x  -0.75404   0.00000  -0.75404 v5,v5c,v5x  -0.75404   0.00000  -0.75404
:VZERX:v0,v0c,v0x  -0.75404   0.00000  -0.75404 v5,v5c,v5x  -0.75404   0.00000  -0.75404

------- case.scf1 --------
:LMAX-WF:   10   Non-Spherical LMAX:   4

          ATOMIC SPHERE DEPENDENT PARAMETERS FOR ATOM  Pr        
:e__0001: OVERALL ENERGY PARAMETER IS    0.4867
          OVERALL BASIS SET ON ATOM IS LAPW
:E0_0001: E( 0)=    0.4867
             APW+lo
:E0_0001: E( 0)=   -1.9754   E(BOTTOM)=   -2.357   E(TOP)=   -1.594  4  5   185
             LOCAL ORBITAL
:E1_0001: E( 1)=    0.8867
             APW+lo
:E1_0001: E( 1)=   -0.5873   E(BOTTOM)=   -1.235   E(TOP)=    0.060  3  4   175
             LOCAL ORBITAL
:E3_0001: E( 3)=    0.6894   E(BOTTOM)=    0.548   E(TOP)=    0.830  0  1   119
             APW+lo
:E2_0001: E( 2)=    0.4867   E(BOTTOM)=    0.340   E(TOP)= -200.000  2 -1    83
             APW+lo

       K=   0.00000   0.00000   0.00000            1
:RKM  : MATRIX SIZE   157LOs:  20  RKM= 8.16  WEIGHT= 1.00  PGR:    
       EIGENVALUES ARE:
:EIG00001:      -1.9452771   -0.5535790   -0.5535790   -0.5535790    0.4388226
:EIG00006:       0.6760338    0.7012682    0.7012682    0.7012682    0.7327129
:EIG00011:       0.7327129    0.7327129    0.8240821    0.8240821    0.8240821
:EIG00016:       1.0281269    1.0281269    1.4427628    1.6979549    1.6979549
:EIG00021:       1.6979549    1.7971317    2.6347575    2.6347575    2.6347575
:EIG00026:       2.7621151    2.7621151    2.7621151    2.9153465    2.9153465
:EIG00031:       3.3808006    3.5332357    3.5332357    3.5332357    4.0123650
:EIG00036:       4.0123650    4.2478206    4.2478206    4.2478206    4.3105878
:EIG00041:       4.3105878    4.3105878    4.3717307    4.3717307    4.3717307
:EIG00046:       4.6919423    4.6919423    4.6919423    4.7951945    4.7951945
 
:EIG00051:       4.8159987    4.9938808    4.9938808    4.9938808    4.9974021
:EIG00056:       4.9974021    4.9974021    5.1017538    5.1213412    5.1942264
:EIG00061:       5.1942264    5.1942264    5.4922671    5.4922671    5.4922671
:EIG00066:       5.9275205    6.8036078    6.8113575    6.8113575    7.2636159
:EIG00071:       7.2636159    7.2636159    7.8794099    7.8794099    8.0296517
:EIG00076:       8.0296517    8.0296517    8.0619104    8.0619104    8.0619104
       ********************************************************

:KPT   :      NUMBER OF K-POINTS:   165

------- case.scfso --------
   0.0   0.0 angle (M,z), angle (M,x) deg
 
        SPIN-ORBIT EIGENVALUES:
     K=   0.00000   0.00000   0.00000            1
      MATRIX SIZE=  160   WEIGHT= 1.00
     EIGENVALUES ARE:
          -1.9452771   -1.9452771   -0.7032661   -0.7032661   -0.4830748
          -0.4830748   -0.4830748   -0.4830748    0.4388226    0.4388226
           0.6727543    0.6727543    0.6911899    0.6911899    0.6911899
           0.6911899    0.7128404    0.7128404    0.7316812    0.7316812
           0.7390642    0.7390642    0.7390642    0.7390642    0.8201576
           0.8201576    0.8201576    0.8201576    0.8308532    0.8308532
           1.0284841    1.0284841    1.0284841    1.0284841    1.4428255
           1.4428255    1.6935757    1.6935757    1.7000265    1.7000265

           1.7000265    1.7000265    1.7971317    1.7971317    2.6295607
           2.6295607    2.6295607    2.6295607    2.6446379    2.6446379
           2.6832303    2.6832303    2.8025120    2.8025120    2.8025120
           2.8025120    2.9156441    2.9156441    2.9156441    2.9156441
           3.3808006    3.3808006    3.5328244    3.5328244    3.5334528
           3.5334528    3.5334528    3.5334528    4.0123268    4.0123268
           4.0123268    4.0123268    4.2463530    4.2463530    4.2463530
           4.2463530    4.2510692    4.2510692    4.2728534    4.2728534

           4.3315546    4.3315546    4.3315546    4.3315546    4.3717203
           4.3717203    4.3717358    4.3717358    4.3717358    4.3717358

       ********************************************************

------- case.scf2 --------
:GMA  : POTENTIAL AND CHARGE CUT-OFF  12.00 Ry**.5




:POS001: at.nr.   1 position = 0.00000 0.00000 0.50000  multiplicity =  1

       lmmax  5
       lm=   0 0  4 0  4 4  6 0  6 4
:FER gutzwiller fermi energy   0.70038
:EORB         -0.066508283
:SUM sum of gutz band energies         -4.248215686

:CHA001: total charge inside sphere   1 =    10.225645
:PCS001: partial charges sphere =  1 s,p,d,f,      d-eg,d-t2g 
:QTL001: 2.0366 5.3444 0.7526 2.0915 0.0000 0.0000 0.0000 0.2741 0.4784 0.0000 0.0000 0.0000

:CHA  : total charge inside unit cell =       6.499999

------- case.scfc --------

        1.ATOM      Pr                   14 CORE STATES
:1S 001: 1S               -3066.908216492 Ry
:2S 001: 2S                -492.661613001 Ry
:2PP001: 2P*               -465.760594827 Ry
:2P 001: 2P                -430.363162942 Ry
:3S 001: 3S                -105.753173522 Ry
:3PP001: 3P*                -94.290968533 Ry
:3P 001: 3P                 -87.283139025 Ry
:3DD001: 3D*                -67.210004049 Ry
:3D 001: 3D                 -65.698455922 Ry
:4S 001: 4S                 -20.427346269 Ry
:4PP001: 4P*                -16.133877146 Ry
:4P 001: 4P                 -14.606100556 Ry
:4DD001: 4D*                 -7.538317921 Ry
:4D 001: 4D                  -7.268783404 Ry

------- case.scfm --------
:CINT001 Core Integral Atom   1   45.999519

       DENSITY AT NUCLEUS
        JATOM        VALENCE       SEMI-CORE          CORE           TOTAL
:RTO001:   1      653.783068        0.000000   656825.107418   657478.890486
     
       CHARGES OF NEW CHARGE DENSITY
:NTO   : INTERSTITIAL CHARGE =     2.774333
:NPC   : PW Pseudocharge     =     7.715175
:NTO001: CHARGE SPHERE  1    =    56.225164

:NEC01: NUCLEAR AND ELECTRONIC CHARGE     59.00000    58.99950
     
       CHARGES OF OLD CHARGE DENSITY
:OTO   : INTERSTITIAL CHARGE =     2.837554
:OPC   : PW Pseudocharge     =     7.725758
:OTO001: CHARGE SPHERE  1    =    56.162446

:NEC02: NUCLEAR AND ELECTRONIC CHARGE     59.00000    59.00000
     
       CONVERGENCE TEST
:DTO001: DIFFERENCE IN SPHERE  1 =  0.1133998

:DIS  :  CHARGE DISTANCE       ( 0.1133998 for atom    1 spin 1)      0.1133998
 PW Mixed is           49
 
******************************************************
* MULTISECANT MIXING VER9 RELEASE 10.4.0              *
* Slow Mode, cautious                                *
* Fixed density scale                                *
* Regularization       1.000E-04                     *
* Step Trust Radius    0.75000                       *
* Trust Upper Limit    2.000E+00                     *
* Max Number of Memory Steps   12                    *
******************************************************
 
:PWTMP   1.4426E+02  1.2500E+02  2.0971E+02
:PLANE:  PW TOTAL      3.2621 DISTAN   1.99E-02  6.09E-01 %
:CHARG:  CLM/ATOM    977.1915 DISTAN   3.81E-01  3.90E-02 %
 
Step History
        DMIX         DMIXT        Red     Pred      Trust     Lambda    MagRel    MagAbs     Beta
  1   3.5000E-02   3.5000E-02 -1.00E+00  1.00E+00 -1.00E+01  1.00E+00  3.50E-02  3.50E-02  1.00E+00
  2   2.5000E-02   2.5000E-02 -1.00E+00  1.00E+00 -1.00E+01  1.00E+00  2.50E-02  9.83E-03  1.00E+00
:JACOBIANS    2.483E-02   2.790E-01
  
:TRUST:  Step 3.27E-02  Charge 7.50E-02 (e) CTO  2.50E-01 (e) PW  3.50E-01 (e)
:DIRM :  MEMORY  1/12 SCALE   1.000
:MIX  :   PRATT  REGULARIZATION:  1.00E-04 GREED: 0.03270  Expand 1.31  0.0327                
     
       CHARGES OF MIXED CHARGE DENSITY
:CTO   : INTERSTITIAL CHARGE =     2.801051
:CPC   : PW Pseudocharge     =     7.681600
:CTO001: CHARGE SPHERE  1    =    56.198949

:NEC03: NUCLEAR AND ELECTRONIC CHARGE     59.00000    59.00000

PW CHANGE     H    K    L      Current       Change    Residue
:PTO001:      0    0    0  4.99865850E-02 -3.846E-04 -3.429E-04
:PTO002:     -1   -1   -1 -1.44654637E-01 -4.624E-04 -2.086E-04
:PTO003:      0    0   -2  8.39527758E-02  8.162E-04  4.989E-04
:PTO004:      0   -2   -2  6.58988269E-02  1.935E-03 -4.197E-04
:PTO005:     -1   -1   -3 -5.64361826E-02 -4.506E-03 -7.913E-05
:PTO006:     -2   -2   -2  1.38803292E-02  1.630E-03  3.311E-04
:PTO007:      0    0   -4  1.36897941E-03  9.732E-04  1.855E-04
:PTO008:     -1   -3   -3  1.69889352E-03 -2.444E-03  4.618E-04
:PTO009:      0   -2   -4 -4.03927784E-03  2.151E-03 -5.349E-04
:PTO010:     -2   -2   -4 -7.24926788E-03  1.637E-03  1.496E-04
:PTO011:     -3   -3   -3  2.47475052E-03 -5.043E-04 -2.790E-04
:PTO012:     -1   -1   -5  7.58327588E-03 -1.162E-03 -1.994E-04

:ENE  : ********** TOTAL ENERGY IN Ry =       -18472.13046545


------- case.scf0 --------
 Flat Integration
 New Mode for Coulomb Integral
 Consistent 3/8+Simpson combinations
 Extension of core to zero
 LDM version in phi
 Fifth-order quadrature in outwin


            ---------
:ITE025: 25. ITERATION
            ---------

:NATO :    1 INDEPENDENT AND    1 TOTAL ATOMS IN UNITCELL
       SUBSTANCE: blebleble                                                   

       LATTICE                      = F   
:POT  : POTENTIAL OPTION EX_LDA EC_LDA VX_LDA VC_LDA
:LAT  : LATTICE CONSTANTS=  9.43103  9.43103  9.43103    1.571    1.571    1.571
:VOL  : UNIT CELL VOLUME =     209.70929
       MODE OF CALCULATION IS       = RELA
       NON-SPINPOLARIZED CALCULATION
:IFFT  : FFT-parameters:   80   80   80 Factor: 2.00


   CONVERGENCE PARAMETER FOR PSEUDOCHARGE: NCON=  9
   MAXIMAL VALUE OF RMT(JATOM)*ABSK(NKK) : RK  =29.98011


:VKCOUL :  VK-COUL convergence: 0.117E-06
       ATOMNUMBER=  1 Pr         VCOUL-ZERO =  0.35562E+00
:FIT001: LUSE= 13 SIGMA OF V-XC FIT FOR ATOM  1  0.2803810E-04
:FIT001: LUSE= 13 SIGMA OF V-XC FIT FOR ATOM  1  0.2803810E-04
:DEN  : DENSITY INTEGRAL  =         -7081.93914373   (Ry)
       ELS_POTENTIAL_AT Z=0 and Z=0.5:  -2.56855  -2.56855
       ELS_POTENTIAL_AT Y=0 and Y=0.5:   0.00000   0.00000
:VZERO:v0,v0c,v0x  -3.57923  -2.56855  -1.01068 v5,v5c,v5x  -3.57923  -2.56855  -1.01068
:VZERY:v0,v0c,v0x  -0.75106   0.00000  -0.75106 v5,v5c,v5x  -0.75106   0.00000  -0.75106
:VZERX:v0,v0c,v0x  -0.75106   0.00000  -0.75106 v5,v5c,v5x  -0.75106   0.00000  -0.75106

------- case.scf1 --------
:LMAX-WF:   10   Non-Spherical LMAX:   4

          ATOMIC SPHERE DEPENDENT PARAMETERS FOR ATOM  Pr        
:e__0001: OVERALL ENERGY PARAMETER IS    0.4867
          OVERALL BASIS SET ON ATOM IS LAPW
:E0_0001: E( 0)=    0.4867
             APW+lo
:E0_0001: E( 0)=   -1.9540   E(BOTTOM)=   -2.340   E(TOP)=   -1.568  4  5   186
             LOCAL ORBITAL
:E1_0001: E( 1)=    0.8867
             APW+lo
:E1_0001: E( 1)=   -0.5701   E(BOTTOM)=   -1.223   E(TOP)=    0.083  3  4   184
             LOCAL ORBITAL
:E3_0001: E( 3)=    0.7328   E(BOTTOM)=    0.586   E(TOP)=    0.880  0  1   122
             APW+lo
:E2_0001: E( 2)=    0.4867   E(BOTTOM)=    0.346   E(TOP)= -200.000  2 -1    85
             APW+lo

       K=   0.00000   0.00000   0.00000            1
:RKM  : MATRIX SIZE   157LOs:  20  RKM= 8.16  WEIGHT= 1.00  PGR:    
       EIGENVALUES ARE:
:EIG00001:      -1.9247947   -0.5379610   -0.5379610   -0.5379610    0.4351587
:EIG00006:       0.7134204    0.7425588    0.7425588    0.7425588    0.7780393
:EIG00011:       0.7780393    0.7780393    0.8248443    0.8248443    0.8248443
:EIG00016:       1.0318820    1.0318820    1.4450357    1.6965611    1.6965611
:EIG00021:       1.6965611    1.7882833    2.6384198    2.6384198    2.6384198
:EIG00026:       2.7637892    2.7637892    2.7637892    2.9150703    2.9150703
:EIG00031:       3.3786438    3.5286197    3.5286197    3.5286197    4.0127462
:EIG00036:       4.0127462    4.2465131    4.2465131    4.2465131    4.3068829
:EIG00041:       4.3068829    4.3068829    4.3685629    4.3685629    4.3685629
:EIG00046:       4.6853334    4.6853334    4.6853334    4.7879204    4.7879204
 
:EIG00051:       4.8135724    4.9867188    4.9867188    4.9867188    4.9902049
:EIG00056:       4.9902049    4.9902049    5.0926004    5.1188072    5.1860624
:EIG00061:       5.1860624    5.1860624    5.4837882    5.4837882    5.4837882
:EIG00066:       5.9179531    6.7990305    6.8071286    6.8071286    7.2575628
:EIG00071:       7.2575628    7.2575628    7.8803518    7.8803518    8.0274496
:EIG00076:       8.0274496    8.0274496    8.0604131    8.0604131    8.0604131
       ********************************************************

:KPT   :      NUMBER OF K-POINTS:   165

------- case.scfso --------
   0.0   0.0 angle (M,z), angle (M,x) deg
 
        SPIN-ORBIT EIGENVALUES:
     K=   0.00000   0.00000   0.00000            1
      MATRIX SIZE=  160   WEIGHT= 1.00
     EIGENVALUES ARE:
          -1.9247947   -1.9247947   -0.6864417   -0.6864417   -0.4680367
          -0.4680367   -0.4680367   -0.4680367    0.4351587    0.4351587
           0.7106840    0.7106840    0.7331002    0.7331002    0.7331002
           0.7331002    0.7538103    0.7538103    0.7765129    0.7765129
           0.7838960    0.7838960    0.7838960    0.7838960    0.8209982
           0.8209982    0.8209982    0.8209982    0.8315013    0.8315013
           1.0322208    1.0322208    1.0322208    1.0322208    1.4451085
           1.4451085    1.6923617    1.6923617    1.6985501    1.6985501

           1.6985502    1.6985502    1.7882833    1.7882833    2.6332347
           2.6332347    2.6332347    2.6332347    2.6482693    2.6482693
           2.6850844    2.6850844    2.8040697    2.8040697    2.8040698
           2.8040698    2.9153685    2.9153685    2.9153685    2.9153685
           3.3786438    3.3786438    3.5281949    3.5281949    3.5288440
           3.5288440    3.5288440    3.5288440    4.0127057    4.0127057
           4.0127057    4.0127057    4.2450341    4.2450341    4.2450341
           4.2450341    4.2497895    4.2497895    4.2688408    4.2688408

           4.3280225    4.3280225    4.3280225    4.3280225    4.3685527
           4.3685527    4.3685680    4.3685680    4.3685680    4.3685680

       ********************************************************

------- case.scf2 --------
:GMA  : POTENTIAL AND CHARGE CUT-OFF  12.00 Ry**.5




:POS001: at.nr.   1 position = 0.00000 0.00000 0.50000  multiplicity =  1

       lmmax  5
       lm=   0 0  4 0  4 4  6 0  6 4
:FER gutzwiller fermi energy   0.70455
:EORB          0.015104909
:SUM sum of gutz band energies         -4.115063624

:CHA001: total charge inside sphere   1 =    10.148075
:PCS001: partial charges sphere =  1 s,p,d,f,      d-eg,d-t2g 
:QTL001: 2.0357 5.3330 0.7705 2.0082 0.0000 0.0000 0.0000 0.2799 0.4906 0.0000 0.0000 0.0000

:CHA  : total charge inside unit cell =       6.500003

------- case.scfc --------

        1.ATOM      Pr                   14 CORE STATES
:1S 001: 1S               -3066.816747811 Ry
:2S 001: 2S                -492.570728943 Ry
:2PP001: 2P*               -465.669559511 Ry
:2P 001: 2P                -430.272185577 Ry
:3S 001: 3S                -105.666228525 Ry
:3PP001: 3P*                -94.203725809 Ry
:3P 001: 3P                 -87.196364066 Ry
:3DD001: 3D*                -67.122280702 Ry
:3D 001: 3D                 -65.610858884 Ry
:4S 001: 4S                 -20.361243201 Ry
:4PP001: 4P*                -16.068981053 Ry
:4P 001: 4P                 -14.543107683 Ry
:4DD001: 4D*                 -7.478619234 Ry
:4D 001: 4D                  -7.209728278 Ry

------- case.scfm --------
:CINT001 Core Integral Atom   1   45.999502

       DENSITY AT NUCLEUS
        JATOM        VALENCE       SEMI-CORE          CORE           TOTAL
:RTO001:   1      650.199782        0.000000   656820.710414   657470.910197
     
       CHARGES OF NEW CHARGE DENSITY
:NTO   : INTERSTITIAL CHARGE =     2.851911
:NPC   : PW Pseudocharge     =     7.754502
:NTO001: CHARGE SPHERE  1    =    56.147577

:NEC01: NUCLEAR AND ELECTRONIC CHARGE     59.00000    58.99949
     
       CHARGES OF OLD CHARGE DENSITY
:OTO   : INTERSTITIAL CHARGE =     2.801051
:OPC   : PW Pseudocharge     =     7.681600
:OTO001: CHARGE SPHERE  1    =    56.198949

:NEC02: NUCLEAR AND ELECTRONIC CHARGE     59.00000    59.00000
     
       CONVERGENCE TEST
:DTO001: DIFFERENCE IN SPHERE  1 =  0.1287425

:DIS  :  CHARGE DISTANCE       ( 0.1287425 for atom    1 spin 1)      0.1287425
 PW Mixed is           49
 
******************************************************
* MULTISECANT MIXING VER9 RELEASE 10.4.0              *
* Slow Mode, cautious                                *
* Fixed density scale                                *
* Regularization       1.000E-04                     *
* Step Trust Radius    0.75000                       *
* Trust Upper Limit    2.000E+00                     *
* Max Number of Memory Steps   12                    *
******************************************************
 
:PWTMP   1.4426E+02  1.2500E+02  2.0971E+02
:PLANE:  PW TOTAL      3.2724 DISTAN   7.03E-02  2.15E+00 %
:CHARG:  CLM/ATOM    977.1982 DISTAN   2.23E-01  2.28E-02 %
 
Step History
        DMIX         DMIXT        Red     Pred      Trust     Lambda    MagRel    MagAbs     Beta
  1   3.5000E-02   3.5000E-02 -1.00E+00  1.00E+00 -1.00E+01  1.00E+00  3.50E-02  3.50E-02  1.00E+00
  2   2.5000E-02   2.5000E-02  9.70E-01  1.00E+00 -1.00E+01  1.00E+00  2.50E-02  9.83E-03  1.00E+00
  3   3.2700E-02   3.2700E-02 -1.00E+00  1.00E+00 -1.00E+01  1.00E+00  3.27E-02  1.25E-02  1.00E+00
:JACOBIANS    3.759E-02   4.137E-01
  
:NORMS:  1/Froebius, Min, Max, Used   0.7193E+00  0.2897E+00  0.7193E+00  0.7193E+00
:INFO :  Number of Memory Steps    2 Skipping    0
:INFO :  SLambda=    0.0689582802  Max    0.0689582802
:PREDicted Charge, CTotal, PW Trust    3.769E-02   3.769E-02   4.965E-02
:PREDicted DMix, Beta, BLim   5.3363E-01  9.7942E-01  5.8884E-01

Eigenvalues, unscaled except for SY+YY
   #     SY Real        SY Imag          SS             YY         SY+YY Real      SY+YY Imag
   1   1.197485E+00   0.000000E+00   1.034867E+00   1.999999E+00   2.082575E+00   0.000000E+00
   2  -3.330669E-16   0.000000E+00   1.110223E-16   1.149836E-06   1.148365E-06   0.000000E+00
 
:INFO :  Singular value  2.083E+00 Weight  1.000E+00 Projection -1.331E-06
:INFO :  Singular value  1.148E-06 Weight  3.297E-05 Projection  5.927E-03
:RANK :  ACTIVE   1.00/2  =  50.00 % ; YY RANK   1.00/2  =  50.00 %
 
:DLIM :  Beta Active  9.846E-01
:BLIM :  VZERO Control Off
:TRUST:  Step 3.13E-01  Charge 7.50E-02 (e) CTO  2.50E-01 (e) PW  3.50E-01 (e)
:DIRM :  MEMORY  2/12 SCALE   1.000 RED  0.61 PRED  1.00 NEXT  1.00 BETA  0.98
:TRAVE:  Charge 4.20E-03 (e) CTO  4.20E-03 (e) PW  6.12E-03 (e)
:DIRP :  |MSR1|= 5.743E-03 |PRATT|= 7.026E-02 ANGLE=   0.0 DEGREES
:DIRQ :  |MSR1|= 1.823E-02 |PRATT|= 2.230E-01 ANGLE=   0.0 DEGREES
:DIRT :  |MSR1|= 1.911E-02 |PRATT|= 2.338E-01 ANGLE=   0.0 DEGREES
:MIX  :   MSD1   REGULARIZATION:  2.00E-04 GREED: 0.08175  Newton 1.00  0.0818                
     
       CHARGES OF MIXED CHARGE DENSITY
:CTO   : INTERSTITIAL CHARGE =     2.805250
:CPC   : PW Pseudocharge     =     7.687674
:CTO001: CHARGE SPHERE  1    =    56.194750

:NEC03: NUCLEAR AND ELECTRONIC CHARGE     59.00000    59.00000

PW CHANGE     H    K    L      Current       Change    Residue
:PTO001:      0    0    0  5.00355725E-02  4.899E-05  5.992E-04
:PTO002:     -1   -1   -1 -1.44634366E-01  2.027E-05  2.481E-04
:PTO003:      0    0   -2  8.39234635E-02 -2.931E-05 -3.586E-04
:PTO004:      0   -2   -2  6.56960980E-02 -2.027E-04 -2.480E-03
:PTO005:     -1   -1   -3 -5.60444482E-02  3.917E-04  4.792E-03
:PTO006:     -2   -2   -2  1.37675508E-02 -1.128E-04 -1.380E-03
:PTO007:      0    0   -4  1.30079694E-03 -6.818E-05 -8.341E-04
:PTO008:     -1   -3   -3  1.94076430E-03  2.419E-04  2.959E-03
:PTO009:      0   -2   -4 -4.26440761E-03 -2.251E-04 -2.754E-03
:PTO010:     -2   -2   -4 -7.36816948E-03 -1.189E-04 -1.455E-03
:PTO011:     -3   -3   -3  2.49060179E-03  1.585E-05  1.939E-04
:PTO012:     -1   -1   -5  7.65940140E-03  7.613E-05  9.313E-04

:ENE  : ********** TOTAL ENERGY IN Ry =       -18472.12728417


------- case.scf0 --------
 Flat Integration
 New Mode for Coulomb Integral
 Consistent 3/8+Simpson combinations
 Extension of core to zero
 LDM version in phi
 Fifth-order quadrature in outwin


            ---------
:ITE026: 26. ITERATION
            ---------

:NATO :    1 INDEPENDENT AND    1 TOTAL ATOMS IN UNITCELL
       SUBSTANCE: blebleble                                                   

       LATTICE                      = F   
:POT  : POTENTIAL OPTION EX_LDA EC_LDA VX_LDA VC_LDA
:LAT  : LATTICE CONSTANTS=  9.43103  9.43103  9.43103    1.571    1.571    1.571
:VOL  : UNIT CELL VOLUME =     209.70929
       MODE OF CALCULATION IS       = RELA
       NON-SPINPOLARIZED CALCULATION
:IFFT  : FFT-parameters:   80   80   80 Factor: 2.00


   CONVERGENCE PARAMETER FOR PSEUDOCHARGE: NCON=  9
   MAXIMAL VALUE OF RMT(JATOM)*ABSK(NKK) : RK  =29.98011


:VKCOUL :  VK-COUL convergence: 0.111E-06
       ATOMNUMBER=  1 Pr         VCOUL-ZERO =  0.35631E+00
:FIT001: LUSE= 13 SIGMA OF V-XC FIT FOR ATOM  1  0.2700693E-04
:FIT001: LUSE= 13 SIGMA OF V-XC FIT FOR ATOM  1  0.2700693E-04
:DEN  : DENSITY INTEGRAL  =         -7081.36327020   (Ry)
       ELS_POTENTIAL_AT Z=0 and Z=0.5:  -2.57288  -2.57288
       ELS_POTENTIAL_AT Y=0 and Y=0.5:   0.00000   0.00000
:VZERO:v0,v0c,v0x  -3.58389  -2.57288  -1.01101 v5,v5c,v5x  -3.58389  -2.57288  -1.01101
:VZERY:v0,v0c,v0x  -0.75141   0.00000  -0.75141 v5,v5c,v5x  -0.75141   0.00000  -0.75141
:VZERX:v0,v0c,v0x  -0.75141   0.00000  -0.75141 v5,v5c,v5x  -0.75141   0.00000  -0.75141

------- case.scf1 --------
:LMAX-WF:   10   Non-Spherical LMAX:   4

          ATOMIC SPHERE DEPENDENT PARAMETERS FOR ATOM  Pr        
:e__0001: OVERALL ENERGY PARAMETER IS    0.4867
          OVERALL BASIS SET ON ATOM IS LAPW
:E0_0001: E( 0)=    0.4867
             APW+lo
:E0_0001: E( 0)=   -1.9570   E(BOTTOM)=   -2.342   E(TOP)=   -1.572  4  5   184
             LOCAL ORBITAL
:E1_0001: E( 1)=    0.8867
             APW+lo
:E1_0001: E( 1)=   -0.5725   E(BOTTOM)=   -1.225   E(TOP)=    0.080  3  4   183
             LOCAL ORBITAL
:E3_0001: E( 3)=    0.7267   E(BOTTOM)=    0.581   E(TOP)=    0.873  0  1   123
             APW+lo
:E2_0001: E( 2)=    0.4867   E(BOTTOM)=    0.345   E(TOP)= -200.000  2 -1    89
             APW+lo

       K=   0.00000   0.00000   0.00000            1
:RKM  : MATRIX SIZE   157LOs:  20  RKM= 8.16  WEIGHT= 1.00  PGR:    
       EIGENVALUES ARE:
:EIG00001:      -1.9276721   -0.5401935   -0.5401935   -0.5401935    0.4354347
:EIG00006:       0.7082448    0.7368317    0.7368317    0.7368317    0.7717703
:EIG00011:       0.7717703    0.7717703    0.8245297    0.8245297    0.8245297
:EIG00016:       1.0312097    1.0312097    1.4443921    1.6965147    1.6965147
:EIG00021:       1.6965147    1.7892900    2.6377171    2.6377171    2.6377171
:EIG00026:       2.7633546    2.7633546    2.7633546    2.9148426    2.9148426
:EIG00031:       3.3787247    3.5289873    3.5289873    3.5289873    4.0125207
:EIG00036:       4.0125207    4.2464736    4.2464736    4.2464736    4.3071676
:EIG00041:       4.3071676    4.3071676    4.3688162    4.3688162    4.3688162
:EIG00046:       4.6859723    4.6859723    4.6859723    4.7886466    4.7886466
 
:EIG00051:       4.8137270    4.9874976    4.9874976    4.9874976    4.9908964
:EIG00056:       4.9908964    4.9908964    5.0935999    5.1189137    5.1869499
:EIG00061:       5.1869499    5.1869499    5.4847034    5.4847034    5.4847034
:EIG00066:       5.9190046    6.7994266    6.8074821    6.8074821    7.2581613
:EIG00071:       7.2581613    7.2581613    7.8799846    7.8799846    8.0275156
:EIG00076:       8.0275156    8.0275156    8.0603940    8.0603940    8.0603940
       ********************************************************

:KPT   :      NUMBER OF K-POINTS:   165

------- case.scfso --------
   0.0   0.0 angle (M,z), angle (M,x) deg
 
        SPIN-ORBIT EIGENVALUES:
     K=   0.00000   0.00000   0.00000            1
      MATRIX SIZE=  160   WEIGHT= 1.00
     EIGENVALUES ARE:
          -1.9276721   -1.9276721   -0.6888337   -0.6888337   -0.4701926
          -0.4701926   -0.4701926   -0.4701926    0.4354347    0.4354347
           0.7054405    0.7054405    0.7272910    0.7272910    0.7272910
           0.7272910    0.7481293    0.7481293    0.7703049    0.7703049
           0.7776911    0.7776911    0.7776911    0.7776911    0.8206736
           0.8206736    0.8206736    0.8206736    0.8312012    0.8312012
           1.0315508    1.0315508    1.0315508    1.0315508    1.4444635
           1.4444635    1.6922909    1.6922909    1.6985149    1.6985149

           1.6985149    1.6985149    1.7892900    1.7892900    2.6325299
           2.6325299    2.6325299    2.6325299    2.6475715    2.6475715
           2.6846238    2.6846238    2.8036517    2.8036517    2.8036517
           2.8036517    2.9151409    2.9151409    2.9151409    2.9151409
           3.3787247    3.3787247    3.5285643    3.5285643    3.5292107
           3.5292107    3.5292107    3.5292107    4.0124804    4.0124804
           4.0124804    4.0124804    4.2449962    4.2449962    4.2449962
           4.2449962    4.2497462    4.2497462    4.2691659    4.2691659

           4.3282845    4.3282845    4.3282845    4.3282845    4.3688060
           4.3688060    4.3688214    4.3688214    4.3688214    4.3688214

       ********************************************************

------- case.scf2 --------
:GMA  : POTENTIAL AND CHARGE CUT-OFF  12.00 Ry**.5




:POS001: at.nr.   1 position = 0.00000 0.00000 0.50000  multiplicity =  1

       lmmax  5
       lm=   0 0  4 0  4 4  6 0  6 4
:FER gutzwiller fermi energy   0.70473
:EORB          0.000686180
:SUM sum of gutz band energies         -4.132072688

:CHA001: total charge inside sphere   1 =    10.151351
:PCS001: partial charges sphere =  1 s,p,d,f,      d-eg,d-t2g 
:QTL001: 2.0359 5.3353 0.7731 2.0063 0.0000 0.0000 0.0000 0.2806 0.4925 0.0000 0.0000 0.0000

:CHA  : total charge inside unit cell =       6.499997

------- case.scfc --------

        1.ATOM      Pr                   14 CORE STATES
:1S 001: 1S               -3066.832315264 Ry
:2S 001: 2S                -492.585557200 Ry
:2PP001: 2P*               -465.684549950 Ry
:2P 001: 2P                -430.287114837 Ry
:3S 001: 3S                -105.679349555 Ry
:3PP001: 3P*                -94.216950796 Ry
:3P 001: 3P                 -87.209463196 Ry
:3DD001: 3D*                -67.135673589 Ry
:3D 001: 3D                 -65.624212396 Ry
:4S 001: 4S                 -20.370578035 Ry
:4PP001: 4P*                -16.078140629 Ry
:4P 001: 4P                 -14.551974236 Ry
:4DD001: 4D*                 -7.487007246 Ry
:4D 001: 4D                  -7.218019165 Ry

------- case.scfm --------
:CINT001 Core Integral Atom   1   45.999504

       DENSITY AT NUCLEUS
        JATOM        VALENCE       SEMI-CORE          CORE           TOTAL
:RTO001:   1      650.713182        0.000000   656821.613976   657472.327158
     
       CHARGES OF NEW CHARGE DENSITY
:NTO   : INTERSTITIAL CHARGE =     2.848701
:NPC   : PW Pseudocharge     =     7.752647
:NTO001: CHARGE SPHERE  1    =    56.150855

:NEC01: NUCLEAR AND ELECTRONIC CHARGE     59.00000    58.99956
     
       CHARGES OF OLD CHARGE DENSITY
:OTO   : INTERSTITIAL CHARGE =     2.805250
:OPC   : PW Pseudocharge     =     7.687674
:OTO001: CHARGE SPHERE  1    =    56.194750

:NEC02: NUCLEAR AND ELECTRONIC CHARGE     59.00000    59.00000
     
       CONVERGENCE TEST
:DTO001: DIFFERENCE IN SPHERE  1 =  0.1051641

:DIS  :  CHARGE DISTANCE       ( 0.1051641 for atom    1 spin 1)      0.1051641
 PW Mixed is           49
 
******************************************************
* MULTISECANT MIXING VER9 RELEASE 10.4.0              *
* Standard Mode with controls                        *
* Fixed density scale                                *
* Regularization       1.000E-04                     *
* Trust Upper Limit    5.000E+00                     *
* Max Number of Memory Steps    8                    *
******************************************************
 
:PWTMP   1.4426E+02  1.2500E+02  2.0971E+02
:PLANE:  PW TOTAL      3.2722 DISTAN   6.39E-02  1.95E+00 %
:CHARG:  CLM/ATOM    977.1948 DISTAN   1.99E-01  2.03E-02 %
 
Step History
        DMIX         DMIXT        Red     Pred      Trust     Lambda    MagRel    MagAbs     Beta
  1   3.5000E-02   3.5000E-02 -1.00E+00  1.00E+00 -1.00E+01  1.00E+00  3.50E-02  3.50E-02  1.00E+00
  2   2.5000E-02   2.5000E-02  9.70E-01  1.00E+00 -1.00E+01  1.00E+00  2.50E-02  9.83E-03  1.00E+00
  3   3.2700E-02   3.2700E-02  6.13E-01  1.00E+00 -1.00E+01  6.90E-02  3.27E-02  1.25E-02  1.00E+00
  4   8.1750E-02   8.1750E-02 -1.00E+00  1.00E+00  3.13E-01  1.00E+00  8.18E-02  1.91E-02  9.85E-01
:JACOBIANS    5.388E-02   8.797E-01
  
:NORMS:  1/Froebius, Min, Max, Used   0.7394E+00  0.3990E+00  0.8259E+00  0.7968E+00
:INFO :  Number of Memory Steps    3 Skipping    0
:INFO :  SLambda=    0.9530070454  Max    0.9530070454
:PREDicted Charge, CTotal, PW Trust    2.844E-02   2.844E-02   4.302E-02
:PREDicted DMix, Beta, BLim   7.9251E-01  5.5082E+00  9.2778E-01

Eigenvalues, unscaled except for SY+YY
   #     SY Real        SY Imag          SS             YY         SY+YY Real      SY+YY Imag
   1   1.320190E+00   0.000000E+00   1.359538E+00   2.141476E+00   3.274608E+00   0.000000E+00
   2  -1.734723E-16   0.000000E+00   2.806286E-01   8.585235E-01   6.043491E-07   0.000000E+00
   3   5.717357E-01   0.000000E+00  -9.004419E-17   6.801539E-07   1.528410E+00   0.000000E+00
 
:INFO :  Singular value  3.281E+00 Weight  1.000E+00 Projection -3.039E-02
:INFO :  Singular value  1.525E+00 Weight  1.000E+00 Projection -2.177E-01
:INFO :  Singular value  6.043E-07 Weight  7.964E-06 Projection -5.696E-04
:RANK :  ACTIVE   2.00/3  =  66.67 % ; YY RANK   2.00/3  =  66.67 %
 
:BLIM :  VZERO Control Off
:TRUST:  Step 5.11E-01  Charge 7.50E-02 (e) CTO  2.50E-01 (e) PW  3.50E-01 (e)
:DTRUS:  Lambda    3.160E-01 Increment    7.276E-12 Iterations   102 DMIX    1.654E-01
:INFOA:  Angle SubSpace to MSR1      9.58
:DIRM :  MEMORY  3/8  SCALE   1.000 RED  0.89 PRED  1.00 NEXT  0.51 
:INFO :  Limited by Atoms F by Step T

:TRAVE:  Charge 1.27E-02 (e) CTO  1.27E-02 (e) PW  1.87E-02 (e)
:DIRP :  |MSR1|= 2.983E-02 |PRATT|= 6.393E-02 ANGLE=   1.0 DEGREES
:DIRQ :  |MSR1|= 1.024E-01 |PRATT|= 1.988E-01 ANGLE=   6.2 DEGREES
:DIRT :  |MSR1|= 1.066E-01 |PRATT|= 2.089E-01 ANGLE=   6.2 DEGREES
:MIX  :   MSD1   REGULARIZATION:  2.14E-04 GREED: 0.20438  LMStep 0.57  0.5105 Step           
     
       CHARGES OF MIXED CHARGE DENSITY
:CTO   : INTERSTITIAL CHARGE =     2.826444
:CPC   : PW Pseudocharge     =     7.719097
:CTO001: CHARGE SPHERE  1    =    56.173556

:NEC03: NUCLEAR AND ELECTRONIC CHARGE     59.00000    59.00000

PW CHANGE     H    K    L      Current       Change    Residue
:PTO001:      0    0    0  5.02864745E-02  2.509E-04  5.249E-04
:PTO002:     -1   -1   -1 -1.44542350E-01  9.202E-05  2.224E-04
:PTO003:      0    0   -2  8.37696074E-02 -1.539E-04 -3.371E-04
:PTO004:      0   -2   -2  6.46426443E-02 -1.053E-03 -2.259E-03
:PTO005:     -1   -1   -3 -5.40228918E-02  2.022E-03  4.366E-03
:PTO006:     -2   -2   -2  1.32044999E-02 -5.631E-04 -1.251E-03
:PTO007:      0    0   -4  9.49081324E-04 -3.517E-04 -7.639E-04
:PTO008:     -1   -3   -3  3.21992806E-03  1.279E-03  2.716E-03
:PTO009:      0   -2   -4 -5.46869882E-03 -1.204E-03 -2.535E-03
:PTO010:     -2   -2   -4 -7.99166065E-03 -6.235E-04 -1.342E-03
:PTO011:     -3   -3   -3  2.56484353E-03  7.424E-05  1.789E-04
:PTO012:     -1   -1   -5  8.06391058E-03  4.045E-04  8.652E-04

:ENE  : ********** TOTAL ENERGY IN Ry =       -18472.12786135


------- case.scf0 --------
 Flat Integration
 New Mode for Coulomb Integral
 Consistent 3/8+Simpson combinations
 Extension of core to zero
 LDM version in phi
 Fifth-order quadrature in outwin


            ---------
:ITE027: 27. ITERATION
            ---------

:NATO :    1 INDEPENDENT AND    1 TOTAL ATOMS IN UNITCELL
       SUBSTANCE: blebleble                                                   

       LATTICE                      = F   
:POT  : POTENTIAL OPTION EX_LDA EC_LDA VX_LDA VC_LDA
:LAT  : LATTICE CONSTANTS=  9.43103  9.43103  9.43103    1.571    1.571    1.571
:VOL  : UNIT CELL VOLUME =     209.70929
       MODE OF CALCULATION IS       = RELA
       NON-SPINPOLARIZED CALCULATION
:IFFT  : FFT-parameters:   80   80   80 Factor: 2.00


   CONVERGENCE PARAMETER FOR PSEUDOCHARGE: NCON=  9
   MAXIMAL VALUE OF RMT(JATOM)*ABSK(NKK) : RK  =29.98011


:VKCOUL :  VK-COUL convergence: 0.809E-07
       ATOMNUMBER=  1 Pr         VCOUL-ZERO =  0.35989E+00
:FIT001: LUSE= 13 SIGMA OF V-XC FIT FOR ATOM  1  0.2180605E-04
:FIT001: LUSE= 13 SIGMA OF V-XC FIT FOR ATOM  1  0.2180605E-04
:DEN  : DENSITY INTEGRAL  =         -7078.68664196   (Ry)
       ELS_POTENTIAL_AT Z=0 and Z=0.5:  -2.59514  -2.59514
       ELS_POTENTIAL_AT Y=0 and Y=0.5:   0.00000   0.00000
:VZERO:v0,v0c,v0x  -3.60775  -2.59514  -1.01261 v5,v5c,v5x  -3.60775  -2.59514  -1.01261
:VZERY:v0,v0c,v0x  -0.75318   0.00000  -0.75318 v5,v5c,v5x  -0.75318   0.00000  -0.75318
:VZERX:v0,v0c,v0x  -0.75318   0.00000  -0.75318 v5,v5c,v5x  -0.75318   0.00000  -0.75318

------- case.scf1 --------
:LMAX-WF:   10   Non-Spherical LMAX:   4

          ATOMIC SPHERE DEPENDENT PARAMETERS FOR ATOM  Pr        
:e__0001: OVERALL ENERGY PARAMETER IS    0.4867
          OVERALL BASIS SET ON ATOM IS LAPW
:E0_0001: E( 0)=    0.4867
             APW+lo
:E0_0001: E( 0)=   -1.9717   E(BOTTOM)=   -2.354   E(TOP)=   -1.589  4  5   182
             LOCAL ORBITAL
:E1_0001: E( 1)=    0.8867
             APW+lo
:E1_0001: E( 1)=   -0.5845   E(BOTTOM)=   -1.233   E(TOP)=    0.064  3  4   184
             LOCAL ORBITAL
:E3_0001: E( 3)=    0.6973   E(BOTTOM)=    0.555   E(TOP)=    0.839  0  1   118
             APW+lo
:E2_0001: E( 2)=    0.4867   E(BOTTOM)=    0.340   E(TOP)= -200.000  2 -1    85
             APW+lo

       K=   0.00000   0.00000   0.00000            1
:RKM  : MATRIX SIZE   157LOs:  20  RKM= 8.16  WEIGHT= 1.00  PGR:    
       EIGENVALUES ARE:
:EIG00001:      -1.9417993   -0.5511209   -0.5511209   -0.5511209    0.4369750
:EIG00006:       0.6826915    0.7087204    0.7087204    0.7087204    0.7411696
:EIG00011:       0.7411696    0.7411696    0.8230996    0.8230996    0.8230996
:EIG00016:       1.0280086    1.0280086    1.4418166    1.6966756    1.6966756
:EIG00021:       1.6966756    1.7944381    2.6344233    2.6344233    2.6344233
:EIG00026:       2.7614106    2.7614106    2.7614106    2.9138490    2.9138490
:EIG00031:       3.3793016    3.5310923    3.5310923    3.5310923    4.0115990
:EIG00036:       4.0115990    4.2464723    4.2464723    4.2464723    4.3087625
:EIG00041:       4.3087625    4.3087625    4.3702043    4.3702043    4.3702043
:EIG00046:       4.6892675    4.6892675    4.6892675    4.7923891    4.7923891
 
:EIG00051:       4.8146611    4.9915464    4.9915464    4.9915464    4.9945212
:EIG00056:       4.9945212    4.9945212    5.0987454    5.1196108    5.1915010
:EIG00061:       5.1915010    5.1915010    5.4894661    5.4894661    5.4894661
:EIG00066:       5.9245135    6.8015213    6.8093822    6.8093822    7.2613085
:EIG00071:       7.2613085    7.2613085    7.8782816    7.8782816    8.0279625
:EIG00076:       8.0279625    8.0279625    8.0604461    8.0604461    8.0604461
       ********************************************************

:KPT   :      NUMBER OF K-POINTS:   165

------- case.scfso --------
   0.0   0.0 angle (M,z), angle (M,x) deg
 
        SPIN-ORBIT EIGENVALUES:
     K=   0.00000   0.00000   0.00000            1
      MATRIX SIZE=  160   WEIGHT= 1.00
     EIGENVALUES ARE:
          -1.9417993   -1.9417993   -0.7005523   -0.7005523   -0.4807399
          -0.4807399   -0.4807399   -0.4807399    0.4369750    0.4369750
           0.6795402    0.6795402    0.6987830    0.6987830    0.6987830
           0.6987830    0.7202346    0.7202346    0.7400182    0.7400182
           0.7474027    0.7474027    0.7474027    0.7474027    0.8191937
           0.8191937    0.8191937    0.8191937    0.8298439    0.8298439
           1.0283611    1.0283611    1.0283611    1.0283611    1.4418813
           1.4418813    1.6923360    1.6923360    1.6987289    1.6987289

           1.6987289    1.6987289    1.7944381    1.7944381    2.6292260
           2.6292260    2.6292260    2.6292260    2.6443018    2.6443018
           2.6825548    2.6825548    2.8017873    2.8017873    2.8017873
           2.8017873    2.9141474    2.9141474    2.9141474    2.9141474
           3.3793016    3.3793016    3.5306781    3.5306781    3.5313110
           3.5313110    3.5313110    3.5313110    4.0115602    4.0115602
           4.0115602    4.0115602    4.2450026    4.2450026    4.2450026
           4.2450026    4.2497262    4.2497262    4.2709597    4.2709597

           4.3297677    4.3297677    4.3297677    4.3297677    4.3701940
           4.3701940    4.3702095    4.3702095    4.3702095    4.3702095

       ********************************************************

------- case.scf2 --------
:GMA  : POTENTIAL AND CHARGE CUT-OFF  12.00 Ry**.5




:POS001: at.nr.   1 position = 0.00000 0.00000 0.50000  multiplicity =  1

       lmmax  5
       lm=   0 0  4 0  4 4  6 0  6 4
:FER gutzwiller fermi energy   0.70242
:EORB         -0.056249960
:SUM sum of gutz band energies         -4.225641847

:CHA001: total charge inside sphere   1 =    10.191609
:PCS001: partial charges sphere =  1 s,p,d,f,      d-eg,d-t2g 
:QTL001: 2.0366 5.3436 0.7683 2.0424 0.0000 0.0000 0.0000 0.2788 0.4895 0.0000 0.0000 0.0000

:CHA  : total charge inside unit cell =       6.499997

------- case.scfc --------

        1.ATOM      Pr                   14 CORE STATES
:1S 001: 1S               -3066.900863708 Ry
:2S 001: 2S                -492.651969781 Ry
:2PP001: 2P*               -465.751426676 Ry
:2P 001: 2P                -430.353815422 Ry
:3S 001: 3S                -105.740254064 Ry
:3PP001: 3P*                -94.278209237 Ry
:3P 001: 3P                 -87.270261214 Ry
:3DD001: 3D*                -67.197497446 Ry
:3D 001: 3D                 -65.685898506 Ry
:4S 001: 4S                 -20.415530097 Ry
:4PP001: 4P*                -16.122273148 Ry
:4P 001: 4P                 -14.594774337 Ry
:4DD001: 4D*                 -7.527561563 Ry
:4D 001: 4D                  -7.258126604 Ry

------- case.scfm --------
:CINT001 Core Integral Atom   1   45.999516

       DENSITY AT NUCLEUS
        JATOM        VALENCE       SEMI-CORE          CORE           TOTAL
:RTO001:   1      653.144213        0.000000   656825.266600   657478.410813
     
       CHARGES OF NEW CHARGE DENSITY
:NTO   : INTERSTITIAL CHARGE =     2.808475
:NPC   : PW Pseudocharge     =     7.731663
:NTO001: CHARGE SPHERE  1    =    56.191125

:NEC01: NUCLEAR AND ELECTRONIC CHARGE     59.00000    58.99960
     
       CHARGES OF OLD CHARGE DENSITY
:OTO   : INTERSTITIAL CHARGE =     2.826444
:OPC   : PW Pseudocharge     =     7.719097
:OTO001: CHARGE SPHERE  1    =    56.173556

:NEC02: NUCLEAR AND ELECTRONIC CHARGE     59.00000    59.00000
     
       CONVERGENCE TEST
:DTO001: DIFFERENCE IN SPHERE  1 =  0.0392622

:DIS  :  CHARGE DISTANCE       ( 0.0392622 for atom    1 spin 1)      0.0392622
 PW Mixed is           49
 
******************************************************
* MULTISECANT MIXING VER9 RELEASE 10.4.0              *
* Standard Mode with controls                        *
* Fixed density scale                                *
* Regularization       1.000E-04                     *
* Trust Upper Limit    5.000E+00                     *
* Max Number of Memory Steps    8                    *
******************************************************
 
:PWTMP   1.4426E+02  1.2500E+02  2.0971E+02
:PLANE:  PW TOTAL      3.2714 DISTAN   3.06E-02  9.35E-01 %
:CHARG:  CLM/ATOM    977.1837 DISTAN   7.91E-02  8.09E-03 %
 
Step History
        DMIX         DMIXT        Red     Pred      Trust     Lambda    MagRel    MagAbs     Beta
  1   3.5000E-02   3.5000E-02 -1.00E+00  1.00E+00 -1.00E+01  1.00E+00  3.50E-02  3.50E-02  1.00E+00
  2   2.5000E-02   2.5000E-02  9.70E-01  1.00E+00 -1.00E+01  1.00E+00  2.50E-02  9.83E-03  1.00E+00
  3   3.2700E-02   3.2700E-02  6.13E-01  1.00E+00 -1.00E+01  6.90E-02  3.27E-02  1.25E-02  1.00E+00
  4   8.1750E-02   8.1750E-02  8.94E-01  1.00E+00  3.13E-01  9.53E-01  8.18E-02  1.91E-02  9.85E-01
  5   2.0438E-01   1.6536E-01 -1.00E+00  5.05E-01  5.11E-01  1.00E+00  5.11E-01  1.07E-01  1.00E+00
:JACOBIANS    6.298E-02   1.170E+00
  
:NORMS:  1/Froebius, Min, Max, Used   0.8256E+00  0.3848E+00  0.9815E+00  0.9751E+00
:INFO :  Number of Memory Steps    4 Skipping    0
:INFO :  SLambda=    1.0003285347  Max    1.0003285347
:PREDicted Charge, CTotal, PW Trust    1.572E-02   1.572E-02   2.480E-02
:PREDicted DMix, Beta, BLim   9.5107E-02  1.1735E+00  1.2741E+00

Eigenvalues, unscaled except for SY+YY
   #     SY Real        SY Imag          SS             YY         SY+YY Real      SY+YY Imag
   1   2.524077E+00   0.000000E+00   2.525231E+00   2.655726E+00   5.142160E+00   0.000000E+00
   2   4.863498E-01   0.000000E+00   2.013812E-01   1.343539E+00   1.868551E+00   0.000000E+00
   3  -6.686690E-16   0.000000E+00   6.857679E-05   7.341227E-04   9.338892E-08   0.000000E+00
   4   1.984699E-04   0.000000E+00  -5.130839E-17   9.511025E-08   9.027915E-04   0.000000E+00
 
:INFO :  Singular value  5.148E+00 Weight  1.000E+00 Projection -3.717E-02
:INFO :  Singular value  1.867E+00 Weight  1.000E+00 Projection  3.671E-02
:INFO :  Singular value  9.028E-04 Weight  9.204E-01 Projection -2.874E-01
:INFO :  Singular value  9.339E-08 Weight  1.237E-07 Projection  2.385E-06
:RANK :  ACTIVE   2.92/4  =  73.01 % ; YY RANK   2.88/4  =  72.11 %
 
:BLIM :  VZERO Control Off
:TRUST:  Step 8.43E-01  Charge 7.50E-02 (e) CTO  2.50E-01 (e) PW  3.50E-01 (e)
:DIRM :  MEMORY  4/8  SCALE   1.000 RED  0.41 PRED  0.51 NEXT  0.51 
:TRAVE:  Charge 9.01E-03 (e) CTO  9.01E-03 (e) PW  1.16E-02 (e)
:DIRP :  |MSR1|= 5.699E-03 |PRATT|= 3.059E-02 ANGLE= 144.4 DEGREES
:DIRQ :  |MSR1|= 6.713E-02 |PRATT|= 7.908E-02 ANGLE=  22.3 DEGREES
:DIRT :  |MSR1|= 6.737E-02 |PRATT|= 8.479E-02 ANGLE=  33.4 DEGREES
:MIX  :   MSE1   REGULARIZATION:  2.66E-04 GREED: 0.11278  Newton 1.00  0.7945                
     
       CHARGES OF MIXED CHARGE DENSITY
:CTO   : INTERSTITIAL CHARGE =     2.821129
:CPC   : PW Pseudocharge     =     7.717099
:CTO001: CHARGE SPHERE  1    =    56.178871

:NEC03: NUCLEAR AND ELECTRONIC CHARGE     59.00000    59.00000

PW CHANGE     H    K    L      Current       Change    Residue
:PTO001:      0    0    0  5.02516019E-02 -3.487E-05 -1.859E-05
:PTO002:     -1   -1   -1 -1.44611525E-01 -6.917E-05  1.202E-04
:PTO003:      0    0   -2  8.38916907E-02  1.221E-04 -1.883E-04
:PTO004:      0   -2   -2  6.47412207E-02  9.858E-05 -1.122E-03
:PTO005:     -1   -1   -3 -5.43794316E-02 -3.565E-04  2.133E-03
:PTO006:     -2   -2   -2  1.33818083E-02  1.773E-04 -6.200E-04
:PTO007:      0    0   -4  1.04840729E-03  9.933E-05 -3.913E-04
:PTO008:     -1   -3   -3  3.08691673E-03 -1.330E-04  1.406E-03
:PTO009:      0   -2   -4 -5.37518094E-03  9.352E-05 -1.311E-03
:PTO010:     -2   -2   -4 -7.83858957E-03  1.531E-04 -7.379E-04
:PTO011:     -3   -3   -3  2.48421515E-03 -8.063E-05  1.182E-04
:PTO012:     -1   -1   -5  7.94620327E-03 -1.177E-04  4.941E-04

:ENE  : ********** TOTAL ENERGY IN Ry =       -18472.12937778


------- case.scf0 --------
 Flat Integration
 New Mode for Coulomb Integral
 Consistent 3/8+Simpson combinations
 Extension of core to zero
 LDM version in phi
 Fifth-order quadrature in outwin


            ---------
:ITE028: 28. ITERATION
            ---------

:NATO :    1 INDEPENDENT AND    1 TOTAL ATOMS IN UNITCELL
       SUBSTANCE: blebleble                                                   

       LATTICE                      = F   
:POT  : POTENTIAL OPTION EX_LDA EC_LDA VX_LDA VC_LDA
:LAT  : LATTICE CONSTANTS=  9.43103  9.43103  9.43103    1.571    1.571    1.571
:VOL  : UNIT CELL VOLUME =     209.70929
       MODE OF CALCULATION IS       = RELA
       NON-SPINPOLARIZED CALCULATION
:IFFT  : FFT-parameters:   80   80   80 Factor: 2.00


   CONVERGENCE PARAMETER FOR PSEUDOCHARGE: NCON=  9
   MAXIMAL VALUE OF RMT(JATOM)*ABSK(NKK) : RK  =29.98011


:VKCOUL :  VK-COUL convergence: 0.698E-07
       ATOMNUMBER=  1 Pr         VCOUL-ZERO =  0.35939E+00
:FIT001: LUSE= 13 SIGMA OF V-XC FIT FOR ATOM  1  0.1873211E-04
:FIT001: LUSE= 13 SIGMA OF V-XC FIT FOR ATOM  1  0.1873211E-04
:DEN  : DENSITY INTEGRAL  =         -7079.24008688   (Ry)
       ELS_POTENTIAL_AT Z=0 and Z=0.5:  -2.59033  -2.59033
       ELS_POTENTIAL_AT Y=0 and Y=0.5:   0.00000   0.00000
:VZERO:v0,v0c,v0x  -3.60367  -2.59033  -1.01334 v5,v5c,v5x  -3.60367  -2.59033  -1.01334
:VZERY:v0,v0c,v0x  -0.75285   0.00000  -0.75285 v5,v5c,v5x  -0.75285   0.00000  -0.75285
:VZERX:v0,v0c,v0x  -0.75285   0.00000  -0.75285 v5,v5c,v5x  -0.75285   0.00000  -0.75285

------- case.scf1 --------
:LMAX-WF:   10   Non-Spherical LMAX:   4

          ATOMIC SPHERE DEPENDENT PARAMETERS FOR ATOM  Pr        
:e__0001: OVERALL ENERGY PARAMETER IS    0.4867
          OVERALL BASIS SET ON ATOM IS LAPW
:E0_0001: E( 0)=    0.4867
             APW+lo
:E0_0001: E( 0)=   -1.9684   E(BOTTOM)=   -2.351   E(TOP)=   -1.586  4  5   190
             LOCAL ORBITAL
:E1_0001: E( 1)=    0.8867
             APW+lo
:E1_0001: E( 1)=   -0.5818   E(BOTTOM)=   -1.231   E(TOP)=    0.068  3  4   183
             LOCAL ORBITAL
:E3_0001: E( 3)=    0.7037   E(BOTTOM)=    0.561   E(TOP)=    0.847  0  1   121
             APW+lo
:E2_0001: E( 2)=    0.4867   E(BOTTOM)=    0.341   E(TOP)= -200.000  2 -1    81
             APW+lo

       K=   0.00000   0.00000   0.00000            1
:RKM  : MATRIX SIZE   157LOs:  20  RKM= 8.16  WEIGHT= 1.00  PGR:    
       EIGENVALUES ARE:
:EIG00001:      -1.9386193   -0.5486041   -0.5486041   -0.5486041    0.4368266
:EIG00006:       0.6882299    0.7147756    0.7147756    0.7147756    0.7478006
:EIG00011:       0.7478006    0.7478006    0.8235489    0.8235489    0.8235489
:EIG00016:       1.0288946    1.0288946    1.4424407    1.6968450    1.6968450
:EIG00021:       1.6968450    1.7936118    2.6352971    2.6352971    2.6352971
:EIG00026:       2.7620071    2.7620071    2.7620071    2.9141246    2.9141246
:EIG00031:       3.3793760    3.5308011    3.5308011    3.5308011    4.0120718
:EIG00036:       4.0120718    4.2466869    4.2466869    4.2466869    4.3086145
:EIG00041:       4.3086145    4.3086145    4.3701597    4.3701597    4.3701597
:EIG00046:       4.6886891    4.6886891    4.6886891    4.7917233    4.7917233
 
:EIG00051:       4.8147259    4.9909559    4.9909559    4.9909559    4.9938429
:EIG00056:       4.9938429    4.9938429    5.0978575    5.1196097    5.1907498
:EIG00061:       5.1907498    5.1907498    5.4886604    5.4886604    5.4886604
:EIG00066:       5.9235723    6.8012595    6.8091862    6.8091862    7.2608475
:EIG00071:       7.2608475    7.2608475    7.8788142    7.8788142    8.0280526
:EIG00076:       8.0280526    8.0280526    8.0606128    8.0606128    8.0606128
       ********************************************************

:KPT   :      NUMBER OF K-POINTS:   165

------- case.scfso --------
   0.0   0.0 angle (M,z), angle (M,x) deg
 
        SPIN-ORBIT EIGENVALUES:
     K=   0.00000   0.00000   0.00000            1
      MATRIX SIZE=  160   WEIGHT= 1.00
     EIGENVALUES ARE:
          -1.9386193   -1.9386193   -0.6978706   -0.6978706   -0.4783023
          -0.4783023   -0.4783023   -0.4783023    0.4368266    0.4368266
           0.6851569    0.6851569    0.7049264    0.7049264    0.7049264
           0.7049264    0.7262463    0.7262463    0.7465778    0.7465778
           0.7539623    0.7539623    0.7539623    0.7539623    0.8196542
           0.8196542    0.8196542    0.8196542    0.8302772    0.8302772
           1.0292445    1.0292445    1.0292445    1.0292445    1.4425067
           1.4425067    1.6925299    1.6925299    1.6988871    1.6988871

           1.6988871    1.6988871    1.7936118    1.7936118    2.6301016
           2.6301016    2.6301016    2.6301016    2.6451710    2.6451710
           2.6831759    2.6831759    2.8023680    2.8023680    2.8023680
           2.8023680    2.9144231    2.9144231    2.9144231    2.9144231
           3.3793760    3.3793760    3.5303851    3.5303851    3.5310208
           3.5310208    3.5310208    3.5310208    4.0120327    4.0120327
           4.0120327    4.0120327    4.2452158    4.2452158    4.2452158
           4.2452158    4.2499442    4.2499442    4.2707701    4.2707701

           4.3296432    4.3296432    4.3296432    4.3296432    4.3701494
           4.3701494    4.3701649    4.3701649    4.3701649    4.3701649

       ********************************************************

------- case.scf2 --------
:GMA  : POTENTIAL AND CHARGE CUT-OFF  12.00 Ry**.5




:POS001: at.nr.   1 position = 0.00000 0.00000 0.50000  multiplicity =  1

       lmmax  5
       lm=   0 0  4 0  4 4  6 0  6 4
:FER gutzwiller fermi energy   0.70353
:EORB         -0.045753106
:SUM sum of gutz band energies         -4.201967569

:CHA001: total charge inside sphere   1 =    10.179665
:PCS001: partial charges sphere =  1 s,p,d,f,      d-eg,d-t2g 
:QTL001: 2.0365 5.3422 0.7717 2.0285 0.0000 0.0000 0.0000 0.2798 0.4918 0.0000 0.0000 0.0000

:CHA  : total charge inside unit cell =       6.500003

------- case.scfc --------

        1.ATOM      Pr                   14 CORE STATES
:1S 001: 1S               -3066.887454112 Ry
:2S 001: 2S                -492.638695941 Ry
:2PP001: 2P*               -465.738115961 Ry
:2P 001: 2P                -430.340518440 Ry
:3S 001: 3S                -105.727691918 Ry
:3PP001: 3P*                -94.265596957 Ry
:3P 001: 3P                 -87.257723234 Ry
:3DD001: 3D*                -67.184801994 Ry
:3D 001: 3D                 -65.673223891 Ry
:4S 001: 4S                 -20.406036123 Ry
:4PP001: 4P*                -16.112948833 Ry
:4P 001: 4P                 -14.585720770 Ry
:4DD001: 4D*                 -7.518967395 Ry
:4D 001: 4D                  -7.249623251 Ry

------- case.scfm --------
:CINT001 Core Integral Atom   1   45.999513

       DENSITY AT NUCLEUS
        JATOM        VALENCE       SEMI-CORE          CORE           TOTAL
:RTO001:   1      652.662549        0.000000   656824.613036   657477.275585
     
       CHARGES OF NEW CHARGE DENSITY
:NTO   : INTERSTITIAL CHARGE =     2.820375
:NPC   : PW Pseudocharge     =     7.737809
:NTO001: CHARGE SPHERE  1    =    56.179179

:NEC01: NUCLEAR AND ELECTRONIC CHARGE     59.00000    58.99955
     
       CHARGES OF OLD CHARGE DENSITY
:OTO   : INTERSTITIAL CHARGE =     2.821129
:OPC   : PW Pseudocharge     =     7.717099
:OTO001: CHARGE SPHERE  1    =    56.178871

:NEC02: NUCLEAR AND ELECTRONIC CHARGE     59.00000    59.00000
     
       CONVERGENCE TEST
:DTO001: DIFFERENCE IN SPHERE  1 =  0.0069396

:DIS  :  CHARGE DISTANCE       ( 0.0069396 for atom    1 spin 1)      0.0069396
 PW Mixed is           49
 
******************************************************
* MULTISECANT MIXING VER9 RELEASE 10.4.0              *
* Standard Mode with controls                        *
* Fixed density scale                                *
* Regularization       1.000E-04                     *
* Trust Upper Limit    5.000E+00                     *
* Max Number of Memory Steps    8                    *
******************************************************
 
:PWTMP   1.4426E+02  1.2500E+02  2.0971E+02
:PLANE:  PW TOTAL      3.2727 DISTAN   3.60E-02  1.10E+00 %
:CHARG:  CLM/ATOM    977.1848 DISTAN   9.08E-03  9.29E-04 %
 
Step History
        DMIX         DMIXT        Red     Pred      Trust     Lambda    MagRel    MagAbs     Beta
  1   3.5000E-02   3.5000E-02 -1.00E+00  1.00E+00 -1.00E+01  1.00E+00  3.50E-02  3.50E-02  1.00E+00
  2   2.5000E-02   2.5000E-02  9.70E-01  1.00E+00 -1.00E+01  1.00E+00  2.50E-02  9.83E-03  1.00E+00
  3   3.2700E-02   3.2700E-02  6.13E-01  1.00E+00 -1.00E+01  6.90E-02  3.27E-02  1.25E-02  1.00E+00
  4   8.1750E-02   8.1750E-02  8.94E-01  1.00E+00  3.13E-01  9.53E-01  8.18E-02  1.91E-02  9.85E-01
  5   2.0438E-01   1.6536E-01  4.06E-01  5.05E-01  5.11E-01  1.00E+00  5.11E-01  1.07E-01  1.00E+00
  6   1.1278E-01   1.1278E-01 -1.00E+00  5.10E-01  8.43E-01  1.00E+00  7.95E-01  6.74E-02  1.00E+00
:JACOBIANS    4.109E-01   1.360E+00
  
:NORMS:  1/Froebius, Min, Max, Used   0.9143E+00  0.5050E+00  0.1019E+01  0.1019E+01
:INFO :  Number of Memory Steps    5 Skipping    0
:INFO :  SLambda=    0.8738447431  Max    0.8738447431
:PREDicted Charge, CTotal, PW Trust    3.462E-03   3.462E-03   9.987E-03
:PREDicted DMix, Beta, BLim   7.0180E-01  1.1762E+00  9.8475E-01

Eigenvalues, unscaled except for SY+YY
   #     SY Real        SY Imag          SS             YY         SY+YY Real      SY+YY Imag
   1   3.932626E+00   0.000000E+00   4.024533E+00   3.876681E+00   7.314580E+00   0.000000E+00
   2   3.786168E-01   0.000000E+00   1.515750E-01   1.117172E+00   1.446745E+00   0.000000E+00
   3   4.545693E-03   0.000000E+00   3.429407E-03   5.757957E-03   9.585834E-03   0.000000E+00
   4   1.365766E-17   0.000000E+00   2.510574E-05   3.895087E-04   6.310066E-08   0.000000E+00
   5   1.052836E-04   0.000000E+00  -2.908070E-16   6.296398E-08   5.097880E-04   0.000000E+00
 
:INFO :  Singular value  7.317E+00 Weight  1.000E+00 Projection -2.531E-03
:INFO :  Singular value  1.446E+00 Weight  1.000E+00 Projection -7.367E-03
:INFO :  Singular value  9.586E-03 Weight  9.984E-01 Projection -4.360E-01
:INFO :  Singular value  5.097E-04 Weight  6.335E-01 Projection  6.592E-01
:INFO :  Singular value  6.310E-08 Weight  2.649E-08 Projection  4.156E-08
:RANK :  ACTIVE   3.63/5  =  72.64 % ; YY RANK   3.50/5  =  69.96 %
 
:BLIM :  VZERO Control Off
:TRUST:  Step 1.12E+00  Charge 6.00E-02 (e) CTO  2.00E-01 (e) PW  2.80E-01 (e)
:DIRM :  MEMORY  5/8  SCALE   1.000 RED  0.44 PRED  0.51 NEXT  0.22 
:TRAVE:  Charge 5.04E-03 (e) CTO  5.04E-03 (e) PW  1.23E-02 (e)
:DIRP :  |MSR1|= 3.253E-02 |PRATT|= 3.599E-02 ANGLE=   0.9 DEGREES
:DIRQ :  |MSR1|= 1.417E-02 |PRATT|= 9.080E-03 ANGLE=  19.1 DEGREES
:DIRT :  |MSR1|= 3.548E-02 |PRATT|= 3.712E-02 ANGLE=  11.1 DEGREES
:MIX  :   MSD1   REGULARIZATION:  3.88E-04 GREED: 0.28196  Newton 1.00  0.9558                
     
       CHARGES OF MIXED CHARGE DENSITY
:CTO   : INTERSTITIAL CHARGE =     2.822196
:CPC   : PW Pseudocharge     =     7.737824
:CTO001: CHARGE SPHERE  1    =    56.177804

:NEC03: NUCLEAR AND ELECTRONIC CHARGE     59.00000    59.00000

PW CHANGE     H    K    L      Current       Change    Residue
:PTO001:      0    0    0  5.03555188E-02  1.039E-04  1.031E-04
:PTO002:     -1   -1   -1 -1.44458805E-01  1.527E-04  1.797E-04
:PTO003:      0    0   -2  8.36095643E-02 -2.821E-04 -3.160E-04
:PTO004:      0   -2   -2  6.36295738E-02 -1.112E-03 -1.234E-03
:PTO005:     -1   -1   -3 -5.20927131E-02  2.287E-03  2.538E-03
:PTO006:     -2   -2   -2  1.26628443E-02 -7.190E-04 -8.049E-04
:PTO007:      0    0   -4  6.00533353E-04 -4.479E-04 -4.975E-04
:PTO008:     -1   -3   -3  4.49404096E-03  1.407E-03  1.548E-03
:PTO009:      0   -2   -4 -6.66814883E-03 -1.293E-03 -1.418E-03
:PTO010:     -2   -2   -4 -8.64216836E-03 -8.036E-04 -8.875E-04
:PTO011:     -3   -3   -3  2.65612965E-03  1.719E-04  1.939E-04
:PTO012:     -1   -1   -5  8.49817089E-03  5.520E-04  6.093E-04

:ENE  : ********** TOTAL ENERGY IN Ry =       -18472.12889743


------- case.scf0 --------
 Flat Integration
 New Mode for Coulomb Integral
 Consistent 3/8+Simpson combinations
 Extension of core to zero
 LDM version in phi
 Fifth-order quadrature in outwin


            ---------
:ITE029: 29. ITERATION
            ---------

:NATO :    1 INDEPENDENT AND    1 TOTAL ATOMS IN UNITCELL
       SUBSTANCE: blebleble                                                   

       LATTICE                      = F   
:POT  : POTENTIAL OPTION EX_LDA EC_LDA VX_LDA VC_LDA
:LAT  : LATTICE CONSTANTS=  9.43103  9.43103  9.43103    1.571    1.571    1.571
:VOL  : UNIT CELL VOLUME =     209.70929
       MODE OF CALCULATION IS       = RELA
       NON-SPINPOLARIZED CALCULATION
:IFFT  : FFT-parameters:   80   80   80 Factor: 2.00


   CONVERGENCE PARAMETER FOR PSEUDOCHARGE: NCON=  9
   MAXIMAL VALUE OF RMT(JATOM)*ABSK(NKK) : RK  =29.98011


:VKCOUL :  VK-COUL convergence: 0.678E-07
       ATOMNUMBER=  1 Pr         VCOUL-ZERO =  0.36217E+00
:FIT001: LUSE= 13 SIGMA OF V-XC FIT FOR ATOM  1  0.1874853E-04
:FIT001: LUSE= 13 SIGMA OF V-XC FIT FOR ATOM  1  0.1874853E-04
:DEN  : DENSITY INTEGRAL  =         -7079.44812693   (Ry)
       ELS_POTENTIAL_AT Z=0 and Z=0.5:  -2.60381  -2.60381
       ELS_POTENTIAL_AT Y=0 and Y=0.5:   0.00000   0.00000
:VZERO:v0,v0c,v0x  -3.61678  -2.60381  -1.01297 v5,v5c,v5x  -3.61678  -2.60381  -1.01297
:VZERY:v0,v0c,v0x  -0.75348   0.00000  -0.75348 v5,v5c,v5x  -0.75348   0.00000  -0.75348
:VZERX:v0,v0c,v0x  -0.75348   0.00000  -0.75348 v5,v5c,v5x  -0.75348   0.00000  -0.75348

------- case.scf1 --------
:LMAX-WF:   10   Non-Spherical LMAX:   4

          ATOMIC SPHERE DEPENDENT PARAMETERS FOR ATOM  Pr        
:e__0001: OVERALL ENERGY PARAMETER IS    0.4867
          OVERALL BASIS SET ON ATOM IS LAPW
:E0_0001: E( 0)=    0.4867
             APW+lo
:E0_0001: E( 0)=   -1.9662   E(BOTTOM)=   -2.349   E(TOP)=   -1.583  4  5   185
             LOCAL ORBITAL
:E1_0001: E( 1)=    0.8867
             APW+lo
:E1_0001: E( 1)=   -0.5795   E(BOTTOM)=   -1.229   E(TOP)=    0.070  3  4   180
             LOCAL ORBITAL
:E3_0001: E( 3)=    0.7057   E(BOTTOM)=    0.563   E(TOP)=    0.849  0  1   120
             APW+lo
:E2_0001: E( 2)=    0.4867   E(BOTTOM)=    0.344   E(TOP)= -200.000  2 -1    86
             APW+lo

       K=   0.00000   0.00000   0.00000            1
:RKM  : MATRIX SIZE   157LOs:  20  RKM= 8.16  WEIGHT= 1.00  PGR:    
       EIGENVALUES ARE:
:EIG00001:      -1.9363586   -0.5462502   -0.5462502   -0.5462502    0.4395239
:EIG00006:       0.6903953    0.7168746    0.7168746    0.7168746    0.7498714
:EIG00011:       0.7498714    0.7498714    0.8261773    0.8261773    0.8261773
:EIG00016:       1.0314628    1.0314628    1.4451332    1.6995310    1.6995310
:EIG00021:       1.6995310    1.7963825    2.6379924    2.6379924    2.6379924
:EIG00026:       2.7646586    2.7646586    2.7646586    2.9168313    2.9168313
:EIG00031:       3.3820800    3.5335458    3.5335458    3.5335458    4.0149133
:EIG00036:       4.0149133    4.2495502    4.2495502    4.2495502    4.3113231
:EIG00041:       4.3113231    4.3113231    4.3729155    4.3729155    4.3729155
:EIG00046:       4.6914559    4.6914559    4.6914559    4.7945018    4.7945018
 
:EIG00051:       4.8174595    4.9937380    4.9937380    4.9937380    4.9965974
:EIG00056:       4.9965974    4.9965974    5.1006792    5.1223464    5.1935412
:EIG00061:       5.1935412    5.1935412    5.4914383    5.4914383    5.4914383
:EIG00066:       5.9264118    6.8040928    6.8120761    6.8120761    7.2636410
:EIG00071:       7.2636410    7.2636410    7.8819254    7.8819254    8.0310535
:EIG00076:       8.0310535    8.0310535    8.0634288    8.0634288    8.0634288
       ********************************************************

:KPT   :      NUMBER OF K-POINTS:   165

------- case.scfso --------
   0.0   0.0 angle (M,z), angle (M,x) deg
 
        SPIN-ORBIT EIGENVALUES:
     K=   0.00000   0.00000   0.00000            1
      MATRIX SIZE=  160   WEIGHT= 1.00
     EIGENVALUES ARE:
          -1.9363586   -1.9363586   -0.6955392   -0.6955392   -0.4759370
          -0.4759370   -0.4759370   -0.4759370    0.4395239    0.4395239
           0.6873167    0.6873167    0.7070221    0.7070221    0.7070221
           0.7070221    0.7283469    0.7283469    0.7486545    0.7486545
           0.7560357    0.7560357    0.7560357    0.7560357    0.8222817
           0.8222817    0.8222817    0.8222817    0.8329071    0.8329071
           1.0318130    1.0318130    1.0318130    1.0318130    1.4451991
           1.4451991    1.6952131    1.6952131    1.7015745    1.7015745

           1.7015745    1.7015745    1.7963825    1.7963825    2.6327997
           2.6327997    2.6327997    2.6327997    2.6478613    2.6478613
           2.6858308    2.6858308    2.8050186    2.8050186    2.8050186
           2.8050186    2.9171295    2.9171295    2.9171295    2.9171295
           3.3820800    3.3820800    3.5331300    3.5331300    3.5337654
           3.5337654    3.5337654    3.5337654    4.0148742    4.0148742
           4.0148742    4.0148742    4.2480801    4.2480801    4.2480801
           4.2480801    4.2528053    4.2528053    4.2734886    4.2734886

           4.3323465    4.3323465    4.3323465    4.3323465    4.3729052
           4.3729052    4.3729207    4.3729207    4.3729207    4.3729207

       ********************************************************

------- case.scf2 --------
:GMA  : POTENTIAL AND CHARGE CUT-OFF  12.00 Ry**.5




:POS001: at.nr.   1 position = 0.00000 0.00000 0.50000  multiplicity =  1

       lmmax  5
       lm=   0 0  4 0  4 4  6 0  6 4
:FER gutzwiller fermi energy   0.70642
:EORB         -0.047796140
:SUM sum of gutz band energies         -4.169098924

:CHA001: total charge inside sphere   1 =    10.178451
:PCS001: partial charges sphere =  1 s,p,d,f,      d-eg,d-t2g 
:QTL001: 2.0366 5.3427 0.7731 2.0253 0.0000 0.0000 0.0000 0.2803 0.4928 0.0000 0.0000 0.0000

:CHA  : total charge inside unit cell =       6.500001

------- case.scfc --------

        1.ATOM      Pr                   14 CORE STATES
:1S 001: 1S               -3066.880179008 Ry
:2S 001: 2S                -492.632588376 Ry
:2PP001: 2P*               -465.731750142 Ry
:2P 001: 2P                -430.334249267 Ry
:3S 001: 3S                -105.723763731 Ry
:3PP001: 3P*                -94.261551551 Ry
:3P 001: 3P                 -87.253792843 Ry
:3DD001: 3D*                -67.180563026 Ry
:3D 001: 3D                 -65.669026169 Ry
:4S 001: 4S                 -20.403816542 Ry
:4PP001: 4P*                -16.110740740 Ry
:4P 001: 4P                 -14.583564347 Ry
:4DD001: 4D*                 -7.516834694 Ry
:4D 001: 4D                  -7.247503297 Ry

------- case.scfm --------
:CINT001 Core Integral Atom   1   45.999514

       DENSITY AT NUCLEUS
        JATOM        VALENCE       SEMI-CORE          CORE           TOTAL
:RTO001:   1      652.736575        0.000000   656824.072357   657476.808932
     
       CHARGES OF NEW CHARGE DENSITY
:NTO   : INTERSTITIAL CHARGE =     2.821497
:NPC   : PW Pseudocharge     =     7.739084
:NTO001: CHARGE SPHERE  1    =    56.177965

:NEC01: NUCLEAR AND ELECTRONIC CHARGE     59.00000    58.99946
     
       CHARGES OF OLD CHARGE DENSITY
:OTO   : INTERSTITIAL CHARGE =     2.822196
:OPC   : PW Pseudocharge     =     7.737824
:OTO001: CHARGE SPHERE  1    =    56.177804

:NEC02: NUCLEAR AND ELECTRONIC CHARGE     59.00000    59.00000
     
       CONVERGENCE TEST
:DTO001: DIFFERENCE IN SPHERE  1 =  0.0044982

:DIS  :  CHARGE DISTANCE       ( 0.0044982 for atom    1 spin 1)      0.0044982
 PW Mixed is           49
 
******************************************************
* MULTISECANT MIXING VER9 RELEASE 10.4.0              *
* Standard Mode with controls                        *
* Fixed density scale                                *
* Regularization       1.000E-04                     *
* Trust Upper Limit    5.000E+00                     *
* Max Number of Memory Steps    8                    *
******************************************************
 
:PWTMP   1.4426E+02  1.2500E+02  2.0971E+02
:PLANE:  PW TOTAL      3.2667 DISTAN   3.44E-03  1.05E-01 %
:CHARG:  CLM/ATOM    977.1891 DISTAN   6.44E-03  6.59E-04 %
 
Step History
        DMIX         DMIXT        Red     Pred      Trust     Lambda    MagRel    MagAbs     Beta
  1   3.5000E-02   3.5000E-02 -1.00E+00  1.00E+00 -1.00E+01  1.00E+00  3.50E-02  3.50E-02  1.00E+00
  2   2.5000E-02   2.5000E-02  9.70E-01  1.00E+00 -1.00E+01  1.00E+00  2.50E-02  9.83E-03  1.00E+00
  3   3.2700E-02   3.2700E-02  6.13E-01  1.00E+00 -1.00E+01  6.90E-02  3.27E-02  1.25E-02  1.00E+00
  4   8.1750E-02   8.1750E-02  8.94E-01  1.00E+00  3.13E-01  9.53E-01  8.18E-02  1.91E-02  9.85E-01
  5   2.0438E-01   1.6536E-01  4.06E-01  5.05E-01  5.11E-01  1.00E+00  5.11E-01  1.07E-01  1.00E+00
  6   1.1278E-01   1.1278E-01  4.38E-01  5.10E-01  8.43E-01  8.74E-01  7.95E-01  6.74E-02  1.00E+00
  7   2.8196E-01   2.8196E-01 -1.00E+00  2.17E-01  1.12E+00  1.00E+00  9.56E-01  3.55E-02  1.00E+00
:JACOBIANS    7.020E-01   1.459E+00
  
:NORMS:  1/Froebius, Min, Max, Used   0.9408E+00  0.4734E+00  0.1026E+01  0.1026E+01
:INFO :  Number of Memory Steps    6 Skipping    0
:INFO :  SLambda=    0.9998852727  Max    0.9998852727
:PREDicted Charge, CTotal, PW Trust    2.162E-03   2.162E-03   1.557E-02
:PREDicted DMix, Beta, BLim   3.0078E-01  1.0532E+00  2.1085E+00

Eigenvalues, unscaled except for SY+YY
   #     SY Real        SY Imag          SS             YY         SY+YY Real      SY+YY Imag
   1   4.267659E+00   0.000000E+00   4.392939E+00   4.175269E+00   8.443392E+00   0.000000E+00
   2   8.405835E-01   0.000000E+00   8.249405E-01   9.596555E-01   1.707270E+00   0.000000E+00
   3   2.988841E-01   0.000000E+00   9.272521E-02   8.639082E-01   1.254691E+00   0.000000E+00
   4   3.419742E-04   0.000000E+00   1.018773E-04   1.162437E-03   1.490818E-03   0.000000E+00
   5  -3.415682E-16   0.000000E+00   3.065299E-07   4.543495E-06   5.946245E-08   0.000000E+00
   6   1.113911E-06   0.000000E+00   9.534866E-17   5.940362E-08   5.690240E-06   0.000000E+00
 
:INFO :  Singular value  8.446E+00 Weight  1.000E+00 Projection -1.741E-03
:INFO :  Singular value  1.709E+00 Weight  1.000E+00 Projection -3.638E-03
:INFO :  Singular value  1.253E+00 Weight  1.000E+00 Projection  2.386E-03
:INFO :  Singular value  1.492E-03 Weight  9.274E-01 Projection -1.329E-01
:INFO :  Singular value  5.686E-06 Weight  1.854E-04 Projection -1.484E-06
:INFO :  Singular value  5.946E-08 Weight  2.028E-08 Projection -8.082E-09
:RANK :  ACTIVE   3.93/6  =  65.46 % ; YY RANK   3.89/6  =  64.76 %
 
:BLIM :  VZERO Control Off
:TRUST:  Step 1.50E+00  Charge 4.80E-02 (e) CTO  1.60E-01 (e) PW  2.24E-01 (e)
:DIRM :  MEMORY  6/8  SCALE   1.000 RED  0.20 PRED  0.22 NEXT  0.14 
:TRAVE:  Charge 2.94E-03 (e) CTO  2.94E-03 (e) PW  7.14E-03 (e)
:DIRP :  |MSR1|= 3.382E-03 |PRATT|= 3.445E-03 ANGLE=   4.8 DEGREES
:DIRQ :  |MSR1|= 4.496E-03 |PRATT|= 6.441E-03 ANGLE=  29.7 DEGREES
:DIRT :  |MSR1|= 5.626E-03 |PRATT|= 7.304E-03 ANGLE=  26.5 DEGREES
:MIX  :   MSD1   REGULARIZATION:  4.18E-04 GREED: 0.25129  Newton 1.00  0.7702                
     
       CHARGES OF MIXED CHARGE DENSITY
:CTO   : INTERSTITIAL CHARGE =     2.823044
:CPC   : PW Pseudocharge     =     7.740334
:CTO001: CHARGE SPHERE  1    =    56.176956

:NEC03: NUCLEAR AND ELECTRONIC CHARGE     59.00000    59.00000

PW CHANGE     H    K    L      Current       Change    Residue
:PTO001:      0    0    0  5.03715299E-02  1.601E-05  1.228E-05
:PTO002:     -1   -1   -1 -1.44444227E-01  1.458E-05  4.237E-06
:PTO003:      0    0   -2  8.35796944E-02 -2.987E-05 -2.007E-05
:PTO004:      0   -2   -2  6.35206206E-02 -1.090E-04 -1.106E-04
:PTO005:     -1   -1   -3 -5.18557151E-02  2.370E-04  2.421E-04
:PTO006:     -2   -2   -2  1.25832962E-02 -7.955E-05 -8.146E-05
:PTO007:      0    0   -4  5.52064751E-04 -4.847E-05 -5.004E-05
:PTO008:     -1   -3   -3  4.63466472E-03  1.406E-04  1.493E-04
:PTO009:      0   -2   -4 -6.79494079E-03 -1.268E-04 -1.345E-04
:PTO010:     -2   -2   -4 -8.72744870E-03 -8.528E-05 -9.000E-05
:PTO011:     -3   -3   -3  2.67769934E-03  2.157E-05  2.257E-05
:PTO012:     -1   -1   -5  8.55745683E-03  5.929E-05  6.307E-05

:ENE  : ********** TOTAL ENERGY IN Ry =       -18472.12899568


------- case.scf0 --------
 Flat Integration
 New Mode for Coulomb Integral
 Consistent 3/8+Simpson combinations
 Extension of core to zero
 LDM version in phi
 Fifth-order quadrature in outwin


            ---------
:ITE030: 30. ITERATION
            ---------

:NATO :    1 INDEPENDENT AND    1 TOTAL ATOMS IN UNITCELL
       SUBSTANCE: blebleble                                                   

       LATTICE                      = F   
:POT  : POTENTIAL OPTION EX_LDA EC_LDA VX_LDA VC_LDA
:LAT  : LATTICE CONSTANTS=  9.43103  9.43103  9.43103    1.571    1.571    1.571
:VOL  : UNIT CELL VOLUME =     209.70929
       MODE OF CALCULATION IS       = RELA
       NON-SPINPOLARIZED CALCULATION
:IFFT  : FFT-parameters:   80   80   80 Factor: 2.00


   CONVERGENCE PARAMETER FOR PSEUDOCHARGE: NCON=  9
   MAXIMAL VALUE OF RMT(JATOM)*ABSK(NKK) : RK  =29.98011


:VKCOUL :  VK-COUL convergence: 0.684E-07
       ATOMNUMBER=  1 Pr         VCOUL-ZERO =  0.36249E+00
:FIT001: LUSE= 13 SIGMA OF V-XC FIT FOR ATOM  1  0.1888011E-04
[...]

:CHA001: total charge inside sphere   1 =    10.171701
:PCS001: partial charges sphere =  1 s,p,d,f,      d-eg,d-t2g 
:QTL001: 2.0370 5.3469 0.7847 2.0024 0.0000 0.0000 0.0000 0.2840 0.5007 0.0000 0.0000 0.0000

:CHA  : total charge inside unit cell =       6.500005

------- case.scfc --------

        1.ATOM      Pr                   14 CORE STATES
:1S 001: 1S               -3066.891135621 Ry
:2S 001: 2S                -492.644218355 Ry
:2PP001: 2P*               -465.743231546 Ry
:2P 001: 2P                -430.345786004 Ry
:3S 001: 3S                -105.736362098 Ry
:3PP001: 3P*                -94.274107867 Ry
:3P 001: 3P                 -87.266367336 Ry
:3DD001: 3D*                -67.193045118 Ry
:3D 001: 3D                 -65.681520034 Ry
:4S 001: 4S                 -20.414741952 Ry
:4PP001: 4P*                -16.121493246 Ry
:4P 001: 4P                 -14.594073306 Ry
:4DD001: 4D*                 -7.526858152 Ry
:4D 001: 4D                  -7.257439528 Ry

------- case.scfm --------
:CINT001 Core Integral Atom   1   45.999516

       DENSITY AT NUCLEUS
        JATOM        VALENCE       SEMI-CORE          CORE           TOTAL
:RTO001:   1      653.438016        0.000000   656824.333468   657477.771484
     
       CHARGES OF NEW CHARGE DENSITY
:NTO   : INTERSTITIAL CHARGE =     2.828318
:NPC   : PW Pseudocharge     =     7.742311
:NTO001: CHARGE SPHERE  1    =    56.171217

:NEC01: NUCLEAR AND ELECTRONIC CHARGE     59.00000    58.99953
     
       CHARGES OF OLD CHARGE DENSITY
:OTO   : INTERSTITIAL CHARGE =     2.828134
:OPC   : PW Pseudocharge     =     7.742667
:OTO001: CHARGE SPHERE  1    =    56.171866

:NEC02: NUCLEAR AND ELECTRONIC CHARGE     59.00000    59.00000
     
       CONVERGENCE TEST
:DTO001: DIFFERENCE IN SPHERE  1 =  0.0012130

:DIS  :  CHARGE DISTANCE       ( 0.0012130 for atom    1 spin 1)      0.0012130
 PW Mixed is           49
 
******************************************************
* MULTISECANT MIXING VER9 RELEASE 10.4.0              *
* Standard Mode with controls                        *
* Fixed density scale                                *
* Regularization       1.000E-04                     *
* Trust Upper Limit    5.000E+00                     *
* Max Number of Memory Steps    8                    *
******************************************************
 
:PWTMP   1.4426E+02  1.2500E+02  2.0971E+02
:PLANE:  PW TOTAL      3.2674 DISTAN   3.86E-04  1.18E-02 %
:CHARG:  CLM/ATOM    977.1908 DISTAN   1.23E-03  1.25E-04 %
 
Step History
        DMIX         DMIXT        Red     Pred      Trust     Lambda    MagRel    MagAbs     Beta
 28   1.1006E-01   1.1006E-01  9.49E-01  6.73E-01  4.10E-01  8.45E-02  3.99E-02  1.11E-03  3.28E-01
 29   1.7500E-01   1.6308E-01  1.14E+00  5.91E-01  3.66E-01  9.31E-02  6.49E-02  1.72E-03  4.10E-01
 30   7.9658E-02   7.3368E-02  8.95E-01  6.73E-01  3.70E-01  5.08E-02  6.10E-02  1.84E-03  3.28E-01
 31   6.6381E-02   6.6381E-02  1.03E+00  5.91E-01  4.33E-01  5.42E-02  1.61E-02  4.35E-04  4.10E-01
 32   7.8610E-02   7.8587E-02  8.58E-01  6.72E-01  2.57E-01  5.80E-02  8.12E-02  2.25E-03  3.28E-01
 33   5.5901E-02   5.1489E-02  7.29E-01  5.91E-01  4.58E-01  3.46E-02  1.45E-01  3.45E-03  4.10E-01
 34   4.7877E-02   4.7877E-02  5.45E-01  4.89E-01  6.10E-01  8.87E-02  2.48E-01  4.30E-03  5.12E-01
 35   4.9935E-02   4.9935E-02  3.73E-01  3.69E-01  8.14E-01  1.00E+00  3.20E-01  3.03E-03  6.40E-01
 36   1.2484E-01   1.2484E-01 -1.00E+00  2.84E-01  1.08E+00  1.00E+00  2.76E-01  9.73E-04  8.00E-01
:JACOBIANS    4.835E-01   1.090E+00
  
:NORMS:  1/Froebius, Min, Max, Used   0.5071E+00  0.5057E+00  0.9753E+00  0.5255E+00
:INFO :  Number of Memory Steps    8 Skipping   27
:INFO :  SLambda=    1.5000000000  Max    1.5000000000
:PREDicted Charge, CTotal, PW Trust    6.543E-04   6.543E-04   1.214E-03
:PREDicted DMix, Beta, BLim   2.3455E-01  1.4480E+00  1.6751E+00

Eigenvalues, unscaled except for SY+YY
   #     SY Real        SY Imag          SS             YY         SY+YY Real      SY+YY Imag
   1   3.294969E+00   0.000000E+00   2.041911E+00   7.983365E+00   1.292390E+01   0.000000E+00
   2   1.569845E-02   0.000000E+00   1.524153E-02   1.639585E-02   4.189369E-02   0.000000E+00
   3   8.530517E-05   0.000000E+00   6.303190E-05   1.920391E-04   2.788421E-04   0.000000E+00
   4   9.750407E-06   0.000000E+00   8.722492E-06   2.823889E-05   4.361219E-05   0.000000E+00
   5   4.076136E-06   0.000000E+00   3.004057E-06   9.354469E-06   2.243675E-05   0.000000E+00
   6   2.792054E-06   0.000000E+00   4.823428E-07   6.496100E-06   9.406848E-06   0.000000E+00
   7   4.085569E-07   0.000000E+00   1.495780E-07   3.075383E-06   3.411811E-06   0.000000E+00
   8  -1.689109E-08   0.000000E+00   1.632798E-08   1.017431E-07   2.716092E-07   0.000000E+00
 
:INFO :  Singular value  1.293E+01 Weight  1.000E+00 Projection  4.064E-04
:INFO :  Singular value  4.194E-02 Weight  9.996E-01 Projection -2.266E-03
:INFO :  Singular value  2.865E-04 Weight  1.141E-01 Projection -2.989E-03
:INFO :  Singular value  4.325E-05 Weight  2.927E-03 Projection -8.211E-05
:INFO :  Singular value  2.257E-05 Weight  7.987E-04 Projection  1.550E-06
:INFO :  Singular value  1.135E-05 Weight  2.020E-04 Projection -1.447E-05
:INFO :  Singular value  3.608E-06 Weight  2.042E-05 Projection -1.113E-06
:INFO :  Singular value  2.074E-07 Weight  6.749E-08 Projection  1.402E-07
:RANK :  ACTIVE   2.12/8  =  26.47 % ; YY RANK   2.05/8  =  25.67 %
 
:BLIM :  VZERO Control Off
:TRUST:  Step 1.45E+00  Charge 2.06E-03 (e) CTO  3.33E-03 (e) PW  3.66E-03 (e)
:DIRM :  MEMORY  8/8  SCALE   1.000 RED  0.36 PRED  0.28 NEXT  0.32 
:TRAVE:  Charge 5.26E-04 (e) CTO  5.26E-04 (e) PW  6.88E-04 (e)
:DIRP :  |MSR1|= 2.706E-04 |PRATT|= 3.859E-04 ANGLE=  33.0 DEGREES
:DIRQ :  |MSR1|= 4.054E-04 |PRATT|= 1.226E-03 ANGLE=  33.1 DEGREES
:DIRT :  |MSR1|= 4.874E-04 |PRATT|= 1.285E-03 ANGLE=  36.5 DEGREES
:MIX  :   MSE1   REGULARIZATION:  7.98E-04 GREED: 0.16214  Newton 1.00  0.3793                
     
       CHARGES OF MIXED CHARGE DENSITY
:CTO   : INTERSTITIAL CHARGE =     2.828360
:CPC   : PW Pseudocharge     =     7.743269
:CTO001: CHARGE SPHERE  1    =    56.171640

:NEC03: NUCLEAR AND ELECTRONIC CHARGE     59.00000    59.00000

PW CHANGE     H    K    L      Current       Change    Residue
:PTO001:      0    0    0  5.04108783E-02  3.951E-06  7.473E-06
:PTO002:     -1   -1   -1 -1.44478320E-01 -1.237E-05 -1.270E-05
:PTO003:      0    0   -2  8.35820327E-02  5.997E-06  5.092E-06
:PTO004:      0   -2   -2  6.35533057E-02  6.733E-06  2.799E-06
:PTO005:     -1   -1   -3 -5.18960601E-02 -6.197E-06  4.073E-06
:PTO006:     -2   -2   -2  1.26170667E-02  1.385E-06 -1.438E-06
:PTO007:      0    0   -4  5.52257103E-04  7.661E-09 -2.735E-06
:PTO008:     -1   -3   -3  4.64766149E-03 -2.075E-07  7.939E-06
:PTO009:      0   -2   -4 -6.82583454E-03 -2.314E-07 -8.651E-06
:PTO010:     -2   -2   -4 -8.73410959E-03 -1.263E-06 -6.444E-06
:PTO011:     -3   -3   -3  2.67140770E-03  5.370E-07  1.556E-06
:PTO012:     -1   -1   -5  8.57380719E-03  1.340E-06  6.187E-06

:ENE  : ********** TOTAL ENERGY IN Ry =       -18472.12960583


------- case.scf0 --------
 Flat Integration
 New Mode for Coulomb Integral
 Consistent 3/8+Simpson combinations
 Extension of core to zero
 LDM version in phi
 Fifth-order quadrature in outwin


            ---------
:ITE059: 59. ITERATION
            ---------

:NATO :    1 INDEPENDENT AND    1 TOTAL ATOMS IN UNITCELL
       SUBSTANCE: blebleble                                                   

       LATTICE                      = F   
:POT  : POTENTIAL OPTION EX_LDA EC_LDA VX_LDA VC_LDA
:LAT  : LATTICE CONSTANTS=  9.43103  9.43103  9.43103    1.571    1.571    1.571
:VOL  : UNIT CELL VOLUME =     209.70929
       MODE OF CALCULATION IS       = RELA
       NON-SPINPOLARIZED CALCULATION
:IFFT  : FFT-parameters:   80   80   80 Factor: 2.00


   CONVERGENCE PARAMETER FOR PSEUDOCHARGE: NCON=  9
   MAXIMAL VALUE OF RMT(JATOM)*ABSK(NKK) : RK  =29.98011


:VKCOUL :  VK-COUL convergence: 0.669E-07
       ATOMNUMBER=  1 Pr         VCOUL-ZERO =  0.36269E+00
:FIT001: LUSE= 13 SIGMA OF V-XC FIT FOR ATOM  1  0.1906189E-04
:FIT001: LUSE= 13 SIGMA OF V-XC FIT FOR ATOM  1  0.1906189E-04
:DEN  : DENSITY INTEGRAL  =         -7078.86652565   (Ry)
       ELS_POTENTIAL_AT Z=0 and Z=0.5:  -2.60854  -2.60854
       ELS_POTENTIAL_AT Y=0 and Y=0.5:   0.00000   0.00000
:VZERO:v0,v0c,v0x  -3.62156  -2.60854  -1.01302 v5,v5c,v5x  -3.62156  -2.60854  -1.01302
:VZERY:v0,v0c,v0x  -0.75388   0.00000  -0.75388 v5,v5c,v5x  -0.75388   0.00000  -0.75388
:VZERX:v0,v0c,v0x  -0.75388   0.00000  -0.75388 v5,v5c,v5x  -0.75388   0.00000  -0.75388

------- case.scf1 --------
:LMAX-WF:   10   Non-Spherical LMAX:   4

          ATOMIC SPHERE DEPENDENT PARAMETERS FOR ATOM  Pr        
:e__0001: OVERALL ENERGY PARAMETER IS    0.4867
          OVERALL BASIS SET ON ATOM IS LAPW
:E0_0001: E( 0)=    0.4867
             APW+lo
:E0_0001: E( 0)=   -1.9703   E(BOTTOM)=   -2.352   E(TOP)=   -1.588  4  5   182
             LOCAL ORBITAL
:E1_0001: E( 1)=    0.8867
             APW+lo
:E1_0001: E( 1)=   -0.5829   E(BOTTOM)=   -1.231   E(TOP)=    0.065  3  4   183
             LOCAL ORBITAL
:E3_0001: E( 3)=    0.6980   E(BOTTOM)=    0.556   E(TOP)=    0.840  0  1   119
             APW+lo
:E2_0001: E( 2)=    0.4867   E(BOTTOM)=    0.342   E(TOP)= -200.000  2 -1    86
             APW+lo

       K=   0.00000   0.00000   0.00000            1
:RKM  : MATRIX SIZE   157LOs:  20  RKM= 8.16  WEIGHT= 1.00  PGR:    
       EIGENVALUES ARE:
:EIG00001:      -1.9403482   -0.5493969   -0.5493969   -0.5493969    0.4395922
:EIG00006:       0.6835632    0.7094214    0.7094214    0.7094214    0.7417986
:EIG00011:       0.7417986    0.7417986    0.8255147    0.8255147    0.8255147
:EIG00016:       1.0303220    1.0303220    1.4442926    1.6992788    1.6992788
:EIG00021:       1.6992788    1.7973488    2.6368195    2.6368195    2.6368195
:EIG00026:       2.7638707    2.7638707    2.7638707    2.9162591    2.9162591
:EIG00031:       3.3819263    3.5338244    3.5338244    3.5338244    4.0143075
:EIG00036:       4.0143075    4.2492340    4.2492340    4.2492340    4.3114129
:EIG00041:       4.3114129    4.3114129    4.3729331    4.3729331    4.3729331
:EIG00046:       4.6919767    4.6919767    4.6919767    4.7951643    4.7951643
 
:EIG00051:       4.8173528    4.9944559    4.9944559    4.9944559    4.9972530
:EIG00056:       4.9972530    4.9972530    5.1016997    5.1222078    5.1943678
:EIG00061:       5.1943678    5.1943678    5.4923635    5.4923635    5.4923635
:EIG00066:       5.9275797    6.8042707    6.8122060    6.8122060    7.2641360
:EIG00071:       7.2641360    7.2641360    7.8810786    7.8810786    8.0307933
:EIG00076:       8.0307933    8.0307933    8.0631202    8.0631202    8.0631202
       ********************************************************

:KPT   :      NUMBER OF K-POINTS:   165

------- case.scfso --------
   0.0   0.0 angle (M,z), angle (M,x) deg
 
        SPIN-ORBIT EIGENVALUES:
     K=   0.00000   0.00000   0.00000            1
      MATRIX SIZE=  160   WEIGHT= 1.00
     EIGENVALUES ARE:
          -1.9403482   -1.9403482   -0.6988937   -0.6988937   -0.4789838
          -0.4789838   -0.4789838   -0.4789838    0.4395922    0.4395922
           0.6803946    0.6803946    0.6994706    0.6994706    0.6994706
           0.6994706    0.7209444    0.7209444    0.7406642    0.7406642
           0.7480412    0.7480412    0.7480412    0.7480412    0.8216058
           0.8216058    0.8216058    0.8216058    0.8322636    0.8322636
           1.0306752    1.0306752    1.0306752    1.0306752    1.4443568
           1.4443568    1.6949314    1.6949314    1.7013358    1.7013358

           1.7013358    1.7013358    1.7973488    1.7973488    2.6316237
           2.6316237    2.6316237    2.6316237    2.6466954    2.6466954
           2.6850134    2.6850134    2.8042497    2.8042497    2.8042497
           2.8042497    2.9165574    2.9165574    2.9165574    2.9165574
           3.3819263    3.3819263    3.5334109    3.5334109    3.5340428
           3.5340428    3.5340428    3.5340428    4.0142688    4.0142688
           4.0142688    4.0142688    4.2477657    4.2477657    4.2477657
           4.2477657    4.2524847    4.2524847    4.2736284    4.2736284

           4.3324082    4.3324082    4.3324082    4.3324082    4.3729228
           4.3729228    4.3729382    4.3729382    4.3729382    4.3729382

       ********************************************************

------- case.scf2 --------
:GMA  : POTENTIAL AND CHARGE CUT-OFF  12.00 Ry**.5




:POS001: at.nr.   1 position = 0.00000 0.00000 0.50000  multiplicity =  1

       lmmax  5
       lm=   0 0  4 0  4 4  6 0  6 4
:FER gutzwiller fermi energy   0.70781
:EORB         -0.069646506
:SUM sum of gutz band energies         -4.189991003

:CHA001: total charge inside sphere   1 =    10.172119
:PCS001: partial charges sphere =  1 s,p,d,f,      d-eg,d-t2g 
:QTL001: 2.0370 5.3469 0.7845 2.0030 0.0000 0.0000 0.0000 0.2839 0.5006 0.0000 0.0000 0.0000

:CHA  : total charge inside unit cell =       6.499996

------- case.scfc --------

        1.ATOM      Pr                   14 CORE STATES
:1S 001: 1S               -3066.891440901 Ry
:2S 001: 2S                -492.644541516 Ry
:2PP001: 2P*               -465.743550888 Ry
:2P 001: 2P                -430.346106778 Ry
:3S 001: 3S                -105.736710854 Ry
:3PP001: 3P*                -94.274455436 Ry
:3P 001: 3P                 -87.266715484 Ry
:3DD001: 3D*                -67.193390628 Ry
:3D 001: 3D                 -65.681865872 Ry
:4S 001: 4S                 -20.415047368 Ry
:4PP001: 4P*                -16.121793743 Ry
:4P 001: 4P                 -14.594366966 Ry
:4DD001: 4D*                 -7.527137867 Ry
:4D 001: 4D                  -7.257716765 Ry

------- case.scfm --------
:CINT001 Core Integral Atom   1   45.999516

       DENSITY AT NUCLEUS
        JATOM        VALENCE       SEMI-CORE          CORE           TOTAL
:RTO001:   1      653.454798        0.000000   656824.340868   657477.795665
     
       CHARGES OF NEW CHARGE DENSITY
:NTO   : INTERSTITIAL CHARGE =     2.827841
:NPC   : PW Pseudocharge     =     7.742036
:NTO001: CHARGE SPHERE  1    =    56.171636

:NEC01: NUCLEAR AND ELECTRONIC CHARGE     59.00000    58.99948
     
       CHARGES OF OLD CHARGE DENSITY
:OTO   : INTERSTITIAL CHARGE =     2.828360
:OPC   : PW Pseudocharge     =     7.743269
:OTO001: CHARGE SPHERE  1    =    56.171640

:NEC02: NUCLEAR AND ELECTRONIC CHARGE     59.00000    59.00000
     
       CONVERGENCE TEST
:DTO001: DIFFERENCE IN SPHERE  1 =  0.0002448

:DIS  :  CHARGE DISTANCE       ( 0.0002448 for atom    1 spin 1)      0.0002448
 PW Mixed is           49
 
******************************************************
* MULTISECANT MIXING VER9 RELEASE 10.4.0              *
* Standard Mode with controls                        *
* Fixed density scale                                *
* Regularization       1.000E-04                     *
* Trust Upper Limit    5.000E+00                     *
* Max Number of Memory Steps    8                    *
******************************************************
 
:PWTMP   1.4426E+02  1.2500E+02  2.0971E+02
:PLANE:  PW TOTAL      3.2677 DISTAN   1.54E-04  4.73E-03 %
:CHARG:  CLM/ATOM    977.1908 DISTAN   3.24E-04  3.32E-05 %
 
Step History
        DMIX         DMIXT        Red     Pred      Trust     Lambda    MagRel    MagAbs     Beta
 29   1.7500E-01   1.6308E-01  1.14E+00  5.91E-01  3.66E-01  9.31E-02  6.49E-02  1.72E-03  4.10E-01
 30   7.9658E-02   7.3368E-02  8.95E-01  6.73E-01  3.70E-01  5.08E-02  6.10E-02  1.84E-03  3.28E-01
 31   6.6381E-02   6.6381E-02  1.03E+00  5.91E-01  4.33E-01  5.42E-02  1.61E-02  4.35E-04  4.10E-01
 32   7.8610E-02   7.8587E-02  8.58E-01  6.72E-01  2.57E-01  5.80E-02  8.12E-02  2.25E-03  3.28E-01
 33   5.5901E-02   5.1489E-02  7.29E-01  5.91E-01  4.58E-01  3.46E-02  1.45E-01  3.45E-03  4.10E-01
 34   4.7877E-02   4.7877E-02  5.45E-01  4.89E-01  6.10E-01  8.87E-02  2.48E-01  4.30E-03  5.12E-01
 35   4.9935E-02   4.9935E-02  3.73E-01  3.69E-01  8.14E-01  1.00E+00  3.20E-01  3.03E-03  6.40E-01
 36   1.2484E-01   1.2484E-01  3.64E-01  2.84E-01  1.08E+00  1.50E+00  2.76E-01  9.73E-04  8.00E-01
 37   1.6214E-01   1.6214E-01 -1.00E+00  3.17E-01  1.45E+00  1.00E+00  3.79E-01  4.87E-04  1.00E+00
:JACOBIANS    5.525E-01   1.205E+00
  
:NORMS:  1/Froebius, Min, Max, Used   0.4796E+00  0.4730E+00  0.1176E+01  0.5219E+00
:INFO :  Number of Memory Steps    8 Skipping   28
:INFO :  SLambda=    0.3720077191  Max    2.1139427377
:PREDicted Charge, CTotal, PW Trust    2.275E-04   2.275E-04   7.213E-04
:PREDicted DMix, Beta, BLim   3.9439E-01  1.0291E+00  2.3412E+00

Eigenvalues, unscaled except for SY+YY
   #     SY Real        SY Imag          SS             YY         SY+YY Real      SY+YY Imag
   1   3.052115E+00   0.000000E+00   1.780153E+00   7.955067E+00   9.088802E+00   0.000000E+00
   2   5.004402E-02   0.000000E+00   5.947021E-02   4.402584E-02   6.433863E-02   0.000000E+00
   3   5.360323E-04   0.000000E+00   4.403338E-04   7.996614E-04   9.816118E-04   0.000000E+00
   4   1.880108E-05   0.000000E+00   1.162262E-05   7.801476E-05   8.017165E-05   0.000000E+00
   5   6.017553E-06   0.000000E+00   3.865771E-06   2.001853E-05   2.449868E-05   0.000000E+00
   6   3.198337E-06   0.000000E+00   7.253209E-07   5.081790E-06  -8.999947E-11   0.000000E+00
   7   5.226447E-07   0.000000E+00   8.070260E-08   4.033932E-06   5.899806E-06   0.000000E+00
   8  -2.639155E-08   0.000000E+00   1.352982E-08   1.387841E-07   4.581149E-06   0.000000E+00
 
:INFO :  Singular value  9.090E+00 Weight  1.000E+00 Projection -1.499E-05
:INFO :  Singular value  6.435E-02 Weight  9.998E-01 Projection -7.656E-04
:INFO :  Singular value  9.819E-04 Weight  6.037E-01 Projection -5.765E-03
:INFO :  Singular value  8.031E-05 Weight  1.009E-02 Projection -4.042E-05
:INFO :  Singular value  2.455E-05 Weight  9.512E-04 Projection -2.638E-05
:INFO :  Singular value  6.016E-06 Weight  5.719E-05 Projection  9.814E-07
:INFO :  Singular value  4.544E-06 Weight  3.262E-05 Projection -1.425E-07
:INFO :  Singular value  8.861E-11 Weight  1.241E-14 Projection -4.024E-12
:RANK :  ACTIVE   2.61/8  =  32.68 % ; YY RANK   2.51/8  =  31.41 %
 
:BLIM :  VZERO Control Off
:TRUST:  Step 1.93E+00  Charge 2.06E-03 (e) CTO  2.66E-03 (e) PW  3.50E-03 (e)
:DIRM :  MEMORY  8/8  SCALE   1.000 RED  0.28 PRED  0.32 NEXT  0.59 
:TRAVE:  Charge 2.65E-04 (e) CTO  2.65E-04 (e) PW  4.53E-04 (e)
:DIRP :  |MSR1|= 1.527E-04 |PRATT|= 1.545E-04 ANGLE=  46.0 DEGREES
:DIRQ :  |MSR1|= 2.691E-04 |PRATT|= 3.242E-04 ANGLE=  29.6 DEGREES
:DIRT :  |MSR1|= 3.094E-04 |PRATT|= 3.592E-04 ANGLE=  33.9 DEGREES
:MIX  :   MSD1   REGULARIZATION:  7.96E-04 GREED: 0.26017  Newton 1.00  0.8614                
     
       CHARGES OF MIXED CHARGE DENSITY
:CTO   : INTERSTITIAL CHARGE =     2.828365
:CPC   : PW Pseudocharge     =     7.743630
:CTO001: CHARGE SPHERE  1    =    56.171635

:NEC03: NUCLEAR AND ELECTRONIC CHARGE     59.00000    59.00000

PW CHANGE     H    K    L      Current       Change    Residue
:PTO001:      0    0    0  5.04126219E-02  1.744E-06  9.721E-07
:PTO002:     -1   -1   -1 -1.44485196E-01 -6.876E-06 -2.316E-06
:PTO003:      0    0   -2  8.35856940E-02  3.661E-06  7.764E-07
:PTO004:      0   -2   -2  6.35547018E-02  1.396E-06 -2.275E-06
:PTO005:     -1   -1   -3 -5.18942350E-02  1.825E-06  7.386E-06
:PTO006:     -2   -2   -2  1.26157815E-02 -1.285E-06 -2.372E-06
:PTO007:      0    0   -4  5.50933809E-04 -1.323E-06 -2.446E-06
:PTO008:     -1   -3   -3  4.65155621E-03  3.895E-06  7.624E-06
:PTO009:      0   -2   -4 -6.82961279E-03 -3.778E-06 -7.724E-06
:PTO010:     -2   -2   -4 -8.73751439E-03 -3.405E-06 -5.394E-06
:PTO011:     -3   -3   -3  2.67247925E-03  1.072E-06  1.300E-06
:PTO012:     -1   -1   -5  8.57682953E-03  3.022E-06  5.011E-06

:ENE  : ********** TOTAL ENERGY IN Ry =       -18472.12961128

