
:LABEL1: Calculations in /home/ykent/GWIEN/example/Pr/aU/V20/case
:LABEL2: on didymium-2.cmpgroup.ameslab.gov at Fri Jul 10 13:27:54 CDT 2020
:LABEL3: using WIEN2k_19.1 (Release 25/6/2019) in /home/ykent/opt/src/WIEN2k_19.1
:LABEL4: using the command: run_lapw -cc 0.0001
 Flat Integration
 New Mode for Coulomb Integral
 Consistent 3/8+Simpson combinations
 Extension of core to zero
 LDM version in phi
 Fifth-order quadrature in outwin


            ---------
:ITE001:  1. ITERATION
            ---------

:NATO :    1 INDEPENDENT AND    2 TOTAL ATOMS IN UNITCELL
       SUBSTANCE: aU                                                          

       LATTICE                      = CXY 
:POT  : POTENTIAL OPTION EX_LDA EC_LDA VX_LDA VC_LDA
:LAT  : LATTICE CONSTANTS=  6.63103 13.45604 11.61688    1.571    1.571    1.571
:VOL  : UNIT CELL VOLUME =     518.27193
       MODE OF CALCULATION IS       = RELA
       NON-SPINPOLARIZED CALCULATION
:IFFT  : FFT-parameters:   54  108   96 Factor: 2.00


   CONVERGENCE PARAMETER FOR PSEUDOCHARGE: NCON=  9
   MAXIMAL VALUE OF RMT(JATOM)*ABSK(NKK) : RK  =27.59967


:VKCOUL :  VK-COUL convergence: 0.117E-06
       ATOMNUMBER=  1 Pr1        VCOUL-ZERO = -0.52659E-02
:EFG001:                        EFG         =    -0.02332   *10**21  V / m**2
                               V20  TOT/SRF=    -0.02019    -0.02639
                               V22  TOT/SRF=     0.00371     0.00459
                               V22M TOT/SRF=     0.00000     0.00000
                               V21  TOT/SRF=     0.00000     0.00000
                               V21M TOT/SRF=     0.00000     0.00000

              0.01537    0.00000    0.00000        0.01537    0.00000    0.00000
              0.00000    0.00795    0.00000        0.00000    0.00795    0.00000
              0.00000    0.00000   -0.02332        0.00000    0.00000   -0.02332

         MAIN DIRECTIONS OF THE EFG   1.0000  0.0000  0.0000
                                      0.0000  1.0000  0.0000
                                      0.0000  0.0000  1.0000
:ANG001:  ANGLE WITH OLD X-AXIS =         0.0

:ETA001:                         ASYMM. ETA =     0.31800


     HELLMANN-FEYNMAN-FORCE IN mRy/a.u. = |F|  Fx       Fy             Fz
:FHF001:   1.ATOM    267.048338780431      0.000000000000      0.000000000000   -267.048338780431

:FIT001: LUSE= 13 SIGMA OF V-XC FIT FOR ATOM  1  0.1868294E-05
:FIT001: LUSE= 13 SIGMA OF V-XC FIT FOR ATOM  1  0.1868294E-05
:DEN  : DENSITY INTEGRAL  =        -14143.01235134   (Ry)
       ELS_POTENTIAL_AT Z=0 and Z=0.5:   0.67091   0.67091
       ELS_POTENTIAL_AT Y=0 and Y=0.5:   0.06886   0.06886
:VZERO:v0,v0c,v0x   0.11787   0.67091  -0.55304 v5,v5c,v5x   0.11787   0.67091  -0.55304
:VZERY:v0,v0c,v0x  -0.67214   0.06886  -0.74100 v5,v5c,v5x  -0.67214   0.06886  -0.74100
:VZERX:v0,v0c,v0x  -1.07143  -0.36302  -0.70841 v5,v5c,v5x  -1.07143  -0.36302  -0.70841
:LMAX-WF:   10   Non-Spherical LMAX:   4

          ATOMIC SPHERE DEPENDENT PARAMETERS FOR ATOM  Pr1       
:e__0001: OVERALL ENERGY PARAMETER IS    0.3000
          OVERALL BASIS SET ON ATOM IS LAPW
:E0_0001: E( 0)=    0.3000
             APW+lo
:E0_0001: E( 0)=   -2.1029   E(BOTTOM)=   -2.740   E(TOP)=   -1.466  4  5   175
             LOCAL ORBITAL
:E1_0001: E( 1)=    0.7000
             APW+lo
:E1_0001: E( 1)=   -0.6340   E(BOTTOM)=   -1.593   E(TOP)=    0.326  3  4   195
             LOCAL ORBITAL
:E3_0001: E( 3)=    0.5567   E(BOTTOM)=    0.347   E(TOP)=    0.766  0  1   124
             APW+lo
:E2_0001: E( 2)=    0.3000   E(BOTTOM)=    0.147   E(TOP)= -200.000  2 -1    90
             APW+lo

       K=   0.06250   0.00000   0.06250            1
:RKM  : MATRIX SIZE   473LOs:  40  RKM= 8.48  WEIGHT= 4.00  PGR:    
       EIGENVALUES ARE:
:EIG00001:      -2.0708845   -2.0602106   -0.7911751   -0.7273065   -0.7133128
:EIG00006:      -0.7089737   -0.7040134   -0.7031695    0.3285559    0.4724501
:EIG00011:       0.5664865    0.5683870    0.5694390    0.5730742    0.5748647
:EIG00016:       0.5844602    0.5888825    0.5891297    0.5919731    0.5938670
:EIG00021:       0.5976361    0.6000412    0.6016119    0.6046841    0.6333842
:EIG00026:       0.6445206    0.7115127    0.7323581    0.7452549    0.7855063
:EIG00031:       0.8015297    0.8753106    0.9203646    0.9596676    1.2246327
:EIG00036:       1.2547278    1.3430885    1.3442033    1.4935105    1.5446191
:EIG00041:       1.5919918    1.6944203    1.7624599    1.7796303    1.8660650
:EIG00046:       1.9299459    1.9397453    1.9873538
 
       ********************************************************

:KPT   :      NUMBER OF K-POINTS:   288
:GAP (global)   :    0.0    Ry =     0.0   eV (metal)
         Bandranges (emin - emax) and occupancy:
:BAN00004:   4   -0.777514   -0.727306  2.00000000
:BAN00005:   5   -0.769397   -0.713313  2.00000000
:BAN00006:   6   -0.756594   -0.705972  2.00000000
:BAN00007:   7   -0.740186   -0.703743  2.00000000
:BAN00008:   8   -0.717972   -0.700394  2.00000000
:BAN00009:   9    0.323979    0.537295  2.00000000
:BAN00010:  10    0.431046    0.550116  2.00000000
:BAN00011:  11    0.511487    0.566610  2.00000000
:BAN00012:  12    0.547755    0.571531  2.00000000
:BAN00013:  13    0.560788    0.581332  1.55584301
:BAN00014:  14    0.568012    0.585328  0.44415699
:BAN00015:  15    0.573271    0.588392  0.00000000
:BAN00016:  16    0.578218    0.588906  0.00000000
:BAN00017:  17    0.581566    0.589542  0.00000000
:BAN00018:  18    0.583548    0.590596  0.00000000
:BAN00019:  19    0.586379    0.593693  0.00000000
        Energy to separate low and high energystates:    0.27398


:NOE  : NUMBER OF ELECTRONS          =   26.000

:FER  : F E R M I - ENERGY(TETRAH.M.)=   0.5732582326
:GMA  : POTENTIAL AND CHARGE CUT-OFF  12.00 Ry**.5

:POS001: ATOM   -1 X,Y,Z = 0.00000 0.89750 0.25000  MULT= 2  ZZ= 59.000  Pr1       

       LMMAX 16
       LM=   0 0  1 0  2 0  2 2  3 0  3 2  4 0  4 2  4 4  5 0  5 2  5 4  6 0  6 2  6 4  6 6

:CHA001: TOTAL VALENCE CHARGE INSIDE SPHERE   1 =   9.3555    (RMT=  2.3000 )
:PCS001: PARTIAL CHARGES SPHERE =  1 S,P,D,F,PX,PY,PZ,D-Z2,D-X2Y2,D-XY,D-XZ,D-YZ 
:QTL001: 1.9405 5.0209 0.5201 1.8739 1.6700 1.6711 1.6797 0.0963 0.1013 0.1101 0.1004 0.1119
        Q-s-low E-s-low   Q-p-low E-p-low   Q-d-low E-d-low   Q-f-low E-f-low
:EPL001:  1.8689 -2.0605    4.9534 -0.7388    0.0011 -0.7644    0.0003 -0.7744
        Q-s-hi  E-s-hi    Q-p-hi  E-p-hi    Q-d-hi  E-d-hi    Q-f-hi  E-f-hi 
:EPH001:  0.0716  0.4655    0.0674  0.5076    0.5190  0.5246    1.8736  0.5602

                      VXX         VYY         VZZ       UP TO R
:VZZ001:            -0.01280     4.65928    -4.64648       2.300

:CHA  : TOTAL VALENCE CHARGE INSIDE UNIT CELL =      26.000000

:SUM  : SUM OF EIGENVALUES =         -11.825182092


        1.ATOM      Pr1                  14 CORE STATES
       CORE-FORCE in mRy/a.u. = |F|      Fx             Fy             Fz
:FCO001:   1.ATOM    217.842690699766      0.000000000000      0.000000000000    217.842690699766

:1S 001: 1S               -3066.995282564 Ry
:2S 001: 2S                -492.760937471 Ry
:2PP001: 2P*               -465.858579943 Ry
:2P 001: 2P                -430.461773823 Ry
:3S 001: 3S                -105.858323680 Ry
:3PP001: 3P*                -94.395751665 Ry
:3P 001: 3P                 -87.388345698 Ry
:3DD001: 3D*                -67.314741682 Ry
:3D 001: 3D                 -65.803311202 Ry
:4S 001: 4S                 -20.543080806 Ry
:4PP001: 4P*                -16.250048305 Ry
:4P 001: 4P                 -14.722995604 Ry
:4DD001: 4D*                 -7.656655576 Ry
:4D 001: 4D                  -7.387381559 Ry
:CINT001 Core Integral Atom   1   45.998479

       DENSITY AT NUCLEUS
        JATOM        VALENCE       SEMI-CORE          CORE           TOTAL
:RTO001:   1      647.067449        0.000000   656821.021101   657468.088550
     
       CHARGES OF NEW CHARGE DENSITY
:NTO   : INTERSTITIAL CHARGE =     7.288937
:NPC   : PW Pseudocharge     =    16.930432
:NTO001: CHARGE SPHERE  1    =    55.354010

:NEC01: NUCLEAR AND ELECTRONIC CHARGE    118.00000   117.99696
     
       CHARGES OF OLD CHARGE DENSITY
:OTO   : INTERSTITIAL CHARGE =     6.994478
:OPC   : PW Pseudocharge     =    15.696435
:OTO001: CHARGE SPHERE  1    =    55.503389

:NEC02: NUCLEAR AND ELECTRONIC CHARGE    118.00000   118.00126
     
       CONVERGENCE TEST
:DTO001: DIFFERENCE IN SPHERE  1 =  0.2481850

:DIS  :  CHARGE DISTANCE       ( 0.2481850 for atom    1 spin 1)      0.2481850
 PW Mixed is          533
 
******************************************************
* MULTISECANT MIXING VER9 RELEASE 10.4.0              *
* Standard Mode with controls                        *
* Fixed density scale                                *
* Regularization       1.000E-04                     *
* Trust Upper Limit    5.000E+00                     *
* Max Number of Memory Steps    8                    *
******************************************************
 
:PWTMP   4.1634E+02  1.9467E+02  5.1827E+02
:PLANE:  PW TOTAL      4.0435 DISTAN   4.87E-01  1.21E+01 %
:CHARG:  CLM/ATOM   1382.0507 DISTAN   7.08E-01  5.12E-02 %
 
Step History
        DMIX         DMIXT        Red     Pred      Trust     Lambda    MagRel    MagAbs     Beta
  1   3.5000E-02   3.5000E-02 -1.00E+00  1.00E+00 -1.00E+01  1.00E+00  3.50E-02  3.50E-02  1.00E+00
:INFO :  Note, Pratt in use
:TRUST:  Step 3.75E-02  Charge 7.50E-02 (e) CTO  2.50E-01 (e) PW  3.50E-01 (e)
:DIRM :  MEMORY  0/ 8 SCALE   1.000
Performing Pseudo Compensation
Final Pseudo Compensation Rescaling     1.00000E+00
:MIX  :   PRATT  REGULARIZATION:  1.00E-04 GREED: 0.02500                  
     
       CHARGES OF MIXED CHARGE DENSITY
:CTO   : INTERSTITIAL CHARGE =     7.000690
:CPC   : PW Pseudocharge     =    16.564071
:CTO001: CHARGE SPHERE  1    =    55.499655

:NEC03: NUCLEAR AND ELECTRONIC CHARGE    118.00000   118.00000

PW CHANGE     H    K    L      Current       Change    Residue
:PTO001:      0    0    0  4.54679483E-02  1.694E-03  2.977E-03
:PTO003:      0    2    0  1.28873925E-02  8.140E-04  1.719E-03
:PTO004:     -1    1    0  6.40914075E-02  4.379E-03  6.198E-03
:PTO005:      0    2   -1 -7.48798877E-02 -5.187E-03 -6.450E-03
:PTO006:      0    0   -2 -3.88653608E-02 -2.693E-03 -3.160E-03
:PTO007:     -1    1   -1 -8.20610678E-02 -6.174E-03 -6.871E-03
:PTO008:      0    2   -2 -1.37690402E-02 -1.275E-03 -1.599E-03
:PTO009:     -1    1   -2 -6.98350792E-02 -6.983E-03 -9.349E-03
:PTO011:     -1    3    0 -1.15481255E-02 -1.370E-03 -1.582E-03
:PTO012:     -1    3   -1 -5.26781557E-02 -6.872E-03 -9.435E-03
:PTO013:      0    4    0 -9.97829116E-03 -1.438E-03 -1.632E-03
:PTO014:      0    2   -3  2.25147770E-02  3.272E-03  4.166E-03

:ENE  : ********** TOTAL ENERGY IN Ry =       -36944.12996336

       TOTAL FORCE IN mRy/a.u. = |F|     Fx             Fy             Fz     with/without FOR in case.in2
:FOR001:   1.ATOM         49.206          0.000          0.000        -49.206 partial forces
       TOTAL FORCE WITH RESPECT TO GLOBAL CARTESIAN COORDINATES:
:FCA001:   1.ATOM                         0.000        -49.206          0.000 partial forces
       TOTAL FORCE WITH RESPECT TO THE GLOBAL COORDINATE SYSTEM:
:FGL001:   1.ATOM                 0.000000000   -49.205648081     0.000000000 partial forces
 Flat Integration
 New Mode for Coulomb Integral
 Consistent 3/8+Simpson combinations
 Extension of core to zero
 LDM version in phi
 Fifth-order quadrature in outwin


            ---------
:ITE002:  2. ITERATION
            ---------

:NATO :    1 INDEPENDENT AND    2 TOTAL ATOMS IN UNITCELL
       SUBSTANCE: aU                                                          

       LATTICE                      = CXY 
:POT  : POTENTIAL OPTION EX_LDA EC_LDA VX_LDA VC_LDA
:LAT  : LATTICE CONSTANTS=  6.63103 13.45604 11.61688    1.571    1.571    1.571
:VOL  : UNIT CELL VOLUME =     518.27193
       MODE OF CALCULATION IS       = RELA
       NON-SPINPOLARIZED CALCULATION
:IFFT  : FFT-parameters:   54  108   96 Factor: 2.00


   CONVERGENCE PARAMETER FOR PSEUDOCHARGE: NCON=  9
   MAXIMAL VALUE OF RMT(JATOM)*ABSK(NKK) : RK  =27.59967


:VKCOUL :  VK-COUL convergence: 0.680E-07
       ATOMNUMBER=  1 Pr1        VCOUL-ZERO = -0.28113E-02
:EFG001:                        EFG         =    -0.13935   *10**21  V / m**2
                               V20  TOT/SRF=    -0.12068    -0.02585
                               V22  TOT/SRF=    -0.05505     0.00390
                               V22M TOT/SRF=     0.00000     0.00000
                               V21  TOT/SRF=     0.00000     0.00000
                               V21M TOT/SRF=     0.00000     0.00000

              0.01462    0.00000    0.00000        0.01462    0.00000    0.00000
              0.00000    0.12473    0.00000        0.00000    0.12473    0.00000
              0.00000    0.00000   -0.13935        0.00000    0.00000   -0.13935

         MAIN DIRECTIONS OF THE EFG   1.0000  0.0000  0.0000
                                      0.0000  1.0000  0.0000
                                      0.0000  0.0000  1.0000
:ANG001:  ANGLE WITH OLD X-AXIS =         0.0

:ETA001:                         ASYMM. ETA =     0.79011


     HELLMANN-FEYNMAN-FORCE IN mRy/a.u. = |F|  Fx       Fy             Fz
:FHF001:   1.ATOM    273.162321450532      0.000000000000      0.000000000000   -273.162321450532

:FIT001: LUSE= 13 SIGMA OF V-XC FIT FOR ATOM  1  0.1826940E-05
:FIT001: LUSE= 13 SIGMA OF V-XC FIT FOR ATOM  1  0.1826940E-05
:DEN  : DENSITY INTEGRAL  =        -14142.54998022   (Ry)
       ELS_POTENTIAL_AT Z=0 and Z=0.5:   0.67432   0.67432
       ELS_POTENTIAL_AT Y=0 and Y=0.5:   0.07209   0.07209
:VZERO:v0,v0c,v0x   0.12097   0.67432  -0.55335 v5,v5c,v5x   0.12097   0.67432  -0.55335
:VZERY:v0,v0c,v0x  -0.67008   0.07209  -0.74217 v5,v5c,v5x  -0.67008   0.07209  -0.74217
:VZERX:v0,v0c,v0x  -1.08101  -0.36785  -0.71316 v5,v5c,v5x  -1.08101  -0.36785  -0.71316
:LMAX-WF:   10   Non-Spherical LMAX:   4

          ATOMIC SPHERE DEPENDENT PARAMETERS FOR ATOM  Pr1       
:e__0001: OVERALL ENERGY PARAMETER IS    0.3488
          OVERALL BASIS SET ON ATOM IS LAPW
:E0_0001: E( 0)=    0.3488
             APW+lo
:E0_0001: E( 0)=   -2.1030   E(BOTTOM)=   -2.740   E(TOP)=   -1.466  4  5   172
             LOCAL ORBITAL
:E1_0001: E( 1)=    0.7488
             APW+lo
:E1_0001: E( 1)=   -0.6338   E(BOTTOM)=   -1.593   E(TOP)=    0.325  3  4   197
             LOCAL ORBITAL
:E3_0001: E( 3)=    0.5546   E(BOTTOM)=    0.346   E(TOP)=    0.764  0  1   125
             APW+lo
:E2_0001: E( 2)=    0.3488   E(BOTTOM)=    0.148   E(TOP)= -200.000  2 -1    94
             APW+lo

       K=   0.06250   0.00000   0.06250            1
:RKM  : MATRIX SIZE   473LOs:  40  RKM= 8.48  WEIGHT= 4.00  PGR:    
       EIGENVALUES ARE:
:EIG00001:      -2.0708310   -2.0602018   -0.7900793   -0.7268291   -0.7128732
:EIG00006:      -0.7084564   -0.7032152   -0.7026822    0.3311429    0.4747880
:EIG00011:       0.5655806    0.5671752    0.5680046    0.5712582    0.5732734
:EIG00016:       0.5826607    0.5871351    0.5872264    0.5900161    0.5919872
:EIG00021:       0.5957648    0.5980760    0.5993839    0.6027853    0.6342110
:EIG00026:       0.6460239    0.7132732    0.7341700    0.7473216    0.7872776
:EIG00031:       0.8032331    0.8771775    0.9220410    0.9612815    1.2263962
:EIG00036:       1.2568872    1.3452355    1.3464860    1.4958624    1.5472020
:EIG00041:       1.5943338    1.6967676    1.7644656    1.7818851    1.8678146
:EIG00046:       1.9320788    1.9421277    1.9893887
 
       ********************************************************

:KPT   :      NUMBER OF K-POINTS:   288
:GAP (global)   :    0.0    Ry =     0.0   eV (metal)
         Bandranges (emin - emax) and occupancy:
:BAN00004:   4   -0.776788   -0.726829  2.00000000
:BAN00005:   5   -0.768717   -0.712873  2.00000000
:BAN00006:   6   -0.755859   -0.705467  2.00000000
:BAN00007:   7   -0.739623   -0.703215  2.00000000
:BAN00008:   8   -0.717414   -0.699916  2.00000000
:BAN00009:   9    0.326569    0.538884  2.00000000
:BAN00010:  10    0.433520    0.550761  2.00000000
:BAN00011:  11    0.513442    0.565581  2.00000000
:BAN00012:  12    0.548645    0.571083  2.00000000
:BAN00013:  13    0.560185    0.579640  1.55080979
:BAN00014:  14    0.566938    0.583608  0.44919020
:BAN00015:  15    0.572028    0.586541  0.00000000
:BAN00016:  16    0.576721    0.586881  0.00000000
:BAN00017:  17    0.580090    0.587993  0.00000000
:BAN00018:  18    0.581803    0.588942  0.00000000
:BAN00019:  19    0.584579    0.591967  0.00000000
        Energy to separate low and high energystates:    0.27657


:NOE  : NUMBER OF ELECTRONS          =   26.000

:FER  : F E R M I - ENERGY(TETRAH.M.)=   0.5719279881
:GMA  : POTENTIAL AND CHARGE CUT-OFF  12.00 Ry**.5

:POS001: ATOM   -1 X,Y,Z = 0.00000 0.89750 0.25000  MULT= 2  ZZ= 59.000  Pr1       

       LMMAX 16
       LM=   0 0  1 0  2 0  2 2  3 0  3 2  4 0  4 2  4 4  5 0  5 2  5 4  6 0  6 2  6 4  6 6

:CHA001: TOTAL VALENCE CHARGE INSIDE SPHERE   1 =   9.4133    (RMT=  2.3000 )
:PCS001: PARTIAL CHARGES SPHERE =  1 S,P,D,F,PX,PY,PZ,D-Z2,D-X2Y2,D-XY,D-XZ,D-YZ 
:QTL001: 1.9402 5.0204 0.5016 1.9511 1.6701 1.6710 1.6793 0.0923 0.0960 0.1079 0.0969 0.1085
        Q-s-low E-s-low   Q-p-low E-p-low   Q-d-low E-d-low   Q-f-low E-f-low
:EPL001:  1.8691 -2.0604    4.9555 -0.7381    0.0011 -0.7633    0.0003 -0.7733
        Q-s-hi  E-s-hi    Q-p-hi  E-p-hi    Q-d-hi  E-d-hi    Q-f-hi  E-f-hi 
:EPH001:  0.0710  0.4671    0.0648  0.5076    0.5004  0.5249    1.9508  0.5594

                      VXX         VYY         VZZ       UP TO R
:VZZ001:             0.29498     4.08152    -4.37650       2.300

:CHA  : TOTAL VALENCE CHARGE INSIDE UNIT CELL =      26.000000

:SUM  : SUM OF EIGENVALUES =         -11.809677682


        1.ATOM      Pr1                  14 CORE STATES
       CORE-FORCE in mRy/a.u. = |F|      Fx             Fy             Fz
:FCO001:   1.ATOM    230.032617026491      0.000000000000      0.000000000000    230.032617026491

:1S 001: 1S               -3067.002204735 Ry
:2S 001: 2S                -492.767421735 Ry
:2PP001: 2P*               -465.865127460 Ry
:2P 001: 2P                -430.468294279 Ry
:3S 001: 3S                -105.864217152 Ry
:3PP001: 3P*                -94.401684043 Ry
:3P 001: 3P                 -87.394225875 Ry
:3DD001: 3D*                -67.320723976 Ry
:3D 001: 3D                 -65.809278511 Ry
:4S 001: 4S                 -20.547090730 Ry
:4PP001: 4P*                -16.253956805 Ry
:4P 001: 4P                 -14.726741998 Ry
:4DD001: 4D*                 -7.660115644 Ry
:4D 001: 4D                  -7.390786097 Ry
:CINT001 Core Integral Atom   1   45.998484

       DENSITY AT NUCLEUS
        JATOM        VALENCE       SEMI-CORE          CORE           TOTAL
:RTO001:   1      647.149950        0.000000   656821.484630   657468.634580
     
       CHARGES OF NEW CHARGE DENSITY
:NTO   : INTERSTITIAL CHARGE =     7.173361
:NPC   : PW Pseudocharge     =    16.899692
:NTO001: CHARGE SPHERE  1    =    55.411803

:NEC01: NUCLEAR AND ELECTRONIC CHARGE    118.00000   117.99697
     
       CHARGES OF OLD CHARGE DENSITY
:OTO   : INTERSTITIAL CHARGE =     7.000689
:OPC   : PW Pseudocharge     =    16.564073
:OTO001: CHARGE SPHERE  1    =    55.499655

:NEC02: NUCLEAR AND ELECTRONIC CHARGE    118.00000   118.00000
     
       CONVERGENCE TEST
:DTO001: DIFFERENCE IN SPHERE  1 =  0.1609243

:DIS  :  CHARGE DISTANCE       ( 0.1609243 for atom    1 spin 1)      0.1609243
 PW Mixed is          533
 
******************************************************
* MULTISECANT MIXING VER9 RELEASE 10.4.0              *
* Slow Mode, cautious                                *
* Fixed density scale                                *
* Regularization       1.000E-04                     *
* Step Trust Radius    0.75000                       *
* Trust Upper Limit    2.000E+00                     *
* Max Number of Memory Steps   12                    *
******************************************************
 
:PWTMP   4.1634E+02  1.9467E+02  5.1827E+02
:PLANE:  PW TOTAL      4.3649 DISTAN   1.22E-01  2.79E+00 %
:CHARG:  CLM/ATOM   1382.0471 DISTAN   6.51E-01  4.71E-02 %
 
Step History
        DMIX         DMIXT        Red     Pred      Trust     Lambda    MagRel    MagAbs     Beta
  1   3.5000E-02   3.5000E-02 -1.00E+00  1.00E+00 -1.00E+01  1.00E+00  3.50E-02  3.50E-02  1.00E+00
  2   2.5000E-02   2.5000E-02 -1.00E+00  1.00E+00 -1.00E+01  1.00E+00  2.50E-02  2.15E-02  1.00E+00
:JACOBIANS    4.374E-01   4.182E-03
  
:TRUST:  Step 2.87E-02  Charge 7.50E-02 (e) CTO  2.50E-01 (e) PW  3.50E-01 (e)
:DIRM :  MEMORY  1/12 SCALE   1.000
:MIX  :   PRATT  REGULARIZATION:  1.00E-04 GREED: 0.02867  Expand 1.15  0.0287                
     
       CHARGES OF MIXED CHARGE DENSITY
:CTO   : INTERSTITIAL CHARGE =     7.003293
:CPC   : PW Pseudocharge     =    16.867413
:CTO001: CHARGE SPHERE  1    =    55.498354

:NEC03: NUCLEAR AND ELECTRONIC CHARGE    118.00000   118.00000

PW CHANGE     H    K    L      Current       Change    Residue
:PTO001:      0    0    0  4.60582635E-02  5.903E-04  1.000E-03
:PTO003:      0    2    0  1.31710520E-02  2.837E-04  8.431E-04
:PTO004:     -1    1    0  6.56172709E-02  1.526E-03  1.734E-03
:PTO005:      0    2   -1 -7.66874568E-02 -1.808E-03 -1.271E-03
:PTO006:      0    0   -2 -3.98038478E-02 -9.385E-04 -4.772E-04
:PTO007:     -1    1   -1 -8.42126035E-02 -2.152E-03 -7.517E-04
:PTO008:      0    2   -2 -1.42132514E-02 -4.442E-04 -3.146E-04
:PTO009:     -1    1   -2 -7.22683742E-02 -2.433E-03 -2.426E-03
:PTO011:     -1    3    0 -1.20255518E-02 -4.774E-04 -2.332E-04
:PTO012:     -1    3   -1 -5.50728449E-02 -2.395E-03 -2.549E-03
:PTO013:      0    4    0 -1.04794232E-02 -5.011E-04 -2.065E-04
:PTO014:      0    2   -3  2.36548862E-02  1.140E-03  9.084E-04

:ENE  : ********** TOTAL ENERGY IN Ry =       -36944.12805801

       TOTAL FORCE IN mRy/a.u. = |F|     Fx             Fy             Fz     with/without FOR in case.in2
:FOR001:   1.ATOM         43.130          0.000          0.000        -43.130 partial forces
       TOTAL FORCE WITH RESPECT TO GLOBAL CARTESIAN COORDINATES:
:FCA001:   1.ATOM                         0.000        -43.130          0.000 partial forces
       TOTAL FORCE WITH RESPECT TO THE GLOBAL COORDINATE SYSTEM:
:FGL001:   1.ATOM                 0.000000000   -43.129704424     0.000000000 partial forces
 Flat Integration
 New Mode for Coulomb Integral
 Consistent 3/8+Simpson combinations
 Extension of core to zero
 LDM version in phi
 Fifth-order quadrature in outwin


            ---------
:ITE003:  3. ITERATION
            ---------

:NATO :    1 INDEPENDENT AND    2 TOTAL ATOMS IN UNITCELL
       SUBSTANCE: aU                                                          

       LATTICE                      = CXY 
:POT  : POTENTIAL OPTION EX_LDA EC_LDA VX_LDA VC_LDA
:LAT  : LATTICE CONSTANTS=  6.63103 13.45604 11.61688    1.571    1.571    1.571
:VOL  : UNIT CELL VOLUME =     518.27193
       MODE OF CALCULATION IS       = RELA
       NON-SPINPOLARIZED CALCULATION
:IFFT  : FFT-parameters:   54  108   96 Factor: 2.00


   CONVERGENCE PARAMETER FOR PSEUDOCHARGE: NCON=  9
   MAXIMAL VALUE OF RMT(JATOM)*ABSK(NKK) : RK  =27.59967


:VKCOUL :  VK-COUL convergence: 0.684E-07
       ATOMNUMBER=  1 Pr1        VCOUL-ZERO = -0.19614E-02
:EFG001:                        EFG         =    -0.17979   *10**21  V / m**2
                               V20  TOT/SRF=    -0.15570    -0.02567
                               V22  TOT/SRF=    -0.07553     0.00366
                               V22M TOT/SRF=     0.00000     0.00000
                               V21  TOT/SRF=     0.00000     0.00000
                               V21M TOT/SRF=     0.00000     0.00000

              0.01437    0.00000    0.00000        0.01437    0.00000    0.00000
              0.00000    0.16542    0.00000        0.00000    0.16542    0.00000
              0.00000    0.00000   -0.17979        0.00000    0.00000   -0.17979

         MAIN DIRECTIONS OF THE EFG   1.0000  0.0000  0.0000
                                      0.0000  1.0000  0.0000
                                      0.0000  0.0000  1.0000
:ANG001:  ANGLE WITH OLD X-AXIS =         0.0

:ETA001:                         ASYMM. ETA =     0.84017


     HELLMANN-FEYNMAN-FORCE IN mRy/a.u. = |F|  Fx       Fy             Fz
:FHF001:   1.ATOM    275.243628496380      0.000000000000      0.000000000000   -275.243628496380

:FIT001: LUSE= 13 SIGMA OF V-XC FIT FOR ATOM  1  0.1833744E-05
:FIT001: LUSE= 13 SIGMA OF V-XC FIT FOR ATOM  1  0.1833744E-05
:DEN  : DENSITY INTEGRAL  =        -14142.38850971   (Ry)
       ELS_POTENTIAL_AT Z=0 and Z=0.5:   0.67555   0.67555
       ELS_POTENTIAL_AT Y=0 and Y=0.5:   0.07322   0.07322
:VZERO:v0,v0c,v0x   0.12210   0.67555  -0.55345 v5,v5c,v5x   0.12210   0.67555  -0.55345
:VZERY:v0,v0c,v0x  -0.66936   0.07322  -0.74258 v5,v5c,v5x  -0.66936   0.07322  -0.74258
:VZERX:v0,v0c,v0x  -1.08432  -0.36956  -0.71476 v5,v5c,v5x  -1.08432  -0.36956  -0.71476
:LMAX-WF:   10   Non-Spherical LMAX:   4

          ATOMIC SPHERE DEPENDENT PARAMETERS FOR ATOM  Pr1       
:e__0001: OVERALL ENERGY PARAMETER IS    0.3642
          OVERALL BASIS SET ON ATOM IS LAPW
:E0_0001: E( 0)=    0.3642
             APW+lo
:E0_0001: E( 0)=   -2.1030   E(BOTTOM)=   -2.739   E(TOP)=   -1.467  4  5   167
             LOCAL ORBITAL
:E1_0001: E( 1)=    0.7642
             APW+lo
:E1_0001: E( 1)=   -0.6337   E(BOTTOM)=   -1.592   E(TOP)=    0.325  3  4   198
             LOCAL ORBITAL
:E3_0001: E( 3)=    0.5539   E(BOTTOM)=    0.345   E(TOP)=    0.763  0  1   119
             APW+lo
:E2_0001: E( 2)=    0.3642   E(BOTTOM)=    0.148   E(TOP)= -200.000  2 -1    90
             APW+lo

       K=   0.06250   0.00000   0.06250            1
:RKM  : MATRIX SIZE   473LOs:  40  RKM= 8.48  WEIGHT= 4.00  PGR:    
       EIGENVALUES ARE:
:EIG00001:      -2.0708139   -2.0602005   -0.7896938   -0.7266602   -0.7127177
:EIG00006:      -0.7082743   -0.7029355   -0.7025108    0.3320702    0.4756229
:EIG00011:       0.5652278    0.5667403    0.5675006    0.5706243    0.5727256
:EIG00016:       0.5820300    0.5865183    0.5865576    0.5893323    0.5913267
:EIG00021:       0.5950982    0.5973839    0.5985975    0.6021210    0.6345377
:EIG00026:       0.6465786    0.7139135    0.7348201    0.7480579    0.7879126
:EIG00031:       0.8038436    0.8778446    0.9226400    0.9618579    1.2270287
:EIG00036:       1.2576669    1.3460112    1.3473103    1.4967090    1.5481303
:EIG00041:       1.5951739    1.6976107    1.7651910    1.7826973    1.8684562
:EIG00046:       1.9328514    1.9429874    1.9901230    2.0523822
 
       ********************************************************

:KPT   :      NUMBER OF K-POINTS:   288
:GAP (global)   :    0.0    Ry =     0.0   eV (metal)
         Bandranges (emin - emax) and occupancy:
:BAN00004:   4   -0.776532   -0.726660  2.00000000
:BAN00005:   5   -0.768476   -0.712718  2.00000000
:BAN00006:   6   -0.755601   -0.705289  2.00000000
:BAN00007:   7   -0.739423   -0.702935  2.00000000
:BAN00008:   8   -0.717209   -0.699748  2.00000000
:BAN00009:   9    0.327498    0.539428  2.00000000
:BAN00010:  10    0.434406    0.550956  2.00000000
:BAN00011:  11    0.514134    0.565228  2.00000000
:BAN00012:  12    0.548935    0.570820  2.00000000
:BAN00013:  13    0.559958    0.579045  1.54912676
:BAN00014:  14    0.566567    0.583027  0.45087323
:BAN00015:  15    0.571555    0.585871  0.00000000
:BAN00016:  16    0.576191    0.586165  0.00000000
:BAN00017:  17    0.579570    0.587437  0.00000000
:BAN00018:  18    0.581190    0.588361  0.00000000
:BAN00019:  19    0.583955    0.591361  0.00000000
        Energy to separate low and high energystates:    0.27750


:NOE  : NUMBER OF ELECTRONS          =   26.000

:FER  : F E R M I - ENERGY(TETRAH.M.)=   0.5714486345
:GMA  : POTENTIAL AND CHARGE CUT-OFF  12.00 Ry**.5

:POS001: ATOM   -1 X,Y,Z = 0.00000 0.89750 0.25000  MULT= 2  ZZ= 59.000  Pr1       

       LMMAX 16
       LM=   0 0  1 0  2 0  2 2  3 0  3 2  4 0  4 2  4 4  5 0  5 2  5 4  6 0  6 2  6 4  6 6

:CHA001: TOTAL VALENCE CHARGE INSIDE SPHERE   1 =   9.4341    (RMT=  2.3000 )
:PCS001: PARTIAL CHARGES SPHERE =  1 S,P,D,F,PX,PY,PZ,D-Z2,D-X2Y2,D-XY,D-XZ,D-YZ 
:QTL001: 1.9400 5.0202 0.4950 1.9788 1.6701 1.6710 1.6791 0.0908 0.0942 0.1071 0.0956 0.1072
        Q-s-low E-s-low   Q-p-low E-p-low   Q-d-low E-d-low   Q-f-low E-f-low
:EPL001:  1.8692 -2.0604    4.9563 -0.7379    0.0011 -0.7630    0.0003 -0.7729
        Q-s-hi  E-s-hi    Q-p-hi  E-p-hi    Q-d-hi  E-d-hi    Q-f-hi  E-f-hi 
:EPH001:  0.0708  0.4677    0.0639  0.5076    0.4939  0.5249    1.9785  0.5591

                      VXX         VYY         VZZ       UP TO R
:VZZ001:             0.43908     3.82733    -4.26641       2.300

:CHA  : TOTAL VALENCE CHARGE INSIDE UNIT CELL =      26.000000

:SUM  : SUM OF EIGENVALUES =         -11.804303357


        1.ATOM      Pr1                  14 CORE STATES
       CORE-FORCE in mRy/a.u. = |F|      Fx             Fy             Fz
:FCO001:   1.ATOM    234.242699327273      0.000000000000      0.000000000000    234.242699327273

:1S 001: 1S               -3067.004622396 Ry
:2S 001: 2S                -492.769686795 Ry
:2PP001: 2P*               -465.867414562 Ry
:2P 001: 2P                -430.470571952 Ry
:3S 001: 3S                -105.866276332 Ry
:3PP001: 3P*                -94.403756781 Ry
:3P 001: 3P                 -87.396280422 Ry
:3DD001: 3D*                -67.322814111 Ry
:3D 001: 3D                 -65.811363423 Ry
:4S 001: 4S                 -20.548493549 Ry
:4PP001: 4P*                -16.255324289 Ry
:4P 001: 4P                 -14.728052996 Ry
:4DD001: 4D*                 -7.661326904 Ry
:4D 001: 4D                  -7.391978010 Ry
:CINT001 Core Integral Atom   1   45.998485

       DENSITY AT NUCLEUS
        JATOM        VALENCE       SEMI-CORE          CORE           TOTAL
:RTO001:   1      647.176689        0.000000   656821.646154   657468.822843
     
       CHARGES OF NEW CHARGE DENSITY
:NTO   : INTERSTITIAL CHARGE =     7.131744
:NPC   : PW Pseudocharge     =    16.888869
:NTO001: CHARGE SPHERE  1    =    55.432613

:NEC01: NUCLEAR AND ELECTRONIC CHARGE    118.00000   117.99697
     
       CHARGES OF OLD CHARGE DENSITY
:OTO   : INTERSTITIAL CHARGE =     7.003293
:OPC   : PW Pseudocharge     =    16.867413
:OTO001: CHARGE SPHERE  1    =    55.498354

:NEC02: NUCLEAR AND ELECTRONIC CHARGE    118.00000   118.00000
     
       CONVERGENCE TEST
:DTO001: DIFFERENCE IN SPHERE  1 =  0.1338814

:DIS  :  CHARGE DISTANCE       ( 0.1338814 for atom    1 spin 1)      0.1338814
 PW Mixed is          533
 
******************************************************
* MULTISECANT MIXING VER9 RELEASE 10.4.0              *
* Slow Mode, cautious                                *
* Fixed density scale                                *
* Regularization       1.000E-04                     *
* Step Trust Radius    0.75000                       *
* Trust Upper Limit    2.000E+00                     *
* Max Number of Memory Steps   12                    *
******************************************************
 
:PWTMP   4.1634E+02  1.9467E+02  5.1827E+02
:PLANE:  PW TOTAL      4.4796 DISTAN   1.02E-01  2.29E+00 %
:CHARG:  CLM/ATOM   1382.0458 DISTAN   6.37E-01  4.61E-02 %
 
Step History
        DMIX         DMIXT        Red     Pred      Trust     Lambda    MagRel    MagAbs     Beta
  1   3.5000E-02   3.5000E-02 -1.00E+00  1.00E+00 -1.00E+01  1.00E+00  3.50E-02  3.50E-02  1.00E+00
  2   2.5000E-02   2.5000E-02  7.70E-01  1.00E+00 -1.00E+01  1.00E+00  2.50E-02  2.15E-02  1.00E+00
  3   2.8666E-02   2.8666E-02 -1.00E+00  1.00E+00 -1.00E+01  1.00E+00  2.87E-02  1.90E-02  1.00E+00
:JACOBIANS    6.579E-01   6.191E-03
  
:NORMS:  1/Froebius, Min, Max, Used   0.9308E+00  0.4576E+00  0.9308E+00  0.9308E+00
:INFO :  Number of Memory Steps    2 Skipping    0
:INFO :  SLambda=    0.0885725374  Max    0.0885725374
:PREDicted Charge, CTotal, PW Trust    1.271E-03   2.542E-03   1.122E-01
:PREDicted DMix, Beta, BLim   3.0167E-02  9.3745E-01  3.0639E-01

Eigenvalues, unscaled except for SY+YY
   #     SY Real        SY Imag          SS             YY         SY+YY Real      SY+YY Imag
   1   1.754949E+00   0.000000E+00   1.732799E+00   1.999902E+00   2.155342E+00   0.000000E+00
   2   3.108624E-15   0.000000E+00  -1.110223E-16   9.784201E-05   9.814498E-05   0.000000E+00
 
:INFO :  Singular value  2.155E+00 Weight  1.000E+00 Projection  3.018E-04
:INFO :  Singular value  9.814E-05 Weight  1.941E-01 Projection -3.791E+00
:RANK :  ACTIVE   1.19/2  =  59.70 % ; YY RANK   1.19/2  =  59.66 %
 
:DLIM :  Beta Active  9.531E-01
:BLIM :  VZERO Control Off
:TRUST:  Step 1.90E-01  Charge 7.50E-02 (e) CTO  2.50E-01 (e) PW  3.50E-01 (e)
:DIRM :  MEMORY  2/12 SCALE   1.000 RED  0.97 PRED  1.00 NEXT  0.98 BETA  0.95
:TRAVE:  Charge 1.66E-03 (e) CTO  3.31E-03 (e) PW  3.89E-03 (e)
:DIRP :  |MSR1|= 8.524E-03 |PRATT|= 1.025E-01 ANGLE=  40.4 DEGREES
:DIRQ :  |MSR1|= 1.837E-02 |PRATT|= 6.367E-01 ANGLE=   3.4 DEGREES
:DIRT :  |MSR1|= 2.025E-02 |PRATT|= 6.449E-01 ANGLE=  19.1 DEGREES
:MIX  :   MSD1   REGULARIZATION:  2.00E-04 GREED: 0.02975  Newton 1.00  0.0314                
     
       CHARGES OF MIXED CHARGE DENSITY
:CTO   : INTERSTITIAL CHARGE =     7.006604
:CPC   : PW Pseudocharge     =    16.853735
:CTO001: CHARGE SPHERE  1    =    55.496698

:NEC03: NUCLEAR AND ELECTRONIC CHARGE    118.00000   118.00000

PW CHANGE     H    K    L      Current       Change    Residue
:PTO001:      0    0    0  4.60382607E-02 -2.000E-05  3.089E-04
:PTO003:      0    2    0  1.31742078E-02  3.156E-06  5.397E-04
:PTO004:     -1    1    0  6.55493868E-02 -6.788E-05  1.781E-04
:PTO005:      0    2   -1 -7.65864739E-02  1.010E-04  5.313E-04
:PTO006:      0    0   -2 -3.97459414E-02  5.791E-05  4.563E-04
:PTO007:     -1    1   -1 -8.40690763E-02  1.435E-04  1.380E-03
:PTO008:      0    2   -2 -1.41884601E-02  2.479E-05  1.322E-04
:PTO009:     -1    1   -2 -7.21520638E-02  1.163E-04 -1.321E-05
:PTO011:     -1    3    0 -1.19952611E-02  3.029E-05  2.378E-04
:PTO012:     -1    3   -1 -5.49624796E-02  1.104E-04 -1.487E-04
:PTO013:      0    4    0 -1.04470810E-02  3.234E-05  2.895E-04
:PTO014:      0    2   -3  2.35943109E-02 -6.058E-05 -2.252E-04

:ENE  : ********** TOTAL ENERGY IN Ry =       -36944.12758016

       TOTAL FORCE IN mRy/a.u. = |F|     Fx             Fy             Fz     with/without FOR in case.in2
:FOR001:   1.ATOM         41.001          0.000          0.000        -41.001 partial forces
       TOTAL FORCE WITH RESPECT TO GLOBAL CARTESIAN COORDINATES:
:FCA001:   1.ATOM                         0.000        -41.001          0.000 partial forces
       TOTAL FORCE WITH RESPECT TO THE GLOBAL COORDINATE SYSTEM:
:FGL001:   1.ATOM                 0.000000000   -41.000929169     0.000000000 partial forces
 Flat Integration
 New Mode for Coulomb Integral
 Consistent 3/8+Simpson combinations
 Extension of core to zero
 LDM version in phi
 Fifth-order quadrature in outwin


            ---------
:ITE004:  4. ITERATION
            ---------

:NATO :    1 INDEPENDENT AND    2 TOTAL ATOMS IN UNITCELL
       SUBSTANCE: aU                                                          

       LATTICE                      = CXY 
:POT  : POTENTIAL OPTION EX_LDA EC_LDA VX_LDA VC_LDA
:LAT  : LATTICE CONSTANTS=  6.63103 13.45604 11.61688    1.571    1.571    1.571
:VOL  : UNIT CELL VOLUME =     518.27193
       MODE OF CALCULATION IS       = RELA
       NON-SPINPOLARIZED CALCULATION
:IFFT  : FFT-parameters:   54  108   96 Factor: 2.00


   CONVERGENCE PARAMETER FOR PSEUDOCHARGE: NCON=  9
   MAXIMAL VALUE OF RMT(JATOM)*ABSK(NKK) : RK  =27.59967


:VKCOUL :  VK-COUL convergence: 0.669E-07
       ATOMNUMBER=  1 Pr1        VCOUL-ZERO = -0.21450E-02
:EFG001:                        EFG         =    -0.29368   *10**21  V / m**2
                               V20  TOT/SRF=    -0.25434    -0.02504
                               V22  TOT/SRF=    -0.10515     0.00314
                               V22M TOT/SRF=     0.00000     0.00000
                               V21  TOT/SRF=     0.00000     0.00000
                               V21M TOT/SRF=     0.00000     0.00000

              0.04169    0.00000    0.00000        0.04169    0.00000    0.00000
              0.00000    0.25199    0.00000        0.00000    0.25199    0.00000
              0.00000    0.00000   -0.29368        0.00000    0.00000   -0.29368

         MAIN DIRECTIONS OF THE EFG   1.0000  0.0000  0.0000
                                      0.0000  1.0000  0.0000
                                      0.0000  0.0000  1.0000
:ANG001:  ANGLE WITH OLD X-AXIS =         0.0

:ETA001:                         ASYMM. ETA =     0.71607


     HELLMANN-FEYNMAN-FORCE IN mRy/a.u. = |F|  Fx       Fy             Fz
:FHF001:   1.ATOM    285.500667189530      0.000000000000      0.000000000000   -285.500667189530

:FIT001: LUSE= 13 SIGMA OF V-XC FIT FOR ATOM  1  0.1922728E-05
:FIT001: LUSE= 13 SIGMA OF V-XC FIT FOR ATOM  1  0.1922728E-05
:DEN  : DENSITY INTEGRAL  =        -14142.02057363   (Ry)
       ELS_POTENTIAL_AT Z=0 and Z=0.5:   0.67601   0.67601
       ELS_POTENTIAL_AT Y=0 and Y=0.5:   0.07384   0.07384
:VZERO:v0,v0c,v0x   0.12238   0.67601  -0.55363 v5,v5c,v5x   0.12238   0.67601  -0.55363
:VZERY:v0,v0c,v0x  -0.66894   0.07384  -0.74278 v5,v5c,v5x  -0.66894   0.07384  -0.74278
:VZERX:v0,v0c,v0x  -1.08439  -0.36956  -0.71483 v5,v5c,v5x  -1.08439  -0.36956  -0.71483
:LMAX-WF:   10   Non-Spherical LMAX:   4

          ATOMIC SPHERE DEPENDENT PARAMETERS FOR ATOM  Pr1       
:e__0001: OVERALL ENERGY PARAMETER IS    0.3690
          OVERALL BASIS SET ON ATOM IS LAPW
:E0_0001: E( 0)=    0.3690
             APW+lo
:E0_0001: E( 0)=   -2.1044   E(BOTTOM)=   -2.741   E(TOP)=   -1.468  4  5   178
             LOCAL ORBITAL
:E1_0001: E( 1)=    0.7690
             APW+lo
:E1_0001: E( 1)=   -0.6350   E(BOTTOM)=   -1.593   E(TOP)=    0.323  3  4   195
             LOCAL ORBITAL
:E3_0001: E( 3)=    0.5517   E(BOTTOM)=    0.343   E(TOP)=    0.760  0  1   125
             APW+lo
:E2_0001: E( 2)=    0.3690   E(BOTTOM)=    0.147   E(TOP)= -200.000  2 -1    93
             APW+lo

       K=   0.06250   0.00000   0.06250            1
:RKM  : MATRIX SIZE   473LOs:  40  RKM= 8.48  WEIGHT= 4.00  PGR:    
       EIGENVALUES ARE:
:EIG00001:      -2.0721104   -2.0615234   -0.7903966   -0.7278692   -0.7139436
:EIG00006:      -0.7093303   -0.7038069   -0.7035867    0.3320161    0.4754107
:EIG00011:       0.5635462    0.5650033    0.5656051    0.5684555    0.5707190
:EIG00016:       0.5800053    0.5844008    0.5845129    0.5871621    0.5891232
:EIG00021:       0.5929607    0.5951878    0.5961709    0.5999983    0.6337028
:EIG00026:       0.6460391    0.7134937    0.7343449    0.7477980    0.7874100
:EIG00031:       0.8033138    0.8774869    0.9221590    0.9613456    1.2266003
:EIG00036:       1.2573834    1.3457258    1.3470850    1.4965260    1.5481640
:EIG00041:       1.5950487    1.6975053    1.7648285    1.7825670    1.8680689
:EIG00046:       1.9326382    1.9428834    1.9897912    2.0521960
 
       ********************************************************

:KPT   :      NUMBER OF K-POINTS:   288
:GAP (global)   :    0.0    Ry =     0.0   eV (metal)
         Bandranges (emin - emax) and occupancy:
:BAN00004:   4   -0.777497   -0.727869  2.00000000
:BAN00005:   5   -0.769459   -0.713944  2.00000000
:BAN00006:   6   -0.756600   -0.706351  2.00000000
:BAN00007:   7   -0.740564   -0.703807  2.00000000
:BAN00008:   8   -0.718226   -0.700828  2.00000000
:BAN00009:   9    0.327445    0.538904  2.00000000
:BAN00010:  10    0.434284    0.549948  2.00000000
:BAN00011:  11    0.513712    0.563546  2.00000000
:BAN00012:  12    0.548059    0.569151  2.00000000
:BAN00013:  13    0.558335    0.577029  1.54496339
:BAN00014:  14    0.564888    0.580979  0.45503661
:BAN00015:  15    0.569740    0.583624  0.00000000
:BAN00016:  16    0.574247    0.583879  0.00000000
:BAN00017:  17    0.577668    0.585491  0.00000000
:BAN00018:  18    0.579163    0.586344  0.00000000
:BAN00019:  19    0.581860    0.589272  0.00000000
        Energy to separate low and high energystates:    0.27744


:NOE  : NUMBER OF ELECTRONS          =   26.000

:FER  : F E R M I - ENERGY(TETRAH.M.)=   0.5695488558
:GMA  : POTENTIAL AND CHARGE CUT-OFF  12.00 Ry**.5

:POS001: ATOM   -1 X,Y,Z = 0.00000 0.89750 0.25000  MULT= 2  ZZ= 59.000  Pr1       

       LMMAX 16
       LM=   0 0  1 0  2 0  2 2  3 0  3 2  4 0  4 2  4 4  5 0  5 2  5 4  6 0  6 2  6 4  6 6

:CHA001: TOTAL VALENCE CHARGE INSIDE SPHERE   1 =   9.4607    (RMT=  2.3000 )
:PCS001: PARTIAL CHARGES SPHERE =  1 S,P,D,F,PX,PY,PZ,D-Z2,D-X2Y2,D-XY,D-XZ,D-YZ 
:QTL001: 1.9399 5.0201 0.4863 2.0142 1.6702 1.6709 1.6790 0.0891 0.0916 0.1060 0.0939 0.1056
        Q-s-low E-s-low   Q-p-low E-p-low   Q-d-low E-d-low   Q-f-low E-f-low
:EPL001:  1.8693 -2.0618    4.9574 -0.7389    0.0011 -0.7635    0.0003 -0.7735
        Q-s-hi  E-s-hi    Q-p-hi  E-p-hi    Q-d-hi  E-d-hi    Q-f-hi  E-f-hi 
:EPH001:  0.0705  0.4672    0.0628  0.5063    0.4852  0.5238    2.0139  0.5575

                      VXX         VYY         VZZ       UP TO R
:VZZ001:             1.03508     3.54417    -4.57925       2.300

:CHA  : TOTAL VALENCE CHARGE INSIDE UNIT CELL =      26.000000

:SUM  : SUM OF EIGENVALUES =         -11.831014058


        1.ATOM      Pr1                  14 CORE STATES
       CORE-FORCE in mRy/a.u. = |F|      Fx             Fy             Fz
:FCO001:   1.ATOM    250.646785736163      0.000000000000      0.000000000000    250.646785736163

:1S 001: 1S               -3067.009564247 Ry
:2S 001: 2S                -492.774152482 Ry
:2PP001: 2P*               -465.871947552 Ry
:2P 001: 2P                -430.475076076 Ry
:3S 001: 3S                -105.870255748 Ry
:3PP001: 3P*                -94.407765276 Ry
:3P 001: 3P                 -87.400254926 Ry
:3DD001: 3D*                -67.326855969 Ry
:3D 001: 3D                 -65.815394835 Ry
:4S 001: 4S                 -20.551554899 Ry
:4PP001: 4P*                -16.258344971 Ry
:4P 001: 4P                 -14.731005656 Ry
:4DD001: 4D*                 -7.664159734 Ry
:4D 001: 4D                  -7.394787419 Ry
:CINT001 Core Integral Atom   1   45.998487

       DENSITY AT NUCLEUS
        JATOM        VALENCE       SEMI-CORE          CORE           TOTAL
:RTO001:   1      647.209458        0.000000   656821.914940   657469.124398
     
       CHARGES OF NEW CHARGE DENSITY
:NTO   : INTERSTITIAL CHARGE =     7.078596
:NPC   : PW Pseudocharge     =    16.874916
:NTO001: CHARGE SPHERE  1    =    55.459189

:NEC01: NUCLEAR AND ELECTRONIC CHARGE    118.00000   117.99697
     
       CHARGES OF OLD CHARGE DENSITY
:OTO   : INTERSTITIAL CHARGE =     7.006604
:OPC   : PW Pseudocharge     =    16.853735
:OTO001: CHARGE SPHERE  1    =    55.496698

:NEC02: NUCLEAR AND ELECTRONIC CHARGE    118.00000   118.00000
     
       CONVERGENCE TEST
:DTO001: DIFFERENCE IN SPHERE  1 =  0.1052510

:DIS  :  CHARGE DISTANCE       ( 0.1052510 for atom    1 spin 1)      0.1052510
 PW Mixed is          533
 
******************************************************
* MULTISECANT MIXING VER9 RELEASE 10.4.0              *
* Slow Mode, cautious                                *
* Fixed density scale                                *
* Regularization       1.000E-04                     *
* Step Trust Radius    0.75000                       *
* Trust Upper Limit    2.000E+00                     *
* Max Number of Memory Steps   12                    *
******************************************************
 
:PWTMP   4.1634E+02  1.9467E+02  5.1827E+02
:PLANE:  PW TOTAL      4.4735 DISTAN   9.41E-02  2.10E+00 %
:CHARG:  CLM/ATOM   1382.0422 DISTAN   6.09E-01  4.41E-02 %
 
Step History
        DMIX         DMIXT        Red     Pred      Trust     Lambda    MagRel    MagAbs     Beta
  1   3.5000E-02   3.5000E-02 -1.00E+00  1.00E+00 -1.00E+01  1.00E+00  3.50E-02  3.50E-02  1.00E+00
  2   2.5000E-02   2.5000E-02  7.70E-01  1.00E+00 -1.00E+01  1.00E+00  2.50E-02  2.15E-02  1.00E+00
  3   2.8666E-02   2.8666E-02  9.74E-01  1.00E+00 -1.00E+01  8.86E-02  2.87E-02  1.90E-02  1.00E+00
  4   2.9750E-02   2.9750E-02 -1.00E+00  9.85E-01  1.90E-01  1.00E+00  3.14E-02  2.02E-02  9.53E-01
:JACOBIANS    8.225E-01   5.323E-02
  
:NORMS:  1/Froebius, Min, Max, Used   0.6797E+00  0.3637E+00  0.9880E+00  0.7535E+00
:INFO :  Number of Memory Steps    3 Skipping    0
:INFO :  SLambda=    1.3383653675  Max    1.3383653675
:PREDicted Charge, CTotal, PW Trust    9.886E-03   1.977E-02   6.177E-02
:PREDicted DMix, Beta, BLim   1.1567E-01  3.4641E+00  2.2990E-01

Eigenvalues, unscaled except for SY+YY
   #     SY Real        SY Imag          SS             YY         SY+YY Real      SY+YY Imag
   1   1.348586E+00   0.000000E+00   1.313964E+00   2.314529E+00   3.884485E+00   0.000000E+00
   2  -3.554775E-15   0.000000E+00   7.203752E-02   6.854261E-01   4.471001E-05   0.000000E+00
   3   1.147002E-01   0.000000E+00   3.253392E-17   4.449152E-05   1.073882E+00   0.000000E+00
 
:INFO :  Singular value  3.885E+00 Weight  1.000E+00 Projection -4.871E-02
:INFO :  Singular value  1.074E+00 Weight  1.000E+00 Projection -3.734E-01
:INFO :  Singular value  4.471E-05 Weight  3.597E-02 Projection  5.882E-01
:RANK :  ACTIVE   2.04/3  =  67.87 % ; YY RANK   2.04/3  =  67.85 %
 
:BLIM :  VZERO Control Off
:TRUST:  Step 1.94E-01  Charge 7.50E-02 (e) CTO  2.50E-01 (e) PW  3.50E-01 (e)
:DTRUS:  Lambda    3.491E-01 Increment    7.276E-12 Iterations    98 DMIX    5.517E-02
:INFOA:  Angle SubSpace to MSR1     12.73
:DIRM :  MEMORY  3/12 SCALE   1.000 RED  0.96 PRED  0.98 NEXT  0.96 
:INFO :  Limited by Atoms F by Step T

:TRAVE:  Charge 1.92E-03 (e) CTO  3.83E-03 (e) PW  1.38E-02 (e)
:DIRP :  |MSR1|= 4.343E-02 |PRATT|= 9.410E-02 ANGLE=  39.9 DEGREES
:DIRQ :  |MSR1|= 1.115E-01 |PRATT|= 6.088E-01 ANGLE=   6.6 DEGREES
:DIRT :  |MSR1|= 1.197E-01 |PRATT|= 6.161E-01 ANGLE=  16.8 DEGREES
:MIX  :   MSE1   REGULARIZATION:  2.31E-04 GREED: 0.07261  LMStep 0.78  0.1942 Step           
     
       CHARGES OF MIXED CHARGE DENSITY
:CTO   : INTERSTITIAL CHARGE =     7.010955
:CPC   : PW Pseudocharge     =    16.786255
:CTO001: CHARGE SPHERE  1    =    55.494522

:NEC03: NUCLEAR AND ELECTRONIC CHARGE    118.00000   118.00000

PW CHANGE     H    K    L      Current       Change    Residue
:PTO001:      0    0    0  4.59164551E-02 -1.218E-04  1.995E-04
:PTO003:      0    2    0  1.31934070E-02  1.920E-05  4.820E-04
:PTO004:     -1    1    0  6.52186203E-02 -3.308E-04  1.859E-04
:PTO005:      0    2   -1 -7.60916038E-02  4.949E-04  4.224E-04
:PTO006:      0    0   -2 -3.94597097E-02  2.862E-04  3.824E-04
:PTO007:     -1    1   -1 -8.33537367E-02  7.153E-04  1.184E-03
:PTO008:      0    2   -2 -1.40614641E-02  1.270E-04  1.218E-04
:PTO009:     -1    1   -2 -7.16207142E-02  5.313E-04 -1.729E-04
:PTO011:     -1    3    0 -1.18513332E-02  1.439E-04  1.829E-04
:PTO012:     -1    3   -1 -5.44424414E-02  5.200E-04 -2.345E-04
:PTO013:      0    4    0 -1.02850595E-02  1.620E-04  2.504E-04
:PTO014:      0    2   -3  2.33041686E-02 -2.901E-04 -1.516E-04

:ENE  : ********** TOTAL ENERGY IN Ry =       -36944.12693432

       TOTAL FORCE IN mRy/a.u. = |F|     Fx             Fy             Fz     with/without FOR in case.in2
:FOR001:   1.ATOM         34.854          0.000          0.000        -34.854 partial forces
       TOTAL FORCE WITH RESPECT TO GLOBAL CARTESIAN COORDINATES:
:FCA001:   1.ATOM                         0.000        -34.854          0.000 partial forces
       TOTAL FORCE WITH RESPECT TO THE GLOBAL COORDINATE SYSTEM:
:FGL001:   1.ATOM                 0.000000000   -34.853881453     0.000000000 partial forces
 Flat Integration
 New Mode for Coulomb Integral
 Consistent 3/8+Simpson combinations
 Extension of core to zero
 LDM version in phi
 Fifth-order quadrature in outwin


            ---------
:ITE005:  5. ITERATION
            ---------

:NATO :    1 INDEPENDENT AND    2 TOTAL ATOMS IN UNITCELL
       SUBSTANCE: aU                                                          

       LATTICE                      = CXY 
:POT  : POTENTIAL OPTION EX_LDA EC_LDA VX_LDA VC_LDA
:LAT  : LATTICE CONSTANTS=  6.63103 13.45604 11.61688    1.571    1.571    1.571
:VOL  : UNIT CELL VOLUME =     518.27193
       MODE OF CALCULATION IS       = RELA
       NON-SPINPOLARIZED CALCULATION
:IFFT  : FFT-parameters:   54  108   96 Factor: 2.00


   CONVERGENCE PARAMETER FOR PSEUDOCHARGE: NCON=  9
   MAXIMAL VALUE OF RMT(JATOM)*ABSK(NKK) : RK  =27.59967


:VKCOUL :  VK-COUL convergence: 0.577E-07
       ATOMNUMBER=  1 Pr1        VCOUL-ZERO = -0.26810E-02
:EFG001:                        EFG         =    -1.11178   *10**21  V / m**2
                               V20  TOT/SRF=    -0.96283    -0.02190
                               V22  TOT/SRF=    -0.18001     0.00088
                               V22M TOT/SRF=     0.00000     0.00000
                               V21  TOT/SRF=     0.00000     0.00000
                               V21M TOT/SRF=     0.00000     0.00000

              0.37588    0.00000    0.00000        0.37588    0.00000    0.00000
              0.00000    0.73590    0.00000        0.00000    0.73590    0.00000
              0.00000    0.00000   -1.11178        0.00000    0.00000   -1.11178

         MAIN DIRECTIONS OF THE EFG   1.0000  0.0000  0.0000
                                      0.0000  1.0000  0.0000
                                      0.0000  0.0000  1.0000
:ANG001:  ANGLE WITH OLD X-AXIS =         0.0

:ETA001:                         ASYMM. ETA =     0.32382


     HELLMANN-FEYNMAN-FORCE IN mRy/a.u. = |F|  Fx       Fy             Fz
:FHF001:   1.ATOM    375.740823314657      0.000000000000      0.000000000000   -375.740823314657

:FIT001: LUSE= 13 SIGMA OF V-XC FIT FOR ATOM  1  0.5839735E-05
:FIT001: LUSE= 13 SIGMA OF V-XC FIT FOR ATOM  1  0.5839735E-05
:DEN  : DENSITY INTEGRAL  =        -14141.42350755   (Ry)
       ELS_POTENTIAL_AT Z=0 and Z=0.5:   0.67747   0.67747
       ELS_POTENTIAL_AT Y=0 and Y=0.5:   0.07725   0.07725
:VZERO:v0,v0c,v0x   0.12327   0.67747  -0.55420 v5,v5c,v5x   0.12327   0.67747  -0.55420
:VZERY:v0,v0c,v0x  -0.66632   0.07725  -0.74357 v5,v5c,v5x  -0.66632   0.07725  -0.74357
:VZERX:v0,v0c,v0x  -1.08429  -0.36935  -0.71494 v5,v5c,v5x  -1.08429  -0.36935  -0.71494
:LMAX-WF:   10   Non-Spherical LMAX:   4

          ATOMIC SPHERE DEPENDENT PARAMETERS FOR ATOM  Pr1       
:e__0001: OVERALL ENERGY PARAMETER IS    0.3694
          OVERALL BASIS SET ON ATOM IS LAPW
:E0_0001: E( 0)=    0.3694
             APW+lo
:E0_0001: E( 0)=   -2.1070   E(BOTTOM)=   -2.743   E(TOP)=   -1.471  4  5   169
             LOCAL ORBITAL
:E1_0001: E( 1)=    0.7694
             APW+lo
:E1_0001: E( 1)=   -0.6374   E(BOTTOM)=   -1.595   E(TOP)=    0.321  3  4   197
             LOCAL ORBITAL
:E3_0001: E( 3)=    0.5484   E(BOTTOM)=    0.340   E(TOP)=    0.757  0  1   122
             APW+lo
:E2_0001: E( 2)=    0.3694   E(BOTTOM)=    0.145   E(TOP)= -200.000  2 -1    97
             APW+lo

       K=   0.06250   0.00000   0.06250            1
:RKM  : MATRIX SIZE   473LOs:  40  RKM= 8.48  WEIGHT= 4.00  PGR:    
       EIGENVALUES ARE:
:EIG00001:      -2.0744749   -2.0639665   -0.7911490   -0.7307110   -0.7168020
:EIG00006:      -0.7112683   -0.7055959   -0.7050258    0.3319122    0.4748237
:EIG00011:       0.5611676    0.5627299    0.5630796    0.5649875    0.5679433
:EIG00016:       0.5773417    0.5810622    0.5816648    0.5840024    0.5854825
:EIG00021:       0.5892558    0.5918052    0.5922449    0.5970896    0.6323291
:EIG00026:       0.6451506    0.7128671    0.7332597    0.7476854    0.7861786
:EIG00031:       0.8020665    0.8770751    0.9213349    0.9605058    1.2258872
:EIG00036:       1.2566870    1.3450063    1.3464926    1.4960244    1.5487154
:EIG00041:       1.5951239    1.6976577    1.7637912    1.7827024    1.8673239
:EIG00046:       1.9323599    1.9427671    1.9889508    2.0519046
 
       ********************************************************

:KPT   :      NUMBER OF K-POINTS:   288
:GAP (global)   :    0.0    Ry =     0.0   eV (metal)
         Bandranges (emin - emax) and occupancy:
:BAN00004:   4   -0.779317   -0.730711  2.00000000
:BAN00005:   5   -0.771268   -0.716802  2.00000000
:BAN00006:   6   -0.758614   -0.708302  2.00000000
:BAN00007:   7   -0.743141   -0.705271  2.00000000
:BAN00008:   8   -0.719971   -0.702844  2.00000000
:BAN00009:   9    0.327341    0.538433  2.00000000
:BAN00010:  10    0.433984    0.548588  2.00000000
:BAN00011:  11    0.512660    0.561168  2.00000000
:BAN00012:  12    0.546945    0.566614  2.00000000
:BAN00013:  13    0.555552    0.574274  1.51820865
:BAN00014:  14    0.562555    0.578036  0.48179134
:BAN00015:  15    0.566917    0.579568  0.00000000
:BAN00016:  16    0.571151    0.580746  0.00000000
:BAN00017:  17    0.574664    0.582361  0.00000000
:BAN00018:  18    0.576081    0.583278  0.00000000
:BAN00019:  19    0.578621    0.586057  0.00000000
        Energy to separate low and high energystates:    0.27734


:NOE  : NUMBER OF ELECTRONS          =   26.000

:FER  : F E R M I - ENERGY(TETRAH.M.)=   0.5666338385
:GMA  : POTENTIAL AND CHARGE CUT-OFF  12.00 Ry**.5

:POS001: ATOM   -1 X,Y,Z = 0.00000 0.89750 0.25000  MULT= 2  ZZ= 59.000  Pr1       

       LMMAX 16
       LM=   0 0  1 0  2 0  2 2  3 0  3 2  4 0  4 2  4 4  5 0  5 2  5 4  6 0  6 2  6 4  6 6

:CHA001: TOTAL VALENCE CHARGE INSIDE SPHERE   1 =   9.4975    (RMT=  2.3000 )
:PCS001: PARTIAL CHARGES SPHERE =  1 S,P,D,F,PX,PY,PZ,D-Z2,D-X2Y2,D-XY,D-XZ,D-YZ 
:QTL001: 1.9396 5.0208 0.4731 2.0640 1.6705 1.6711 1.6792 0.0870 0.0861 0.1048 0.0911 0.1041
        Q-s-low E-s-low   Q-p-low E-p-low   Q-d-low E-d-low   Q-f-low E-f-low
:EPL001:  1.8695 -2.0642    4.9594 -0.7408    0.0011 -0.7633    0.0003 -0.7732
        Q-s-hi  E-s-hi    Q-p-hi  E-p-hi    Q-d-hi  E-d-hi    Q-f-hi  E-f-hi 
:EPH001:  0.0700  0.4663    0.0614  0.5048    0.4720  0.5220    2.0637  0.5552

                      VXX         VYY         VZZ       UP TO R
:VZZ001:             4.69536     2.99975    -7.69511       2.300

:CHA  : TOTAL VALENCE CHARGE INSIDE UNIT CELL =      26.000000

:SUM  : SUM OF EIGENVALUES =         -11.877311246


        1.ATOM      Pr1                  14 CORE STATES
       CORE-FORCE in mRy/a.u. = |F|      Fx             Fy             Fz
:FCO001:   1.ATOM    371.861604307021      0.000000000000      0.000000000000    371.861604307021

:1S 001: 1S               -3067.020744977 Ry
:2S 001: 2S                -492.782505236 Ry
:2PP001: 2P*               -465.880693658 Ry
:2P 001: 2P                -430.483652966 Ry
:3S 001: 3S                -105.876240507 Ry
:3PP001: 3P*                -94.413879175 Ry
:3P 001: 3P                 -87.406241285 Ry
:3DD001: 3D*                -67.333098754 Ry
:3D 001: 3D                 -65.821594784 Ry
:4S 001: 4S                 -20.555754521 Ry
:4PP001: 4P*                -16.262528647 Ry
:4P 001: 4P                 -14.735136376 Ry
:4DD001: 4D*                 -7.668198913 Ry
:4D 001: 4D                  -7.398807297 Ry
:CINT001 Core Integral Atom   1   45.998489

       DENSITY AT NUCLEUS
        JATOM        VALENCE       SEMI-CORE          CORE           TOTAL
:RTO001:   1      647.211230        0.000000   656822.747469   657469.958699
     
       CHARGES OF NEW CHARGE DENSITY
:NTO   : INTERSTITIAL CHARGE =     7.004926
:NPC   : PW Pseudocharge     =    16.853431
:NTO001: CHARGE SPHERE  1    =    55.496026

:NEC01: NUCLEAR AND ELECTRONIC CHARGE    118.00000   117.99698
     
       CHARGES OF OLD CHARGE DENSITY
:OTO   : INTERSTITIAL CHARGE =     7.010955
:OPC   : PW Pseudocharge     =    16.786255
:OTO001: CHARGE SPHERE  1    =    55.494522

:NEC02: NUCLEAR AND ELECTRONIC CHARGE    118.00000   118.00000
     
       CONVERGENCE TEST
:DTO001: DIFFERENCE IN SPHERE  1 =  0.0769386

:DIS  :  CHARGE DISTANCE       ( 0.0769386 for atom    1 spin 1)      0.0769386
 PW Mixed is          533
 
******************************************************
* MULTISECANT MIXING VER9 RELEASE 10.4.0              *
* Standard Mode with controls                        *
* Fixed density scale                                *
* Regularization       1.000E-04                     *
* Trust Upper Limit    5.000E+00                     *
* Max Number of Memory Steps    8                    *
******************************************************
 
:PWTMP   4.1634E+02  1.9467E+02  5.1827E+02
:PLANE:  PW TOTAL      4.4434 DISTAN   6.19E-02  1.39E+00 %
:CHARG:  CLM/ATOM   1382.0217 DISTAN   4.86E-01  3.52E-02 %
 
Step History
        DMIX         DMIXT        Red     Pred      Trust     Lambda    MagRel    MagAbs     Beta
  1   3.5000E-02   3.5000E-02 -1.00E+00  1.00E+00 -1.00E+01  1.00E+00  3.50E-02  3.50E-02  1.00E+00
  2   2.5000E-02   2.5000E-02  7.70E-01  1.00E+00 -1.00E+01  1.00E+00  2.50E-02  2.15E-02  1.00E+00
  3   2.8666E-02   2.8666E-02  9.74E-01  1.00E+00 -1.00E+01  8.86E-02  2.87E-02  1.90E-02  1.00E+00
  4   2.9750E-02   2.9750E-02  9.55E-01  9.85E-01  1.90E-01  1.34E+00  3.14E-02  2.02E-02  9.53E-01
  5   7.2607E-02   5.5173E-02 -1.00E+00  9.62E-01  1.94E-01  1.00E+00  1.94E-01  1.20E-01  1.00E+00
:JACOBIANS    9.136E-01   2.267E-01
  
:NORMS:  1/Froebius, Min, Max, Used   0.5688E+00  0.3510E+00  0.9988E+00  0.5832E+00
:INFO :  Number of Memory Steps    4 Skipping    0
:INFO :  SLambda=    0.7155522019  Max    0.7155522019
:PREDicted Charge, CTotal, PW Trust    2.257E-04   4.514E-04   1.472E-02
:PREDicted DMix, Beta, BLim   2.2501E-01  1.9436E+00  4.7683E-01

Eigenvalues, unscaled except for SY+YY
   #     SY Real        SY Imag          SS             YY         SY+YY Real      SY+YY Imag
   1   8.763768E-01   0.000000E+00   7.627711E-01   3.303484E+00   3.911536E+00   0.000000E+00
   2   5.843373E-01   0.000000E+00   5.313317E-01   6.832040E-01   1.119298E+00   0.000000E+00
   3  -9.481230E-16   0.000000E+00   8.258017E-05   1.329896E-02   1.343044E-05   0.000000E+00
   4   1.304872E-03   0.000000E+00   5.116039E-17   1.342605E-05   1.530336E-02   0.000000E+00
 
:INFO :  Singular value  3.912E+00 Weight  1.000E+00 Projection -1.314E-01
:INFO :  Singular value  1.119E+00 Weight  1.000E+00 Projection -1.211E-01
:INFO :  Singular value  1.530E-02 Weight  9.995E-01 Projection -1.874E+00
:INFO :  Singular value  1.343E-05 Weight  1.650E-03 Projection -2.634E-03
:RANK :  ACTIVE   3.00/4  =  75.03 % ; YY RANK   3.00/4  =  75.03 %
 
:BLIM :  VZERO Control Off
:TRUST:  Step 3.46E-01  Charge 7.50E-02 (e) CTO  2.50E-01 (e) PW  3.50E-01 (e)
:DTRUS:  Lambda    7.862E-01 Increment    7.276E-12 Iterations   107 DMIX    1.321E-01
:INFOA:  Angle SubSpace to MSR1      2.34
:DIRM :  MEMORY  4/8  SCALE   1.000 RED  0.80 PRED  0.96 NEXT  0.88 
:INFO :  Limited by Atoms F by Step T

:TRAVE:  Charge 1.88E-03 (e) CTO  3.75E-03 (e) PW  1.26E-02 (e)
:DIRP :  |MSR1|= 2.157E-02 |PRATT|= 6.186E-02 ANGLE=   1.7 DEGREES
:DIRQ :  |MSR1|= 1.684E-01 |PRATT|= 4.865E-01 ANGLE=   2.8 DEGREES
:DIRT :  |MSR1|= 1.698E-01 |PRATT|= 4.904E-01 ANGLE=   2.8 DEGREES
:MIX  :   MSD1   REGULARIZATION:  3.30E-04 GREED: 0.13804  LMStep 0.83  0.3462 Step           
     
       CHARGES OF MIXED CHARGE DENSITY
:CTO   : INTERSTITIAL CHARGE =     7.014630
:CPC   : PW Pseudocharge     =    16.813173
:CTO001: CHARGE SPHERE  1    =    55.492685

:NEC03: NUCLEAR AND ELECTRONIC CHARGE    118.00000   118.00000

PW CHANGE     H    K    L      Current       Change    Residue
:PTO001:      0    0    0  4.59754843E-02  5.903E-05  1.378E-04
:PTO003:      0    2    0  1.32498655E-02  5.646E-05  1.757E-04
:PTO004:     -1    1    0  6.53110749E-02  9.245E-05  2.809E-04
:PTO005:      0    2   -1 -7.61241899E-02 -3.259E-05 -9.078E-05
:PTO006:      0    0   -2 -3.94577512E-02  1.959E-06  1.220E-05
:PTO007:     -1    1   -1 -8.32755359E-02  7.820E-05  2.302E-04
:PTO008:      0    2   -2 -1.40256634E-02  3.580E-05  9.501E-05
:PTO009:     -1    1   -2 -7.19137419E-02 -2.930E-04 -8.540E-04
:PTO011:     -1    3    0 -1.18909066E-02 -3.957E-05 -1.078E-04
:PTO012:     -1    3   -1 -5.46392016E-02 -1.968E-04 -5.924E-04
:PTO013:      0    4    0 -1.02598234E-02  2.524E-05  7.140E-05
:PTO014:      0    2   -3  2.33686055E-02  6.444E-05  1.834E-04

:ENE  : ********** TOTAL ENERGY IN Ry =       -36944.12565700

       TOTAL FORCE IN mRy/a.u. = |F|     Fx             Fy             Fz     with/without FOR in case.in2
:FOR001:   1.ATOM          3.879          0.000          0.000         -3.879 partial forces
       TOTAL FORCE WITH RESPECT TO GLOBAL CARTESIAN COORDINATES:
:FCA001:   1.ATOM                         0.000         -3.879          0.000 partial forces
       TOTAL FORCE WITH RESPECT TO THE GLOBAL COORDINATE SYSTEM:
:FGL001:   1.ATOM                 0.000000000    -3.879219008     0.000000000 partial forces
 Flat Integration
 New Mode for Coulomb Integral
 Consistent 3/8+Simpson combinations
 Extension of core to zero
 LDM version in phi
 Fifth-order quadrature in outwin


            ---------
:ITE006:  6. ITERATION
            ---------

:NATO :    1 INDEPENDENT AND    2 TOTAL ATOMS IN UNITCELL
       SUBSTANCE: aU                                                          

       LATTICE                      = CXY 
:POT  : POTENTIAL OPTION EX_LDA EC_LDA VX_LDA VC_LDA
:LAT  : LATTICE CONSTANTS=  6.63103 13.45604 11.61688    1.571    1.571    1.571
:VOL  : UNIT CELL VOLUME =     518.27193
       MODE OF CALCULATION IS       = RELA
       NON-SPINPOLARIZED CALCULATION
:IFFT  : FFT-parameters:   54  108   96 Factor: 2.00


   CONVERGENCE PARAMETER FOR PSEUDOCHARGE: NCON=  9
   MAXIMAL VALUE OF RMT(JATOM)*ABSK(NKK) : RK  =27.59967


:VKCOUL :  VK-COUL convergence: 0.591E-07
       ATOMNUMBER=  1 Pr1        VCOUL-ZERO = -0.33419E-02
:EFG001:                        EFG         =    -3.52241   *10**21  V / m**2
                               V20  TOT/SRF=    -3.05050    -0.02231
                               V22  TOT/SRF=     0.27973     0.00139
                               V22M TOT/SRF=     0.00000     0.00000
                               V21  TOT/SRF=     0.00000     0.00000
                               V21M TOT/SRF=     0.00000     0.00000

              2.04093    0.00000    0.00000        2.04093    0.00000    0.00000
              0.00000    1.48148    0.00000        0.00000    1.48148    0.00000
              0.00000    0.00000   -3.52241        0.00000    0.00000   -3.52241

         MAIN DIRECTIONS OF THE EFG   1.0000  0.0000  0.0000
                                      0.0000  1.0000  0.0000
                                      0.0000  0.0000  1.0000
:ANG001:  ANGLE WITH OLD X-AXIS =         0.0

:ETA001:                         ASYMM. ETA =     0.15883


     HELLMANN-FEYNMAN-FORCE IN mRy/a.u. = |F|  Fx       Fy             Fz
:FHF001:   1.ATOM    637.387018716465      0.000000000000      0.000000000000   -637.387018716465

:FIT001: LUSE= 13 SIGMA OF V-XC FIT FOR ATOM  1  0.1881108E-04
:FIT001: LUSE= 13 SIGMA OF V-XC FIT FOR ATOM  1  0.1881108E-04
:DEN  : DENSITY INTEGRAL  =        -14140.87633375   (Ry)
       ELS_POTENTIAL_AT Z=0 and Z=0.5:   0.67898   0.67898
       ELS_POTENTIAL_AT Y=0 and Y=0.5:   0.08001   0.08001
:VZERO:v0,v0c,v0x   0.12421   0.67898  -0.55477 v5,v5c,v5x   0.12421   0.67898  -0.55477
:VZERY:v0,v0c,v0x  -0.66424   0.08001  -0.74425 v5,v5c,v5x  -0.66424   0.08001  -0.74425
:VZERX:v0,v0c,v0x  -1.08541  -0.36977  -0.71564 v5,v5c,v5x  -1.08541  -0.36977  -0.71564
:LMAX-WF:   10   Non-Spherical LMAX:   4

          ATOMIC SPHERE DEPENDENT PARAMETERS FOR ATOM  Pr1       
:e__0001: OVERALL ENERGY PARAMETER IS    0.3675
          OVERALL BASIS SET ON ATOM IS LAPW
:E0_0001: E( 0)=    0.3675
             APW+lo
:E0_0001: E( 0)=   -2.1095   E(BOTTOM)=   -2.745   E(TOP)=   -1.474  4  5   171
             LOCAL ORBITAL
:E1_0001: E( 1)=    0.7675
             APW+lo
:E1_0001: E( 1)=   -0.6398   E(BOTTOM)=   -1.597   E(TOP)=    0.318  3  4   194
             LOCAL ORBITAL
:E3_0001: E( 3)=    0.5455   E(BOTTOM)=    0.337   E(TOP)=    0.754  0  1   126
             APW+lo
:E2_0001: E( 2)=    0.3675   E(BOTTOM)=    0.144   E(TOP)= -200.000  2 -1    96
             APW+lo

       K=   0.06250   0.00000   0.06250            1
:RKM  : MATRIX SIZE   473LOs:  40  RKM= 8.48  WEIGHT= 4.00  PGR:    
       EIGENVALUES ARE:
:EIG00001:      -2.0768590   -2.0664090   -0.7934138   -0.7321975   -0.7182677
:EIG00006:      -0.7130916   -0.7078147   -0.7074561    0.3322364    0.4746155
:EIG00011:       0.5601387    0.5601468    0.5605361    0.5629225    0.5657977
:EIG00016:       0.5741286    0.5779288    0.5780984    0.5803792    0.5826862
:EIG00021:       0.5858858    0.5901542    0.5902418    0.5941436    0.6312099
:EIG00026:       0.6450799    0.7122256    0.7328410    0.7473713    0.7857645
:EIG00031:       0.8016332    0.8761674    0.9201848    0.9594740    1.2250424
:EIG00036:       1.2567648    1.3450046    1.3464424    1.4958735    1.5491595
:EIG00041:       1.5955841    1.6979589    1.7633394    1.7829217    1.8669502
:EIG00046:       1.9324247    1.9427516    1.9888155    2.0518365
 
       ********************************************************

:KPT   :      NUMBER OF K-POINTS:   288
:GAP (global)   :    0.0    Ry =     0.0   eV (metal)
         Bandranges (emin - emax) and occupancy:
:BAN00004:   4   -0.780952   -0.732198  2.00000000
:BAN00005:   5   -0.772957   -0.718268  2.00000000
:BAN00006:   6   -0.760409   -0.710130  2.00000000
:BAN00007:   7   -0.744592   -0.707815  2.00000000
:BAN00008:   8   -0.722015   -0.704716  2.00000000
:BAN00009:   9    0.327666    0.538198  2.00000000
:BAN00010:  10    0.434092    0.547261  2.00000000
:BAN00011:  11    0.512141    0.560139  2.00000000
:BAN00012:  12    0.545914    0.564155  2.00000000
:BAN00013:  13    0.553938    0.571532  1.51141495
:BAN00014:  14    0.559816    0.575672  0.48858505
:BAN00015:  15    0.564417    0.576734  0.00000000
:BAN00016:  16    0.568848    0.578160  0.00000000
:BAN00017:  17    0.571728    0.580282  0.00000000
:BAN00018:  18    0.573508    0.580313  0.00000000
:BAN00019:  19    0.576311    0.582655  0.00000000
        Energy to separate low and high energystates:    0.27767


:NOE  : NUMBER OF ELECTRONS          =   26.000

:FER  : F E R M I - ENERGY(TETRAH.M.)=   0.5642219223
:GMA  : POTENTIAL AND CHARGE CUT-OFF  12.00 Ry**.5

:POS001: ATOM   -1 X,Y,Z = 0.00000 0.89750 0.25000  MULT= 2  ZZ= 59.000  Pr1       

       LMMAX 16
       LM=   0 0  1 0  2 0  2 2  3 0  3 2  4 0  4 2  4 4  5 0  5 2  5 4  6 0  6 2  6 4  6 6

:CHA001: TOTAL VALENCE CHARGE INSIDE SPHERE   1 =   9.5365    (RMT=  2.3000 )
:PCS001: PARTIAL CHARGES SPHERE =  1 S,P,D,F,PX,PY,PZ,D-Z2,D-X2Y2,D-XY,D-XZ,D-YZ 
:QTL001: 1.9393 5.0213 0.4616 2.1142 1.6711 1.6712 1.6790 0.0844 0.0832 0.1038 0.0887 0.1015
        Q-s-low E-s-low   Q-p-low E-p-low   Q-d-low E-d-low   Q-f-low E-f-low
:EPL001:  1.8697 -2.0667    4.9616 -0.7427    0.0010 -0.7650    0.0003 -0.7736
        Q-s-hi  E-s-hi    Q-p-hi  E-p-hi    Q-d-hi  E-d-hi    Q-f-hi  E-f-hi 
:EPH001:  0.0695  0.4658    0.0597  0.5033    0.4605  0.5206    2.1139  0.5531

                      VXX         VYY         VZZ       UP TO R
:VZZ001:             0.83218     3.69019    -4.52237       2.300

:CHA  : TOTAL VALENCE CHARGE INSIDE UNIT CELL =      26.000000

:SUM  : SUM OF EIGENVALUES =         -11.920830312


        1.ATOM      Pr1                  14 CORE STATES
       CORE-FORCE in mRy/a.u. = |F|      Fx             Fy             Fz
:FCO001:   1.ATOM    645.420795068856      0.000000000000      0.000000000000    645.420795068856

:1S 001: 1S               -3067.033473394 Ry
:2S 001: 2S                -492.791050516 Ry
:2PP001: 2P*               -465.889813637 Ry
:2P 001: 2P                -430.492524473 Ry
:3S 001: 3S                -105.881413690 Ry
:3PP001: 3P*                -94.419233615 Ry
:3P 001: 3P                 -87.411422062 Ry
:3DD001: 3D*                -67.338628248 Ry
:3D 001: 3D                 -65.827065051 Ry
:4S 001: 4S                 -20.559008454 Ry
:4PP001: 4P*                -16.265805542 Ry
:4P 001: 4P                 -14.738406918 Ry
:4DD001: 4D*                 -7.671463546 Ry
:4D 001: 4D                  -7.402068190 Ry
:CINT001 Core Integral Atom   1   45.998490

       DENSITY AT NUCLEUS
        JATOM        VALENCE       SEMI-CORE          CORE           TOTAL
:RTO001:   1      647.197894        0.000000   656823.824957   657471.022851
     
       CHARGES OF NEW CHARGE DENSITY
:NTO   : INTERSTITIAL CHARGE =     6.927051
:NPC   : PW Pseudocharge     =    16.838530
:NTO001: CHARGE SPHERE  1    =    55.534965

:NEC01: NUCLEAR AND ELECTRONIC CHARGE    118.00000   117.99698
     
       CHARGES OF OLD CHARGE DENSITY
:OTO   : INTERSTITIAL CHARGE =     7.014630
:OPC   : PW Pseudocharge     =    16.813173
:OTO001: CHARGE SPHERE  1    =    55.492685

:NEC02: NUCLEAR AND ELECTRONIC CHARGE    118.00000   118.00000
     
       CONVERGENCE TEST
:DTO001: DIFFERENCE IN SPHERE  1 =  0.0868083

:DIS  :  CHARGE DISTANCE       ( 0.0868083 for atom    1 spin 1)      0.0868083
 PW Mixed is          533
 
******************************************************
* MULTISECANT MIXING VER9 RELEASE 10.4.0              *
* Standard Mode with controls                        *
* Fixed density scale                                *
* Regularization       1.000E-04                     *
* Trust Upper Limit    5.000E+00                     *
* Max Number of Memory Steps    8                    *
******************************************************
 
:PWTMP   4.1634E+02  1.9467E+02  5.1827E+02
:PLANE:  PW TOTAL      4.4471 DISTAN   4.01E-02  9.01E-01 %
:CHARG:  CLM/ATOM   1381.9914 DISTAN   3.31E-01  2.39E-02 %
 
Step History
        DMIX         DMIXT        Red     Pred      Trust     Lambda    MagRel    MagAbs     Beta
  1   3.5000E-02   3.5000E-02 -1.00E+00  1.00E+00 -1.00E+01  1.00E+00  3.50E-02  3.50E-02  1.00E+00
  2   2.5000E-02   2.5000E-02  7.70E-01  1.00E+00 -1.00E+01  1.00E+00  2.50E-02  2.15E-02  1.00E+00
  3   2.8666E-02   2.8666E-02  9.74E-01  1.00E+00 -1.00E+01  8.86E-02  2.87E-02  1.90E-02  1.00E+00
  4   2.9750E-02   2.9750E-02  9.55E-01  9.85E-01  1.90E-01  1.34E+00  3.14E-02  2.02E-02  9.53E-01
  5   7.2607E-02   5.5173E-02  7.96E-01  9.62E-01  1.94E-01  7.16E-01  1.94E-01  1.20E-01  1.00E+00
  6   1.3804E-01   1.3206E-01 -1.00E+00  8.76E-01  3.46E-01  1.00E+00  3.46E-01  1.70E-01  1.00E+00
:JACOBIANS    9.626E-01   5.761E-01
  
:NORMS:  1/Froebius, Min, Max, Used   0.7230E+00  0.3889E+00  0.9988E+00  0.7274E+00
:INFO :  Number of Memory Steps    5 Skipping    0
:INFO :  SLambda=    0.7248698768  Max    0.7248698768
:PREDicted Charge, CTotal, PW Trust    7.208E-04   1.442E-03   2.258E-02
:PREDicted DMix, Beta, BLim   3.9333E-01  1.8383E+00  7.9210E-01

Eigenvalues, unscaled except for SY+YY
   #     SY Real        SY Imag          SS             YY         SY+YY Real      SY+YY Imag
   1   2.316010E+00   0.000000E+00   2.147458E+00   4.058156E+00   5.731324E+00   0.000000E+00
   2   4.750935E-01   0.000000E+00   4.595379E-01   6.146256E-01   9.300094E-01   0.000000E+00
   3   4.818691E-02   0.000000E+00   6.403353E-03   3.212747E-01   3.901924E-01   0.000000E+00
   4  -7.868461E-16   0.000000E+00   2.642515E-05   5.935962E-03   7.361909E-06   0.000000E+00
   5   4.871335E-04   0.000000E+00   6.607179E-17   7.313085E-06   6.936465E-03   0.000000E+00
 
:INFO :  Singular value  5.733E+00 Weight  1.000E+00 Projection -1.044E-01
:INFO :  Singular value  9.300E-01 Weight  1.000E+00 Projection -9.557E-02
:INFO :  Singular value  3.901E-01 Weight  1.000E+00 Projection  9.201E-02
:INFO :  Singular value  6.936E-03 Weight  9.966E-01 Projection -2.998E+00
:INFO :  Singular value  7.362E-06 Weight  3.290E-04 Projection -1.444E-02
:RANK :  ACTIVE   4.00/5  =  79.94 % ; YY RANK   4.00/5  =  79.91 %
 
:BLIM :  VZERO Control Off
:TRUST:  Step 5.31E-01  Charge 7.50E-02 (e) CTO  2.50E-01 (e) PW  3.50E-01 (e)
:DTRUS:  Lambda    6.673E-01 Increment    7.276E-12 Iterations   103 DMIX    2.309E-01
:INFOA:  Angle SubSpace to MSR1      2.25
:DIRM :  MEMORY  5/8  SCALE   1.000 RED  0.68 PRED  0.88 NEXT  0.53 
:INFO :  Limited by Atoms F by Step T

:TRAVE:  Charge 2.83E-03 (e) CTO  5.67E-03 (e) PW  1.02E-02 (e)
:DIRP :  |MSR1|= 2.360E-02 |PRATT|= 4.005E-02 ANGLE=  12.9 DEGREES
:DIRQ :  |MSR1|= 1.753E-01 |PRATT|= 3.309E-01 ANGLE=  21.5 DEGREES
:DIRT :  |MSR1|= 1.769E-01 |PRATT|= 3.333E-01 ANGLE=  21.4 DEGREES
:MIX  :   MSD1   REGULARIZATION:  4.06E-04 GREED: 0.24394  LMStep 0.78  0.5307 Step           
     
       CHARGES OF MIXED CHARGE DENSITY
:CTO   : INTERSTITIAL CHARGE =     7.007051
:CPC   : PW Pseudocharge     =    16.841296
:CTO001: CHARGE SPHERE  1    =    55.496474

:NEC03: NUCLEAR AND ELECTRONIC CHARGE    118.00000   118.00000

PW CHANGE     H    K    L      Current       Change    Residue
:PTO001:      0    0    0  4.60151226E-02  3.964E-05 -1.001E-04
:PTO003:      0    2    0  1.32229260E-02 -2.694E-05 -4.552E-05
:PTO004:     -1    1    0  6.53751876E-02  6.411E-05  1.188E-04
:PTO005:      0    2   -1 -7.62065306E-02 -8.234E-05 -1.934E-04
:PTO006:      0    0   -2 -3.94458017E-02  1.195E-05  5.579E-05
:PTO007:     -1    1   -1 -8.32833528E-02 -7.817E-06 -5.379E-05
:PTO008:      0    2   -2 -1.39456897E-02  7.997E-05  1.340E-04
:PTO009:     -1    1   -2 -7.22364702E-02 -3.227E-04 -5.397E-04
:PTO011:     -1    3    0 -1.20023873E-02 -1.115E-04 -2.066E-04
:PTO012:     -1    3   -1 -5.48565011E-02 -2.173E-04 -4.437E-04
:PTO013:      0    4    0 -1.02573801E-02  2.443E-06 -2.548E-05
:PTO014:      0    2   -3  2.34259422E-02  5.734E-05  8.016E-05

:ENE  : ********** TOTAL ENERGY IN Ry =       -36944.12552032

       TOTAL FORCE IN mRy/a.u. = |F|     Fx             Fy             Fz     with/without FOR in case.in2
:FOR001:   1.ATOM          8.034          0.000          0.000          8.034 partial forces
       TOTAL FORCE WITH RESPECT TO GLOBAL CARTESIAN COORDINATES:
:FCA001:   1.ATOM                         0.000          8.034          0.000 partial forces
       TOTAL FORCE WITH RESPECT TO THE GLOBAL COORDINATE SYSTEM:
:FGL001:   1.ATOM                 0.000000000     8.033776352     0.000000000 partial forces
 Flat Integration
 New Mode for Coulomb Integral
 Consistent 3/8+Simpson combinations
 Extension of core to zero
 LDM version in phi
 Fifth-order quadrature in outwin


            ---------
:ITE007:  7. ITERATION
            ---------

:NATO :    1 INDEPENDENT AND    2 TOTAL ATOMS IN UNITCELL
       SUBSTANCE: aU                                                          

       LATTICE                      = CXY 
:POT  : POTENTIAL OPTION EX_LDA EC_LDA VX_LDA VC_LDA
:LAT  : LATTICE CONSTANTS=  6.63103 13.45604 11.61688    1.571    1.571    1.571
:VOL  : UNIT CELL VOLUME =     518.27193
       MODE OF CALCULATION IS       = RELA
       NON-SPINPOLARIZED CALCULATION
:IFFT  : FFT-parameters:   54  108   96 Factor: 2.00


   CONVERGENCE PARAMETER FOR PSEUDOCHARGE: NCON=  9
   MAXIMAL VALUE OF RMT(JATOM)*ABSK(NKK) : RK  =27.59967


:VKCOUL :  VK-COUL convergence: 0.889E-07
       ATOMNUMBER=  1 Pr1        VCOUL-ZERO = -0.38307E-02
:EFG001:                        EFG         =    -5.49102   *10**21  V / m**2
                               V20  TOT/SRF=    -4.75537    -0.02094
                               V22  TOT/SRF=     0.08445     0.00006
                               V22M TOT/SRF=     0.00000     0.00000
                               V21  TOT/SRF=     0.00000     0.00000
                               V21M TOT/SRF=     0.00000     0.00000

              2.82996    0.00000    0.00000        2.82996    0.00000    0.00000
              0.00000    2.66106    0.00000        0.00000    2.66106    0.00000
              0.00000    0.00000   -5.49102        0.00000    0.00000   -5.49102

         MAIN DIRECTIONS OF THE EFG   1.0000  0.0000  0.0000
                                      0.0000  1.0000  0.0000
                                      0.0000  0.0000  1.0000
:ANG001:  ANGLE WITH OLD X-AXIS =         0.0

:ETA001:                         ASYMM. ETA =     0.03076


     HELLMANN-FEYNMAN-FORCE IN mRy/a.u. = |F|  Fx       Fy             Fz
:FHF001:   1.ATOM   1050.991366700595      0.000000000000      0.000000000000  -1050.991366700595

:FIT001: LUSE= 13 SIGMA OF V-XC FIT FOR ATOM  1  0.3995593E-04
:FIT001: LUSE= 13 SIGMA OF V-XC FIT FOR ATOM  1  0.3995593E-04
:DEN  : DENSITY INTEGRAL  =        -14141.35160780   (Ry)
       ELS_POTENTIAL_AT Z=0 and Z=0.5:   0.68023   0.68023
       ELS_POTENTIAL_AT Y=0 and Y=0.5:   0.07978   0.07978
:VZERO:v0,v0c,v0x   0.12517   0.68023  -0.55507 v5,v5c,v5x   0.12517   0.68023  -0.55507
:VZERY:v0,v0c,v0x  -0.66435   0.07978  -0.74413 v5,v5c,v5x  -0.66435   0.07978  -0.74413
:VZERX:v0,v0c,v0x  -1.08600  -0.36994  -0.71606 v5,v5c,v5x  -1.08600  -0.36994  -0.71606
:LMAX-WF:   10   Non-Spherical LMAX:   4

          ATOMIC SPHERE DEPENDENT PARAMETERS FOR ATOM  Pr1       
:e__0001: OVERALL ENERGY PARAMETER IS    0.3653
          OVERALL BASIS SET ON ATOM IS LAPW
:E0_0001: E( 0)=    0.3653
             APW+lo
:E0_0001: E( 0)=   -2.1085   E(BOTTOM)=   -2.745   E(TOP)=   -1.472  4  5   174
             LOCAL ORBITAL
:E1_0001: E( 1)=    0.7653
             APW+lo
:E1_0001: E( 1)=   -0.6389   E(BOTTOM)=   -1.597   E(TOP)=    0.319  3  4   196
             LOCAL ORBITAL
:E3_0001: E( 3)=    0.5490   E(BOTTOM)=    0.340   E(TOP)=    0.758  0  1   126
             APW+lo
:E2_0001: E( 2)=    0.3653   E(BOTTOM)=    0.144   E(TOP)= -200.000  2 -1    97
             APW+lo

       K=   0.06250   0.00000   0.06250            1
:RKM  : MATRIX SIZE   473LOs:  40  RKM= 8.48  WEIGHT= 4.00  PGR:    
       EIGENVALUES ARE:
:EIG00001:      -2.0758093   -2.0653563   -0.7921939   -0.7318715   -0.7179920
:EIG00006:      -0.7126117   -0.7069774   -0.7065719    0.3327371    0.4750354
:EIG00011:       0.5627779    0.5636824    0.5643797    0.5658798    0.5693561
:EIG00016:       0.5778288    0.5811254    0.5816461    0.5839776    0.5862716
:EIG00021:       0.5890886    0.5929189    0.5936675    0.5982047    0.6323947
:EIG00026:       0.6456806    0.7133177    0.7332537    0.7481470    0.7859808
:EIG00031:       0.8018288    0.8767564    0.9208161    0.9600720    1.2257702
:EIG00036:       1.2572366    1.3453109    1.3471168    1.4966457    1.5496728
:EIG00041:       1.5964878    1.6987648    1.7640602    1.7836189    1.8673136
:EIG00046:       1.9332232    1.9429677    1.9894632    2.0520349
 
       ********************************************************

:KPT   :      NUMBER OF K-POINTS:   288
:GAP (global)   :    0.0    Ry =     0.0   eV (metal)
         Bandranges (emin - emax) and occupancy:
:BAN00004:   4   -0.780484   -0.731872  2.00000000
:BAN00005:   5   -0.772454   -0.717992  2.00000000
:BAN00006:   6   -0.759752   -0.709653  2.00000000
:BAN00007:   7   -0.744293   -0.706817  2.00000000
:BAN00008:   8   -0.721306   -0.704236  2.00000000
:BAN00009:   9    0.328163    0.539414  2.00000000
:BAN00010:  10    0.434521    0.549338  2.00000000
:BAN00011:  11    0.512676    0.562778  2.00000000
:BAN00012:  12    0.547741    0.567331  2.00000000
:BAN00013:  13    0.556150    0.575381  1.49429191
:BAN00014:  14    0.562936    0.578731  0.50570808
:BAN00015:  15    0.568260    0.579724  0.00000000
:BAN00016:  16    0.572077    0.581647  0.00000000
:BAN00017:  17    0.575343    0.583217  0.00000000
:BAN00018:  18    0.576759    0.583952  0.00000000
:BAN00019:  19    0.579479    0.586375  0.00000000
        Energy to separate low and high energystates:    0.27816


:NOE  : NUMBER OF ELECTRONS          =   26.000

:FER  : F E R M I - ENERGY(TETRAH.M.)=   0.5674139915
:GMA  : POTENTIAL AND CHARGE CUT-OFF  12.00 Ry**.5

:POS001: ATOM   -1 X,Y,Z = 0.00000 0.89750 0.25000  MULT= 2  ZZ= 59.000  Pr1       

       LMMAX 16
[...]
     
       CONVERGENCE TEST
:DTO001: DIFFERENCE IN SPHERE  1 =  0.0002082

:DIS  :  CHARGE DISTANCE       ( 0.0002082 for atom    1 spin 1)      0.0002082
 PW Mixed is          533
 
******************************************************
* MULTISECANT MIXING VER9 RELEASE 10.4.0              *
* Standard Mode with controls                        *
* Fixed density scale                                *
* Regularization       1.000E-04                     *
* Trust Upper Limit    5.000E+00                     *
* Max Number of Memory Steps    8                    *
******************************************************
 
:PWTMP   4.1634E+02  1.9467E+02  5.1827E+02
:PLANE:  PW TOTAL      4.4560 DISTAN   1.13E-04  2.54E-03 %
:CHARG:  CLM/ATOM   1381.9427 DISTAN   5.65E-04  4.09E-05 %
 
Step History
        DMIX         DMIXT        Red     Pred      Trust     Lambda    MagRel    MagAbs     Beta
  5   7.2607E-02   5.5173E-02  7.96E-01  9.62E-01  1.94E-01  7.16E-01  1.94E-01  1.20E-01  1.00E+00
  6   1.3804E-01   1.3206E-01  6.80E-01  8.76E-01  3.46E-01  7.25E-01  3.46E-01  1.70E-01  1.00E+00
  7   2.4394E-01   2.3094E-01  3.78E-01  5.26E-01  5.31E-01  8.85E-01  5.31E-01  1.77E-01  1.00E+00
  8   2.1599E-01   2.1196E-01  4.50E-01  5.60E-01  7.08E-01  5.64E-01  7.08E-01  8.91E-02  1.00E+00
  9   2.2060E-01   2.2060E-01  5.06E-01  6.47E-01  9.43E-01  1.00E+00  4.32E-01  2.45E-02  1.00E+00
 10   2.4634E-01   2.4634E-01  6.19E-01  4.16E-01  1.26E+00  1.50E+00  3.19E-01  9.14E-03  1.00E+00
 11   2.7205E-01   2.7205E-01  2.49E-01  2.06E-01  1.68E+00  1.93E+00  2.04E-01  3.61E-03  1.00E+00
 12   2.3737E-01   2.3737E-01  4.05E-01  4.61E-01  2.24E+00  1.96E+00  3.36E-01  1.48E-03  9.60E-01
 13   3.3594E-01   3.3594E-01 -1.00E+00  3.43E-01  2.98E+00  1.00E+00  7.24E-01  1.29E-03  1.00E+00
:JACOBIANS    9.274E-01   2.643E+00
  
:NORMS:  1/Froebius, Min, Max, Used   0.6810E+00  0.4879E+00  0.9806E+00  0.9769E+00
:INFO :  Number of Memory Steps    8 Skipping    4
:INFO :  SLambda=    1.2362811534  Max    1.2362811534
:PREDicted Charge, CTotal, PW Trust    1.770E-04   3.541E-04   4.480E-04
:PREDicted DMix, Beta, BLim   1.3081E-01  8.5962E-01  6.6707E-01

Eigenvalues, unscaled except for SY+YY
   #     SY Real        SY Imag          SS             YY         SY+YY Real      SY+YY Imag
   1   2.974808E+00   0.000000E+00   2.919092E+00   3.058984E+00   6.729292E+00   0.000000E+00
   2   8.568606E-01   0.000000E+00   5.389415E-01   2.729737E+00   3.707077E+00   0.000000E+00
   3   3.935330E-01   0.000000E+00   2.049118E-01   1.144405E+00   1.510082E+00   0.000000E+00
   4   1.160350E-01   0.000000E+00   2.893492E-02   7.133317E-01   9.885298E-01   0.000000E+00
   5   5.706001E-02   0.000000E+00   1.328447E-02   2.332187E-01   3.688588E-01   0.000000E+00
   6   4.362690E-03   0.000000E+00   2.735240E-03   8.968835E-02   1.136354E-01   0.000000E+00
   7   1.253724E-02   0.000000E+00   1.284870E-03   1.730467E-02   2.262090E-02   0.000000E+00
   8   8.876347E-03   0.000000E+00   8.102605E-04   1.333049E-02   2.930298E-02   0.000000E+00
 
:INFO :  Singular value  6.732E+00 Weight  1.000E+00 Projection -2.155E-04
:INFO :  Singular value  3.712E+00 Weight  1.000E+00 Projection -7.625E-05
:INFO :  Singular value  1.510E+00 Weight  1.000E+00 Projection -9.911E-05
:INFO :  Singular value  9.879E-01 Weight  1.000E+00 Projection  2.875E-04
:INFO :  Singular value  3.686E-01 Weight  1.000E+00 Projection -2.765E-04
:INFO :  Singular value  1.136E-01 Weight  1.000E+00 Projection -5.221E-04
:INFO :  Singular value  2.931E-02 Weight  9.999E-01 Projection  1.038E-03
:INFO :  Singular value  2.261E-02 Weight  9.998E-01 Projection -4.835E-04
:RANK :  ACTIVE   8.00/8  = 100.00 % ; YY RANK   8.00/8  =  99.99 %
 
:DLIM :  Beta Active  8.947E-01
:BLIM :  VZERO Control Off
:TRUST:  Step 3.98E+00  Charge 2.46E-02 (e) CTO  8.19E-02 (e) PW  1.15E-01 (e)
:DIRM :  MEMORY  8/8  SCALE   1.000 RED  0.32 PRED  0.34 NEXT  0.29 BETA  0.89
:TRAVE:  Charge 1.39E-04 (e) CTO  2.78E-04 (e) PW  4.48E-04 (e)
:DIRP :  |MSR1|= 1.033E-04 |PRATT|= 1.132E-04 ANGLE=  24.4 DEGREES
:DIRQ :  |MSR1|= 3.586E-04 |PRATT|= 5.654E-04 ANGLE=  39.3 DEGREES
:DIRT :  |MSR1|= 3.732E-04 |PRATT|= 5.766E-04 ANGLE=  38.9 DEGREES
:MIX  :   MSE1   REGULARIZATION:  3.06E-04 GREED: 0.21022  Newton 1.00  0.6472                
     
       CHARGES OF MIXED CHARGE DENSITY
:CTO   : INTERSTITIAL CHARGE =     7.001761
:CPC   : PW Pseudocharge     =    16.869388
:CTO001: CHARGE SPHERE  1    =    55.499119

:NEC03: NUCLEAR AND ELECTRONIC CHARGE    118.00000   118.00000

PW CHANGE     H    K    L      Current       Change    Residue
:PTO001:      0    0    0  4.60591205E-02 -5.275E-07 -9.957E-07
:PTO003:      0    2    0  1.32027001E-02 -1.783E-07 -1.991E-07
:PTO004:     -1    1    0  6.54065810E-02 -1.111E-06 -8.397E-07
:PTO005:      0    2   -1 -7.62899436E-02  1.475E-06  1.456E-06
:PTO006:      0    0   -2 -3.94710794E-02  7.433E-07  8.033E-07
:PTO007:     -1    1   -1 -8.33786038E-02  1.703E-06  1.592E-06
:PTO008:      0    2   -2 -1.39244442E-02  3.497E-07  7.205E-07
:PTO009:     -1    1   -2 -7.25314080E-02  2.350E-06  1.798E-06
:PTO011:     -1    3    0 -1.21265962E-02  4.880E-07  8.444E-08
:PTO012:     -1    3   -1 -5.50393900E-02  2.026E-06  1.580E-06
:PTO013:      0    4    0 -1.02568846E-02  3.565E-07  3.903E-07
:PTO014:      0    2   -3  2.34641145E-02 -9.221E-07 -8.761E-07

:ENE  : ********** TOTAL ENERGY IN Ry =       -36944.12525453

       TOTAL FORCE IN mRy/a.u. = |F|     Fx             Fy             Fz     with/without FOR in case.in2
:FOR001:   1.ATOM         29.368          0.000          0.000        -29.368 partial forces
       TOTAL FORCE WITH RESPECT TO GLOBAL CARTESIAN COORDINATES:
:FCA001:   1.ATOM                         0.000        -29.368          0.000 partial forces
       TOTAL FORCE WITH RESPECT TO THE GLOBAL COORDINATE SYSTEM:
:FGL001:   1.ATOM                 0.000000000   -29.368062963     0.000000000 partial forces
 Flat Integration
 New Mode for Coulomb Integral
 Consistent 3/8+Simpson combinations
 Extension of core to zero
 LDM version in phi
 Fifth-order quadrature in outwin


            ---------
:ITE014: 14. ITERATION
            ---------

:NATO :    1 INDEPENDENT AND    2 TOTAL ATOMS IN UNITCELL
       SUBSTANCE: aU                                                          

       LATTICE                      = CXY 
:POT  : POTENTIAL OPTION EX_LDA EC_LDA VX_LDA VC_LDA
:LAT  : LATTICE CONSTANTS=  6.63103 13.45604 11.61688    1.571    1.571    1.571
:VOL  : UNIT CELL VOLUME =     518.27193
       MODE OF CALCULATION IS       = RELA
       NON-SPINPOLARIZED CALCULATION
:IFFT  : FFT-parameters:   54  108   96 Factor: 2.00


   CONVERGENCE PARAMETER FOR PSEUDOCHARGE: NCON=  9
   MAXIMAL VALUE OF RMT(JATOM)*ABSK(NKK) : RK  =27.59967


:VKCOUL :  VK-COUL convergence: 0.109E-06
       ATOMNUMBER=  1 Pr1        VCOUL-ZERO = -0.41977E-02
:EFG001:                        EFG         =    -7.10188   *10**21  V / m**2
                               V20  TOT/SRF=    -6.15041    -0.02103
                               V22  TOT/SRF=     0.11475     0.00106
                               V22M TOT/SRF=     0.00000     0.00000
                               V21  TOT/SRF=     0.00000     0.00000
                               V21M TOT/SRF=     0.00000     0.00000

              3.66569    0.00000    0.00000        3.66569    0.00000    0.00000
              0.00000    3.43619    0.00000        0.00000    3.43619    0.00000
              0.00000    0.00000   -7.10188        0.00000    0.00000   -7.10188

         MAIN DIRECTIONS OF THE EFG   1.0000  0.0000  0.0000
                                      0.0000  1.0000  0.0000
                                      0.0000  0.0000  1.0000
:ANG001:  ANGLE WITH OLD X-AXIS =         0.0

:ETA001:                         ASYMM. ETA =     0.03232


     HELLMANN-FEYNMAN-FORCE IN mRy/a.u. = |F|  Fx       Fy             Fz
:FHF001:   1.ATOM   1231.467894282387      0.000000000000      0.000000000000  -1231.467894282387

:FIT001: LUSE= 13 SIGMA OF V-XC FIT FOR ATOM  1  0.5795921E-04
:FIT001: LUSE= 13 SIGMA OF V-XC FIT FOR ATOM  1  0.5795921E-04
:DEN  : DENSITY INTEGRAL  =        -14141.17578195   (Ry)
       ELS_POTENTIAL_AT Z=0 and Z=0.5:   0.68082   0.68082
       ELS_POTENTIAL_AT Y=0 and Y=0.5:   0.07959   0.07959
:VZERO:v0,v0c,v0x   0.12577   0.68082  -0.55505 v5,v5c,v5x   0.12577   0.68082  -0.55505
:VZERY:v0,v0c,v0x  -0.66454   0.07959  -0.74413 v5,v5c,v5x  -0.66454   0.07959  -0.74413
:VZERX:v0,v0c,v0x  -1.08675  -0.37045  -0.71630 v5,v5c,v5x  -1.08675  -0.37045  -0.71630
:LMAX-WF:   10   Non-Spherical LMAX:   4

          ATOMIC SPHERE DEPENDENT PARAMETERS FOR ATOM  Pr1       
:e__0001: OVERALL ENERGY PARAMETER IS    0.3670
          OVERALL BASIS SET ON ATOM IS LAPW
:E0_0001: E( 0)=    0.3670
             APW+lo
:E0_0001: E( 0)=   -2.1090   E(BOTTOM)=   -2.745   E(TOP)=   -1.473  4  5   171
             LOCAL ORBITAL
:E1_0001: E( 1)=    0.7670
             APW+lo
:E1_0001: E( 1)=   -0.6395   E(BOTTOM)=   -1.598   E(TOP)=    0.319  3  4   199
             LOCAL ORBITAL
:E3_0001: E( 3)=    0.5485   E(BOTTOM)=    0.340   E(TOP)=    0.757  0  1   118
             APW+lo
:E2_0001: E( 2)=    0.3670   E(BOTTOM)=    0.143   E(TOP)= -200.000  2 -1    96
             APW+lo

       K=   0.06250   0.00000   0.06250            1
:RKM  : MATRIX SIZE   473LOs:  40  RKM= 8.48  WEIGHT= 4.00  PGR:    
       EIGENVALUES ARE:
:EIG00001:      -2.0763234   -2.0658748   -0.7927439   -0.7322892   -0.7184359
:EIG00006:      -0.7129480   -0.7073120   -0.7072015    0.3330626    0.4751958
:EIG00011:       0.5624573    0.5633379    0.5637697    0.5655617    0.5687376
:EIG00016:       0.5774396    0.5807454    0.5812457    0.5835599    0.5857261
:EIG00021:       0.5886542    0.5924947    0.5932223    0.5974917    0.6323295
:EIG00026:       0.6457993    0.7134136    0.7332611    0.7481079    0.7860759
:EIG00031:       0.8018978    0.8766824    0.9207028    0.9598111    1.2256513
:EIG00036:       1.2574204    1.3453789    1.3473188    1.4969750    1.5497519
:EIG00041:       1.5967760    1.6990514    1.7643786    1.7838252    1.8671753
:EIG00046:       1.9335346    1.9430327    1.9897371    2.0520783
 
       ********************************************************

:KPT   :      NUMBER OF K-POINTS:   288
:GAP (global)   :    0.0    Ry =     0.0   eV (metal)
         Bandranges (emin - emax) and occupancy:
:BAN00004:   4   -0.780764   -0.732289  2.00000000
:BAN00005:   5   -0.772761   -0.718436  2.00000000
:BAN00006:   6   -0.760193   -0.709991  2.00000000
:BAN00007:   7   -0.744688   -0.707312  2.00000000
:BAN00008:   8   -0.721798   -0.704573  2.00000000
:BAN00009:   9    0.328490    0.539343  2.00000000
:BAN00010:  10    0.434796    0.549129  2.00000000
:BAN00011:  11    0.512788    0.562457  2.00000000
:BAN00012:  12    0.547577    0.566925  2.00000000
:BAN00013:  13    0.555878    0.574806  1.49516804
:BAN00014:  14    0.562553    0.578331  0.50483196
:BAN00015:  15    0.567632    0.579358  0.00000000
:BAN00016:  16    0.571631    0.581233  0.00000000
:BAN00017:  17    0.574868    0.582817  0.00000000
:BAN00018:  18    0.576314    0.583551  0.00000000
:BAN00019:  19    0.579061    0.585908  0.00000000
        Energy to separate low and high energystates:    0.27849


:NOE  : NUMBER OF ELECTRONS          =   26.000

:FER  : F E R M I - ENERGY(TETRAH.M.)=   0.5669830717
:GMA  : POTENTIAL AND CHARGE CUT-OFF  12.00 Ry**.5

:POS001: ATOM   -1 X,Y,Z = 0.00000 0.89750 0.25000  MULT= 2  ZZ= 59.000  Pr1       

       LMMAX 16
       LM=   0 0  1 0  2 0  2 2  3 0  3 2  4 0  4 2  4 4  5 0  5 2  5 4  6 0  6 2  6 4  6 6

:CHA001: TOTAL VALENCE CHARGE INSIDE SPHERE   1 =   9.5007    (RMT=  2.3000 )
:PCS001: PARTIAL CHARGES SPHERE =  1 S,P,D,F,PX,PY,PZ,D-Z2,D-X2Y2,D-XY,D-XZ,D-YZ 
:QTL001: 1.9394 5.0228 0.4739 2.0644 1.6714 1.6716 1.6798 0.0873 0.0853 0.1056 0.0909 0.1048
        Q-s-low E-s-low   Q-p-low E-p-low   Q-d-low E-d-low   Q-f-low E-f-low
:EPL001:  1.8697 -2.0661    4.9616 -0.7424    0.0010 -0.7641    0.0003 -0.7725
        Q-s-hi  E-s-hi    Q-p-hi  E-p-hi    Q-d-hi  E-d-hi    Q-f-hi  E-f-hi 
:EPH001:  0.0698  0.4669    0.0612  0.5055    0.4729  0.5224    2.0641  0.5557

                      VXX         VYY         VZZ       UP TO R
:VZZ001:             3.65554     3.42784    -7.08338       2.300

:CHA  : TOTAL VALENCE CHARGE INSIDE UNIT CELL =      26.000000

:SUM  : SUM OF EIGENVALUES =         -11.899116414


        1.ATOM      Pr1                  14 CORE STATES
       CORE-FORCE in mRy/a.u. = |F|      Fx             Fy             Fz
:FCO001:   1.ATOM   1202.140596386630      0.000000000000      0.000000000000   1202.140596386630

:1S 001: 1S               -3067.040120361 Ry
:2S 001: 2S                -492.791298783 Ry
:2PP001: 2P*               -465.890872786 Ry
:2P 001: 2P                -430.493220722 Ry
:3S 001: 3S                -105.877160723 Ry
:3PP001: 3P*                -94.415219065 Ry
:3P 001: 3P                 -87.407187629 Ry
:3DD001: 3D*                -67.334813330 Ry
:3D 001: 3D                 -65.823174785 Ry
:4S 001: 4S                 -20.553700058 Ry
:4PP001: 4P*                -16.260670574 Ry
:4P 001: 4P                 -14.733472048 Ry
:4DD001: 4D*                 -7.666922456 Ry
:4D 001: 4D                  -7.397596655 Ry
:CINT001 Core Integral Atom   1   45.998486

       DENSITY AT NUCLEUS
        JATOM        VALENCE       SEMI-CORE          CORE           TOTAL
:RTO001:   1      647.065900        0.000000   656825.032342   657472.098241
     
       CHARGES OF NEW CHARGE DENSITY
:NTO   : INTERSTITIAL CHARGE =     6.998646
:NPC   : PW Pseudocharge     =    16.862130
:NTO001: CHARGE SPHERE  1    =    55.499163

:NEC01: NUCLEAR AND ELECTRONIC CHARGE    118.00000   117.99697
     
       CHARGES OF OLD CHARGE DENSITY
:OTO   : INTERSTITIAL CHARGE =     7.001761
:OPC   : PW Pseudocharge     =    16.869388
:OTO001: CHARGE SPHERE  1    =    55.499119

:NEC02: NUCLEAR AND ELECTRONIC CHARGE    118.00000   118.00000
     
       CONVERGENCE TEST
:DTO001: DIFFERENCE IN SPHERE  1 =  0.0000738

:DIS  :  CHARGE DISTANCE       ( 0.0000738 for atom    1 spin 1)      0.0000738
 PW Mixed is          533
 
******************************************************
* MULTISECANT MIXING VER9 RELEASE 10.4.0              *
* Standard Mode with controls                        *
* Fixed density scale                                *
* Regularization       1.000E-04                     *
* Trust Upper Limit    5.000E+00                     *
* Max Number of Memory Steps    8                    *
******************************************************
 
:PWTMP   4.1634E+02  1.9467E+02  5.1827E+02
:PLANE:  PW TOTAL      4.4559 DISTAN   4.04E-05  9.06E-04 %
:CHARG:  CLM/ATOM   1381.9428 DISTAN   1.65E-04  1.19E-05 %
 
Step History
        DMIX         DMIXT        Red     Pred      Trust     Lambda    MagRel    MagAbs     Beta
  6   1.3804E-01   1.3206E-01  6.80E-01  8.76E-01  3.46E-01  7.25E-01  3.46E-01  1.70E-01  1.00E+00
  7   2.4394E-01   2.3094E-01  3.78E-01  5.26E-01  5.31E-01  8.85E-01  5.31E-01  1.77E-01  1.00E+00
  8   2.1599E-01   2.1196E-01  4.50E-01  5.60E-01  7.08E-01  5.64E-01  7.08E-01  8.91E-02  1.00E+00
  9   2.2060E-01   2.2060E-01  5.06E-01  6.47E-01  9.43E-01  1.00E+00  4.32E-01  2.45E-02  1.00E+00
 10   2.4634E-01   2.4634E-01  6.19E-01  4.16E-01  1.26E+00  1.50E+00  3.19E-01  9.14E-03  1.00E+00
 11   2.7205E-01   2.7205E-01  2.49E-01  2.06E-01  1.68E+00  1.93E+00  2.04E-01  3.61E-03  1.00E+00
 12   2.3737E-01   2.3737E-01  4.05E-01  4.61E-01  2.24E+00  1.96E+00  3.36E-01  1.48E-03  9.60E-01
 13   3.3594E-01   3.3594E-01  3.22E-01  3.43E-01  2.98E+00  1.24E+00  7.24E-01  1.29E-03  1.00E+00
 14   2.1022E-01   2.1022E-01 -1.00E+00  2.87E-01  3.98E+00  1.00E+00  6.47E-01  3.73E-04  8.95E-01
:JACOBIANS    9.813E-01   2.870E+00
  
:NORMS:  1/Froebius, Min, Max, Used   0.6646E+00  0.5183E+00  0.9882E+00  0.9380E+00
:INFO :  Number of Memory Steps    8 Skipping    5
:INFO :  SLambda=    1.8544217300  Max    1.8544217300
:PREDicted Charge, CTotal, PW Trust    9.469E-06   1.894E-05   1.039E-04
:PREDicted DMix, Beta, BLim   4.5326E-01  1.0866E+00  2.1585E+00

Eigenvalues, unscaled except for SY+YY
   #     SY Real        SY Imag          SS             YY         SY+YY Real      SY+YY Imag
   1   2.618039E+00   0.000000E+00   2.571224E+00   2.922601E+00   7.596912E+00   0.000000E+00
   2   9.625697E-01   0.000000E+00   6.606863E-01   2.626503E+00   4.403010E+00   0.000000E+00
   3   3.943920E-01   0.000000E+00   2.007769E-01   1.148893E+00   1.751633E+00   0.000000E+00
   4   1.495036E-01   0.000000E+00   8.018596E-02   8.892599E-01   1.331017E+00   0.000000E+00
   5   1.065032E-01   0.000000E+00   1.568263E-02   3.148355E-01   6.352459E-01   0.000000E+00
   6   1.000105E-03   0.000000E+00   2.255978E-03   5.749214E-02   3.761822E-03   0.000000E+00
   7   1.454872E-02   0.000000E+00   1.839783E-03   3.855658E-02   7.883424E-02   0.000000E+00
   8   9.767129E-03   0.000000E+00   5.265051E-04   1.859692E-03   9.260479E-02   0.000000E+00
 
:INFO :  Singular value  7.601E+00 Weight  1.000E+00 Projection -2.295E-05
:INFO :  Singular value  4.415E+00 Weight  1.000E+00 Projection -2.674E-05
:INFO :  Singular value  1.751E+00 Weight  1.000E+00 Projection  4.617E-05
:INFO :  Singular value  1.330E+00 Weight  1.000E+00 Projection  7.518E-05
:INFO :  Singular value  6.347E-01 Weight  1.000E+00 Projection  5.480E-05
:INFO :  Singular value  9.259E-02 Weight  1.000E+00 Projection -5.433E-05
:INFO :  Singular value  7.881E-02 Weight  1.000E+00 Projection  2.728E-04
:INFO :  Singular value  3.761E-03 Weight  9.940E-01 Projection  2.311E-03
:RANK :  ACTIVE   7.99/8  =  99.92 % ; YY RANK   7.98/8  =  99.70 %
 
:BLIM :  VZERO Control Off
:TRUST:  Step 5.30E+00  Charge 1.97E-02 (e) CTO  6.55E-02 (e) PW  9.18E-02 (e)
:DIRM :  MEMORY  8/8  SCALE   1.000 RED  0.29 PRED  0.29 NEXT  0.44 
:TRAVE:  Charge 7.34E-05 (e) CTO  1.47E-04 (e) PW  2.25E-04 (e)
:DIRP :  |MSR1|= 3.370E-05 |PRATT|= 4.039E-05 ANGLE=  19.0 DEGREES
:DIRQ :  |MSR1|= 8.873E-05 |PRATT|= 1.651E-04 ANGLE=  33.0 DEGREES
:DIRT :  |MSR1|= 9.491E-05 |PRATT|= 1.700E-04 ANGLE=  32.8 DEGREES
:MIX  :   MSE1   REGULARIZATION:  2.92E-04 GREED: 0.31315  Newton 1.00  0.5584                
     
       CHARGES OF MIXED CHARGE DENSITY
:CTO   : INTERSTITIAL CHARGE =     7.001746
:CPC   : PW Pseudocharge     =    16.869410
:CTO001: CHARGE SPHERE  1    =    55.499127

:NEC03: NUCLEAR AND ELECTRONIC CHARGE    118.00000   118.00000

PW CHANGE     H    K    L      Current       Change    Residue
:PTO001:      0    0    0  4.60591331E-02  1.255E-08 -9.121E-08
:PTO003:      0    2    0  1.32026616E-02 -3.857E-08 -7.987E-10
:PTO004:     -1    1    0  6.54066667E-02  8.573E-08  2.763E-07
:PTO005:      0    2   -1 -7.62898902E-02  5.336E-08 -7.129E-08
:PTO006:      0    0   -2 -3.94709690E-02  1.103E-07  6.044E-08
:PTO007:     -1    1   -1 -8.33784402E-02  1.635E-07  2.565E-08
:PTO008:      0    2   -2 -1.39241782E-02  2.659E-07  3.286E-07
:PTO009:     -1    1   -2 -7.25314893E-02 -8.138E-08 -3.756E-07
:PTO011:     -1    3    0 -1.21269113E-02 -3.151E-07 -4.245E-07
:PTO012:     -1    3   -1 -5.50395801E-02 -1.901E-07 -4.754E-07
:PTO013:      0    4    0 -1.02568370E-02  4.758E-08  2.200E-08
:PTO014:      0    2   -3  2.34640772E-02 -3.730E-08  7.012E-08

:ENE  : ********** TOTAL ENERGY IN Ry =       -36944.12525452

       TOTAL FORCE IN mRy/a.u. = |F|     Fx             Fy             Fz     with/without FOR in case.in2
:FOR001:   1.ATOM         29.327          0.000          0.000        -29.327 partial forces
       TOTAL FORCE WITH RESPECT TO GLOBAL CARTESIAN COORDINATES:
:FCA001:   1.ATOM                         0.000        -29.327          0.000 partial forces
       TOTAL FORCE WITH RESPECT TO THE GLOBAL COORDINATE SYSTEM:
:FGL001:   1.ATOM                 0.000000000   -29.327297896     0.000000000 partial forces
