
------- case.scf0 --------
 Flat Integration
 New Mode for Coulomb Integral
 Consistent 3/8+Simpson combinations
 Extension of core to zero
 LDM version in phi
 Fifth-order quadrature in outwin


            ---------
:ITE042: 42. ITERATION
            ---------

:NATO :    1 INDEPENDENT AND    2 TOTAL ATOMS IN UNITCELL
       SUBSTANCE: aU                                                          

       LATTICE                      = CXY 
:POT  : POTENTIAL OPTION EX_LDA EC_LDA VX_LDA VC_LDA
:LAT  : LATTICE CONSTANTS=  5.85246 11.87613 10.25291    1.571    1.571    1.571
:VOL  : UNIT CELL VOLUME =     356.31200
       MODE OF CALCULATION IS       = RELA
       NON-SPINPOLARIZED CALCULATION
:IFFT  : FFT-parameters:   48   96   80 Factor: 2.00


   CONVERGENCE PARAMETER FOR PSEUDOCHARGE: NCON=  9
   MAXIMAL VALUE OF RMT(JATOM)*ABSK(NKK) : RK  =27.59714


:VKCOUL :  VK-COUL convergence: 0.118E-06
       ATOMNUMBER=  1 Pr1        VCOUL-ZERO =  0.36000E+00
:EFG001:                        EFG         =    -8.97981   *10**21  V / m**2
                               V20  TOT/SRF=    -7.77674    -0.05262
                               V22  TOT/SRF=    -1.46777    -0.00184
                               V22M TOT/SRF=     0.00000     0.00000
                               V21  TOT/SRF=     0.00000     0.00000
                               V21M TOT/SRF=     0.00000     0.00000

              3.02214    0.00000    0.00000        3.02214    0.00000    0.00000
              0.00000    5.95767    0.00000        0.00000    5.95767    0.00000
              0.00000    0.00000   -8.97981        0.00000    0.00000   -8.97981

         MAIN DIRECTIONS OF THE EFG   1.0000  0.0000  0.0000
                                      0.0000  1.0000  0.0000
                                      0.0000  0.0000  1.0000
:ANG001:  ANGLE WITH OLD X-AXIS =         0.0

:ETA001:                         ASYMM. ETA =     0.32690


     HELLMANN-FEYNMAN-FORCE IN mRy/a.u. = |F|  Fx       Fy             Fz
:FHF001:   1.ATOM   1064.149480933040      0.000000000000      0.000000000000  -1064.149480933040

:FIT001: LUSE= 13 SIGMA OF V-XC FIT FOR ATOM  1  0.1824540E-04
:FIT001: LUSE= 13 SIGMA OF V-XC FIT FOR ATOM  1  0.1824540E-04
:DEN  : DENSITY INTEGRAL  =        -14186.24055188   (Ry)
       ELS_POTENTIAL_AT Z=0 and Z=0.5:   0.86485   0.86485
       ELS_POTENTIAL_AT Y=0 and Y=0.5:   0.03258   0.03258
:VZERO:v0,v0c,v0x   0.20612   0.86485  -0.65873 v5,v5c,v5x   0.20612   0.86485  -0.65873
:VZERY:v0,v0c,v0x  -0.84209   0.03258  -0.87467 v5,v5c,v5x  -0.84209   0.03258  -0.87467
:VZERX:v0,v0c,v0x  -1.21677  -0.39201  -0.82476 v5,v5c,v5x  -1.21677  -0.39201  -0.82476

------- case.scf1 --------
:LMAX-WF:   10   Non-Spherical LMAX:   4

          ATOMIC SPHERE DEPENDENT PARAMETERS FOR ATOM  Pr1       
:e__0001: OVERALL ENERGY PARAMETER IS    0.6876
          OVERALL BASIS SET ON ATOM IS LAPW
:E0_0001: E( 0)=    0.6876
             APW+lo
:E0_0001: E( 0)=   -1.7297   E(BOTTOM)=   -2.370   E(TOP)=   -1.089  4  5   207
             LOCAL ORBITAL
:E1_0001: E( 1)=    1.0876
             APW+lo
:E1_0001: E( 1)=   -0.2624   E(BOTTOM)=   -1.227   E(TOP)=    0.702  3  4   215
             LOCAL ORBITAL
:E3_0001: E( 3)=    0.9314   E(BOTTOM)=    0.720   E(TOP)=    1.143  0  1   121
             APW+lo
:E2_0001: E( 2)=    0.6876   E(BOTTOM)=    0.510   E(TOP)= -200.000  2 -1   120
             APW+lo

       K=   0.06250   0.00000   0.06250            1
:RKM  : MATRIX SIZE   337LOs:  40  RKM= 8.49  WEIGHT= 4.00  PGR:    
       EIGENVALUES ARE:
:EIG00001:      -1.7307932   -1.6903593   -0.5111276   -0.3493829   -0.3129321
:EIG00006:      -0.3002304   -0.2855384   -0.2845861    0.6861974    0.7712386
:EIG00011:       0.8991164    0.9129031    0.9142984    0.9162324    0.9276616
:EIG00016:       0.9502422    0.9585318    0.9587008    0.9631017    0.9658951
:EIG00021:       0.9690102    0.9752726    0.9777978    0.9935501    1.0028425
:EIG00026:       1.0157489    1.1051510    1.1064932    1.1724050    1.2076345
:EIG00031:       1.2164216    1.3635575    1.3912523    1.4627925    1.7632697
:EIG00036:       1.8109459    1.8464018    1.9453703    2.0553624    2.1226963
:EIG00041:       2.2706657    2.3538664    2.4786424    2.5022137    2.6556526
:EIG00046:       2.6568558    2.6718684    2.8158835    2.8312546    2.9645185
 
:EIG00051:       3.0315429    3.1196439    3.1259240    3.2575008    3.3174947
:EIG00056:       3.3245480    3.3831335    3.5129205    3.5506442    3.6623490
:EIG00061:       3.6767209    3.7953535    3.8543866    3.8810581    3.9262231
:EIG00066:       4.0895905    4.0919728    4.1872760    4.1965763    4.2433392
:EIG00071:       4.2681821    4.3307665    4.3453138    4.4666825    4.4771722
:EIG00076:       4.5111352    4.5460035    4.5918359    4.5961104    4.6558265
:EIG00081:       4.6686061    4.7056746    4.7373711    4.7900828    4.8097932
:EIG00086:       4.9239838    4.9490625    5.0283944    5.0645639    5.1033961
:EIG00091:       5.1165844    5.1422113    5.2057269    5.2365398    5.2387596
:EIG00096:       5.2515173    5.3327871    5.3386056    5.4037623    5.4474193
 
:EIG00101:       5.5324103    5.6451882    5.6955626    5.7643094    5.7699105
:EIG00106:       5.8429322    5.8636793    5.9231115    5.9665797    6.0187620
:EIG00111:       6.1223636    6.1549030    6.2798859    6.3215806    6.3668215
:EIG00116:       6.3886923    6.4805664    6.4949837    6.5530732    6.5735384
:EIG00121:       6.6601205    6.6867202    6.7337556    6.7880129    6.8288678
:EIG00126:       6.8997785    6.9575969    6.9782835    7.0148673    7.0729211
:EIG00131:       7.1355157    7.1585523    7.1697469    7.2692662    7.3280032
:EIG00136:       7.3390683    7.3586786    7.4627959    7.4827667    7.4838947
:EIG00141:       7.5231545    7.5324278    7.5783025    7.6419747    7.6889058
:EIG00146:       7.6957149    7.7336967    7.8291368    7.8373326    7.8912533
 
:EIG00151:       7.9296361    7.9490638    7.9633052    8.1465150    8.1539986
:EIG00156:       8.3073876    8.3235724    8.3419446    8.3733943
       ********************************************************

:KPT   :      NUMBER OF K-POINTS:   288

------- case.scfso --------
   0.0   0.0 angle (M,z), angle (M,x) deg
 
        SPIN-ORBIT EIGENVALUES:
     K=   0.06250   0.00000   0.06250            1
      MATRIX SIZE=  318   WEIGHT= 4.00
     EIGENVALUES ARE:
          -1.7307942   -1.7307942   -1.6903597   -1.6903597   -0.5629814
          -0.5629814   -0.4518162   -0.4518162   -0.3535092   -0.3535092
          -0.2399380   -0.2399380   -0.2360841   -0.2360841   -0.2196047
          -0.2196047    0.6862860    0.6862860    0.7711448    0.7711448
           0.8975597    0.8975597    0.9103980    0.9103980    0.9117072
           0.9117072    0.9142705    0.9142705    0.9247094    0.9247094
           0.9414227    0.9414227    0.9509064    0.9509064    0.9607153
           0.9607153    0.9670617    0.9670618    0.9686385    0.9686385

           0.9728972    0.9728972    0.9765012    0.9765012    0.9829904
           0.9829904    0.9968727    0.9968727    1.0051366    1.0051366
           1.0169544    1.0169544    1.1008616    1.1008616    1.1109519
           1.1109519    1.1728739    1.1728739    1.2071594    1.2071594
           1.2172801    1.2172802    1.3635268    1.3635268    1.3915104
           1.3915104    1.4629272    1.4629272    1.7636076    1.7636076
           1.8109906    1.8109906    1.8463899    1.8463899    1.9453604
           1.9453604    2.0551205    2.0551205    2.1221623    2.1221623

           2.2707783    2.2707783    2.3532160    2.3532160    2.4777385
           2.4777385    2.5024697    2.5024697    2.6555874    2.6555874
           2.6570282    2.6570282    2.6711365    2.6711365    2.8133772
           2.8133772    2.8338524    2.8338524    2.9646469    2.9646469
           3.0309756    3.0309756    3.1136984    3.1136984    3.1305425
           3.1305425    3.2572860    3.2572860    3.3155647    3.3155647
           3.3270425    3.3270425    3.3819981    3.3819981    3.5133752
           3.5133752    3.5519684    3.5519684    3.6614914    3.6614914

           3.6781445    3.6781445    3.7990267    3.7990267    3.8551701
           3.8551701    3.8810105    3.8810105    3.9264536    3.9264536
           4.0890491    4.0890491    4.0927456    4.0927456    4.1872801
           4.1872801    4.1965061    4.1965061    4.2434124    4.2434124
           4.2686078    4.2686078    4.3293908    4.3293908    4.3455046
           4.3455046    4.4647482    4.4647482    4.4791847    4.4791847

       ********************************************************

------- case.scf2 --------
:GMA  : POTENTIAL AND CHARGE CUT-OFF  12.00 Ry**.5




:POS001: at.nr.  -1 position = 0.00000 0.89750 0.25000  multiplicity =  2

       lmmax 16
       lm=   0 0  1 0  2 0  2 2  3 0  3 2  4 0  4 2  4 4  5 0  5 2  5 4  6 0  6 2  6 4  6 6
:FER gutzwiller fermi energy   0.90608
:EORB          0.068061662
:SUM sum of gutz band energies         -2.843285073

:CHA001: total charge inside sphere   1 =     9.673118
:PCS001: partial charges sphere =  1 s,p,d,f,px,py,pz,d-z2,d-x2y2,d-xy,d-xz,d-yz 
:QTL001: 1.9433 4.9779 0.7202 2.0306 1.6575 1.6555 1.6649 0.1387 0.1303 0.1491 0.1467 0.1554

                      vxx         vyy         vzz       up to r

:VZZ001:             2.99391     5.92926    -8.92317       2.300

:CHA  : total charge inside unit cell =      13.000000

------- case.scfc --------

        1.ATOM      Pr1                  14 CORE STATES
       CORE-FORCE in mRy/a.u. = |F|      Fx             Fy             Fz
:FCO001:   1.ATOM   1052.522601503995      0.000000000000      0.000000000000   1052.522601503995

:1S 001: 1S               -3066.647915095 Ry
:2S 001: 2S                -492.397321688 Ry
:2PP001: 2P*               -465.496913404 Ry
:2P 001: 2P                -430.099239349 Ry
:3S 001: 3S                -105.487108963 Ry
:3PP001: 3P*                -94.024985546 Ry
:3P 001: 3P                 -87.017157339 Ry
:3DD001: 3D*                -66.943980275 Ry
:3D 001: 3D                 -65.432421727 Ry
:4S 001: 4S                 -20.167120323 Ry
:4PP001: 4P*                -15.874143294 Ry
:4P 001: 4P                 -14.347088140 Ry
:4DD001: 4D*                 -7.280644186 Ry
:4D 001: 4D                  -7.011365098 Ry

------- case.scfm --------
:CINT001 Core Integral Atom   1   45.998462

       DENSITY AT NUCLEUS
        JATOM        VALENCE       SEMI-CORE          CORE           TOTAL
:RTO001:   1      647.476312        0.000000   656824.439268   657471.915579
     
       CHARGES OF NEW CHARGE DENSITY
:NTO   : INTERSTITIAL CHARGE =     6.654261
:NPC   : PW Pseudocharge     =    17.311694
:NTO001: CHARGE SPHERE  1    =    55.671580

:NEC01: NUCLEAR AND ELECTRONIC CHARGE    118.00000   117.99742
     
       CHARGES OF OLD CHARGE DENSITY
:OTO   : INTERSTITIAL CHARGE =     6.655843
:OPC   : PW Pseudocharge     =    17.317529
:OTO001: CHARGE SPHERE  1    =    55.672078

:NEC02: NUCLEAR AND ELECTRONIC CHARGE    118.00000   118.00000
     
       CONVERGENCE TEST
:DTO001: DIFFERENCE IN SPHERE  1 =  0.0008469

:DIS  :  CHARGE DISTANCE       ( 0.0008469 for atom    1 spin 1)      0.0008469
 PW Mixed is          375
 
******************************************************
* MULTISECANT MIXING VER9 RELEASE 10.4.0              *
* Standard Mode with controls                        *
* Fixed density scale                                *
* Restart from converged density                     *
* Regularization       1.000E-04                     *
* Trust Upper Limit    5.000E+00                     *
* Max Number of Memory Steps    8                    *
******************************************************
 
:INFO : Forcing a restart
:PWTMP   2.5438E+02  1.9467E+02  3.5631E+02
:PLANE:  PW TOTAL      5.4891 DISTAN   3.06E-04  5.57E-03 %
:CHARG:  CLM/ATOM   1381.9386 DISTAN   1.24E-03  8.95E-05 %
 
Step History
        DMIX         DMIXT        Red     Pred      Trust     Lambda    MagRel    MagAbs     Beta
  1   3.5000E-02   3.5000E-02 -1.00E+00  1.00E+00 -1.00E+01  1.00E+00  3.50E-02  3.50E-02  1.00E+00
:INFO :  Note, Pratt in use
:TRUST:  Step 2.25E-01  Charge 7.50E-02 (e) CTO  2.50E-01 (e) PW  3.50E-01 (e)
:DIRM :  MEMORY  0/ 8 SCALE   1.000
Performing Pseudo Compensation
Final Pseudo Compensation Rescaling     1.00000E+00
:MIX  :   PRATT  REGULARIZATION:  1.00E-04 GREED: 0.15000                  
     
       CHARGES OF MIXED CHARGE DENSITY
:CTO   : INTERSTITIAL CHARGE =     6.655993
:CPC   : PW Pseudocharge     =    17.317964
:CTO001: CHARGE SPHERE  1    =    55.672004

:NEC03: NUCLEAR AND ELECTRONIC CHARGE    118.00000   118.00000

PW CHANGE     H    K    L      Current       Change    Residue
:PTO001:      0    0    0  6.72836076E-02  1.642E-06  5.240E-06
:PTO003:      0    2    0  1.67548300E-02  3.646E-07  8.655E-08
:PTO004:     -1    1    0  8.08676935E-02  2.245E-06  2.666E-06
:PTO005:      0    2   -1 -9.32256565E-02 -2.687E-06 -3.407E-06
:PTO006:      0    0   -2 -4.83856319E-02 -1.421E-06 -1.934E-06
:PTO007:     -1    1   -1 -9.88945427E-02 -2.961E-06 -3.158E-06
:PTO008:      0    2   -2 -1.48951148E-02 -5.721E-07 -7.890E-07
:PTO009:     -1    1   -2 -7.49677228E-02 -2.744E-06 -2.535E-06
:PTO011:     -1    3    0 -1.15111040E-02 -4.816E-07 -4.536E-07
:PTO012:     -1    3   -1 -4.94405409E-02 -2.232E-06 -1.987E-06
:PTO013:      0    4    0 -8.58144359E-03 -4.314E-07 -3.622E-07
:PTO014:      0    2   -3  1.97893543E-02  1.013E-06  1.077E-06

:ENE  : ********** TOTAL ENERGY IN Ry =       -36944.22812476

       TOTAL FORCE IN mRy/a.u. = |F|     Fx             Fy             Fz     with/without FOR in case.in2
:FOR001:   1.ATOM         11.627          0.000          0.000        -11.627 partial forces
       TOTAL FORCE WITH RESPECT TO GLOBAL CARTESIAN COORDINATES:
:FCA001:   1.ATOM                         0.000        -11.627          0.000 partial forces
       TOTAL FORCE WITH RESPECT TO THE GLOBAL COORDINATE SYSTEM:
:FGL001:   1.ATOM                 0.000000000   -11.626879429     0.000000000 partial forces
