
------- alpha_Pu_6.scf0 --------


            ---------
:ITE079: 79. ITERATION
            ---------

:NATO :    8 INDEPENDENT AND   16 TOTAL ATOMS IN UNITCELL
       SUBSTANCE: alpha_Pu                                                    

       LATTICE                      = P   
:POT  : POTENTIAL OPTION    5
:LAT  : LATTICE CONSTANTS= 12.05906  9.40790 21.38892    1.571    1.777    1.571
:VOL  : UNIT CELL VOLUME =    2375.41343
       MODE OF CALCULATION IS       = RELA
       NON-SPINPOLARIZED CALCULATION
:IFFT  : FFT-parameters:   96   72  180 Factor: 2.00
       ATOMNUMBER=  1 Pu  0+     VCOUL-ZERO =  0.43972E+00
:EFG001:                        EFG         =   -17.63770   *10**21  V / m**2
                               V20  TOT/SRF=     0.21904    -0.05847
                               V22  TOT/SRF=     7.55446     0.06567
                               V22M TOT/SRF=   -15.79790    -0.04528
                               V21  TOT/SRF=     0.00000     0.00000
                               V21M TOT/SRF=     0.00000     0.00000

              7.42799  -15.79790    0.00000       17.38478    0.00000    0.00000
            -15.79790   -7.68092    0.00000        0.00000  -17.63770    0.00000
              0.00000    0.00000    0.25292        0.00000    0.00000    0.25292

         MAIN DIRECTIONS OF THE EFG   1.0000  0.6303  0.0000
                                     -0.6303  1.0000  0.0000
                                      0.0000  0.0000  1.0000
:ANG001:  ANGLE WITH OLD X-AXIS =        32.2

:ETA001:                         ASYMM. ETA =     0.97132


       ATOMNUMBER=  2 Pu  0+     VCOUL-ZERO =  0.44107E+00
:EFG002:                        EFG         =   -31.19924   *10**21  V / m**2
                               V20  TOT/SRF=     9.39650     0.01196
                               V22  TOT/SRF=   -20.54061    -0.05277
                               V22M TOT/SRF=    15.56891     0.04103
                               V21  TOT/SRF=     0.00000     0.00000
                               V21M TOT/SRF=     0.00000     0.00000

            -25.96568   15.56891    0.00000      -31.19924    0.00000    0.00000
             15.56891   15.11554    0.00000        0.00000   20.34910    0.00000
              0.00000    0.00000   10.85014        0.00000    0.00000   10.85014

         MAIN DIRECTIONS OF THE EFG   1.0000  0.3362  0.0000
                                     -0.3362  1.0000  0.0000
                                      0.0000  0.0000  1.0000
:ANG002:  ANGLE WITH OLD X-AXIS =        18.6

:ETA002:                         ASYMM. ETA =     0.30446


       ATOMNUMBER=  3 Pu  0+     VCOUL-ZERO =  0.44325E+00
:EFG003:                        EFG         =   -15.17064   *10**21  V / m**2
                               V20  TOT/SRF=     1.59099    -0.00051
                               V22  TOT/SRF=    -3.08760    -0.00246
                               V22M TOT/SRF=   -13.91361    -0.00364
                               V21  TOT/SRF=     0.00000     0.00000
                               V21M TOT/SRF=     0.00000     0.00000

             -4.00616  -13.91361    0.00000      -15.17064    0.00000    0.00000
            -13.91361    2.16904    0.00000        0.00000   13.33352    0.00000
              0.00000    0.00000    1.83712        0.00000    0.00000    1.83712

         MAIN DIRECTIONS OF THE EFG   1.0000 -0.8024  0.0000
                                      0.8024  1.0000  0.0000
                                      0.0000  0.0000  1.0000
:ANG003:  ANGLE WITH OLD X-AXIS =        38.7

:ETA003:                         ASYMM. ETA =     0.75781


       ATOMNUMBER=  4 Pu  0+     VCOUL-ZERO =  0.44266E+00
:EFG004:                        EFG         =    12.72549   *10**21  V / m**2
                               V20  TOT/SRF=    -0.18518    -0.01219
                               V22  TOT/SRF=    -2.22513     0.01138
                               V22M TOT/SRF=    12.42084     0.01634
                               V21  TOT/SRF=     0.00000     0.00000
                               V21M TOT/SRF=     0.00000     0.00000

             -2.11822   12.42084    0.00000      -12.51166    0.00000    0.00000
             12.42084    2.33205    0.00000        0.00000   12.72549    0.00000
              0.00000    0.00000   -0.21383        0.00000    0.00000   -0.21383

         MAIN DIRECTIONS OF THE EFG   1.0000  0.8368  0.0000
                                     -0.8368  1.0000  0.0000
                                      0.0000  0.0000  1.0000
:ANG004:  ANGLE WITH OLD X-AXIS =        39.9

:ETA004:                         ASYMM. ETA =     0.96639


       ATOMNUMBER=  5 Pu  0+     VCOUL-ZERO =  0.44449E+00
:EFG005:                        EFG         =   -41.80655   *10**21  V / m**2
                               V20  TOT/SRF=    10.62716     0.00974
                               V22  TOT/SRF=   -35.17966    -0.07281
                               V22M TOT/SRF=     5.89983     0.02980
                               V21  TOT/SRF=     0.00000     0.00000
                               V21M TOT/SRF=     0.00000     0.00000

            -41.31526    5.89983    0.00000      -41.80655    0.00000    0.00000
              5.89983   29.04407    0.00000        0.00000   29.53535    0.00000
              0.00000    0.00000   12.27119        0.00000    0.00000   12.27119

         MAIN DIRECTIONS OF THE EFG   1.0000  0.0833  0.0000
                                     -0.0833  1.0000  0.0000
                                      0.0000  0.0000  1.0000
:ANG005:  ANGLE WITH OLD X-AXIS =         4.8

:ETA005:                         ASYMM. ETA =     0.41295


       ATOMNUMBER=  6 Pu  0+     VCOUL-ZERO =  0.44279E+00
:EFG006:                        EFG         =   -14.87252   *10**21  V / m**2
                               V20  TOT/SRF=     6.72581     0.00072
                               V22  TOT/SRF=    -4.06049    -0.00278
                               V22M TOT/SRF=   -10.21170    -0.04098
                               V21  TOT/SRF=     0.00000     0.00000
                               V21M TOT/SRF=     0.00000     0.00000

             -7.94364  -10.21170    0.00000      -14.87252    0.00000    0.00000
            -10.21170    0.17734    0.00000        0.00000    7.10623    0.00000
              0.00000    0.00000    7.76630        0.00000    0.00000    7.76630

         MAIN DIRECTIONS OF THE EFG   1.0000 -0.6785  0.0000
                                      0.6785  1.0000  0.0000
                                      0.0000  0.0000  1.0000
:ANG006:  ANGLE WITH OLD X-AXIS =        34.2

:ETA006:                         ASYMM. ETA =     0.04438


       ATOMNUMBER=  7 Pu  0+     VCOUL-ZERO =  0.44185E+00
:EFG007:                        EFG         =   -18.05230   *10**21  V / m**2
                               V20  TOT/SRF=     7.74108    -0.00373
                               V22  TOT/SRF=    10.36822     0.05188
                               V22M TOT/SRF=     8.77482     0.00819
                               V21  TOT/SRF=     0.00000     0.00000
                               V21M TOT/SRF=     0.00000     0.00000

              5.89890    8.77482    0.00000        9.11367    0.00000    0.00000
              8.77482  -14.83753    0.00000        0.00000  -18.05230    0.00000
              0.00000    0.00000    8.93863        0.00000    0.00000    8.93863

         MAIN DIRECTIONS OF THE EFG   1.0000 -0.3664  0.0000
                                      0.3664  1.0000  0.0000
                                      0.0000  0.0000  1.0000
:ANG007:  ANGLE WITH OLD X-AXIS =        20.1

:ETA007:                         ASYMM. ETA =     0.00970


       ATOMNUMBER=  8 Pu  0+     VCOUL-ZERO =  0.44010E+00
:EFG008:                        EFG         =   -41.83468   *10**21  V / m**2
                               V20  TOT/SRF=    12.12098     0.02166
                               V22  TOT/SRF=   -34.55700    -0.02953
                               V22M TOT/SRF=     4.40504    -0.00133
                               V21  TOT/SRF=     0.00000     0.00000
                               V21M TOT/SRF=     0.00000     0.00000

            -41.55505    4.40504    0.00000      -41.83468    0.00000    0.00000
              4.40504   27.55895    0.00000        0.00000   27.83857    0.00000
              0.00000    0.00000   13.99610        0.00000    0.00000   13.99610

         MAIN DIRECTIONS OF THE EFG   1.0000  0.0635  0.0000
                                     -0.0635  1.0000  0.0000
                                      0.0000  0.0000  1.0000
:ANG008:  ANGLE WITH OLD X-AXIS =         3.6

:ETA008:                         ASYMM. ETA =     0.33089


     HELLMANN-FEYNMAN-FORCE IN mRy/a.u. = |F|  Fx       Fy             Fz
:FHF001:   1.ATOM       3169.291       2964.141       1121.729          0.000

     HELLMANN-FEYNMAN-FORCE IN mRy/a.u. = |F|  Fx       Fy             Fz
:FHF002:   2.ATOM       1318.936       -203.622       1303.123          0.000

     HELLMANN-FEYNMAN-FORCE IN mRy/a.u. = |F|  Fx       Fy             Fz
:FHF003:   3.ATOM       5532.455       4078.708       3737.941          0.000

     HELLMANN-FEYNMAN-FORCE IN mRy/a.u. = |F|  Fx       Fy             Fz
:FHF004:   4.ATOM       3047.236      -2989.798       -588.861          0.000

     HELLMANN-FEYNMAN-FORCE IN mRy/a.u. = |F|  Fx       Fy             Fz
:FHF005:   5.ATOM       1890.771        966.312       1625.194          0.000

     HELLMANN-FEYNMAN-FORCE IN mRy/a.u. = |F|  Fx       Fy             Fz
:FHF006:   6.ATOM       5292.881       4338.765       3031.452          0.000

     HELLMANN-FEYNMAN-FORCE IN mRy/a.u. = |F|  Fx       Fy             Fz
:FHF007:   7.ATOM       5124.978      -3536.046       3709.687          0.000

     HELLMANN-FEYNMAN-FORCE IN mRy/a.u. = |F|  Fx       Fy             Fz
:FHF008:   8.ATOM        968.701        899.117        360.514          0.000

:FIT001: LUSE= 13 SIGMA OF V-XC FIT FOR ATOM  1  0.1639335E-03
:FIT001: LUSE= 13 SIGMA OF V-XC FIT FOR ATOM  1  0.1639335E-03
:FIT002: LUSE= 13 SIGMA OF V-XC FIT FOR ATOM  2  0.9052344E-04
:FIT002: LUSE= 13 SIGMA OF V-XC FIT FOR ATOM  2  0.9052344E-04
:FIT003: LUSE= 13 SIGMA OF V-XC FIT FOR ATOM  3  0.9719034E-04
:FIT003: LUSE= 13 SIGMA OF V-XC FIT FOR ATOM  3  0.9719034E-04
:FIT004: LUSE= 13 SIGMA OF V-XC FIT FOR ATOM  4  0.1002633E-03
:FIT004: LUSE= 13 SIGMA OF V-XC FIT FOR ATOM  4  0.1002633E-03
:FIT005: LUSE= 13 SIGMA OF V-XC FIT FOR ATOM  5  0.7985350E-04
:FIT005: LUSE= 13 SIGMA OF V-XC FIT FOR ATOM  5  0.7985350E-04
:FIT006: LUSE= 13 SIGMA OF V-XC FIT FOR ATOM  6  0.6028062E-04
:FIT006: LUSE= 13 SIGMA OF V-XC FIT FOR ATOM  6  0.6028062E-04
:FIT007: LUSE= 13 SIGMA OF V-XC FIT FOR ATOM  7  0.1718174E-03
:FIT007: LUSE= 13 SIGMA OF V-XC FIT FOR ATOM  7  0.1718174E-03
:FIT008: LUSE= 13 SIGMA OF V-XC FIT FOR ATOM  8  0.3859919E-04
:FIT008: LUSE= 13 SIGMA OF V-XC FIT FOR ATOM  8  0.3859919E-04
:DEN  : DENSITY INTEGRAL  =       -350359.74250690   (Ry)
       ELS_POTENTIAL_AT Z=0 and Z=0.5:   0.91619   0.44751
       ELS_POTENTIAL_AT Y=0 and Y=0.5:   1.13759   1.13759
:VZERO:v0,v0c,v0x   0.10805   0.91619  -0.80814 v5,v5c,v5x  -0.41837   0.44751  -0.86588
:VZERY:v0,v0c,v0x   0.37492   1.13759  -0.76267 v5,v5c,v5x   0.37492   1.13759  -0.76267
:VZERX:v0,v0c,v0x  -0.76623   0.13762  -0.90385 v5,v5c,v5x  -0.67931   0.21384  -0.89315

------- alpha_Pu_6.scf1 --------

          ATOMIC SPHERE DEPENDENT PARAMETERS FOR ATOM  Pu  0+    
:e__0001: OVERALL ENERGY PARAMETER IS    1.0581
          OVERALL BASIS SET ON ATOM IS LAPW
:E0_0001: E( 0)=    1.0581
             APW+lo
:E0_0001: E( 0)=   -2.1470   E(BOTTOM)=   -2.920   E(TOP)=   -1.374
             LOCAL ORBITAL
:E1_0001: E( 1)=   -1.2220   E(BOTTOM)=   -1.222   E(TOP)= -200.000
             APW+lo
:E1_0001: E( 1)=    1.0581
             LOCAL ORBITAL
:E3_0001: E( 3)=    1.0581   E(BOTTOM)=    0.818   E(TOP)= -200.000
             APW+lo
:E2_0001: E( 2)=    1.0581   E(BOTTOM)=    0.983   E(TOP)= -200.000
             APW+lo

          ATOMIC SPHERE DEPENDENT PARAMETERS FOR ATOM  Pu  0+    
:e__0002: OVERALL ENERGY PARAMETER IS    1.0581
          OVERALL BASIS SET ON ATOM IS LAPW
:E0_0002: E( 0)=    1.0581
             APW+lo
:E0_0002: E( 0)=   -2.1470   E(BOTTOM)=   -2.919   E(TOP)=   -1.375
             LOCAL ORBITAL
:E1_0002: E( 1)=   -1.2200   E(BOTTOM)=   -1.220   E(TOP)= -200.000
             APW+lo
:E1_0002: E( 1)=    1.0581
             LOCAL ORBITAL
:E3_0002: E( 3)=    1.0581   E(BOTTOM)=    0.818   E(TOP)= -200.000
             APW+lo
:E2_0002: E( 2)=    1.0581   E(BOTTOM)=    0.983   E(TOP)= -200.000
             APW+lo

          ATOMIC SPHERE DEPENDENT PARAMETERS FOR ATOM  Pu  0+    
:e__0003: OVERALL ENERGY PARAMETER IS    1.0581
          OVERALL BASIS SET ON ATOM IS LAPW
:E0_0003: E( 0)=    1.0581
             APW+lo
:E0_0003: E( 0)=   -2.1450   E(BOTTOM)=   -2.917   E(TOP)=   -1.373
             LOCAL ORBITAL
:E1_0003: E( 1)=   -1.2180   E(BOTTOM)=   -1.218   E(TOP)= -200.000
             APW+lo
:E1_0003: E( 1)=    1.0581
             LOCAL ORBITAL
:E3_0003: E( 3)=    1.0581   E(BOTTOM)=    0.818   E(TOP)= -200.000
             APW+lo
:E2_0003: E( 2)=    1.0581   E(BOTTOM)=    0.988   E(TOP)= -200.000
             APW+lo

          ATOMIC SPHERE DEPENDENT PARAMETERS FOR ATOM  Pu  0+    
:e__0004: OVERALL ENERGY PARAMETER IS    1.0581
          OVERALL BASIS SET ON ATOM IS LAPW
:E0_0004: E( 0)=    1.0581
             APW+lo
:E0_0004: E( 0)=   -2.1460   E(BOTTOM)=   -2.918   E(TOP)=   -1.374
             LOCAL ORBITAL
:E1_0004: E( 1)=   -1.2180   E(BOTTOM)=   -1.218   E(TOP)= -200.000
             APW+lo
:E1_0004: E( 1)=    1.0581
             LOCAL ORBITAL
:E3_0004: E( 3)=    1.0581   E(BOTTOM)=    0.818   E(TOP)= -200.000
             APW+lo
:E2_0004: E( 2)=    1.0581   E(BOTTOM)=    0.988   E(TOP)= -200.000
             APW+lo

          ATOMIC SPHERE DEPENDENT PARAMETERS FOR ATOM  Pu  0+    
:e__0005: OVERALL ENERGY PARAMETER IS    1.0581
          OVERALL BASIS SET ON ATOM IS LAPW
:E0_0005: E( 0)=    1.0581
             APW+lo
:E0_0005: E( 0)=   -2.1455   E(BOTTOM)=   -2.917   E(TOP)=   -1.374
             LOCAL ORBITAL
:E1_0005: E( 1)=   -1.2180   E(BOTTOM)=   -1.218   E(TOP)= -200.000
             APW+lo
:E1_0005: E( 1)=    1.0581
             LOCAL ORBITAL
:E3_0005: E( 3)=    1.0581   E(BOTTOM)=    0.818   E(TOP)= -200.000
             APW+lo
:E2_0005: E( 2)=    1.0581   E(BOTTOM)=    0.988   E(TOP)= -200.000
             APW+lo

          ATOMIC SPHERE DEPENDENT PARAMETERS FOR ATOM  Pu  0+    
:e__0006: OVERALL ENERGY PARAMETER IS    1.0581
          OVERALL BASIS SET ON ATOM IS LAPW
:E0_0006: E( 0)=    1.0581
             APW+lo
:E0_0006: E( 0)=   -2.1465   E(BOTTOM)=   -2.918   E(TOP)=   -1.375
             LOCAL ORBITAL
:E1_0006: E( 1)=   -1.2180   E(BOTTOM)=   -1.218   E(TOP)= -200.000
             APW+lo
:E1_0006: E( 1)=    1.0581
             LOCAL ORBITAL
:E3_0006: E( 3)=    1.0581   E(BOTTOM)=    0.818   E(TOP)= -200.000
             APW+lo
:E2_0006: E( 2)=    1.0581   E(BOTTOM)=    0.988   E(TOP)= -200.000
             APW+lo

          ATOMIC SPHERE DEPENDENT PARAMETERS FOR ATOM  Pu  0+    
:e__0007: OVERALL ENERGY PARAMETER IS    1.0581
          OVERALL BASIS SET ON ATOM IS LAPW
:E0_0007: E( 0)=    1.0581
             APW+lo
:E0_0007: E( 0)=   -2.1450   E(BOTTOM)=   -2.917   E(TOP)=   -1.373
             LOCAL ORBITAL
:E1_0007: E( 1)=   -1.2180   E(BOTTOM)=   -1.218   E(TOP)= -200.000
             APW+lo
:E1_0007: E( 1)=    1.0581
             LOCAL ORBITAL
:E3_0007: E( 3)=    1.0581   E(BOTTOM)=    0.818   E(TOP)= -200.000
             APW+lo
:E2_0007: E( 2)=    1.0581   E(BOTTOM)=    0.988   E(TOP)= -200.000
             APW+lo

          ATOMIC SPHERE DEPENDENT PARAMETERS FOR ATOM  Pu  0+    
:e__0008: OVERALL ENERGY PARAMETER IS    1.0581
          OVERALL BASIS SET ON ATOM IS LAPW
:E0_0008: E( 0)=    1.0581
             APW+lo
:E0_0008: E( 0)=   -2.1445   E(BOTTOM)=   -2.916   E(TOP)=   -1.373
             LOCAL ORBITAL
:E1_0008: E( 1)=   -1.2160   E(BOTTOM)=   -1.216   E(TOP)= -200.000
             APW+lo
:E1_0008: E( 1)=    1.0581
             LOCAL ORBITAL
:E3_0008: E( 3)=    1.0581   E(BOTTOM)=    0.823   E(TOP)= -200.000
             APW+lo
:E2_0008: E( 2)=    1.0581   E(BOTTOM)=    0.988   E(TOP)= -200.000
             APW+lo

       K=   0.00000   0.00000   0.00000            1
:RKM  : MATRIX SIZE 2797LOs: 320  RKM= 8.50  WEIGHT= 1.00  PGR:    
       EIGENVALUES ARE:
:EIG00001:      -2.1542198   -2.1407330   -2.1376523   -2.1262557   -2.1166385
:EIG00006:      -2.1140321   -2.1070629   -2.1030010   -2.1023261   -2.0928769
:EIG00011:      -2.0882613   -2.0861528   -2.0767784   -2.0758409   -2.0711253
:EIG00016:      -2.0648825   -0.3264429   -0.3242124   -0.3216918   -0.2974999
:EIG00021:      -0.2969669   -0.2870076   -0.2848943   -0.2829700   -0.2559111
:EIG00026:      -0.2483331   -0.2467937   -0.2321973   -0.2312356   -0.2185567
:EIG00031:      -0.2174303   -0.2168894   -0.2139739   -0.2111553   -0.1927431
:EIG00036:      -0.1881579   -0.1594141   -0.1586741   -0.1211308   -0.1104985
:EIG00041:      -0.1055769   -0.0920894   -0.0697807   -0.0664684   -0.0466271
:EIG00046:      -0.0457867   -0.0356327   -0.0272994   -0.0214162   -0.0200174
 
:EIG00051:      -0.0192445   -0.0129515    0.0015321    0.0045332    0.0080225
:EIG00056:       0.0081289    0.0214823    0.0256834    0.0264098    0.0269800
:EIG00061:       0.0339629    0.0393379    0.0591577    0.0626025    0.9274051
:EIG00066:       1.0757438    1.0812104    1.0822583    1.0892216    1.0927918
:EIG00071:       1.0972436    1.1088233    1.1118800    1.1135991    1.1338046
:EIG00076:       1.1355085    1.1377089    1.1437976    1.1507454    1.1529183
:EIG00081:       1.1668384    1.1677915    1.1836851    1.1868365    1.1950851
:EIG00086:       1.1997652    1.2019244    1.2097540    1.2109552    1.2121828
:EIG00091:       1.2142777    1.2179258    1.2201588    1.2243591    1.2259847
:EIG00096:       1.2272362    1.2277005    1.2299745    1.2310301    1.2341521
 
:EIG00101:       1.2349717    1.2350795    1.2353553    1.2361762    1.2363350
:EIG00106:       1.2383904    1.2423875    1.2431230    1.2437030    1.2447129
:EIG00111:       1.2491682    1.2499632    1.2503581    1.2566754    1.2584850
:EIG00116:       1.2601040    1.2610863    1.2635046    1.2637301    1.2707500
:EIG00121:       1.2730287    1.2735472    1.2772900    1.2794838    1.2844193
:EIG00126:       1.2880725    1.2882630    1.2886277    1.2923097    1.2991272
:EIG00131:       1.3056859    1.3113035    1.3149366    1.3165015    1.3165150
:EIG00136:       1.3196527    1.3209757    1.3220815    1.3229829    1.3261174
:EIG00141:       1.3290364    1.3293681    1.3307125    1.3309966    1.3311112
:EIG00146:       1.3333654    1.3379678    1.3406019    1.3430680    1.3439610
 
:EIG00151:       1.3450136    1.3480276    1.3508141    1.3531939    1.3542018
:EIG00156:       1.3561656    1.3575558    1.3584328    1.3587501    1.3605907
:EIG00161:       1.3610664    1.3630311    1.3656887    1.3658610    1.3674137
:EIG00166:       1.3678050    1.3681344    1.3699836    1.3717652    1.3745518
:EIG00171:       1.3765418    1.3780047    1.3789540    1.3794196    1.3808632
:EIG00176:       1.3827900    1.3850503    1.3866609    1.3868440    1.3870984
:EIG00181:       1.3876634    1.3885923    1.3953881    1.3996934    1.3998825
:EIG00186:       1.4019655    1.4025593    1.4029613    1.4038538    1.4101947
:EIG00191:       1.4110208    1.4124593    1.4129031    1.4131281    1.4190598
:EIG00196:       1.4236944    1.4424926    1.4516920    1.4601256    1.4733404
 
:EIG00201:       1.4756955    1.4891152    1.4952440    1.4955362    1.5014475
:EIG00206:       1.5068145    1.5123050    1.5256257    1.5303131    1.5309008
:EIG00211:       1.5393329    1.5434490    1.5444458    1.5498503    1.5718209
:EIG00216:       1.5867745    1.5884217    1.6144781    1.6338595    1.6475601
:EIG00221:       1.6623349    1.6669490    1.6701582    1.6822689    1.6925369
:EIG00226:       1.7049613    1.7057533    1.7072960    1.7314118    1.7356671
:EIG00231:       1.7530414    1.7636242    1.7955271    1.8092035    1.8105418
:EIG00236:       1.8244549    1.8263552    1.8289750    1.8479491    1.8638985
:EIG00241:       1.8745259    1.8770956    1.8828555    1.9121876    1.9141394
:EIG00246:       1.9294750    1.9341857    1.9583358    1.9609996    1.9692243
 
:EIG00251:       1.9763306    1.9856430    1.9857038    1.9992051    2.0067421
:EIG00256:       2.0136530    2.0400196    2.0553234    2.0553865    2.0632228
:EIG00261:       2.0921612    2.1097952    2.1476376    2.1489568    2.1886218
:EIG00266:       2.2311057    2.2487974    2.2700009    2.3032000    2.3103347
:EIG00271:       2.3126602    2.3174863    2.3297827    2.3317812    2.3417343
:EIG00276:       2.3566124    2.3650714    2.3697490    2.3806301    2.4067529
:EIG00281:       2.4185099    2.4425596    2.4469491    2.4830557    2.4858216
:EIG00286:       2.4909562    2.4912230    2.4959485    2.5224979    2.5429109
:EIG00291:       2.5511044    2.5729147    2.5794663    2.5877675    2.5969877
:EIG00296:       2.6078941    2.6394248    2.6705791    2.6731505    2.6755765
 
:EIG00301:       2.6878157    2.6917751    2.7196608    2.7201720    2.7324985
:EIG00306:       2.7585593    2.7626434    2.7690674    2.7875723    2.7933352
:EIG00311:       2.7971915    2.8079357    2.8152963    2.8263586    2.8445309
:EIG00316:       2.8521826    2.8580195    2.8615335    2.8626393    2.9095971
:EIG00321:       2.9098758    2.9174489    2.9181225    2.9346692    2.9389273
:EIG00326:       2.9442443    2.9469926    2.9646860    2.9739131    2.9789926
:EIG00331:       2.9907918    2.9992979    3.0138952    3.0171350    3.0334525
:EIG00336:       3.0417682    3.0563893    3.0643049    3.0823347    3.0941333
:EIG00341:       3.1001032    3.1006423    3.1083584    3.1303189    3.1306278
:EIG00346:       3.1508542    3.1509693    3.1638762    3.1758491    3.1907517
 
:EIG00351:       3.1949516    3.1962231    3.2229409    3.2259335    3.2414139
:EIG00356:       3.2734366    3.2786229    3.2840159    3.2935122    3.2996447
:EIG00361:       3.3011158    3.3091526    3.3210947    3.3210972    3.3386223
:EIG00366:       3.3471252    3.3498317    3.3633627    3.3885794    3.3997521
:EIG00371:       3.4022243    3.4023090    3.4182950    3.4270803    3.4504873
:EIG00376:       3.4662640    3.4677860    3.4875094    3.4883634    3.4909668
:EIG00381:       3.4936328    3.5085565    3.5108075    3.5160049    3.5485576
:EIG00386:       3.5642516    3.5780542    3.5900125    3.5901795    3.5926189
:EIG00391:       3.5940730    3.6052956    3.6157294    3.6311381    3.6364496
:EIG00396:       3.6492066    3.6825603    3.6893377    3.6899532    3.6903912
 
:EIG00401:       3.7027811    3.7057865    3.7309066    3.7412432    3.7508152
:EIG00406:       3.7544640    3.7545072    3.7755853    3.7808093    3.7868983
:EIG00411:       3.7997789    3.8066519    3.8189446    3.8300447    3.8312449
:EIG00416:       3.8413846    3.8564485    3.8598658    3.8718718    3.8819545
:EIG00421:       3.8946355    3.8963201    3.9108679    3.9307302    3.9404500
:EIG00426:       3.9477795    3.9519036    3.9605536    3.9653663    3.9667135
:EIG00431:       3.9776159    3.9955995    3.9974230    4.0052680    4.0164319
:EIG00436:       4.0221859    4.0232183    4.0262269    4.0309609    4.0475876
:EIG00441:       4.0497979    4.0582135    4.0654920    4.0681548    4.0705136
:EIG00446:       4.0973228    4.0989682    4.0990022    4.1051849    4.1102930
 
:EIG00451:       4.1134848    4.1364113    4.1483385    4.1502285    4.1626229
:EIG00456:       4.1641911    4.1664394    4.1702215    4.1882915    4.2039214
:EIG00461:       4.2202275    4.2317325    4.2377062    4.2501874    4.2589324
:EIG00466:       4.2596200    4.2742567    4.3018333    4.3046894    4.3111629
:EIG00471:       4.3155189    4.3243383    4.3352855    4.3449532    4.3599033
:EIG00476:       4.3700996    4.3750005    4.3869137    4.3975200    4.3990036
:EIG00481:       4.4036986    4.4120025    4.4142173    4.4150493    4.4266271
:EIG00486:       4.4331451    4.4397758    4.4449278    4.4463950    4.4666898
:EIG00491:       4.4730386    4.4776254    4.4888689    4.4922032    4.4930261
:EIG00496:       4.5075966    4.5093455    4.5095698    4.5189070    4.5236678
 
:EIG00501:       4.5300033    4.5309706    4.5319616    4.5324097    4.5466675
:EIG00506:       4.5494535    4.5550153    4.5595240    4.5749072    4.5793066
:EIG00511:       4.5908180    4.5974889    4.6046068    4.6122219    4.6171177
:EIG00516:       4.6206077    4.6346451    4.6376397    4.6389460    4.6392843
:EIG00521:       4.6461029    4.6494089    4.6503049    4.6520789    4.6677752
:EIG00526:       4.6738030    4.6884378    4.6978456    4.7085927    4.7188427
:EIG00531:       4.7243048    4.7290871    4.7331195    4.7629878    4.7688809
:EIG00536:       4.7809743    4.7871761    4.7997774    4.8000804    4.8213431
:EIG00541:       4.8287281    4.8303590    4.8347647    4.8434239    4.8547136
:EIG00546:       4.8704396    4.8752255    4.8827071    4.8863236    4.8877159
 
:EIG00551:       4.8934343    4.8967103    4.8969588    4.9102757    4.9157198
:EIG00556:       4.9180270    4.9284953    4.9299843    4.9526131    4.9648865
:EIG00561:       4.9715011    4.9718461    4.9786843    4.9805785    4.9840814
:EIG00566:       4.9867774    4.9931246    5.0023544    5.0072982    5.0094268
:EIG00571:       5.0273493    5.0361965    5.0405784    5.0431067    5.0528140
:EIG00576:       5.0540572    5.0602201    5.0707251    5.0761280    5.0763797
:EIG00581:       5.0875470    5.0933838    5.0973653    5.1050182    5.1190493
:EIG00586:       5.1224400    5.1254562    5.1293375    5.1417123    5.1473985
:EIG00591:       5.1483487    5.1624156    5.1718139    5.1736486    5.1817717
:EIG00596:       5.1838580    5.1921057    5.2116723    5.2186984    5.2261699
 
:EIG00601:       5.2267513    5.2341091    5.2442898    5.2470788    5.2650165
:EIG00606:       5.2653254    5.2666621    5.2691126    5.2695781    5.2734152
:EIG00611:       5.2864503    5.2905785    5.2995565    5.3047058    5.3127131
:EIG00616:       5.3254772    5.3336634    5.3343519    5.3424434    5.3438856
:EIG00621:       5.3669900    5.3752423    5.3772109    5.3818538    5.3930740
:EIG00626:       5.4103380    5.4123035    5.4278041    5.4401760    5.4422333
:EIG00631:       5.4459028    5.4481335    5.4642856    5.4643205    5.4721985
:EIG00636:       5.4765570    5.4808744    5.4837747    5.4962719    5.5024871
:EIG00641:       5.5069440    5.5218755    5.5254173    5.5330131    5.5426289
:EIG00646:       5.5452590    5.5477791    5.5534552    5.5587401    5.5697711
 
:EIG00651:       5.5871950    5.6016905    5.6062595    5.6110689    5.6118214
:EIG00656:       5.6157689    5.6295092    5.6325881    5.6359397    5.6458415
:EIG00661:       5.6466196    5.6617532    5.6707608    5.6720004    5.6891101
:EIG00666:       5.6983814    5.7026592    5.7135168    5.7170324    5.7303446
:EIG00671:       5.7313653    5.7625699    5.7629102    5.7721156    5.7781729
:EIG00676:       5.7871424    5.7906190    5.8107062    5.8249183    5.8258294
:EIG00681:       5.8280533    5.8407556    5.8425708    5.8507977    5.8689073
:EIG00686:       5.8716615    5.8742734    5.8993856    5.9010946    5.9080194
:EIG00691:       5.9094451    5.9243862    5.9244223    5.9297150    5.9334951
:EIG00696:       5.9551227    5.9556618    5.9597997    5.9624272    5.9680861
 
:EIG00701:       5.9852782    5.9987342    5.9991833    6.0232241    6.0300446
:EIG00706:       6.0360172    6.0407089    6.0411071    6.0470172    6.0595570
:EIG00711:       6.0655003    6.0660323    6.0706118    6.0796763    6.0861961
:EIG00716:       6.1019684    6.1186445    6.1266641    6.1324547    6.1447415
:EIG00721:       6.1482706    6.1503701    6.1588865    6.1664993    6.1670892
:EIG00726:       6.1814494    6.1821479    6.1875750    6.1885741    6.1902767
:EIG00731:       6.1909479    6.1954539    6.1988957    6.2156986    6.2272265
:EIG00736:       6.2335705    6.2349033    6.2532446    6.2610932    6.2659198
:EIG00741:       6.2719491    6.2737407    6.2742981    6.2787771    6.2872028
:EIG00746:       6.2927921    6.3067549    6.3163283    6.3266832    6.3302763
 
:EIG00751:       6.3393176    6.3396269    6.3522414    6.3574271    6.3595960
:EIG00756:       6.3656263    6.3755140    6.3926783    6.3956095    6.3970092
:EIG00761:       6.4058010    6.4096763    6.4147285    6.4195986    6.4264544
:EIG00766:       6.4468981    6.4531725    6.4532346    6.4668687    6.4777223
:EIG00771:       6.4840159    6.4928989    6.5008041    6.5052069    6.5123086
:EIG00776:       6.5219230    6.5326486    6.5349182    6.5370618    6.5375314
:EIG00781:       6.5460394    6.5563657    6.5598833    6.5626741    6.5833276
:EIG00786:       6.5841450    6.5887591    6.5960151    6.5975449    6.6037804
:EIG00791:       6.6098727    6.6218658    6.6321692    6.6438612    6.6473335
:EIG00796:       6.6503850    6.6532046    6.6583659    6.6594884    6.6854640
 
:EIG00801:       6.6882459    6.6883058    6.6970783    6.7015253    6.7152329
:EIG00806:       6.7165824    6.7199550    6.7201259    6.7272335    6.7411222
:EIG00811:       6.7491792    6.7579093    6.7659774    6.7660604    6.7706700
:EIG00816:       6.7759939    6.7880463    6.7938393    6.8026046    6.8047852
:EIG00821:       6.8105765    6.8283190    6.8318606    6.8375084    6.8459471
:EIG00826:       6.8524315    6.8629970    6.8639061    6.8672192    6.8683246
:EIG00831:       6.8832009    6.8865278    6.8896273    6.8971251    6.9081328
:EIG00836:       6.9082689    6.9129611    6.9260313    6.9444524    6.9565817
:EIG00841:       6.9597087    6.9653890    6.9730101    6.9737977    6.9750941
:EIG00846:       6.9792682    6.9855490    6.9949791    6.9951322    6.9996510
 
:EIG00851:       7.0129798    7.0169368    7.0188787    7.0266078    7.0418144
:EIG00856:       7.0621622    7.0700258    7.0707458    7.0808182    7.0842483
:EIG00861:       7.0900764    7.0976515    7.0979795    7.1073320    7.1115533
:EIG00866:       7.1157883    7.1234703    7.1399998    7.1402463    7.1463165
:EIG00871:       7.1492312    7.1552385    7.1610571    7.1683295    7.1687981
:EIG00876:       7.1766713    7.1859031    7.1888160    7.1889190    7.1956240
:EIG00881:       7.2121394    7.2239198    7.2270728    7.2398656    7.2438911
:EIG00886:       7.2544900    7.2585308    7.2600614    7.2701170    7.2755441
:EIG00891:       7.2823710    7.2923966    7.3020277    7.3083485    7.3090919
:EIG00896:       7.3164348    7.3218673    7.3281892    7.3296155    7.3410289
 
:EIG00901:       7.3415527    7.3444598    7.3483084    7.3611920    7.3612673
:EIG00906:       7.3638589    7.3738788    7.3759031    7.3787774    7.3892968
:EIG00911:       7.3962157    7.4031181    7.4115756    7.4224976    7.4266765
:EIG00916:       7.4333184    7.4357726    7.4371992    7.4394245    7.4549395
:EIG00921:       7.4572141    7.4585364    7.4654707    7.4682473    7.4686644
:EIG00926:       7.4911076    7.4950660    7.4951075
       ********************************************************

:KPT   :      NUMBER OF K-POINTS:    272

------- alpha_Pu_6.scfso --------
   0.0   0.0 angle (M,z), angle (M,x) deg
 
        SPIN-ORBIT EIGENVALUES:
     K=   0.00000   0.00000   0.00000            1
      MATRIX SIZE= 1856   WEIGHT= 1.00
     EIGENVALUES ARE:
          -2.1542270   -2.1542270   -2.1407485   -2.1407485   -2.1376689
          -2.1376689   -2.1262762   -2.1262762   -2.1166519   -2.1166519
          -2.1140520   -2.1140520   -2.1070788   -2.1070788   -2.1030152
          -2.1030152   -2.1023311   -2.1023311   -2.0928932   -2.0928932
          -2.0882842   -2.0882842   -2.0861687   -2.0861687   -2.0767950
          -2.0767950   -2.0758545   -2.0758545   -2.0711372   -2.0711372
          -2.0648980   -2.0648980   -0.6172442   -0.6172442   -0.6154454
          -0.6154454   -0.6019504   -0.6019504   -0.6002810   -0.6002810

          -0.5975399   -0.5975399   -0.5898880   -0.5898880   -0.5889212
          -0.5889212   -0.5750725   -0.5750725   -0.5652917   -0.5652917
          -0.5648565   -0.5648565   -0.5591124   -0.5591124   -0.5587649
          -0.5587649   -0.5501139   -0.5501139   -0.5097573   -0.5097573
          -0.4989361   -0.4989361   -0.4606049   -0.4606049   -0.1156041
          -0.1156041   -0.0934789   -0.0934789   -0.0870168   -0.0870168
          -0.0861348   -0.0861348   -0.0736436   -0.0736436   -0.0667091
          -0.0667091   -0.0593386   -0.0593386   -0.0516706   -0.0516706

          -0.0278071   -0.0278071   -0.0218790   -0.0218790   -0.0164425
          -0.0164425   -0.0125337   -0.0125337    0.0079549    0.0079549
           0.0198113    0.0198113    0.0206944    0.0206944    0.0356669
           0.0356669    0.0654480    0.0654480    0.0774192    0.0774192
           0.0924713    0.0924713    0.1174554    0.1174554    0.1230332
           0.1230332    0.1292831    0.1292831    0.1479533    0.1479533
           0.1622776    0.1622776    0.1713557    0.1713557    0.1741426
           0.1741426    0.1873894    0.1873894    0.1953408    0.1953408

           0.2085536    0.2085536    0.2274672    0.2274672    0.2315228
           0.2315228    0.2366106    0.2366106    0.9274091    0.9274091
           1.0734997    1.0734997    1.0802490    1.0802490    1.0823242
           1.0823242    1.0879801    1.0879801    1.0896229    1.0896229
           1.0932028    1.0932028    1.1100972    1.1100972    1.1117935
           1.1117935    1.1119240    1.1119240    1.1308191    1.1308191
           1.1320846    1.1320846    1.1375167    1.1375167    1.1390009
           1.1390009    1.1499298    1.1499298    1.1529745    1.1529745

           1.1656833    1.1656833    1.1657570    1.1657570    1.1756831
           1.1756831    1.1804006    1.1804006    1.1872954    1.1872954
           1.1876976    1.1876976    1.1997320    1.1997320    1.1997829
           1.1997829    1.2050432    1.2050432    1.2061665    1.2061665
           1.2070133    1.2070133    1.2093886    1.2093886    1.2134083
           1.2134083    1.2161725    1.2161725    1.2169015    1.2169015
           1.2196237    1.2196237    1.2198915    1.2198915    1.2220144
           1.2220144    1.2238242    1.2238242    1.2245600    1.2245600

           1.2249587    1.2249587    1.2265241    1.2265241    1.2291993
           1.2291993    1.2293285    1.2293285    1.2324939    1.2324939
           1.2336435    1.2336435    1.2342455    1.2342455    1.2357827
           1.2357827    1.2379102    1.2379102    1.2382270    1.2382270
           1.2404388    1.2404388    1.2413219    1.2413219    1.2459961
           1.2459961    1.2465220    1.2465220    1.2471810    1.2471810
           1.2503822    1.2503822    1.2505471    1.2505471    1.2521478
           1.2521478    1.2549018    1.2549018    1.2552080    1.2552080

           1.2614520    1.2614520    1.2618272    1.2618272    1.2660753
           1.2660753    1.2676882    1.2676882    1.2704324    1.2704324
           1.2710408    1.2710408    1.2726169    1.2726169    1.2757173
           1.2757173    1.2784581    1.2784581    1.2830589    1.2830589
           1.2859925    1.2859925    1.2913834    1.2913834    1.2929868
           1.2929868    1.2944813    1.2944813    1.2978785    1.2978785
           1.3025181    1.3025181    1.3092818    1.3092818    1.3167324
           1.3167324    1.3179586    1.3179586    1.3224979    1.3224979

           1.3287932    1.3287932    1.3336455    1.3336455    1.3350491
           1.3350491    1.3368635    1.3368635    1.3402435    1.3402435
           1.3429349    1.3429349    1.3430282    1.3430282    1.3444418
           1.3444418    1.3492364    1.3492364    1.3494429    1.3494429
           1.3535206    1.3535206    1.3544404    1.3544404    1.3567843
           1.3567843    1.3586503    1.3586503    1.3600307    1.3600307
           1.3627098    1.3627098    1.3635576    1.3635576    1.3642721
           1.3642721    1.3668563    1.3668563    1.3674510    1.3674510

           1.3691134    1.3691134    1.3709976    1.3709976    1.3723934
           1.3723934    1.3728389    1.3728389    1.3747065    1.3747065
           1.3759341    1.3759341    1.3777712    1.3777712    1.3789581
           1.3789581    1.3793897    1.3793897    1.3813011    1.3813011
           1.3837900    1.3837900    1.3869467    1.3869467    1.3874725
           1.3874725    1.3892241    1.3892241    1.3922763    1.3922763
           1.3927458    1.3927458    1.3950665    1.3950665    1.3961556
           1.3961556    1.3977607    1.3977607    1.3988026    1.3988026

           1.4003222    1.4003222    1.4017185    1.4017185    1.4022425
           1.4022425    1.4045972    1.4045972    1.4076563    1.4076563
           1.4085002    1.4085002    1.4094226    1.4094226    1.4138487
           1.4138487    1.4165561    1.4165561    1.4176514    1.4176514
           1.4182861    1.4182861    1.4206426    1.4206426    1.4227832
           1.4227832    1.4247517    1.4247517    1.4250316    1.4250316
           1.4376329    1.4376329    1.4499246    1.4499246    1.4618266
           1.4618266    1.4659470    1.4659470    1.4667063    1.4667063

           1.4853421    1.4853421    1.4902078    1.4902078    1.4973525
           1.4973525    1.5049046    1.5049046    1.5073913    1.5073913
           1.5105683    1.5105683    1.5182028    1.5182028    1.5264067
           1.5264067    1.5282891    1.5282891    1.5405537    1.5405537
           1.5431479    1.5431479    1.5474790    1.5474790    1.5501674
           1.5501674    1.5578678    1.5578678    1.5711455    1.5711455
           1.5934110    1.5934110    1.5963176    1.5963176    1.6171060
           1.6171060    1.6352633    1.6352633    1.6467687    1.6467687

           1.6559106    1.6559106    1.6672468    1.6672468    1.6799429
           1.6799429    1.6867060    1.6867060    1.6888634    1.6888634
           1.7043109    1.7043109    1.7114716    1.7114716    1.7120077
           1.7120077    1.7322598    1.7322598    1.7326169    1.7326169
           1.7582371    1.7582371    1.7619405    1.7619405    1.7958031
           1.7958031    1.8084670    1.8084670    1.8120295    1.8120295
           1.8234915    1.8234915    1.8241789    1.8241789    1.8301621
           1.8301621    1.8546069    1.8546069    1.8592488    1.8592488

           1.8648427    1.8648427    1.8813655    1.8813655    1.8870137
           1.8870137    1.9118651    1.9118651    1.9161189    1.9161189
           1.9247051    1.9247051    1.9354962    1.9354962    1.9537117
           1.9537117    1.9567233    1.9567233    1.9670000    1.9670000
           1.9723778    1.9723778    1.9826300    1.9826300    1.9933298
           1.9933298    1.9990296    1.9990296    2.0088385    2.0088385
           2.0238698    2.0238698    2.0374658    2.0374658    2.0559404
           2.0559404    2.0590949    2.0590949    2.0679276    2.0679276

           2.0960936    2.0960936    2.1092022    2.1092022    2.1474864
           2.1474864    2.1511786    2.1511786    2.1885562    2.1885562
           2.2223958    2.2223958    2.2399908    2.2399908    2.2548152
           2.2548152    2.2893174    2.2893174    2.2948979    2.2948979
           2.3078329    2.3078329    2.3123492    2.3123492    2.3263826
           2.3263826    2.3330454    2.3330454    2.3390543    2.3390543
           2.3641538    2.3641538    2.3696857    2.3696857    2.3922038
           2.3922038    2.4081250    2.4081250    2.4116370    2.4116370

           2.4345412    2.4345412    2.4447459    2.4447459    2.4482787
           2.4482787    2.4796581    2.4796581    2.4866105    2.4866105
           2.4969389    2.4969389    2.5031761    2.5031761    2.5036619
           2.5036619    2.5274383    2.5274383    2.5444938    2.5444938
           2.5588943    2.5588943    2.5740302    2.5740302    2.5797434
           2.5797434    2.5889700    2.5889700    2.6018273    2.6018273
           2.6095935    2.6095935    2.6386975    2.6386975    2.6697687
           2.6697687    2.6705503    2.6705503    2.6770451    2.6770451

           2.6870766    2.6870766    2.6948533    2.6948533    2.7210425
           2.7210425    2.7233471    2.7233471    2.7371663    2.7371663
           2.7612357    2.7612357    2.7657756    2.7657756    2.7690104
           2.7690104    2.7827021    2.7827021    2.7932619    2.7932619
           2.8038594    2.8038594    2.8056578    2.8056578    2.8176412
           2.8176412    2.8299201    2.8299201    2.8442370    2.8442370
           2.8472238    2.8472238    2.8572401    2.8572401    2.8663396
           2.8663396    2.8814244    2.8814244    2.9089782    2.9089782

           2.9102444    2.9102444    2.9152713    2.9152713    2.9233966
           2.9233966    2.9349799    2.9349799    2.9431429    2.9431429
           2.9436992    2.9436992    2.9500761    2.9500761    2.9663071
           2.9663071    2.9785300    2.9785300    2.9877612    2.9877612
           2.9923826    2.9923826    3.0008673    3.0008673    3.0133720
           3.0133720    3.0205737    3.0205737    3.0338351    3.0338351
           3.0438078    3.0438078    3.0563910    3.0563910    3.0672026
           3.0672026    3.0790923    3.0790923    3.0935041    3.0935041

           3.1001000    3.1001000    3.1054145    3.1054145    3.1106693
           3.1106693    3.1302591    3.1302591    3.1322540    3.1322540
           3.1517594    3.1517594    3.1523960    3.1523960    3.1659742
           3.1659742    3.1780984    3.1780984    3.1917346    3.1917346
           3.1924983    3.1924983    3.1999414    3.1999414    3.2222678
           3.2222678    3.2274266    3.2274266    3.2427081    3.2427081
           3.2714837    3.2714837    3.2758580    3.2758580    3.2858618
           3.2858618    3.2932745    3.2932745    3.2958261    3.2958261

           3.3033478    3.3033478    3.3072934    3.3072934    3.3205297
           3.3205297    3.3218735    3.3218735    3.3426385    3.3426385
           3.3439219    3.3439219    3.3509759    3.3509759    3.3658413
           3.3658413    3.3886374    3.3886374    3.3947425    3.3947425
           3.4014873    3.4014873    3.4040285    3.4040285    3.4182552
           3.4182552    3.4272753    3.4272753    3.4500273    3.4500273
           3.4625001    3.4625001    3.4681465    3.4681465    3.4749866
           3.4749866    3.4883500    3.4883500    3.4905233    3.4905233

           3.4957118    3.4957118    3.5053599    3.5053599    3.5140143
           3.5140143    3.5170443    3.5170443    3.5489123    3.5489123
           3.5655946    3.5655946    3.5677245    3.5677245    3.5818214
           3.5818214    3.5869675    3.5869675    3.5916890    3.5916890
           3.5982364    3.5982364    3.6130153    3.6130153    3.6135732
           3.6135732    3.6315881    3.6315881    3.6343748    3.6343748
           3.6494237    3.6494237    3.6648358    3.6648358    3.6841135
           3.6841135    3.6849961    3.6849961    3.6900067    3.6900067

           3.7135848    3.7135848    3.7136957    3.7136957    3.7328676
           3.7328676    3.7361425    3.7361425    3.7471971    3.7471971
           3.7489957    3.7489957    3.7645559    3.7645559    3.7722039
           3.7722039    3.7880212    3.7880212    3.7952683    3.7952683
           3.7979749    3.7979749    3.8117516    3.8117516    3.8144637
           3.8144637    3.8342467    3.8342467    3.8348231    3.8348231
           3.8449994    3.8449994    3.8600660    3.8600660    3.8615771
           3.8615771    3.8711737    3.8711737    3.8779995    3.8779995

           3.8999242    3.8999242    3.9002726    3.9002726    3.9109188
           3.9109188    3.9274462    3.9274462    3.9282541    3.9282541
           3.9409406    3.9409406    3.9487568    3.9487568    3.9597591
           3.9597591    3.9649677    3.9649677    3.9742944    3.9742944
           3.9795741    3.9795741    3.9893285    3.9893285    3.9958214
           3.9958214    3.9973567    3.9973567    4.0137442    4.0137442
           4.0193416    4.0193416    4.0300025    4.0300025    4.0374632
           4.0374632    4.0401945    4.0401945    4.0505208    4.0505208

           4.0548688    4.0548688    4.0661720    4.0661720    4.0675877
           4.0675877    4.0749874    4.0749874    4.0819893    4.0819893
           4.0982106    4.0982106    4.1022082    4.1022082    4.1057557
           4.1057557    4.1070010    4.1070010    4.1198611    4.1198611
           4.1246642    4.1246642    4.1351862    4.1351862    4.1469451
           4.1469451    4.1543662    4.1543662    4.1609177    4.1609177
           4.1667753    4.1667753    4.1797322    4.1797322    4.1894892
           4.1894892    4.2005449    4.2005449    4.2032643    4.2032643

           4.2181907    4.2181907    4.2408869    4.2408869    4.2431441
           4.2431441    4.2571126    4.2571126    4.2623339    4.2623339
           4.2651617    4.2651617    4.2734206    4.2734206    4.3055433
           4.3055433    4.3058660    4.3058660    4.3149230    4.3149230
           4.3240963    4.3240963    4.3287418    4.3287418    4.3380367
           4.3380367    4.3488411    4.3488411    4.3631660    4.3631660
           4.3679552    4.3679552    4.3806442    4.3806442    4.3892872
           4.3892872    4.3974289    4.3974289    4.4011794    4.4011794

           4.4072652    4.4072652    4.4106403    4.4106403    4.4192721
           4.4192721    4.4214862    4.4214862    4.4286109    4.4286109
           4.4376938    4.4376938    4.4413916    4.4413916    4.4496826
           4.4496826    4.4507985    4.4507985    4.4693411    4.4693411
           4.4740379    4.4740379    4.4792477    4.4792477    4.4867704
           4.4867704    4.4935539    4.4935539
       ********************************************************

------- alpha_Pu_6.scf2 --------
:GMA  : POTENTIAL AND CHARGE CUT-OFF  12.00 Ry**.5
         Bandranges (emin - emax) and occupancy:
:BAN00250: 250    1.267878    1.278211  1.00000000
:BAN00251: 251    1.269042    1.279333  1.00000000
:BAN00252: 252    1.269042    1.279333  1.00000000
:BAN00253: 253    1.272192    1.282200  0.92182133
:BAN00254: 254    1.272192    1.282200  0.92182133
:BAN00255: 255    1.275717    1.282787  0.71175492
:BAN00256: 256    1.275717    1.282787  0.71175492
:BAN00257: 257    1.277267    1.285349  0.36093115
:BAN00258: 258    1.277267    1.285349  0.36093115
:BAN00259: 259    1.280154    1.286766  0.00549259
:BAN00260: 260    1.280154    1.286766  0.00549259
:BAN00261: 261    1.282950    1.289172  0.00000000
:BAN00262: 262    1.282950    1.289172  0.00000000
:BAN00263: 263    1.287086    1.291515  0.00000000
:BAN00264: 264    1.287086    1.291515  0.00000000
:BAN00265: 265    1.288766    1.294689  0.00000000
        Energy to separate low and high energystates:    0.87741


:NLDA  : NUMBER OF ELECTRONS          = 256.000

:FLDA  : F E R M I - ENERGY           =   1.78052




:POS001: AT.NR.  -1 POSITION = 0.33900 0.25000 0.15650  MULTIPLICITY =  2

       LMMAX 28
       LM=   0 0  1 1 -1 1  2 0  2 2 -2 2  3 1 -3 1  3 3 -3 3  4 0  4 2 -4 2  4 4 -4 4  5 1 -5 1
         5 3 -5 3  5 5 -5 5  6 0  6 2 -6 2  6 4 -6 4  6 6 -6 6




:POS002: AT.NR.  -2 POSITION = 0.33900 0.25000 0.15650  MULTIPLICITY =  2

       LMMAX 28
       LM=   0 0  1 1 -1 1  2 0  2 2 -2 2  3 1 -3 1  3 3 -3 3  4 0  4 2 -4 2  4 4 -4 4  5 1 -5 1
         5 3 -5 3  5 5 -5 5  6 0  6 2 -6 2  6 4 -6 4  6 6 -6 6




:POS003: AT.NR.  -3 POSITION = 0.33900 0.25000 0.15650  MULTIPLICITY =  2

       LMMAX 28
       LM=   0 0  1 1 -1 1  2 0  2 2 -2 2  3 1 -3 1  3 3 -3 3  4 0  4 2 -4 2  4 4 -4 4  5 1 -5 1
         5 3 -5 3  5 5 -5 5  6 0  6 2 -6 2  6 4 -6 4  6 6 -6 6




:POS004: AT.NR.  -4 POSITION = 0.33900 0.25000 0.15650  MULTIPLICITY =  2

       LMMAX 28
       LM=   0 0  1 1 -1 1  2 0  2 2 -2 2  3 1 -3 1  3 3 -3 3  4 0  4 2 -4 2  4 4 -4 4  5 1 -5 1
         5 3 -5 3  5 5 -5 5  6 0  6 2 -6 2  6 4 -6 4  6 6 -6 6




:POS005: AT.NR.  -5 POSITION = 0.33900 0.25000 0.15650  MULTIPLICITY =  2

       LMMAX 28
       LM=   0 0  1 1 -1 1  2 0  2 2 -2 2  3 1 -3 1  3 3 -3 3  4 0  4 2 -4 2  4 4 -4 4  5 1 -5 1
         5 3 -5 3  5 5 -5 5  6 0  6 2 -6 2  6 4 -6 4  6 6 -6 6




:POS006: AT.NR.  -6 POSITION = 0.33900 0.25000 0.15650  MULTIPLICITY =  2

       LMMAX 28
       LM=   0 0  1 1 -1 1  2 0  2 2 -2 2  3 1 -3 1  3 3 -3 3  4 0  4 2 -4 2  4 4 -4 4  5 1 -5 1
         5 3 -5 3  5 5 -5 5  6 0  6 2 -6 2  6 4 -6 4  6 6 -6 6




:POS007: AT.NR.  -7 POSITION = 0.33900 0.25000 0.15650  MULTIPLICITY =  2

       LMMAX 28
       LM=   0 0  1 1 -1 1  2 0  2 2 -2 2  3 1 -3 1  3 3 -3 3  4 0  4 2 -4 2  4 4 -4 4  5 1 -5 1
         5 3 -5 3  5 5 -5 5  6 0  6 2 -6 2  6 4 -6 4  6 6 -6 6




:POS008: AT.NR.  -8 POSITION = 0.33900 0.25000 0.15650  MULTIPLICITY =  2

       LMMAX 28
       LM=   0 0  1 1 -1 1  2 0  2 2 -2 2  3 1 -3 1  3 3 -3 3  4 0  4 2 -4 2  4 4 -4 4  5 1 -5 1
         5 3 -5 3  5 5 -5 5  6 0  6 2 -6 2  6 4 -6 4  6 6 -6 6
:FER DMFT Fermi Energy   1.26577
:EORB    1.92413541
:SUM SUM OF DMFT BAND ENERGIES   71.85394919

:CHA001: TOTAL CHARGE INSIDE SPHERE   1 =    11.740897
:PCS001: PARTIAL CHARGES SPHERE =  1 S,P,D,F,PX,PY,PZ,D-Z2,D-X2Y2,D-XY,D-XZ,D-YZ 
:QTL001: 1.9443 4.5726 0.6552 4.5634 2.7387 2.6862 2.6827 0.1187 0.1354 0.1545 0.1498 0.1218
        Q-s-low E-s-low   Q-p-low E-p-low   Q-d-low E-d-low   Q-f-low E-f-low
:EPL001:  1.8800 -2.0892    4.4815 -0.1718    0.0291 -0.0613    0.0139 -0.0512
        Q-s-hi  E-s-hi    Q-p-hi  E-p-hi    Q-d-hi  E-d-hi    Q-f-hi  E-f-hi 
:EPH001:  0.0643  1.1241    0.0911  1.1576    0.6262  1.1545    4.5495  1.2374

                      QXX         QXY         QYY         QZZ       UP TO R

:VZZ001:             7.42339   -15.85919    -7.67575     0.25236       2.150

:CHA002: TOTAL CHARGE INSIDE SPHERE   2 =    11.665410
:PCS002: PARTIAL CHARGES SPHERE =  2 S,P,D,F,PX,PY,PZ,D-Z2,D-X2Y2,D-XY,D-XZ,D-YZ 
:QTL002: 1.9492 4.5905 0.5772 4.5446 2.6754 2.7670 2.7369 0.1142 0.1166 0.1136 0.1158 0.1367
        Q-s-low E-s-low   Q-p-low E-p-low   Q-d-low E-d-low   Q-f-low E-f-low
:EPL002:  1.8781 -2.0920    4.4875 -0.1689    0.0203 -0.0474    0.0095 -0.0386
        Q-s-hi  E-s-hi    Q-p-hi  E-p-hi    Q-d-hi  E-d-hi    Q-f-hi  E-f-hi 
:EPH002:  0.0711  1.1190    0.1030  1.1582    0.5569  1.1580    4.5351  1.2399

                      QXX         QXY         QYY         QZZ       UP TO R

:VZZ002:           -26.03016    15.46308    15.25742    10.77275       2.150

:CHA003: TOTAL CHARGE INSIDE SPHERE   3 =    11.675946
:PCS003: PARTIAL CHARGES SPHERE =  3 S,P,D,F,PX,PY,PZ,D-Z2,D-X2Y2,D-XY,D-XZ,D-YZ 
:QTL003: 1.9482 4.5820 0.5935 4.5482 2.7167 2.7082 2.7320 0.1174 0.1280 0.1145 0.1320 0.1219
        Q-s-low E-s-low   Q-p-low E-p-low   Q-d-low E-d-low   Q-f-low E-f-low
:EPL003:  1.8782 -2.0898    4.4841 -0.1678    0.0213 -0.0447    0.0100 -0.0271
        Q-s-hi  E-s-hi    Q-p-hi  E-p-hi    Q-d-hi  E-d-hi    Q-f-hi  E-f-hi 
:EPH003:  0.0700  1.1153    0.0979  1.1621    0.5722  1.1581    4.5382  1.2360

                      QXX         QXY         QYY         QZZ       UP TO R

:VZZ003:            -3.97493   -14.00492     2.30672     1.66821       2.150

:CHA004: TOTAL CHARGE INSIDE SPHERE   4 =    11.658866
:PCS004: PARTIAL CHARGES SPHERE =  4 S,P,D,F,PX,PY,PZ,D-Z2,D-X2Y2,D-XY,D-XZ,D-YZ 
:QTL004: 1.9513 4.5907 0.5758 4.5374 2.7302 2.7264 2.7296 0.1156 0.1147 0.1193 0.1167 0.1281
        Q-s-low E-s-low   Q-p-low E-p-low   Q-d-low E-d-low   Q-f-low E-f-low
:EPL004:  1.8777 -2.0916    4.4817 -0.1691    0.0189 -0.0502    0.0088 -0.0342
        Q-s-hi  E-s-hi    Q-p-hi  E-p-hi    Q-d-hi  E-d-hi    Q-f-hi  E-f-hi 
:EPH004:  0.0736  1.1182    0.1091  1.1592    0.5568  1.1571    4.5285  1.2374

                      QXX         QXY         QYY         QZZ       UP TO R

:VZZ004:            -2.05006    12.23782     2.39395    -0.34389       2.150

:CHA005: TOTAL CHARGE INSIDE SPHERE   5 =    11.654750
:PCS005: PARTIAL CHARGES SPHERE =  5 S,P,D,F,PX,PY,PZ,D-Z2,D-X2Y2,D-XY,D-XZ,D-YZ 
:QTL005: 1.9493 4.5942 0.5772 4.5302 2.6810 2.7754 2.7420 0.1145 0.1143 0.1154 0.1145 0.1377
        Q-s-low E-s-low   Q-p-low E-p-low   Q-d-low E-d-low   Q-f-low E-f-low
:EPL005:  1.8778 -2.0910    4.4861 -0.1673    0.0190 -0.0476    0.0089 -0.0385
        Q-s-hi  E-s-hi    Q-p-hi  E-p-hi    Q-d-hi  E-d-hi    Q-f-hi  E-f-hi 
:EPH005:  0.0715  1.1168    0.1081  1.1595    0.5582  1.1584    4.5213  1.2422

                      QXX         QXY         QYY         QZZ       UP TO R

:VZZ005:           -40.95232     5.84661    28.77206    12.18027       2.150

:CHA006: TOTAL CHARGE INSIDE SPHERE   6 =    11.644875
:PCS006: PARTIAL CHARGES SPHERE =  6 S,P,D,F,PX,PY,PZ,D-Z2,D-X2Y2,D-XY,D-XZ,D-YZ 
:QTL006: 1.9500 4.5879 0.5603 4.5433 2.7212 2.7325 2.7357 0.1069 0.1099 0.1215 0.1172 0.1230
        Q-s-low E-s-low   Q-p-low E-p-low   Q-d-low E-d-low   Q-f-low E-f-low
:EPL006:  1.8773 -2.0924    4.4883 -0.1675    0.0174 -0.0412    0.0080 -0.0261
        Q-s-hi  E-s-hi    Q-p-hi  E-p-hi    Q-d-hi  E-d-hi    Q-f-hi  E-f-hi 
:EPH006:  0.0727  1.1085    0.0996  1.1583    0.5429  1.1581    4.5353  1.2417

                      QXX         QXY         QYY         QZZ       UP TO R

:VZZ006:            -8.21967   -10.22313     0.29892     7.92075       2.150

:CHA007: TOTAL CHARGE INSIDE SPHERE   7 =    11.681668
:PCS007: PARTIAL CHARGES SPHERE =  7 S,P,D,F,PX,PY,PZ,D-Z2,D-X2Y2,D-XY,D-XZ,D-YZ 
:QTL007: 1.9462 4.5890 0.5930 4.5490 2.7402 2.7104 2.7392 0.1198 0.1026 0.1324 0.1409 0.1186
        Q-s-low E-s-low   Q-p-low E-p-low   Q-d-low E-d-low   Q-f-low E-f-low
:EPL007:  1.8787 -2.0894    4.4875 -0.1675    0.0228 -0.0609    0.0110 -0.0483
        Q-s-hi  E-s-hi    Q-p-hi  E-p-hi    Q-d-hi  E-d-hi    Q-f-hi  E-f-hi 
:EPH007:  0.0675  1.1134    0.1015  1.1566    0.5702  1.1575    4.5380  1.2339

                      QXX         QXY         QYY         QZZ       UP TO R

:VZZ007:             5.91845     9.04661   -14.69491     8.77646       2.150

:CHA008: TOTAL CHARGE INSIDE SPHERE   8 =    11.584580
:PCS008: PARTIAL CHARGES SPHERE =  8 S,P,D,F,PX,PY,PZ,D-Z2,D-X2Y2,D-XY,D-XZ,D-YZ 
:QTL008: 1.9507 4.6135 0.4738 4.5444 2.7228 2.7711 2.7776 0.1014 0.0836 0.0942 0.0983 0.1094
        Q-s-low E-s-low   Q-p-low E-p-low   Q-d-low E-d-low   Q-f-low E-f-low
:EPL008:  1.8756 -2.0927    4.4960 -0.1634    0.0101 -0.0316    0.0045 -0.0265
        Q-s-hi  E-s-hi    Q-p-hi  E-p-hi    Q-d-hi  E-d-hi    Q-f-hi  E-f-hi 
:EPH008:  0.0751  1.1100    0.1175  1.1550    0.4636  1.1595    4.5399  1.2410

                      QXX         QXY         QYY         QZZ       UP TO R

:VZZ008:           -41.62313     4.55159    27.50919    14.11394       2.150

:CHA  : TOTAL CHARGE INSIDE UNIT CELL =     256.000000

:ESUM  : SUM OF EIGENVALUES =          73.753091654


------- alpha_Pu_6.scfc --------

        1.ATOM      Pu  0+               21 CORE STATES
       CORE-FORCE in mRy/a.u. = |F|      Fx             Fy             Fz
:FCO001:   1.ATOM       3082.954      -2871.134      -1123.029          0.000

:1S 001: 1S               -8966.473882812 Ry
:2S 001: 2S               -1687.146714548 Ry
:2PP001: 2P*              -1627.840222190 Ry
:2P 001: 2P               -1314.688896798 Ry
:3S 001: 3S                -427.688734925 Ry
:3PP001: 3P*               -400.764327499 Ry
:3P 001: 3P                -328.203009025 Ry
:3DD001: 3D*               -285.962925766 Ry
:3D 001: 3D                -271.420707841 Ry
:4S 001: 4S                -109.169663217 Ry
:4PP001: 4P*                -96.981828842 Ry
:4P 001: 4P                 -77.836435582 Ry
:4DD001: 4D*                -58.549032502 Ry
:4D 001: 4D                 -55.054446277 Ry
:5S 001: 5S                 -23.324621502 Ry
:5PP001: 5P*                -18.506665810 Ry
:5P 001: 5P                 -13.817507149 Ry
:4FF001: 4F*                -29.654474216 Ry
:4F 001: 4F                 -28.726400531 Ry
:5DD001: 5D*                 -6.781835104 Ry
:5D 001: 5D                  -6.082708435 Ry

        2.ATOM      Pu  0+               21 CORE STATES
       CORE-FORCE in mRy/a.u. = |F|      Fx             Fy             Fz
:FCO002:   2.ATOM       1264.591        142.656      -1256.519          0.000

:1S 002: 1S               -8966.470526422 Ry
:2S 002: 2S               -1687.143854968 Ry
:2PP002: 2P*              -1627.837371266 Ry
:2P 002: 2P               -1314.686043741 Ry
:3S 002: 3S                -427.684911550 Ry
:3PP002: 3P*               -400.760552360 Ry
:3P 002: 3P                -328.199177191 Ry
:3DD002: 3D*               -285.959263033 Ry
:3D 002: 3D                -271.417004493 Ry
:4S 002: 4S                -109.166196283 Ry
:4PP002: 4P*                -96.978362513 Ry
:4P 002: 4P                 -77.833067415 Ry
:4DD002: 4D*                -58.545672646 Ry
:4D 002: 4D                 -55.051111531 Ry
:5S 002: 5S                 -23.322040925 Ry
:5PP002: 5P*                -18.504201824 Ry
:5P 002: 5P                 -13.815437300 Ry
:4FF002: 4F*                -29.650994719 Ry
:4F 002: 4F                 -28.722936281 Ry
:5DD002: 5D*                 -6.780257422 Ry
:5D 002: 5D                  -6.081285438 Ry

        3.ATOM      Pu  0+               21 CORE STATES
       CORE-FORCE in mRy/a.u. = |F|      Fx             Fy             Fz
:FCO003:   3.ATOM       5436.342      -4010.162      -3670.479          0.000

:1S 003: 1S               -8966.469586501 Ry
:2S 003: 2S               -1687.142633121 Ry
:2PP003: 2P*              -1627.836188494 Ry
:2P 003: 2P               -1314.684822151 Ry
:3S 003: 3S                -427.683732601 Ry
:3PP003: 3P*               -400.759374053 Ry
:3P 003: 3P                -328.197997664 Ry
:3DD003: 3D*               -285.958059138 Ry
:3D 003: 3D                -271.415803272 Ry
:4S 003: 4S                -109.164956755 Ry
:4PP003: 4P*                -96.977123606 Ry
:4P 003: 4P                 -77.831811665 Ry
:4DD003: 4D*                -58.544413004 Ry
:4D 003: 4D                 -55.049847049 Ry
:5S 003: 5S                 -23.320624045 Ry
:5PP003: 5P*                -18.502767755 Ry
:5P 003: 5P                 -13.813943791 Ry
:4FF003: 4F*                -29.649744371 Ry
:4F 003: 4F                 -28.721683426 Ry
:5DD003: 5D*                 -6.778685251 Ry
:5D 003: 5D                  -6.079688189 Ry

        4.ATOM      Pu  0+               21 CORE STATES
       CORE-FORCE in mRy/a.u. = |F|      Fx             Fy             Fz
:FCO004:   4.ATOM       2987.762       2937.485        545.805          0.000

:1S 004: 1S               -8966.469533418 Ry
:2S 004: 2S               -1687.143070175 Ry
:2PP004: 2P*              -1627.836549641 Ry
:2P 004: 2P               -1314.685261042 Ry
:3S 004: 3S                -427.684261265 Ry
:3PP004: 3P*               -400.759892914 Ry
:3P 004: 3P                -328.198530391 Ry
:3DD004: 3D*               -285.958608476 Ry
:3D 004: 3D                -271.416354815 Ry
:4S 004: 4S                -109.165553649 Ry
:4PP004: 4P*                -96.977719250 Ry
:4P 004: 4P                 -77.832426259 Ry
:4DD004: 4D*                -58.545033665 Ry
:4D 004: 4D                 -55.050473761 Ry
:5S 004: 5S                 -23.321445402 Ry
:5PP004: 5P*                -18.503603570 Ry
:5P 004: 5P                 -13.814829046 Ry
:4FF004: 4F*                -29.650367917 Ry
:4F 004: 4F                 -28.722309678 Ry
:5DD004: 5D*                 -6.779624555 Ry
:5D 004: 5D                  -6.080643399 Ry

        5.ATOM      Pu  0+               21 CORE STATES
       CORE-FORCE in mRy/a.u. = |F|      Fx             Fy             Fz
:FCO005:   5.ATOM       1870.608       -931.085      -1622.422          0.000

:1S 005: 1S               -8966.470056913 Ry
:2S 005: 2S               -1687.143697740 Ry
:2PP005: 2P*              -1627.837140338 Ry
:2P 005: 2P               -1314.685884204 Ry
:3S 005: 3S                -427.685076122 Ry
:3PP005: 3P*               -400.760695467 Ry
:3P 005: 3P                -328.199347433 Ry
:3DD005: 3D*               -285.959406220 Ry
:3D 005: 3D                -271.417159870 Ry
:4S 005: 4S                -109.166338322 Ry
:4PP005: 4P*                -96.978503112 Ry
:4P 005: 4P                 -77.833200753 Ry
:4DD005: 4D*                -58.545809499 Ry
:4D 005: 4D                 -55.051247618 Ry
:5S 005: 5S                 -23.322154617 Ry
:5PP005: 5P*                -18.504292553 Ry
:5P 005: 5P                 -13.815447571 Ry
:4FF005: 4F*                -29.651163566 Ry
:4F 005: 4F                 -28.723103813 Ry
:5DD005: 5D*                 -6.780129086 Ry
:5D 005: 5D                  -6.081108924 Ry

        6.ATOM      Pu  0+               21 CORE STATES
       CORE-FORCE in mRy/a.u. = |F|      Fx             Fy             Fz
:FCO006:   6.ATOM       5211.024      -4276.563      -2977.547          0.000

:1S 006: 1S               -8966.469444268 Ry
:2S 006: 2S               -1687.142582123 Ry
:2PP006: 2P*              -1627.836166638 Ry
:2P 006: 2P               -1314.684774429 Ry
:3S 006: 3S                -427.683178758 Ry
:3PP006: 3P*               -400.758847112 Ry
:3P 006: 3P                -328.197438594 Ry
:3DD006: 3D*               -285.957577727 Ry
:3D 006: 3D                -271.415301203 Ry
:4S 006: 4S                -109.164557755 Ry
:4PP006: 4P*                -96.976725324 Ry
:4P 006: 4P                 -77.831455799 Ry
:4DD006: 4D*                -58.544059256 Ry
:4D 006: 4D                 -55.049503764 Ry
:5S 006: 5S                 -23.320588295 Ry
:5PP006: 5P*                -18.502784119 Ry
:5P 006: 5P                 -13.814135898 Ry
:4FF006: 4F*                -29.649330762 Ry
:4F 006: 4F                 -28.721276474 Ry
:5DD006: 5D*                 -6.779097924 Ry
:5D 006: 5D                  -6.080170301 Ry

        7.ATOM      Pu  0+               21 CORE STATES
       CORE-FORCE in mRy/a.u. = |F|      Fx             Fy             Fz
:FCO007:   7.ATOM       5033.953       3402.193      -3710.225          0.000

:1S 007: 1S               -8966.469132948 Ry
:2S 007: 2S               -1687.142324762 Ry
:2PP007: 2P*              -1627.835840772 Ry
:2P 007: 2P               -1314.684508568 Ry
:3S 007: 3S                -427.683544409 Ry
:3PP007: 3P*               -400.759176327 Ry
:3P 007: 3P                -328.197811538 Ry
:3DD007: 3D*               -285.957865617 Ry
:3D 007: 3D                -271.415614382 Ry
:4S 007: 4S                -109.164784108 Ry
:4PP007: 4P*                -96.976949851 Ry
:4P 007: 4P                 -77.831640867 Ry
:4DD007: 4D*                -58.544243626 Ry
:4D 007: 4D                 -55.049679021 Ry
:5S 007: 5S                 -23.320502019 Ry
:5PP007: 5P*                -18.502646729 Ry
:5P 007: 5P                 -13.813828326 Ry
:4FF007: 4F*                -29.649585062 Ry
:4F 007: 4F                 -28.721524463 Ry
:5DD007: 5D*                 -6.778585228 Ry
:5D 007: 5D                  -6.079594505 Ry

        8.ATOM      Pu  0+               21 CORE STATES
       CORE-FORCE in mRy/a.u. = |F|      Fx             Fy             Fz
:FCO008:   8.ATOM        919.211       -863.782       -314.373          0.000

:1S 008: 1S               -8966.459635186 Ry
:2S 008: 2S               -1687.132912319 Ry
:2PP008: 2P*              -1627.826590714 Ry
:2P 008: 2P               -1314.675105442 Ry
:3S 008: 3S                -427.671982268 Ry
:3PP008: 3P*               -400.747729577 Ry
:3P 008: 3P                -328.186229312 Ry
:3DD008: 3D*               -285.946592316 Ry
:3D 008: 3D                -271.404254871 Ry
:4S 008: 4S                -109.153938053 Ry
:4PP008: 4P*                -96.966106173 Ry
:4P 008: 4P                 -77.820990227 Ry
:4DD008: 4D*                -58.533595515 Ry
:4D 008: 4D                 -55.039079007 Ry
:5S 008: 5S                 -23.311343232 Ry
:5PP008: 5P*                -18.493740619 Ry
:5P 008: 5P                 -13.805782140 Ry
:4FF008: 4F*                -29.638679732 Ry
:4F 008: 4F                 -28.710649417 Ry
:5DD008: 5D*                 -6.771682112 Ry
:5D 008: 5D                  -6.073062497 Ry

------- alpha_Pu_6.scfm --------

       DENSITY AT NUCLEUS
        JATOM    VALENCE       SEMI-CORE            CORE           TOTAL
:RTO001:   1    23402.811118        0.000000 45141825.685342 45165228.496460
:RTO002:   2    23498.911198        0.000000 45141818.229760 45165317.140959
:RTO003:   3    23482.201939        0.000000 45141820.548297 45165302.750236
:RTO004:   4    23540.279579        0.000000 45141816.844380 45165357.123959
:RTO005:   5    23507.770512        0.000000 45141817.130286 45165324.900798
:RTO006:   6    23516.759789        0.000000 45141818.039665 45165334.799455
:RTO007:   7    23443.507867        0.000000 45141819.642610 45165263.150477
:RTO008:   8    23519.544976        0.000000 45141808.755585 45165328.300561
     
       CHARGES OF NEW CHARGE DENSITY
:NTO  : TOTAL   INTERSTITIAL CHARGE=   69.3859522
:NTO001: TOTAL   CHARGE IN SPHERE  1 =       89.7316376
:NTO002: TOTAL   CHARGE IN SPHERE  2 =       89.6561615
:NTO003: TOTAL   CHARGE IN SPHERE  3 =       89.6666975
:NTO004: TOTAL   CHARGE IN SPHERE  4 =       89.6496217
:NTO005: TOTAL   CHARGE IN SPHERE  5 =       89.6455141
:NTO006: TOTAL   CHARGE IN SPHERE  6 =       89.6356309
:NTO007: TOTAL   CHARGE IN SPHERE  7 =       89.6724146
:NTO008: TOTAL   CHARGE IN SPHERE  8 =       89.5753143

:NEC01: NUCLEAR AND ELECTRONIC CHARGE   1504.00000  1503.85194     1.00010
     
       CHARGES OF OLD CHARGE DENSITY
:OTO  : TOTAL   INTERSTITIAL CHARGE=   69.8783773
:OTO001: TOTAL   CHARGE IN SPHERE  1 =       89.7046960
:OTO002: TOTAL   CHARGE IN SPHERE  2 =       89.6343765
:OTO003: TOTAL   CHARGE IN SPHERE  3 =       89.6441836
:OTO004: TOTAL   CHARGE IN SPHERE  4 =       89.6300810
:OTO005: TOTAL   CHARGE IN SPHERE  5 =       89.6262751
:OTO006: TOTAL   CHARGE IN SPHERE  6 =       89.6135410
:OTO007: TOTAL   CHARGE IN SPHERE  7 =       89.6499204
:OTO008: TOTAL   CHARGE IN SPHERE  8 =       89.5577378

:NEC02: NUCLEAR AND ELECTRONIC CHARGE   1504.00000  1504.00000     1.00000
     
       CONVERGENCE TEST
:DTO001: TOTAL   DIFFERENCE CHARGE**2 IN SPHERE  1 =  0.0277332
:DTO002: TOTAL   DIFFERENCE CHARGE**2 IN SPHERE  2 =  0.0233992
:DTO003: TOTAL   DIFFERENCE CHARGE**2 IN SPHERE  3 =  0.0239588
:DTO004: TOTAL   DIFFERENCE CHARGE**2 IN SPHERE  4 =  0.0213564
:DTO005: TOTAL   DIFFERENCE CHARGE**2 IN SPHERE  5 =  0.0217130
:DTO006: TOTAL   DIFFERENCE CHARGE**2 IN SPHERE  6 =  0.0236090
:DTO007: TOTAL   DIFFERENCE CHARGE**2 IN SPHERE  7 =  0.0238092
:DTO008: TOTAL   DIFFERENCE CHARGE**2 IN SPHERE  8 =  0.0188802

:DIS  :  CHARGE DISTANCE       ( 0.0277332 for atom    1 spin 1)      0.0230574
:BIG check (qbig,qrms,qtot)    0.924D-02   0.164D-01   0.231D-01
 
******************************************************
* MULTISECANT MIXING VER4 OPTIONS                    *
* Unpredicted Step Limit   0.100000                  *
* Plane Wave Dynamic Rescaling                       *
* Dynamic Regularization active                      *
* Upper Cutoff Lambda  1.0E-01 Lower 3.5E-04         *
* SQRT Multiplicity/Degeneracy                       *
* Max Number of Memory Steps    8                    *
******************************************************
 
:PLANE:  INTERSTITIAL TOTAL      7.51288 DISTAN  1.328E-01 % 
:CHARG:  CLM CHARGE   /ATOM    356.61284 DISTAN  7.739E-03 % 
:MIX  :  PRATT  REGULARIZATION: 3.50E-04  GREED: 0.035
     
       CHARGES OF MIXED CHARGE DENSITY
:CTO  : TOTAL   INTERSTITIAL CHARGE=   69.8663246
:CTO001: TOTAL   CHARGE IN SPHERE  1 =       89.7056390
:CTO002: TOTAL   CHARGE IN SPHERE  2 =       89.6351390
:CTO003: TOTAL   CHARGE IN SPHERE  3 =       89.6449716
:CTO004: TOTAL   CHARGE IN SPHERE  4 =       89.6307649
:CTO005: TOTAL   CHARGE IN SPHERE  5 =       89.6269484
:CTO006: TOTAL   CHARGE IN SPHERE  6 =       89.6143142
:CTO007: TOTAL   CHARGE IN SPHERE  7 =       89.6507077
:CTO008: TOTAL   CHARGE IN SPHERE  8 =       89.5583530

:NEC03: NUCLEAR AND ELECTRONIC CHARGE   1504.00000  1504.00000     1.00000


:ENE  : ********** TOTAL ENERGY IN Ry =      -949675.85553457

       TOTAL FORCE IN mRy/a.u. = |F|     Fx             Fy             Fz     with/without FOR in case.in2
:FOR001:   1.ATOM         93.016         93.007         -1.300          0.000 partial forces
:FOR002:   2.ATOM         76.738        -60.966         46.604          0.000 partial forces
:FOR003:   3.ATOM         96.175         68.546         67.462          0.000 partial forces
:FOR004:   4.ATOM         67.753        -52.313        -43.056          0.000 partial forces
:FOR005:   5.ATOM         35.336         35.227          2.772          0.000 partial forces
:FOR006:   6.ATOM         82.309         62.202         53.905          0.000 partial forces
:FOR007:   7.ATOM        133.854       -133.853         -0.538          0.000 partial forces
:FOR008:   8.ATOM         58.117         35.335         46.141          0.000 partial forces

       TOTAL FORCE WITH RESPECT TO GLOBAL CARTESIAN COORDINATES:
:FCA001:   1.ATOM                        -1.300          0.000         93.007 partial forces
:FCA002:   2.ATOM                        46.604          0.000        -60.966 partial forces
:FCA003:   3.ATOM                        67.462          0.000         68.546 partial forces
:FCA004:   4.ATOM                       -43.056          0.000        -52.313 partial forces
:FCA005:   5.ATOM                         2.772          0.000         35.227 partial forces
:FCA006:   6.ATOM                        53.905          0.000         62.202 partial forces
:FCA007:   7.ATOM                        -0.538          0.000       -133.853 partial forces
:FCA008:   8.ATOM                        46.141          0.000         35.335 partial forces

       TOTAL FORCE WITH RESPECT TO THE GLOBAL COORDINATE SYSTEM:
:FGL001:   1.ATOM                -1.328002578     0.000000000    92.735723670 partial forces
:FGL002:   2.ATOM                47.607870884     0.000000000   -51.240952229 partial forces
:FGL003:   3.ATOM                68.915161480     0.000000000    82.623572155 partial forces
:FGL004:   4.ATOM               -43.983445387     0.000000000   -61.297672063 partial forces
:FGL005:   5.ATOM                 2.831710113     0.000000000    35.805444606 partial forces
:FGL006:   6.ATOM                55.066137671     0.000000000    73.450577377 partial forces
:FGL007:   7.ATOM                -0.549588759     0.000000000  -133.965266666 partial forces
:FGL008:   8.ATOM                47.134897658     0.000000000    44.963431662 partial forces

------- alpha_Pu_6.scf0 --------


            ---------
:ITE080: 80. ITERATION
            ---------

:NATO :    8 INDEPENDENT AND   16 TOTAL ATOMS IN UNITCELL
       SUBSTANCE: alpha_Pu                                                    

       LATTICE                      = P   
:POT  : POTENTIAL OPTION    5
:LAT  : LATTICE CONSTANTS= 12.05906  9.40790 21.38892    1.571    1.777    1.571
:VOL  : UNIT CELL VOLUME =    2375.41343
       MODE OF CALCULATION IS       = RELA
       NON-SPINPOLARIZED CALCULATION
:IFFT  : FFT-parameters:   96   72  180 Factor: 2.00
       ATOMNUMBER=  1 Pu  0+     VCOUL-ZERO =  0.43984E+00
:EFG001:                        EFG         =   -17.63843   *10**21  V / m**2
                               V20  TOT/SRF=     0.21623    -0.05847
                               V22  TOT/SRF=     7.55613     0.06566
                               V22M TOT/SRF=   -15.79971    -0.04531
                               V21  TOT/SRF=     0.00000     0.00000
                               V21M TOT/SRF=     0.00000     0.00000

              7.43129  -15.79971    0.00000       17.38875    0.00000    0.00000
            -15.79971   -7.68097    0.00000        0.00000  -17.63843    0.00000
              0.00000    0.00000    0.24968        0.00000    0.00000    0.24968

         MAIN DIRECTIONS OF THE EFG   1.0000  0.6302  0.0000
                                     -0.6302  1.0000  0.0000
                                      0.0000  0.0000  1.0000
:ANG001:  ANGLE WITH OLD X-AXIS =        32.2

:ETA001:                         ASYMM. ETA =     0.97169


       ATOMNUMBER=  2 Pu  0+     VCOUL-ZERO =  0.44109E+00
:EFG002:                        EFG         =   -31.19701   *10**21  V / m**2
                               V20  TOT/SRF=     9.39317     0.01200
                               V22  TOT/SRF=   -20.54335    -0.05279
                               V22M TOT/SRF=    15.56479     0.04107
                               V21  TOT/SRF=     0.00000     0.00000
                               V21M TOT/SRF=     0.00000     0.00000

            -25.96650   15.56479    0.00000      -31.19701    0.00000    0.00000
             15.56479   15.12020    0.00000        0.00000   20.35071    0.00000
              0.00000    0.00000   10.84630        0.00000    0.00000   10.84630

         MAIN DIRECTIONS OF THE EFG   1.0000  0.3360  0.0000
                                     -0.3360  1.0000  0.0000
                                      0.0000  0.0000  1.0000
:ANG002:  ANGLE WITH OLD X-AXIS =        18.6

:ETA002:                         ASYMM. ETA =     0.30466


       ATOMNUMBER=  3 Pu  0+     VCOUL-ZERO =  0.44323E+00
:EFG003:                        EFG         =   -15.16902   *10**21  V / m**2
                               V20  TOT/SRF=     1.58565    -0.00046
                               V22  TOT/SRF=    -3.08907    -0.00245
                               V22M TOT/SRF=   -13.91478    -0.00367
                               V21  TOT/SRF=     0.00000     0.00000
                               V21M TOT/SRF=     0.00000     0.00000

             -4.00455  -13.91478    0.00000      -15.16902    0.00000    0.00000
            -13.91478    2.17359    0.00000        0.00000   13.33807    0.00000
              0.00000    0.00000    1.83096        0.00000    0.00000    1.83096

         MAIN DIRECTIONS OF THE EFG   1.0000 -0.8023  0.0000
                                      0.8023  1.0000  0.0000
                                      0.0000  0.0000  1.0000
:ANG003:  ANGLE WITH OLD X-AXIS =        38.7

:ETA003:                         ASYMM. ETA =     0.75859


       ATOMNUMBER=  4 Pu  0+     VCOUL-ZERO =  0.44258E+00
:EFG004:                        EFG         =    12.72055   *10**21  V / m**2
                               V20  TOT/SRF=    -0.18972    -0.01219
                               V22  TOT/SRF=    -2.22410     0.01138
                               V22M TOT/SRF=    12.41334     0.01636
                               V21  TOT/SRF=     0.00000     0.00000
                               V21M TOT/SRF=     0.00000     0.00000

             -2.11457   12.41334    0.00000      -12.50148    0.00000    0.00000
             12.41334    2.33363    0.00000        0.00000   12.72055    0.00000
              0.00000    0.00000   -0.21907        0.00000    0.00000   -0.21907

         MAIN DIRECTIONS OF THE EFG   1.0000  0.8368  0.0000
                                     -0.8368  1.0000  0.0000
                                      0.0000  0.0000  1.0000
:ANG004:  ANGLE WITH OLD X-AXIS =        39.9

:ETA004:                         ASYMM. ETA =     0.96556


       ATOMNUMBER=  5 Pu  0+     VCOUL-ZERO =  0.44437E+00
:EFG005:                        EFG         =   -41.79082   *10**21  V / m**2
                               V20  TOT/SRF=    10.62314     0.00974
                               V22  TOT/SRF=   -35.16633    -0.07288
                               V22M TOT/SRF=     5.89835     0.02983
                               V21  TOT/SRF=     0.00000     0.00000
                               V21M TOT/SRF=     0.00000     0.00000

            -41.29960    5.89835    0.00000      -41.79082    0.00000    0.00000
              5.89835   29.03305    0.00000        0.00000   29.52428    0.00000
              0.00000    0.00000   12.26654        0.00000    0.00000   12.26654

         MAIN DIRECTIONS OF THE EFG   1.0000  0.0833  0.0000
                                     -0.0833  1.0000  0.0000
                                      0.0000  0.0000  1.0000
:ANG005:  ANGLE WITH OLD X-AXIS =         4.8

:ETA005:                         ASYMM. ETA =     0.41296


       ATOMNUMBER=  6 Pu  0+     VCOUL-ZERO =  0.44277E+00
:EFG006:                        EFG         =   -14.87757   *10**21  V / m**2
                               V20  TOT/SRF=     6.72937     0.00071
                               V22  TOT/SRF=    -4.06691    -0.00283
                               V22M TOT/SRF=   -10.21236    -0.04104
                               V21  TOT/SRF=     0.00000     0.00000
                               V21M TOT/SRF=     0.00000     0.00000

             -7.95212  -10.21236    0.00000      -14.87757    0.00000    0.00000
            -10.21236    0.18171    0.00000        0.00000    7.10717    0.00000
              0.00000    0.00000    7.77041        0.00000    0.00000    7.77041

         MAIN DIRECTIONS OF THE EFG   1.0000 -0.6781  0.0000
                                      0.6781  1.0000  0.0000
                                      0.0000  0.0000  1.0000
:ANG006:  ANGLE WITH OLD X-AXIS =        34.1

:ETA006:                         ASYMM. ETA =     0.04458


       ATOMNUMBER=  7 Pu  0+     VCOUL-ZERO =  0.44192E+00
:EFG007:                        EFG         =   -18.05313   *10**21  V / m**2
                               V20  TOT/SRF=     7.73475    -0.00371
                               V22  TOT/SRF=    10.36694     0.05190
                               V22M TOT/SRF=     8.78328     0.00823
                               V21  TOT/SRF=     0.00000     0.00000
                               V21M TOT/SRF=     0.00000     0.00000

              5.90128    8.78328    0.00000        9.12181    0.00000    0.00000
              8.78328  -14.83260    0.00000        0.00000  -18.05313    0.00000
              0.00000    0.00000    8.93132        0.00000    0.00000    8.93132

         MAIN DIRECTIONS OF THE EFG   1.0000 -0.3667  0.0000
                                      0.3667  1.0000  0.0000
                                      0.0000  0.0000  1.0000
:ANG007:  ANGLE WITH OLD X-AXIS =        20.1

:ETA007:                         ASYMM. ETA =     0.01055


       ATOMNUMBER=  8 Pu  0+     VCOUL-ZERO =  0.44007E+00
:EFG008:                        EFG         =   -41.83296   *10**21  V / m**2
                               V20  TOT/SRF=    12.12355     0.02166
                               V22  TOT/SRF=   -34.55322    -0.02958
                               V22M TOT/SRF=     4.40938    -0.00133
                               V21  TOT/SRF=     0.00000     0.00000
                               V21M TOT/SRF=     0.00000     0.00000

            -41.55275    4.40938    0.00000      -41.83296    0.00000    0.00000
              4.40938   27.55368    0.00000        0.00000   27.83389    0.00000
              0.00000    0.00000   13.99907        0.00000    0.00000   13.99907

         MAIN DIRECTIONS OF THE EFG   1.0000  0.0635  0.0000
                                     -0.0635  1.0000  0.0000
                                      0.0000  0.0000  1.0000
:ANG008:  ANGLE WITH OLD X-AXIS =         3.6

:ETA008:                         ASYMM. ETA =     0.33072


     HELLMANN-FEYNMAN-FORCE IN mRy/a.u. = |F|  Fx       Fy             Fz
:FHF001:   1.ATOM       3168.579       2963.025       1122.666          0.000

     HELLMANN-FEYNMAN-FORCE IN mRy/a.u. = |F|  Fx       Fy             Fz
:FHF002:   2.ATOM       1315.694       -204.245       1299.744          0.000

     HELLMANN-FEYNMAN-FORCE IN mRy/a.u. = |F|  Fx       Fy             Fz
:FHF003:   3.ATOM       5530.886       4075.998       3738.574          0.000

[...]
        Q-s-low E-s-low   Q-p-low E-p-low   Q-d-low E-d-low   Q-f-low E-f-low
:EPL004:  1.8773 -2.0869    4.4773 -0.1665    0.0191 -0.0476    0.0089 -0.0317
        Q-s-hi  E-s-hi    Q-p-hi  E-p-hi    Q-d-hi  E-d-hi    Q-f-hi  E-f-hi 
:EPH004:  0.0734  1.1194    0.1093  1.1613    0.5543  1.1591    4.5275  1.2420

                      QXX         QXY         QYY         QZZ       UP TO R

:VZZ004:            -2.24833    12.15346     2.56690    -0.31857       2.150

:CHA005: TOTAL CHARGE INSIDE SPHERE   5 =    11.647463
:PCS005: PARTIAL CHARGES SPHERE =  5 S,P,D,F,PX,PY,PZ,D-Z2,D-X2Y2,D-XY,D-XZ,D-YZ 
:QTL005: 1.9488 4.5900 0.5749 4.5300 2.6772 2.7716 2.7381 0.1140 0.1138 0.1149 0.1140 0.1373
        Q-s-low E-s-low   Q-p-low E-p-low   Q-d-low E-d-low   Q-f-low E-f-low
:EPL005:  1.8774 -2.0863    4.4817 -0.1646    0.0192 -0.0448    0.0089 -0.0361
        Q-s-hi  E-s-hi    Q-p-hi  E-p-hi    Q-d-hi  E-d-hi    Q-f-hi  E-f-hi 
:EPH005:  0.0713  1.1180    0.1083  1.1616    0.5557  1.1603    4.5211  1.2467

                      QXX         QXY         QYY         QZZ       UP TO R

:VZZ005:           -40.46825     5.72129    28.36394    12.10431       2.150

:CHA006: TOTAL CHARGE INSIDE SPHERE   6 =    11.636064
:PCS006: PARTIAL CHARGES SPHERE =  6 S,P,D,F,PX,PY,PZ,D-Z2,D-X2Y2,D-XY,D-XZ,D-YZ 
:QTL006: 1.9495 4.5830 0.5568 4.5434 2.7169 2.7280 2.7315 0.1060 0.1092 0.1207 0.1165 0.1223
        Q-s-low E-s-low   Q-p-low E-p-low   Q-d-low E-d-low   Q-f-low E-f-low
:EPL006:  1.8769 -2.0868    4.4833 -0.1643    0.0175 -0.0389    0.0080 -0.0240
        Q-s-hi  E-s-hi    Q-p-hi  E-p-hi    Q-d-hi  E-d-hi    Q-f-hi  E-f-hi 
:EPH006:  0.0726  1.1095    0.0997  1.1603    0.5392  1.1599    4.5354  1.2459

                      QXX         QXY         QYY         QZZ       UP TO R

:VZZ006:            -8.30348    -9.98233     0.30144     8.00204       2.150

:CHA007: TOTAL CHARGE INSIDE SPHERE   7 =    11.672066
:PCS007: PARTIAL CHARGES SPHERE =  7 S,P,D,F,PX,PY,PZ,D-Z2,D-X2Y2,D-XY,D-XZ,D-YZ 
:QTL007: 1.9456 4.5844 0.5896 4.5479 2.7355 2.7067 2.7351 0.1189 0.1018 0.1317 0.1403 0.1180
        Q-s-low E-s-low   Q-p-low E-p-low   Q-d-low E-d-low   Q-f-low E-f-low
:EPL007:  1.8784 -2.0838    4.4827 -0.1642    0.0229 -0.0577    0.0110 -0.0454
        Q-s-hi  E-s-hi    Q-p-hi  E-p-hi    Q-d-hi  E-d-hi    Q-f-hi  E-f-hi 
:EPH007:  0.0673  1.1144    0.1017  1.1585    0.5667  1.1595    4.5369  1.2385

                      QXX         QXY         QYY         QZZ       UP TO R

:VZZ007:             5.43640     8.94603   -14.13306     8.69666       2.150

:CHA008: TOTAL CHARGE INSIDE SPHERE   8 =    11.578365
:PCS008: PARTIAL CHARGES SPHERE =  8 S,P,D,F,PX,PY,PZ,D-Z2,D-X2Y2,D-XY,D-XZ,D-YZ 
:QTL008: 1.9502 4.6096 0.4715 4.5448 2.7195 2.7680 2.7744 0.1009 0.0832 0.0937 0.0979 0.1089
        Q-s-low E-s-low   Q-p-low E-p-low   Q-d-low E-d-low   Q-f-low E-f-low
:EPL008:  1.8753 -2.0883    4.4919 -0.1609    0.0102 -0.0280    0.0046 -0.0232
        Q-s-hi  E-s-hi    Q-p-hi  E-p-hi    Q-d-hi  E-d-hi    Q-f-hi  E-f-hi 
:EPH008:  0.0750  1.1110    0.1177  1.1570    0.4613  1.1614    4.5402  1.2446

                      QXX         QXY         QYY         QZZ       UP TO R

:VZZ008:           -41.26387     4.59159    27.26107    14.00280       2.150

:CHA  : TOTAL CHARGE INSIDE UNIT CELL =     256.000000

:ESUM  : SUM OF EIGENVALUES =          74.698864826


------- alpha_Pu_6.scfc --------

        1.ATOM      Pu  0+               21 CORE STATES
       CORE-FORCE in mRy/a.u. = |F|      Fx             Fy             Fz
:FCO001:   1.ATOM       3021.572      -2820.660      -1083.409          0.000

:1S 001: 1S               -8966.461980582 Ry
:2S 001: 2S               -1687.133980000 Ry
:2PP001: 2P*              -1627.827695548 Ry
:2P 001: 2P               -1314.676165888 Ry
:3S 001: 3S                -427.674936414 Ry
:3PP001: 3P*               -400.750595350 Ry
:3P 001: 3P                -328.189196005 Ry
:3DD001: 3D*               -285.949211343 Ry
:3D 001: 3D                -271.406953484 Ry
:4S 001: 4S                -109.156070586 Ry
:4PP001: 4P*                -96.968239412 Ry
:4P 001: 4P                 -77.822904689 Ry
:4DD001: 4D*                -58.535491035 Ry
:4D 001: 4D                 -55.040917734 Ry
:5S 001: 5S                 -23.311510055 Ry
:5PP001: 5P*                -18.493666763 Ry
:5P 001: 5P                 -13.804896751 Ry
:4FF001: 4F*                -29.640819703 Ry
:4F 001: 4F                 -28.712755596 Ry
:5DD001: 5D*                 -6.769816028 Ry
:5D 001: 5D                  -6.070891704 Ry

        2.ATOM      Pu  0+               21 CORE STATES
       CORE-FORCE in mRy/a.u. = |F|      Fx             Fy             Fz
:FCO002:   2.ATOM       1227.832        125.086      -1221.444          0.000

:1S 002: 1S               -8966.460919419 Ry
:2S 002: 2S               -1687.133545198 Ry
:2PP002: 2P*              -1627.827237140 Ry
:2P 002: 2P               -1314.675737211 Ry
:3S 002: 3S                -427.673706248 Ry
:3PP002: 3P*               -400.749402962 Ry
:3P 002: 3P                -328.187959744 Ry
:3DD002: 3D*               -285.948128319 Ry
:3D 002: 3D                -271.405836183 Ry
:4S 002: 4S                -109.155165251 Ry
:4PP002: 4P*                -96.967334194 Ry
:4P 002: 4P                 -77.822088859 Ry
:4DD002: 4D*                -58.534685153 Ry
:4D 002: 4D                 -55.040135084 Ry
:5S 002: 5S                 -23.311423569 Ry
:5PP002: 5P*                -18.493680148 Ry
:5P 002: 5P                 -13.805246275 Ry
:4FF002: 4F*                -29.639912190 Ry
:4F 002: 4F                 -28.711861896 Ry
:5DD002: 5D*                 -6.770568373 Ry
:5D 002: 5D                  -6.071768115 Ry

        3.ATOM      Pu  0+               21 CORE STATES
       CORE-FORCE in mRy/a.u. = |F|      Fx             Fy             Fz
:FCO003:   3.ATOM       5335.657      -3944.571      -3592.993          0.000

:1S 003: 1S               -8966.459575721 Ry
:2S 003: 2S               -1687.131907555 Ry
:2PP003: 2P*              -1627.825642964 Ry
:2P 003: 2P               -1314.674100365 Ry
:3S 003: 3S                -427.672089371 Ry
:3PP003: 3P*               -400.747788111 Ry
:3P 003: 3P                -328.186342211 Ry
:3DD003: 3D*               -285.946488488 Ry
:3D 003: 3D                -271.404198203 Ry
:4S 003: 4S                -109.153494893 Ry
:4PP003: 4P*                -96.965664515 Ry
:4P 003: 4P                 -77.820404178 Ry
:4DD003: 4D*                -58.532996333 Ry
:4D 003: 4D                 -55.038441867 Ry
:5S 003: 5S                 -23.309590705 Ry
:5PP003: 5P*                -18.491832902 Ry
:5P 003: 5P                 -13.803349243 Ry
:4FF003: 4F*                -29.638230084 Ry
:4F 003: 4F                 -28.710177569 Ry
:5DD003: 5D*                 -6.768606995 Ry
:5D 003: 5D                  -6.069786510 Ry

        4.ATOM      Pu  0+               21 CORE STATES
       CORE-FORCE in mRy/a.u. = |F|      Fx             Fy             Fz
:FCO004:   4.ATOM       2948.838       2901.065        528.643          0.000

:1S 004: 1S               -8966.460889623 Ry
:2S 004: 2S               -1687.133781292 Ry
:2PP004: 2P*              -1627.827421603 Ry
:2P 004: 2P               -1314.675975294 Ry
:3S 004: 3S                -427.674161429 Ry
:3PP004: 3P*               -400.749843588 Ry
:3P 004: 3P                -328.188420171 Ry
:3DD004: 3D*               -285.948571777 Ry
:3D 004: 3D                -271.406287868 Ry
:4S 004: 4S                -109.155623111 Ry
:4PP004: 4P*                -96.967791085 Ry
:4P 004: 4P                 -77.822545901 Ry
:4DD004: 4D*                -58.535144818 Ry
:4D 004: 4D                 -55.040595735 Ry
:5S 004: 5S                 -23.311919466 Ry
:5PP004: 5P*                -18.494167395 Ry
:5P 004: 5P                 -13.805702658 Ry
:4FF004: 4F*                -29.640392546 Ry
:4F 004: 4F                 -28.712342107 Ry
:5DD004: 5D*                 -6.770963773 Ry
:5D 004: 5D                  -6.072141829 Ry

        5.ATOM      Pu  0+               21 CORE STATES
       CORE-FORCE in mRy/a.u. = |F|      Fx             Fy             Fz
:FCO005:   5.ATOM       1833.254       -896.983      -1598.825          0.000

:1S 005: 1S               -8966.461243766 Ry
:2S 005: 2S               -1687.134218137 Ry
:2PP005: 2P*              -1627.827827732 Ry
:2P 005: 2P               -1314.676408014 Ry
:3S 005: 3S                -427.674750826 Ry
:3PP005: 3P*               -400.750422920 Ry
:3P 005: 3P                -328.189011094 Ry
:3DD005: 3D*               -285.949147230 Ry
:3D 005: 3D                -271.406869251 Ry
:4S 005: 4S                -109.156184678 Ry
:4PP005: 4P*                -96.968351991 Ry
:4P 005: 4P                 -77.823098318 Ry
:4DD005: 4D*                -58.535698409 Ry
:4D 005: 4D                 -55.041147464 Ry
:5S 005: 5S                 -23.312409912 Ry
:5PP005: 5P*                -18.494640016 Ry
:5P 005: 5P                 -13.806113245 Ry
:4FF005: 4F*                -29.640962433 Ry
:4F 005: 4F                 -28.712910632 Ry
:5DD005: 5D*                 -6.771274625 Ry
:5D 005: 5D                  -6.072418534 Ry

        6.ATOM      Pu  0+               21 CORE STATES
       CORE-FORCE in mRy/a.u. = |F|      Fx             Fy             Fz
:FCO006:   6.ATOM       5088.719      -4185.232      -2894.632          0.000

:1S 006: 1S               -8966.459630088 Ry
:2S 006: 2S               -1687.132060439 Ry
:2PP006: 2P*              -1627.825823902 Ry
:2P 006: 2P               -1314.674256737 Ry
:3S 006: 3S                -427.671743623 Ry
:3PP006: 3P*               -400.747469148 Ry
:3P 006: 3P                -328.185991025 Ry
:3DD006: 3D*               -285.946215153 Ry
:3D 006: 3D                -271.403904275 Ry
:4S 006: 4S                -109.153297198 Ry
:4PP006: 4P*                -96.965467606 Ry
:4P 006: 4P                 -77.820248310 Ry
:4DD006: 4D*                -58.532842841 Ry
:4D 006: 4D                 -55.038298470 Ry
:5S 006: 5S                 -23.309746041 Ry
:5PP006: 5P*                -18.492039317 Ry
:5P 006: 5P                 -13.803727946 Ry
:4FF006: 4F*                -29.638017599 Ry
:4F 006: 4F                 -28.709971535 Ry
:5DD006: 5D*                 -6.769202559 Ry
:5D 006: 5D                  -6.070450253 Ry

        7.ATOM      Pu  0+               21 CORE STATES
       CORE-FORCE in mRy/a.u. = |F|      Fx             Fy             Fz
:FCO007:   7.ATOM       4946.928       3353.880      -3636.425          0.000

:1S 007: 1S               -8966.459297536 Ry
:2S 007: 2S               -1687.131797201 Ry
:2PP007: 2P*              -1627.825487169 Ry
:2P 007: 2P               -1314.673984609 Ry
:3S 007: 3S                -427.672132693 Ry
:3PP007: 3P*               -400.747819742 Ry
:3P 007: 3P                -328.186388251 Ry
:3DD007: 3D*               -285.946523545 Ry
:3D 007: 3D                -271.404239215 Ry
:4S 007: 4S                -109.153551735 Ry
:4PP007: 4P*                -96.965720114 Ry
:4P 007: 4P                 -77.820462092 Ry
:4DD007: 4D*                -58.533055876 Ry
:4D 007: 4D                 -55.038502725 Ry
:5S 007: 5S                 -23.309698522 Ry
:5PP007: 5P*                -18.491939918 Ry
:5P 007: 5P                 -13.803455430 Ry
:4FF007: 4F*                -29.638303161 Ry
:4F 007: 4F                 -28.710250883 Ry
:5DD007: 5D*                 -6.768716761 Ry
:5D 007: 5D                  -6.069898555 Ry

        8.ATOM      Pu  0+               21 CORE STATES
       CORE-FORCE in mRy/a.u. = |F|      Fx             Fy             Fz
:FCO008:   8.ATOM        914.651       -863.039       -302.903          0.000

:1S 008: 1S               -8966.451772653 Ry
:2S 008: 2S               -1687.124444939 Ry
:2PP008: 2P*              -1627.818274444 Ry
:2P 008: 2P               -1314.666641354 Ry
:3S 008: 3S                -427.662754728 Ry
:3PP008: 3P*               -400.738550007 Ry
:3P 008: 3P                -328.176990787 Ry
:3DD008: 3D*               -285.937424224 Ry
:3D 008: 3D                -271.395058108 Ry
:4S 008: 4S                -109.144842038 Ry
:4PP008: 4P*                -96.957012688 Ry
:4P 008: 4P                 -77.811935661 Ry
:4DD008: 4D*                -58.524533618 Ry
:4D 008: 4D                 -55.030025562 Ry
:5S 008: 5S                 -23.302571900 Ry
:5PP008: 5P*                -18.485048407 Ry
:5P 008: 5P                 -13.797363512 Ry
:4FF008: 4F*                -29.629538416 Ry
:4F 008: 4F                 -28.701514524 Ry
:5DD008: 5D*                 -6.763682154 Ry
:5D 008: 5D                  -6.065205823 Ry

------- alpha_Pu_6.scfm --------

       DENSITY AT NUCLEUS
        JATOM    VALENCE       SEMI-CORE            CORE           TOTAL
:RTO001:   1    23367.498412        0.000000 45141825.837907 45165193.336319
:RTO002:   2    23471.048384        0.000000 45141818.292499 45165289.340883
:RTO003:   3    23454.845777        0.000000 45141820.531395 45165275.377172
:RTO004:   4    23515.836724        0.000000 45141816.689395 45165332.526119
:RTO005:   5    23483.252879        0.000000 45141817.042178 45165300.295057
:RTO006:   6    23491.689567        0.000000 45141818.060515 45165309.750081
:RTO007:   7    23417.415200        0.000000 45141819.515827 45165236.931028
:RTO008:   8    23498.253581        0.000000 45141809.022010 45165307.275591
     
       CHARGES OF NEW CHARGE DENSITY
:NTO  : TOTAL   INTERSTITIAL CHARGE=   69.5251552
:NTO001: TOTAL   CHARGE IN SPHERE  1 =       89.7202703
:NTO002: TOTAL   CHARGE IN SPHERE  2 =       89.6473048
:NTO003: TOTAL   CHARGE IN SPHERE  3 =       89.6571941
:NTO004: TOTAL   CHARGE IN SPHERE  4 =       89.6415147
:NTO005: TOTAL   CHARGE IN SPHERE  5 =       89.6381931
:NTO006: TOTAL   CHARGE IN SPHERE  6 =       89.6267843
:NTO007: TOTAL   CHARGE IN SPHERE  7 =       89.6627775
:NTO008: TOTAL   CHARGE IN SPHERE  8 =       89.5690688

:NEC01: NUCLEAR AND ELECTRONIC CHARGE   1504.00000  1503.85137     1.00010
     
       CHARGES OF OLD CHARGE DENSITY
:OTO  : TOTAL   INTERSTITIAL CHARGE=   69.6871647
:OTO001: TOTAL   CHARGE IN SPHERE  1 =       89.7188125
:OTO002: TOTAL   CHARGE IN SPHERE  2 =       89.6464232
:OTO003: TOTAL   CHARGE IN SPHERE  3 =       89.6563822
:OTO004: TOTAL   CHARGE IN SPHERE  4 =       89.6411980
:OTO005: TOTAL   CHARGE IN SPHERE  5 =       89.6375851
:OTO006: TOTAL   CHARGE IN SPHERE  6 =       89.6257693
:OTO007: TOTAL   CHARGE IN SPHERE  7 =       89.6619145
:OTO008: TOTAL   CHARGE IN SPHERE  8 =       89.5683329

:NEC02: NUCLEAR AND ELECTRONIC CHARGE   1504.00000  1504.00000     1.00000
     
       CONVERGENCE TEST
:DTO001: TOTAL   DIFFERENCE CHARGE**2 IN SPHERE  1 =  0.0013649
:DTO002: TOTAL   DIFFERENCE CHARGE**2 IN SPHERE  2 =  0.0009124
:DTO003: TOTAL   DIFFERENCE CHARGE**2 IN SPHERE  3 =  0.0008575
:DTO004: TOTAL   DIFFERENCE CHARGE**2 IN SPHERE  4 =  0.0004779
:DTO005: TOTAL   DIFFERENCE CHARGE**2 IN SPHERE  5 =  0.0007053
:DTO006: TOTAL   DIFFERENCE CHARGE**2 IN SPHERE  6 =  0.0010231
:DTO007: TOTAL   DIFFERENCE CHARGE**2 IN SPHERE  7 =  0.0008964
:DTO008: TOTAL   DIFFERENCE CHARGE**2 IN SPHERE  8 =  0.0007806

:DIS  :  CHARGE DISTANCE       ( 0.0013649 for atom    1 spin 1)      0.0008773
:BIG check (qbig,qrms,qtot)    0.455D-03   0.643D-03   0.877D-03
 
******************************************************
* MULTISECANT MIXING VER4 OPTIONS                    *
* Unpredicted Step Limit   0.100000                  *
* Plane Wave Dynamic Rescaling                       *
* Dynamic Regularization active                      *
* Upper Cutoff Lambda  1.0E-01 Lower 3.5E-04         *
* SQRT Multiplicity/Degeneracy                       *
* Max Number of Memory Steps    8                    *
******************************************************
 
:PLANE:  INTERSTITIAL TOTAL      7.50437 DISTAN  4.900E-03 % 
:CHARG:  CLM CHARGE   /ATOM    356.61324 DISTAN  2.863E-04 % 
:INFO :  Dynamic rescale   2.206E+01  1.000E-01
:INFO :  Number of Memory Steps    5 Skipping    0
:INFO :  Singular value   5.019E+00 Weight   1.000E+00 Projections   8.498E-03 -5.148E-03
:INFO :  Singular value   1.245E-02 Weight   9.992E-01 Projections  -1.241E-04  2.029E-03
:INFO :  Singular value   1.705E-03 Weight   9.596E-01 Projections   4.462E-03  6.338E-03
:INFO :  Singular value   4.097E-04 Weight   5.781E-01 Projections   1.678E-03 -5.752E-03
:INFO :  Singular value   2.144E-04 Weight   2.729E-01 Projections  -3.003E-03 -3.003E-04
:INFO :  Bounds         0.855D-02  0.200D+00  0.222D+01  0.100D-01
:DIRM :  MEMORY 5/8 RESCALE  22.06 RED 1.169 PRED 0.053 NEXT 0.045 COND 8.56E-01
:DIRP :  |BROYD|= 7.973E-06 |PRATT|= 8.111E-05 ANGLE= 169.2 DEGREES
:DIRB :  |BROYD|= 1.114E-05 |PRATT|= 1.151E-04 ANGLE= 169.3 DEGREES
:MIX  :  MSR1   REGULARIZATION: 3.50E-04  GREED: 0.010
     
       CHARGES OF MIXED CHARGE DENSITY
:CTO  : TOTAL   INTERSTITIAL CHARGE=   69.6871775
:CTO001: TOTAL   CHARGE IN SPHERE  1 =       89.7188113
:CTO002: TOTAL   CHARGE IN SPHERE  2 =       89.6464224
:CTO003: TOTAL   CHARGE IN SPHERE  3 =       89.6563812
:CTO004: TOTAL   CHARGE IN SPHERE  4 =       89.6411975
:CTO005: TOTAL   CHARGE IN SPHERE  5 =       89.6375845
:CTO006: TOTAL   CHARGE IN SPHERE  6 =       89.6257683
:CTO007: TOTAL   CHARGE IN SPHERE  7 =       89.6619138
:CTO008: TOTAL   CHARGE IN SPHERE  8 =       89.5683323

:NEC03: NUCLEAR AND ELECTRONIC CHARGE   1504.00000  1504.00000     1.00000


:ENE  : ********** TOTAL ENERGY IN Ry =      -949675.84515805

       TOTAL FORCE IN mRy/a.u. = |F|     Fx             Fy             Fz     with/without FOR in case.in2
:FOR001:   1.ATOM         91.617         91.563         -3.132          0.000 partial forces
:FOR002:   2.ATOM         75.039        -61.940         42.359          0.000 partial forces
:FOR003:   3.ATOM         91.148         64.941         63.958          0.000 partial forces
:FOR004:   4.ATOM         66.515        -50.886        -42.836          0.000 partial forces
:FOR005:   5.ATOM         33.997         33.947          1.834          0.000 partial forces
:FOR006:   6.ATOM         76.860         59.182         49.041          0.000 partial forces
:FOR007:   7.ATOM        133.862       -133.733         -5.877          0.000 partial forces
:FOR008:   8.ATOM         56.102         35.396         43.526          0.000 partial forces

       TOTAL FORCE WITH RESPECT TO GLOBAL CARTESIAN COORDINATES:
:FCA001:   1.ATOM                        -3.132          0.000         91.563 partial forces
:FCA002:   2.ATOM                        42.359          0.000        -61.940 partial forces
:FCA003:   3.ATOM                        63.958          0.000         64.941 partial forces
:FCA004:   4.ATOM                       -42.836          0.000        -50.886 partial forces
:FCA005:   5.ATOM                         1.834          0.000         33.947 partial forces
:FCA006:   6.ATOM                        49.041          0.000         59.182 partial forces
:FCA007:   7.ATOM                        -5.877          0.000       -133.733 partial forces
:FCA008:   8.ATOM                        43.526          0.000         35.396 partial forces

       TOTAL FORCE WITH RESPECT TO THE GLOBAL COORDINATE SYSTEM:
:FGL001:   1.ATOM                -3.199464673     0.000000000    90.909432718 partial forces
:FGL002:   2.ATOM                43.271431697     0.000000000   -53.100773785 partial forces
:FGL003:   3.ATOM                65.335683762     0.000000000    78.287378107 partial forces
:FGL004:   4.ATOM               -43.758706489     0.000000000   -59.824763761 partial forces
:FGL005:   5.ATOM                 1.873505176     0.000000000    34.329708300 partial forces
:FGL006:   6.ATOM                50.097364948     0.000000000    69.415586553 partial forces
:FGL007:   7.ATOM                -6.003593193     0.000000000  -134.959377688 partial forces
:FGL008:   8.ATOM                44.463569396     0.000000000    44.478748890 partial forces
