
:LABEL1: Calculations in /home/ykent/GWIEN/example/Pr/V0/case
:LABEL2: on didymium-2.cmpgroup.ameslab.gov at Wed Jul  8 15:59:45 CDT 2020
:LABEL3: using WIEN2k_19.1 (Release 25/6/2019) in /home/ykent/opt/src/WIEN2k_19.1
:LABEL4: using the command: run_lapw -cc 0.0001

:LABEL1: Calculations in /home/ykent/GWIEN/example/Pr/V0/case
:LABEL2: on didymium-2.cmpgroup.ameslab.gov at Wed Jul  8 16:07:54 CDT 2020
:LABEL3: using WIEN2k_19.1 (Release 25/6/2019) in /home/ykent/opt/src/WIEN2k_19.1
:LABEL4: using the command: run_lapw -cc 0.0001

:LABEL1: Calculations in /home/ykent/GWIEN/example/Pr/V0/case
:LABEL2: on didymium-2.cmpgroup.ameslab.gov at Wed Jul  8 16:08:04 CDT 2020
:LABEL3: using WIEN2k_19.1 (Release 25/6/2019) in /home/ykent/opt/src/WIEN2k_19.1
:LABEL4: using the command: run_lapw -cc 0.0001
 Flat Integration
 New Mode for Coulomb Integral
 Consistent 3/8+Simpson combinations
 Extension of core to zero
 LDM version in phi
 Fifth-order quadrature in outwin


            ---------
:ITE001:  1. ITERATION
            ---------

:NATO :    1 INDEPENDENT AND    1 TOTAL ATOMS IN UNITCELL
       SUBSTANCE: blebleble                                                   

       LATTICE                      = F   
:POT  : POTENTIAL OPTION EX_LDA EC_LDA VX_LDA VC_LDA
:LAT  : LATTICE CONSTANTS=  7.33567  7.33567  7.33567    1.571    1.571    1.571
:VOL  : UNIT CELL VOLUME =      98.68671
       MODE OF CALCULATION IS       = RELA
       NON-SPINPOLARIZED CALCULATION
:IFFT  : FFT-parameters:   60   60   60 Factor: 2.00


   CONVERGENCE PARAMETER FOR PSEUDOCHARGE: NCON=  9
   MAXIMAL VALUE OF RMT(JATOM)*ABSK(NKK) : RK  =29.97839


:VKCOUL :  VK-COUL convergence: 0.443E-05
       ATOMNUMBER=  1 Pr         VCOUL-ZERO =  0.10665E+01
:FIT001: LUSE= 13 SIGMA OF V-XC FIT FOR ATOM  1  0.1770992E-03
:FIT001: LUSE= 13 SIGMA OF V-XC FIT FOR ATOM  1  0.1770992E-03
:DEN  : DENSITY INTEGRAL  =         -7142.79339309   (Ry)
       ELS_POTENTIAL_AT Z=0 and Z=0.5:  -3.00471  -3.00471
       ELS_POTENTIAL_AT Y=0 and Y=0.5:   0.00000   0.00000
:VZERO:v0,v0c,v0x  -4.18137  -3.00471  -1.17666 v5,v5c,v5x  -4.18137  -3.00471  -1.17666
:VZERY:v0,v0c,v0x  -0.99720   0.00000  -0.99720 v5,v5c,v5x  -0.99720   0.00000  -0.99720
:VZERX:v0,v0c,v0x  -0.99720   0.00000  -0.99720 v5,v5c,v5x  -0.99720   0.00000  -0.99720
:LMAX-WF:   10   Non-Spherical LMAX:   4

          ATOMIC SPHERE DEPENDENT PARAMETERS FOR ATOM  Pr        
:e__0001: OVERALL ENERGY PARAMETER IS    0.7000
          OVERALL BASIS SET ON ATOM IS LAPW
:E0_0001: E( 0)=    0.7000
             APW+lo
:E0_0001: E( 0)=   -1.0180   E(BOTTOM)=   -1.442   E(TOP)=   -0.594  4  5   281
             LOCAL ORBITAL
:E1_0001: E( 1)=    1.1000
             APW+lo
:E1_0001: E( 1)=    0.3348   E(BOTTOM)=   -0.371   E(TOP)=    1.041  3  4   276
             LOCAL ORBITAL
:E3_0001: E( 3)=    1.5541   E(BOTTOM)=    1.554   E(TOP)= -200.000  0 -1   154
             APW+lo
:E2_0001: E( 2)=    1.1495   E(BOTTOM)=    1.150   E(TOP)= -200.000  2 -1   134
             APW+lo

       K=   0.00000   0.00000   0.00000            1
:RKM  : MATRIX SIZE    79LOs:  20  RKM= 7.42  WEIGHT= 1.00  PGR:    
       EIGENVALUES ARE:
:EIG00001:      -1.1982206    0.6251620    0.6251620    0.6251620    1.5389349
:EIG00006:       1.6608672    1.6933636    1.6933636    1.6933636    1.7146196
:EIG00011:       1.7146196    1.7146196    1.8623276    1.8623276    1.8623276
:EIG00016:       2.2095100    2.2095100
       ********************************************************

:KPT   :      NUMBER OF K-POINTS:   165
:GAP (global)   :    0.0    Ry =     0.0   eV (metal)
         Bandranges (emin - emax) and occupancy:
:BAN00001:   1   -1.198221   -0.902127  2.00000000
:BAN00002:   2   -0.101249    0.625162  2.00000000
:BAN00003:   3    0.094125    0.625162  2.00000000
:BAN00004:   4    0.277674    0.625162  2.00000000
:BAN00005:   5    1.160969    1.538935  2.00000000
:BAN00006:   6    1.198191    1.690324  1.99801493
:BAN00007:   7    1.631433    1.759410  0.96573061
:BAN00008:   8    1.659558    1.778297  0.03625446
:BAN00009:   9    1.684699    1.788466  0.00000000
:BAN00010:  10    1.705502    1.823026  0.00000000
:BAN00011:  11    1.714620    1.844430  0.00000000
:BAN00012:  12    1.714620    1.883411  0.00000000
:BAN00013:  13    1.814809    1.971169  0.00000000
        Energy to separate low and high energystates:    1.11097


:NOE  : NUMBER OF ELECTRONS          =   13.000

:FER  : F E R M I - ENERGY(TETRAH.M.)=   1.6809115039
:GMA  : POTENTIAL AND CHARGE CUT-OFF  12.00 Ry**.5

:POS001: ATOM    1 X,Y,Z = 0.00000 0.00000 0.50000  MULT= 1  ZZ= 59.000  Pr        

       LMMAX  5
       LM=   0 0  4 0  4 4  6 0  6 4

:CHA001: TOTAL VALENCE CHARGE INSIDE SPHERE   1 =  11.0146    (RMT=  2.5000 )
:PCS001: PARTIAL CHARGES SPHERE =  1 S,P,D,F,      D-EG,D-T2G 
:QTL001: 2.0474 5.2999 1.8814 1.7476 0.0000 0.0000 0.0000 0.7360 1.1453 0.0000 0.0000 0.0000
        Q-s-low E-s-low   Q-p-low E-p-low   Q-d-low E-d-low   Q-f-low E-f-low
:EPL001:  1.9346 -0.9496    5.1242  0.2893    0.1420  0.2201    0.0539  0.2565
        Q-s-hi  E-s-hi    Q-p-hi  E-p-hi    Q-d-hi  E-d-hi    Q-f-hi  E-f-hi 
:EPH001:  0.1128  1.4968    0.1758  1.4858    1.7394  1.4557    1.6938  1.5660

:CHA  : TOTAL VALENCE CHARGE INSIDE UNIT CELL =      13.000000

:SUM  : SUM OF EIGENVALUES =           7.204684306



   QTL-B VALUE .EQ.   12.73906   in Band of energy    1.66087   ATOM=    1   L=  0
    Most likely no ghostbands, but adjust Energy-parameters for this ATOM and L


:WARN : QTL-B value eq.  12.74 in Band of energy   1.66087  ATOM=    1  L=  0
:WARN : You should change the E-parameter for this atom and L-value in case.in1 (or try the -in1new switch)

        1.ATOM      Pr                   14 CORE STATES
:1S 001: 1S               -3065.716058083 Ry
:2S 001: 2S                -491.482497549 Ry
:2PP001: 2P*               -464.579918976 Ry
:2P 001: 2P                -429.183195688 Ry
:3S 001: 3S                -104.584618425 Ry
:3PP001: 3P*                -93.121709011 Ry
:3P 001: 3P                 -86.114796997 Ry
:3DD001: 3D*                -66.040128549 Ry
:3D 001: 3D                 -64.528836900 Ry
:4S 001: 4S                 -19.292807145 Ry
:4PP001: 4P*                -15.001793836 Ry
:4P 001: 4P                 -13.477640132 Ry
:4DD001: 4D*                 -6.418180687 Ry
:4D 001: 4D                  -6.150112843 Ry
:CINT001 Core Integral Atom   1   45.999402

       DENSITY AT NUCLEUS
        JATOM        VALENCE       SEMI-CORE          CORE           TOTAL
:RTO001:   1      633.773106        0.000000   656815.146874   657448.919980
     
       CHARGES OF NEW CHARGE DENSITY
:NTO   : INTERSTITIAL CHARGE =     1.985335
:NPC   : PW Pseudocharge     =     9.364467
:NTO001: CHARGE SPHERE  1    =    57.014017

:NEC01: NUCLEAR AND ELECTRONIC CHARGE     59.00000    58.99935
     
       CHARGES OF OLD CHARGE DENSITY
:OTO   : INTERSTITIAL CHARGE =     1.642201
:OPC   : PW Pseudocharge     =     8.196354
:OTO001: CHARGE SPHERE  1    =    57.358526

:NEC02: NUCLEAR AND ELECTRONIC CHARGE     59.00000    59.00073
     
       CONVERGENCE TEST
:DTO001: DIFFERENCE IN SPHERE  1 =  1.1268969

:DIS  :  CHARGE DISTANCE       ( 1.1268969 for atom    1 spin 1)      1.1268969
 PW Mixed is           26
 
******************************************************
* MULTISECANT MIXING VER9 RELEASE 10.4.0              *
* Standard Mode with controls                        *
* Fixed density scale                                *
* Regularization       1.000E-04                     *
* Trust Upper Limit    5.000E+00                     *
* Max Number of Memory Steps    8                    *
******************************************************
 
:PWTMP   3.3237E+01  1.2500E+02  9.8687E+01
:PLANE:  PW TOTAL      2.4254 DISTAN   3.73E-01  1.54E+01 %
:CHARG:  CLM/ATOM    977.2684 DISTAN   1.13E+00  1.16E-01 %
INFO: Reducing dbase  2.50000E-02 1.12690E+00 2.35504E-02
 
Step History
        DMIX         DMIXT        Red     Pred      Trust     Lambda    MagRel    MagAbs     Beta
  1   3.5000E-02   3.5000E-02 -1.00E+00  1.00E+00 -1.00E+01  1.00E+00  3.50E-02  3.50E-02  1.00E+00
:INFO :  Note, Pratt in use
INFO: Reducing dbase  2.35504E-02 1.12690E+00 2.21848E-02
:TRUST:  Step 3.75E-02  Charge 7.50E-02 (e) CTO  2.50E-01 (e) PW  3.50E-01 (e)
:DIRM :  MEMORY  0/ 8 SCALE   1.000
Performing Pseudo Compensation
Final Pseudo Compensation Rescaling     1.00000E+00
:MIX  :   PRATT  REGULARIZATION:  1.00E-04 GREED: 0.02500                  
     
       CHARGES OF MIXED CHARGE DENSITY
:CTO   : INTERSTITIAL CHARGE =     1.650087
:CPC   : PW Pseudocharge     =     8.838259
:CTO001: CHARGE SPHERE  1    =    57.349913

:NEC03: NUCLEAR AND ELECTRONIC CHARGE     59.00000    59.00000

PW CHANGE     H    K    L      Current       Change    Residue
:PTO001:      0    0    0  1.06279220E-01  6.628E-03  1.540E-02
:PTO002:     -1   -1   -1 -1.82891571E-01 -2.424E-02 -2.352E-02
:PTO003:      0    0   -2  9.02132957E-02  1.380E-02  8.277E-03
:PTO004:      0   -2   -2  2.27852742E-02  8.645E-03  1.168E-02
:PTO005:     -1   -1   -3  7.89564750E-03 -5.779E-03 -5.860E-03
:PTO006:     -2   -2   -2 -4.50197690E-03  1.199E-03 -3.761E-04
:PTO007:      0    0   -4 -3.56525208E-03 -7.480E-05 -1.030E-03
:PTO008:     -1   -3   -3  8.92304256E-03  1.031E-03  1.774E-03
:PTO009:      0   -2   -4 -7.34967061E-03 -1.159E-03 -2.214E-03
:PTO010:     -2   -2   -4 -3.11077783E-03 -1.434E-03 -3.898E-03
:PTO011:     -3   -3   -3  5.85198764E-04  5.115E-04  1.273E-03
:PTO012:     -1   -1   -5  1.74216520E-03  1.521E-03  3.283E-03

:ENE  : *WARNING** TOTAL ENERGY IN Ry =       -18472.15698150

 Flat Integration
 New Mode for Coulomb Integral
 Consistent 3/8+Simpson combinations
 Extension of core to zero
 LDM version in phi
 Fifth-order quadrature in outwin


            ---------
:ITE002:  2. ITERATION
            ---------

:NATO :    1 INDEPENDENT AND    1 TOTAL ATOMS IN UNITCELL
       SUBSTANCE: blebleble                                                   

       LATTICE                      = F   
:POT  : POTENTIAL OPTION EX_LDA EC_LDA VX_LDA VC_LDA
:LAT  : LATTICE CONSTANTS=  7.33567  7.33567  7.33567    1.571    1.571    1.571
:VOL  : UNIT CELL VOLUME =      98.68671
       MODE OF CALCULATION IS       = RELA
       NON-SPINPOLARIZED CALCULATION
:IFFT  : FFT-parameters:   60   60   60 Factor: 2.00


   CONVERGENCE PARAMETER FOR PSEUDOCHARGE: NCON=  9
   MAXIMAL VALUE OF RMT(JATOM)*ABSK(NKK) : RK  =29.97839


:VKCOUL :  VK-COUL convergence: 0.285E-06
       ATOMNUMBER=  1 Pr         VCOUL-ZERO =  0.11002E+01
:FIT001: LUSE= 13 SIGMA OF V-XC FIT FOR ATOM  1  0.1757317E-03
:FIT001: LUSE= 13 SIGMA OF V-XC FIT FOR ATOM  1  0.1757317E-03
:DEN  : DENSITY INTEGRAL  =         -7143.03225004   (Ry)
       ELS_POTENTIAL_AT Z=0 and Z=0.5:  -3.12859  -3.12859
       ELS_POTENTIAL_AT Y=0 and Y=0.5:   0.00000   0.00000
:VZERO:v0,v0c,v0x  -4.33898  -3.12859  -1.21039 v5,v5c,v5x  -4.33898  -3.12859  -1.21039
:VZERY:v0,v0c,v0x  -1.01138   0.00000  -1.01138 v5,v5c,v5x  -1.01138   0.00000  -1.01138
:VZERX:v0,v0c,v0x  -1.01138   0.00000  -1.01138 v5,v5c,v5x  -1.01138   0.00000  -1.01138
:LMAX-WF:   10   Non-Spherical LMAX:   4

          ATOMIC SPHERE DEPENDENT PARAMETERS FOR ATOM  Pr        
:e__0001: OVERALL ENERGY PARAMETER IS    0.9000
          OVERALL BASIS SET ON ATOM IS LAPW
:E0_0001: E( 0)=    0.9000
             APW+lo
:E0_0001: E( 0)=   -0.9960   E(BOTTOM)=   -1.418   E(TOP)=   -0.574  4  5   282
             LOCAL ORBITAL
:E1_0001: E( 1)=    1.3000
             APW+lo
:E1_0001: E( 1)=    0.3586   E(BOTTOM)=   -0.345   E(TOP)=    1.062  3  4   277
             LOCAL ORBITAL
:E3_0001: E( 3)=    1.7487   E(BOTTOM)=    1.571   E(TOP)=    1.927  0  1   184
             APW+lo
:E2_0001: E( 2)=    1.1777   E(BOTTOM)=    1.178   E(TOP)= -200.000  2 -1   120
             APW+lo

       K=   0.00000   0.00000   0.00000            1
:RKM  : MATRIX SIZE    79LOs:  20  RKM= 7.42  WEIGHT= 1.00  PGR:    
       EIGENVALUES ARE:
:EIG00001:      -1.1744264    0.6484381    0.6484381    0.6484381    1.5584065
:EIG00006:       1.6883414    1.7086132    1.7086132    1.7086132    1.7429546
:EIG00011:       1.7429546    1.7429546    1.8723334    1.8723334    1.8723334
:EIG00016:       2.2364835    2.2364835
       ********************************************************

:KPT   :      NUMBER OF K-POINTS:   165
:GAP (global)   :    0.0    Ry =     0.0   eV (metal)
         Bandranges (emin - emax) and occupancy:
:BAN00001:   1   -1.174426   -0.879808  2.00000000
:BAN00002:   2   -0.074143    0.648438  2.00000000
:BAN00003:   3    0.120426    0.648438  2.00000000
:BAN00004:   4    0.303449    0.648438  2.00000000
:BAN00005:   5    1.190855    1.558406  2.00000000
:BAN00006:   6    1.227719    1.706003  1.99831708
:BAN00007:   7    1.651821    1.772773  0.96713714
:BAN00008:   8    1.684002    1.791189  0.03454578
:BAN00009:   9    1.704022    1.801122  0.00000000
:BAN00010:  10    1.724042    1.834241  0.00000000
:BAN00011:  11    1.740078    1.857779  0.00000000
:BAN00012:  12    1.742955    1.898850  0.00000000
:BAN00013:  13    1.827193    1.996602  0.00000000
        Energy to separate low and high energystates:    1.14085


:NOE  : NUMBER OF ELECTRONS          =   13.000

:FER  : F E R M I - ENERGY(TETRAH.M.)=   1.6999302208
:GMA  : POTENTIAL AND CHARGE CUT-OFF  12.00 Ry**.5

:POS001: ATOM    1 X,Y,Z = 0.00000 0.00000 0.50000  MULT= 1  ZZ= 59.000  Pr        

       LMMAX  5
       LM=   0 0  4 0  4 4  6 0  6 4

:CHA001: TOTAL VALENCE CHARGE INSIDE SPHERE   1 =  11.0508    (RMT=  2.5000 )
:PCS001: PARTIAL CHARGES SPHERE =  1 S,P,D,F,      D-EG,D-T2G 
:QTL001: 2.0449 5.2993 1.8226 1.8474 0.0000 0.0000 0.0000 0.7085 1.1141 0.0000 0.0000 0.0000
        Q-s-low E-s-low   Q-p-low E-p-low   Q-d-low E-d-low   Q-f-low E-f-low
:EPL001:  1.9353 -0.9272    5.1302  0.3147    0.1403  0.2451    0.0552  0.2817
        Q-s-hi  E-s-hi    Q-p-hi  E-p-hi    Q-d-hi  E-d-hi    Q-f-hi  E-f-hi 
:EPH001:  0.1096  1.5189    0.1691  1.5092    1.6823  1.4768    1.7922  1.5896

:CHA  : TOTAL VALENCE CHARGE INSIDE UNIT CELL =      13.000000

:SUM  : SUM OF EIGENVALUES =           7.526186932



   QTL-B VALUE .EQ.    6.42743   in Band of energy    1.68834   ATOM=    1   L=  0
    Most likely no ghostbands, but adjust Energy-parameters for this ATOM and L


:WARN : QTL-B value eq.   6.43 in Band of energy   1.68834  ATOM=    1  L=  0
:WARN : You should change the E-parameter for this atom and L-value in case.in1 (or try the -in1new switch)

        1.ATOM      Pr                   14 CORE STATES
:1S 001: 1S               -3065.723342847 Ry
:2S 001: 2S                -491.488877422 Ry
:2PP001: 2P*               -464.586434207 Ry
:2P 001: 2P                -429.189654643 Ry
:3S 001: 3S                -104.589376595 Ry
:3PP001: 3P*                -93.126589873 Ry
:3P 001: 3P                 -86.119493327 Ry
:3DD001: 3D*                -66.045166615 Ry
:3D 001: 3D                 -64.533825559 Ry
:4S 001: 4S                 -19.289535158 Ry
:4PP001: 4P*                -14.998041455 Ry
:4P 001: 4P                 -13.473139101 Ry
:4DD001: 4D*                 -6.412319098 Ry
:4D 001: 4D                  -6.143991909 Ry
:CINT001 Core Integral Atom   1   45.999411

       DENSITY AT NUCLEUS
        JATOM        VALENCE       SEMI-CORE          CORE           TOTAL
:RTO001:   1      634.265885        0.000000   656816.962848   657451.228734
     
       CHARGES OF NEW CHARGE DENSITY
:NTO   : INTERSTITIAL CHARGE =     1.949172
:NPC   : PW Pseudocharge     =     9.303285
:NTO001: CHARGE SPHERE  1    =    57.050188

:NEC01: NUCLEAR AND ELECTRONIC CHARGE     59.00000    58.99936
     
       CHARGES OF OLD CHARGE DENSITY
:OTO   : INTERSTITIAL CHARGE =     1.650087
:OPC   : PW Pseudocharge     =     8.838259
:OTO001: CHARGE SPHERE  1    =    57.349913

:NEC02: NUCLEAR AND ELECTRONIC CHARGE     59.00000    59.00000
     
       CONVERGENCE TEST
:DTO001: DIFFERENCE IN SPHERE  1 =  0.9840548

:DIS  :  CHARGE DISTANCE       ( 0.9840548 for atom    1 spin 1)      0.9840548
 PW Mixed is           26
 
******************************************************
* MULTISECANT MIXING VER9 RELEASE 10.4.0              *
* Slow Mode, cautious                                *
* Fixed density scale                                *
* Regularization       1.000E-04                     *
* Step Trust Radius    0.75000                       *
* Trust Upper Limit    2.000E+00                     *
* Max Number of Memory Steps   12                    *
******************************************************
 
:PWTMP   3.3237E+01  1.2500E+02  9.8687E+01
:PLANE:  PW TOTAL      2.6560 DISTAN   1.67E-01  6.30E+00 %
:CHARG:  CLM/ATOM    977.2628 DISTAN   9.91E-01  1.01E-01 %
 
Step History
        DMIX         DMIXT        Red     Pred      Trust     Lambda    MagRel    MagAbs     Beta
  1   3.5000E-02   3.5000E-02 -1.00E+00  1.00E+00 -1.00E+01  1.00E+00  3.50E-02  3.50E-02  1.00E+00
  2   2.5000E-02   2.5000E-02 -1.00E+00  1.00E+00 -1.00E+01  1.00E+00  2.50E-02  2.98E-02  1.00E+00
:JACOBIANS    3.719E-01   2.254E-02
  
:TRUST:  Step 3.84E-02  Charge 7.50E-02 (e) CTO  2.50E-01 (e) PW  3.50E-01 (e)
:DIRM :  MEMORY  1/12 SCALE   1.000
:MIX  :   PRATT  REGULARIZATION:  1.00E-04 GREED: 0.03839  Expand 1.54  0.0384                
     
       CHARGES OF MIXED CHARGE DENSITY
:CTO   : INTERSTITIAL CHARGE =     1.665445
:CPC   : PW Pseudocharge     =     9.989325
:CTO001: CHARGE SPHERE  1    =    57.334555

:NEC03: NUCLEAR AND ELECTRONIC CHARGE     59.00000    59.00000

PW CHANGE     H    K    L      Current       Change    Residue
:PTO001:      0    0    0  1.18098677E-01  1.182E-02  7.780E-03
:PTO002:     -1   -1   -1 -2.26121366E-01 -4.323E-02  6.042E-05
:PTO003:      0    0   -2  1.14823705E-01  2.461E-02 -5.056E-03
:PTO004:      0   -2   -2  3.82007082E-02  1.542E-02  3.676E-03
:PTO005:     -1   -1   -3 -2.40852811E-03 -1.030E-02 -5.273E-04
:PTO006:     -2   -2   -2 -2.36478259E-03  2.137E-03 -1.357E-03
:PTO007:      0    0   -4 -3.69863037E-03 -1.334E-04 -9.390E-04
:PTO008:     -1   -3   -3  1.07605713E-02  1.838E-03  6.242E-04
:PTO009:      0   -2   -4 -9.41633686E-03 -2.067E-03 -1.016E-03
:PTO010:     -2   -2   -4 -5.66854747E-03 -2.558E-03 -2.409E-03
:PTO011:     -3   -3   -3  1.49734116E-03  9.121E-04  7.372E-04
:PTO012:     -1   -1   -5  4.45464299E-03  2.712E-03  1.759E-03

:ENE  : *WARNING** TOTAL ENERGY IN Ry =       -18472.13645417

 Flat Integration
 New Mode for Coulomb Integral
 Consistent 3/8+Simpson combinations
 Extension of core to zero
 LDM version in phi
 Fifth-order quadrature in outwin


            ---------
:ITE003:  3. ITERATION
            ---------

:NATO :    1 INDEPENDENT AND    1 TOTAL ATOMS IN UNITCELL
       SUBSTANCE: blebleble                                                   

       LATTICE                      = F   
:POT  : POTENTIAL OPTION EX_LDA EC_LDA VX_LDA VC_LDA
:LAT  : LATTICE CONSTANTS=  7.33567  7.33567  7.33567    1.571    1.571    1.571
:VOL  : UNIT CELL VOLUME =      98.68671
       MODE OF CALCULATION IS       = RELA
       NON-SPINPOLARIZED CALCULATION
:IFFT  : FFT-parameters:   60   60   60 Factor: 2.00


   CONVERGENCE PARAMETER FOR PSEUDOCHARGE: NCON=  9
   MAXIMAL VALUE OF RMT(JATOM)*ABSK(NKK) : RK  =29.97839


:VKCOUL :  VK-COUL convergence: 0.319E-06
       ATOMNUMBER=  1 Pr         VCOUL-ZERO =  0.11609E+01
:FIT001: LUSE= 13 SIGMA OF V-XC FIT FOR ATOM  1  0.1736945E-03
:FIT001: LUSE= 13 SIGMA OF V-XC FIT FOR ATOM  1  0.1736945E-03
:DEN  : DENSITY INTEGRAL  =         -7143.50684859   (Ry)
       ELS_POTENTIAL_AT Z=0 and Z=0.5:  -3.35175  -3.35175
       ELS_POTENTIAL_AT Y=0 and Y=0.5:   0.00000   0.00000
:VZERO:v0,v0c,v0x  -4.61701  -3.35175  -1.26526 v5,v5c,v5x  -4.61701  -3.35175  -1.26526
:VZERY:v0,v0c,v0x  -1.03510   0.00000  -1.03510 v5,v5c,v5x  -1.03510   0.00000  -1.03510
:VZERX:v0,v0c,v0x  -1.03510   0.00000  -1.03510 v5,v5c,v5x  -1.03510   0.00000  -1.03510
:LMAX-WF:   10   Non-Spherical LMAX:   4

          ATOMIC SPHERE DEPENDENT PARAMETERS FOR ATOM  Pr        
:e__0001: OVERALL ENERGY PARAMETER IS    1.1000
          OVERALL BASIS SET ON ATOM IS LAPW
:E0_0001: E( 0)=    1.1000
             APW+lo
:E0_0001: E( 0)=   -0.9558   E(BOTTOM)=   -1.374   E(TOP)=   -0.538  4  5   282
             LOCAL ORBITAL
:E1_0001: E( 1)=    1.5000
             APW+lo
:E1_0001: E( 1)=    0.4019   E(BOTTOM)=   -0.297   E(TOP)=    1.101  3  4   278
             LOCAL ORBITAL
:E3_0001: E( 3)=    1.7732   E(BOTTOM)=    1.601   E(TOP)=    1.946  0  1   163
             APW+lo
:E2_0001: E( 2)=    1.2286   E(BOTTOM)=    1.229   E(TOP)= -200.000  2 -1   114
             APW+lo

       K=   0.00000   0.00000   0.00000            1
:RKM  : MATRIX SIZE    79LOs:  20  RKM= 7.42  WEIGHT= 1.00  PGR:    
       EIGENVALUES ARE:
:EIG00001:      -1.1312551    0.6903599    0.6903599    0.6903599    1.5931951
:EIG00006:       1.7363533    1.7363533    1.7363533    1.7382497    1.7942943
:EIG00011:       1.7942943    1.7942943    1.8927687    1.8927687    1.8927687
:EIG00016:       2.2854195    2.2854195
       ********************************************************

:KPT   :      NUMBER OF K-POINTS:   165
:GAP (global)   :    0.0    Ry =     0.0   eV (metal)
         Bandranges (emin - emax) and occupancy:
:BAN00001:   1   -1.131255   -0.840356  2.00000000
:BAN00002:   2   -0.025493    0.690360  2.00000000
:BAN00003:   3    0.167995    0.690360  2.00000000
:BAN00004:   4    0.349814    0.690360  2.00000000
:BAN00005:   5    1.244968    1.593195  2.00000000
:BAN00006:   6    1.281158    1.736353  1.99967368
:BAN00007:   7    1.688053    1.797451  0.96869422
:BAN00008:   8    1.715863    1.815219  0.03163211
:BAN00009:   9    1.738250    1.824949  0.00000000
:BAN00010:  10    1.762867    1.856040  0.00000000
:BAN00011:  11    1.782466    1.882272  0.00000000
:BAN00012:  12    1.794294    1.929908  0.00000000
:BAN00013:  13    1.850862    2.043664  0.00000000
        Energy to separate low and high energystates:    1.19497


:NOE  : NUMBER OF ELECTRONS          =   13.000

:FER  : F E R M I - ENERGY(TETRAH.M.)=   1.7333168718
:GMA  : POTENTIAL AND CHARGE CUT-OFF  12.00 Ry**.5

:POS001: ATOM    1 X,Y,Z = 0.00000 0.00000 0.50000  MULT= 1  ZZ= 59.000  Pr        

       LMMAX  5
       LM=   0 0  4 0  4 4  6 0  6 4

:CHA001: TOTAL VALENCE CHARGE INSIDE SPHERE   1 =  11.1124    (RMT=  2.5000 )
:PCS001: PARTIAL CHARGES SPHERE =  1 S,P,D,F,      D-EG,D-T2G 
:QTL001: 2.0420 5.2995 1.7114 2.0259 0.0000 0.0000 0.0000 0.6544 1.0570 0.0000 0.0000 0.0000
        Q-s-low E-s-low   Q-p-low E-p-low   Q-d-low E-d-low   Q-f-low E-f-low
:EPL001:  1.9363 -0.8872    5.1418  0.3601    0.1376  0.2901    0.0545  0.3265
        Q-s-hi  E-s-hi    Q-p-hi  E-p-hi    Q-d-hi  E-d-hi    Q-f-hi  E-f-hi 
:EPH001:  0.1057  1.5618    0.1577  1.5516    1.5738  1.5135    1.9714  1.6313

:CHA  : TOTAL VALENCE CHARGE INSIDE UNIT CELL =      13.000000

:SUM  : SUM OF EIGENVALUES =           8.099125505



   QTL-B VALUE .EQ.    3.56669   in Band of energy   -0.02549   ATOM=    1   L=  1
    Most likely no ghostbands, but adjust Energy-parameters for this ATOM and L


:WARN : QTL-B value eq.   3.57 in Band of energy  -0.02549  ATOM=    1  L=  1
:WARN : You should change the E-parameter for this atom and L-value in case.in1 (or try the -in1new switch)

        1.ATOM      Pr                   14 CORE STATES
:1S 001: 1S               -3065.735531634 Ry
:2S 001: 2S                -491.499452672 Ry
:2PP001: 2P*               -464.597250817 Ry
:2P 001: 2P                -429.200370905 Ry
:3S 001: 3S                -104.597060136 Ry
:3PP001: 3P*                -93.134492214 Ry
:3P 001: 3P                 -86.127066635 Ry
:3DD001: 3D*                -66.053349332 Ry
:3D 001: 3D                 -64.541920187 Ry
:4S 001: 4S                 -19.282905181 Ry
:4PP001: 4P*                -14.990556904 Ry
:4P 001: 4P                 -13.464321002 Ry
:4DD001: 4D*                 -6.401085023 Ry
:4D 001: 4D                  -6.132296335 Ry
:CINT001 Core Integral Atom   1   45.999427

       DENSITY AT NUCLEUS
        JATOM        VALENCE       SEMI-CORE          CORE           TOTAL
:RTO001:   1      635.593217        0.000000   656820.199100   657455.792317
     
       CHARGES OF NEW CHARGE DENSITY
:NTO   : INTERSTITIAL CHARGE =     1.887573
:NPC   : PW Pseudocharge     =     9.189389
:NTO001: CHARGE SPHERE  1    =    57.111802

:NEC01: NUCLEAR AND ELECTRONIC CHARGE     59.00000    58.99937
     
       CHARGES OF OLD CHARGE DENSITY
:OTO   : INTERSTITIAL CHARGE =     1.665445
:OPC   : PW Pseudocharge     =     9.989325
:OTO001: CHARGE SPHERE  1    =    57.334555

:NEC02: NUCLEAR AND ELECTRONIC CHARGE     59.00000    59.00000
     
       CONVERGENCE TEST
:DTO001: DIFFERENCE IN SPHERE  1 =  0.7056830

:DIS  :  CHARGE DISTANCE       ( 0.7056830 for atom    1 spin 1)      0.7056830
 PW Mixed is           26
 
******************************************************
* MULTISECANT MIXING VER9 RELEASE 10.4.0              *
* Standard Mode with controls                        *
* Fixed density scale                                *
* Regularization       1.000E-04                     *
* Trust Upper Limit    5.000E+00                     *
* Max Number of Memory Steps    8                    *
******************************************************
 
:PWTMP   3.3237E+01  1.2500E+02  9.8687E+01
:PLANE:  PW TOTAL      3.0774 DISTAN   4.17E-01  1.36E+01 %
:CHARG:  CLM/ATOM    977.2528 DISTAN   7.16E-01  7.33E-02 %
 
Step History
        DMIX         DMIXT        Red     Pred      Trust     Lambda    MagRel    MagAbs     Beta
  1   3.5000E-02   3.5000E-02 -1.00E+00  1.00E+00 -1.00E+01  1.00E+00  3.50E-02  3.50E-02  1.00E+00
  2   2.5000E-02   2.5000E-02  8.43E-01  1.00E+00 -1.00E+01  1.00E+00  2.50E-02  2.98E-02  1.00E+00
  3   3.8389E-02   3.8389E-02 -1.00E+00  1.00E+00 -1.00E+01  1.00E+00  3.84E-02  3.86E-02  1.00E+00
:JACOBIANS    5.811E-01   2.774E-02
  
:NORMS:  1/Froebius, Min, Max, Used   0.8397E+00  0.4614E+00  0.9229E+00  0.8398E+00
:INFO :  Number of Memory Steps    2 Skipping    0
:INFO :  SLambda=    0.0450120807  Max    0.0450120807
:PREDicted Charge, CTotal, PW Trust    1.181E-02   1.181E-02   3.020E-01
:PREDicted DMix, Beta, BLim   4.3927E-02  7.5270E-01  4.9254E-01

Eigenvalues, unscaled except for SY+YY
   #     SY Real        SY Imag          SS             YY         SY+YY Real      SY+YY Imag
   1   1.518566E+00   0.000000E+00   1.410261E+00   1.999842E+00   2.068195E+00   0.000000E+00
   2   7.438494E-15   0.000000E+00   0.000000E+00   1.581532E-04   1.592791E-04   0.000000E+00
 
:INFO :  Singular value  2.068E+00 Weight  1.000E+00 Projection  9.199E-04
:INFO :  Singular value  1.593E-04 Weight  3.881E-01 Projection -1.931E+01
:RANK :  ACTIVE   1.39/2  =  69.41 % ; YY RANK   1.38/2  =  69.24 %
 
:DLIM :  Beta Active  8.145E-01
:BLIM :  VZERO Control Off
:TRUST:  Step 2.73E-01  Charge 7.50E-02 (e) CTO  2.50E-01 (e) PW  3.50E-01 (e)
:DIRM :  MEMORY  2/8  SCALE   1.000 RED  0.83 PRED  1.00 NEXT  0.84 BETA  0.81
:TRAVE:  Charge 7.22E-03 (e) CTO  7.22E-03 (e) PW  8.72E-02 (e)
:DIRP :  |MSR1|= 1.100E-01 |PRATT|= 4.174E-01 ANGLE=  13.8 DEGREES
:DIRQ :  |MSR1|= 1.271E-02 |PRATT|= 7.161E-01 ANGLE=  30.4 DEGREES
:DIRT :  |MSR1|= 1.107E-01 |PRATT|= 8.289E-01 ANGLE=  55.1 DEGREES
:MIX  :   MSD1   REGULARIZATION:  2.00E-04 GREED: 0.03906  Newton 1.00  0.1336                
     
       CHARGES OF MIXED CHARGE DENSITY
:CTO   : INTERSTITIAL CHARGE =     1.672662
:CPC   : PW Pseudocharge     =     9.723115
:CTO001: CHARGE SPHERE  1    =    57.327338

:NEC03: NUCLEAR AND ELECTRONIC CHARGE     59.00000    59.00000

PW CHANGE     H    K    L      Current       Change    Residue
:PTO001:      0    0    0  1.15474290E-01 -2.624E-03 -5.818E-03
:PTO002:     -1   -1   -1 -2.15526197E-01  1.060E-02  4.244E-02
:PTO003:      0    0   -2  1.08569507E-01 -6.254E-03 -2.910E-02
:PTO004:      0   -2   -2  3.46198620E-02 -3.581E-03 -1.063E-02
:PTO005:     -1   -1   -3  1.39621812E-04  2.548E-03  9.217E-03
:PTO006:     -2   -2   -2 -2.92118213E-03 -5.564E-04 -3.095E-03
:PTO007:      0    0   -4 -3.71109223E-03 -1.246E-05 -8.000E-04
:PTO008:     -1   -3   -3  1.03426684E-02 -4.179E-04 -1.399E-03
:PTO009:      0   -2   -4 -8.97647221E-03  4.399E-04  1.055E-03
:PTO010:     -2   -2   -4 -5.16044379E-03  5.081E-04  1.896E-04
:PTO011:     -3   -3   -3  1.30741621E-03 -1.899E-04 -2.083E-04
:PTO012:     -1   -1   -5  3.87593076E-03 -5.787E-04 -9.284E-04

:ENE  : *WARNING** TOTAL ENERGY IN Ry =       -18472.11229292

 Flat Integration
 New Mode for Coulomb Integral
 Consistent 3/8+Simpson combinations
 Extension of core to zero
 LDM version in phi
 Fifth-order quadrature in outwin


            ---------
:ITE004:  4. ITERATION
            ---------

:NATO :    1 INDEPENDENT AND    1 TOTAL ATOMS IN UNITCELL
       SUBSTANCE: blebleble                                                   

       LATTICE                      = F   
:POT  : POTENTIAL OPTION EX_LDA EC_LDA VX_LDA VC_LDA
:LAT  : LATTICE CONSTANTS=  7.33567  7.33567  7.33567    1.571    1.571    1.571
:VOL  : UNIT CELL VOLUME =      98.68671
       MODE OF CALCULATION IS       = RELA
       NON-SPINPOLARIZED CALCULATION
:IFFT  : FFT-parameters:   60   60   60 Factor: 2.00


   CONVERGENCE PARAMETER FOR PSEUDOCHARGE: NCON=  9
   MAXIMAL VALUE OF RMT(JATOM)*ABSK(NKK) : RK  =29.97839


:VKCOUL :  VK-COUL convergence: 0.312E-06
       ATOMNUMBER=  1 Pr         VCOUL-ZERO =  0.11505E+01
:FIT001: LUSE= 13 SIGMA OF V-XC FIT FOR ATOM  1  0.1743761E-03
:FIT001: LUSE= 13 SIGMA OF V-XC FIT FOR ATOM  1  0.1743761E-03
:DEN  : DENSITY INTEGRAL  =         -7142.15433152   (Ry)
       ELS_POTENTIAL_AT Z=0 and Z=0.5:  -3.30898  -3.30898
       ELS_POTENTIAL_AT Y=0 and Y=0.5:   0.00000   0.00000
:VZERO:v0,v0c,v0x  -4.56123  -3.30898  -1.25225 v5,v5c,v5x  -4.56123  -3.30898  -1.25225
:VZERY:v0,v0c,v0x  -1.03054   0.00000  -1.03054 v5,v5c,v5x  -1.03054   0.00000  -1.03054
:VZERX:v0,v0c,v0x  -1.03054   0.00000  -1.03054 v5,v5c,v5x  -1.03054   0.00000  -1.03054
:LMAX-WF:   10   Non-Spherical LMAX:   4

          ATOMIC SPHERE DEPENDENT PARAMETERS FOR ATOM  Pr        
:e__0001: OVERALL ENERGY PARAMETER IS    1.3000
          OVERALL BASIS SET ON ATOM IS LAPW
:E0_0001: E( 0)=    1.3000
             APW+lo
:E0_0001: E( 0)=   -0.9724   E(BOTTOM)=   -1.390   E(TOP)=   -0.555  4  5   288
             LOCAL ORBITAL
:E1_0001: E( 1)=    1.7000
             APW+lo
:E1_0001: E( 1)=    0.3862   E(BOTTOM)=   -0.312   E(TOP)=    1.084  3  4   282
             LOCAL ORBITAL
:E3_0001: E( 3)=    1.7533   E(BOTTOM)=    1.582   E(TOP)=    1.925  0  1   144
             APW+lo
:E2_0001: E( 2)=    1.3000   E(BOTTOM)=    1.215   E(TOP)= -200.000  2 -1   112
             APW+lo

       K=   0.00000   0.00000   0.00000            1
:RKM  : MATRIX SIZE    79LOs:  20  RKM= 7.42  WEIGHT= 1.00  PGR:    
       EIGENVALUES ARE:
:EIG00001:      -1.1469543    0.6742993    0.6742993    0.6742993    1.5757590
:EIG00006:       1.7171334    1.7171334    1.7171334    1.7245795    1.7808411
:EIG00011:       1.7808411    1.7808411    1.8718749    1.8718749    1.8718749
:EIG00016:       2.2706754    2.2706754    2.8109175
       ********************************************************

:KPT   :      NUMBER OF K-POINTS:   165
:GAP (global)   :    0.0    Ry =     0.0   eV (metal)
         Bandranges (emin - emax) and occupancy:
:BAN00001:   1   -1.146954   -0.857065  2.00000000
:BAN00002:   2   -0.039683    0.674299  2.00000000
:BAN00003:   3    0.153524    0.674299  2.00000000
:BAN00004:   4    0.334997    0.674299  2.00000000
:BAN00005:   5    1.232329    1.575759  2.00000000
:BAN00006:   6    1.268390    1.717133  1.99972576
:BAN00007:   7    1.670794    1.777529  0.96848156
:BAN00008:   8    1.697594    1.795140  0.03179286
:BAN00009:   9    1.720754    1.804796  0.00000000
:BAN00010:  10    1.743426    1.835474  0.00000000
:BAN00011:  11    1.767652    1.861537  0.00000000
:BAN00012:  12    1.780841    1.911729  0.00000000
:BAN00013:  13    1.830789    2.029110  0.00000000
        Energy to separate low and high energystates:    1.18233


:NOE  : NUMBER OF ELECTRONS          =   13.000

:FER  : F E R M I - ENERGY(TETRAH.M.)=   1.7150405375
:GMA  : POTENTIAL AND CHARGE CUT-OFF  12.00 Ry**.5

:POS001: ATOM    1 X,Y,Z = 0.00000 0.00000 0.50000  MULT= 1  ZZ= 59.000  Pr        

       LMMAX  5
       LM=   0 0  4 0  4 4  6 0  6 4

:CHA001: TOTAL VALENCE CHARGE INSIDE SPHERE   1 =  11.1265    (RMT=  2.5000 )
:PCS001: PARTIAL CHARGES SPHERE =  1 S,P,D,F,      D-EG,D-T2G 
:QTL001: 2.0411 5.2997 1.6909 2.0618 0.0000 0.0000 0.0000 0.6456 1.0453 0.0000 0.0000 0.0000
        Q-s-low E-s-low   Q-p-low E-p-low   Q-d-low E-d-low   Q-f-low E-f-low
:EPL001:  1.9366 -0.9038    5.1450  0.3450    0.1370  0.2748    0.0543  0.3113
        Q-s-hi  E-s-hi    Q-p-hi  E-p-hi    Q-d-hi  E-d-hi    Q-f-hi  E-f-hi 
:EPH001:  0.1045  1.5460    0.1547  1.5359    1.5539  1.4973    2.0075  1.6148

:CHA  : TOTAL VALENCE CHARGE INSIDE UNIT CELL =      13.000000

:SUM  : SUM OF EIGENVALUES =           7.899096731



   QTL-B VALUE .EQ.    3.27999   in Band of energy    1.51061   ATOM=    1   L=  3
    Most likely no ghostbands, but adjust Energy-parameters for this ATOM and L


:WARN : QTL-B value eq.   3.28 in Band of energy   1.51061  ATOM=    1  L=  3
:WARN : You should change the E-parameter for this atom and L-value in case.in1 (or try the -in1new switch)

        1.ATOM      Pr                   14 CORE STATES
:1S 001: 1S               -3065.762742251 Ry
:2S 001: 2S                -491.525921783 Ry
:2PP001: 2P*               -464.623817182 Ry
:2P 001: 2P                -429.226895870 Ry
:3S 001: 3S                -104.622938144 Ry
:3PP001: 3P*                -93.160413186 Ry
:3P 001: 3P                 -86.152930259 Ry
:3DD001: 3D*                -66.079301721 Ry
:3D 001: 3D                 -64.567857107 Ry
:4S 001: 4S                 -19.306511412 Ry
:4PP001: 4P*                -15.014017233 Ry
:4P 001: 4P                 -13.487558629 Ry
:4DD001: 4D*                 -6.423874047 Ry
:4D 001: 4D                  -6.155003401 Ry
:CINT001 Core Integral Atom   1   45.999431

       DENSITY AT NUCLEUS
        JATOM        VALENCE       SEMI-CORE          CORE           TOTAL
:RTO001:   1      635.850953        0.000000   656820.804043   657456.654996
     
       CHARGES OF NEW CHARGE DENSITY
:NTO   : INTERSTITIAL CHARGE =     1.873469
:NPC   : PW Pseudocharge     =     9.166537
:NTO001: CHARGE SPHERE  1    =    57.125909

:NEC01: NUCLEAR AND ELECTRONIC CHARGE     59.00000    58.99938
     
       CHARGES OF OLD CHARGE DENSITY
:OTO   : INTERSTITIAL CHARGE =     1.672662
:OPC   : PW Pseudocharge     =     9.723115
:OTO001: CHARGE SPHERE  1    =    57.327338

:NEC02: NUCLEAR AND ELECTRONIC CHARGE     59.00000    59.00000
     
       CONVERGENCE TEST
:DTO001: DIFFERENCE IN SPHERE  1 =  0.6468196

:DIS  :  CHARGE DISTANCE       ( 0.6468196 for atom    1 spin 1)      0.6468196
 PW Mixed is           26
 
******************************************************
* MULTISECANT MIXING VER9 RELEASE 10.4.0              *
* Standard Mode with controls                        *
* Fixed density scale                                *
* Regularization       1.000E-04                     *
* Trust Upper Limit    5.000E+00                     *
* Max Number of Memory Steps    8                    *
******************************************************
 
:PWTMP   3.3237E+01  1.2500E+02  9.8687E+01
:PLANE:  PW TOTAL      2.9771 DISTAN   3.11E-01  1.04E+01 %
:CHARG:  CLM/ATOM    977.2492 DISTAN   6.58E-01  6.74E-02 %
 
Step History
        DMIX         DMIXT        Red     Pred      Trust     Lambda    MagRel    MagAbs     Beta
  1   3.5000E-02   3.5000E-02 -1.00E+00  1.00E+00 -1.00E+01  1.00E+00  3.50E-02  3.50E-02  1.00E+00
  2   2.5000E-02   2.5000E-02  8.43E-01  1.00E+00 -1.00E+01  1.00E+00  2.50E-02  2.98E-02  1.00E+00
  3   3.8389E-02   3.8389E-02  8.25E-01  1.00E+00 -1.00E+01  4.50E-02  3.84E-02  3.86E-02  1.00E+00
  4   3.9061E-02   3.9061E-02 -1.00E+00  8.36E-01  2.73E-01  1.00E+00  1.34E-01  1.11E-01  8.15E-01
:JACOBIANS    7.929E-01   9.964E-02
  
:NORMS:  1/Froebius, Min, Max, Used   0.7895E+00  0.4061E+00  0.9952E+00  0.9184E+00
:INFO :  Number of Memory Steps    3 Skipping    0
:INFO :  SLambda=    1.5535801328  Max    1.5535801328
:PREDicted Charge, CTotal, PW Trust    6.899E-02   6.899E-02   3.221E-01
:PREDicted DMix, Beta, BLim   3.7498E-01  3.6277E+00  5.5977E-01

Eigenvalues, unscaled except for SY+YY
   #     SY Real        SY Imag          SS             YY         SY+YY Real      SY+YY Imag
   1   1.884581E+00   0.000000E+00   1.835793E+00   2.176458E+00   5.030775E+00   0.000000E+00
   2   3.782368E-15   0.000000E+00   3.410144E-02   8.234587E-01   8.869208E-05   0.000000E+00
   3   1.620770E-01   0.000000E+00   2.693526E-16   8.340658E-05   1.148783E+00   0.000000E+00
 
:INFO :  Singular value  5.031E+00 Weight  1.000E+00 Projection  1.187E-01
:INFO :  Singular value  1.149E+00 Weight  1.000E+00 Projection -7.716E-01
:INFO :  Singular value  8.869E-05 Weight  1.424E-01 Projection -3.465E-01
:RANK :  ACTIVE   2.14/3  =  71.41 % ; YY RANK   2.13/3  =  70.94 %
 
:BLIM :  VZERO Control Off
:TRUST:  Step 4.16E-01  Charge 7.50E-02 (e) CTO  2.50E-01 (e) PW  3.50E-01 (e)
:DTRUS:  Lambda    5.904E-02 Increment    3.638E-12 Iterations   105 DMIX    9.634E-02
:INFOA:  Angle SubSpace to MSR1      2.77
:DIRM :  MEMORY  3/8  SCALE   1.000 RED  0.88 PRED  0.84 NEXT  0.30 
:INFO :  Limited by Atoms F by Step T

:TRAVE:  Charge 3.27E-02 (e) CTO  3.27E-02 (e) PW  1.40E-01 (e)
:DIRP :  |MSR1|= 2.755E-01 |PRATT|= 3.106E-01 ANGLE=  13.0 DEGREES
:DIRQ :  |MSR1|= 1.260E-01 |PRATT|= 6.582E-01 ANGLE=  20.6 DEGREES
:DIRT :  |MSR1|= 3.030E-01 |PRATT|= 7.278E-01 ANGLE=  43.1 DEGREES
:MIX  :   MSE1   REGULARIZATION:  2.18E-04 GREED: 0.09765  LMStep 0.89  0.4163 Step           
     
       CHARGES OF MIXED CHARGE DENSITY
:CTO   : INTERSTITIAL CHARGE =     1.730934
:CPC   : PW Pseudocharge     =     9.090124
:CTO001: CHARGE SPHERE  1    =    57.269066

:NEC03: NUCLEAR AND ELECTRONIC CHARGE     59.00000    59.00000

PW CHANGE     H    K    L      Current       Change    Residue
:PTO001:      0    0    0  1.09650617E-01 -5.824E-03 -3.568E-03
:PTO002:     -1   -1   -1 -1.88504554E-01  2.702E-02  3.158E-02
:PTO003:      0    0   -2  9.15360573E-02 -1.703E-02 -2.264E-02
:PTO004:      0   -2   -2  2.66462212E-02 -7.974E-03 -6.845E-03
:PTO005:     -1   -1   -3  6.49789187E-03  6.358E-03  6.476E-03
:PTO006:     -2   -2   -2 -4.45193325E-03 -1.531E-03 -2.455E-03
:PTO007:      0    0   -4 -3.94832923E-03 -2.372E-04 -7.658E-04
:PTO008:     -1   -3   -3  9.36653209E-03 -9.761E-04 -1.007E-03
:PTO009:      0   -2   -4 -8.12750825E-03  8.490E-04  6.202E-04
:PTO010:     -2   -2   -4 -4.41605599E-03  7.444E-04 -3.156E-04
:PTO011:     -3   -3   -3  9.76726275E-04 -3.307E-04 -2.248E-05
:PTO012:     -1   -1   -5  2.80493620E-03 -1.071E-03 -3.503E-04

:ENE  : *WARNING** TOTAL ENERGY IN Ry =       -18472.10736232

 Flat Integration
 New Mode for Coulomb Integral
 Consistent 3/8+Simpson combinations
 Extension of core to zero
 LDM version in phi
 Fifth-order quadrature in outwin


            ---------
:ITE005:  5. ITERATION
            ---------

:NATO :    1 INDEPENDENT AND    1 TOTAL ATOMS IN UNITCELL
       SUBSTANCE: blebleble                                                   

       LATTICE                      = F   
:POT  : POTENTIAL OPTION EX_LDA EC_LDA VX_LDA VC_LDA
:LAT  : LATTICE CONSTANTS=  7.33567  7.33567  7.33567    1.571    1.571    1.571
:VOL  : UNIT CELL VOLUME =      98.68671
       MODE OF CALCULATION IS       = RELA
       NON-SPINPOLARIZED CALCULATION
:IFFT  : FFT-parameters:   60   60   60 Factor: 2.00


   CONVERGENCE PARAMETER FOR PSEUDOCHARGE: NCON=  9
   MAXIMAL VALUE OF RMT(JATOM)*ABSK(NKK) : RK  =29.97839


:VKCOUL :  VK-COUL convergence: 0.296E-06
       ATOMNUMBER=  1 Pr         VCOUL-ZERO =  0.11386E+01
:FIT001: LUSE= 13 SIGMA OF V-XC FIT FOR ATOM  1  0.1859612E-03
:FIT001: LUSE= 13 SIGMA OF V-XC FIT FOR ATOM  1  0.1859612E-03
:DEN  : DENSITY INTEGRAL  =         -7134.09049818   (Ry)
       ELS_POTENTIAL_AT Z=0 and Z=0.5:  -3.24156  -3.24156
       ELS_POTENTIAL_AT Y=0 and Y=0.5:   0.00000   0.00000
:VZERO:v0,v0c,v0x  -4.45686  -3.24156  -1.21531 v5,v5c,v5x  -4.45686  -3.24156  -1.21531
:VZERY:v0,v0c,v0x  -1.02188   0.00000  -1.02188 v5,v5c,v5x  -1.02188   0.00000  -1.02188
:VZERX:v0,v0c,v0x  -1.02188   0.00000  -1.02188 v5,v5c,v5x  -1.02188   0.00000  -1.02188
:LMAX-WF:   10   Non-Spherical LMAX:   4

          ATOMIC SPHERE DEPENDENT PARAMETERS FOR ATOM  Pr        
:e__0001: OVERALL ENERGY PARAMETER IS    1.5000
          OVERALL BASIS SET ON ATOM IS LAPW
:E0_0001: E( 0)=    1.5000
             APW+lo
:E0_0001: E( 0)=   -1.0422   E(BOTTOM)=   -1.450   E(TOP)=   -0.634  4  5   280
             LOCAL ORBITAL
:E1_0001: E( 1)=    1.9000
             APW+lo
:E1_0001: E( 1)=    0.3246   E(BOTTOM)=   -0.361   E(TOP)=    1.011  3  4   272
             LOCAL ORBITAL
:E3_0001: E( 3)=    1.6475   E(BOTTOM)=    1.489   E(TOP)=    1.806  0  1   117
             APW+lo
:E2_0001: E( 2)=    1.5000   E(BOTTOM)=    1.174   E(TOP)= -200.000  2 -1   123
             APW+lo

       K=   0.00000   0.00000   0.00000            1
:RKM  : MATRIX SIZE    79LOs:  20  RKM= 7.42  WEIGHT= 1.00  PGR:    
       EIGENVALUES ARE:
:EIG00001:      -1.2089264    0.6090554    0.6090554    0.6090554    1.4936103
:EIG00006:       1.6179771    1.6179771    1.6179771    1.6824288    1.7415563
:EIG00011:       1.7415563    1.7415563    1.7568754    1.7568754    1.7568754
:EIG00016:       2.2231930    2.2231930    2.7532465    3.1277855
       ********************************************************

:KPT   :      NUMBER OF K-POINTS:   165
:GAP (global)   :    0.0    Ry =     0.0   eV (metal)
         Bandranges (emin - emax) and occupancy:
:BAN00001:   1   -1.208926   -0.928733  2.00000000
:BAN00002:   2   -0.086933    0.609055  2.00000000
:BAN00003:   3    0.103430    0.609055  2.00000000
:BAN00004:   4    0.281506    0.609055  2.00000000
:BAN00005:   5    1.199920    1.500414  2.00000000
:BAN00006:   6    1.235233    1.617977  2.00000000
:BAN00007:   7    1.589001    1.671727  0.96115002
:BAN00008:   8    1.606911    1.687950  0.03885694
:BAN00009:   9    1.634562    1.716045  0.00000000
:BAN00010:  10    1.655661    1.741556  0.00000000
:BAN00011:  11    1.691368    1.752728  0.00000000
:BAN00012:  12    1.707365    1.829183  0.00000000
:BAN00013:  13    1.721336    1.980312  0.00000000
        Energy to separate low and high energystates:    1.14992


:NOE  : NUMBER OF ELECTRONS          =   13.000

:FER  : F E R M I - ENERGY(TETRAH.M.)=   1.6224703598
:GMA  : POTENTIAL AND CHARGE CUT-OFF  12.00 Ry**.5

:POS001: ATOM    1 X,Y,Z = 0.00000 0.00000 0.50000  MULT= 1  ZZ= 59.000  Pr        

       LMMAX  5
       LM=   0 0  4 0  4 4  6 0  6 4

:CHA001: TOTAL VALENCE CHARGE INSIDE SPHERE   1 =  11.2659    (RMT=  2.5000 )
:PCS001: PARTIAL CHARGES SPHERE =  1 S,P,D,F,      D-EG,D-T2G 
:QTL001: 2.0304 5.3007 1.4979 2.4081 0.0000 0.0000 0.0000 0.5680 0.9299 0.0000 0.0000 0.0000
        Q-s-low E-s-low   Q-p-low E-p-low   Q-d-low E-d-low   Q-f-low E-f-low
:EPL001:  1.9391 -0.9740    5.1757  0.2891    0.1302  0.2174    0.0523  0.2539
        Q-s-hi  E-s-hi    Q-p-hi  E-p-hi    Q-d-hi  E-d-hi    Q-f-hi  E-f-hi 
:EPH001:  0.0912  1.4802    0.1250  1.4714    1.3677  1.4327    2.3558  1.5381

:CHA  : TOTAL VALENCE CHARGE INSIDE UNIT CELL =      13.000007

:SUM  : SUM OF EIGENVALUES =           7.116219435



   QTL-B VALUE .EQ.    2.82781   in Band of energy    1.44789   ATOM=    1   L=  3
    Most likely no ghostbands, but adjust Energy-parameters for this ATOM and L


:WARN : QTL-B value eq.   2.83 in Band of energy   1.44789  ATOM=    1  L=  3
:WARN : You should change the E-parameter for this atom and L-value in case.in1 (or try the -in1new switch)

        1.ATOM      Pr                   14 CORE STATES
:1S 001: 1S               -3065.943005327 Ry
:2S 001: 2S                -491.699416439 Ry
:2PP001: 2P*               -464.798133898 Ry
:2P 001: 2P                -429.400853455 Ry
:3S 001: 3S                -104.791318743 Ry
:3PP001: 3P*                -93.329197398 Ry
:3P 001: 3P                 -86.321134166 Ry
:3DD001: 3D*                -66.248352157 Ry
:3D 001: 3D                 -64.736758438 Ry
:4S 001: 4S                 -19.449875561 Ry
:4PP001: 4P*                -15.155778100 Ry
:4P 001: 4P                 -13.626867461 Ry
:4DD001: 4D*                 -6.558372195 Ry
:4D 001: 4D                  -6.288614415 Ry
:CINT001 Core Integral Atom   1   45.999465

       DENSITY AT NUCLEUS
        JATOM        VALENCE       SEMI-CORE          CORE           TOTAL
:RTO001:   1      638.016593        0.000000   656827.164445   657465.181038
     
       CHARGES OF NEW CHARGE DENSITY
:NTO   : INTERSTITIAL CHARGE =     1.734053
:NPC   : PW Pseudocharge     =     8.916742
:NTO001: CHARGE SPHERE  1    =    57.265363

:NEC01: NUCLEAR AND ELECTRONIC CHARGE     59.00000    58.99942
     
       CHARGES OF OLD CHARGE DENSITY
:OTO   : INTERSTITIAL CHARGE =     1.730934
:OPC   : PW Pseudocharge     =     9.090124
:OTO001: CHARGE SPHERE  1    =    57.269066

:NEC02: NUCLEAR AND ELECTRONIC CHARGE     59.00000    59.00000
     
       CONVERGENCE TEST
:DTO001: DIFFERENCE IN SPHERE  1 =  0.1401726

:DIS  :  CHARGE DISTANCE       ( 0.1401726 for atom    1 spin 1)      0.1401726
 PW Mixed is           26
 
******************************************************
* MULTISECANT MIXING VER9 RELEASE 10.4.0              *
* Standard Mode with controls                        *
* Fixed density scale                                *
* Regularization       1.000E-04                     *
* Trust Upper Limit    5.000E+00                     *
* Max Number of Memory Steps    8                    *
******************************************************
 
:PWTMP   3.3237E+01  1.2500E+02  9.8687E+01
:PLANE:  PW TOTAL      2.7370 DISTAN   5.87E-02  2.14E+00 %
:CHARG:  CLM/ATOM    977.2139 DISTAN   1.74E-01  1.78E-02 %
 
Step History
        DMIX         DMIXT        Red     Pred      Trust     Lambda    MagRel    MagAbs     Beta
  1   3.5000E-02   3.5000E-02 -1.00E+00  1.00E+00 -1.00E+01  1.00E+00  3.50E-02  3.50E-02  1.00E+00
  2   2.5000E-02   2.5000E-02  8.43E-01  1.00E+00 -1.00E+01  1.00E+00  2.50E-02  2.98E-02  1.00E+00
  3   3.8389E-02   3.8389E-02  8.25E-01  1.00E+00 -1.00E+01  4.50E-02  3.84E-02  3.86E-02  1.00E+00
  4   3.9061E-02   3.9061E-02  8.78E-01  8.36E-01  2.73E-01  1.55E+00  1.34E-01  1.11E-01  8.15E-01
  5   9.7651E-02   9.6342E-02 -1.00E+00  2.98E-01  4.16E-01  1.00E+00  4.16E-01  3.03E-01  1.00E+00
:JACOBIANS    9.014E-01   1.422E-01
  
:NORMS:  1/Froebius, Min, Max, Used   0.4045E+00  0.3890E+00  0.9918E+00  0.4204E+00
:INFO :  Number of Memory Steps    4 Skipping    0
:INFO :  SLambda=    1.0859382991  Max    1.0859382991
:PREDicted Charge, CTotal, PW Trust    6.265E-02   6.265E-02   2.433E-01
:PREDicted DMix, Beta, BLim   2.9851E-02  1.1809E+00  7.7359E-01

Eigenvalues, unscaled except for SY+YY
   #     SY Real        SY Imag          SS             YY         SY+YY Real      SY+YY Imag
   1   7.377095E-01   0.000000E+00   5.396972E-01   3.567079E+00   4.311507E+00   0.000000E+00
   2   3.709736E-01   0.000000E+00   1.146419E-01   4.328212E-01   8.923522E-01   0.000000E+00
   3   1.181466E-15   0.000000E+00   9.247060E-06   7.766157E-05   2.512158E-05   0.000000E+00
   4   2.227494E-05   0.000000E+00  -1.191606E-17   2.258176E-05   1.015190E-04   0.000000E+00
 
:INFO :  Singular value  4.312E+00 Weight  1.000E+00 Projection -2.566E-02
:INFO :  Singular value  8.922E-01 Weight  1.000E+00 Projection -8.119E-02
:INFO :  Singular value  1.016E-04 Weight  7.506E-02 Projection -1.161E+00
:INFO :  Singular value  2.510E-05 Weight  4.926E-03 Projection  4.894E-02
:RANK :  ACTIVE   2.08/4  =  52.00 % ; YY RANK   2.05/4  =  51.23 %
 
:BLIM :  VZERO Control Off
:TRUST:  Step 5.59E-01  Charge 7.50E-02 (e) CTO  2.50E-01 (e) PW  3.50E-01 (e)
:DIRM :  MEMORY  4/8  SCALE   1.000 RED  0.25 PRED  0.30 NEXT  0.91 
:TRAVE:  Charge 1.84E-02 (e) CTO  1.84E-02 (e) PW  9.55E-02 (e)
:DIRP :  |MSR1|= 6.188E-02 |PRATT|= 5.866E-02 ANGLE=  28.5 DEGREES
:DIRQ :  |MSR1|= 1.789E-02 |PRATT|= 1.738E-01 ANGLE=  15.6 DEGREES
:DIRT :  |MSR1|= 6.441E-02 |PRATT|= 1.834E-01 ANGLE=  58.4 DEGREES
:MIX  :   MSE1   REGULARIZATION:  3.57E-04 GREED: 0.04850  Newton 1.00  0.3512                
     
       CHARGES OF MIXED CHARGE DENSITY
:CTO   : INTERSTITIAL CHARGE =     1.734914
:CPC   : PW Pseudocharge     =     8.936160
:CTO001: CHARGE SPHERE  1    =    57.265086

:NEC03: NUCLEAR AND ELECTRONIC CHARGE     59.00000    59.00000

PW CHANGE     H    K    L      Current       Change    Residue
:PTO001:      0    0    0  1.08130811E-01 -1.520E-03 -1.689E-03
:PTO002:     -1   -1   -1 -1.82660564E-01  5.844E-03  3.504E-03
:PTO003:      0    0   -2  8.78961541E-02 -3.640E-03 -4.442E-03
:PTO004:      0   -2   -2  2.49188176E-02 -1.727E-03  1.676E-03
:PTO005:     -1   -1   -3  7.79442345E-03  1.297E-03 -3.800E-04
:PTO006:     -2   -2   -2 -4.78022207E-03 -3.283E-04 -5.649E-04
:PTO007:      0    0   -4 -3.99002442E-03 -4.170E-05 -4.617E-04
:PTO008:     -1   -3   -3  9.14164416E-03 -2.249E-04  1.441E-05
:PTO009:      0   -2   -4 -7.92264144E-03  2.049E-04 -3.666E-04
:PTO010:     -2   -2   -4 -4.23757466E-03  1.785E-04 -1.154E-03
:PTO011:     -3   -3   -3  9.00287734E-04 -7.644E-05  3.115E-04
:PTO012:     -1   -1   -5  2.56060209E-03 -2.443E-04  7.755E-04

:ENE  : *WARNING** TOTAL ENERGY IN Ry =       -18472.08228453

 Flat Integration
 New Mode for Coulomb Integral
 Consistent 3/8+Simpson combinations
 Extension of core to zero
 LDM version in phi
 Fifth-order quadrature in outwin


            ---------
:ITE006:  6. ITERATION
            ---------

:NATO :    1 INDEPENDENT AND    1 TOTAL ATOMS IN UNITCELL
       SUBSTANCE: blebleble                                                   

       LATTICE                      = F   
:POT  : POTENTIAL OPTION EX_LDA EC_LDA VX_LDA VC_LDA
:LAT  : LATTICE CONSTANTS=  7.33567  7.33567  7.33567    1.571    1.571    1.571
:VOL  : UNIT CELL VOLUME =      98.68671
       MODE OF CALCULATION IS       = RELA
       NON-SPINPOLARIZED CALCULATION
:IFFT  : FFT-parameters:   60   60   60 Factor: 2.00


   CONVERGENCE PARAMETER FOR PSEUDOCHARGE: NCON=  9
   MAXIMAL VALUE OF RMT(JATOM)*ABSK(NKK) : RK  =29.97839


:VKCOUL :  VK-COUL convergence: 0.291E-06
       ATOMNUMBER=  1 Pr         VCOUL-ZERO =  0.11321E+01
:FIT001: LUSE= 13 SIGMA OF V-XC FIT FOR ATOM  1  0.1892783E-03
:FIT001: LUSE= 13 SIGMA OF V-XC FIT FOR ATOM  1  0.1892783E-03
:DEN  : DENSITY INTEGRAL  =         -7133.23905497   (Ry)
       ELS_POTENTIAL_AT Z=0 and Z=0.5:  -3.21721  -3.21721
       ELS_POTENTIAL_AT Y=0 and Y=0.5:   0.00000   0.00000
:VZERO:v0,v0c,v0x  -4.42359  -3.21721  -1.20638 v5,v5c,v5x  -4.42359  -3.21721  -1.20638
:VZERY:v0,v0c,v0x  -1.01893   0.00000  -1.01893 v5,v5c,v5x  -1.01893   0.00000  -1.01893
:VZERX:v0,v0c,v0x  -1.01893   0.00000  -1.01893 v5,v5c,v5x  -1.01893   0.00000  -1.01893
:LMAX-WF:   10   Non-Spherical LMAX:   4

          ATOMIC SPHERE DEPENDENT PARAMETERS FOR ATOM  Pr        
:e__0001: OVERALL ENERGY PARAMETER IS    1.4483
          OVERALL BASIS SET ON ATOM IS LAPW
:E0_0001: E( 0)=    1.4483
             APW+lo
:E0_0001: E( 0)=   -1.0537   E(BOTTOM)=   -1.461   E(TOP)=   -0.646  4  5   278
             LOCAL ORBITAL
:E1_0001: E( 1)=    1.8483
             APW+lo
:E1_0001: E( 1)=    0.3138   E(BOTTOM)=   -0.371   E(TOP)=    0.999  3  4   277
             LOCAL ORBITAL
:E3_0001: E( 3)=    1.6338   E(BOTTOM)=    1.476   E(TOP)=    1.792  0  1   117
             APW+lo
:E2_0001: E( 2)=    1.4483   E(BOTTOM)=    1.165   E(TOP)= -200.000  2 -1   127
             APW+lo

       K=   0.00000   0.00000   0.00000            1
:RKM  : MATRIX SIZE    79LOs:  20  RKM= 7.42  WEIGHT= 1.00  PGR:    
       EIGENVALUES ARE:
:EIG00001:      -1.2197626    0.5979421    0.5979421    0.5979421    1.4816122
:EIG00006:       1.6046312    1.6046312    1.6046312    1.6732989    1.7327530
:EIG00011:       1.7327530    1.7327530    1.7425389    1.7425389    1.7425389
:EIG00016:       2.2137834    2.2137834    2.7437662    3.1203458
       ********************************************************

:KPT   :      NUMBER OF K-POINTS:   165
:GAP (global)   :    0.0    Ry =     0.0   eV (metal)
         Bandranges (emin - emax) and occupancy:
:BAN00001:   1   -1.219763   -0.940362  2.00000000
:BAN00002:   2   -0.096556    0.597942  2.00000000
:BAN00003:   3    0.093534    0.597942  2.00000000
:BAN00004:   4    0.271304    0.597942  2.00000000
:BAN00005:   5    1.191348    1.489310  2.00000000
:BAN00006:   6    1.227015    1.604631  2.00000000
:BAN00007:   7    1.576798    1.657990  0.96044655
:BAN00008:   8    1.594143    1.674115  0.03956315
:BAN00009:   9    1.622048    1.704153  0.00000000
:BAN00010:  10    1.642094    1.732753  0.00000000
:BAN00011:  11    1.677654    1.739661  0.00000000
:BAN00012:  12    1.693453    1.817513  0.00000000
:BAN00013:  13    1.707287    1.970709  0.00000000
        Energy to separate low and high energystates:    1.14135


:NOE  : NUMBER OF ELECTRONS          =   13.000

:FER  : F E R M I - ENERGY(TETRAH.M.)=   1.6095329293
:GMA  : POTENTIAL AND CHARGE CUT-OFF  12.00 Ry**.5

:POS001: ATOM    1 X,Y,Z = 0.00000 0.00000 0.50000  MULT= 1  ZZ= 59.000  Pr        

       LMMAX  5
       LM=   0 0  4 0  4 4  6 0  6 4

:CHA001: TOTAL VALENCE CHARGE INSIDE SPHERE   1 =  11.2765    (RMT=  2.5000 )
:PCS001: PARTIAL CHARGES SPHERE =  1 S,P,D,F,      D-EG,D-T2G 
:QTL001: 2.0295 5.3011 1.4838 2.4335 0.0000 0.0000 0.0000 0.5627 0.9210 0.0000 0.0000 0.0000
        Q-s-low E-s-low   Q-p-low E-p-low   Q-d-low E-d-low   Q-f-low E-f-low
:EPL001:  1.9393 -0.9855    5.1783  0.2787    0.1295  0.2070    0.0521  0.2434
        Q-s-hi  E-s-hi    Q-p-hi  E-p-hi    Q-d-hi  E-d-hi    Q-f-hi  E-f-hi 
:EPH001:  0.0902  1.4693    0.1228  1.4606    1.3542  1.4220    2.3814  1.5263

:CHA  : TOTAL VALENCE CHARGE INSIDE UNIT CELL =      13.000010

:SUM  : SUM OF EIGENVALUES =           6.977731981



   QTL-B VALUE .EQ.    2.78963   in Band of energy    1.43720   ATOM=    1   L=  3
    Most likely no ghostbands, but adjust Energy-parameters for this ATOM and L


:WARN : QTL-B value eq.   2.79 in Band of energy   1.43720  ATOM=    1  L=  3
:WARN : You should change the E-parameter for this atom and L-value in case.in1 (or try the -in1new switch)

        1.ATOM      Pr                   14 CORE STATES
:1S 001: 1S               -3065.959151481 Ry
:2S 001: 2S                -491.714596651 Ry
:2PP001: 2P*               -464.813374322 Ry
:2P 001: 2P                -429.416060087 Ry
:3S 001: 3S                -104.806972978 Ry
:3PP001: 3P*                -93.344834459 Ry
:3P 001: 3P                 -86.336788055 Ry
:3DD001: 3D*                -66.263877584 Ry
:3D 001: 3D                 -64.752293305 Ry
:4S 001: 4S                 -19.465537509 Ry
:4PP001: 4P*                -15.171395246 Ry
:4P 001: 4P                 -13.642435944 Ry
:4DD001: 4D*                 -6.573740370 Ry
:4D 001: 4D                  -6.303955249 Ry
:CINT001 Core Integral Atom   1   45.999467

       DENSITY AT NUCLEUS
        JATOM        VALENCE       SEMI-CORE          CORE           TOTAL
:RTO001:   1      638.222783        0.000000   656827.321637   657465.544420
     
       CHARGES OF NEW CHARGE DENSITY
:NTO   : INTERSTITIAL CHARGE =     1.723461
:NPC   : PW Pseudocharge     =     8.897313
:NTO001: CHARGE SPHERE  1    =    57.275960

:NEC01: NUCLEAR AND ELECTRONIC CHARGE     59.00000    58.99942
     
       CHARGES OF OLD CHARGE DENSITY
:OTO   : INTERSTITIAL CHARGE =     1.734914
:OPC   : PW Pseudocharge     =     8.936160
:OTO001: CHARGE SPHERE  1    =    57.265086

:NEC02: NUCLEAR AND ELECTRONIC CHARGE     59.00000    59.00000
     
       CONVERGENCE TEST
:DTO001: DIFFERENCE IN SPHERE  1 =  0.1264804

:DIS  :  CHARGE DISTANCE       ( 0.1264804 for atom    1 spin 1)      0.1264804
 PW Mixed is           26
 
******************************************************
* MULTISECANT MIXING VER9 RELEASE 10.4.0              *
* Standard Mode with controls                        *
* Fixed density scale                                *
* Regularization       1.000E-04                     *
* Trust Upper Limit    5.000E+00                     *
* Max Number of Memory Steps    8                    *
******************************************************
 
:PWTMP   3.3237E+01  1.2500E+02  9.8687E+01
:PLANE:  PW TOTAL      2.6817 DISTAN   3.11E-02  1.16E+00 %
:CHARG:  CLM/ATOM    977.2091 DISTAN   1.57E-01  1.61E-02 %
 
Step History
        DMIX         DMIXT        Red     Pred      Trust     Lambda    MagRel    MagAbs     Beta
  1   3.5000E-02   3.5000E-02 -1.00E+00  1.00E+00 -1.00E+01  1.00E+00  3.50E-02  3.50E-02  1.00E+00
  2   2.5000E-02   2.5000E-02  8.43E-01  1.00E+00 -1.00E+01  1.00E+00  2.50E-02  2.98E-02  1.00E+00
  3   3.8389E-02   3.8389E-02  8.25E-01  1.00E+00 -1.00E+01  4.50E-02  3.84E-02  3.86E-02  1.00E+00
  4   3.9061E-02   3.9061E-02  8.78E-01  8.36E-01  2.73E-01  1.55E+00  1.34E-01  1.11E-01  8.15E-01
  5   9.7651E-02   9.6342E-02  2.52E-01  2.98E-01  4.16E-01  1.09E+00  4.16E-01  3.03E-01  1.00E+00
  6   4.8495E-02   4.8495E-02 -1.00E+00  9.05E-01  5.59E-01  1.00E+00  3.51E-01  6.44E-02  1.00E+00
:JACOBIANS    9.680E-01   5.589E-01
  
:NORMS:  1/Froebius, Min, Max, Used   0.5391E+00  0.4285E+00  0.9916E+00  0.5689E+00
:INFO :  Number of Memory Steps    5 Skipping    0
:INFO :  SLambda=    1.0851530230  Max    1.0851530230
:PREDicted Charge, CTotal, PW Trust    8.605E-03   8.605E-03   6.909E-02
:PREDicted DMix, Beta, BLim   7.9750E-01  1.6458E+00  1.0044E+00

Eigenvalues, unscaled except for SY+YY
   #     SY Real        SY Imag          SS             YY         SY+YY Real      SY+YY Imag
   1   1.453021E+00   0.000000E+00   1.339382E+00   4.138800E+00   5.415474E+00   0.000000E+00
   2   4.291070E-01   0.000000E+00   1.058752E-01   8.501162E-01   1.616313E+00   0.000000E+00
   3   9.687368E-03   0.000000E+00   7.642004E-03   1.101968E-02   2.105777E-02   0.000000E+00
   4   3.709057E-16   0.000000E+00   2.722710E-07   4.467429E-05   2.129700E-05   0.000000E+00
   5   3.264869E-06   0.000000E+00  -8.925345E-18   1.953451E-05   4.703758E-05   0.000000E+00
 
:INFO :  Singular value  5.418E+00 Weight  1.000E+00 Projection -2.114E-03
:INFO :  Singular value  1.616E+00 Weight  1.000E+00 Projection -1.998E-02
:INFO :  Singular value  2.106E-02 Weight  9.996E-01 Projection -1.500E+00
:INFO :  Singular value  4.704E-05 Weight  1.275E-02 Projection -2.282E-02
:INFO :  Singular value  2.130E-05 Weight  2.641E-03 Projection  2.467E-03
:RANK :  ACTIVE   3.02/5  =  60.30 % ; YY RANK   3.01/5  =  60.25 %
 
:BLIM :  VZERO Control Off
:TRUST:  Step 7.28E-01  Charge 7.50E-02 (e) CTO  2.00E-01 (e) PW  3.50E-01 (e)
:DTRUS:  Lambda    7.313E-02 Increment    7.276E-12 Iterations    96 DMIX    1.185E-01
:INFOA:  Angle SubSpace to MSR1      0.51
:DIRM :  MEMORY  5/8  SCALE   1.000 RED  0.87 PRED  0.91 NEXT  0.29 
:INFO :  Limited by Atoms F by Step T

:TRAVE:  Charge 1.48E-02 (e) CTO  1.48E-02 (e) PW  5.57E-02 (e)
:DIRP :  |MSR1|= 2.345E-02 |PRATT|= 3.110E-02 ANGLE=   7.0 DEGREES
:DIRQ :  |MSR1|= 1.144E-01 |PRATT|= 1.573E-01 ANGLE=   3.8 DEGREES
:DIRT :  |MSR1|= 1.168E-01 |PRATT|= 1.604E-01 ANGLE=   4.0 DEGREES
:MIX  :   MSE1   REGULARIZATION:  4.14E-04 GREED: 0.12124  LMStep 0.85  0.7281 Step           
     
       CHARGES OF MIXED CHARGE DENSITY
:CTO   : INTERSTITIAL CHARGE =     1.723689
:CPC   : PW Pseudocharge     =     8.899986
:CTO001: CHARGE SPHERE  1    =    57.276311

:NEC03: NUCLEAR AND ELECTRONIC CHARGE     59.00000    59.00000

PW CHANGE     H    K    L      Current       Change    Residue
:PTO001:      0    0    0  1.07650520E-01 -4.803E-04 -4.735E-04
:PTO002:     -1   -1   -1 -1.84290693E-01 -1.630E-03 -2.369E-03
:PTO003:      0    0   -2  8.73775928E-02 -5.186E-04 -7.098E-04
:PTO004:      0   -2   -2  2.74370576E-02  2.518E-03  3.393E-03
:PTO005:     -1   -1   -3  6.49873545E-03 -1.296E-03 -1.679E-03
:PTO006:     -2   -2   -2 -4.91447151E-03 -1.342E-04 -2.316E-04
:PTO007:      0    0   -4 -4.27739200E-03 -2.874E-04 -4.159E-04
:PTO008:     -1   -3   -3  9.27723694E-03  1.356E-04  2.568E-04
:PTO009:      0   -2   -4 -8.30376096E-03 -3.811E-04 -5.859E-04
:PTO010:     -2   -2   -4 -5.16380816E-03 -9.262E-04 -1.345E-03
:PTO011:     -3   -3   -3  1.16746026E-03  2.672E-04  3.904E-04
:PTO012:     -1   -1   -5  3.27156324E-03  7.110E-04  1.025E-03

:ENE  : *WARNING** TOTAL ENERGY IN Ry =       -18472.08214776

 Flat Integration
 New Mode for Coulomb Integral
 Consistent 3/8+Simpson combinations
 Extension of core to zero
 LDM version in phi
 Fifth-order quadrature in outwin


            ---------
:ITE007:  7. ITERATION
            ---------

:NATO :    1 INDEPENDENT AND    1 TOTAL ATOMS IN UNITCELL
       SUBSTANCE: blebleble                                                   

       LATTICE                      = F   
:POT  : POTENTIAL OPTION EX_LDA EC_LDA VX_LDA VC_LDA
:LAT  : LATTICE CONSTANTS=  7.33567  7.33567  7.33567    1.571    1.571    1.571
:VOL  : UNIT CELL VOLUME =      98.68671
       MODE OF CALCULATION IS       = RELA
       NON-SPINPOLARIZED CALCULATION
:IFFT  : FFT-parameters:   60   60   60 Factor: 2.00


   CONVERGENCE PARAMETER FOR PSEUDOCHARGE: NCON=  9
   MAXIMAL VALUE OF RMT(JATOM)*ABSK(NKK) : RK  =29.97839


:VKCOUL :  VK-COUL convergence: 0.276E-06
       ATOMNUMBER=  1 Pr         VCOUL-ZERO =  0.11234E+01
:FIT001: LUSE= 13 SIGMA OF V-XC FIT FOR ATOM  1  0.2085006E-03
:FIT001: LUSE= 13 SIGMA OF V-XC FIT FOR ATOM  1  0.2085006E-03
:DEN  : DENSITY INTEGRAL  =         -7133.52260443   (Ry)
       ELS_POTENTIAL_AT Z=0 and Z=0.5:  -3.20638  -3.20638
       ELS_POTENTIAL_AT Y=0 and Y=0.5:   0.00000   0.00000
:VZERO:v0,v0c,v0x  -4.40591  -3.20638  -1.19953 v5,v5c,v5x  -4.40591  -3.20638  -1.19953
:VZERY:v0,v0c,v0x  -1.01682   0.00000  -1.01682 v5,v5c,v5x  -1.01682   0.00000  -1.01682
:VZERX:v0,v0c,v0x  -1.01682   0.00000  -1.01682 v5,v5c,v5x  -1.01682   0.00000  -1.01682
:LMAX-WF:   10   Non-Spherical LMAX:   4

          ATOMIC SPHERE DEPENDENT PARAMETERS FOR ATOM  Pr        
:e__0001: OVERALL ENERGY PARAMETER IS    1.4225
          OVERALL BASIS SET ON ATOM IS LAPW
:E0_0001: E( 0)=    1.4225
             APW+lo
:E0_0001: E( 0)=   -1.0661   E(BOTTOM)=   -1.473   E(TOP)=   -0.659  4  5   282
             LOCAL ORBITAL
:E1_0001: E( 1)=    1.8225
             APW+lo
:E1_0001: E( 1)=    0.3018   E(BOTTOM)=   -0.383   E(TOP)=    0.987  3  4   274
             LOCAL ORBITAL
:E3_0001: E( 3)=    1.6256   E(BOTTOM)=    1.467   E(TOP)=    1.785  0  1   115
             APW+lo
:E2_0001: E( 2)=    1.4225   E(BOTTOM)=    1.154   E(TOP)= -200.000  2 -1   123
             APW+lo

       K=   0.00000   0.00000   0.00000            1
:RKM  : MATRIX SIZE    79LOs:  20  RKM= 7.42  WEIGHT= 1.00  PGR:    
       EIGENVALUES ARE:
:EIG00001:      -1.2317426    0.5856378    0.5856378    0.5856378    1.4738117
:EIG00006:       1.5958377    1.5958377    1.5958377    1.6620976    1.7229394
:EIG00011:       1.7229394    1.7229394    1.7350060    1.7350060    1.7350060
:EIG00016:       2.2022045    2.2022045    2.7384406    3.1091761
       ********************************************************

:KPT   :      NUMBER OF K-POINTS:   165
:GAP (global)   :    0.0    Ry =     0.0   eV (metal)
         Bandranges (emin - emax) and occupancy:
:BAN00001:   1   -1.231743   -0.952754  2.00000000
:BAN00002:   2   -0.107976    0.585638  2.00000000
:BAN00003:   3    0.081971    0.585638  2.00000000
:BAN00004:   4    0.259363    0.585638  2.00000000
:BAN00005:   5    1.178640    1.480868  2.00000000
:BAN00006:   6    1.218248    1.595838  2.00000000
:BAN00007:   7    1.567990    1.649992  0.95973308
:BAN00008:   8    1.585412    1.666090  0.04026692
:BAN00009:   9    1.613580    1.695588  0.00000000
:BAN00010:  10    1.633563    1.722939  0.00000000
:BAN00011:  11    1.669572    1.730871  0.00000000
:BAN00012:  12    1.685024    1.808494  0.00000000
:BAN00013:  13    1.699962    1.959303  0.00000000
        Energy to separate low and high energystates:    1.12864


:NOE  : NUMBER OF ELECTRONS          =   13.000

:FER  : F E R M I - ENERGY(TETRAH.M.)=   1.6008654902
:GMA  : POTENTIAL AND CHARGE CUT-OFF  12.00 Ry**.5

:POS001: ATOM    1 X,Y,Z = 0.00000 0.00000 0.50000  MULT= 1  ZZ= 59.000  Pr        

       LMMAX  5
       LM=   0 0  4 0  4 4  6 0  6 4

:CHA001: TOTAL VALENCE CHARGE INSIDE SPHERE   1 =  11.2728    (RMT=  2.5000 )
:PCS001: PARTIAL CHARGES SPHERE =  1 S,P,D,F,      D-EG,D-T2G 
:QTL001: 2.0298 5.3034 1.4910 2.4199 0.0000 0.0000 0.0000 0.5677 0.9233 0.0000 0.0000 0.0000
        Q-s-low E-s-low   Q-p-low E-p-low   Q-d-low E-d-low   Q-f-low E-f-low
:EPL001:  1.9394 -0.9979    5.1799  0.2670    0.1290  0.1953    0.0520  0.2318
        Q-s-hi  E-s-hi    Q-p-hi  E-p-hi    Q-d-hi  E-d-hi    Q-f-hi  E-f-hi 
:EPH001:  0.0904  1.4599    0.1235  1.4506    1.3619  1.4125    2.3680  1.5171

:CHA  : TOTAL VALENCE CHARGE INSIDE UNIT CELL =      13.000000

:SUM  : SUM OF EIGENVALUES =           6.834848172



   QTL-B VALUE .EQ.    2.78049   in Band of energy    1.42897   ATOM=    1   L=  3
    Most likely no ghostbands, but adjust Energy-parameters for this ATOM and L


:WARN : QTL-B value eq.   2.78 in Band of energy   1.42897  ATOM=    1  L=  3
:WARN : You should change the E-parameter for this atom and L-value in case.in1 (or try the -in1new switch)

        1.ATOM      Pr                   14 CORE STATES
:1S 001: 1S               -3065.942049804 Ry
:2S 001: 2S                -491.692925158 Ry
:2PP001: 2P*               -464.791761874 Ry
:2P 001: 2P                -429.394356396 Ry
:3S 001: 3S                -104.792366544 Ry
:3PP001: 3P*                -93.329842758 Ry
:3P 001: 3P                 -86.322287865 Ry
:3DD001: 3D*                -66.247758710 Ry
:3D 001: 3D                 -64.736344652 Ry
:4S 001: 4S                 -19.466476623 Ry
:4PP001: 4P*                -15.172966796 Ry
:4P 001: 4P                 -13.645140462 Ry
:4DD001: 4D*                 -6.577773717 Ry
:4D 001: 4D                  -6.308316229 Ry
:CINT001 Core Integral Atom   1   45.999464

       DENSITY AT NUCLEUS
        JATOM        VALENCE       SEMI-CORE          CORE           TOTAL
:RTO001:   1      638.589050        0.000000   656824.779218   657463.368269
     
       CHARGES OF NEW CHARGE DENSITY
:NTO   : INTERSTITIAL CHARGE =     1.727096
:NPC   : PW Pseudocharge     =     8.908301
:NTO001: CHARGE SPHERE  1    =    57.272312

:NEC01: NUCLEAR AND ELECTRONIC CHARGE     59.00000    58.99941
     
       CHARGES OF OLD CHARGE DENSITY
:OTO   : INTERSTITIAL CHARGE =     1.723689
:OPC   : PW Pseudocharge     =     8.899986
:OTO001: CHARGE SPHERE  1    =    57.276311

:NEC02: NUCLEAR AND ELECTRONIC CHARGE     59.00000    59.00000
     
       CONVERGENCE TEST
:DTO001: DIFFERENCE IN SPHERE  1 =  0.0427369

:DIS  :  CHARGE DISTANCE       ( 0.0427369 for atom    1 spin 1)      0.0427369
 PW Mixed is           26
 
******************************************************
* MULTISECANT MIXING VER9 RELEASE 10.4.0              *
* Standard Mode with controls                        *
* Fixed density scale                                *
* Regularization       1.000E-04                     *
* Trust Upper Limit    5.000E+00                     *
* Max Number of Memory Steps    8                    *
******************************************************
 
:PWTMP   3.3237E+01  1.2500E+02  9.8687E+01
:PLANE:  PW TOTAL      2.6791 DISTAN   9.23E-03  3.45E-01 %
:CHARG:  CLM/ATOM    977.1864 DISTAN   4.64E-02  4.75E-03 %
 
Step History
        DMIX         DMIXT        Red     Pred      Trust     Lambda    MagRel    MagAbs     Beta
  1   3.5000E-02   3.5000E-02 -1.00E+00  1.00E+00 -1.00E+01  1.00E+00  3.50E-02  3.50E-02  1.00E+00
  2   2.5000E-02   2.5000E-02  8.43E-01  1.00E+00 -1.00E+01  1.00E+00  2.50E-02  2.98E-02  1.00E+00
  3   3.8389E-02   3.8389E-02  8.25E-01  1.00E+00 -1.00E+01  4.50E-02  3.84E-02  3.86E-02  1.00E+00
  4   3.9061E-02   3.9061E-02  8.78E-01  8.36E-01  2.73E-01  1.55E+00  1.34E-01  1.11E-01  8.15E-01
  5   9.7651E-02   9.6342E-02  2.52E-01  2.98E-01  4.16E-01  1.09E+00  4.16E-01  3.03E-01  1.00E+00
  6   4.8495E-02   4.8495E-02  8.74E-01  9.05E-01  5.59E-01  1.09E+00  3.51E-01  6.44E-02  1.00E+00
  7   1.2124E-01   1.1853E-01 -1.00E+00  2.90E-01  7.28E-01  1.00E+00  7.28E-01  1.17E-01  1.00E+00
:JACOBIANS    1.004E+00   7.801E-01
  
:NORMS:  1/Froebius, Min, Max, Used   0.6197E+00  0.4073E+00  0.9965E+00  0.6877E+00
:INFO :  Number of Memory Steps    6 Skipping    0
:INFO :  SLambda=    1.6277295346  Max    1.6277295346
:PREDicted Charge, CTotal, PW Trust    9.690E-03   9.690E-03   1.214E-02
:PREDicted DMix, Beta, BLim   2.1419E-02  1.1774E+00  8.8431E-01

Eigenvalues, unscaled except for SY+YY
   #     SY Real        SY Imag          SS             YY         SY+YY Real      SY+YY Imag
   1   1.781701E+00   0.000000E+00   1.703113E+00   3.601113E+00   5.484904E+00   0.000000E+00
   2   7.421057E-01   0.000000E+00   5.005752E-01   1.959837E+00   4.098602E+00   0.000000E+00
   3   3.680118E-01   0.000000E+00   1.004735E-01   4.389399E-01   1.123482E+00   0.000000E+00
   4   1.127081E-05   0.000000E+00   3.631401E-06   6.134956E-05   7.391666E-05   0.000000E+00
   5   5.812088E-16   0.000000E+00   2.872410E-07   2.788242E-05   2.377250E-05   0.000000E+00
   6   3.059782E-06   0.000000E+00   6.976351E-17   2.109697E-05   3.604515E-05   0.000000E+00
 
:INFO :  Singular value  5.574E+00 Weight  1.000E+00 Projection  1.791E-02
:INFO :  Singular value  4.034E+00 Weight  1.000E+00 Projection -3.726E-03
:INFO :  Singular value  1.123E+00 Weight  1.000E+00 Projection -2.782E-02
:INFO :  Singular value  7.414E-05 Weight  4.066E-02 Projection  8.930E-02
:INFO :  Singular value  3.612E-05 Weight  9.961E-03 Projection  2.722E-02
:INFO :  Singular value  2.365E-05 Weight  4.295E-03 Projection  1.734E-03
:RANK :  ACTIVE   3.05/6  =  50.92 % ; YY RANK   3.04/6  =  50.63 %
 
:BLIM :  VZERO Control Off
:TRUST:  Step 9.71E-01  Charge 7.50E-02 (e) CTO  2.00E-01 (e) PW  3.50E-01 (e)
:DIRM :  MEMORY  6/8  SCALE   1.000 RED  0.30 PRED  0.29 NEXT  0.58 
:TRAVE:  Charge 8.03E-03 (e) CTO  8.03E-03 (e) PW  2.97E-02 (e)
:DIRP :  |MSR1|= 7.391E-03 |PRATT|= 9.231E-03 ANGLE=  12.7 DEGREES
:DIRQ :  |MSR1|= 2.265E-02 |PRATT|= 4.641E-02 ANGLE=  47.8 DEGREES
:DIRT :  |MSR1|= 2.383E-02 |PRATT|= 4.732E-02 ANGLE=  46.7 DEGREES
:MIX  :   MSE1   REGULARIZATION:  3.60E-04 GREED: 0.05547  Newton 1.00  0.5035                
     
       CHARGES OF MIXED CHARGE DENSITY
:CTO   : INTERSTITIAL CHARGE =     1.724959
:CPC   : PW Pseudocharge     =     8.909494
:CTO001: CHARGE SPHERE  1    =    57.275041

:NEC03: NUCLEAR AND ELECTRONIC CHARGE     59.00000    59.00000

PW CHANGE     H    K    L      Current       Change    Residue
:PTO001:      0    0    0  1.07759722E-01  1.092E-04  1.557E-04
:PTO002:     -1   -1   -1 -1.85025892E-01 -7.352E-04 -7.915E-04
:PTO003:      0    0   -2  8.74807866E-02  1.032E-04  1.706E-04
:PTO004:      0   -2   -2  2.81159563E-02  6.789E-04  8.478E-04
:PTO005:     -1   -1   -3  6.15992158E-03 -3.388E-04 -4.535E-04
:PTO006:     -2   -2   -2 -4.93491082E-03 -2.044E-05 -2.095E-04
:PTO007:      0    0   -4 -4.34424521E-03 -6.685E-05 -9.980E-05
:PTO008:     -1   -3   -3  9.33663494E-03  5.940E-05  1.974E-04
:PTO009:      0   -2   -4 -8.41665341E-03 -1.129E-04 -1.993E-04
:PTO010:     -2   -2   -4 -5.40175028E-03 -2.379E-04 -4.602E-04
:PTO011:     -3   -3   -3  1.23797447E-03  7.051E-05  1.419E-04
:PTO012:     -1   -1   -5  3.45775243E-03  1.862E-04  3.143E-04

:ENE  : *WARNING** TOTAL ENERGY IN Ry =       -18472.08176926

 Flat Integration
 New Mode for Coulomb Integral
 Consistent 3/8+Simpson combinations
 Extension of core to zero
 LDM version in phi
 Fifth-order quadrature in outwin


            ---------
:ITE008:  8. ITERATION
            ---------

:NATO :    1 INDEPENDENT AND    1 TOTAL ATOMS IN UNITCELL
       SUBSTANCE: blebleble                                                   

       LATTICE                      = F   
:POT  : POTENTIAL OPTION EX_LDA EC_LDA VX_LDA VC_LDA
:LAT  : LATTICE CONSTANTS=  7.33567  7.33567  7.33567    1.571    1.571    1.571
:VOL  : UNIT CELL VOLUME =      98.68671
       MODE OF CALCULATION IS       = RELA
       NON-SPINPOLARIZED CALCULATION
:IFFT  : FFT-parameters:   60   60   60 Factor: 2.00


   CONVERGENCE PARAMETER FOR PSEUDOCHARGE: NCON=  9
   MAXIMAL VALUE OF RMT(JATOM)*ABSK(NKK) : RK  =29.97839


:VKCOUL :  VK-COUL convergence: 0.274E-06
       ATOMNUMBER=  1 Pr         VCOUL-ZERO =  0.11237E+01
:FIT001: LUSE= 13 SIGMA OF V-XC FIT FOR ATOM  1  0.2132610E-03
:FIT001: LUSE= 13 SIGMA OF V-XC FIT FOR ATOM  1  0.2132610E-03
:DEN  : DENSITY INTEGRAL  =         -7133.17947932   (Ry)
       ELS_POTENTIAL_AT Z=0 and Z=0.5:  -3.20994  -3.20994
       ELS_POTENTIAL_AT Y=0 and Y=0.5:   0.00000   0.00000
:VZERO:v0,v0c,v0x  -4.40882  -3.20994  -1.19888 v5,v5c,v5x  -4.40882  -3.20994  -1.19888
:VZERY:v0,v0c,v0x  -1.01697   0.00000  -1.01697 v5,v5c,v5x  -1.01697   0.00000  -1.01697
:VZERX:v0,v0c,v0x  -1.01697   0.00000  -1.01697 v5,v5c,v5x  -1.01697   0.00000  -1.01697
:LMAX-WF:   10   Non-Spherical LMAX:   4

          ATOMIC SPHERE DEPENDENT PARAMETERS FOR ATOM  Pr        
:e__0001: OVERALL ENERGY PARAMETER IS    1.4081
          OVERALL BASIS SET ON ATOM IS LAPW
:E0_0001: E( 0)=    1.4081
             APW+lo
:E0_0001: E( 0)=   -1.0700   E(BOTTOM)=   -1.476   E(TOP)=   -0.664  4  5   276
             LOCAL ORBITAL
:E1_0001: E( 1)=    1.8081
             APW+lo
:E1_0001: E( 1)=    0.2985   E(BOTTOM)=   -0.386   E(TOP)=    0.983  3  4   269
             LOCAL ORBITAL
:E3_0001: E( 3)=    1.6200   E(BOTTOM)=    1.462   E(TOP)=    1.778  0  1   119
             APW+lo
:E2_0001: E( 2)=    1.4081   E(BOTTOM)=    1.152   E(TOP)= -200.000  2 -1   125
             APW+lo

       K=   0.00000   0.00000   0.00000            1
:RKM  : MATRIX SIZE    79LOs:  20  RKM= 7.42  WEIGHT= 1.00  PGR:    
       EIGENVALUES ARE:
:EIG00001:      -1.2351144    0.5820205    0.5820205    0.5820205    1.4696590
:EIG00006:       1.5905077    1.5905077    1.5905077    1.6601142    1.7213555
:EIG00011:       1.7213555    1.7213555    1.7289196    1.7289196    1.7289196
:EIG00016:       2.1999238    2.1999238    2.7365424
       ********************************************************

:KPT   :      NUMBER OF K-POINTS:   165
:GAP (global)   :    0.0    Ry =     0.0   eV (metal)
         Bandranges (emin - emax) and occupancy:
:BAN00001:   1   -1.235114   -0.956791  2.00000000
:BAN00002:   2   -0.110333    0.582021  2.00000000
:BAN00003:   3    0.079397    0.582021  2.00000000
:BAN00004:   4    0.256514    0.582021  2.00000000
:BAN00005:   5    1.177000    1.477427  2.00000000
:BAN00006:   6    1.217217    1.590508  2.00000000
:BAN00007:   7    1.563605    1.644384  0.95885052
:BAN00008:   8    1.580564    1.660400  0.04114948
:BAN00009:   9    1.608957    1.691372  0.00000000
:BAN00010:  10    1.628082    1.721355  0.00000000
:BAN00011:  11    1.663935    1.726222  0.00000000
:BAN00012:  12    1.679246    1.804564  0.00000000
:BAN00013:  13    1.694120    1.956929  0.00000000
        Energy to separate low and high energystates:    1.12700


:NOE  : NUMBER OF ELECTRONS          =   13.000

:FER  : F E R M I - ENERGY(TETRAH.M.)=   1.5958840334
:GMA  : POTENTIAL AND CHARGE CUT-OFF  12.00 Ry**.5

:POS001: ATOM    1 X,Y,Z = 0.00000 0.00000 0.50000  MULT= 1  ZZ= 59.000  Pr        

       LMMAX  5
       LM=   0 0  4 0  4 4  6 0  6 4

:CHA001: TOTAL VALENCE CHARGE INSIDE SPHERE   1 =  11.2815    (RMT=  2.5000 )
:PCS001: PARTIAL CHARGES SPHERE =  1 S,P,D,F,      D-EG,D-T2G 
:QTL001: 2.0291 5.3038 1.4795 2.4405 0.0000 0.0000 0.0000 0.5636 0.9160 0.0000 0.0000 0.0000
        Q-s-low E-s-low   Q-p-low E-p-low   Q-d-low E-d-low   Q-f-low E-f-low
:EPL001:  1.9396 -1.0018    5.1820  0.2641    0.1285  0.1923    0.0518  0.2288
        Q-s-hi  E-s-hi    Q-p-hi  E-p-hi    Q-d-hi  E-d-hi    Q-f-hi  E-f-hi 
:EPH001:  0.0895  1.4566    0.1218  1.4472    1.3510  1.4094    2.3887  1.5130

:CHA  : TOTAL VALENCE CHARGE INSIDE UNIT CELL =      13.000000

:SUM  : SUM OF EIGENVALUES =           6.793423684



   QTL-B VALUE .EQ.    2.74799   in Band of energy    1.42588   ATOM=    1   L=  3
    Most likely no ghostbands, but adjust Energy-parameters for this ATOM and L


:WARN : QTL-B value eq.   2.75 in Band of energy   1.42588  ATOM=    1  L=  3
:WARN : You should change the E-parameter for this atom and L-value in case.in1 (or try the -in1new switch)

        1.ATOM      Pr                   14 CORE STATES
:1S 001: 1S               -3065.949481284 Ry
:2S 001: 2S                -491.698954181 Ry
:2PP001: 2P*               -464.797899072 Ry
:2P 001: 2P                -429.400438134 Ry
:3S 001: 3S                -104.798816576 Ry
:3PP001: 3P*                -93.336278503 Ry
:3P 001: 3P                 -86.328742652 Ry
:3DD001: 3D*                -66.254063987 Ry
:3D 001: 3D                 -64.742660027 Ry
:4S 001: 4S                 -19.473406929 Ry
:4PP001: 4P*                -15.179888532 Ry
:4P 001: 4P                 -13.652069381 Ry
:4DD001: 4D*                 -6.584589979 Ry
:4D 001: 4D                  -6.315123328 Ry
:CINT001 Core Integral Atom   1   45.999466

       DENSITY AT NUCLEUS
        JATOM        VALENCE       SEMI-CORE          CORE           TOTAL
:RTO001:   1      638.760652        0.000000   656824.898548   657463.659200
     
       CHARGES OF NEW CHARGE DENSITY
:NTO   : INTERSTITIAL CHARGE =     1.718484
:NPC   : PW Pseudocharge     =     8.893187
:NTO001: CHARGE SPHERE  1    =    57.280926

:NEC01: NUCLEAR AND ELECTRONIC CHARGE     59.00000    58.99941
     
       CHARGES OF OLD CHARGE DENSITY
:OTO   : INTERSTITIAL CHARGE =     1.724959
:OPC   : PW Pseudocharge     =     8.909494
:OTO001: CHARGE SPHERE  1    =    57.275041

:NEC02: NUCLEAR AND ELECTRONIC CHARGE     59.00000    59.00000
     
       CONVERGENCE TEST
:DTO001: DIFFERENCE IN SPHERE  1 =  0.0233814

:DIS  :  CHARGE DISTANCE       ( 0.0233814 for atom    1 spin 1)      0.0233814
 PW Mixed is           26
 
******************************************************
* MULTISECANT MIXING VER9 RELEASE 10.4.0              *
* Standard Mode with controls                        *
* Fixed density scale                                *
* Regularization       1.000E-04                     *
* Trust Upper Limit    5.000E+00                     *
* Max Number of Memory Steps    8                    *
******************************************************
 
:PWTMP   3.3237E+01  1.2500E+02  9.8687E+01
:PLANE:  PW TOTAL      2.6841 DISTAN   4.93E-03  1.84E-01 %
:CHARG:  CLM/ATOM    977.1796 DISTAN   2.49E-02  2.54E-03 %
 
Step History
        DMIX         DMIXT        Red     Pred      Trust     Lambda    MagRel    MagAbs     Beta
  1   3.5000E-02   3.5000E-02 -1.00E+00  1.00E+00 -1.00E+01  1.00E+00  3.50E-02  3.50E-02  1.00E+00
  2   2.5000E-02   2.5000E-02  8.43E-01  1.00E+00 -1.00E+01  1.00E+00  2.50E-02  2.98E-02  1.00E+00
  3   3.8389E-02   3.8389E-02  8.25E-01  1.00E+00 -1.00E+01  4.50E-02  3.84E-02  3.86E-02  1.00E+00
  4   3.9061E-02   3.9061E-02  8.78E-01  8.36E-01  2.73E-01  1.55E+00  1.34E-01  1.11E-01  8.15E-01
  5   9.7651E-02   9.6342E-02  2.52E-01  2.98E-01  4.16E-01  1.09E+00  4.16E-01  3.03E-01  1.00E+00
  6   4.8495E-02   4.8495E-02  8.74E-01  9.05E-01  5.59E-01  1.09E+00  3.51E-01  6.44E-02  1.00E+00
  7   1.2124E-01   1.1853E-01  2.95E-01  2.90E-01  7.28E-01  1.63E+00  7.28E-01  1.17E-01  1.00E+00
  8   5.5474E-02   5.5474E-02 -1.00E+00  5.78E-01  9.71E-01  1.00E+00  5.04E-01  2.38E-02  1.00E+00
[...]
:BAN00013:  13    1.692502    1.954874  0.00000000
        Energy to separate low and high energystates:    1.12475


:NOE  : NUMBER OF ELECTRONS          =   13.000

:FER  : F E R M I - ENERGY(TETRAH.M.)=   1.5942294366
:GMA  : POTENTIAL AND CHARGE CUT-OFF  12.00 Ry**.5

:POS001: ATOM    1 X,Y,Z = 0.00000 0.00000 0.50000  MULT= 1  ZZ= 59.000  Pr        

       LMMAX  5
       LM=   0 0  4 0  4 4  6 0  6 4

:CHA001: TOTAL VALENCE CHARGE INSIDE SPHERE   1 =  11.2801    (RMT=  2.5000 )
:PCS001: PARTIAL CHARGES SPHERE =  1 S,P,D,F,      D-EG,D-T2G 
:QTL001: 2.0292 5.3037 1.4812 2.4375 0.0000 0.0000 0.0000 0.5642 0.9169 0.0000 0.0000 0.0000
        Q-s-low E-s-low   Q-p-low E-p-low   Q-d-low E-d-low   Q-f-low E-f-low
:EPL001:  1.9396 -1.0035    5.1817  0.2622    0.1286  0.1904    0.0518  0.2269
        Q-s-hi  E-s-hi    Q-p-hi  E-p-hi    Q-d-hi  E-d-hi    Q-f-hi  E-f-hi 
:EPH001:  0.0897  1.4547    0.1220  1.4453    1.3526  1.4074    2.3856  1.5112

:CHA  : TOTAL VALENCE CHARGE INSIDE UNIT CELL =      13.000000

:SUM  : SUM OF EIGENVALUES =           6.768937357



   QTL-B VALUE .EQ.    2.75195   in Band of energy    1.42394   ATOM=    1   L=  3
    Most likely no ghostbands, but adjust Energy-parameters for this ATOM and L


:WARN : QTL-B value eq.   2.75 in Band of energy   1.42394  ATOM=    1  L=  3
:WARN : You should change the E-parameter for this atom and L-value in case.in1 (or try the -in1new switch)

        1.ATOM      Pr                   14 CORE STATES
:1S 001: 1S               -3065.961684206 Ry
:2S 001: 2S                -491.708529955 Ry
:2PP001: 2P*               -464.807970905 Ry
:2P 001: 2P                -429.410316268 Ry
:3S 001: 3S                -104.804380422 Ry
:3PP001: 3P*                -93.342066966 Ry
:3P 001: 3P                 -86.334302431 Ry
:3DD001: 3D*                -66.260191854 Ry
:3D 001: 3D                 -64.748709776 Ry
:4S 001: 4S                 -19.475381276 Ry
:4PP001: 4P*                -15.181836412 Ry
:4P 001: 4P                 -13.653912541 Ry
:4DD001: 4D*                 -6.586365141 Ry
:4D 001: 4D                  -6.316871441 Ry
:CINT001 Core Integral Atom   1   45.999466

       DENSITY AT NUCLEUS
        JATOM        VALENCE       SEMI-CORE          CORE           TOTAL
:RTO001:   1      638.716119        0.000000   656826.020258   657464.736377
     
       CHARGES OF NEW CHARGE DENSITY
:NTO   : INTERSTITIAL CHARGE =     1.719830
:NPC   : PW Pseudocharge     =     8.895509
:NTO001: CHARGE SPHERE  1    =    57.279580

:NEC01: NUCLEAR AND ELECTRONIC CHARGE     59.00000    58.99941
     
       CHARGES OF OLD CHARGE DENSITY
:OTO   : INTERSTITIAL CHARGE =     1.720411
:OPC   : PW Pseudocharge     =     8.898593
:OTO001: CHARGE SPHERE  1    =    57.279589

:NEC02: NUCLEAR AND ELECTRONIC CHARGE     59.00000    59.00000
     
       CONVERGENCE TEST
:DTO001: DIFFERENCE IN SPHERE  1 =  0.0001833

:DIS  :  CHARGE DISTANCE       ( 0.0001833 for atom    1 spin 1)      0.0001833
 PW Mixed is           26
 
******************************************************
* MULTISECANT MIXING VER9 RELEASE 10.4.0              *
* Standard Mode with controls                        *
* Fixed density scale                                *
* Regularization       1.000E-04                     *
* Trust Upper Limit    5.000E+00                     *
* Max Number of Memory Steps    8                    *
******************************************************
 
:PWTMP   3.3237E+01  1.2500E+02  9.8687E+01
:PLANE:  PW TOTAL      2.6823 DISTAN   5.86E-05  2.18E-03 %
:CHARG:  CLM/ATOM    977.1685 DISTAN   3.64E-04  3.73E-05 %
 
Step History
        DMIX         DMIXT        Red     Pred      Trust     Lambda    MagRel    MagAbs     Beta
  4   3.9061E-02   3.9061E-02  8.78E-01  8.36E-01  2.73E-01  1.55E+00  1.34E-01  1.11E-01  8.15E-01
  5   9.7651E-02   9.6342E-02  2.52E-01  2.98E-01  4.16E-01  1.09E+00  4.16E-01  3.03E-01  1.00E+00
  6   4.8495E-02   4.8495E-02  8.74E-01  9.05E-01  5.59E-01  1.09E+00  3.51E-01  6.44E-02  1.00E+00
  7   1.2124E-01   1.1853E-01  2.95E-01  2.90E-01  7.28E-01  1.63E+00  7.28E-01  1.17E-01  1.00E+00
  8   5.5474E-02   5.5474E-02  5.35E-01  5.78E-01  9.71E-01  1.13E+00  5.04E-01  2.38E-02  1.00E+00
  9   1.3868E-01   1.3868E-01  4.04E-01  7.52E-01  1.29E+00  1.18E+00  5.05E-01  1.28E-02  9.98E-01
 10   2.1965E-01   2.1965E-01  2.73E-01  3.03E-01  1.73E+00  1.49E+00  8.01E-01  8.19E-03  1.00E+00
 11   3.5000E-01   3.5000E-01  2.56E-01  1.27E-01  2.30E+00  1.40E+00  8.81E-01  2.46E-03  1.00E+00
 12   1.5144E-01   1.5144E-01 -1.00E+00  4.65E-01  3.55E+00  1.00E+00  2.81E-01  2.01E-04  9.82E-01
:JACOBIANS    1.165E+00   2.922E+00
  
:NORMS:  1/Froebius, Min, Max, Used   0.7690E+00  0.6494E+00  0.9974E+00  0.9193E+00
:INFO :  Number of Memory Steps    8 Skipping    3
:INFO :  SLambda=    1.3913241073  Max    1.3913241073
:PREDicted Charge, CTotal, PW Trust    9.194E-05   9.194E-05   1.663E-04
:PREDicted DMix, Beta, BLim   9.1823E-01  1.6375E+00  1.9527E+00

Eigenvalues, unscaled except for SY+YY
   #     SY Real        SY Imag          SS             YY         SY+YY Real      SY+YY Imag
   1   2.757158E+00   0.000000E+00   2.662384E+00   3.150373E+00   6.862879E+00   0.000000E+00
   2   1.204352E+00   0.000000E+00   1.057913E+00   1.997099E+00   3.359284E+00   0.000000E+00
   3   8.993887E-01   0.000000E+00   6.704298E-01   1.722236E+00   3.009997E+00   0.000000E+00
   4   4.438226E-01   0.000000E+00   2.748540E-01   8.903389E-01   1.865616E+00   0.000000E+00
   5   1.895138E-01   0.000000E+00   6.203097E-02   2.368063E-01   5.433494E-01   0.000000E+00
   6   3.135137E-03   0.000000E+00   3.014048E-03   3.081105E-03   7.439379E-03   0.000000E+00
   7   1.070310E-05   0.000000E+00   2.355455E-06   6.410530E-05   7.261095E-05   0.000000E+00
   8   6.290480E-07   0.000000E+00   1.806953E-07   1.788632E-06   2.767720E-06   0.000000E+00
 
:INFO :  Singular value  6.865E+00 Weight  1.000E+00 Projection  1.299E-05
:INFO :  Singular value  3.533E+00 Weight  1.000E+00 Projection  2.301E-05
:INFO :  Singular value  2.872E+00 Weight  1.000E+00 Projection -6.631E-05
:INFO :  Singular value  1.860E+00 Weight  1.000E+00 Projection  3.948E-05
:INFO :  Singular value  5.430E-01 Weight  1.000E+00 Projection -2.265E-05
:INFO :  Singular value  7.474E-03 Weight  9.982E-01 Projection -6.278E-03
:INFO :  Singular value  7.246E-05 Weight  5.024E-02 Projection -7.464E-05
:INFO :  Singular value  2.761E-06 Weight  7.679E-05 Projection  1.624E-06
:RANK :  ACTIVE   6.05/8  =  75.61 % ; YY RANK   6.03/8  =  75.37 %
 
:BLIM :  VZERO Control Off
:TRUST:  Step 4.74E+00  Charge 2.46E-02 (e) CTO  6.55E-02 (e) PW  1.15E-01 (e)
:DIRM :  MEMORY  8/8  SCALE   1.000 RED  0.52 PRED  0.46 NEXT  0.10 
:TRAVE:  Charge 5.29E-04 (e) CTO  5.29E-04 (e) PW  1.26E-03 (e)
:DIRP :  |MSR1|= 6.021E-05 |PRATT|= 5.859E-05 ANGLE=  40.5 DEGREES
:DIRQ :  |MSR1|= 3.619E-04 |PRATT|= 3.642E-04 ANGLE=  13.8 DEGREES
:DIRT :  |MSR1|= 3.669E-04 |PRATT|= 3.689E-04 ANGLE=  15.0 DEGREES
:MIX  :   MSE1   REGULARIZATION:  3.15E-04 GREED: 0.34385  Newton 1.00  0.9947                
     
       CHARGES OF MIXED CHARGE DENSITY
:CTO   : INTERSTITIAL CHARGE =     1.720401
:CPC   : PW Pseudocharge     =     8.898438
:CTO001: CHARGE SPHERE  1    =    57.279599

:NEC03: NUCLEAR AND ELECTRONIC CHARGE     59.00000    59.00000

PW CHANGE     H    K    L      Current       Change    Residue
:PTO001:      0    0    0  1.07601516E-01 -1.661E-06 -2.123E-07
:PTO002:     -1   -1   -1 -1.85105934E-01  1.805E-06 -1.498E-06
:PTO003:      0    0   -2  8.76503904E-02  1.328E-06  2.980E-06
:PTO004:      0   -2   -2  2.82716486E-02  6.297E-06  7.326E-06
:PTO005:     -1   -1   -3  6.04867381E-03 -3.249E-06 -3.913E-06
:PTO006:     -2   -2   -2 -5.13317539E-03  1.487E-06  1.722E-06
:PTO007:      0    0   -4 -4.37244058E-03  3.833E-07  3.551E-07
:PTO008:     -1   -3   -3  9.49550876E-03 -3.304E-06 -3.021E-06
:PTO009:      0   -2   -4 -8.51604437E-03  2.445E-06  2.156E-06
:PTO010:     -2   -2   -4 -5.63790862E-03  2.462E-06  2.197E-06
:PTO011:     -3   -3   -3  1.31280027E-03 -7.870E-07 -7.006E-07
:PTO012:     -1   -1   -5  3.58998345E-03 -1.441E-06 -1.185E-06

:ENE  : *WARNING** TOTAL ENERGY IN Ry =       -18472.08183892

 Flat Integration
 New Mode for Coulomb Integral
 Consistent 3/8+Simpson combinations
 Extension of core to zero
 LDM version in phi
 Fifth-order quadrature in outwin


            ---------
:ITE013: 13. ITERATION
            ---------

:NATO :    1 INDEPENDENT AND    1 TOTAL ATOMS IN UNITCELL
       SUBSTANCE: blebleble                                                   

       LATTICE                      = F   
:POT  : POTENTIAL OPTION EX_LDA EC_LDA VX_LDA VC_LDA
:LAT  : LATTICE CONSTANTS=  7.33567  7.33567  7.33567    1.571    1.571    1.571
:VOL  : UNIT CELL VOLUME =      98.68671
       MODE OF CALCULATION IS       = RELA
       NON-SPINPOLARIZED CALCULATION
:IFFT  : FFT-parameters:   60   60   60 Factor: 2.00


   CONVERGENCE PARAMETER FOR PSEUDOCHARGE: NCON=  9
   MAXIMAL VALUE OF RMT(JATOM)*ABSK(NKK) : RK  =29.97839


:VKCOUL :  VK-COUL convergence: 0.271E-06
       ATOMNUMBER=  1 Pr         VCOUL-ZERO =  0.11209E+01
:FIT001: LUSE= 13 SIGMA OF V-XC FIT FOR ATOM  1  0.2009499E-03
:FIT001: LUSE= 13 SIGMA OF V-XC FIT FOR ATOM  1  0.2009499E-03
:DEN  : DENSITY INTEGRAL  =         -7132.91029394   (Ry)
       ELS_POTENTIAL_AT Z=0 and Z=0.5:  -3.20301  -3.20301
       ELS_POTENTIAL_AT Y=0 and Y=0.5:   0.00000   0.00000
:VZERO:v0,v0c,v0x  -4.40178  -3.20301  -1.19877 v5,v5c,v5x  -4.40178  -3.20301  -1.19877
:VZERY:v0,v0c,v0x  -1.01634   0.00000  -1.01634 v5,v5c,v5x  -1.01634   0.00000  -1.01634
:VZERX:v0,v0c,v0x  -1.01634   0.00000  -1.01634 v5,v5c,v5x  -1.01634   0.00000  -1.01634
:LMAX-WF:   10   Non-Spherical LMAX:   4

          ATOMIC SPHERE DEPENDENT PARAMETERS FOR ATOM  Pr        
:e__0001: OVERALL ENERGY PARAMETER IS    1.3943
          OVERALL BASIS SET ON ATOM IS LAPW
:E0_0001: E( 0)=    1.3943
             APW+lo
:E0_0001: E( 0)=   -1.0717   E(BOTTOM)=   -1.478   E(TOP)=   -0.665  4  5   278
             LOCAL ORBITAL
:E1_0001: E( 1)=    1.7943
             APW+lo
:E1_0001: E( 1)=    0.2966   E(BOTTOM)=   -0.388   E(TOP)=    0.981  3  4   270
             LOCAL ORBITAL
:E3_0001: E( 3)=    1.6183   E(BOTTOM)=    1.460   E(TOP)=    1.777  0  1   124
             APW+lo
:E2_0001: E( 2)=    1.3943   E(BOTTOM)=    1.150   E(TOP)= -200.000  2 -1   126
             APW+lo

       K=   0.00000   0.00000   0.00000            1
:RKM  : MATRIX SIZE    79LOs:  20  RKM= 7.42  WEIGHT= 1.00  PGR:    
       EIGENVALUES ARE:
:EIG00001:      -1.2369332    0.5802158    0.5802158    0.5802158    1.4678198
:EIG00006:       1.5888856    1.5888856    1.5888856    1.6579760    1.7192093
:EIG00011:       1.7192093    1.7192093    1.7273554    1.7273554    1.7273554
:EIG00016:       2.1979086    2.1979086    2.7343225
       ********************************************************

:KPT   :      NUMBER OF K-POINTS:   165
:GAP (global)   :    0.0    Ry =     0.0   eV (metal)
         Bandranges (emin - emax) and occupancy:
:BAN00001:   1   -1.236933   -0.958491  2.00000000
:BAN00002:   2   -0.112360    0.580216  2.00000000
:BAN00003:   3    0.077402    0.580216  2.00000000
:BAN00004:   4    0.254560    0.580216  2.00000000
:BAN00005:   5    1.174730    1.475510  2.00000000
:BAN00006:   6    1.214978    1.588886  2.00000000
:BAN00007:   7    1.561841    1.642775  0.95898958
:BAN00008:   8    1.578856    1.658801  0.04101042
:BAN00009:   9    1.607222    1.689577  0.00000000
:BAN00010:  10    1.626475    1.719209  0.00000000
:BAN00011:  11    1.662332    1.724285  0.00000000
:BAN00012:  12    1.677690    1.802724  0.00000000
:BAN00013:  13    1.692470    1.954855  0.00000000
        Energy to separate low and high energystates:    1.12473


:NOE  : NUMBER OF ELECTRONS          =   13.000

:FER  : F E R M I - ENERGY(TETRAH.M.)=   1.5942019021
:GMA  : POTENTIAL AND CHARGE CUT-OFF  12.00 Ry**.5

:POS001: ATOM    1 X,Y,Z = 0.00000 0.00000 0.50000  MULT= 1  ZZ= 59.000  Pr        

       LMMAX  5
       LM=   0 0  4 0  4 4  6 0  6 4

:CHA001: TOTAL VALENCE CHARGE INSIDE SPHERE   1 =  11.2801    (RMT=  2.5000 )
:PCS001: PARTIAL CHARGES SPHERE =  1 S,P,D,F,      D-EG,D-T2G 
:QTL001: 2.0292 5.3037 1.4811 2.4376 0.0000 0.0000 0.0000 0.5642 0.9169 0.0000 0.0000 0.0000
        Q-s-low E-s-low   Q-p-low E-p-low   Q-d-low E-d-low   Q-f-low E-f-low
:EPL001:  1.9396 -1.0036    5.1817  0.2622    0.1286  0.1904    0.0518  0.2269
        Q-s-hi  E-s-hi    Q-p-hi  E-p-hi    Q-d-hi  E-d-hi    Q-f-hi  E-f-hi 
:EPH001:  0.0897  1.4546    0.1220  1.4453    1.3526  1.4074    2.3857  1.5112

:CHA  : TOTAL VALENCE CHARGE INSIDE UNIT CELL =      13.000000

:SUM  : SUM OF EIGENVALUES =           6.768679709



   QTL-B VALUE .EQ.    2.75189   in Band of energy    1.42391   ATOM=    1   L=  3
    Most likely no ghostbands, but adjust Energy-parameters for this ATOM and L


:WARN : QTL-B value eq.   2.75 in Band of energy   1.42391  ATOM=    1  L=  3
:WARN : You should change the E-parameter for this atom and L-value in case.in1 (or try the -in1new switch)

        1.ATOM      Pr                   14 CORE STATES
:1S 001: 1S               -3065.961755461 Ry
:2S 001: 2S                -491.708603985 Ry
:2PP001: 2P*               -464.808045395 Ry
:2P 001: 2P                -429.410390683 Ry
:3S 001: 3S                -104.804446751 Ry
:3PP001: 3P*                -93.342133636 Ry
:3P 001: 3P                 -86.334368653 Ry
:3DD001: 3D*                -66.260259417 Ry
:3D 001: 3D                 -64.748777169 Ry
:4S 001: 4S                 -19.475426874 Ry
:4PP001: 4P*                -15.181880818 Ry
:4P 001: 4P                 -13.653954969 Ry
:4DD001: 4D*                 -6.586404745 Ry
:4D 001: 4D                  -6.316910432 Ry
:CINT001 Core Integral Atom   1   45.999466

       DENSITY AT NUCLEUS
        JATOM        VALENCE       SEMI-CORE          CORE           TOTAL
:RTO001:   1      638.715654        0.000000   656826.024444   657464.740097
     
       CHARGES OF NEW CHARGE DENSITY
:NTO   : INTERSTITIAL CHARGE =     1.719812
:NPC   : PW Pseudocharge     =     8.895463
:NTO001: CHARGE SPHERE  1    =    57.279598

:NEC01: NUCLEAR AND ELECTRONIC CHARGE     59.00000    58.99941
     
       CHARGES OF OLD CHARGE DENSITY
:OTO   : INTERSTITIAL CHARGE =     1.720401
:OPC   : PW Pseudocharge     =     8.898438
:OTO001: CHARGE SPHERE  1    =    57.279599

:NEC02: NUCLEAR AND ELECTRONIC CHARGE     59.00000    59.00000
     
       CONVERGENCE TEST
:DTO001: DIFFERENCE IN SPHERE  1 =  0.0000450

:DIS  :  CHARGE DISTANCE       ( 0.0000450 for atom    1 spin 1)      0.0000450
 PW Mixed is           26
 
******************************************************
* MULTISECANT MIXING VER9 RELEASE 10.4.0              *
* Standard Mode with controls                        *
* Fixed density scale                                *
* Regularization       1.000E-04                     *
* Trust Upper Limit    5.000E+00                     *
* Max Number of Memory Steps    8                    *
******************************************************
 
:PWTMP   3.3237E+01  1.2500E+02  9.8687E+01
:PLANE:  PW TOTAL      2.6822 DISTAN   2.98E-05  1.11E-03 %
:CHARG:  CLM/ATOM    977.1685 DISTAN   5.33E-05  5.46E-06 %
 
Step History
        DMIX         DMIXT        Red     Pred      Trust     Lambda    MagRel    MagAbs     Beta
  5   9.7651E-02   9.6342E-02  2.52E-01  2.98E-01  4.16E-01  1.09E+00  4.16E-01  3.03E-01  1.00E+00
  6   4.8495E-02   4.8495E-02  8.74E-01  9.05E-01  5.59E-01  1.09E+00  3.51E-01  6.44E-02  1.00E+00
  7   1.2124E-01   1.1853E-01  2.95E-01  2.90E-01  7.28E-01  1.63E+00  7.28E-01  1.17E-01  1.00E+00
  8   5.5474E-02   5.5474E-02  5.35E-01  5.78E-01  9.71E-01  1.13E+00  5.04E-01  2.38E-02  1.00E+00
  9   1.3868E-01   1.3868E-01  4.04E-01  7.52E-01  1.29E+00  1.18E+00  5.05E-01  1.28E-02  9.98E-01
 10   2.1965E-01   2.1965E-01  2.73E-01  3.03E-01  1.73E+00  1.49E+00  8.01E-01  8.19E-03  1.00E+00
 11   3.5000E-01   3.5000E-01  2.56E-01  1.27E-01  2.30E+00  1.40E+00  8.81E-01  2.46E-03  1.00E+00
 12   1.5144E-01   1.5144E-01  5.16E-01  4.65E-01  3.55E+00  1.39E+00  2.81E-01  2.01E-04  9.82E-01
 13   3.4385E-01   3.4385E-01 -1.00E+00  1.02E-01  4.74E+00  1.00E+00  9.95E-01  3.67E-04  1.00E+00
:JACOBIANS    1.178E+00   3.206E+00
  
:NORMS:  1/Froebius, Min, Max, Used   0.8331E+00  0.6890E+00  0.9988E+00  0.9450E+00
:INFO :  Number of Memory Steps    8 Skipping    4
:INFO :  SLambda=    1.3754022931  Max    1.3754022931
:PREDicted Charge, CTotal, PW Trust    1.027E-05   1.027E-05   2.613E-05
:PREDicted DMix, Beta, BLim   7.3388E-03  9.2121E-01  9.2221E-01

Eigenvalues, unscaled except for SY+YY
   #     SY Real        SY Imag          SS             YY         SY+YY Real      SY+YY Imag
   1   2.719193E+00   0.000000E+00   2.620902E+00   2.934674E+00   6.648488E+00   0.000000E+00
   2   1.312928E+00   0.000000E+00   1.312202E+00   1.745138E+00   3.397484E+00   0.000000E+00
   3   1.207878E+00   0.000000E+00   9.487701E-01   1.368790E+00   3.177440E+00   0.000000E+00
   4   6.935479E-01   0.000000E+00   5.124604E-01   1.233441E+00   2.026881E+00   0.000000E+00
   5   1.196417E-01   0.000000E+00   1.212879E-01   5.948014E-01   1.039023E+00   0.000000E+00
   6   1.847989E-01   0.000000E+00   3.625834E-02   1.231381E-01   2.904093E-01   0.000000E+00
   7   1.571206E-06   0.000000E+00   3.131772E-06   1.359212E-05   6.158443E-06   0.000000E+00
   8   5.943386E-06   0.000000E+00   6.387161E-07   3.981571E-06   2.171540E-05   0.000000E+00
 
:INFO :  Singular value  6.649E+00 Weight  1.000E+00 Projection -1.154E-06
:INFO :  Singular value  3.450E+00 Weight  1.000E+00 Projection -3.613E-06
:INFO :  Singular value  3.177E+00 Weight  1.000E+00 Projection -2.909E-05
:INFO :  Singular value  2.004E+00 Weight  1.000E+00 Projection -1.718E-05
:INFO :  Singular value  1.035E+00 Weight  1.000E+00 Projection -3.019E-05
:INFO :  Singular value  2.904E-01 Weight  1.000E+00 Projection -9.027E-05
:INFO :  Singular value  2.171E-05 Weight  5.445E-03 Projection  1.180E-05
:INFO :  Singular value  6.158E-06 Weight  4.402E-04 Projection  2.451E-06
:RANK :  ACTIVE   6.01/8  =  75.07 % ; YY RANK   6.00/8  =  75.03 %
 
:DLIM :  Beta Active  9.409E-01
:BLIM :  VZERO Control Off
:TRUST:  Step 1.08E+01  Charge 1.97E-02 (e) CTO  5.24E-02 (e) PW  9.18E-02 (e)
:DIRM :  MEMORY  8/8  SCALE   1.000 RED  0.17 PRED  0.10 NEXT  0.26 BETA  0.94
:TRAVE:  Charge 2.65E-04 (e) CTO  2.65E-04 (e) PW  6.47E-04 (e)
:DIRP :  |MSR1|= 3.045E-05 |PRATT|= 2.981E-05 ANGLE=   5.6 DEGREES
:DIRQ :  |MSR1|= 2.827E-05 |PRATT|= 5.332E-05 ANGLE=  36.9 DEGREES
:DIRT :  |MSR1|= 4.155E-05 |PRATT|= 6.109E-05 ANGLE=  33.8 DEGREES
:MIX  :   MSE1   REGULARIZATION:  2.93E-04 GREED: 0.14060  Newton 1.00  0.6802                
     
       CHARGES OF MIXED CHARGE DENSITY
:CTO   : INTERSTITIAL CHARGE =     1.720402
:CPC   : PW Pseudocharge     =     8.898523
:CTO001: CHARGE SPHERE  1    =    57.279598

:NEC03: NUCLEAR AND ELECTRONIC CHARGE     59.00000    59.00000

PW CHANGE     H    K    L      Current       Change    Residue
:PTO001:      0    0    0  1.07602379E-01  8.630E-07  7.922E-07
:PTO002:     -1   -1   -1 -1.85108860E-01 -2.926E-06 -2.876E-06
:PTO003:      0    0   -2  8.76518287E-02  1.438E-06  1.432E-06
:PTO004:      0   -2   -2  2.82722187E-02  5.701E-07  9.800E-07
:PTO005:     -1   -1   -3  6.04828416E-03 -3.897E-07 -4.121E-07
:PTO006:     -2   -2   -2 -5.13304997E-03  1.254E-07  2.497E-07
:PTO007:      0    0   -4 -4.37247751E-03 -3.693E-08 -5.271E-08
:PTO008:     -1   -3   -3  9.49580412E-03  2.954E-07  2.754E-07
:PTO009:      0   -2   -4 -8.51633181E-03 -2.874E-07 -3.305E-07
:PTO010:     -2   -2   -4 -5.63816839E-03 -2.598E-07 -2.650E-07
:PTO011:     -3   -3   -3  1.31288729E-03  8.702E-08  7.898E-08
:PTO012:     -1   -1   -5  3.59022501E-03  2.416E-07  2.633E-07

:ENE  : *WARNING** TOTAL ENERGY IN Ry =       -18472.08183955

