
:LABEL1: Calculations in /home/ykent/GWIEN/example/Pr/V11/case
:LABEL2: on didymium-2.cmpgroup.ameslab.gov at Wed Jul  8 16:01:20 CDT 2020
:LABEL3: using WIEN2k_19.1 (Release 25/6/2019) in /home/ykent/opt/src/WIEN2k_19.1
:LABEL4: using the command: run_lapw -cc 0.0001
 Flat Integration
 New Mode for Coulomb Integral
 Consistent 3/8+Simpson combinations
 Extension of core to zero
 LDM version in phi
 Fifth-order quadrature in outwin


            ---------
:ITE001:  1. ITERATION
            ---------

:NATO :    1 INDEPENDENT AND    1 TOTAL ATOMS IN UNITCELL
       SUBSTANCE: blebleble                                                   

       LATTICE                      = F   
:POT  : POTENTIAL OPTION EX_LDA EC_LDA VX_LDA VC_LDA
:LAT  : LATTICE CONSTANTS=  9.78725  9.78725  9.78725    1.571    1.571    1.571
:VOL  : UNIT CELL VOLUME =     234.38096
       MODE OF CALCULATION IS       = RELA
       NON-SPINPOLARIZED CALCULATION
:IFFT  : FFT-parameters:   80   80   80 Factor: 2.00


   CONVERGENCE PARAMETER FOR PSEUDOCHARGE: NCON=  9
   MAXIMAL VALUE OF RMT(JATOM)*ABSK(NKK) : RK  =29.89674


:VKCOUL :  VK-COUL convergence: 0.167E-05
       ATOMNUMBER=  1 Pr         VCOUL-ZERO =  0.25655E+00
:FIT001: LUSE= 13 SIGMA OF V-XC FIT FOR ATOM  1  0.1533707E-05
:FIT001: LUSE= 13 SIGMA OF V-XC FIT FOR ATOM  1  0.1533707E-05
:DEN  : DENSITY INTEGRAL  =         -7074.42750351   (Ry)
       ELS_POTENTIAL_AT Z=0 and Z=0.5:  -2.42586  -2.42586
       ELS_POTENTIAL_AT Y=0 and Y=0.5:   0.00000   0.00000
:VZERO:v0,v0c,v0x  -3.38848  -2.42586  -0.96262 v5,v5c,v5x  -3.38848  -2.42586  -0.96262
:VZERY:v0,v0c,v0x  -0.71305   0.00000  -0.71305 v5,v5c,v5x  -0.71305   0.00000  -0.71305
:VZERX:v0,v0c,v0x  -0.71305   0.00000  -0.71305 v5,v5c,v5x  -0.71305   0.00000  -0.71305
:LMAX-WF:   10   Non-Spherical LMAX:   4

          ATOMIC SPHERE DEPENDENT PARAMETERS FOR ATOM  Pr        
:e__0001: OVERALL ENERGY PARAMETER IS    0.3000
          OVERALL BASIS SET ON ATOM IS LAPW
:E0_0001: E( 0)=    0.3000
             APW+lo
:E0_0001: E( 0)=   -2.0636   E(BOTTOM)=   -2.447   E(TOP)=   -1.680  4  5   173
             LOCAL ORBITAL
:E1_0001: E( 1)=    0.7000
             APW+lo
:E1_0001: E( 1)=   -0.6779   E(BOTTOM)=   -1.328   E(TOP)=   -0.028  3  4   169
             LOCAL ORBITAL
:E3_0001: E( 3)=    0.6136   E(BOTTOM)=    0.470   E(TOP)=    0.758  0  1   129
             APW+lo
:E2_0001: E( 2)=    0.3000   E(BOTTOM)=    0.244   E(TOP)= -200.000  2 -1    88
             APW+lo

       K=   0.00000   0.00000   0.00000            1
:RKM  : MATRIX SIZE   189LOs:  20  RKM= 8.34  WEIGHT= 1.00  PGR:    
       EIGENVALUES ARE:
:EIG00001:      -2.0269218   -0.6569033   -0.6569033   -0.6569033    0.3385427
:EIG00006:       0.6042328    0.6262148    0.6262148    0.6262148    0.6541524
:EIG00011:       0.6541524    0.6541524    0.7258758    0.7258758    0.7258758
:EIG00016:       0.9075155    0.9075155    1.3093097    1.5413693    1.5413693
:EIG00021:       1.5413693    1.6440030
       ********************************************************

:KPT   :      NUMBER OF K-POINTS:   165
:GAP (global)   :    0.0    Ry =     0.0   eV (metal)
         Bandranges (emin - emax) and occupancy:
:BAN00001:   1   -2.026922   -2.010946  2.00000000
:BAN00002:   2   -0.750504   -0.656903  2.00000000
:BAN00003:   3   -0.717740   -0.656903  2.00000000
:BAN00004:   4   -0.691645   -0.656903  2.00000000
:BAN00005:   5    0.338543    0.569338  2.00000000
:BAN00006:   6    0.511012    0.612258  2.00000000
:BAN00007:   7    0.594254    0.631750  1.00000000
:BAN00008:   8    0.618751    0.634035  0.00000000
:BAN00009:   9    0.626215    0.637562  0.00000000
:BAN00010:  10    0.632917    0.654152  0.00000000
:BAN00011:  11    0.636673    0.654152  0.00000000
:BAN00012:  12    0.640493    0.656330  0.00000000
        Energy to separate low and high energystates:    0.28854


:NOE  : NUMBER OF ELECTRONS          =   13.000

:FER  : F E R M I - ENERGY(TETRAH.M.)=   0.6178022817
:GMA  : POTENTIAL AND CHARGE CUT-OFF  12.00 Ry**.5

:POS001: ATOM    1 X,Y,Z = 0.00000 0.00000 0.50000  MULT= 1  ZZ= 59.000  Pr        

       LMMAX  5
       LM=   0 0  4 0  4 4  6 0  6 4

:CHA001: TOTAL VALENCE CHARGE INSIDE SPHERE   1 =   9.7726    (RMT=  2.5000 )
:PCS001: PARTIAL CHARGES SPHERE =  1 S,P,D,F,      D-EG,D-T2G 
:QTL001: 2.0357 5.3613 0.7738 1.6013 0.0000 0.0000 0.0000 0.2714 0.5024 0.0000 0.0000 0.0000
        Q-s-low E-s-low   Q-p-low E-p-low   Q-d-low E-d-low   Q-f-low E-f-low
:EPL001:  1.9243 -2.0141    5.2697 -0.6962    0.0016 -0.7137    0.0005 -0.7156
        Q-s-hi  E-s-hi    Q-p-hi  E-p-hi    Q-d-hi  E-d-hi    Q-f-hi  E-f-hi 
:EPH001:  0.1114  0.4947    0.0916  0.5457    0.7722  0.5511    1.6009  0.5978

:CHA  : TOTAL VALENCE CHARGE INSIDE UNIT CELL =      13.000000

:SUM  : SUM OF EIGENVALUES =          -5.419625559


        1.ATOM      Pr                   14 CORE STATES
:1S 001: 1S               -3066.942726583 Ry
:2S 001: 2S                -492.708404116 Ry
:2PP001: 2P*               -465.806040183 Ry
:2P 001: 2P                -430.409236456 Ry
:3S 001: 3S                -105.805926958 Ry
:3PP001: 3P*                -94.343345204 Ry
:3P 001: 3P                 -87.335953512 Ry
:3DD001: 3D*                -67.262318780 Ry
:3D 001: 3D                 -65.750892312 Ry
:4S 001: 4S                 -20.491369654 Ry
:4PP001: 4P*                -16.198397344 Ry
:4P 001: 4P                 -14.671430835 Ry
:4DD001: 4D*                 -7.605298465 Ry
:4D 001: 4D                  -7.336060839 Ry
:CINT001 Core Integral Atom   1   45.999511

       DENSITY AT NUCLEUS
        JATOM        VALENCE       SEMI-CORE          CORE           TOTAL
:RTO001:   1      651.602157        0.000000   656820.847972   657472.450129
     
       CHARGES OF NEW CHARGE DENSITY
:NTO   : INTERSTITIAL CHARGE =     3.227442
:NPC   : PW Pseudocharge     =     7.777940
:NTO001: CHARGE SPHERE  1    =    55.772068

:NEC01: NUCLEAR AND ELECTRONIC CHARGE     59.00000    58.99951
     
       CHARGES OF OLD CHARGE DENSITY
:OTO   : INTERSTITIAL CHARGE =     2.876038
:OPC   : PW Pseudocharge     =     6.964392
:OTO001: CHARGE SPHERE  1    =    56.124626

:NEC02: NUCLEAR AND ELECTRONIC CHARGE     59.00000    59.00066
     
       CONVERGENCE TEST
:DTO001: DIFFERENCE IN SPHERE  1 =  0.6004464

:DIS  :  CHARGE DISTANCE       ( 0.6004464 for atom    1 spin 1)      0.6004464
 PW Mixed is           53
 
******************************************************
* MULTISECANT MIXING VER9 RELEASE 10.4.0              *
* Standard Mode with controls                        *
* Fixed density scale                                *
* Regularization       1.000E-04                     *
* Trust Upper Limit    5.000E+00                     *
* Max Number of Memory Steps    8                    *
******************************************************
 
:PWTMP   1.6893E+02  1.2500E+02  2.3438E+02
:PLANE:  PW TOTAL      2.7139 DISTAN   4.24E-01  1.56E+01 %
:CHARG:  CLM/ATOM    977.2579 DISTAN   7.79E-01  7.97E-02 %
 
Step History
        DMIX         DMIXT        Red     Pred      Trust     Lambda    MagRel    MagAbs     Beta
  1   3.5000E-02   3.5000E-02 -1.00E+00  1.00E+00 -1.00E+01  1.00E+00  3.50E-02  3.50E-02  1.00E+00
:INFO :  Note, Pratt in use
:TRUST:  Step 3.75E-02  Charge 7.50E-02 (e) CTO  2.50E-01 (e) PW  3.50E-01 (e)
:DIRM :  MEMORY  0/ 8 SCALE   1.000
Performing Pseudo Compensation
Final Pseudo Compensation Rescaling     1.00000E+00
:MIX  :   PRATT  REGULARIZATION:  1.00E-04 GREED: 0.02500                  
     
       CHARGES OF MIXED CHARGE DENSITY
:CTO   : INTERSTITIAL CHARGE =     2.884187
:CPC   : PW Pseudocharge     =     7.531979
:CTO001: CHARGE SPHERE  1    =    56.115813

:NEC03: NUCLEAR AND ELECTRONIC CHARGE     59.00000    59.00000

PW CHANGE     H    K    L      Current       Change    Residue
:PTO001:      0    0    0  4.44411826E-02  2.466E-03  4.987E-03
:PTO002:     -1   -1   -1 -1.33927031E-01 -1.403E-02 -1.686E-02
:PTO003:      0    0   -2  7.91043199E-02  9.394E-03  1.009E-02
:PTO004:      0   -2   -2  6.32084127E-02  1.192E-02  1.561E-02
:PTO005:     -1   -1   -3 -5.96829509E-02 -1.628E-02 -1.613E-02
:PTO006:     -2   -2   -2  1.50933661E-02  4.754E-03  4.523E-03
:PTO007:      0    0   -4  2.71317107E-03  1.988E-03  9.058E-04
:PTO008:     -1   -3   -3  1.02743884E-04 -4.868E-03 -4.434E-03
:PTO009:      0   -2   -4 -2.21449601E-03  4.007E-03  2.869E-03
:PTO010:     -2   -2   -4 -6.06428104E-03  1.467E-03 -1.775E-04
:PTO011:     -3   -3   -3  2.10977908E-03 -8.124E-05  6.453E-04
:PTO012:     -1   -1   -5  6.32973443E-03 -2.433E-04  1.952E-03

:ENE  : ********** TOTAL ENERGY IN Ry =       -18472.09822025

 Flat Integration
 New Mode for Coulomb Integral
 Consistent 3/8+Simpson combinations
 Extension of core to zero
 LDM version in phi
 Fifth-order quadrature in outwin


            ---------
:ITE002:  2. ITERATION
            ---------

:NATO :    1 INDEPENDENT AND    1 TOTAL ATOMS IN UNITCELL
       SUBSTANCE: blebleble                                                   

       LATTICE                      = F   
:POT  : POTENTIAL OPTION EX_LDA EC_LDA VX_LDA VC_LDA
:LAT  : LATTICE CONSTANTS=  9.78725  9.78725  9.78725    1.571    1.571    1.571
:VOL  : UNIT CELL VOLUME =     234.38096
       MODE OF CALCULATION IS       = RELA
       NON-SPINPOLARIZED CALCULATION
:IFFT  : FFT-parameters:   80   80   80 Factor: 2.00


   CONVERGENCE PARAMETER FOR PSEUDOCHARGE: NCON=  9
   MAXIMAL VALUE OF RMT(JATOM)*ABSK(NKK) : RK  =29.89674


:VKCOUL :  VK-COUL convergence: 0.443E-07
       ATOMNUMBER=  1 Pr         VCOUL-ZERO =  0.26377E+00
:FIT001: LUSE= 13 SIGMA OF V-XC FIT FOR ATOM  1  0.1575084E-05
:FIT001: LUSE= 13 SIGMA OF V-XC FIT FOR ATOM  1  0.1575084E-05
:DEN  : DENSITY INTEGRAL  =         -7073.88372851   (Ry)
       ELS_POTENTIAL_AT Z=0 and Z=0.5:  -2.48028  -2.48028
       ELS_POTENTIAL_AT Y=0 and Y=0.5:   0.00000   0.00000
:VZERO:v0,v0c,v0x  -3.46609  -2.48028  -0.98580 v5,v5c,v5x  -3.46609  -2.48028  -0.98580
:VZERY:v0,v0c,v0x  -0.71828   0.00000  -0.71828 v5,v5c,v5x  -0.71828   0.00000  -0.71828
:VZERX:v0,v0c,v0x  -0.71828   0.00000  -0.71828 v5,v5c,v5x  -0.71828   0.00000  -0.71828
:LMAX-WF:   10   Non-Spherical LMAX:   4

          ATOMIC SPHERE DEPENDENT PARAMETERS FOR ATOM  Pr        
:e__0001: OVERALL ENERGY PARAMETER IS    0.3785
          OVERALL BASIS SET ON ATOM IS LAPW
:E0_0001: E( 0)=    0.3785
             APW+lo
:E0_0001: E( 0)=   -2.0631   E(BOTTOM)=   -2.446   E(TOP)=   -1.681  4  5   173
             LOCAL ORBITAL
:E1_0001: E( 1)=    0.7785
             APW+lo
:E1_0001: E( 1)=   -0.6764   E(BOTTOM)=   -1.325   E(TOP)=   -0.028  3  4   168
             LOCAL ORBITAL
:E3_0001: E( 3)=    0.6090   E(BOTTOM)=    0.466   E(TOP)=    0.752  0  1   125
             APW+lo
:E2_0001: E( 2)=    0.3785   E(BOTTOM)=    0.248   E(TOP)= -200.000  2 -1    93
             APW+lo

       K=   0.00000   0.00000   0.00000            1
:RKM  : MATRIX SIZE   189LOs:  20  RKM= 8.34  WEIGHT= 1.00  PGR:    
       EIGENVALUES ARE:
:EIG00001:      -2.0262911   -0.6549901   -0.6549901   -0.6549901    0.3453258
:EIG00006:       0.6008414    0.6220183    0.6220183    0.6220183    0.6491681
:EIG00011:       0.6491681    0.6491681    0.7314292    0.7314292    0.7314292
:EIG00016:       0.9123136    0.9123136    1.3148506    1.5476841    1.5476841
:EIG00021:       1.5476841    1.6518425
       ********************************************************

:KPT   :      NUMBER OF K-POINTS:   165
:GAP (global)   :    0.0    Ry =     0.0   eV (metal)
         Bandranges (emin - emax) and occupancy:
:BAN00001:   1   -2.026291   -2.010457  2.00000000
:BAN00002:   2   -0.747840   -0.654990  2.00000000
:BAN00003:   3   -0.715333   -0.654990  2.00000000
:BAN00004:   4   -0.689450   -0.654990  2.00000000
:BAN00005:   5    0.345326    0.573224  2.00000000
:BAN00006:   6    0.517238    0.613302  2.00000000
:BAN00007:   7    0.594442    0.627320  1.00000000
:BAN00008:   8    0.615878    0.629911  0.00000000
:BAN00009:   9    0.622018    0.633535  0.00000000
:BAN00010:  10    0.628765    0.649168  0.00000000
:BAN00011:  11    0.632285    0.649168  0.00000000
:BAN00012:  12    0.635896    0.652837  0.00000000
        Energy to separate low and high energystates:    0.29533


:NOE  : NUMBER OF ELECTRONS          =   13.000

:FER  : F E R M I - ENERGY(TETRAH.M.)=   0.6151031649
:GMA  : POTENTIAL AND CHARGE CUT-OFF  12.00 Ry**.5

:POS001: ATOM    1 X,Y,Z = 0.00000 0.00000 0.50000  MULT= 1  ZZ= 59.000  Pr        

       LMMAX  5
       LM=   0 0  4 0  4 4  6 0  6 4

:CHA001: TOTAL VALENCE CHARGE INSIDE SPHERE   1 =   9.8780    (RMT=  2.5000 )
:PCS001: PARTIAL CHARGES SPHERE =  1 S,P,D,F,      D-EG,D-T2G 
:QTL001: 2.0347 5.3580 0.7308 1.7541 0.0000 0.0000 0.0000 0.2572 0.4736 0.0000 0.0000 0.0000
        Q-s-low E-s-low   Q-p-low E-p-low   Q-d-low E-d-low   Q-f-low E-f-low
:EPL001:  1.9248 -2.0136    5.2741 -0.6940    0.0016 -0.7115    0.0005 -0.7134
        Q-s-hi  E-s-hi    Q-p-hi  E-p-hi    Q-d-hi  E-d-hi    Q-f-hi  E-f-hi 
:EPH001:  0.1099  0.4993    0.0839  0.5460    0.7292  0.5529    1.7537  0.5968

:CHA  : TOTAL VALENCE CHARGE INSIDE UNIT CELL =      13.000000

:SUM  : SUM OF EIGENVALUES =          -5.391689701


        1.ATOM      Pr                   14 CORE STATES
:1S 001: 1S               -3066.958202735 Ry
:2S 001: 2S                -492.723474476 Ry
:2PP001: 2P*               -465.821166999 Ry
:2P 001: 2P                -430.424338484 Ry
:3S 001: 3S                -105.820145556 Ry
:3PP001: 3P*                -94.357628140 Ry
:3P 001: 3P                 -87.350136366 Ry
:3DD001: 3D*                -67.276689949 Ry
:3D 001: 3D                 -65.765236800 Ry
:4S 001: 4S                 -20.501136230 Ry
:4PP001: 4P*                -16.207899408 Ry
:4P 001: 4P                 -14.680518991 Ry
:4DD001: 4D*                 -7.613650119 Ry
:4D 001: 4D                  -7.344270597 Ry
:CINT001 Core Integral Atom   1   45.999515

       DENSITY AT NUCLEUS
        JATOM        VALENCE       SEMI-CORE          CORE           TOTAL
:RTO001:   1      651.949304        0.000000   656821.841153   657473.790456
     
       CHARGES OF NEW CHARGE DENSITY
:NTO   : INTERSTITIAL CHARGE =     3.122047
:NPC   : PW Pseudocharge     =     7.738437
:NTO001: CHARGE SPHERE  1    =    55.877466

:NEC01: NUCLEAR AND ELECTRONIC CHARGE     59.00000    58.99951
     
       CHARGES OF OLD CHARGE DENSITY
:OTO   : INTERSTITIAL CHARGE =     2.884187
:OPC   : PW Pseudocharge     =     7.531979
:OTO001: CHARGE SPHERE  1    =    56.115813

:NEC02: NUCLEAR AND ELECTRONIC CHARGE     59.00000    59.00000
     
       CONVERGENCE TEST
:DTO001: DIFFERENCE IN SPHERE  1 =  0.4024360

:DIS  :  CHARGE DISTANCE       ( 0.4024360 for atom    1 spin 1)      0.4024360
 PW Mixed is           53
 
******************************************************
* MULTISECANT MIXING VER9 RELEASE 10.4.0              *
* Slow Mode, cautious                                *
* Fixed density scale                                *
* Regularization       1.000E-04                     *
* Step Trust Radius    0.75000                       *
* Trust Upper Limit    2.000E+00                     *
* Max Number of Memory Steps   12                    *
******************************************************
 
:PWTMP   1.6893E+02  1.2500E+02  2.3438E+02
:PLANE:  PW TOTAL      3.0128 DISTAN   1.02E-01  3.40E+00 %
:CHARG:  CLM/ATOM    977.2549 DISTAN   6.45E-01  6.60E-02 %
 
Step History
        DMIX         DMIXT        Red     Pred      Trust     Lambda    MagRel    MagAbs     Beta
  1   3.5000E-02   3.5000E-02 -1.00E+00  1.00E+00 -1.00E+01  1.00E+00  3.50E-02  3.50E-02  1.00E+00
  2   2.5000E-02   2.5000E-02 -1.00E+00  1.00E+00 -1.00E+01  1.00E+00  2.50E-02  2.22E-02  1.00E+00
:JACOBIANS    3.673E-01   9.575E-03
  
:TRUST:  Step 3.12E-02  Charge 7.50E-02 (e) CTO  2.50E-01 (e) PW  3.50E-01 (e)
:DIRM :  MEMORY  1/12 SCALE   1.000
:MIX  :   PRATT  REGULARIZATION:  1.00E-04 GREED: 0.03115  Expand 1.25  0.0312                
     
       CHARGES OF MIXED CHARGE DENSITY
:CTO   : INTERSTITIAL CHARGE =     2.889585
:CPC   : PW Pseudocharge     =     7.880541
:CTO001: CHARGE SPHERE  1    =    56.110415

:NEC03: NUCLEAR AND ELECTRONIC CHARGE     59.00000    59.00000

PW CHANGE     H    K    L      Current       Change    Residue
:PTO001:      0    0    0  4.59513703E-02  1.510E-03  1.903E-03
:PTO002:     -1   -1   -1 -1.42518542E-01 -8.592E-03 -2.841E-03
:PTO003:      0    0   -2  8.48570593E-02  5.753E-03  8.191E-04
:PTO004:      0   -2   -2  7.05074948E-02  7.299E-03  3.660E-03
:PTO005:     -1   -1   -3 -6.96510921E-02 -9.968E-03 -5.698E-05
:PTO006:     -2   -2   -2  1.80045906E-02  2.911E-03 -1.837E-04
:PTO007:      0    0   -4  3.93057400E-03  1.217E-03 -1.010E-03
:PTO008:     -1   -3   -3 -2.87829884E-03 -2.981E-03  3.675E-04
:PTO009:      0   -2   -4  2.39238975E-04  2.454E-03 -1.025E-03
:PTO010:     -2   -2   -4 -5.16564072E-03  8.986E-04 -1.579E-03
:PTO011:     -3   -3   -3  2.06002921E-03 -4.975E-05  7.164E-04
:PTO012:     -1   -1   -5  6.18072805E-03 -1.490E-04  2.101E-03

:ENE  : ********** TOTAL ENERGY IN Ry =       -18472.09310532

 Flat Integration
 New Mode for Coulomb Integral
 Consistent 3/8+Simpson combinations
 Extension of core to zero
 LDM version in phi
 Fifth-order quadrature in outwin


            ---------
:ITE003:  3. ITERATION
            ---------

:NATO :    1 INDEPENDENT AND    1 TOTAL ATOMS IN UNITCELL
       SUBSTANCE: blebleble                                                   

       LATTICE                      = F   
:POT  : POTENTIAL OPTION EX_LDA EC_LDA VX_LDA VC_LDA
:LAT  : LATTICE CONSTANTS=  9.78725  9.78725  9.78725    1.571    1.571    1.571
:VOL  : UNIT CELL VOLUME =     234.38096
       MODE OF CALCULATION IS       = RELA
       NON-SPINPOLARIZED CALCULATION
:IFFT  : FFT-parameters:   80   80   80 Factor: 2.00


   CONVERGENCE PARAMETER FOR PSEUDOCHARGE: NCON=  9
   MAXIMAL VALUE OF RMT(JATOM)*ABSK(NKK) : RK  =29.89674


:VKCOUL :  VK-COUL convergence: 0.435E-07
       ATOMNUMBER=  1 Pr         VCOUL-ZERO =  0.26821E+00
:FIT001: LUSE= 13 SIGMA OF V-XC FIT FOR ATOM  1  0.1613285E-05
:FIT001: LUSE= 13 SIGMA OF V-XC FIT FOR ATOM  1  0.1613285E-05
:DEN  : DENSITY INTEGRAL  =         -7073.55233137   (Ry)
       ELS_POTENTIAL_AT Z=0 and Z=0.5:  -2.51396  -2.51396
       ELS_POTENTIAL_AT Y=0 and Y=0.5:   0.00000   0.00000
:VZERO:v0,v0c,v0x  -3.51298  -2.51396  -0.99902 v5,v5c,v5x  -3.51298  -2.51396  -0.99902
:VZERY:v0,v0c,v0x  -0.72134   0.00000  -0.72134 v5,v5c,v5x  -0.72134   0.00000  -0.72134
:VZERX:v0,v0c,v0x  -0.72134   0.00000  -0.72134 v5,v5c,v5x  -0.72134   0.00000  -0.72134
:LMAX-WF:   10   Non-Spherical LMAX:   4

          ATOMIC SPHERE DEPENDENT PARAMETERS FOR ATOM  Pr        
:e__0001: OVERALL ENERGY PARAMETER IS    0.4029
          OVERALL BASIS SET ON ATOM IS LAPW
:E0_0001: E( 0)=    0.4029
             APW+lo
:E0_0001: E( 0)=   -2.0628   E(BOTTOM)=   -2.445   E(TOP)=   -1.681  4  5   171
             LOCAL ORBITAL
:E1_0001: E( 1)=    0.8029
             APW+lo
:E1_0001: E( 1)=   -0.6755   E(BOTTOM)=   -1.323   E(TOP)=   -0.028  3  4   175
             LOCAL ORBITAL
:E3_0001: E( 3)=    0.6062   E(BOTTOM)=    0.464   E(TOP)=    0.748  0  1   108
             APW+lo
:E2_0001: E( 2)=    0.4029   E(BOTTOM)=    0.251   E(TOP)= -200.000  2 -1    86
             APW+lo

       K=   0.00000   0.00000   0.00000            1
:RKM  : MATRIX SIZE   189LOs:  20  RKM= 8.34  WEIGHT= 1.00  PGR:    
       EIGENVALUES ARE:
:EIG00001:      -2.0258811   -0.6537902   -0.6537902   -0.6537902    0.3495435
:EIG00006:       0.5987555    0.6194524    0.6194524    0.6194524    0.6461301
:EIG00011:       0.6461301    0.6461301    0.7348843    0.7348843    0.7348843
:EIG00016:       0.9153245    0.9153245    1.3183364    1.5516323    1.5516323
:EIG00021:       1.5516323    1.6567250
       ********************************************************

:KPT   :      NUMBER OF K-POINTS:   165
:GAP (global)   :    0.0    Ry =     0.0   eV (metal)
         Bandranges (emin - emax) and occupancy:
:BAN00001:   1   -2.025881   -2.010134  2.00000000
:BAN00002:   2   -0.746178   -0.653790  2.00000000
:BAN00003:   3   -0.713830   -0.653790  2.00000000
:BAN00004:   4   -0.688078   -0.653790  2.00000000
:BAN00005:   5    0.349543    0.575375  2.00000000
:BAN00006:   6    0.521101    0.612351  2.00000000
:BAN00007:   7    0.594323    0.624615  1.00000000
:BAN00008:   8    0.614116    0.627368  0.00000000
:BAN00009:   9    0.619452    0.631037  0.00000000
:BAN00010:  10    0.626471    0.646130  0.00000000
:BAN00011:  11    0.629600    0.646130  0.00000000
:BAN00012:  12    0.633091    0.650880  0.00000000
        Energy to separate low and high energystates:    0.29954


:NOE  : NUMBER OF ELECTRONS          =   13.000

:FER  : F E R M I - ENERGY(TETRAH.M.)=   0.6133368337
:GMA  : POTENTIAL AND CHARGE CUT-OFF  12.00 Ry**.5

:POS001: ATOM    1 X,Y,Z = 0.00000 0.00000 0.50000  MULT= 1  ZZ= 59.000  Pr        

       LMMAX  5
       LM=   0 0  4 0  4 4  6 0  6 4

:CHA001: TOTAL VALENCE CHARGE INSIDE SPHERE   1 =   9.9460    (RMT=  2.5000 )
:PCS001: PARTIAL CHARGES SPHERE =  1 S,P,D,F,      D-EG,D-T2G 
:QTL001: 2.0339 5.3559 0.7030 1.8527 0.0000 0.0000 0.0000 0.2481 0.4550 0.0000 0.0000 0.0000
        Q-s-low E-s-low   Q-p-low E-p-low   Q-d-low E-d-low   Q-f-low E-f-low
:EPL001:  1.9250 -2.0133    5.2768 -0.6926    0.0016 -0.7101    0.0005 -0.7120
        Q-s-hi  E-s-hi    Q-p-hi  E-p-hi    Q-d-hi  E-d-hi    Q-f-hi  E-f-hi 
:EPH001:  0.1089  0.5021    0.0791  0.5460    0.7015  0.5539    1.8523  0.5960

:CHA  : TOTAL VALENCE CHARGE INSIDE UNIT CELL =      13.000000

:SUM  : SUM OF EIGENVALUES =          -5.375012307


        1.ATOM      Pr                   14 CORE STATES
:1S 001: 1S               -3066.967657408 Ry
:2S 001: 2S                -492.732680653 Ry
:2PP001: 2P*               -465.830407747 Ry
:2P 001: 2P                -430.433564053 Ry
:3S 001: 3S                -105.828830130 Ry
:3PP001: 3P*                -94.366352114 Ry
:3P 001: 3P                 -87.358799053 Ry
:3DD001: 3D*                -67.285467960 Ry
:3D 001: 3D                 -65.773998472 Ry
:4S 001: 4S                 -20.507094790 Ry
:4PP001: 4P*                -16.213696109 Ry
:4P 001: 4P                 -14.686062305 Ry
:4DD001: 4D*                 -7.618743007 Ry
:4D 001: 4D                  -7.349276644 Ry
:CINT001 Core Integral Atom   1   45.999517

       DENSITY AT NUCLEUS
        JATOM        VALENCE       SEMI-CORE          CORE           TOTAL
:RTO001:   1      652.124814        0.000000   656822.449245   657474.574059
     
       CHARGES OF NEW CHARGE DENSITY
:NTO   : INTERSTITIAL CHARGE =     3.054028
:NPC   : PW Pseudocharge     =     7.713025
:NTO001: CHARGE SPHERE  1    =    55.945488

:NEC01: NUCLEAR AND ELECTRONIC CHARGE     59.00000    58.99952
     
       CHARGES OF OLD CHARGE DENSITY
:OTO   : INTERSTITIAL CHARGE =     2.889585
:OPC   : PW Pseudocharge     =     7.880541
:OTO001: CHARGE SPHERE  1    =    56.110415

:NEC02: NUCLEAR AND ELECTRONIC CHARGE     59.00000    59.00000
     
       CONVERGENCE TEST
:DTO001: DIFFERENCE IN SPHERE  1 =  0.2773931

:DIS  :  CHARGE DISTANCE       ( 0.2773931 for atom    1 spin 1)      0.2773931
 PW Mixed is           53
 
******************************************************
* MULTISECANT MIXING VER9 RELEASE 10.4.0              *
* Slow Mode, cautious                                *
* Fixed density scale                                *
* Regularization       1.000E-04                     *
* Step Trust Radius    0.75000                       *
* Trust Upper Limit    2.000E+00                     *
* Max Number of Memory Steps   12                    *
******************************************************
 
:PWTMP   1.6893E+02  1.2500E+02  2.3438E+02
:PLANE:  PW TOTAL      3.2001 DISTAN   1.63E-01  5.09E+00 %
:CHARG:  CLM/ATOM    977.2530 DISTAN   5.77E-01  5.90E-02 %
 
Step History
        DMIX         DMIXT        Red     Pred      Trust     Lambda    MagRel    MagAbs     Beta
  1   3.5000E-02   3.5000E-02 -1.00E+00  1.00E+00 -1.00E+01  1.00E+00  3.50E-02  3.50E-02  1.00E+00
  2   2.5000E-02   2.5000E-02  7.37E-01  1.00E+00 -1.00E+01  1.00E+00  2.50E-02  2.22E-02  1.00E+00
  3   3.1154E-02   3.1154E-02 -1.00E+00  1.00E+00 -1.00E+01  1.00E+00  3.12E-02  2.04E-02  1.00E+00
:JACOBIANS    5.737E-01   1.387E-02
  
:NORMS:  1/Froebius, Min, Max, Used   0.8443E+00  0.4374E+00  0.8748E+00  0.8444E+00
:INFO :  Number of Memory Steps    2 Skipping    0
:INFO :  SLambda=    0.0792753731  Max    0.0792753731
:PREDicted Charge, CTotal, PW Trust    3.643E-03   3.643E-03   1.274E-01
:PREDicted DMix, Beta, BLim   2.0086E-02  6.5924E-01  2.9759E-01

Eigenvalues, unscaled except for SY+YY
   #     SY Real        SY Imag          SS             YY         SY+YY Real      SY+YY Imag
   1   1.480254E+00   0.000000E+00   1.425829E+00   1.999843E+00   2.117189E+00   0.000000E+00
   2  -9.436896E-15   0.000000E+00  -1.110223E-16   1.570830E-04   1.586661E-04   0.000000E+00
 
:INFO :  Singular value  2.117E+00 Weight  1.000E+00 Projection  8.787E-04
:INFO :  Singular value  1.587E-04 Weight  3.863E-01 Projection -1.512E+01
:RANK :  ACTIVE   1.39/2  =  69.32 % ; YY RANK   1.38/2  =  69.08 %
 
:DLIM :  Beta Active  8.000E-01
:BLIM :  VZERO Control Off
:TRUST:  Step 2.11E-01  Charge 7.50E-02 (e) CTO  2.50E-01 (e) PW  3.50E-01 (e)
:DIRM :  MEMORY  2/12 SCALE   1.000 RED  0.92 PRED  1.00 NEXT  0.81 BETA  0.80
:TRAVE:  Charge 9.62E-04 (e) CTO  9.62E-04 (e) PW  5.21E-02 (e)
:DIRP :  |MSR1|= 6.025E-02 |PRATT|= 1.629E-01 ANGLE=  23.1 DEGREES
:DIRQ :  |MSR1|= 8.698E-03 |PRATT|= 5.766E-01 ANGLE=  24.0 DEGREES
:DIRT :  |MSR1|= 6.087E-02 |PRATT|= 5.992E-01 ANGLE=  68.1 DEGREES
:MIX  :   MSD1   REGULARIZATION:  2.00E-04 GREED: 0.02533  Newton 1.00  0.1016                
     
       CHARGES OF MIXED CHARGE DENSITY
:CTO   : INTERSTITIAL CHARGE =     2.890547
:CPC   : PW Pseudocharge     =     7.781805
:CTO001: CHARGE SPHERE  1    =    56.109453

:NEC03: NUCLEAR AND ELECTRONIC CHARGE     59.00000    59.00000

PW CHANGE     H    K    L      Current       Change    Residue
:PTO001:      0    0    0  4.55342097E-02 -4.172E-04 -5.837E-06
:PTO002:     -1   -1   -1 -1.40059904E-01  2.459E-03  5.742E-03
:PTO003:      0    0   -2  8.31871194E-02 -1.670E-03 -4.853E-03
:PTO004:      0   -2   -2  6.84462212E-02 -2.061E-03 -3.661E-03
:PTO005:     -1   -1   -3 -6.67228496E-02  2.928E-03  9.776E-03
:PTO006:     -2   -2   -2  1.71466812E-02 -8.579E-04 -3.060E-03
:PTO007:      0    0   -4  3.54977724E-03 -3.808E-04 -2.179E-03
:PTO008:     -1   -3   -3 -1.98983373E-03  8.885E-04  3.309E-03
:PTO009:      0   -2   -4 -5.08832685E-04 -7.481E-04 -3.409E-03
:PTO010:     -2   -2   -4 -5.46716492E-03 -3.015E-04 -2.434E-03
:PTO011:     -3   -3   -3  2.09088891E-03  3.086E-05  7.573E-04
:PTO012:     -1   -1   -5  6.27226978E-03  9.154E-05  2.185E-03

:ENE  : ********** TOTAL ENERGY IN Ry =       -18472.09097779

 Flat Integration
 New Mode for Coulomb Integral
 Consistent 3/8+Simpson combinations
 Extension of core to zero
 LDM version in phi
 Fifth-order quadrature in outwin


            ---------
:ITE004:  4. ITERATION
            ---------

:NATO :    1 INDEPENDENT AND    1 TOTAL ATOMS IN UNITCELL
       SUBSTANCE: blebleble                                                   

       LATTICE                      = F   
:POT  : POTENTIAL OPTION EX_LDA EC_LDA VX_LDA VC_LDA
:LAT  : LATTICE CONSTANTS=  9.78725  9.78725  9.78725    1.571    1.571    1.571
:VOL  : UNIT CELL VOLUME =     234.38096
       MODE OF CALCULATION IS       = RELA
       NON-SPINPOLARIZED CALCULATION
:IFFT  : FFT-parameters:   80   80   80 Factor: 2.00


   CONVERGENCE PARAMETER FOR PSEUDOCHARGE: NCON=  9
   MAXIMAL VALUE OF RMT(JATOM)*ABSK(NKK) : RK  =29.89674


:VKCOUL :  VK-COUL convergence: 0.411E-07
       ATOMNUMBER=  1 Pr         VCOUL-ZERO =  0.26696E+00
:FIT001: LUSE= 13 SIGMA OF V-XC FIT FOR ATOM  1  0.1689106E-05
:FIT001: LUSE= 13 SIGMA OF V-XC FIT FOR ATOM  1  0.1689106E-05
:DEN  : DENSITY INTEGRAL  =         -7073.38224300   (Ry)
       ELS_POTENTIAL_AT Z=0 and Z=0.5:  -2.50610  -2.50610
       ELS_POTENTIAL_AT Y=0 and Y=0.5:   0.00000   0.00000
:VZERO:v0,v0c,v0x  -3.50117  -2.50610  -0.99507 v5,v5c,v5x  -3.50117  -2.50610  -0.99507
:VZERY:v0,v0c,v0x  -0.72062   0.00000  -0.72062 v5,v5c,v5x  -0.72062   0.00000  -0.72062
:VZERX:v0,v0c,v0x  -0.72062   0.00000  -0.72062 v5,v5c,v5x  -0.72062   0.00000  -0.72062
:LMAX-WF:   10   Non-Spherical LMAX:   4

          ATOMIC SPHERE DEPENDENT PARAMETERS FOR ATOM  Pr        
:e__0001: OVERALL ENERGY PARAMETER IS    0.4099
          OVERALL BASIS SET ON ATOM IS LAPW
:E0_0001: E( 0)=    0.4099
             APW+lo
:E0_0001: E( 0)=   -2.0648   E(BOTTOM)=   -2.446   E(TOP)=   -1.683  4  5   174
             LOCAL ORBITAL
:E1_0001: E( 1)=    0.8099
             APW+lo
:E1_0001: E( 1)=   -0.6774   E(BOTTOM)=   -1.325   E(TOP)=   -0.030  3  4   168
             LOCAL ORBITAL
:E3_0001: E( 3)=    0.6037   E(BOTTOM)=    0.462   E(TOP)=    0.745  0  1   118
             APW+lo
:E2_0001: E( 2)=    0.4099   E(BOTTOM)=    0.249   E(TOP)= -200.000  2 -1    91
             APW+lo

       K=   0.00000   0.00000   0.00000            1
:RKM  : MATRIX SIZE   189LOs:  20  RKM= 8.34  WEIGHT= 1.00  PGR:    
       EIGENVALUES ARE:
:EIG00001:      -2.0278689   -0.6556388   -0.6556388   -0.6556388    0.3482808
:EIG00006:       0.5964574    0.6170271    0.6170271    0.6170271    0.6436441
:EIG00011:       0.6436441    0.6436441    0.7334821    0.7334821    0.7334821
:EIG00016:       0.9138127    0.9138127    1.3169691    1.5503261    1.5503261
:EIG00021:       1.5503261    1.6555254
       ********************************************************

:KPT   :      NUMBER OF K-POINTS:   165
:GAP (global)   :    0.0    Ry =     0.0   eV (metal)
         Bandranges (emin - emax) and occupancy:
:BAN00001:   1   -2.027869   -2.012138  2.00000000
:BAN00002:   2   -0.747938   -0.655639  2.00000000
:BAN00003:   3   -0.715621   -0.655639  2.00000000
:BAN00004:   4   -0.689893   -0.655639  2.00000000
:BAN00005:   5    0.348281    0.573724  2.00000000
:BAN00006:   6    0.519773    0.610125  2.00000000
:BAN00007:   7    0.592292    0.622184  1.00000000
:BAN00008:   8    0.611837    0.624949  0.00000000
:BAN00009:   9    0.617027    0.628665  0.00000000
:BAN00010:  10    0.624119    0.643644  0.00000000
:BAN00011:  11    0.627156    0.643644  0.00000000
:BAN00012:  12    0.630631    0.648579  0.00000000
        Energy to separate low and high energystates:    0.29828


:NOE  : NUMBER OF ELECTRONS          =   13.000

:FER  : F E R M I - ENERGY(TETRAH.M.)=   0.6110508080
:GMA  : POTENTIAL AND CHARGE CUT-OFF  12.00 Ry**.5

:POS001: ATOM    1 X,Y,Z = 0.00000 0.00000 0.50000  MULT= 1  ZZ= 59.000  Pr        

       LMMAX  5
       LM=   0 0  4 0  4 4  6 0  6 4

:CHA001: TOTAL VALENCE CHARGE INSIDE SPHERE   1 =   9.9576    (RMT=  2.5000 )
:PCS001: PARTIAL CHARGES SPHERE =  1 S,P,D,F,      D-EG,D-T2G 
:QTL001: 2.0338 5.3556 0.6984 1.8695 0.0000 0.0000 0.0000 0.2466 0.4518 0.0000 0.0000 0.0000
        Q-s-low E-s-low   Q-p-low E-p-low   Q-d-low E-d-low   Q-f-low E-f-low
:EPL001:  1.9251 -2.0153    5.2773 -0.6944    0.0016 -0.7119    0.0005 -0.7138
        Q-s-hi  E-s-hi    Q-p-hi  E-p-hi    Q-d-hi  E-d-hi    Q-f-hi  E-f-hi 
:EPH001:  0.1087  0.5006    0.0783  0.5440    0.6968  0.5521    1.8690  0.5939

:CHA  : TOTAL VALENCE CHARGE INSIDE UNIT CELL =      13.000000

:SUM  : SUM OF EIGENVALUES =          -5.398570934


        1.ATOM      Pr                   14 CORE STATES
:1S 001: 1S               -3066.971493771 Ry
:2S 001: 2S                -492.736215838 Ry
:2PP001: 2P*               -465.833982579 Ry
:2P 001: 2P                -430.437121505 Ry
:3S 001: 3S                -105.832119366 Ry
:3PP001: 3P*                -94.369655790 Ry
:3P 001: 3P                 -87.362086492 Ry
:3DD001: 3D*                -67.288784999 Ry
:3D 001: 3D                 -65.777310502 Ry
:4S 001: 4S                 -20.509982273 Ry
:4PP001: 4P*                -16.216565810 Ry
:4P 001: 4P                 -14.688902482 Ry
:4DD001: 4D*                 -7.621526898 Ry
:4D 001: 4D                  -7.352049917 Ry
:CINT001 Core Integral Atom   1   45.999517

       DENSITY AT NUCLEUS
        JATOM        VALENCE       SEMI-CORE          CORE           TOTAL
:RTO001:   1      652.150880        0.000000   656822.583484   657474.734364
     
       CHARGES OF NEW CHARGE DENSITY
:NTO   : INTERSTITIAL CHARGE =     3.042383
:NPC   : PW Pseudocharge     =     7.708880
:NTO001: CHARGE SPHERE  1    =    55.957134

:NEC01: NUCLEAR AND ELECTRONIC CHARGE     59.00000    58.99952
     
       CHARGES OF OLD CHARGE DENSITY
:OTO   : INTERSTITIAL CHARGE =     2.890547
:OPC   : PW Pseudocharge     =     7.781805
:OTO001: CHARGE SPHERE  1    =    56.109453

:NEC02: NUCLEAR AND ELECTRONIC CHARGE     59.00000    59.00000
     
       CONVERGENCE TEST
:DTO001: DIFFERENCE IN SPHERE  1 =  0.2565734

:DIS  :  CHARGE DISTANCE       ( 0.2565734 for atom    1 spin 1)      0.2565734
 PW Mixed is           53
 
******************************************************
* MULTISECANT MIXING VER9 RELEASE 10.4.0              *
* Slow Mode, cautious                                *
* Fixed density scale                                *
* Regularization       1.000E-04                     *
* Step Trust Radius    0.75000                       *
* Trust Upper Limit    2.000E+00                     *
* Max Number of Memory Steps   12                    *
******************************************************
 
:PWTMP   1.6893E+02  1.2500E+02  2.3438E+02
:PLANE:  PW TOTAL      3.1464 DISTAN   1.09E-01  3.47E+00 %
:CHARG:  CLM/ATOM    977.2514 DISTAN   5.61E-01  5.74E-02 %
 
Step History
        DMIX         DMIXT        Red     Pred      Trust     Lambda    MagRel    MagAbs     Beta
  1   3.5000E-02   3.5000E-02 -1.00E+00  1.00E+00 -1.00E+01  1.00E+00  3.50E-02  3.50E-02  1.00E+00
  2   2.5000E-02   2.5000E-02  7.37E-01  1.00E+00 -1.00E+01  1.00E+00  2.50E-02  2.22E-02  1.00E+00
  3   3.1154E-02   3.1154E-02  9.17E-01  1.00E+00 -1.00E+01  7.93E-02  3.12E-02  2.04E-02  1.00E+00
  4   2.5331E-02   2.5331E-02 -1.00E+00  8.06E-01  2.11E-01  1.00E+00  1.02E-01  6.09E-02  8.00E-01
:JACOBIANS    7.841E-01   4.620E-02
  
:NORMS:  1/Froebius, Min, Max, Used   0.8240E+00  0.3508E+00  0.9986E+00  0.9246E+00
:INFO :  Number of Memory Steps    3 Skipping    0
:INFO :  SLambda=    1.4799079573  Max    1.4799079573
:PREDicted Charge, CTotal, PW Trust    1.794E-02   1.794E-02   1.568E-01
:PREDicted DMix, Beta, BLim   1.1120E-01  3.3010E+00  2.9292E-01

Eigenvalues, unscaled except for SY+YY
   #     SY Real        SY Imag          SS             YY         SY+YY Real      SY+YY Imag
   1   2.040750E+00   0.000000E+00   2.008354E+00   2.349411E+00   5.311568E+00   0.000000E+00
   2  -1.129791E-14   0.000000E+00   2.861090E-02   6.505202E-01   5.588512E-05   0.000000E+00
   3   6.350372E-02   0.000000E+00  -1.183624E-16   6.835831E-05   8.024781E-01   0.000000E+00
 
:INFO :  Singular value  5.312E+00 Weight  1.000E+00 Projection  3.778E-02
:INFO :  Singular value  8.024E-01 Weight  1.000E+00 Projection -5.245E-01
:INFO :  Singular value  5.588E-05 Weight  5.355E-02 Projection -1.242E+00
:RANK :  ACTIVE   2.05/3  =  68.45 % ; YY RANK   2.08/3  =  69.27 %
 
:BLIM :  VZERO Control Off
:TRUST:  Step 2.72E-01  Charge 7.50E-02 (e) CTO  2.50E-01 (e) PW  3.50E-01 (e)
:DTRUS:  Lambda    5.401E-02 Increment    3.638E-12 Iterations   103 DMIX    5.720E-02
:INFOA:  Angle SubSpace to MSR1      2.89
:DIRM :  MEMORY  3/12 SCALE   1.000 RED  0.95 PRED  0.81 NEXT  0.82 
:INFO :  Limited by Atoms F by Step T

:TRAVE:  Charge 6.53E-03 (e) CTO  6.53E-03 (e) PW  7.00E-02 (e)
:DIRP :  |MSR1|= 1.140E-01 |PRATT|= 1.093E-01 ANGLE=  30.0 DEGREES
:DIRQ :  |MSR1|= 1.056E-01 |PRATT|= 5.606E-01 ANGLE=  19.5 DEGREES
:DIRT :  |MSR1|= 1.554E-01 |PRATT|= 5.712E-01 ANGLE=  41.4 DEGREES
:MIX  :   MSE1   REGULARIZATION:  2.35E-04 GREED: 0.06333  LMStep 0.91  0.2721 Step           
     
       CHARGES OF MIXED CHARGE DENSITY
:CTO   : INTERSTITIAL CHARGE =     2.902649
:CPC   : PW Pseudocharge     =     7.605018
:CTO001: CHARGE SPHERE  1    =    56.097351

:NEC03: NUCLEAR AND ELECTRONIC CHARGE     59.00000    59.00000

PW CHANGE     H    K    L      Current       Change    Residue
:PTO001:      0    0    0  4.48315738E-02 -7.026E-04  3.440E-04
:PTO002:     -1   -1   -1 -1.35546874E-01  4.513E-03  3.279E-03
:PTO003:      0    0   -2  7.99512420E-02 -3.236E-03 -3.164E-03
:PTO004:      0   -2   -2  6.48754940E-02 -3.571E-03 -1.600E-03
:PTO005:     -1   -1   -3 -6.07835412E-02  5.939E-03  6.821E-03
:PTO006:     -2   -2   -2  1.53797740E-02 -1.767E-03 -2.196E-03
:PTO007:      0    0   -4  2.60644086E-03 -9.433E-04 -1.789E-03
:PTO008:     -1   -3   -3 -9.72133111E-05  1.893E-03  2.415E-03
:PTO009:      0   -2   -4 -2.21979395E-03 -1.711E-03 -2.648E-03
:PTO010:     -2   -2   -4 -6.35795037E-03 -8.908E-04 -2.125E-03
:PTO011:     -3   -3   -3  2.27727860E-03  1.864E-04  7.253E-04
:PTO012:     -1   -1   -5  6.81139565E-03  5.391E-04  2.081E-03

:ENE  : ********** TOTAL ENERGY IN Ry =       -18472.09069681

 Flat Integration
 New Mode for Coulomb Integral
 Consistent 3/8+Simpson combinations
 Extension of core to zero
 LDM version in phi
 Fifth-order quadrature in outwin


            ---------
:ITE005:  5. ITERATION
            ---------

:NATO :    1 INDEPENDENT AND    1 TOTAL ATOMS IN UNITCELL
       SUBSTANCE: blebleble                                                   

       LATTICE                      = F   
:POT  : POTENTIAL OPTION EX_LDA EC_LDA VX_LDA VC_LDA
:LAT  : LATTICE CONSTANTS=  9.78725  9.78725  9.78725    1.571    1.571    1.571
:VOL  : UNIT CELL VOLUME =     234.38096
       MODE OF CALCULATION IS       = RELA
       NON-SPINPOLARIZED CALCULATION
:IFFT  : FFT-parameters:   80   80   80 Factor: 2.00


   CONVERGENCE PARAMETER FOR PSEUDOCHARGE: NCON=  9
   MAXIMAL VALUE OF RMT(JATOM)*ABSK(NKK) : RK  =29.89674


:VKCOUL :  VK-COUL convergence: 0.551E-07
       ATOMNUMBER=  1 Pr         VCOUL-ZERO =  0.26474E+00
:FIT001: LUSE= 13 SIGMA OF V-XC FIT FOR ATOM  1  0.4638996E-05
:FIT001: LUSE= 13 SIGMA OF V-XC FIT FOR ATOM  1  0.4638996E-05
:DEN  : DENSITY INTEGRAL  =         -7072.02190133   (Ry)
       ELS_POTENTIAL_AT Z=0 and Z=0.5:  -2.50075  -2.50075
       ELS_POTENTIAL_AT Y=0 and Y=0.5:   0.00000   0.00000
:VZERO:v0,v0c,v0x  -3.48640  -2.50075  -0.98565 v5,v5c,v5x  -3.48640  -2.50075  -0.98565
:VZERY:v0,v0c,v0x  -0.71986   0.00000  -0.71986 v5,v5c,v5x  -0.71986   0.00000  -0.71986
:VZERX:v0,v0c,v0x  -0.71986   0.00000  -0.71986 v5,v5c,v5x  -0.71986   0.00000  -0.71986
:LMAX-WF:   10   Non-Spherical LMAX:   4

          ATOMIC SPHERE DEPENDENT PARAMETERS FOR ATOM  Pr        
:e__0001: OVERALL ENERGY PARAMETER IS    0.4107
          OVERALL BASIS SET ON ATOM IS LAPW
:E0_0001: E( 0)=    0.4107
             APW+lo
:E0_0001: E( 0)=   -2.0766   E(BOTTOM)=   -2.457   E(TOP)=   -1.696  4  5   175
             LOCAL ORBITAL
:E1_0001: E( 1)=    0.8107
             APW+lo
:E1_0001: E( 1)=   -0.6878   E(BOTTOM)=   -1.333   E(TOP)=   -0.042  3  4   172
             LOCAL ORBITAL
:E3_0001: E( 3)=    0.5861   E(BOTTOM)=    0.446   E(TOP)=    0.726  0  1   119
             APW+lo
:E2_0001: E( 2)=    0.4107   E(BOTTOM)=    0.242   E(TOP)= -200.000  2 -1    93
             APW+lo

       K=   0.00000   0.00000   0.00000            1
:RKM  : MATRIX SIZE   189LOs:  20  RKM= 8.34  WEIGHT= 1.00  PGR:    
       EIGENVALUES ARE:
:EIG00001:      -2.0393842   -0.6653998   -0.6653998   -0.6653998    0.3457854
:EIG00006:       0.5806444    0.5998014    0.5998014    0.5998014    0.6255841
:EIG00011:       0.6255841    0.6255841    0.7292509    0.7292509    0.7292509
:EIG00016:       0.9083228    0.9083228    1.3131527    1.5472944    1.5472944
:EIG00021:       1.5472944    1.6539105
       ********************************************************

:KPT   :      NUMBER OF K-POINTS:   165
:GAP (global)   :    0.0    Ry =     0.0   eV (metal)
         Bandranges (emin - emax) and occupancy:
:BAN00001:   1   -2.039384   -2.023855  2.00000000
:BAN00002:   2   -0.756607   -0.665400  2.00000000
:BAN00003:   3   -0.724662   -0.665400  2.00000000
:BAN00004:   4   -0.699244   -0.665400  2.00000000
:BAN00005:   5    0.345785    0.565791  2.00000000
:BAN00006:   6    0.516455    0.594410  2.00000000
:BAN00007:   7    0.579630    0.604814  1.00013700
:BAN00008:   8    0.596335    0.607824 -0.00013700
:BAN00009:   9    0.599801    0.612207  0.00000000
:BAN00010:  10    0.607288    0.625584  0.00000000
:BAN00011:  11    0.609953    0.625584  0.00000000
:BAN00012:  12    0.612954    0.635300  0.00000000
:BAN00013:  13    0.619451    0.734040  0.00000000
        Energy to separate low and high energystates:    0.29579


:NOE  : NUMBER OF ELECTRONS          =   13.000

:FER  : F E R M I - ENERGY(TETRAH.M.)=   0.5954141914
:GMA  : POTENTIAL AND CHARGE CUT-OFF  12.00 Ry**.5

:POS001: ATOM    1 X,Y,Z = 0.00000 0.00000 0.50000  MULT= 1  ZZ= 59.000  Pr        

       LMMAX  5
       LM=   0 0  4 0  4 4  6 0  6 4

:CHA001: TOTAL VALENCE CHARGE INSIDE SPHERE   1 =  10.1116    (RMT=  2.5000 )
:PCS001: PARTIAL CHARGES SPHERE =  1 S,P,D,F,      D-EG,D-T2G 
:QTL001: 2.0319 5.3517 0.6360 2.0917 0.0000 0.0000 0.0000 0.2267 0.4093 0.0000 0.0000 0.0000
        Q-s-low E-s-low   Q-p-low E-p-low   Q-d-low E-d-low   Q-f-low E-f-low
:EPL001:  1.9257 -2.0270    5.2837 -0.7037    0.0015 -0.7212    0.0004 -0.7231
        Q-s-hi  E-s-hi    Q-p-hi  E-p-hi    Q-d-hi  E-d-hi    Q-f-hi  E-f-hi 
:EPH001:  0.1062  0.4949    0.0680  0.5319    0.6345  0.5423    2.0913  0.5802

:CHA  : TOTAL VALENCE CHARGE INSIDE UNIT CELL =      13.000000

:SUM  : SUM OF EIGENVALUES =          -5.522036886


        1.ATOM      Pr                   14 CORE STATES
:1S 001: 1S               -3067.005754009 Ry
:2S 001: 2S                -492.767253711 Ry
:2PP001: 2P*               -465.865431427 Ry
:2P 001: 2P                -430.468388042 Ry
:3S 001: 3S                -105.860575698 Ry
:3PP001: 3P*                -94.398268641 Ry
:3P 001: 3P                 -87.390514839 Ry
:3DD001: 3D*                -67.317537386 Ry
:3D 001: 3D                 -65.806007743 Ry
:4S 001: 4S                 -20.533300432 Ry
:4PP001: 4P*                -16.239636971 Ry
:4P 001: 4P                 -14.711571623 Ry
:4DD001: 4D*                 -7.643437622 Ry
:4D 001: 4D                  -7.373817468 Ry
:CINT001 Core Integral Atom   1   45.999522

       DENSITY AT NUCLEUS
        JATOM        VALENCE       SEMI-CORE          CORE           TOTAL
:RTO001:   1      652.439828        0.000000   656824.189666   657476.629494
     
       CHARGES OF NEW CHARGE DENSITY
:NTO   : INTERSTITIAL CHARGE =     2.888385
:NPC   : PW Pseudocharge     =     7.653049
:NTO001: CHARGE SPHERE  1    =    56.111137

:NEC01: NUCLEAR AND ELECTRONIC CHARGE     59.00000    58.99952
     
       CHARGES OF OLD CHARGE DENSITY
:OTO   : INTERSTITIAL CHARGE =     2.902649
:OPC   : PW Pseudocharge     =     7.605018
:OTO001: CHARGE SPHERE  1    =    56.097351

:NEC02: NUCLEAR AND ELECTRONIC CHARGE     59.00000    59.00000
     
       CONVERGENCE TEST
:DTO001: DIFFERENCE IN SPHERE  1 =  0.0755493

:DIS  :  CHARGE DISTANCE       ( 0.0755493 for atom    1 spin 1)      0.0755493
 PW Mixed is           53
 
******************************************************
* MULTISECANT MIXING VER9 RELEASE 10.4.0              *
* Standard Mode with controls                        *
* Fixed density scale                                *
* Regularization       1.000E-04                     *
* Trust Upper Limit    5.000E+00                     *
* Max Number of Memory Steps    8                    *
******************************************************
 
:PWTMP   1.6893E+02  1.2500E+02  2.3438E+02
:PLANE:  PW TOTAL      3.0484 DISTAN   3.91E-02  1.28E+00 %
:CHARG:  CLM/ATOM    977.2338 DISTAN   4.13E-01  4.23E-02 %
 
Step History
        DMIX         DMIXT        Red     Pred      Trust     Lambda    MagRel    MagAbs     Beta
  1   3.5000E-02   3.5000E-02 -1.00E+00  1.00E+00 -1.00E+01  1.00E+00  3.50E-02  3.50E-02  1.00E+00
  2   2.5000E-02   2.5000E-02  7.37E-01  1.00E+00 -1.00E+01  1.00E+00  2.50E-02  2.22E-02  1.00E+00
  3   3.1154E-02   3.1154E-02  9.17E-01  1.00E+00 -1.00E+01  7.93E-02  3.12E-02  2.04E-02  1.00E+00
  4   2.5331E-02   2.5331E-02  9.53E-01  8.06E-01  2.11E-01  1.48E+00  1.02E-01  6.09E-02  8.00E-01
  5   6.3328E-02   5.7201E-02 -1.00E+00  8.25E-01  2.72E-01  1.00E+00  2.72E-01  1.55E-01  1.00E+00
:JACOBIANS    8.859E-01   2.560E-01
  
:NORMS:  1/Froebius, Min, Max, Used   0.4802E+00  0.4448E+00  0.9991E+00  0.5015E+00
:INFO :  Number of Memory Steps    4 Skipping    0
:INFO :  SLambda=    0.5731515908  Max    0.5731515908
:PREDicted Charge, CTotal, PW Trust    1.164E-02   1.164E-02   8.459E-02
:PREDicted DMix, Beta, BLim   3.2499E-01  1.9338E+00  6.1587E-01

Eigenvalues, unscaled except for SY+YY
   #     SY Real        SY Imag          SS             YY         SY+YY Real      SY+YY Imag
   1   6.798654E-01   0.000000E+00   6.717597E-01   3.395974E+00   3.659865E+00   0.000000E+00
   2   3.698700E-01   0.000000E+00   2.507363E-01   6.037153E-01   9.414381E-01   0.000000E+00
   3  -5.242280E-15   0.000000E+00   1.506987E-05   2.975153E-04   1.365978E-05   0.000000E+00
   4   1.491865E-04   0.000000E+00   8.801708E-19   1.352445E-05   4.263875E-04   0.000000E+00
 
:INFO :  Singular value  3.660E+00 Weight  1.000E+00 Projection -6.634E-02
:INFO :  Singular value  9.414E-01 Weight  1.000E+00 Projection -4.467E-02
:INFO :  Singular value  4.276E-04 Weight  6.132E-01 Projection -1.431E+01
:INFO :  Singular value  1.362E-05 Weight  1.607E-03 Projection -2.448E-02
:RANK :  ACTIVE   2.61/4  =  65.37 % ; YY RANK   2.44/4  =  60.90 %
 
:BLIM :  VZERO Control Off
:TRUST:  Step 4.29E-01  Charge 7.50E-02 (e) CTO  2.50E-01 (e) PW  3.50E-01 (e)
:DTRUS:  Lambda    2.752E+00 Increment    7.276E-12 Iterations   121 DMIX    1.448E-01
:INFOA:  Angle SubSpace to MSR1      3.45
:DIRM :  MEMORY  4/8  SCALE   1.000 RED  0.73 PRED  0.82 NEXT  0.55 
:INFO :  Limited by Atoms F by Step T

:TRAVE:  Charge 6.55E-03 (e) CTO  6.55E-03 (e) PW  3.94E-02 (e)
:DIRP :  |MSR1|= 1.837E-02 |PRATT|= 3.912E-02 ANGLE=   1.8 DEGREES
:DIRQ :  |MSR1|= 1.769E-01 |PRATT|= 4.129E-01 ANGLE=   3.7 DEGREES
:DIRT :  |MSR1|= 1.778E-01 |PRATT|= 4.148E-01 ANGLE=   3.7 DEGREES
:MIX  :   MSD1   REGULARIZATION:  3.40E-04 GREED: 0.15832  LMStep 0.73  0.4287 Step           
     
       CHARGES OF MIXED CHARGE DENSITY
:CTO   : INTERSTITIAL CHARGE =     2.896079
:CPC   : PW Pseudocharge     =     7.628179
:CTO001: CHARGE SPHERE  1    =    56.103921

:NEC03: NUCLEAR AND ELECTRONIC CHARGE     59.00000    59.00000

PW CHANGE     H    K    L      Current       Change    Residue
:PTO001:      0    0    0  4.49023612E-02  7.079E-05  1.515E-04
:PTO002:     -1   -1   -1 -1.36139248E-01 -5.924E-04 -1.269E-03
:PTO003:      0    0   -2  8.01019124E-02  1.507E-04  3.120E-04
:PTO004:      0   -2   -2  6.57783538E-02  9.029E-04  1.943E-03
:PTO005:     -1   -1   -3 -6.05197967E-02  2.637E-04  5.347E-04
:PTO006:     -2   -2   -2  1.52249113E-02 -1.549E-04 -3.503E-04
:PTO007:      0    0   -4  2.26623806E-03 -3.402E-04 -7.244E-04
:PTO008:     -1   -3   -3  1.53455659E-04  2.507E-04  4.614E-04
:PTO009:      0   -2   -4 -2.62365109E-03 -4.039E-04 -7.899E-04
:PTO010:     -2   -2   -4 -6.90272402E-03 -5.448E-04 -1.145E-03
:PTO011:     -3   -3   -3  2.51649295E-03  2.392E-04  5.206E-04
:PTO012:     -1   -1   -5  7.46054007E-03  6.491E-04  1.387E-03

:ENE  : ********** TOTAL ENERGY IN Ry =       -18472.08912931

 Flat Integration
 New Mode for Coulomb Integral
 Consistent 3/8+Simpson combinations
 Extension of core to zero
 LDM version in phi
 Fifth-order quadrature in outwin


            ---------
:ITE006:  6. ITERATION
            ---------

:NATO :    1 INDEPENDENT AND    1 TOTAL ATOMS IN UNITCELL
       SUBSTANCE: blebleble                                                   

       LATTICE                      = F   
:POT  : POTENTIAL OPTION EX_LDA EC_LDA VX_LDA VC_LDA
:LAT  : LATTICE CONSTANTS=  9.78725  9.78725  9.78725    1.571    1.571    1.571
:VOL  : UNIT CELL VOLUME =     234.38096
       MODE OF CALCULATION IS       = RELA
       NON-SPINPOLARIZED CALCULATION
:IFFT  : FFT-parameters:   80   80   80 Factor: 2.00


   CONVERGENCE PARAMETER FOR PSEUDOCHARGE: NCON=  9
   MAXIMAL VALUE OF RMT(JATOM)*ABSK(NKK) : RK  =29.89674


:VKCOUL :  VK-COUL convergence: 0.131E-06
       ATOMNUMBER=  1 Pr         VCOUL-ZERO =  0.26471E+00
:FIT001: LUSE= 13 SIGMA OF V-XC FIT FOR ATOM  1  0.1806713E-04
:FIT001: LUSE= 13 SIGMA OF V-XC FIT FOR ATOM  1  0.1806713E-04
:DEN  : DENSITY INTEGRAL  =         -7072.89407256   (Ry)
       ELS_POTENTIAL_AT Z=0 and Z=0.5:  -2.50617  -2.50617
       ELS_POTENTIAL_AT Y=0 and Y=0.5:   0.00000   0.00000
:VZERO:v0,v0c,v0x  -3.48865  -2.50617  -0.98248 v5,v5c,v5x  -3.48865  -2.50617  -0.98248
:VZERY:v0,v0c,v0x  -0.71976   0.00000  -0.71976 v5,v5c,v5x  -0.71976   0.00000  -0.71976
:VZERX:v0,v0c,v0x  -0.71976   0.00000  -0.71976 v5,v5c,v5x  -0.71976   0.00000  -0.71976
:LMAX-WF:   10   Non-Spherical LMAX:   4

          ATOMIC SPHERE DEPENDENT PARAMETERS FOR ATOM  Pr        
:e__0001: OVERALL ENERGY PARAMETER IS    0.4005
          OVERALL BASIS SET ON ATOM IS LAPW
:E0_0001: E( 0)=    0.4005
             APW+lo
:E0_0001: E( 0)=   -2.0721   E(BOTTOM)=   -2.453   E(TOP)=   -1.691  4  5   172
             LOCAL ORBITAL
:E1_0001: E( 1)=    0.8005
             APW+lo
:E1_0001: E( 1)=   -0.6841   E(BOTTOM)=   -1.331   E(TOP)=   -0.037  3  4   175
             LOCAL ORBITAL
:E3_0001: E( 3)=    0.5962   E(BOTTOM)=    0.455   E(TOP)=    0.738  0  1   122
             APW+lo
:E2_0001: E( 2)=    0.4005   E(BOTTOM)=    0.244   E(TOP)= -200.000  2 -1    87
             APW+lo

       K=   0.00000   0.00000   0.00000            1
:RKM  : MATRIX SIZE   189LOs:  20  RKM= 8.34  WEIGHT= 1.00  PGR:    
       EIGENVALUES ARE:
:EIG00001:      -2.0349462   -0.6619369   -0.6619369   -0.6619369    0.3464373
:EIG00006:       0.5902418    0.6095491    0.6095491    0.6095491    0.6360379
:EIG00011:       0.6360379    0.6360379    0.7308185    0.7308185    0.7308185
:EIG00016:       0.9099439    0.9099439    1.3149065    1.5482760    1.5482760
:EIG00021:       1.5482760    1.6526158
       ********************************************************

:KPT   :      NUMBER OF K-POINTS:   165
:GAP (global)   :    0.0    Ry =     0.0   eV (metal)
         Bandranges (emin - emax) and occupancy:
:BAN00001:   1   -2.034946   -2.019329  2.00000000
:BAN00002:   2   -0.753574   -0.661937  2.00000000
:BAN00003:   3   -0.721475   -0.661937  2.00000000
:BAN00004:   4   -0.695937   -0.661937  2.00000000
:BAN00005:   5    0.346437    0.569756  2.00000000
:BAN00006:   6    0.517533    0.603506  2.00000000
:BAN00007:   7    0.586513    0.614836  1.00000000
:BAN00008:   8    0.605121    0.617681  0.00000000
:BAN00009:   9    0.609549    0.622082  0.00000000
:BAN00010:  10    0.617043    0.636038  0.00000000
:BAN00011:  11    0.619790    0.636038  0.00000000
:BAN00012:  12    0.623045    0.642245  0.00000000
        Energy to separate low and high energystates:    0.29644


:NOE  : NUMBER OF ELECTRONS          =   13.000

:FER  : F E R M I - ENERGY(TETRAH.M.)=   0.6043140391
:GMA  : POTENTIAL AND CHARGE CUT-OFF  12.00 Ry**.5

:POS001: ATOM    1 X,Y,Z = 0.00000 0.00000 0.50000  MULT= 1  ZZ= 59.000  Pr        

       LMMAX  5
       LM=   0 0  4 0  4 4  6 0  6 4

:CHA001: TOTAL VALENCE CHARGE INSIDE SPHERE   1 =  10.0112    (RMT=  2.5000 )
:PCS001: PARTIAL CHARGES SPHERE =  1 S,P,D,F,      D-EG,D-T2G 
:QTL001: 2.0331 5.3555 0.6790 1.9433 0.0000 0.0000 0.0000 0.2406 0.4383 0.0000 0.0000 0.0000
        Q-s-low E-s-low   Q-p-low E-p-low   Q-d-low E-d-low   Q-f-low E-f-low
:EPL001:  1.9254 -2.0224    5.2810 -0.7004    0.0015 -0.7179    0.0004 -0.7198
        Q-s-hi  E-s-hi    Q-p-hi  E-p-hi    Q-d-hi  E-d-hi    Q-f-hi  E-f-hi 
:EPH001:  0.1077  0.4975    0.0745  0.5386    0.6774  0.5475    1.9428  0.5879

:CHA  : TOTAL VALENCE CHARGE INSIDE UNIT CELL =      13.000000

:SUM  : SUM OF EIGENVALUES =          -5.470362572


        1.ATOM      Pr                   14 CORE STATES
:1S 001: 1S               -3066.990820295 Ry
:2S 001: 2S                -492.747992484 Ry
:2PP001: 2P*               -465.846677177 Ry
:2P 001: 2P                -430.449402958 Ry
:3S 001: 3S                -105.839773585 Ry
:3PP001: 3P*                -94.377525616 Ry
:3P 001: 3P                 -87.369770040 Ry
:3DD001: 3D*                -67.296730938 Ry
:3D 001: 3D                 -65.785192801 Ry
:4S 001: 4S                 -20.517272103 Ry
:4PP001: 4P*                -16.223989061 Ry
:4P 001: 4P                 -14.696495516 Ry
:4DD001: 4D*                 -7.629300803 Ry
:4D 001: 4D                  -7.359867753 Ry
:CINT001 Core Integral Atom   1   45.999518

       DENSITY AT NUCLEUS
        JATOM        VALENCE       SEMI-CORE          CORE           TOTAL
:RTO001:   1      652.303425        0.000000   656823.903071   657476.206496
     
       CHARGES OF NEW CHARGE DENSITY
:NTO   : INTERSTITIAL CHARGE =     2.988801
:NPC   : PW Pseudocharge     =     7.693996
:NTO001: CHARGE SPHERE  1    =    56.010717

:NEC01: NUCLEAR AND ELECTRONIC CHARGE     59.00000    58.99952
     
       CHARGES OF OLD CHARGE DENSITY
:OTO   : INTERSTITIAL CHARGE =     2.896079
:OPC   : PW Pseudocharge     =     7.628179
:OTO001: CHARGE SPHERE  1    =    56.103921

:NEC02: NUCLEAR AND ELECTRONIC CHARGE     59.00000    59.00000
     
       CONVERGENCE TEST
:DTO001: DIFFERENCE IN SPHERE  1 =  0.1655810

:DIS  :  CHARGE DISTANCE       ( 0.1655810 for atom    1 spin 1)      0.1655810
 PW Mixed is           53
 
******************************************************
* MULTISECANT MIXING VER9 RELEASE 10.4.0              *
* Standard Mode with controls                        *
* Fixed density scale                                *
* Regularization       1.000E-04                     *
* Trust Upper Limit    5.000E+00                     *
* Max Number of Memory Steps    8                    *
******************************************************
 
:PWTMP   1.6893E+02  1.2500E+02  2.3438E+02
:PLANE:  PW TOTAL      3.0585 DISTAN   3.53E-02  1.15E+00 %
:CHARG:  CLM/ATOM    977.2122 DISTAN   2.80E-01  2.87E-02 %
 
Step History
        DMIX         DMIXT        Red     Pred      Trust     Lambda    MagRel    MagAbs     Beta
  1   3.5000E-02   3.5000E-02 -1.00E+00  1.00E+00 -1.00E+01  1.00E+00  3.50E-02  3.50E-02  1.00E+00
  2   2.5000E-02   2.5000E-02  7.37E-01  1.00E+00 -1.00E+01  1.00E+00  2.50E-02  2.22E-02  1.00E+00
  3   3.1154E-02   3.1154E-02  9.17E-01  1.00E+00 -1.00E+01  7.93E-02  3.12E-02  2.04E-02  1.00E+00
  4   2.5331E-02   2.5331E-02  9.53E-01  8.06E-01  2.11E-01  1.48E+00  1.02E-01  6.09E-02  8.00E-01
  5   6.3328E-02   5.7201E-02  7.26E-01  8.25E-01  2.72E-01  5.73E-01  2.72E-01  1.55E-01  1.00E+00
  6   1.5832E-01   1.4476E-01 -1.00E+00  5.49E-01  4.29E-01  1.00E+00  4.29E-01  1.78E-01  1.00E+00
:JACOBIANS    9.483E-01   6.519E-01
  
:NORMS:  1/Froebius, Min, Max, Used   0.8332E+00  0.4249E+00  0.1000E+01  0.9483E+00
:INFO :  Number of Memory Steps    5 Skipping    0
:INFO :  SLambda=    1.0000000000  Max    1.0000000000
:PREDicted Charge, CTotal, PW Trust    1.803E-03   1.803E-03   3.947E-02
:PREDicted DMix, Beta, BLim   7.6921E-01  2.1189E+00  9.8188E-01

Eigenvalues, unscaled except for SY+YY
   #     SY Real        SY Imag          SS             YY         SY+YY Real      SY+YY Imag
   1   2.780073E+00   0.000000E+00   2.805086E+00   3.118985E+00   5.823654E+00   0.000000E+00
   2   6.768820E-01   0.000000E+00   6.603549E-01   1.379686E+00   1.866587E+00   0.000000E+00
   3   7.667616E-02   0.000000E+00   5.957049E-03   5.013039E-01   8.433652E-01   0.000000E+00
   4  -1.531287E-14   0.000000E+00   2.094906E-07   1.914925E-05   2.020671E-05   0.000000E+00
   5   1.024889E-06   0.000000E+00   1.469772E-16   5.969191E-06   6.239448E-06   0.000000E+00
 
:INFO :  Singular value  5.826E+00 Weight  1.000E+00 Projection -1.411E-01
:INFO :  Singular value  1.866E+00 Weight  1.000E+00 Projection  7.979E-02
:INFO :  Singular value  8.433E-01 Weight  1.000E+00 Projection  1.742E-02
:INFO :  Singular value  2.023E-05 Weight  4.189E-03 Projection  4.125E-02
:INFO :  Singular value  6.233E-06 Weight  3.991E-04 Projection -4.413E-03
:RANK :  ACTIVE   3.00/5  =  60.09 % ; YY RANK   3.00/5  =  60.08 %
 
:BLIM :  VZERO Control Off
:TRUST:  Step 6.58E-01  Charge 7.50E-02 (e) CTO  2.50E-01 (e) PW  3.50E-01 (e)
:DTRUS:  Lambda    7.464E-02 Increment    7.276E-12 Iterations    99 DMIX    3.365E-01
:INFOA:  Angle SubSpace to MSR1      1.03
:DIRM :  MEMORY  5/8  SCALE   1.000 RED  0.68 PRED  0.55 NEXT  0.25 
:INFO :  Limited by Atoms F by Step T

:TRAVE:  Charge 5.69E-03 (e) CTO  5.69E-03 (e) PW  2.90E-02 (e)
:DIRP :  |MSR1|= 1.992E-02 |PRATT|= 3.529E-02 ANGLE=  33.4 DEGREES
:DIRQ :  |MSR1|= 1.849E-01 |PRATT|= 2.802E-01 ANGLE=  34.7 DEGREES
:DIRT :  |MSR1|= 1.859E-01 |PRATT|= 2.824E-01 ANGLE=  34.7 DEGREES
:MIX  :   MSR1   REGULARIZATION:  3.12E-04 GREED: 0.35000  LMStep 0.80  0.6585 Step           
     
       CHARGES OF MIXED CHARGE DENSITY
:CTO   : INTERSTITIAL CHARGE =     2.900914
:CPC   : PW Pseudocharge     =     7.658030
:CTO001: CHARGE SPHERE  1    =    56.099086

:NEC03: NUCLEAR AND ELECTRONIC CHARGE     59.00000    59.00000

PW CHANGE     H    K    L      Current       Change    Residue
:PTO001:      0    0    0  4.50503469E-02  1.480E-04  6.838E-04
:PTO002:     -1   -1   -1 -1.36779199E-01 -6.400E-04 -7.282E-04
:PTO003:      0    0   -2  8.02722116E-02  1.703E-04  9.832E-05
:PTO004:      0   -2   -2  6.67427007E-02  9.643E-04  1.143E-03
:PTO005:     -1   -1   -3 -6.02605156E-02  2.593E-04  4.223E-04
:PTO006:     -2   -2   -2  1.50543627E-02 -1.705E-04 -2.534E-04
:PTO007:      0    0   -4  1.91912328E-03 -3.471E-04 -4.460E-04
:PTO008:     -1   -3   -3  3.96076672E-04  2.426E-04  2.561E-04
:PTO009:      0   -2   -4 -3.01492820E-03 -3.913E-04 -4.579E-04
:PTO010:     -2   -2   -4 -7.45968181E-03 -5.570E-04 -6.644E-04
:PTO011:     -3   -3   -3  2.76654532E-03  2.501E-04  3.013E-04
:PTO012:     -1   -1   -5  8.11719290E-03  6.567E-04  8.144E-04

:ENE  : ********** TOTAL ENERGY IN Ry =       -18472.08970012

 Flat Integration
 New Mode for Coulomb Integral
 Consistent 3/8+Simpson combinations
 Extension of core to zero
 LDM version in phi
 Fifth-order quadrature in outwin


            ---------
:ITE007:  7. ITERATION
            ---------

:NATO :    1 INDEPENDENT AND    1 TOTAL ATOMS IN UNITCELL
       SUBSTANCE: blebleble                                                   

       LATTICE                      = F   
:POT  : POTENTIAL OPTION EX_LDA EC_LDA VX_LDA VC_LDA
:LAT  : LATTICE CONSTANTS=  9.78725  9.78725  9.78725    1.571    1.571    1.571
:VOL  : UNIT CELL VOLUME =     234.38096
       MODE OF CALCULATION IS       = RELA
       NON-SPINPOLARIZED CALCULATION
:IFFT  : FFT-parameters:   80   80   80 Factor: 2.00


   CONVERGENCE PARAMETER FOR PSEUDOCHARGE: NCON=  9
   MAXIMAL VALUE OF RMT(JATOM)*ABSK(NKK) : RK  =29.89674


:VKCOUL :  VK-COUL convergence: 0.211E-06
       ATOMNUMBER=  1 Pr         VCOUL-ZERO =  0.26489E+00
:FIT001: LUSE= 13 SIGMA OF V-XC FIT FOR ATOM  1  0.4332868E-04
:FIT001: LUSE= 13 SIGMA OF V-XC FIT FOR ATOM  1  0.4332868E-04
:DEN  : DENSITY INTEGRAL  =         -7072.29181930   (Ry)
       ELS_POTENTIAL_AT Z=0 and Z=0.5:  -2.51762  -2.51762
       ELS_POTENTIAL_AT Y=0 and Y=0.5:   0.00000   0.00000
:VZERO:v0,v0c,v0x  -3.49726  -2.51762  -0.97964 v5,v5c,v5x  -3.49726  -2.51762  -0.97964
:VZERY:v0,v0c,v0x  -0.72028   0.00000  -0.72028 v5,v5c,v5x  -0.72028   0.00000  -0.72028
:VZERX:v0,v0c,v0x  -0.72028   0.00000  -0.72028 v5,v5c,v5x  -0.72028   0.00000  -0.72028
:LMAX-WF:   10   Non-Spherical LMAX:   4

          ATOMIC SPHERE DEPENDENT PARAMETERS FOR ATOM  Pr        
:e__0001: OVERALL ENERGY PARAMETER IS    0.4030
          OVERALL BASIS SET ON ATOM IS LAPW
:E0_0001: E( 0)=    0.4030
             APW+lo
:E0_0001: E( 0)=   -2.0769   E(BOTTOM)=   -2.457   E(TOP)=   -1.697  4  5   172
             LOCAL ORBITAL
:E1_0001: E( 1)=    0.8030
             APW+lo
:E1_0001: E( 1)=   -0.6882   E(BOTTOM)=   -1.334   E(TOP)=   -0.042  3  4   170
             LOCAL ORBITAL
:E3_0001: E( 3)=    0.5889   E(BOTTOM)=    0.448   E(TOP)=    0.730  0  1   118
             APW+lo
:E2_0001: E( 2)=    0.4030   E(BOTTOM)=    0.242   E(TOP)= -200.000  2 -1    89
             APW+lo

       K=   0.00000   0.00000   0.00000            1
:RKM  : MATRIX SIZE   189LOs:  20  RKM= 8.34  WEIGHT= 1.00  PGR:    
       EIGENVALUES ARE:
:EIG00001:      -2.0396153   -0.6657084   -0.6657084   -0.6657084    0.3467500
:EIG00006:       0.5839045    0.6025461    0.6025461    0.6025461    0.6284986
:EIG00011:       0.6284986    0.6284986    0.7302989    0.7302989    0.7302989
:EIG00016:       0.9085637    0.9085637    1.3145513    1.5482698    1.5482698
:EIG00021:       1.5482698    1.6526277
       ********************************************************

:KPT   :      NUMBER OF K-POINTS:   165
:GAP (global)   :    0.0    Ry =     0.0   eV (metal)
         Bandranges (emin - emax) and occupancy:
:BAN00001:   1   -2.039615   -2.024109  2.00000000
:BAN00002:   2   -0.756727   -0.665708  2.00000000
:BAN00003:   3   -0.724836   -0.665708  2.00000000
:BAN00004:   4   -0.699473   -0.665708  2.00000000
:BAN00005:   5    0.346750    0.567098  2.00000000
:BAN00006:   6    0.517452    0.597080  2.00000000
:BAN00007:   7    0.581700    0.607653  1.00012057
:BAN00008:   8    0.598891    0.610636 -0.00012057
:BAN00009:   9    0.602546    0.615500  0.00000000
:BAN00010:  10    0.610132    0.628499  0.00000000
:BAN00011:  11    0.612739    0.628499  0.00000000
:BAN00012:  12    0.615794    0.637180  0.00000000
:BAN00013:  13    0.623088    0.734986  0.00000000
        Energy to separate low and high energystates:    0.29675


:NOE  : NUMBER OF ELECTRONS          =   13.000

:FER  : F E R M I - ENERGY(TETRAH.M.)=   0.5980235907
:GMA  : POTENTIAL AND CHARGE CUT-OFF  12.00 Ry**.5

:POS001: ATOM    1 X,Y,Z = 0.00000 0.00000 0.50000  MULT= 1  ZZ= 59.000  Pr        

       LMMAX  5
       LM=   0 0  4 0  4 4  6 0  6 4

:CHA001: TOTAL VALENCE CHARGE INSIDE SPHERE   1 =  10.0882    (RMT=  2.5000 )
:PCS001: PARTIAL CHARGES SPHERE =  1 S,P,D,F,      D-EG,D-T2G 
:QTL001: 2.0321 5.3539 0.6482 2.0537 0.0000 0.0000 0.0000 0.2312 0.4170 0.0000 0.0000 0.0000
        Q-s-low E-s-low   Q-p-low E-p-low   Q-d-low E-d-low   Q-f-low E-f-low
:EPL001:  1.9257 -2.0272    5.2846 -0.7040    0.0015 -0.7214    0.0004 -0.7232
        Q-s-hi  E-s-hi    Q-p-hi  E-p-hi    Q-d-hi  E-d-hi    Q-f-hi  E-f-hi 
:EPH001:  0.1063  0.4962    0.0694  0.5341    0.6466  0.5442    2.0532  0.5826

:CHA  : TOTAL VALENCE CHARGE INSIDE UNIT CELL =      13.000000

:SUM  : SUM OF EIGENVALUES =          -5.515583187


        1.ATOM      Pr                   14 CORE STATES
:1S 001: 1S               -3067.010215893 Ry
:2S 001: 2S                -492.763140480 Ry
:2PP001: 2P*               -465.862329431 Ry
:2P 001: 2P                -430.464825107 Ry
:3S 001: 3S                -105.852277488 Ry
:3PP001: 3P*                -94.390181602 Ry
:3P 001: 3P                 -87.382264732 Ry
:3DD001: 3D*                -67.309478937 Ry
:3D 001: 3D                 -65.797891180 Ry
:4S 001: 4S                 -20.526883531 Ry
:4PP001: 4P*                -16.233530112 Ry
:4P 001: 4P                 -14.705899874 Ry
:4DD001: 4D*                 -7.638426581 Ry
:4D 001: 4D                  -7.368942229 Ry
:CINT001 Core Integral Atom   1   45.999520

       DENSITY AT NUCLEUS
        JATOM        VALENCE       SEMI-CORE          CORE           TOTAL
:RTO001:   1      652.429628        0.000000   656825.176176   657477.605804
     
       CHARGES OF NEW CHARGE DENSITY
:NTO   : INTERSTITIAL CHARGE =     2.911837
:NPC   : PW Pseudocharge     =     7.667198
:NTO001: CHARGE SPHERE  1    =    56.087683

:NEC01: NUCLEAR AND ELECTRONIC CHARGE     59.00000    58.99952
     
       CHARGES OF OLD CHARGE DENSITY
:OTO   : INTERSTITIAL CHARGE =     2.900914
:OPC   : PW Pseudocharge     =     7.658030
:OTO001: CHARGE SPHERE  1    =    56.099086

:NEC02: NUCLEAR AND ELECTRONIC CHARGE     59.00000    59.00000
     
       CONVERGENCE TEST
:DTO001: DIFFERENCE IN SPHERE  1 =  0.0261397

:DIS  :  CHARGE DISTANCE       ( 0.0261397 for atom    1 spin 1)      0.0261397
 PW Mixed is           53
 
******************************************************
* MULTISECANT MIXING VER9 RELEASE 10.4.0              *
* Standard Mode with controls                        *
* Fixed density scale                                *
* Regularization       1.000E-04                     *
* Trust Upper Limit    5.000E+00                     *
* Max Number of Memory Steps    8                    *
******************************************************
 
:PWTMP   1.6893E+02  1.2500E+02  2.3438E+02
:PLANE:  PW TOTAL      3.0712 DISTAN   5.04E-03  1.64E-01 %
:CHARG:  CLM/ATOM    977.1892 DISTAN   5.53E-02  5.66E-03 %
 
Step History
        DMIX         DMIXT        Red     Pred      Trust     Lambda    MagRel    MagAbs     Beta
  1   3.5000E-02   3.5000E-02 -1.00E+00  1.00E+00 -1.00E+01  1.00E+00  3.50E-02  3.50E-02  1.00E+00
  2   2.5000E-02   2.5000E-02  7.37E-01  1.00E+00 -1.00E+01  1.00E+00  2.50E-02  2.22E-02  1.00E+00
  3   3.1154E-02   3.1154E-02  9.17E-01  1.00E+00 -1.00E+01  7.93E-02  3.12E-02  2.04E-02  1.00E+00
  4   2.5331E-02   2.5331E-02  9.53E-01  8.06E-01  2.11E-01  1.48E+00  1.02E-01  6.09E-02  8.00E-01
  5   6.3328E-02   5.7201E-02  7.26E-01  8.25E-01  2.72E-01  5.73E-01  2.72E-01  1.55E-01  1.00E+00
  6   1.5832E-01   1.4476E-01  6.81E-01  5.49E-01  4.29E-01  1.00E+00  4.29E-01  1.78E-01  1.00E+00
  7   3.5000E-01   3.3649E-01 -1.00E+00  2.47E-01  6.58E-01  1.00E+00  6.58E-01  1.86E-01  1.00E+00
:JACOBIANS    9.822E-01   1.169E+00
  
:NORMS:  1/Froebius, Min, Max, Used   0.8587E+00  0.4620E+00  0.1001E+01  0.8948E+00
:INFO :  Number of Memory Steps    6 Skipping    0
:INFO :  SLambda=    1.3058558838  Max    1.3058558838
:PREDicted Charge, CTotal, PW Trust    2.032E-03   2.032E-03   1.924E-02
:PREDicted DMix, Beta, BLim   5.7784E-01  1.1863E+00  2.0463E+00

Eigenvalues, unscaled except for SY+YY
   #     SY Real        SY Imag          SS             YY         SY+YY Real      SY+YY Imag
   1   4.062703E+00   0.000000E+00   4.074885E+00   5.089412E+00   1.033129E+01   0.000000E+00
   2   3.578010E-01   0.000000E+00   3.444810E-01   6.595288E-01   1.047778E+00   0.000000E+00
   3   3.785840E-02   0.000000E+00   3.028853E-03   2.474038E-01   4.393620E-01   0.000000E+00
   4   2.524326E-03   0.000000E+00   1.634587E-03   3.650064E-03   6.843724E-03   0.000000E+00
   5  -2.340635E-15   0.000000E+00   5.483079E-08   4.947192E-06   5.257562E-06   0.000000E+00
   6   3.862223E-07   0.000000E+00  -1.724991E-16   4.646792E-07   4.938618E-07   0.000000E+00
 
:INFO :  Singular value  1.033E+01 Weight  1.000E+00 Projection  2.114E-02
:INFO :  Singular value  1.048E+00 Weight  1.000E+00 Projection -5.902E-03
:INFO :  Singular value  4.393E-01 Weight  1.000E+00 Projection  3.041E-04
:INFO :  Singular value  6.844E-03 Weight  9.945E-01 Projection -4.123E-01
:INFO :  Singular value  5.279E-06 Weight  1.076E-04 Projection -5.375E-04
:INFO :  Singular value  4.918E-07 Weight  9.337E-07 Projection -4.608E-06
:RANK :  ACTIVE   3.99/6  =  66.58 % ; YY RANK   3.98/6  =  66.35 %
 
:BLIM :  VZERO Control Off
:TRUST:  Step 1.27E+00  Charge 7.50E-02 (e) CTO  2.50E-01 (e) PW  3.50E-01 (e)
:DIRM :  MEMORY  6/8  SCALE   1.000 RED  0.20 PRED  0.25 NEXT  0.22 
:TRAVE:  Charge 3.30E-03 (e) CTO  3.30E-03 (e) PW  1.58E-02 (e)
:DIRP :  |MSR1|= 3.467E-03 |PRATT|= 5.039E-03 ANGLE=  33.8 DEGREES
:DIRQ :  |MSR1|= 4.134E-02 |PRATT|= 5.535E-02 ANGLE=  24.7 DEGREES
:DIRT :  |MSR1|= 4.148E-02 |PRATT|= 5.558E-02 ANGLE=  24.8 DEGREES
:MIX  :   MSE1   REGULARIZATION:  5.09E-04 GREED: 0.35000  Newton 1.00  0.7464                
     
       CHARGES OF MIXED CHARGE DENSITY
:CTO   : INTERSTITIAL CHARGE =     2.900011
:CPC   : PW Pseudocharge     =     7.663765
:CTO001: CHARGE SPHERE  1    =    56.099989

:NEC03: NUCLEAR AND ELECTRONIC CHARGE     59.00000    59.00000

PW CHANGE     H    K    L      Current       Change    Residue
:PTO001:      0    0    0  4.50709624E-02  2.062E-05  9.317E-05
:PTO002:     -1   -1   -1 -1.36898231E-01 -1.190E-04 -1.149E-04
:PTO003:      0    0   -2  8.03586286E-02  8.642E-05  8.377E-05
:PTO004:      0   -2   -2  6.69267782E-02  1.841E-04  1.918E-04
:PTO005:     -1   -1   -3 -6.02954191E-02 -3.490E-05 -3.097E-05
:PTO006:     -2   -2   -2  1.50197724E-02 -3.459E-05 -4.633E-05
:PTO007:      0    0   -4  1.88669500E-03 -3.243E-05 -3.470E-05
:PTO008:     -1   -3   -3  3.93683118E-04 -2.394E-06 -1.547E-05
:PTO009:      0   -2   -4 -3.01580331E-03 -8.751E-07  1.187E-05
:PTO010:     -2   -2   -4 -7.52446601E-03 -6.478E-05 -6.274E-05
:PTO011:     -3   -3   -3  2.80695449E-03  4.041E-05  4.255E-05
:PTO012:     -1   -1   -5  8.18939938E-03  7.221E-05  7.468E-05

:ENE  : ********** TOTAL ENERGY IN Ry =       -18472.08910094

 Flat Integration
 New Mode for Coulomb Integral
 Consistent 3/8+Simpson combinations
 Extension of core to zero
 LDM version in phi
 Fifth-order quadrature in outwin


            ---------
:ITE008:  8. ITERATION
            ---------

:NATO :    1 INDEPENDENT AND    1 TOTAL ATOMS IN UNITCELL
       SUBSTANCE: blebleble                                                   

       LATTICE                      = F   
:POT  : POTENTIAL OPTION EX_LDA EC_LDA VX_LDA VC_LDA
:LAT  : LATTICE CONSTANTS=  9.78725  9.78725  9.78725    1.571    1.571    1.571
:VOL  : UNIT CELL VOLUME =     234.38096
       MODE OF CALCULATION IS       = RELA
       NON-SPINPOLARIZED CALCULATION
:IFFT  : FFT-parameters:   80   80   80 Factor: 2.00


   CONVERGENCE PARAMETER FOR PSEUDOCHARGE: NCON=  9
   MAXIMAL VALUE OF RMT(JATOM)*ABSK(NKK) : RK  =29.89674


:VKCOUL :  VK-COUL convergence: 0.227E-06
       ATOMNUMBER=  1 Pr         VCOUL-ZERO =  0.26487E+00
:FIT001: LUSE= 13 SIGMA OF V-XC FIT FOR ATOM  1  0.4828945E-04
:FIT001: LUSE= 13 SIGMA OF V-XC FIT FOR ATOM  1  0.4828945E-04
:DEN  : DENSITY INTEGRAL  =         -7072.19808288   (Ry)
       ELS_POTENTIAL_AT Z=0 and Z=0.5:  -2.51810  -2.51810
       ELS_POTENTIAL_AT Y=0 and Y=0.5:   0.00000   0.00000
:VZERO:v0,v0c,v0x  -3.49766  -2.51810  -0.97957 v5,v5c,v5x  -3.49766  -2.51810  -0.97957
:VZERY:v0,v0c,v0x  -0.72030   0.00000  -0.72030 v5,v5c,v5x  -0.72030   0.00000  -0.72030
:VZERX:v0,v0c,v0x  -0.72030   0.00000  -0.72030 v5,v5c,v5x  -0.72030   0.00000  -0.72030
:LMAX-WF:   10   Non-Spherical LMAX:   4

          ATOMIC SPHERE DEPENDENT PARAMETERS FOR ATOM  Pr        
:e__0001: OVERALL ENERGY PARAMETER IS    0.3997
          OVERALL BASIS SET ON ATOM IS LAPW
:E0_0001: E( 0)=    0.3997
             APW+lo
:E0_0001: E( 0)=   -2.0770   E(BOTTOM)=   -2.457   E(TOP)=   -1.697  4  5   169
             LOCAL ORBITAL
:E1_0001: E( 1)=    0.7997
             APW+lo
:E1_0001: E( 1)=   -0.6883   E(BOTTOM)=   -1.334   E(TOP)=   -0.043  3  4   174
             LOCAL ORBITAL
:E3_0001: E( 3)=    0.5882   E(BOTTOM)=    0.448   E(TOP)=    0.729  0  1   116
             APW+lo
:E2_0001: E( 2)=    0.3997   E(BOTTOM)=    0.242   E(TOP)= -200.000  2 -1    88
             APW+lo

       K=   0.00000   0.00000   0.00000            1
:RKM  : MATRIX SIZE   189LOs:  20  RKM= 8.34  WEIGHT= 1.00  PGR:    
       EIGENVALUES ARE:
:EIG00001:      -2.0397395   -0.6657717   -0.6657717   -0.6657717    0.3467716
:EIG00006:       0.5830208    0.6019141    0.6019141    0.6019141    0.6276362
:EIG00011:       0.6276362    0.6276362    0.7303485    0.7303485    0.7303485
:EIG00016:       0.9086437    0.9086437    1.3143095    1.5482432    1.5482432
:EIG00021:       1.5482432    1.6525485
       ********************************************************

:KPT   :      NUMBER OF K-POINTS:   165
:GAP (global)   :    0.0    Ry =     0.0   eV (metal)
         Bandranges (emin - emax) and occupancy:
:BAN00001:   1   -2.039739   -2.024239  2.00000000
:BAN00002:   2   -0.756766   -0.665772  2.00000000
:BAN00003:   3   -0.724882   -0.665772  2.00000000
:BAN00004:   4   -0.699526   -0.665772  2.00000000
:BAN00005:   5    0.346772    0.566885  2.00000000
:BAN00006:   6    0.517473    0.596355  2.00000000
:BAN00007:   7    0.581273    0.606840  1.00012202
:BAN00008:   8    0.598229    0.609860 -0.00012202
:BAN00009:   9    0.601914    0.614616  0.00000000
:BAN00010:  10    0.609315    0.627636  0.00000000
:BAN00011:  11    0.611940    0.627636  0.00000000
:BAN00012:  12    0.615090    0.636753  0.00000000
:BAN00013:  13    0.622097    0.734870  0.00000000
        Energy to separate low and high energystates:    0.29677


:NOE  : NUMBER OF ELECTRONS          =   13.000

:FER  : F E R M I - ENERGY(TETRAH.M.)=   0.5973602840
:GMA  : POTENTIAL AND CHARGE CUT-OFF  12.00 Ry**.5

:POS001: ATOM    1 X,Y,Z = 0.00000 0.00000 0.50000  MULT= 1  ZZ= 59.000  Pr        

       LMMAX  5
       LM=   0 0  4 0  4 4  6 0  6 4

:CHA001: TOTAL VALENCE CHARGE INSIDE SPHERE   1 =  10.0969    (RMT=  2.5000 )
:PCS001: PARTIAL CHARGES SPHERE =  1 S,P,D,F,      D-EG,D-T2G 
:QTL001: 2.0319 5.3535 0.6442 2.0669 0.0000 0.0000 0.0000 0.2300 0.4142 0.0000 0.0000 0.0000
        Q-s-low E-s-low   Q-p-low E-p-low   Q-d-low E-d-low   Q-f-low E-f-low
:EPL001:  1.9257 -2.0273    5.2847 -0.7040    0.0015 -0.7215    0.0004 -0.7233
        Q-s-hi  E-s-hi    Q-p-hi  E-p-hi    Q-d-hi  E-d-hi    Q-f-hi  E-f-hi 
:EPH001:  0.1062  0.4960    0.0688  0.5336    0.6426  0.5438    2.0665  0.5820

:CHA  : TOTAL VALENCE CHARGE INSIDE UNIT CELL =      13.000000

:SUM  : SUM OF EIGENVALUES =          -5.517641615


        1.ATOM      Pr                   14 CORE STATES
:1S 001: 1S               -3067.012455862 Ry
:2S 001: 2S                -492.765477783 Ry
:2PP001: 2P*               -465.864620376 Ry
:2P 001: 2P                -430.467130155 Ry
:3S 001: 3S                -105.854797849 Ry
:3PP001: 3P*                -94.392699653 Ry
:3P 001: 3P                 -87.384770866 Ry
:3DD001: 3D*                -67.311988844 Ry
:3D 001: 3D                 -65.800400545 Ry
:4S 001: 4S                 -20.528384288 Ry
:4PP001: 4P*                -16.234977258 Ry
:4P 001: 4P                 -14.707261787 Ry
:4DD001: 4D*                 -7.639659135 Ry
:4D 001: 4D                  -7.370148341 Ry
:CINT001 Core Integral Atom   1   45.999521

       DENSITY AT NUCLEUS
        JATOM        VALENCE       SEMI-CORE          CORE           TOTAL
:RTO001:   1      652.425187        0.000000   656825.340323   657477.765510
     
       CHARGES OF NEW CHARGE DENSITY
:NTO   : INTERSTITIAL CHARGE =     2.903126
:NPC   : PW Pseudocharge     =     7.663387
:NTO001: CHARGE SPHERE  1    =    56.096395

:NEC01: NUCLEAR AND ELECTRONIC CHARGE     59.00000    58.99952
     
       CHARGES OF OLD CHARGE DENSITY
:OTO   : INTERSTITIAL CHARGE =     2.900011
:OPC   : PW Pseudocharge     =     7.663765
:OTO001: CHARGE SPHERE  1    =    56.099989

:NEC02: NUCLEAR AND ELECTRONIC CHARGE     59.00000    59.00000
     
       CONVERGENCE TEST
:DTO001: DIFFERENCE IN SPHERE  1 =  0.0065608

:DIS  :  CHARGE DISTANCE       ( 0.0065608 for atom    1 spin 1)      0.0065608
 PW Mixed is           53
 
******************************************************
* MULTISECANT MIXING VER9 RELEASE 10.4.0              *
* Standard Mode with controls                        *
* Fixed density scale                                *
* Regularization       1.000E-04                     *
* Trust Upper Limit    5.000E+00                     *
* Max Number of Memory Steps    8                    *
******************************************************
 
:PWTMP   1.6893E+02  1.2500E+02  2.3438E+02
:PLANE:  PW TOTAL      3.0739 DISTAN   8.63E-04  2.81E-02 %
:CHARG:  CLM/ATOM    977.1887 DISTAN   9.98E-03  1.02E-03 %
 
Step History
        DMIX         DMIXT        Red     Pred      Trust     Lambda    MagRel    MagAbs     Beta
  1   3.5000E-02   3.5000E-02 -1.00E+00  1.00E+00 -1.00E+01  1.00E+00  3.50E-02  3.50E-02  1.00E+00
  2   2.5000E-02   2.5000E-02  7.37E-01  1.00E+00 -1.00E+01  1.00E+00  2.50E-02  2.22E-02  1.00E+00
  3   3.1154E-02   3.1154E-02  9.17E-01  1.00E+00 -1.00E+01  7.93E-02  3.12E-02  2.04E-02  1.00E+00
  4   2.5331E-02   2.5331E-02  9.53E-01  8.06E-01  2.11E-01  1.48E+00  1.02E-01  6.09E-02  8.00E-01
  5   6.3328E-02   5.7201E-02  7.26E-01  8.25E-01  2.72E-01  5.73E-01  2.72E-01  1.55E-01  1.00E+00
  6   1.5832E-01   1.4476E-01  6.81E-01  5.49E-01  4.29E-01  1.00E+00  4.29E-01  1.78E-01  1.00E+00
  7   3.5000E-01   3.3649E-01  1.97E-01  2.47E-01  6.58E-01  1.31E+00  6.58E-01  1.86E-01  1.00E+00
  8   3.5000E-01   3.5000E-01 -1.00E+00  2.20E-01  1.27E+00  1.00E+00  7.46E-01  4.15E-02  1.00E+00
:JACOBIANS    9.993E-01   1.484E+00
  
:NORMS:  1/Froebius, Min, Max, Used   0.8614E+00  0.5415E+00  0.1083E+01  0.8898E+00
:INFO :  Number of Memory Steps    7 Skipping    0
:INFO :  SLambda=    1.3690102119  Max    1.4000000000
:PREDicted Charge, CTotal, PW Trust    8.035E-04   8.035E-04   2.726E-03
:PREDicted DMix, Beta, BLim   1.6188E-01  1.1114E+00  1.5125E+00

Eigenvalues, unscaled except for SY+YY
   #     SY Real        SY Imag          SS             YY         SY+YY Real      SY+YY Imag
   1   4.825782E+00   0.000000E+00   4.776172E+00   6.031804E+00   1.258638E+01   0.000000E+00
   2   3.277098E-01   0.000000E+00   3.127450E-01   5.744692E-01   9.567251E-01   0.000000E+00
   3   1.256577E-01   0.000000E+00   1.032053E-01   2.240692E-01   3.650111E-01   0.000000E+00
   4   3.363779E-02   0.000000E+00   2.366888E-03   1.695298E-01   3.650111E-01   0.000000E+00
   5   9.239383E-05   0.000000E+00   6.558912E-05   1.270293E-04   2.537780E-04   0.000000E+00
   6   2.227040E-16   0.000000E+00   1.907383E-08   5.319090E-07   1.179385E-07   0.000000E+00
   7   1.002537E-07   0.000000E+00   1.065590E-16   1.168430E-07   7.017215E-07   0.000000E+00
 
:INFO :  Singular value  1.259E+01 Weight  1.000E+00 Projection  2.172E-03
:INFO :  Singular value  9.578E-01 Weight  1.000E+00 Projection -2.724E-03
:INFO :  Singular value  3.843E-01 Weight  1.000E+00 Projection -2.449E-03
:INFO :  Singular value  3.462E-01 Weight  1.000E+00 Projection  7.199E-03
:INFO :  Singular value  2.545E-04 Weight  1.511E-01 Projection -8.912E-02
:INFO :  Singular value  7.149E-07 Weight  1.405E-06 Projection -3.074E-06
:INFO :  Singular value  1.154E-07 Weight  3.663E-08 Projection -3.034E-08
:RANK :  ACTIVE   4.15/7  =  59.30 % ; YY RANK   4.04/7  =  57.75 %
 
:BLIM :  VZERO Control Off
:TRUST:  Step 1.89E+00  Charge 6.00E-02 (e) CTO  2.00E-01 (e) PW  2.80E-01 (e)
:DIRM :  MEMORY  7/8  SCALE   1.000 RED  0.18 PRED  0.22 NEXT  0.58 
:TRAVE:  Charge 1.77E-03 (e) CTO  1.77E-03 (e) PW  7.99E-03 (e)
:DIRP :  |MSR1|= 2.317E-04 |PRATT|= 8.631E-04 ANGLE=  62.9 DEGREES
:DIRQ :  |MSR1|= 5.403E-03 |PRATT|= 9.980E-03 ANGLE=  41.7 DEGREES
:DIRT :  |MSR1|= 5.408E-03 |PRATT|= 1.002E-02 ANGLE=  41.9 DEGREES
:MIX  :   MSE1   REGULARIZATION:  6.03E-04 GREED: 0.22494  Newton 1.00  0.5398                
     
       CHARGES OF MIXED CHARGE DENSITY
:CTO   : INTERSTITIAL CHARGE =     2.900255
:CPC   : PW Pseudocharge     =     7.663916
:CTO001: CHARGE SPHERE  1    =    56.099745

:NEC03: NUCLEAR AND ELECTRONIC CHARGE     59.00000    59.00000

PW CHANGE     H    K    L      Current       Change    Residue
:PTO001:      0    0    0  4.50726510E-02  1.689E-06  1.913E-05
:PTO002:     -1   -1   -1 -1.36894965E-01  3.266E-06  1.717E-05
:PTO003:      0    0   -2  8.03628587E-02  4.230E-06  3.579E-06
:PTO004:      0   -2   -2  6.69369534E-02  1.018E-05  3.251E-06
:PTO005:     -1   -1   -3 -6.02912591E-02  4.160E-06 -5.065E-06
[...]
            ---------

:NATO :    1 INDEPENDENT AND    1 TOTAL ATOMS IN UNITCELL
       SUBSTANCE: blebleble                                                   

       LATTICE                      = F   
:POT  : POTENTIAL OPTION EX_LDA EC_LDA VX_LDA VC_LDA
:LAT  : LATTICE CONSTANTS=  9.78725  9.78725  9.78725    1.571    1.571    1.571
:VOL  : UNIT CELL VOLUME =     234.38096
       MODE OF CALCULATION IS       = RELA
       NON-SPINPOLARIZED CALCULATION
:IFFT  : FFT-parameters:   80   80   80 Factor: 2.00


   CONVERGENCE PARAMETER FOR PSEUDOCHARGE: NCON=  9
   MAXIMAL VALUE OF RMT(JATOM)*ABSK(NKK) : RK  =29.89674


:VKCOUL :  VK-COUL convergence: 0.229E-06
       ATOMNUMBER=  1 Pr         VCOUL-ZERO =  0.26484E+00
:FIT001: LUSE= 13 SIGMA OF V-XC FIT FOR ATOM  1  0.4852614E-04
:FIT001: LUSE= 13 SIGMA OF V-XC FIT FOR ATOM  1  0.4852614E-04
:DEN  : DENSITY INTEGRAL  =         -7072.18942607   (Ry)
       ELS_POTENTIAL_AT Z=0 and Z=0.5:  -2.51807  -2.51807
       ELS_POTENTIAL_AT Y=0 and Y=0.5:   0.00000   0.00000
:VZERO:v0,v0c,v0x  -3.49775  -2.51807  -0.97968 v5,v5c,v5x  -3.49775  -2.51807  -0.97968
:VZERY:v0,v0c,v0x  -0.72032   0.00000  -0.72032 v5,v5c,v5x  -0.72032   0.00000  -0.72032
:VZERX:v0,v0c,v0x  -0.72032   0.00000  -0.72032 v5,v5c,v5x  -0.72032   0.00000  -0.72032
:LMAX-WF:   10   Non-Spherical LMAX:   4

          ATOMIC SPHERE DEPENDENT PARAMETERS FOR ATOM  Pr        
:e__0001: OVERALL ENERGY PARAMETER IS    0.3971
          OVERALL BASIS SET ON ATOM IS LAPW
:E0_0001: E( 0)=    0.3971
             APW+lo
:E0_0001: E( 0)=   -2.0772   E(BOTTOM)=   -2.457   E(TOP)=   -1.697  4  5   168
             LOCAL ORBITAL
:E1_0001: E( 1)=    0.7971
             APW+lo
:E1_0001: E( 1)=   -0.6884   E(BOTTOM)=   -1.334   E(TOP)=   -0.043  3  4   177
             LOCAL ORBITAL
:E3_0001: E( 3)=    0.5879   E(BOTTOM)=    0.447   E(TOP)=    0.728  0  1   116
             APW+lo
:E2_0001: E( 2)=    0.3971   E(BOTTOM)=    0.242   E(TOP)= -200.000  2 -1    91
             APW+lo

       K=   0.00000   0.00000   0.00000            1
:RKM  : MATRIX SIZE   189LOs:  20  RKM= 8.34  WEIGHT= 1.00  PGR:    
       EIGENVALUES ARE:
:EIG00001:      -2.0399005   -0.6659007   -0.6659007   -0.6659007    0.3467728
:EIG00006:       0.5827738    0.6016079    0.6016079    0.6016079    0.6273270
:EIG00011:       0.6273270    0.6273270    0.7303113    0.7303113    0.7303113
:EIG00016:       0.9085872    0.9085872    1.3142616    1.5482411    1.5482411
:EIG00021:       1.5482411    1.6526077
       ********************************************************

:KPT   :      NUMBER OF K-POINTS:   165
:GAP (global)   :    0.0    Ry =     0.0   eV (metal)
         Bandranges (emin - emax) and occupancy:
:BAN00001:   1   -2.039900   -2.024403  2.00000000
:BAN00002:   2   -0.756876   -0.665901  2.00000000
:BAN00003:   3   -0.724999   -0.665901  2.00000000
:BAN00004:   4   -0.699648   -0.665901  2.00000000
:BAN00005:   5    0.346773    0.566789  2.00000000
:BAN00006:   6    0.517446    0.596083  2.00000000
:BAN00007:   7    0.581055    0.606544  1.00011829
:BAN00008:   8    0.597964    0.609567 -0.00011829
:BAN00009:   9    0.601608    0.614362  0.00000000
:BAN00010:  10    0.609018    0.627327  0.00000000
:BAN00011:  11    0.611650    0.627327  0.00000000
:BAN00012:  12    0.614777    0.636546  0.00000000
:BAN00013:  13    0.621822    0.734821  0.00000000
        Energy to separate low and high energystates:    0.29677


:NOE  : NUMBER OF ELECTRONS          =   13.000

:FER  : F E R M I - ENERGY(TETRAH.M.)=   0.5970944000
:GMA  : POTENTIAL AND CHARGE CUT-OFF  12.00 Ry**.5

:POS001: ATOM    1 X,Y,Z = 0.00000 0.00000 0.50000  MULT= 1  ZZ= 59.000  Pr        

       LMMAX  5
       LM=   0 0  4 0  4 4  6 0  6 4

:CHA001: TOTAL VALENCE CHARGE INSIDE SPHERE   1 =  10.1000    (RMT=  2.5000 )
:PCS001: PARTIAL CHARGES SPHERE =  1 S,P,D,F,      D-EG,D-T2G 
:QTL001: 2.0319 5.3534 0.6429 2.0715 0.0000 0.0000 0.0000 0.2295 0.4133 0.0000 0.0000 0.0000
        Q-s-low E-s-low   Q-p-low E-p-low   Q-d-low E-d-low   Q-f-low E-f-low
:EPL001:  1.9257 -2.0275    5.2848 -0.7041    0.0015 -0.7216    0.0004 -0.7234
        Q-s-hi  E-s-hi    Q-p-hi  E-p-hi    Q-d-hi  E-d-hi    Q-f-hi  E-f-hi 
:EPH001:  0.1061  0.4960    0.0686  0.5334    0.6413  0.5436    2.0711  0.5818

:CHA  : TOTAL VALENCE CHARGE INSIDE UNIT CELL =      13.000000

:SUM  : SUM OF EIGENVALUES =          -5.519360620


        1.ATOM      Pr                   14 CORE STATES
:1S 001: 1S               -3067.011928746 Ry
:2S 001: 2S                -492.765252964 Ry
:2PP001: 2P*               -465.864339217 Ry
:2P 001: 2P                -430.466871194 Ry
:3S 001: 3S                -105.855007360 Ry
:3PP001: 3P*                -94.392886401 Ry
:3P 001: 3P                 -87.384978657 Ry
:3DD001: 3D*                -67.312140325 Ry
:3D 001: 3D                 -65.800559773 Ry
:4S 001: 4S                 -20.528784696 Ry
:4PP001: 4P*                -16.235370761 Ry
:4P 001: 4P                 -14.707650943 Ry
:4DD001: 4D*                 -7.640031303 Ry
:4D 001: 4D                  -7.370518498 Ry
:CINT001 Core Integral Atom   1   45.999521

       DENSITY AT NUCLEUS
        JATOM        VALENCE       SEMI-CORE          CORE           TOTAL
:RTO001:   1      652.429500        0.000000   656825.250242   657477.679743
     
       CHARGES OF NEW CHARGE DENSITY
:NTO   : INTERSTITIAL CHARGE =     2.899968
:NPC   : PW Pseudocharge     =     7.662173
:NTO001: CHARGE SPHERE  1    =    56.099552

:NEC01: NUCLEAR AND ELECTRONIC CHARGE     59.00000    58.99952
     
       CHARGES OF OLD CHARGE DENSITY
:OTO   : INTERSTITIAL CHARGE =     2.900432
:OPC   : PW Pseudocharge     =     7.663409
:OTO001: CHARGE SPHERE  1    =    56.099568

:NEC02: NUCLEAR AND ELECTRONIC CHARGE     59.00000    59.00000
     
       CONVERGENCE TEST
:DTO001: DIFFERENCE IN SPHERE  1 =  0.0000219

:DIS  :  CHARGE DISTANCE       ( 0.0000219 for atom    1 spin 1)      0.0000219
 PW Mixed is           53
 
******************************************************
* MULTISECANT MIXING VER9 RELEASE 10.4.0              *
* Standard Mode with controls                        *
* Fixed density scale                                *
* Regularization       1.000E-04                     *
* Trust Upper Limit    5.000E+00                     *
* Max Number of Memory Steps    8                    *
******************************************************
 
:PWTMP   1.6893E+02  1.2500E+02  2.3438E+02
:PLANE:  PW TOTAL      3.0738 DISTAN   1.83E-05  5.95E-04 %
:CHARG:  CLM/ATOM    977.1900 DISTAN   2.32E-05  2.37E-06 %
 
Step History
        DMIX         DMIXT        Red     Pred      Trust     Lambda    MagRel    MagAbs     Beta
  4   2.5331E-02   2.5331E-02  9.53E-01  8.06E-01  2.11E-01  1.48E+00  1.02E-01  6.09E-02  8.00E-01
  5   6.3328E-02   5.7201E-02  7.26E-01  8.25E-01  2.72E-01  5.73E-01  2.72E-01  1.55E-01  1.00E+00
  6   1.5832E-01   1.4476E-01  6.81E-01  5.49E-01  4.29E-01  1.00E+00  4.29E-01  1.78E-01  1.00E+00
  7   3.5000E-01   3.3649E-01  1.97E-01  2.47E-01  6.58E-01  1.31E+00  6.58E-01  1.86E-01  1.00E+00
  8   3.5000E-01   3.5000E-01  1.80E-01  2.20E-01  1.27E+00  1.37E+00  7.46E-01  4.15E-02  1.00E+00
  9   2.2494E-01   2.2494E-01  4.93E-01  5.84E-01  1.89E+00  1.36E+00  5.40E-01  5.41E-03  1.00E+00
 10   3.5000E-01   3.5000E-01  1.25E-01  1.99E-01  2.51E+00  7.92E-01  8.55E-01  4.22E-03  1.00E+00
 11   2.3497E-01   2.3497E-01  6.30E-01  4.04E-01  8.35E+00  1.19E+00  7.19E-01  4.42E-04  9.21E-01
 12   3.2219E-01   3.2219E-01 -1.00E+00  6.46E-02  1.11E+01  1.00E+00  5.32E-01  2.06E-04  9.60E-01
:JACOBIANS    1.021E+00   3.208E+00
  
:NORMS:  1/Froebius, Min, Max, Used   0.8071E+00  0.6494E+00  0.9921E+00  0.8894E+00
:INFO :  Number of Memory Steps    8 Skipping    3
:INFO :  SLambda=    1.3595911968  Max    1.3595911968
:PREDicted Charge, CTotal, PW Trust    1.456E-05   1.456E-05   9.583E-06
:PREDicted DMix, Beta, BLim   2.7574E-02  1.0044E+00  2.0889E+00

Eigenvalues, unscaled except for SY+YY
   #     SY Real        SY Imag          SS             YY         SY+YY Real      SY+YY Imag
   1   3.450516E+00   0.000000E+00   3.398602E+00   4.296333E+00   8.792542E+00   0.000000E+00
   2   1.340367E+00   0.000000E+00   1.239213E+00   1.960221E+00   3.475451E+00   0.000000E+00
   3   7.332185E-01   0.000000E+00   4.723822E-01   1.407311E+00   2.837908E+00   0.000000E+00
   4   1.166487E-01   0.000000E+00   7.544910E-02   2.032770E-01   3.830277E-01   0.000000E+00
   5   3.536954E-02   0.000000E+00   2.446880E-02   1.100284E-01   1.969616E-01   0.000000E+00
   6   1.413750E-02   0.000000E+00   1.786360E-03   2.273945E-02   5.044257E-02   0.000000E+00
   7   8.464853E-06   0.000000E+00   1.939296E-05   5.943653E-05   4.168145E-05   0.000000E+00
   8   2.658979E-05   0.000000E+00   1.682530E-06   3.045422E-05   9.605249E-05   0.000000E+00
 
:INFO :  Singular value  8.797E+00 Weight  1.000E+00 Projection  3.905E-06
:INFO :  Singular value  3.476E+00 Weight  1.000E+00 Projection  5.483E-07
:INFO :  Singular value  2.839E+00 Weight  1.000E+00 Projection -8.016E-06
:INFO :  Singular value  3.832E-01 Weight  1.000E+00 Projection  1.748E-05
:INFO :  Singular value  1.967E-01 Weight  1.000E+00 Projection  3.407E-06
:INFO :  Singular value  5.048E-02 Weight  9.999E-01 Projection  1.181E-04
:INFO :  Singular value  9.789E-05 Weight  4.935E-02 Projection -5.072E-05
:INFO :  Singular value  4.087E-05 Weight  8.967E-03 Projection  1.563E-05
:RANK :  ACTIVE   6.06/8  =  75.73 % ; YY RANK   6.02/8  =  75.29 %
 
:DLIM :  Beta Active  9.933E-01
:BLIM :  VZERO Control Off
:TRUST:  Step 2.25E+01  Charge 2.46E-02 (e) CTO  8.19E-02 (e) PW  1.15E-01 (e)
:DIRM :  MEMORY  8/8  SCALE   1.000 RED  0.08 PRED  0.06 NEXT  0.43 BETA  0.99
:TRAVE:  Charge 1.26E-04 (e) CTO  1.26E-04 (e) PW  5.27E-04 (e)
:DIRP :  |MSR1|= 1.563E-05 |PRATT|= 1.828E-05 ANGLE=  22.0 DEGREES
:DIRQ :  |MSR1|= 6.742E-06 |PRATT|= 2.317E-05 ANGLE=  63.1 DEGREES
:DIRT :  |MSR1|= 1.702E-05 |PRATT|= 2.951E-05 ANGLE=  48.1 DEGREES
:MIX  :   MSE1   REGULARIZATION:  4.30E-04 GREED: 0.16161  Newton 1.00  0.5767                
     
       CHARGES OF MIXED CHARGE DENSITY
:CTO   : INTERSTITIAL CHARGE =     2.900433
:CPC   : PW Pseudocharge     =     7.663436
:CTO001: CHARGE SPHERE  1    =    56.099567

:NEC03: NUCLEAR AND ELECTRONIC CHARGE     59.00000    59.00000

PW CHANGE     H    K    L      Current       Change    Residue
:PTO001:      0    0    0  4.50713624E-02  1.205E-07  2.043E-07
:PTO002:     -1   -1   -1 -1.36881181E-01 -6.803E-07 -7.970E-07
:PTO003:      0    0   -2  8.03643342E-02  3.614E-07  1.777E-07
:PTO004:      0   -2   -2  6.69276271E-02  5.161E-07  3.392E-07
:PTO005:     -1   -1   -3 -6.03055074E-02 -7.438E-07 -8.210E-07
:PTO006:     -2   -2   -2  1.50141823E-02  2.274E-07  2.685E-07
:PTO007:      0    0   -4  1.88940349E-03  9.956E-08  1.791E-07
:PTO008:     -1   -3   -3  3.71853532E-04 -2.794E-07 -5.488E-07
:PTO009:      0   -2   -4 -2.99519631E-03  2.267E-07  4.705E-07
:PTO010:     -2   -2   -4 -7.51144071E-03  1.055E-07  3.200E-07
:PTO011:     -3   -3   -3  2.80472942E-03 -1.405E-08 -7.742E-08
:PTO012:     -1   -1   -5  8.18373957E-03 -3.605E-08 -2.095E-07

:ENE  : ********** TOTAL ENERGY IN Ry =       -18472.08908629


:LABEL1: Calculations in /home/ykent/GWIEN/example/Pr/V11/case
:LABEL2: on didymium-2.cmpgroup.ameslab.gov at Wed Jul  8 16:10:11 CDT 2020
:LABEL3: using WIEN2k_19.1 (Release 25/6/2019) in /home/ykent/opt/src/WIEN2k_19.1
:LABEL4: using the command: run_lapw -cc 0.0001
 Flat Integration
 New Mode for Coulomb Integral
 Consistent 3/8+Simpson combinations
 Extension of core to zero
 LDM version in phi
 Fifth-order quadrature in outwin


            ---------
:ITE013: 13. ITERATION
            ---------

:NATO :    1 INDEPENDENT AND    1 TOTAL ATOMS IN UNITCELL
       SUBSTANCE: blebleble                                                   

       LATTICE                      = F   
:POT  : POTENTIAL OPTION EX_LDA EC_LDA VX_LDA VC_LDA
:LAT  : LATTICE CONSTANTS=  9.78725  9.78725  9.78725    1.571    1.571    1.571
:VOL  : UNIT CELL VOLUME =     234.38096
       MODE OF CALCULATION IS       = RELA
       NON-SPINPOLARIZED CALCULATION
:IFFT  : FFT-parameters:   80   80   80 Factor: 2.00


   CONVERGENCE PARAMETER FOR PSEUDOCHARGE: NCON=  9
   MAXIMAL VALUE OF RMT(JATOM)*ABSK(NKK) : RK  =29.89674


:VKCOUL :  VK-COUL convergence: 0.229E-06
       ATOMNUMBER=  1 Pr         VCOUL-ZERO =  0.26484E+00
:FIT001: LUSE= 13 SIGMA OF V-XC FIT FOR ATOM  1  0.4852694E-04
:FIT001: LUSE= 13 SIGMA OF V-XC FIT FOR ATOM  1  0.4852694E-04
:DEN  : DENSITY INTEGRAL  =         -7072.18934172   (Ry)
       ELS_POTENTIAL_AT Z=0 and Z=0.5:  -2.51808  -2.51808
       ELS_POTENTIAL_AT Y=0 and Y=0.5:   0.00000   0.00000
:VZERO:v0,v0c,v0x  -3.49775  -2.51808  -0.97968 v5,v5c,v5x  -3.49775  -2.51808  -0.97968
:VZERY:v0,v0c,v0x  -0.72032   0.00000  -0.72032 v5,v5c,v5x  -0.72032   0.00000  -0.72032
:VZERX:v0,v0c,v0x  -0.72032   0.00000  -0.72032 v5,v5c,v5x  -0.72032   0.00000  -0.72032
:LMAX-WF:   10   Non-Spherical LMAX:   4

          ATOMIC SPHERE DEPENDENT PARAMETERS FOR ATOM  Pr        
:e__0001: OVERALL ENERGY PARAMETER IS    0.3971
          OVERALL BASIS SET ON ATOM IS LAPW
:E0_0001: E( 0)=    0.3971
             APW+lo
:E0_0001: E( 0)=   -2.0772   E(BOTTOM)=   -2.457   E(TOP)=   -1.697  4  5   172
             LOCAL ORBITAL
:E1_0001: E( 1)=    0.7971
             APW+lo
:E1_0001: E( 1)=   -0.6884   E(BOTTOM)=   -1.334   E(TOP)=   -0.043  3  4   176
             LOCAL ORBITAL
:E3_0001: E( 3)=    0.5879   E(BOTTOM)=    0.447   E(TOP)=    0.728  0  1   115
             APW+lo
:E2_0001: E( 2)=    0.3971   E(BOTTOM)=    0.242   E(TOP)= -200.000  2 -1    91
             APW+lo

       K=   0.00000   0.00000   0.00000            1
:RKM  : MATRIX SIZE   189LOs:  20  RKM= 8.34  WEIGHT= 1.00  PGR:    
       EIGENVALUES ARE:
:EIG00001:      -2.0399008   -0.6659009   -0.6659009   -0.6659009    0.3467732
:EIG00006:       0.5827732    0.6016072    0.6016072    0.6016072    0.6273263
:EIG00011:       0.6273263    0.6273263    0.7303116    0.7303116    0.7303116
:EIG00016:       0.9085874    0.9085874    1.3142621    1.5482415    1.5482415
:EIG00021:       1.5482415    1.6526082
       ********************************************************

:KPT   :      NUMBER OF K-POINTS:   165
:GAP (global)   :    0.0    Ry =     0.0   eV (metal)
         Bandranges (emin - emax) and occupancy:
:BAN00001:   1   -2.039901   -2.024404  2.00000000
:BAN00002:   2   -0.756877   -0.665901  2.00000000
:BAN00003:   3   -0.725000   -0.665901  2.00000000
:BAN00004:   4   -0.699649   -0.665901  2.00000000
:BAN00005:   5    0.346773    0.566790  2.00000000
:BAN00006:   6    0.517446    0.596083  2.00000000
:BAN00007:   7    0.581055    0.606544  1.00011828
:BAN00008:   8    0.597964    0.609566 -0.00011828
:BAN00009:   9    0.601607    0.614361  0.00000000
:BAN00010:  10    0.609017    0.627326  0.00000000
:BAN00011:  11    0.611649    0.627326  0.00000000
:BAN00012:  12    0.614777    0.636546  0.00000000
:BAN00013:  13    0.621821    0.734821  0.00000000
        Energy to separate low and high energystates:    0.29677


:NOE  : NUMBER OF ELECTRONS          =   13.000

:FER  : F E R M I - ENERGY(TETRAH.M.)=   0.5970938431
:GMA  : POTENTIAL AND CHARGE CUT-OFF  12.00 Ry**.5

:POS001: ATOM    1 X,Y,Z = 0.00000 0.00000 0.50000  MULT= 1  ZZ= 59.000  Pr        

       LMMAX  5
       LM=   0 0  4 0  4 4  6 0  6 4

:CHA001: TOTAL VALENCE CHARGE INSIDE SPHERE   1 =  10.1000    (RMT=  2.5000 )
:PCS001: PARTIAL CHARGES SPHERE =  1 S,P,D,F,      D-EG,D-T2G 
:QTL001: 2.0319 5.3534 0.6429 2.0715 0.0000 0.0000 0.0000 0.2295 0.4133 0.0000 0.0000 0.0000
        Q-s-low E-s-low   Q-p-low E-p-low   Q-d-low E-d-low   Q-f-low E-f-low
:EPL001:  1.9257 -2.0275    5.2848 -0.7041    0.0015 -0.7216    0.0004 -0.7234
        Q-s-hi  E-s-hi    Q-p-hi  E-p-hi    Q-d-hi  E-d-hi    Q-f-hi  E-f-hi 
:EPH001:  0.1061  0.4960    0.0686  0.5334    0.6413  0.5436    2.0711  0.5818

:CHA  : TOTAL VALENCE CHARGE INSIDE UNIT CELL =      13.000000

:SUM  : SUM OF EIGENVALUES =          -5.519362594


        1.ATOM      Pr                   14 CORE STATES
:1S 001: 1S               -3067.011932599 Ry
:2S 001: 2S                -492.765255919 Ry
:2PP001: 2P*               -465.864342362 Ry
:2P 001: 2P                -430.466874269 Ry
:3S 001: 3S                -105.855009017 Ry
:3PP001: 3P*                -94.392888125 Ry
:3P 001: 3P                 -87.384980323 Ry
:3DD001: 3D*                -67.312142146 Ry
:3D 001: 3D                 -65.800561571 Ry
:4S 001: 4S                 -20.528785775 Ry
:4PP001: 4P*                -16.235371835 Ry
:4P 001: 4P                 -14.707651998 Ry
:4DD001: 4D*                 -7.640032322 Ry
:4D 001: 4D                  -7.370519510 Ry
:CINT001 Core Integral Atom   1   45.999521

       DENSITY AT NUCLEUS
        JATOM        VALENCE       SEMI-CORE          CORE           TOTAL
:RTO001:   1      652.429535        0.000000   656825.250539   657477.680075
     
       CHARGES OF NEW CHARGE DENSITY
:NTO   : INTERSTITIAL CHARGE =     2.899957
:NPC   : PW Pseudocharge     =     7.662168
:NTO001: CHARGE SPHERE  1    =    56.099564

:NEC01: NUCLEAR AND ELECTRONIC CHARGE     59.00000    58.99952
     
       CHARGES OF OLD CHARGE DENSITY
:OTO   : INTERSTITIAL CHARGE =     2.900433
:OPC   : PW Pseudocharge     =     7.663436
:OTO001: CHARGE SPHERE  1    =    56.099567

:NEC02: NUCLEAR AND ELECTRONIC CHARGE     59.00000    59.00000
     
       CONVERGENCE TEST
:DTO001: DIFFERENCE IN SPHERE  1 =  0.0000081

:DIS  :  CHARGE DISTANCE       ( 0.0000081 for atom    1 spin 1)      0.0000081
 PW Mixed is           53
 
******************************************************
* MULTISECANT MIXING VER9 RELEASE 10.4.0              *
* Standard Mode with controls                        *
* Fixed density scale                                *
* Regularization       1.000E-04                     *
* Trust Upper Limit    5.000E+00                     *
* Max Number of Memory Steps    8                    *
******************************************************
 
:INFO : Forcing a restart
:PWTMP   1.6893E+02  1.2500E+02  2.3438E+02
:PLANE:  PW TOTAL      3.0738 DISTAN   6.15E-06  2.00E-04 %
:CHARG:  CLM/ATOM    977.1900 DISTAN   8.94E-06  9.15E-07 %
 
Step History
        DMIX         DMIXT        Red     Pred      Trust     Lambda    MagRel    MagAbs     Beta
  1   3.5000E-02   3.5000E-02 -1.00E+00  1.00E+00 -1.00E+01  1.00E+00  3.50E-02  3.50E-02  1.00E+00
:INFO :  Note, Pratt in use
:TRUST:  Step 2.25E-01  Charge 7.50E-02 (e) CTO  2.50E-01 (e) PW  3.50E-01 (e)
:DIRM :  MEMORY  0/ 8 SCALE   1.000
Performing Pseudo Compensation
Final Pseudo Compensation Rescaling     1.00000E+00
:MIX  :   PRATT  REGULARIZATION:  1.00E-04 GREED: 0.15000                  
     
       CHARGES OF MIXED CHARGE DENSITY
:CTO   : INTERSTITIAL CHARGE =     2.900434
:CPC   : PW Pseudocharge     =     7.663434
:CTO001: CHARGE SPHERE  1    =    56.099566

:NEC03: NUCLEAR AND ELECTRONIC CHARGE     59.00000    59.00000

PW CHANGE     H    K    L      Current       Change    Residue
:PTO001:      0    0    0  4.50713597E-02 -2.665E-09  1.483E-08
:PTO002:     -1   -1   -1 -1.36881179E-01  2.003E-09 -1.071E-07
:PTO003:      0    0   -2  8.03643017E-02 -3.255E-08 -1.617E-07
:PTO004:      0   -2   -2  6.69276187E-02 -8.393E-09 -1.884E-07
:PTO005:     -1   -1   -3 -6.03056037E-02 -9.630E-08 -1.033E-07
:PTO006:     -2   -2   -2  1.50142196E-02  3.732E-08  4.489E-08
:PTO007:      0    0   -4  1.88944767E-03  4.418E-08  9.043E-08
:PTO008:     -1   -3   -3  3.71679788E-04 -1.737E-07 -2.711E-07
:PTO009:      0   -2   -4 -2.99502356E-03  1.727E-07  2.546E-07
:PTO010:     -2   -2   -4 -7.51127553E-03  1.652E-07  2.207E-07
:PTO011:     -3   -3   -3  2.80467863E-03 -5.079E-08 -6.468E-08
:PTO012:     -1   -1   -5  8.18358840E-03 -1.512E-07 -1.860E-07

:ENE  : ********** TOTAL ENERGY IN Ry =       -18472.08908630

