
:LABEL1: Calculations in /home/ykent/GWIEN/example/Pr/aU/V4/case
:LABEL2: on didymium-2.cmpgroup.ameslab.gov at Fri Jul 10 14:12:04 CDT 2020
:LABEL3: using WIEN2k_19.1 (Release 25/6/2019) in /home/ykent/opt/src/WIEN2k_19.1
:LABEL4: using the command: run_lapw -so -i 70 -cc 0.0001

:LABEL1: Calculations in /home/ykent/GWIEN/example/Pr/aU/V4/case
:LABEL2: on didymium-2.cmpgroup.ameslab.gov at Fri Jul 10 14:12:28 CDT 2020
:LABEL3: using WIEN2k_19.1 (Release 25/6/2019) in /home/ykent/opt/src/WIEN2k_19.1
:LABEL4: using the command: run_lapw -so -i 70 -cc 0.0001
 Flat Integration
 New Mode for Coulomb Integral
 Consistent 3/8+Simpson combinations
 Extension of core to zero
 LDM version in phi
 Fifth-order quadrature in outwin


            ---------
:ITE015: 15. ITERATION
            ---------

:NATO :    1 INDEPENDENT AND    2 TOTAL ATOMS IN UNITCELL
       SUBSTANCE: aU                                                          

       LATTICE                      = CXY 
:POT  : POTENTIAL OPTION EX_LDA EC_LDA VX_LDA VC_LDA
:LAT  : LATTICE CONSTANTS=  5.26305 10.68006  9.22032    1.571    1.571    1.571
:VOL  : UNIT CELL VOLUME =     259.13599
       MODE OF CALCULATION IS       = RELA
       NON-SPINPOLARIZED CALCULATION
:IFFT  : FFT-parameters:   48   90   72 Factor: 2.00


   CONVERGENCE PARAMETER FOR PSEUDOCHARGE: NCON=  9
   MAXIMAL VALUE OF RMT(JATOM)*ABSK(NKK) : RK  =27.59449


:VKCOUL :  VK-COUL convergence: 0.287E-06
       ATOMNUMBER=  1 Pr1        VCOUL-ZERO =  0.72872E+00
:EFG001:                        EFG         =     9.55564   *10**21  V / m**2
                               V20  TOT/SRF=    -6.62160    -0.07768
                               V22  TOT/SRF=    -5.73266    -0.01382
                               V22M TOT/SRF=     0.00000     0.00000
                               V21  TOT/SRF=     0.00000     0.00000
                               V21M TOT/SRF=     0.00000     0.00000

             -1.90968    0.00000    0.00000       -1.90968    0.00000    0.00000
              0.00000    9.55564    0.00000        0.00000    9.55564    0.00000
              0.00000    0.00000   -7.64596        0.00000    0.00000   -7.64596

         MAIN DIRECTIONS OF THE EFG   1.0000  0.0000  0.0000
                                      0.0000  1.0000  0.0000
                                      0.0000  0.0000  1.0000
:ANG001:  ANGLE WITH OLD X-AXIS =         0.0

:ETA001:                         ASYMM. ETA =     0.60030


     HELLMANN-FEYNMAN-FORCE IN mRy/a.u. = |F|  Fx       Fy             Fz
:FHF001:   1.ATOM   1517.741578335359      0.000000000000      0.000000000000  -1517.741578335359

:FIT001: LUSE= 13 SIGMA OF V-XC FIT FOR ATOM  1  0.1251212E-03
:FIT001: LUSE= 13 SIGMA OF V-XC FIT FOR ATOM  1  0.1251212E-03
:DEN  : DENSITY INTEGRAL  =        -14226.08672567   (Ry)
       ELS_POTENTIAL_AT Z=0 and Z=0.5:   1.06304   1.06304
       ELS_POTENTIAL_AT Y=0 and Y=0.5:  -0.02588  -0.02588
:VZERO:v0,v0c,v0x   0.29028   1.06304  -0.77275 v5,v5c,v5x   0.29028   1.06304  -0.77275
:VZERY:v0,v0c,v0x  -1.02395  -0.02588  -0.99807 v5,v5c,v5x  -1.02395  -0.02588  -0.99807
:VZERX:v0,v0c,v0x  -1.32763  -0.39634  -0.93129 v5,v5c,v5x  -1.32763  -0.39634  -0.93129
:LMAX-WF:   10   Non-Spherical LMAX:   4

          ATOMIC SPHERE DEPENDENT PARAMETERS FOR ATOM  Pr1       
:e__0001: OVERALL ENERGY PARAMETER IS    1.0630
          OVERALL BASIS SET ON ATOM IS LAPW
:E0_0001: E( 0)=    1.0630
             APW+lo
:E0_0001: E( 0)=   -1.3575   E(BOTTOM)=   -2.000   E(TOP)=   -0.715  4  5   252
             LOCAL ORBITAL
:E1_0001: E( 1)=    1.4630
             APW+lo
:E1_0001: E( 1)=    0.1092   E(BOTTOM)=   -0.858   E(TOP)=    1.077  3  4   254
             LOCAL ORBITAL
:E3_0001: E( 3)=    1.2864   E(BOTTOM)=    1.078   E(TOP)=    1.495  0  1   125
             APW+lo
:E2_0001: E( 2)=    1.0630   E(BOTTOM)=    0.874   E(TOP)= -200.000  2 -1   120
             APW+lo

       K=   0.06250   0.00000   0.06250            1
:RKM  : MATRIX SIZE   266LOs:  40  RKM= 8.47  WEIGHT= 4.00  PGR:    
       EIGENVALUES ARE:
:EIG00001:      -1.4273309   -1.3231530   -0.2628839    0.0451914    0.1188494
:EIG00006:       0.1468056    0.1754025    0.1789948    1.1022650    1.1575100
:EIG00011:       1.2234202    1.2308854    1.2348078    1.2479378    1.2714687
:EIG00016:       1.2972224    1.3088153    1.3135569    1.3211397    1.3256090
:EIG00021:       1.3387942    1.3393536    1.3418696    1.3706590    1.3874457
:EIG00026:       1.4289428    1.5132037    1.5205808    1.6032850    1.6502068
:EIG00031:       1.7228856    1.9088135    1.9748676    2.0223436    2.3141342
:EIG00036:       2.3603757    2.4005336    2.6711001    2.6856268    2.8328854
:EIG00041:       3.0401008    3.0837440    3.2488903    3.3135116    3.4614339
:EIG00046:       3.4706129    3.4984230    3.6771806    3.6916334    3.8339578
 
:EIG00051:       3.9496823    4.0935338    4.1641843    4.3067734    4.3325638
:EIG00056:       4.4296047    4.4980283    4.7060235    4.7499819    4.7587574
:EIG00061:       4.7984962    4.9291183    4.9846040    5.1326742    5.1778858
:EIG00066:       5.2091615    5.2320484    5.2578574    5.4050857    5.4776998
:EIG00071:       5.5421548    5.6286839    5.6912084    5.7477347    5.7479828
:EIG00076:       5.7689685    5.8149716    5.8313917    5.8631654    5.9613563
:EIG00081:       5.9838745    6.0412787    6.0670526    6.1546282    6.2106422
:EIG00086:       6.2258674    6.3609027    6.4472351    6.4690644    6.5375568
:EIG00091:       6.6010642    6.6686339    6.6959761    6.7300326    6.7315912
:EIG00096:       6.8982966    6.9367773    6.9800187    6.9913214    7.0786068
 
:EIG00101:       7.1530700    7.2140369    7.2681266    7.3039502    7.3164315
:EIG00106:       7.4201114    7.4840719    7.5711127    7.6430600    7.8163521
:EIG00111:       7.9239042    7.9355297    7.9486383    8.0287900    8.1411127
:EIG00116:       8.1905502    8.4032233    8.4690790    8.5109542    8.5579881
:EIG00121:       8.5923910    8.6280876    8.6629183
       ********************************************************

:KPT   :      NUMBER OF K-POINTS:   288
   0.0   0.0 angle (M,z), angle (M,x) deg
 
        SPIN-ORBIT EIGENVALUES:
     K=   0.06250   0.00000   0.06250            1
      MATRIX SIZE=  246   WEIGHT= 4.00
     EIGENVALUES ARE:
          -1.4273343   -1.4273343   -1.3231563   -1.3231563   -0.2899052
          -0.2899052   -0.0161858   -0.0161858    0.0294447    0.0294447
           0.2049362    0.2049362    0.2128280    0.2128280    0.2406999
           0.2406999    1.1021719    1.1021719    1.1576555    1.1576555
           1.2221831    1.2221831    1.2293669    1.2293669    1.2333374
           1.2333374    1.2467857    1.2467857    1.2694394    1.2694394
           1.2920793    1.2920793    1.3037363    1.3037363    1.3132080
           1.3132080    1.3252856    1.3252856    1.3285479    1.3285479

           1.3385621    1.3385621    1.3411596    1.3411597    1.3456732
           1.3456733    1.3726818    1.3726818    1.3888713    1.3888713
           1.4291853    1.4291854    1.5096627    1.5096627    1.5242341
           1.5242342    1.6038295    1.6038295    1.6502274    1.6502274
           1.7232088    1.7232088    1.9090292    1.9090292    1.9749121
           1.9749121    2.0226899    2.0226899    2.3146866    2.3146866
           2.3604759    2.3604759    2.4005526    2.4005526    2.6707832
           2.6707832    2.6855764    2.6855764    2.8322794    2.8322794

           3.0404931    3.0404931    3.0834196    3.0834196    3.2490000
           3.2490000    3.3130573    3.3130573    3.4613540    3.4613540
           3.4701858    3.4701858    3.4987091    3.4987091    3.6748044
           3.6748044    3.6941189    3.6941189    3.8343169    3.8343169
           3.9494197    3.9494197    4.0922700    4.0922700    4.1640066
           4.1640066    4.3063548    4.3063548    4.3324363    4.3324363
           4.4297035    4.4297035    4.4951594    4.4951594
       ********************************************************
:GAP (global)   :    0.0    Ry =     0.0   eV (metal)
:GAP (this spin):    0.0    Ry =     0.0   eV (metal)
         Bandranges (emin - emax) and occupancy:
:BAN00020:  20    1.047583    1.213129  1.00000000
:BAN00021:  21    1.103548    1.259587  1.00000000
:BAN00022:  22    1.103548    1.259587  1.00000000
:BAN00023:  23    1.167638    1.267293  0.98119248
:BAN00024:  24    1.167638    1.267293  0.98119248
:BAN00025:  25    1.217825    1.289110  0.62668814
:BAN00026:  26    1.217825    1.289110  0.62668811
:BAN00027:  27    1.235860    1.302590  0.37366460
:BAN00028:  28    1.235860    1.302590  0.37366457
:BAN00029:  29    1.250930    1.304050  0.01845482
:BAN00030:  30    1.250930    1.304050  0.01845481
:BAN00031:  31    1.266076    1.311038  0.00000000
:BAN00032:  32    1.266076    1.311038  0.00000000
:BAN00033:  33    1.293802    1.323805  0.00000000
:BAN00034:  34    1.293802    1.323805  0.00000000
:BAN00035:  35    1.301098    1.330355  0.00000000
        Energy to separate low and high energystates:    0.94161


:NOE  : NUMBER OF ELECTRONS          =   26.000

:FER  : F E R M I - ENERGY(TETRAH.M.)=   1.2612204635
:GMA  : POTENTIAL AND CHARGE CUT-OFF  12.00 Ry**.5

:POS001: ATOM   -1 X,Y,Z = 0.00000 0.89750 0.25000  MULT= 2  ZZ= 59.000  Pr1       

       LMMAX 16
       LM=   0 0  1 0  2 0  2 2  3 0  3 2  4 0  4 2  4 4  5 0  5 2  5 4  6 0  6 2  6 4  6 6

:CHA001: TOTAL VALENCE CHARGE INSIDE SPHERE   1 =   9.9402    (RMT=  2.3000 )
:PCS001: PARTIAL CHARGES SPHERE =  1 S,P,D,F,PX,PY,PZ,D-Z2,D-X2Y2,D-XY,D-XZ,D-YZ 
:QTL001: 1.9262 4.9540 0.9416 2.1136 1.6529 1.6461 1.6550 0.1851 0.1673 0.1931 0.1951 0.2011
        Q-s-low E-s-low   Q-p-low E-p-low   Q-d-low E-d-low   Q-f-low E-f-low
:EPL001:  1.8705 -1.3118    4.8607 -0.0209    0.0347 -0.0497    0.0115 -0.0533
        Q-s-hi  E-s-hi    Q-p-hi  E-p-hi    Q-d-hi  E-d-hi    Q-f-hi  E-f-hi 
:EPH001:  0.0557  1.1686    0.0932  1.1793    0.9070  1.1525    2.1021  1.2190

                      VXX         VYY         VZZ       UP TO R
:VZZ001:            -1.99084     9.34284    -7.35201       2.300

:CHA  : TOTAL VALENCE CHARGE INSIDE UNIT CELL =      26.000000

:SUM  : SUM OF EIGENVALUES =           6.222296368


        1.ATOM      Pr1                  14 CORE STATES
       CORE-FORCE in mRy/a.u. = |F|      Fx             Fy             Fz
:FCO001:   1.ATOM   1529.603978854703      0.000000000000      0.000000000000   1529.603978854703

:1S 001: 1S               -3066.312139046 Ry
:2S 001: 2S                -492.063905933 Ry
:2PP001: 2P*               -465.162507967 Ry
:2P 001: 2P                -429.765175572 Ry
:3S 001: 3S                -105.163314641 Ry
:3PP001: 3P*                -93.700810410 Ry
:3P 001: 3P                 -86.693154755 Ry
:3DD001: 3D*                -66.618814408 Ry
:3D 001: 3D                 -65.107379160 Ry
:4S 001: 4S                 -19.829334427 Ry
:4PP001: 4P*                -15.535057265 Ry
:4P 001: 4P                 -14.006147887 Ry
:4DD001: 4D*                 -6.936238667 Ry
:4D 001: 4D                  -6.666334351 Ry
:CINT001 Core Integral Atom   1   45.998475

       DENSITY AT NUCLEUS
        JATOM        VALENCE       SEMI-CORE          CORE           TOTAL
:RTO001:   1      638.569937        0.000000   656826.697025   657465.266961
     
       CHARGES OF NEW CHARGE DENSITY
:NTO   : INTERSTITIAL CHARGE =     6.119675
:NPC   : PW Pseudocharge     =    17.755551
:NTO001: CHARGE SPHERE  1    =    55.938633

:NEC01: NUCLEAR AND ELECTRONIC CHARGE    118.00000   117.99694
     
       CHARGES OF OLD CHARGE DENSITY
:OTO   : INTERSTITIAL CHARGE =     6.141583
:OPC   : PW Pseudocharge     =    17.790417
:OTO001: CHARGE SPHERE  1    =    55.929208

:NEC02: NUCLEAR AND ELECTRONIC CHARGE    118.00000   118.00000
     
       CONVERGENCE TEST
:DTO001: DIFFERENCE IN SPHERE  1 =  0.0290075

:DIS  :  CHARGE DISTANCE       ( 0.0290075 for atom    1 spin 1)      0.0290075
 PW Mixed is          280
 
******************************************************
* MULTISECANT MIXING VER9 RELEASE 10.4.0              *
* Standard Mode with controls                        *
* Fixed density scale                                *
* Regularization       1.000E-04                     *
* Trust Upper Limit    5.000E+00                     *
* Max Number of Memory Steps    8                    *
******************************************************
 
:PWTMP   1.5721E+02  1.9467E+02  2.5914E+02
:PLANE:  PW TOTAL      5.8514 DISTAN   8.67E-03  1.48E-01 %
:CHARG:  CLM/ATOM   1381.9404 DISTAN   4.14E-02  3.00E-03 %
 
Step History
        DMIX         DMIXT        Red     Pred      Trust     Lambda    MagRel    MagAbs     Beta
  1   3.5000E-02   3.5000E-02 -1.00E+00  1.00E+00 -1.00E+01  1.00E+00  3.50E-02  3.50E-02  1.00E+00
:INFO :  Note, Pratt in use
:TRUST:  Step 3.75E-02  Charge 7.50E-02 (e) CTO  2.50E-01 (e) PW  3.50E-01 (e)
:DIRM :  MEMORY  0/ 8 SCALE   1.000
Performing Pseudo Compensation
Final Pseudo Compensation Rescaling     1.00000E+00
:MIX  :   PRATT  REGULARIZATION:  1.00E-04 GREED: 0.02500                  
     
       CHARGES OF MIXED CHARGE DENSITY
:CTO   : INTERSTITIAL CHARGE =     6.141112
:CPC   : PW Pseudocharge     =    17.783074
:CTO001: CHARGE SPHERE  1    =    55.929444

:NEC03: NUCLEAR AND ELECTRONIC CHARGE    118.00000   118.00000

PW CHANGE     H    K    L      Current       Change    Residue
:PTO001:      0    0    0  9.23228992E-02 -3.016E-05 -1.730E-04
:PTO003:      0    2    0  2.00874536E-02 -7.079E-06 -1.492E-06
:PTO004:     -1    1    0  9.18384480E-02 -3.314E-05 -6.321E-05
:PTO005:      0    2   -1 -1.04089088E-01  3.714E-05  4.794E-05
:PTO006:      0    0   -2 -5.39333199E-02  1.921E-05  2.435E-05
:PTO007:     -1    1   -1 -1.05447989E-01  3.516E-05  6.123E-05
:PTO008:      0    2   -2 -1.34456663E-02  2.667E-06  8.396E-06
:PTO009:     -1    1   -2 -6.64551425E-02  4.958E-06 -4.883E-06
:PTO011:     -1    3    0 -9.26133012E-03 -2.565E-06 -4.252E-06
:PTO012:     -1    3   -1 -3.60603686E-02 -2.161E-05 -6.518E-05
:PTO013:      0    4    0 -5.73102053E-03 -6.203E-06 -1.228E-05
:PTO014:      0    2   -3  1.35238818E-02  1.421E-05  2.662E-05

:ENE  : ********** TOTAL ENERGY IN Ry =       -36944.37352050

       TOTAL FORCE IN mRy/a.u. = |F|     Fx             Fy             Fz     with/without FOR in case.in2
:FOR001:   1.ATOM         11.862          0.000          0.000         11.862 partial forces
       TOTAL FORCE WITH RESPECT TO GLOBAL CARTESIAN COORDINATES:
:FCA001:   1.ATOM                         0.000         11.862          0.000 partial forces
       TOTAL FORCE WITH RESPECT TO THE GLOBAL COORDINATE SYSTEM:
:FGL001:   1.ATOM                 0.000000000    11.862400519     0.000000000 partial forces
 Flat Integration
 New Mode for Coulomb Integral
 Consistent 3/8+Simpson combinations
 Extension of core to zero
 LDM version in phi
 Fifth-order quadrature in outwin


            ---------
:ITE016: 16. ITERATION
            ---------

:NATO :    1 INDEPENDENT AND    2 TOTAL ATOMS IN UNITCELL
       SUBSTANCE: aU                                                          

       LATTICE                      = CXY 
:POT  : POTENTIAL OPTION EX_LDA EC_LDA VX_LDA VC_LDA
:LAT  : LATTICE CONSTANTS=  5.26305 10.68006  9.22032    1.571    1.571    1.571
:VOL  : UNIT CELL VOLUME =     259.13599
       MODE OF CALCULATION IS       = RELA
       NON-SPINPOLARIZED CALCULATION
:IFFT  : FFT-parameters:   48   90   72 Factor: 2.00


   CONVERGENCE PARAMETER FOR PSEUDOCHARGE: NCON=  9
   MAXIMAL VALUE OF RMT(JATOM)*ABSK(NKK) : RK  =27.59449


:VKCOUL :  VK-COUL convergence: 0.287E-06
       ATOMNUMBER=  1 Pr1        VCOUL-ZERO =  0.72846E+00
:EFG001:                        EFG         =     9.55161   *10**21  V / m**2
                               V20  TOT/SRF=    -6.61746    -0.07765
                               V22  TOT/SRF=    -5.73102    -0.01381
                               V22M TOT/SRF=     0.00000     0.00000
                               V21  TOT/SRF=     0.00000     0.00000
                               V21M TOT/SRF=     0.00000     0.00000

             -1.91042    0.00000    0.00000       -1.91042    0.00000    0.00000
              0.00000    9.55161    0.00000        0.00000    9.55161    0.00000
              0.00000    0.00000   -7.64119        0.00000    0.00000   -7.64119

         MAIN DIRECTIONS OF THE EFG   1.0000  0.0000  0.0000
                                      0.0000  1.0000  0.0000
                                      0.0000  0.0000  1.0000
:ANG001:  ANGLE WITH OLD X-AXIS =         0.0

:ETA001:                         ASYMM. ETA =     0.59998


     HELLMANN-FEYNMAN-FORCE IN mRy/a.u. = |F|  Fx       Fy             Fz
:FHF001:   1.ATOM   1517.355230982039      0.000000000000      0.000000000000  -1517.355230982039

:FIT001: LUSE= 13 SIGMA OF V-XC FIT FOR ATOM  1  0.1251457E-03
:FIT001: LUSE= 13 SIGMA OF V-XC FIT FOR ATOM  1  0.1251457E-03
:DEN  : DENSITY INTEGRAL  =        -14226.13668670   (Ry)
       ELS_POTENTIAL_AT Z=0 and Z=0.5:   1.06275   1.06275
       ELS_POTENTIAL_AT Y=0 and Y=0.5:  -0.02592  -0.02592
:VZERO:v0,v0c,v0x   0.29001   1.06275  -0.77273 v5,v5c,v5x   0.29001   1.06275  -0.77273
:VZERY:v0,v0c,v0x  -1.02388  -0.02592  -0.99796 v5,v5c,v5x  -1.02388  -0.02592  -0.99796
:VZERX:v0,v0c,v0x  -1.32739  -0.39617  -0.93123 v5,v5c,v5x  -1.32739  -0.39617  -0.93123
:LMAX-WF:   10   Non-Spherical LMAX:   4

          ATOMIC SPHERE DEPENDENT PARAMETERS FOR ATOM  Pr1       
:e__0001: OVERALL ENERGY PARAMETER IS    1.0618
          OVERALL BASIS SET ON ATOM IS LAPW
:E0_0001: E( 0)=    1.0618
             APW+lo
:E0_0001: E( 0)=   -1.3576   E(BOTTOM)=   -2.000   E(TOP)=   -0.715  4  5   241
             LOCAL ORBITAL
:E1_0001: E( 1)=    1.4618
             APW+lo
:E1_0001: E( 1)=    0.1091   E(BOTTOM)=   -0.858   E(TOP)=    1.077  3  4   256
             LOCAL ORBITAL
:E3_0001: E( 3)=    1.2867   E(BOTTOM)=    1.078   E(TOP)=    1.495  0  1   121
             APW+lo
:E2_0001: E( 2)=    1.0618   E(BOTTOM)=    0.874   E(TOP)= -200.000  2 -1   120
             APW+lo

       K=   0.06250   0.00000   0.06250            1
:RKM  : MATRIX SIZE   266LOs:  40  RKM= 8.47  WEIGHT= 4.00  PGR:    
       EIGENVALUES ARE:
:EIG00001:      -1.4273720   -1.3231747   -0.2630041    0.0451150    0.1187842
:EIG00006:       0.1467469    0.1753450    0.1789411    1.1020725    1.1573262
:EIG00011:       1.2234757    1.2309915    1.2349408    1.2480513    1.2715700
:EIG00016:       1.2974065    1.3090120    1.3137603    1.3213329    1.3257958
:EIG00021:       1.3389537    1.3394756    1.3420866    1.3708942    1.3875582
:EIG00026:       1.4289389    1.5130567    1.5205068    1.6031519    1.6500743
:EIG00031:       1.7227607    1.9086961    1.9747254    2.0222377    2.3139898
:EIG00036:       2.3602290    2.4003711    2.6709158    2.6854666    2.8327360
:EIG00041:       3.0399354    3.0835709    3.2487046    3.3133436    3.4612533
:EIG00046:       3.4704109    3.4982533    3.6769849    3.6914478    3.8337476
 
:EIG00051:       3.9495120    4.0933701    4.1640278    4.3066030    4.3324520
:EIG00056:       4.4294368    4.4978620    4.7058491    4.7499020    4.7585935
:EIG00061:       4.7982857    4.9289308    4.9844474    5.1325234    5.1777928
:EIG00066:       5.2089655    5.2318955    5.2576669    5.4049216    5.4775210
:EIG00071:       5.5419539    5.6285179    5.6910104    5.7475381    5.7477987
:EIG00076:       5.7687822    5.8147818    5.8312048    5.8629682    5.9611493
:EIG00081:       5.9836748    6.0410957    6.0668477    6.1544179    6.2104136
:EIG00086:       6.2256648    6.3606882    6.4470112    6.4688899    6.5373782
:EIG00091:       6.6008746    6.6684225    6.6958401    6.7299294    6.7314285
:EIG00096:       6.8980664    6.9366431    6.9798236    6.9911480    7.0784405
 
:EIG00101:       7.1528817    7.2138301    7.2679235    7.3037799    7.3162531
:EIG00106:       7.4198738    7.4838985    7.5709502    7.6428903    7.8161339
:EIG00111:       7.9236993    7.9353745    7.9484297    8.0286290    8.1409653
:EIG00116:       8.1903469    8.4031386    8.4689398    8.5108786    8.5578381
:EIG00121:       8.5922010    8.6279528    8.6628466
       ********************************************************

:KPT   :      NUMBER OF K-POINTS:   288
   0.0   0.0 angle (M,z), angle (M,x) deg
 
        SPIN-ORBIT EIGENVALUES:
     K=   0.06250   0.00000   0.06250            1
      MATRIX SIZE=  246   WEIGHT= 4.00
     EIGENVALUES ARE:
          -1.4273753   -1.4273753   -1.3231780   -1.3231780   -0.2900160
          -0.2900160   -0.0162364   -0.0162364    0.0293681    0.0293681
           0.2048692    0.2048692    0.2127655    0.2127655    0.2406367
           0.2406367    1.1019796    1.1019796    1.1574720    1.1574720
           1.2222436    1.2222436    1.2294761    1.2294761    1.2334718
           1.2334718    1.2469016    1.2469016    1.2695479    1.2695479
           1.2922706    1.2922706    1.3039202    1.3039202    1.3134002
           1.3134002    1.3254778    1.3254778    1.3287309    1.3287309

           1.3387224    1.3387224    1.3412854    1.3412854    1.3458801
           1.3458801    1.3729154    1.3729154    1.3889867    1.3889867
           1.4291848    1.4291848    1.5095414    1.5095415    1.5241372
           1.5241372    1.6036961    1.6036961    1.6500954    1.6500954
           1.7230839    1.7230839    1.9089119    1.9089119    1.9747704
           1.9747704    2.0225837    2.0225837    2.3145422    2.3145422
           2.3603292    2.3603292    2.4003901    2.4003901    2.6705992
           2.6705992    2.6854158    2.6854158    2.8321301    2.8321301

           3.0403277    3.0403277    3.0832466    3.0832466    3.2488144
           3.2488144    3.3128893    3.3128893    3.4611730    3.4611730
           3.4699844    3.4699844    3.4985393    3.4985393    3.6746100
           3.6746100    3.6939321    3.6939321    3.8341068    3.8341068
           3.9492495    3.9492495    4.0921070    4.0921070    4.1638497
           4.1638497    4.3061844    4.3061844    4.3323244    4.3323244
           4.4295352    4.4295352    4.4949935    4.4949935
       ********************************************************
:GAP (global)   :    0.0    Ry =     0.0   eV (metal)
:GAP (this spin):    0.0    Ry =     0.0   eV (metal)
         Bandranges (emin - emax) and occupancy:
:BAN00020:  20    1.047379    1.213070  1.00000000
:BAN00021:  21    1.103363    1.259724  1.00000000
:BAN00022:  22    1.103363    1.259724  1.00000000
:BAN00023:  23    1.167548    1.267418  0.98119398
:BAN00024:  24    1.167548    1.267418  0.98119398
:BAN00025:  25    1.217834    1.289308  0.62682715
:BAN00026:  26    1.217834    1.289308  0.62682713
:BAN00027:  27    1.235950    1.302779  0.37361186
:BAN00028:  28    1.235950    1.302779  0.37361183
:BAN00029:  29    1.251029    1.304239  0.01836703
:BAN00030:  30    1.251029    1.304239  0.01836703
:BAN00031:  31    1.266213    1.311215  0.00000000
:BAN00032:  32    1.266213    1.311215  0.00000000
:BAN00033:  33    1.293976    1.324011  0.00000000
:BAN00034:  34    1.293976    1.324011  0.00000000
:BAN00035:  35    1.301291    1.330552  0.00000000
        Energy to separate low and high energystates:    0.94141


:NOE  : NUMBER OF ELECTRONS          =   26.000

:FER  : F E R M I - ENERGY(TETRAH.M.)=   1.2613512973
:GMA  : POTENTIAL AND CHARGE CUT-OFF  12.00 Ry**.5

:POS001: ATOM   -1 X,Y,Z = 0.00000 0.89750 0.25000  MULT= 2  ZZ= 59.000  Pr1       

       LMMAX 16
       LM=   0 0  1 0  2 0  2 2  3 0  3 2  4 0  4 2  4 4  5 0  5 2  5 4  6 0  6 2  6 4  6 6

:CHA001: TOTAL VALENCE CHARGE INSIDE SPHERE   1 =   9.9381    (RMT=  2.3000 )
:PCS001: PARTIAL CHARGES SPHERE =  1 S,P,D,F,PX,PY,PZ,D-Z2,D-X2Y2,D-XY,D-XZ,D-YZ 
:QTL001: 1.9263 4.9540 0.9427 2.1103 1.6529 1.6461 1.6550 0.1854 0.1675 0.1932 0.1953 0.2013
        Q-s-low E-s-low   Q-p-low E-p-low   Q-d-low E-d-low   Q-f-low E-f-low
:EPL001:  1.8704 -1.3118    4.8605 -0.0209    0.0347 -0.0497    0.0115 -0.0534
        Q-s-hi  E-s-hi    Q-p-hi  E-p-hi    Q-d-hi  E-d-hi    Q-f-hi  E-f-hi 
:EPH001:  0.0558  1.1686    0.0934  1.1793    0.9080  1.1524    2.0989  1.2191

                      VXX         VYY         VZZ       UP TO R
:VZZ001:            -1.98152     9.35680    -7.37528       2.300

:CHA  : TOTAL VALENCE CHARGE INSIDE UNIT CELL =      26.000000

:SUM  : SUM OF EIGENVALUES =           6.220813627


        1.ATOM      Pr1                  14 CORE STATES
       CORE-FORCE in mRy/a.u. = |F|      Fx             Fy             Fz
:FCO001:   1.ATOM   1529.237717061454      0.000000000000      0.000000000000   1529.237717061454

:1S 001: 1S               -3066.311467195 Ry
:2S 001: 2S                -492.063232009 Ry
:2PP001: 2P*               -465.161834492 Ry
:2P 001: 2P                -429.764501953 Ry
:3S 001: 3S                -105.162662300 Ry
:3PP001: 3P*                -93.700156003 Ry
:3P 001: 3P                 -86.692504196 Ry
:3DD001: 3D*                -66.618156877 Ry
:3D 001: 3D                 -65.106722573 Ry
:4S 001: 4S                 -19.828885424 Ry
:4PP001: 4P*                -15.534620951 Ry
:4P 001: 4P                 -14.005731263 Ry
:4DD001: 4D*                 -6.935856660 Ry
:4D 001: 4D                  -6.665959037 Ry
:CINT001 Core Integral Atom   1   45.998474

       DENSITY AT NUCLEUS
        JATOM        VALENCE       SEMI-CORE          CORE           TOTAL
:RTO001:   1      638.578415        0.000000   656826.655214   657465.233629
     
       CHARGES OF NEW CHARGE DENSITY
:NTO   : INTERSTITIAL CHARGE =     6.123869
:NPC   : PW Pseudocharge     =    17.757916
:NTO001: CHARGE SPHERE  1    =    55.936536

:NEC01: NUCLEAR AND ELECTRONIC CHARGE    118.00000   117.99694
     
       CHARGES OF OLD CHARGE DENSITY
:OTO   : INTERSTITIAL CHARGE =     6.141112
:OPC   : PW Pseudocharge     =    17.783074
:OTO001: CHARGE SPHERE  1    =    55.929444

:NEC02: NUCLEAR AND ELECTRONIC CHARGE    118.00000   118.00000
     
       CONVERGENCE TEST
:DTO001: DIFFERENCE IN SPHERE  1 =  0.0239736

:DIS  :  CHARGE DISTANCE       ( 0.0239736 for atom    1 spin 1)      0.0239736
 PW Mixed is          280
 
******************************************************
* MULTISECANT MIXING VER9 RELEASE 10.4.0              *
* Slow Mode, cautious                                *
* Fixed density scale                                *
* Regularization       1.000E-04                     *
* Step Trust Radius    0.75000                       *
* Trust Upper Limit    2.000E+00                     *
* Max Number of Memory Steps   12                    *
******************************************************
 
:PWTMP   1.5721E+02  1.9467E+02  2.5914E+02
:PLANE:  PW TOTAL      5.8495 DISTAN   5.66E-03  9.68E-02 %
:CHARG:  CLM/ATOM   1381.9405 DISTAN   3.43E-02  2.49E-03 %
 
Step History
        DMIX         DMIXT        Red     Pred      Trust     Lambda    MagRel    MagAbs     Beta
  1   3.5000E-02   3.5000E-02 -1.00E+00  1.00E+00 -1.00E+01  1.00E+00  3.50E-02  3.50E-02  1.00E+00
  2   2.5000E-02   2.5000E-02 -1.00E+00  1.00E+00 -1.00E+01  1.00E+00  2.50E-02  1.06E-03  1.00E+00
:JACOBIANS    6.638E-02   5.811E-02
  
:NORMS:  1/Froebius, Min, Max, Used   0.1277E+00  0.1277E+00  0.2483E+00  0.1277E+00
:INFO :  Number of Memory Steps    1 Skipping    0
:PREDicted Charge, CTotal, PW Trust    1.189E-03   2.379E-03   2.393E-02
:PREDicted DMix, Beta, BLim   1.0000E-02  5.0478E+00  6.0085E-01

Eigenvalues, unscaled except for SY+YY
   #     SY Real        SY Imag          SS             YY         SY+YY Real      SY+YY Imag
   1   2.482833E-01   0.000000E+00   1.276651E-01   1.000000E+00   1.248283E+00   0.000000E+00
 
:BLIM :  VZERO Control Off
:TRUST:  Step 6.01E-01  Charge 7.50E-02 (e) CTO  2.50E-01 (e) PW  3.50E-01 (e)
:DIRM :  MEMORY  1/12 SCALE   1.000 RED  0.82 PRED  1.00 NEXT  0.37 
:TRAVE:  Charge 9.07E-04 (e) CTO  1.81E-03 (e) PW  1.89E-02 (e)
:DIRP :  |MSR1|= 1.056E-02 |PRATT|= 5.664E-03 ANGLE=  47.6 DEGREES
:DIRQ :  |MSR1|= 4.305E-03 |PRATT|= 3.435E-02 ANGLE=   0.5 DEGREES
:DIRT :  |MSR1|= 1.141E-02 |PRATT|= 3.481E-02 ANGLE=  61.7 DEGREES
:MIX  :   MSR1   REGULARIZATION:  1.00E-04 GREED: 0.02000  Newton 1.00  0.3277                
     
       CHARGES OF MIXED CHARGE DENSITY
:CTO   : INTERSTITIAL CHARGE =     6.139298
:CPC   : PW Pseudocharge     =    17.753808
:CTO001: CHARGE SPHERE  1    =    55.930351

:NEC03: NUCLEAR AND ELECTRONIC CHARGE    118.00000   118.00000

PW CHANGE     H    K    L      Current       Change    Residue
:PTO001:      0    0    0  9.22029648E-02 -1.199E-04 -1.176E-04
:PTO003:      0    2    0  2.00591719E-02 -2.828E-05  2.494E-06
:PTO004:     -1    1    0  9.17062316E-02 -1.322E-04 -3.148E-05
:PTO005:      0    2   -1 -1.03941262E-01  1.478E-04  1.356E-05
:PTO006:      0    0   -2 -5.38568637E-02  7.646E-05  6.618E-06
:PTO007:     -1    1   -1 -1.05307767E-01  1.402E-04  2.822E-05
:PTO008:      0    2   -2 -1.34350112E-02  1.066E-05  5.340E-06
:PTO009:     -1    1   -2 -6.64353318E-02  1.981E-05 -6.458E-06
:PTO011:     -1    3    0 -9.27157207E-03 -1.024E-05 -2.003E-06
:PTO012:     -1    3   -1 -3.61468105E-02 -8.644E-05 -4.185E-05
:PTO013:      0    4    0 -5.75573546E-03 -2.471E-05 -5.965E-06
:PTO014:      0    2   -3  1.35805343E-02  5.665E-05  1.290E-05

:ENE  : ********** TOTAL ENERGY IN Ry =       -36944.37349348

       TOTAL FORCE IN mRy/a.u. = |F|     Fx             Fy             Fz     with/without FOR in case.in2
:FOR001:   1.ATOM         11.882          0.000          0.000         11.882 partial forces
       TOTAL FORCE WITH RESPECT TO GLOBAL CARTESIAN COORDINATES:
:FCA001:   1.ATOM                         0.000         11.882          0.000 partial forces
       TOTAL FORCE WITH RESPECT TO THE GLOBAL COORDINATE SYSTEM:
:FGL001:   1.ATOM                 0.000000000    11.882486079     0.000000000 partial forces
 Flat Integration
 New Mode for Coulomb Integral
 Consistent 3/8+Simpson combinations
 Extension of core to zero
 LDM version in phi
 Fifth-order quadrature in outwin


            ---------
:ITE017: 17. ITERATION
            ---------

:NATO :    1 INDEPENDENT AND    2 TOTAL ATOMS IN UNITCELL
       SUBSTANCE: aU                                                          

       LATTICE                      = CXY 
:POT  : POTENTIAL OPTION EX_LDA EC_LDA VX_LDA VC_LDA
:LAT  : LATTICE CONSTANTS=  5.26305 10.68006  9.22032    1.571    1.571    1.571
:VOL  : UNIT CELL VOLUME =     259.13599
       MODE OF CALCULATION IS       = RELA
       NON-SPINPOLARIZED CALCULATION
:IFFT  : FFT-parameters:   48   90   72 Factor: 2.00


   CONVERGENCE PARAMETER FOR PSEUDOCHARGE: NCON=  9
   MAXIMAL VALUE OF RMT(JATOM)*ABSK(NKK) : RK  =27.59449


:VKCOUL :  VK-COUL convergence: 0.287E-06
       ATOMNUMBER=  1 Pr1        VCOUL-ZERO =  0.72742E+00
:EFG001:                        EFG         =     9.53390   *10**21  V / m**2
                               V20  TOT/SRF=    -6.59988    -0.07757
                               V22  TOT/SRF=    -5.72346    -0.01376
                               V22M TOT/SRF=     0.00000     0.00000
                               V21  TOT/SRF=     0.00000     0.00000
                               V21M TOT/SRF=     0.00000     0.00000

             -1.91301    0.00000    0.00000       -1.91301    0.00000    0.00000
              0.00000    9.53390    0.00000        0.00000    9.53390    0.00000
              0.00000    0.00000   -7.62089        0.00000    0.00000   -7.62089

         MAIN DIRECTIONS OF THE EFG   1.0000  0.0000  0.0000
                                      0.0000  1.0000  0.0000
                                      0.0000  0.0000  1.0000
:ANG001:  ANGLE WITH OLD X-AXIS =         0.0

:ETA001:                         ASYMM. ETA =     0.59869


     HELLMANN-FEYNMAN-FORCE IN mRy/a.u. = |F|  Fx       Fy             Fz
:FHF001:   1.ATOM   1515.748607486104      0.000000000000      0.000000000000  -1515.748607486104

:FIT001: LUSE= 13 SIGMA OF V-XC FIT FOR ATOM  1  0.1252632E-03
:FIT001: LUSE= 13 SIGMA OF V-XC FIT FOR ATOM  1  0.1252632E-03
:DEN  : DENSITY INTEGRAL  =        -14226.34464942   (Ry)
       ELS_POTENTIAL_AT Z=0 and Z=0.5:   1.06159   1.06159
       ELS_POTENTIAL_AT Y=0 and Y=0.5:  -0.02610  -0.02610
:VZERO:v0,v0c,v0x   0.28893   1.06159  -0.77266 v5,v5c,v5x   0.28893   1.06159  -0.77266
:VZERY:v0,v0c,v0x  -1.02363  -0.02610  -0.99753 v5,v5c,v5x  -1.02363  -0.02610  -0.99753
:VZERX:v0,v0c,v0x  -1.32647  -0.39548  -0.93098 v5,v5c,v5x  -1.32647  -0.39548  -0.93098
:LMAX-WF:   10   Non-Spherical LMAX:   4

          ATOMIC SPHERE DEPENDENT PARAMETERS FOR ATOM  Pr1       
:e__0001: OVERALL ENERGY PARAMETER IS    1.0615
          OVERALL BASIS SET ON ATOM IS LAPW
:E0_0001: E( 0)=    1.0615
             APW+lo
:E0_0001: E( 0)=   -1.3576   E(BOTTOM)=   -2.000   E(TOP)=   -0.715  4  5   244
             LOCAL ORBITAL
:E1_0001: E( 1)=    1.4615
             APW+lo
:E1_0001: E( 1)=    0.1090   E(BOTTOM)=   -0.859   E(TOP)=    1.077  3  4   255
             LOCAL ORBITAL
:E3_0001: E( 3)=    1.2876   E(BOTTOM)=    1.078   E(TOP)=    1.497  0  1   119
             APW+lo
:E2_0001: E( 2)=    1.0615   E(BOTTOM)=    0.873   E(TOP)= -200.000  2 -1   118
             APW+lo

       K=   0.06250   0.00000   0.06250            1
:RKM  : MATRIX SIZE   266LOs:  40  RKM= 8.47  WEIGHT= 4.00  PGR:    
       EIGENVALUES ARE:
:EIG00001:      -1.4275136   -1.3232366   -0.2634697    0.0448292    0.1185445
:EIG00006:       0.1465329    0.1751363    0.1787476    1.1013145    1.1566050
:EIG00011:       1.2237275    1.2314554    1.2355148    1.2485439    1.2720128
:EIG00016:       1.2981916    1.3098483    1.3146246    1.3221540    1.3265915
:EIG00021:       1.3396374    1.3399965    1.3430096    1.3718888    1.3880572
:EIG00026:       1.4289597    1.5124845    1.5202358    1.6026362    1.6495606
:EIG00031:       1.7222767    1.9082390    1.9741710    2.0218227    2.3134309
:EIG00036:       2.3596604    2.3997333    2.6701855    2.6848248    2.8321229
:EIG00041:       3.0392756    3.0828745    3.2479454    3.3126544    3.4604941
:EIG00046:       3.4695889    3.4975084    3.6761644    3.6906679    3.8328832
 
:EIG00051:       3.9487403    4.0926168    4.1633368    4.3058341    4.3318236
:EIG00056:       4.4287222    4.4971543    4.7050998    4.7493150    4.7577673
:EIG00061:       4.7973764    4.9280772    4.9837367    5.1318074    5.1771009
:EIG00066:       5.2080567    5.2310865    5.2567780    5.4040899    5.4766796
:EIG00071:       5.5410566    5.6277043    5.6901581    5.7466320    5.7469187
:EIG00076:       5.7679330    5.8139149    5.8303130    5.8620859    5.9602336
:EIG00081:       5.9827475    6.0401953    6.0659201    6.1534771    6.2094331
:EIG00086:       6.2247484    6.3597401    6.4460321    6.4679917    6.5364512
:EIG00091:       6.5999684    6.6674732    6.6949945    6.7291361    6.7305689
:EIG00096:       6.8970736    6.9357862    6.9789248    6.9902292    7.0775695
 
:EIG00101:       7.1519864    7.2128617    7.2669557    7.3029337    7.3153549
:EIG00106:       7.4188479    7.4829966    7.5701501    7.6420334    7.8151365
:EIG00111:       7.9227198    7.9344932    7.9474501    8.0277545    8.1400411
:EIG00116:       8.1893588    8.4022932    8.4680540    8.5100520    8.5569156
:EIG00121:       8.5912417    8.6270680    8.6620248
       ********************************************************

:KPT   :      NUMBER OF K-POINTS:   288
   0.0   0.0 angle (M,z), angle (M,x) deg
 
        SPIN-ORBIT EIGENVALUES:
     K=   0.06250   0.00000   0.06250            1
      MATRIX SIZE=  246   WEIGHT= 4.00
     EIGENVALUES ARE:
          -1.4275169   -1.4275169   -1.3232399   -1.3232399   -0.2904432
          -0.2904431   -0.0164181   -0.0164181    0.0290811    0.0290811
           0.2046216    0.2046216    0.2125362    0.2125362    0.2404044
           0.2404044    1.1012226    1.1012226    1.1567521    1.1567521
           1.2225159    1.2225159    1.2299530    1.2299530    1.2340520
           1.2340520    1.2474041    1.2474041    1.2700199    1.2700199
           1.2930848    1.2930848    1.3047046    1.3047046    1.3142176
           1.3142176    1.3262948    1.3262948    1.3295101    1.3295101

           1.3394055    1.3394055    1.3418286    1.3418286    1.3467598
           1.3467598    1.3739037    1.3739037    1.3894973    1.3894973
           1.4292194    1.4292195    1.5090725    1.5090725    1.5237742
           1.5237743    1.6031795    1.6031795    1.6495831    1.6495831
           1.7226000    1.7226000    1.9084546    1.9084546    1.9742176
           1.9742176    2.0221676    2.0221676    2.3139832    2.3139832
           2.3597608    2.3597608    2.3997525    2.3997525    2.6698701
           2.6698701    2.6847726    2.6847726    2.8315170    2.8315170

           3.0396678    3.0396678    3.0825502    3.0825502    3.2480559
           3.2480559    3.3121998    3.3121998    3.4604123    3.4604123
           3.4691641    3.4691641    3.4977943    3.4977943    3.6737952
           3.6737952    3.6931467    3.6931467    3.8332427    3.8332427
           3.9484778    3.9484778    4.0913554    4.0913554    4.1631574
           4.1631574    4.3054157    4.3054157    4.3316959    4.3316959
           4.4288192    4.4288192    4.4942853    4.4942853
       ********************************************************
:GAP (global)   :    0.0    Ry =     0.0   eV (metal)
:GAP (this spin):    0.0    Ry =     0.0   eV (metal)
         Bandranges (emin - emax) and occupancy:
:BAN00020:  20    1.046575    1.212845  1.00000000
:BAN00021:  21    1.102639    1.260313  1.00000000
:BAN00022:  22    1.102639    1.260313  1.00000000
:BAN00023:  23    1.167208    1.267953  0.98120139
:BAN00024:  24    1.167208    1.267953  0.98120139
:BAN00025:  25    1.217898    1.290151  0.62739584
:BAN00026:  26    1.217898    1.290151  0.62739581
:BAN00027:  27    1.236345    1.303574  0.37338051
:BAN00028:  28    1.236345    1.303574  0.37338048
:BAN00029:  29    1.251465    1.305050  0.01802229
:BAN00030:  30    1.251465    1.305050  0.01802229
:BAN00031:  31    1.266807    1.311973  0.00000000
:BAN00032:  32    1.266807    1.311973  0.00000000
:BAN00033:  33    1.294720    1.324882  0.00000000
:BAN00034:  34    1.294720    1.324882  0.00000000
:BAN00035:  35    1.302120    1.331386  0.00000000
        Energy to separate low and high energystates:    0.94060


:NOE  : NUMBER OF ELECTRONS          =   26.000

:FER  : F E R M I - ENERGY(TETRAH.M.)=   1.2619164323
:GMA  : POTENTIAL AND CHARGE CUT-OFF  12.00 Ry**.5

:POS001: ATOM   -1 X,Y,Z = 0.00000 0.89750 0.25000  MULT= 2  ZZ= 59.000  Pr1       

       LMMAX 16
       LM=   0 0  1 0  2 0  2 2  3 0  3 2  4 0  4 2  4 4  5 0  5 2  5 4  6 0  6 2  6 4  6 6

:CHA001: TOTAL VALENCE CHARGE INSIDE SPHERE   1 =   9.9295    (RMT=  2.3000 )
:PCS001: PARTIAL CHARGES SPHERE =  1 S,P,D,F,PX,PY,PZ,D-Z2,D-X2Y2,D-XY,D-XZ,D-YZ 
:QTL001: 1.9266 4.9540 0.9472 2.0970 1.6529 1.6461 1.6551 0.1863 0.1685 0.1939 0.1963 0.2021
        Q-s-low E-s-low   Q-p-low E-p-low   Q-d-low E-d-low   Q-f-low E-f-low
:EPL001:  1.8704 -1.3118    4.8598 -0.0213    0.0347 -0.0500    0.0115 -0.0537
        Q-s-hi  E-s-hi    Q-p-hi  E-p-hi    Q-d-hi  E-d-hi    Q-f-hi  E-f-hi 
:EPH001:  0.0562  1.1685    0.0943  1.1793    0.9125  1.1523    2.0855  1.2194

                      VXX         VYY         VZZ       UP TO R
:VZZ001:            -1.94183     9.41296    -7.47113       2.300

:CHA  : TOTAL VALENCE CHARGE INSIDE UNIT CELL =      26.000000

:SUM  : SUM OF EIGENVALUES =           6.215441290


        1.ATOM      Pr1                  14 CORE STATES
       CORE-FORCE in mRy/a.u. = |F|      Fx             Fy             Fz
:FCO001:   1.ATOM   1527.672750554763      0.000000000000      0.000000000000   1527.672750554763

:1S 001: 1S               -3066.308706014 Ry
:2S 001: 2S                -492.060455055 Ry
:2PP001: 2P*               -465.159061017 Ry
:2P 001: 2P                -429.761727276 Ry
:3S 001: 3S                -105.159960141 Ry
:3PP001: 3P*                -93.697446089 Ry
:3P 001: 3P                 -86.689809400 Ry
:3DD001: 3D*                -66.615435375 Ry
:3D 001: 3D                 -65.104004697 Ry
:4S 001: 4S                 -19.827010906 Ry
:4PP001: 4P*                -15.532798719 Ry
:4P 001: 4P                 -14.003989937 Ry
:4DD001: 4D*                 -6.934257993 Ry
:4D 001: 4D                  -6.664387894 Ry
:CINT001 Core Integral Atom   1   45.998472

       DENSITY AT NUCLEUS
        JATOM        VALENCE       SEMI-CORE          CORE           TOTAL
:RTO001:   1      638.612142        0.000000   656826.486197   657465.098339
     
       CHARGES OF NEW CHARGE DENSITY
:NTO   : INTERSTITIAL CHARGE =     6.140994
:NPC   : PW Pseudocharge     =    17.767588
:NTO001: CHARGE SPHERE  1    =    55.927971

:NEC01: NUCLEAR AND ELECTRONIC CHARGE    118.00000   117.99694
     
       CHARGES OF OLD CHARGE DENSITY
:OTO   : INTERSTITIAL CHARGE =     6.139298
:OPC   : PW Pseudocharge     =    17.753808
:OTO001: CHARGE SPHERE  1    =    55.930351

:NEC02: NUCLEAR AND ELECTRONIC CHARGE    118.00000   118.00000
     
       CONVERGENCE TEST
:DTO001: DIFFERENCE IN SPHERE  1 =  0.0049711

:DIS  :  CHARGE DISTANCE       ( 0.0049711 for atom    1 spin 1)      0.0049711
 PW Mixed is          280
 
******************************************************
* MULTISECANT MIXING VER9 RELEASE 10.4.0              *
* Slow Mode, cautious                                *
* Fixed density scale                                *
* Regularization       1.000E-04                     *
* Step Trust Radius    0.75000                       *
* Trust Upper Limit    2.000E+00                     *
* Max Number of Memory Steps   12                    *
******************************************************
 
:PWTMP   1.5721E+02  1.9467E+02  2.5914E+02
:PLANE:  PW TOTAL      5.8422 DISTAN   9.05E-03  1.55E-01 %
:CHARG:  CLM/ATOM   1381.9407 DISTAN   8.95E-03  6.47E-04 %
 
Step History
        DMIX         DMIXT        Red     Pred      Trust     Lambda    MagRel    MagAbs     Beta
  1   3.5000E-02   3.5000E-02 -1.00E+00  1.00E+00 -1.00E+01  1.00E+00  3.50E-02  3.50E-02  1.00E+00
  2   2.5000E-02   2.5000E-02  8.23E-01  1.00E+00 -1.00E+01  1.00E+00  2.50E-02  1.06E-03  1.00E+00
  3   2.0000E-02   2.0000E-02 -1.00E+00  3.75E-01  6.01E-01  1.00E+00  3.28E-01  1.14E-02  1.00E+00
:JACOBIANS    9.704E-02   8.818E-02
  
:NORMS:  1/Froebius, Min, Max, Used   0.3515E+00  0.3515E+00  0.9630E+00  0.3519E+00
:INFO :  Number of Memory Steps    2 Skipping    0
:INFO :  SLambda=    0.0527889792  Max    0.0527889792
:PREDicted Charge, CTotal, PW Trust    9.054E-04   1.811E-03   1.877E-02
:PREDicted DMix, Beta, BLim   8.3636E-05  1.0052E+00  4.5564E-01

Eigenvalues, unscaled except for SY+YY
   #     SY Real        SY Imag          SS             YY         SY+YY Real      SY+YY Imag
   1   4.899593E-01   0.000000E+00   2.471608E-01   1.999998E+00   2.025862E+00   0.000000E+00
   2   1.557683E-06   0.000000E+00   9.795810E-07   1.973648E-06   2.069203E-06   0.000000E+00
 
:INFO :  Singular value  2.026E+00 Weight  1.000E+00 Projection  1.598E-04
:INFO :  Singular value  2.069E-06 Weight  1.070E-04 Projection -9.487E-04
:RANK :  ACTIVE   1.00/2  =  50.01 % ; YY RANK   1.00/2  =  50.00 %
 
:BLIM :  VZERO Control Off
:TRUST:  Step 7.51E-01  Charge 7.50E-02 (e) CTO  2.50E-01 (e) PW  3.50E-01 (e)
:DIRM :  MEMORY  2/12 SCALE   1.000 RED  0.37 PRED  0.37 NEXT  1.00 
:TRAVE:  Charge 4.71E-04 (e) CTO  9.42E-04 (e) PW  9.60E-03 (e)
:DIRP :  |MSR1|= 1.862E-04 |PRATT|= 9.047E-03 ANGLE=   4.1 DEGREES
:DIRQ :  |MSR1|= 9.804E-05 |PRATT|= 8.947E-03 ANGLE=  12.6 DEGREES
:DIRT :  |MSR1|= 2.105E-04 |PRATT|= 1.272E-02 ANGLE=  18.7 DEGREES
:MIX  :   MSD1   REGULARIZATION:  2.00E-04 GREED: 0.01254  Newton 1.00  0.0165                
     
       CHARGES OF MIXED CHARGE DENSITY
:CTO   : INTERSTITIAL CHARGE =     6.139370
:CPC   : PW Pseudocharge     =    17.754295
:CTO001: CHARGE SPHERE  1    =    55.930315

:NEC03: NUCLEAR AND ELECTRONIC CHARGE    118.00000   118.00000

PW CHANGE     H    K    L      Current       Change    Residue
:PTO001:      0    0    0  9.22051193E-02  2.155E-06  1.057E-04
:PTO003:      0    2    0  2.00596006E-02  4.287E-07  1.840E-05
:PTO004:     -1    1    0  9.17083451E-02  2.114E-06  9.504E-05
:PTO005:      0    2   -1 -1.03943839E-01 -2.577E-06 -1.232E-04
:PTO006:      0    0   -2 -5.38581986E-02 -1.335E-06 -6.386E-05
:PTO007:     -1    1   -1 -1.05310037E-01 -2.271E-06 -1.031E-04
:PTO008:      0    2   -2 -1.34351728E-02 -1.616E-07 -6.987E-06
:PTO009:     -1    1   -2 -6.64356255E-02 -2.937E-07 -1.233E-05
:PTO011:     -1    3    0 -9.27141275E-03  1.593E-07  7.008E-06
:PTO012:     -1    3   -1 -3.61455630E-02  1.248E-06  5.159E-05
:PTO013:      0    4    0 -5.75532243E-03  4.130E-07  1.920E-05
:PTO014:      0    2   -3  1.35796159E-02 -9.184E-07 -4.174E-05

:ENE  : ********** TOTAL ENERGY IN Ry =       -36944.37343083

       TOTAL FORCE IN mRy/a.u. = |F|     Fx             Fy             Fz     with/without FOR in case.in2
:FOR001:   1.ATOM         11.924          0.000          0.000         11.924 partial forces
       TOTAL FORCE WITH RESPECT TO GLOBAL CARTESIAN COORDINATES:
:FCA001:   1.ATOM                         0.000         11.924          0.000 partial forces
       TOTAL FORCE WITH RESPECT TO THE GLOBAL COORDINATE SYSTEM:
:FGL001:   1.ATOM                 0.000000000    11.924143069     0.000000000 partial forces
 Flat Integration
 New Mode for Coulomb Integral
 Consistent 3/8+Simpson combinations
 Extension of core to zero
 LDM version in phi
 Fifth-order quadrature in outwin


            ---------
:ITE018: 18. ITERATION
            ---------

:NATO :    1 INDEPENDENT AND    2 TOTAL ATOMS IN UNITCELL
       SUBSTANCE: aU                                                          

       LATTICE                      = CXY 
:POT  : POTENTIAL OPTION EX_LDA EC_LDA VX_LDA VC_LDA
:LAT  : LATTICE CONSTANTS=  5.26305 10.68006  9.22032    1.571    1.571    1.571
:VOL  : UNIT CELL VOLUME =     259.13599
       MODE OF CALCULATION IS       = RELA
       NON-SPINPOLARIZED CALCULATION
:IFFT  : FFT-parameters:   48   90   72 Factor: 2.00


   CONVERGENCE PARAMETER FOR PSEUDOCHARGE: NCON=  9
   MAXIMAL VALUE OF RMT(JATOM)*ABSK(NKK) : RK  =27.59449


:VKCOUL :  VK-COUL convergence: 0.287E-06
       ATOMNUMBER=  1 Pr1        VCOUL-ZERO =  0.72744E+00
:EFG001:                        EFG         =     9.53315   *10**21  V / m**2
                               V20  TOT/SRF=    -6.59949    -0.07757
                               V22  TOT/SRF=    -5.72293    -0.01376
                               V22M TOT/SRF=     0.00000     0.00000
                               V21  TOT/SRF=     0.00000     0.00000
                               V21M TOT/SRF=     0.00000     0.00000

             -1.91271    0.00000    0.00000       -1.91271    0.00000    0.00000
              0.00000    9.53315    0.00000        0.00000    9.53315    0.00000
              0.00000    0.00000   -7.62044        0.00000    0.00000   -7.62044

         MAIN DIRECTIONS OF THE EFG   1.0000  0.0000  0.0000
                                      0.0000  1.0000  0.0000
                                      0.0000  0.0000  1.0000
:ANG001:  ANGLE WITH OLD X-AXIS =         0.0

:ETA001:                         ASYMM. ETA =     0.59872


     HELLMANN-FEYNMAN-FORCE IN mRy/a.u. = |F|  Fx       Fy             Fz
:FHF001:   1.ATOM   1515.731148108197      0.000000000000      0.000000000000  -1515.731148108197

:FIT001: LUSE= 13 SIGMA OF V-XC FIT FOR ATOM  1  0.1252736E-03
:FIT001: LUSE= 13 SIGMA OF V-XC FIT FOR ATOM  1  0.1252736E-03
:DEN  : DENSITY INTEGRAL  =        -14226.34670767   (Ry)
       ELS_POTENTIAL_AT Z=0 and Z=0.5:   1.06161   1.06161
       ELS_POTENTIAL_AT Y=0 and Y=0.5:  -0.02610  -0.02610
:VZERO:v0,v0c,v0x   0.28895   1.06161  -0.77266 v5,v5c,v5x   0.28895   1.06161  -0.77266
:VZERY:v0,v0c,v0x  -1.02364  -0.02610  -0.99754 v5,v5c,v5x  -1.02364  -0.02610  -0.99754
:VZERX:v0,v0c,v0x  -1.32648  -0.39549  -0.93099 v5,v5c,v5x  -1.32648  -0.39549  -0.93099
:LMAX-WF:   10   Non-Spherical LMAX:   4

          ATOMIC SPHERE DEPENDENT PARAMETERS FOR ATOM  Pr1       
:e__0001: OVERALL ENERGY PARAMETER IS    1.0618
          OVERALL BASIS SET ON ATOM IS LAPW
:E0_0001: E( 0)=    1.0618
             APW+lo
:E0_0001: E( 0)=   -1.3575   E(BOTTOM)=   -2.000   E(TOP)=   -0.715  4  5   249
             LOCAL ORBITAL
:E1_0001: E( 1)=    1.4618
             APW+lo
:E1_0001: E( 1)=    0.1090   E(BOTTOM)=   -0.859   E(TOP)=    1.077  3  4   252
             LOCAL ORBITAL
:E3_0001: E( 3)=    1.2876   E(BOTTOM)=    1.078   E(TOP)=    1.497  0  1   123
             APW+lo
:E2_0001: E( 2)=    1.0618   E(BOTTOM)=    0.873   E(TOP)= -200.000  2 -1   118
             APW+lo

       K=   0.06250   0.00000   0.06250            1
:RKM  : MATRIX SIZE   266LOs:  40  RKM= 8.47  WEIGHT= 4.00  PGR:    
       EIGENVALUES ARE:
:EIG00001:      -1.4274974   -1.3232203   -0.2634534    0.0448458    0.1185610
:EIG00006:       0.1465490    0.1751525    0.1787638    1.1013333    1.1566244
:EIG00011:       1.2237457    1.2314749    1.2355337    1.2485628    1.2720311
:EIG00016:       1.2982111    1.3098676    1.3146442    1.3221735    1.3266109
:EIG00021:       1.3396569    1.3400153    1.3430295    1.3719081    1.3880759
:EIG00026:       1.4289775    1.5125025    1.5202537    1.6026544    1.6495787
:EIG00031:       1.7222944    1.9082565    1.9741893    2.0218394    2.3134509
:EIG00036:       2.3596804    2.3997531    2.6702050    2.6848424    2.8321394
:EIG00041:       3.0392933    3.0828924    3.2479632    3.3126710    3.4605106
:EIG00046:       3.4696063    3.4975232    3.6761804    3.6906839    3.8329007
 
:EIG00051:       3.9487529    4.0926290    4.1633502    4.3058467    4.3318301
:EIG00056:       4.4287377    4.4971699    4.7051150    4.7493170    4.7577763
:EIG00061:       4.7973907    4.9280889    4.9837497    5.1318190    5.1771004
:EIG00066:       5.2080675    5.2310928    5.2567888    5.4040978    5.4766904
:EIG00071:       5.5410699    5.6277141    5.6901723    5.7466440    5.7469287
:EIG00076:       5.7679449    5.8139268    5.8303233    5.8620993    5.9602470
:EIG00081:       5.9827588    6.0402044    6.0659326    6.1534900    6.2094480
:EIG00086:       6.2247608    6.3597529    6.4460461    6.4679988    6.5364579
:EIG00091:       6.5999780    6.6674861    6.6949956    6.7291320    6.7305753
:EIG00096:       6.8970884    6.9357859    6.9789366    6.9902346    7.0775762
 
:EIG00101:       7.1519963    7.2128720    7.2669654    7.3029423    7.3153625
:EIG00106:       7.4188627    7.4830029    7.5701596    7.6420413    7.8151483
:EIG00111:       7.9227293    7.9344967    7.9474607    8.0277596    8.1400407
:EIG00116:       8.1893678    8.4022827    8.4680538    8.5100404    8.5569160
:EIG00121:       8.5912488    8.6270668    8.6620133
       ********************************************************

:KPT   :      NUMBER OF K-POINTS:   288
   0.0   0.0 angle (M,z), angle (M,x) deg
 
        SPIN-ORBIT EIGENVALUES:
     K=   0.06250   0.00000   0.06250            1
      MATRIX SIZE=  246   WEIGHT= 4.00
     EIGENVALUES ARE:
          -1.4275007   -1.4275007   -1.3232236   -1.3232236   -0.2904268
          -0.2904268   -0.0164020   -0.0164020    0.0290977    0.0290977
           0.2046379    0.2046379    0.2125524    0.2125524    0.2404205
           0.2404205    1.1012413    1.1012413    1.1567715    1.1567715
           1.2225341    1.2225341    1.2299724    1.2299724    1.2340709
           1.2340709    1.2474230    1.2474230    1.2700383    1.2700383
           1.2931042    1.2931042    1.3047241    1.3047241    1.3142369
           1.3142369    1.3263142    1.3263142    1.3295295    1.3295295

           1.3394250    1.3394250    1.3418475    1.3418475    1.3467796
           1.3467797    1.3739231    1.3739231    1.3895159    1.3895159
           1.4292372    1.4292373    1.5090905    1.5090905    1.5237922
           1.5237922    1.6031977    1.6031977    1.6496012    1.6496012
           1.7226176    1.7226176    1.9084721    1.9084721    1.9742359
           1.9742359    2.0221843    2.0221843    2.3140032    2.3140032
           2.3597808    2.3597808    2.3997723    2.3997723    2.6698895
           2.6698895    2.6847903    2.6847903    2.8315335    2.8315335

           3.0396855    3.0396855    3.0825681    3.0825681    3.2480738
           3.2480738    3.3122164    3.3122164    3.4604287    3.4604287
           3.4691814    3.4691814    3.4978091    3.4978091    3.6738111
           3.6738111    3.6931627    3.6931627    3.8332602    3.8332602
           3.9484905    3.9484905    4.0913676    4.0913676    4.1631709
           4.1631709    4.3054283    4.3054283    4.3317024    4.3317024
           4.4288347    4.4288347    4.4943009    4.4943009
       ********************************************************
:GAP (global)   :    0.0    Ry =     0.0   eV (metal)
:GAP (this spin):    0.0    Ry =     0.0   eV (metal)
         Bandranges (emin - emax) and occupancy:
:BAN00020:  20    1.046593    1.212863  1.00000000
:BAN00021:  21    1.102658    1.260332  1.00000000
:BAN00022:  22    1.102658    1.260332  1.00000000
:BAN00023:  23    1.167226    1.267972  0.98120315
:BAN00024:  24    1.167226    1.267972  0.98120314
:BAN00025:  25    1.217917    1.290170  0.62739764
:BAN00026:  26    1.217917    1.290170  0.62739761
:BAN00027:  27    1.236364    1.303594  0.37337868
:BAN00028:  28    1.236364    1.303594  0.37337865
:BAN00029:  29    1.251485    1.305069  0.01802056
:BAN00030:  30    1.251485    1.305069  0.01802056
:BAN00031:  31    1.266827    1.311992  0.00000000
:BAN00032:  32    1.266827    1.311992  0.00000000
:BAN00033:  33    1.294740    1.324902  0.00000000
:BAN00034:  34    1.294740    1.324902  0.00000000
:BAN00035:  35    1.302140    1.331405  0.00000000
        Energy to separate low and high energystates:    0.94062


:NOE  : NUMBER OF ELECTRONS          =   26.000

:FER  : F E R M I - ENERGY(TETRAH.M.)=   1.2619355802
:GMA  : POTENTIAL AND CHARGE CUT-OFF  12.00 Ry**.5

:POS001: ATOM   -1 X,Y,Z = 0.00000 0.89750 0.25000  MULT= 2  ZZ= 59.000  Pr1       

       LMMAX 16
       LM=   0 0  1 0  2 0  2 2  3 0  3 2  4 0  4 2  4 4  5 0  5 2  5 4  6 0  6 2  6 4  6 6

:CHA001: TOTAL VALENCE CHARGE INSIDE SPHERE   1 =   9.9295    (RMT=  2.3000 )
:PCS001: PARTIAL CHARGES SPHERE =  1 S,P,D,F,PX,PY,PZ,D-Z2,D-X2Y2,D-XY,D-XZ,D-YZ 
:QTL001: 1.9266 4.9540 0.9472 2.0969 1.6529 1.6461 1.6551 0.1863 0.1685 0.1939 0.1963 0.2021
        Q-s-low E-s-low   Q-p-low E-p-low   Q-d-low E-d-low   Q-f-low E-f-low
:EPL001:  1.8704 -1.3118    4.8598 -0.0213    0.0347 -0.0500    0.0115 -0.0537
        Q-s-hi  E-s-hi    Q-p-hi  E-p-hi    Q-d-hi  E-d-hi    Q-f-hi  E-f-hi 
:EPH001:  0.0562  1.1685    0.0943  1.1793    0.9125  1.1523    2.0855  1.2194

                      VXX         VYY         VZZ       UP TO R
:VZZ001:            -1.94162     9.41283    -7.47121       2.300

:CHA  : TOTAL VALENCE CHARGE INSIDE UNIT CELL =      26.000000

:SUM  : SUM OF EIGENVALUES =           6.215890254


        1.ATOM      Pr1                  14 CORE STATES
       CORE-FORCE in mRy/a.u. = |F|      Fx             Fy             Fz
:FCO001:   1.ATOM   1527.631033912846      0.000000000000      0.000000000000   1527.631033912846

:1S 001: 1S               -3066.308699849 Ry
:2S 001: 2S                -492.060444451 Ry
:2PP001: 2P*               -465.159051413 Ry
:2P 001: 2P                -429.761717298 Ry
:3S 001: 3S                -105.159941244 Ry
:3PP001: 3P*                -93.697427621 Ry
:3P 001: 3P                 -86.689790544 Ry
:3DD001: 3D*                -66.615417643 Ry
:3D 001: 3D                 -65.103986818 Ry
:4S 001: 4S                 -19.826988967 Ry
:4PP001: 4P*                -15.532776979 Ry
:4P 001: 4P                 -14.003968365 Ry
:4DD001: 4D*                 -6.934236966 Ry
:4D 001: 4D                  -6.664366938 Ry
:CINT001 Core Integral Atom   1   45.998472

       DENSITY AT NUCLEUS
        JATOM        VALENCE       SEMI-CORE          CORE           TOTAL
:RTO001:   1      638.612060        0.000000   656826.487534   657465.099593
     
       CHARGES OF NEW CHARGE DENSITY
:NTO   : INTERSTITIAL CHARGE =     6.140994
:NPC   : PW Pseudocharge     =    17.767605
:NTO001: CHARGE SPHERE  1    =    55.927971

:NEC01: NUCLEAR AND ELECTRONIC CHARGE    118.00000   117.99694
     
       CHARGES OF OLD CHARGE DENSITY
:OTO   : INTERSTITIAL CHARGE =     6.139370
:OPC   : PW Pseudocharge     =    17.754295
:OTO001: CHARGE SPHERE  1    =    55.930315

:NEC02: NUCLEAR AND ELECTRONIC CHARGE    118.00000   118.00000
     
       CONVERGENCE TEST
:DTO001: DIFFERENCE IN SPHERE  1 =  0.0049085

:DIS  :  CHARGE DISTANCE       ( 0.0049085 for atom    1 spin 1)      0.0049085
 PW Mixed is          280
 
******************************************************
* MULTISECANT MIXING VER9 RELEASE 10.4.0              *
* Slow Mode, cautious                                *
* Fixed density scale                                *
* Regularization       1.000E-04                     *
* Step Trust Radius    0.75000                       *
* Trust Upper Limit    2.000E+00                     *
* Max Number of Memory Steps   12                    *
******************************************************
 
:PWTMP   1.5721E+02  1.9467E+02  2.5914E+02
:PLANE:  PW TOTAL      5.8423 DISTAN   8.87E-03  1.52E-01 %
:CHARG:  CLM/ATOM   1381.9406 DISTAN   8.83E-03  6.39E-04 %
 
Step History
        DMIX         DMIXT        Red     Pred      Trust     Lambda    MagRel    MagAbs     Beta
  1   3.5000E-02   3.5000E-02 -1.00E+00  1.00E+00 -1.00E+01  1.00E+00  3.50E-02  3.50E-02  1.00E+00
  2   2.5000E-02   2.5000E-02  8.23E-01  1.00E+00 -1.00E+01  1.00E+00  2.50E-02  1.06E-03  1.00E+00
  3   2.0000E-02   2.0000E-02  3.66E-01  3.75E-01  6.01E-01  5.28E-02  3.28E-01  1.14E-02  1.00E+00
  4   1.2542E-02   1.2542E-02 -1.00E+00  1.00E+00  7.51E-01  1.00E+00  1.65E-02  2.10E-04  1.00E+00
:JACOBIANS    4.359E-01   2.365E-01
  
:NORMS:  1/Froebius, Min, Max, Used   0.6290E+00  0.4173E+00  0.9715E+00  0.7299E+00
:INFO :  Number of Memory Steps    3 Skipping    0
:INFO :  SLambda=    1.0211033497  Max    1.0211033497
:PREDicted Charge, CTotal, PW Trust    2.053E-03   4.107E-03   1.886E-02
:PREDicted DMix, Beta, BLim   8.8259E-01  3.2592E+01  1.0391E+00

Eigenvalues, unscaled except for SY+YY
   #     SY Real        SY Imag          SS             YY         SY+YY Real      SY+YY Imag
   1   1.134401E+00   0.000000E+00   1.089804E+00   2.045454E+00   2.848512E-08   0.000000E+00
   2   3.944523E-10   0.000000E+00   9.704242E-02   9.545455E-01   2.854284E+00   0.000000E+00
   3   3.131416E-01   0.000000E+00   2.967279E-11   2.633051E-08   1.623806E+00   0.000000E+00
 
:INFO :  Singular value  2.854E+00 Weight  1.000E+00 Projection  5.413E-03
:INFO :  Singular value  1.624E+00 Weight  1.000E+00 Projection -1.136E-02
:INFO :  Singular value  2.849E-08 Weight  1.939E-08 Projection -1.000E-07
:RANK :  ACTIVE   2.00/3  =  66.67 % ; YY RANK   2.00/3  =  66.67 %
 
:BLIM :  VZERO Control Off
:TRUST:  Step 8.58E-01  Charge 7.50E-02 (e) CTO  2.50E-01 (e) PW  3.50E-01 (e)
:DTRUS:  Lambda    2.806E-02 Increment    1.819E-12 Iterations   103 DMIX    2.901E-02
:INFOA:  Angle SubSpace to MSR1      0.32
:DIRM :  MEMORY  3/12 SCALE   1.000 RED  0.98 PRED  1.00 NEXT  0.21 
:INFO :  Limited by Atoms F by Step T

:TRAVE:  Charge 1.17E-03 (e) CTO  2.35E-03 (e) PW  1.32E-02 (e)
:DIRP :  |MSR1|= 9.245E-03 |PRATT|= 8.865E-03 ANGLE=   3.6 DEGREES
:DIRQ :  |MSR1|= 5.449E-03 |PRATT|= 8.833E-03 ANGLE=  10.1 DEGREES
:DIRT :  |MSR1|= 1.073E-02 |PRATT|= 1.251E-02 ANGLE=  15.9 DEGREES
:MIX  :   MSE1   REGULARIZATION:  2.05E-04 GREED: 0.03135  LMStep 0.93  0.8575 Step           
     
       CHARGES OF MIXED CHARGE DENSITY
:CTO   : INTERSTITIAL CHARGE =     6.143119
:CPC   : PW Pseudocharge     =    17.778345
:CTO001: CHARGE SPHERE  1    =    55.928441

:NEC03: NUCLEAR AND ELECTRONIC CHARGE    118.00000   118.00000

PW CHANGE     H    K    L      Current       Change    Residue
:PTO001:      0    0    0  9.23123968E-02  1.073E-04  1.037E-04
:PTO003:      0    2    0  2.00807752E-02  2.117E-05  1.815E-05
:PTO004:     -1    1    0  9.18123485E-02  1.040E-04  9.312E-05
:PTO005:      0    2   -1 -1.04071533E-01 -1.277E-04 -1.207E-04
:PTO006:      0    0   -2 -5.39243317E-02 -6.613E-05 -6.257E-05
:PTO007:     -1    1   -1 -1.05421509E-01 -1.115E-04 -1.008E-04
:PTO008:      0    2   -2 -1.34431053E-02 -7.933E-06 -6.852E-06
:PTO009:     -1    1   -2 -6.64497888E-02 -1.416E-05 -1.198E-05
:PTO011:     -1    3    0 -9.26353828E-03  7.874E-06  6.899E-06
:PTO012:     -1    3   -1 -3.60850827E-02  6.048E-05  5.032E-05
:PTO013:      0    4    0 -5.73496083E-03  2.036E-05  1.879E-05
:PTO014:      0    2   -3  1.35345494E-02 -4.507E-05 -4.079E-05

:ENE  : ********** TOTAL ENERGY IN Ry =       -36944.37343111

       TOTAL FORCE IN mRy/a.u. = |F|     Fx             Fy             Fz     with/without FOR in case.in2
:FOR001:   1.ATOM         11.900          0.000          0.000         11.900 partial forces
       TOTAL FORCE WITH RESPECT TO GLOBAL CARTESIAN COORDINATES:
:FCA001:   1.ATOM                         0.000         11.900          0.000 partial forces
       TOTAL FORCE WITH RESPECT TO THE GLOBAL COORDINATE SYSTEM:
:FGL001:   1.ATOM                 0.000000000    11.899885805     0.000000000 partial forces
 Flat Integration
 New Mode for Coulomb Integral
 Consistent 3/8+Simpson combinations
 Extension of core to zero
 LDM version in phi
 Fifth-order quadrature in outwin


            ---------
:ITE019: 19. ITERATION
            ---------

:NATO :    1 INDEPENDENT AND    2 TOTAL ATOMS IN UNITCELL
       SUBSTANCE: aU                                                          

       LATTICE                      = CXY 
:POT  : POTENTIAL OPTION EX_LDA EC_LDA VX_LDA VC_LDA
:LAT  : LATTICE CONSTANTS=  5.26305 10.68006  9.22032    1.571    1.571    1.571
:VOL  : UNIT CELL VOLUME =     259.13599
       MODE OF CALCULATION IS       = RELA
       NON-SPINPOLARIZED CALCULATION
:IFFT  : FFT-parameters:   48   90   72 Factor: 2.00


   CONVERGENCE PARAMETER FOR PSEUDOCHARGE: NCON=  9
   MAXIMAL VALUE OF RMT(JATOM)*ABSK(NKK) : RK  =27.59449


:VKCOUL :  VK-COUL convergence: 0.285E-06
       ATOMNUMBER=  1 Pr1        VCOUL-ZERO =  0.72832E+00
:EFG001:                        EFG         =     9.49058   *10**21  V / m**2
                               V20  TOT/SRF=    -6.57709    -0.07757
                               V22  TOT/SRF=    -5.69330    -0.01360
                               V22M TOT/SRF=     0.00000     0.00000
                               V21  TOT/SRF=     0.00000     0.00000
                               V21M TOT/SRF=     0.00000     0.00000

             -1.89602    0.00000    0.00000       -1.89602    0.00000    0.00000
              0.00000    9.49058    0.00000        0.00000    9.49058    0.00000
              0.00000    0.00000   -7.59456        0.00000    0.00000   -7.59456

         MAIN DIRECTIONS OF THE EFG   1.0000  0.0000  0.0000
                                      0.0000  1.0000  0.0000
                                      0.0000  0.0000  1.0000
:ANG001:  ANGLE WITH OLD X-AXIS =         0.0

:ETA001:                         ASYMM. ETA =     0.60044


     HELLMANN-FEYNMAN-FORCE IN mRy/a.u. = |F|  Fx       Fy             Fz
:FHF001:   1.ATOM   1514.428408636724      0.000000000000      0.000000000000  -1514.428408636724

:FIT001: LUSE= 13 SIGMA OF V-XC FIT FOR ATOM  1  0.1258643E-03
:FIT001: LUSE= 13 SIGMA OF V-XC FIT FOR ATOM  1  0.1258643E-03
:DEN  : DENSITY INTEGRAL  =        -14226.46966395   (Ry)
       ELS_POTENTIAL_AT Z=0 and Z=0.5:   1.06271   1.06271
       ELS_POTENTIAL_AT Y=0 and Y=0.5:  -0.02605  -0.02605
:VZERO:v0,v0c,v0x   0.28990   1.06271  -0.77281 v5,v5c,v5x   0.28990   1.06271  -0.77281
:VZERY:v0,v0c,v0x  -1.02398  -0.02605  -0.99794 v5,v5c,v5x  -1.02398  -0.02605  -0.99794
:VZERX:v0,v0c,v0x  -1.32734  -0.39606  -0.93128 v5,v5c,v5x  -1.32734  -0.39606  -0.93128
:LMAX-WF:   10   Non-Spherical LMAX:   4

          ATOMIC SPHERE DEPENDENT PARAMETERS FOR ATOM  Pr1       
:e__0001: OVERALL ENERGY PARAMETER IS    1.0619
          OVERALL BASIS SET ON ATOM IS LAPW
:E0_0001: E( 0)=    1.0619
             APW+lo
:E0_0001: E( 0)=   -1.3567   E(BOTTOM)=   -2.000   E(TOP)=   -0.714  4  5   245
             LOCAL ORBITAL
:E1_0001: E( 1)=    1.4619
             APW+lo
:E1_0001: E( 1)=    0.1099   E(BOTTOM)=   -0.858   E(TOP)=    1.078  3  4   250
             LOCAL ORBITAL
:E3_0001: E( 3)=    1.2887   E(BOTTOM)=    1.080   E(TOP)=    1.498  0  1   120
             APW+lo
:E2_0001: E( 2)=    1.0619   E(BOTTOM)=    0.874   E(TOP)= -200.000  2 -1   120
             APW+lo

       K=   0.06250   0.00000   0.06250            1
:RKM  : MATRIX SIZE   266LOs:  40  RKM= 8.47  WEIGHT= 4.00  PGR:    
       EIGENVALUES ARE:
:EIG00001:      -1.4266406   -1.3223585   -0.2626119    0.0457126    0.1194248
:EIG00006:       0.1473925    0.1759993    0.1796118    1.1022862    1.1576129
:EIG00011:       1.2247311    1.2325426    1.2365774    1.2496055    1.2730339
:EIG00016:       1.2993041    1.3109531    1.3157444    1.3232627    1.3276977
:EIG00021:       1.3407451    1.3410494    1.3441523    1.3730055    1.3891047
:EIG00026:       1.4299292    1.5134289    1.5211965    1.6035971    1.6505179
:EIG00031:       1.7232149    1.9091827    1.9751430    2.0227355    2.3144898
:EIG00036:       2.3607168    2.4007888    2.6712243    2.6857951    2.8330771
:EIG00041:       3.0402401    3.0838623    3.2489624    3.3136084    3.4614966
:EIG00046:       3.4705598    3.4985123    3.6771350    3.6916448    3.8338885
 
:EIG00051:       3.9497005    4.0935830    4.1642652    4.3067772    4.3327491
:EIG00056:       4.4296966    4.4981379    4.7060848    4.7502700    4.7587767
:EIG00061:       4.7983366    4.9290098    4.9847089    5.1327875    5.1780798
:EIG00066:       5.2090021    5.2320328    5.2577351    5.4050467    5.4776417
:EIG00071:       5.5420473    5.6286901    5.6910971    5.7476341    5.7478882
:EIG00076:       5.7688776    5.8148772    5.8312966    5.8630816    5.9612099
:EIG00081:       5.9837368    6.0411896    6.0669073    6.1544557    6.2104156
:EIG00086:       6.2257225    6.3606796    6.4470146    6.4689793    6.5374562
:EIG00091:       6.6009266    6.6684637    6.6959728    6.7300902    6.7315492
:EIG00096:       6.8980652    6.9367492    6.9799133    6.9912036    7.0785557
 
:EIG00101:       7.1529434    7.2138225    7.2679363    7.3038964    7.3163151
:EIG00106:       7.4198498    7.4839642    7.5711268    7.6429995    7.8161319
:EIG00111:       7.9236973    7.9354743    7.9484508    8.0287357    8.1410392
:EIG00116:       8.1903619    8.4032909    8.4690484    8.5110454    8.5579170
:EIG00121:       8.5922166    8.6280605    8.6630597
       ********************************************************

:KPT   :      NUMBER OF K-POINTS:   288
   0.0   0.0 angle (M,z), angle (M,x) deg
 
        SPIN-ORBIT EIGENVALUES:
     K=   0.06250   0.00000   0.06250            1
      MATRIX SIZE=  246   WEIGHT= 4.00
     EIGENVALUES ARE:
          -1.4266440   -1.4266440   -1.3223618   -1.3223618   -0.2895843
          -0.2895843   -0.0155497   -0.0155497    0.0299616    0.0299616
           0.2054944    0.2054944    0.2134017    0.2134017    0.2412678
           0.2412678    1.1021943    1.1021943    1.1577599    1.1577599
           1.2235233    1.2235233    1.2310411    1.2310411    1.2351160
           1.2351160    1.2484667    1.2484667    1.2710463    1.2710464
           1.2941949    1.2941949    1.3058176    1.3058176    1.3153200
           1.3153200    1.3274034    1.3274034    1.3306149    1.3306149

           1.3405066    1.3405066    1.3428894    1.3428894    1.3478964
           1.3478964    1.3750204    1.3750204    1.3905466    1.3905466
           1.4301910    1.4301910    1.5100248    1.5100248    1.5247281
           1.5247282    1.6041402    1.6041402    1.6505404    1.6505404
           1.7235382    1.7235382    1.9093983    1.9093983    1.9751894
           1.9751895    2.0230809    2.0230809    2.3150421    2.3150421
           2.3608172    2.3608172    2.4008079    2.4008079    2.6709080
           2.6709080    2.6857439    2.6857439    2.8324712    2.8324712

           3.0406324    3.0406324    3.0835380    3.0835380    3.2490724
           3.2490724    3.3131544    3.3131544    3.4614142    3.4614142
           3.4701356    3.4701356    3.4987982    3.4987982    3.6747659
           3.6747659    3.6941237    3.6941237    3.8342477    3.8342477
           3.9494381    3.9494381    4.0923214    4.0923214    4.1640865
           4.1640865    4.3063592    4.3063592    4.3326216    4.3326216
           4.4297933    4.4297933    4.4952684    4.4952684
       ********************************************************
:GAP (global)   :    0.0    Ry =     0.0   eV (metal)
:GAP (this spin):    0.0    Ry =     0.0   eV (metal)
         Bandranges (emin - emax) and occupancy:
:BAN00020:  20    1.047537    1.213802  1.00000000
:BAN00021:  21    1.103613    1.261381  1.00000000
:BAN00022:  22    1.103613    1.261381  1.00000000
:BAN00023:  23    1.168158    1.269020  0.98129693
:BAN00024:  24    1.168158    1.269020  0.98129693
:BAN00025:  25    1.218939    1.291250  0.62753057
:BAN00026:  26    1.218939    1.291250  0.62753055
:BAN00027:  27    1.237383    1.304699  0.37326583
:BAN00028:  28    1.237383    1.304699  0.37326580
:BAN00029:  29    1.252542    1.306165  0.01790670
:BAN00030:  30    1.252542    1.306165  0.01790669
:BAN00031:  31    1.267908    1.313074  0.00000000
:BAN00032:  32    1.267908    1.313074  0.00000000
:BAN00033:  33    1.295812    1.325994  0.00000000
:BAN00034:  34    1.295812    1.325994  0.00000000
:BAN00035:  35    1.303232    1.332496  0.00000000
        Energy to separate low and high energystates:    0.94156


:NOE  : NUMBER OF ELECTRONS          =   26.000

:FER  : F E R M I - ENERGY(TETRAH.M.)=   1.2629941972
:GMA  : POTENTIAL AND CHARGE CUT-OFF  12.00 Ry**.5

:POS001: ATOM   -1 X,Y,Z = 0.00000 0.89750 0.25000  MULT= 2  ZZ= 59.000  Pr1       

       LMMAX 16
       LM=   0 0  1 0  2 0  2 2  3 0  3 2  4 0  4 2  4 4  5 0  5 2  5 4  6 0  6 2  6 4  6 6

:CHA001: TOTAL VALENCE CHARGE INSIDE SPHERE   1 =   9.9289    (RMT=  2.3000 )
:PCS001: PARTIAL CHARGES SPHERE =  1 S,P,D,F,PX,PY,PZ,D-Z2,D-X2Y2,D-XY,D-XZ,D-YZ 
:QTL001: 1.9266 4.9541 0.9478 2.0956 1.6529 1.6461 1.6552 0.1865 0.1686 0.1940 0.1964 0.2022
        Q-s-low E-s-low   Q-p-low E-p-low   Q-d-low E-d-low   Q-f-low E-f-low
:EPL001:  1.8704 -1.3110    4.8598 -0.0204    0.0347 -0.0492    0.0115 -0.0529
        Q-s-hi  E-s-hi    Q-p-hi  E-p-hi    Q-d-hi  E-d-hi    Q-f-hi  E-f-hi 
:EPH001:  0.0562  1.1695    0.0943  1.1803    0.9131  1.1533    2.0841  1.2205

                      VXX         VYY         VZZ       UP TO R
:VZZ001:            -1.92824     9.40839    -7.48015       2.300

:CHA  : TOTAL VALENCE CHARGE INSIDE UNIT CELL =      26.000000

:SUM  : SUM OF EIGENVALUES =           6.239509842


        1.ATOM      Pr1                  14 CORE STATES
       CORE-FORCE in mRy/a.u. = |F|      Fx             Fy             Fz
:FCO001:   1.ATOM   1525.068618026188      0.000000000000      0.000000000000   1525.068618026188

:1S 001: 1S               -3066.308205026 Ry
:2S 001: 2S                -492.059709023 Ry
:2PP001: 2P*               -465.158370202 Ry
:2P 001: 2P                -429.761015838 Ry
:3S 001: 3S                -105.158761600 Ry
:3PP001: 3P*                -93.696270761 Ry
:3P 001: 3P                 -86.688613547 Ry
:3DD001: 3D*                -66.614299949 Ry
:3D 001: 3D                 -65.102861353 Ry
:4S 001: 4S                 -19.825695535 Ry
:4PP001: 4P*                -15.531497614 Ry
:4P 001: 4P                 -14.002703159 Ry
:4DD001: 4D*                 -6.933010284 Ry
:4D 001: 4D                  -6.663145856 Ry
:CINT001 Core Integral Atom   1   45.998472

       DENSITY AT NUCLEUS
        JATOM        VALENCE       SEMI-CORE          CORE           TOTAL
:RTO001:   1      638.611973        0.000000   656826.549280   657465.161253
     
       CHARGES OF NEW CHARGE DENSITY
:NTO   : INTERSTITIAL CHARGE =     6.142134
:NPC   : PW Pseudocharge     =    17.769199
:NTO001: CHARGE SPHERE  1    =    55.927401

:NEC01: NUCLEAR AND ELECTRONIC CHARGE    118.00000   117.99694
     
       CHARGES OF OLD CHARGE DENSITY
:OTO   : INTERSTITIAL CHARGE =     6.143119
:OPC   : PW Pseudocharge     =    17.778345
:OTO001: CHARGE SPHERE  1    =    55.928441

:NEC02: NUCLEAR AND ELECTRONIC CHARGE    118.00000   118.00000
     
       CONVERGENCE TEST
:DTO001: DIFFERENCE IN SPHERE  1 =  0.0012182

:DIS  :  CHARGE DISTANCE       ( 0.0012182 for atom    1 spin 1)      0.0012182
 PW Mixed is          280
 
******************************************************
* MULTISECANT MIXING VER9 RELEASE 10.4.0              *
* Slow Mode, cautious                                *
* Fixed density scale                                *
* Regularization       1.000E-04                     *
* Step Trust Radius    0.75000                       *
* Trust Upper Limit    2.000E+00                     *
* Max Number of Memory Steps   12                    *
******************************************************
 
:PWTMP   1.5721E+02  1.9467E+02  2.5914E+02
:PLANE:  PW TOTAL      5.8487 DISTAN   7.16E-04  1.22E-02 %
:CHARG:  CLM/ATOM   1381.9394 DISTAN   2.45E-03  1.77E-04 %
 
Step History
        DMIX         DMIXT        Red     Pred      Trust     Lambda    MagRel    MagAbs     Beta
  1   3.5000E-02   3.5000E-02 -1.00E+00  1.00E+00 -1.00E+01  1.00E+00  3.50E-02  3.50E-02  1.00E+00
  2   2.5000E-02   2.5000E-02  8.23E-01  1.00E+00 -1.00E+01  1.00E+00  2.50E-02  1.06E-03  1.00E+00
  3   2.0000E-02   2.0000E-02  3.66E-01  3.75E-01  6.01E-01  5.28E-02  3.28E-01  1.14E-02  1.00E+00
  4   1.2542E-02   1.2542E-02  9.84E-01  1.00E+00  7.51E-01  1.02E+00  1.65E-02  2.10E-04  1.00E+00
  5   3.1355E-02   2.9012E-02 -1.00E+00  2.11E-01  8.58E-01  1.00E+00  8.58E-01  1.07E-02  1.00E+00
:JACOBIANS    6.032E-01   3.137E-01
  
:NORMS:  1/Froebius, Min, Max, Used   0.6857E+00  0.5046E+00  0.9621E+00  0.8166E+00
:INFO :  Number of Memory Steps    4 Skipping    0
:INFO :  SLambda=    0.8543500572  Max    0.8543500572
:PREDicted Charge, CTotal, PW Trust    2.029E-03   4.057E-03   1.831E-02
:PREDicted DMix, Beta, BLim   1.0000E-02  1.0834E+00  1.4815E+00

Eigenvalues, unscaled except for SY+YY
   #     SY Real        SY Imag          SS             YY         SY+YY Real      SY+YY Imag
   1   1.835937E+00   0.000000E+00   1.770047E+00   2.654723E+00   3.950969E+00   0.000000E+00
   2   3.555554E-01   0.000000E+00   1.108887E-01   1.345277E+00   1.921333E+00   0.000000E+00
   3   4.661302E-10   0.000000E+00   5.424888E-09   2.303672E-08   2.626664E-08   0.000000E+00
   4   9.226565E-09   0.000000E+00   8.929455E-12   1.312787E-08   2.008034E-08   0.000000E+00
 
:INFO :  Singular value  3.951E+00 Weight  1.000E+00 Projection -5.573E-04
:INFO :  Singular value  1.921E+00 Weight  1.000E+00 Projection -4.154E-04
:INFO :  Singular value  2.632E-08 Weight  9.830E-09 Projection  1.221E-07
:INFO :  Singular value  2.004E-08 Weight  5.698E-09 Projection -9.095E-08
:RANK :  ACTIVE   2.00/4  =  50.00 % ; YY RANK   2.00/4  =  50.00 %
 
:BLIM :  VZERO Control Off
:TRUST:  Step 1.12E+00  Charge 7.50E-02 (e) CTO  2.50E-01 (e) PW  3.50E-01 (e)
:DIRM :  MEMORY  4/12 SCALE   1.000 RED  0.20 PRED  0.21 NEXT  0.94 
:TRAVE:  Charge 6.71E-04 (e) CTO  1.34E-03 (e) PW  7.33E-03 (e)
:DIRP :  |MSR1|= 7.786E-04 |PRATT|= 7.164E-04 ANGLE=  92.3 DEGREES
:DIRQ :  |MSR1|= 4.529E-04 |PRATT|= 2.445E-03 ANGLE=  28.9 DEGREES
:DIRT :  |MSR1|= 9.007E-04 |PRATT|= 2.548E-03 ANGLE=  65.6 DEGREES
:MIX  :   MSD1   REGULARIZATION:  2.65E-04 GREED: 0.01753  Newton 1.00  0.3535                
     
       CHARGES OF MIXED CHARGE DENSITY
:CTO   : INTERSTITIAL CHARGE =     6.143458
:CPC   : PW Pseudocharge     =    17.780378
:CTO001: CHARGE SPHERE  1    =    55.928271

:NEC03: NUCLEAR AND ELECTRONIC CHARGE    118.00000   118.00000

PW CHANGE     H    K    L      Current       Change    Residue
:PTO001:      0    0    0  9.23215522E-02  9.155E-06  6.938E-06
:PTO003:      0    2    0  2.00826854E-02  1.910E-06  5.231E-06
:PTO004:     -1    1    0  9.18211910E-02  8.842E-06 -4.740E-07
:PTO005:      0    2   -1 -1.04082271E-01 -1.074E-05  2.471E-06
:PTO006:      0    0   -2 -5.39298868E-02 -5.555E-06  1.553E-06
:PTO007:     -1    1   -1 -1.05430756E-01 -9.247E-06  1.223E-05
:PTO008:      0    2   -2 -1.34437915E-02 -6.862E-07 -4.234E-07
:PTO009:     -1    1   -2 -6.64508971E-02 -1.108E-06  5.750E-06
:PTO011:     -1    3    0 -9.26283715E-03  7.011E-07  1.559E-06
:PTO012:     -1    3   -1 -3.60800800E-02  5.003E-06 -1.050E-05
:PTO013:      0    4    0 -5.73326103E-03  1.700E-06 -1.382E-06
:PTO014:      0    2   -3  1.35308350E-02 -3.714E-06  6.197E-06

:ENE  : ********** TOTAL ENERGY IN Ry =       -36944.37342188

       TOTAL FORCE IN mRy/a.u. = |F|     Fx             Fy             Fz     with/without FOR in case.in2
:FOR001:   1.ATOM         10.640          0.000          0.000         10.640 partial forces
       TOTAL FORCE WITH RESPECT TO GLOBAL CARTESIAN COORDINATES:
:FCA001:   1.ATOM                         0.000         10.640          0.000 partial forces
       TOTAL FORCE WITH RESPECT TO THE GLOBAL COORDINATE SYSTEM:
:FGL001:   1.ATOM                 0.000000000    10.640209389     0.000000000 partial forces
 Flat Integration
 New Mode for Coulomb Integral
 Consistent 3/8+Simpson combinations
 Extension of core to zero
 LDM version in phi
 Fifth-order quadrature in outwin


            ---------
:ITE020: 20. ITERATION
            ---------

:NATO :    1 INDEPENDENT AND    2 TOTAL ATOMS IN UNITCELL
       SUBSTANCE: aU                                                          

       LATTICE                      = CXY 
:POT  : POTENTIAL OPTION EX_LDA EC_LDA VX_LDA VC_LDA
:LAT  : LATTICE CONSTANTS=  5.26305 10.68006  9.22032    1.571    1.571    1.571
:VOL  : UNIT CELL VOLUME =     259.13599
       MODE OF CALCULATION IS       = RELA
       NON-SPINPOLARIZED CALCULATION
:IFFT  : FFT-parameters:   48   90   72 Factor: 2.00


   CONVERGENCE PARAMETER FOR PSEUDOCHARGE: NCON=  9
   MAXIMAL VALUE OF RMT(JATOM)*ABSK(NKK) : RK  =27.59449


:VKCOUL :  VK-COUL convergence: 0.285E-06
       ATOMNUMBER=  1 Pr1        VCOUL-ZERO =  0.72840E+00
:EFG001:                        EFG         =     9.48680   *10**21  V / m**2
                               V20  TOT/SRF=    -6.57526    -0.07757
                               V22  TOT/SRF=    -5.69057    -0.01358
                               V22M TOT/SRF=     0.00000     0.00000
                               V21  TOT/SRF=     0.00000     0.00000
                               V21M TOT/SRF=     0.00000     0.00000

             -1.89434    0.00000    0.00000       -1.89434    0.00000    0.00000
              0.00000    9.48680    0.00000        0.00000    9.48680    0.00000
              0.00000    0.00000   -7.59246        0.00000    0.00000   -7.59246

         MAIN DIRECTIONS OF THE EFG   1.0000  0.0000  0.0000
                                      0.0000  1.0000  0.0000
                                      0.0000  0.0000  1.0000
:ANG001:  ANGLE WITH OLD X-AXIS =         0.0

:ETA001:                         ASYMM. ETA =     0.60064


     HELLMANN-FEYNMAN-FORCE IN mRy/a.u. = |F|  Fx       Fy             Fz
:FHF001:   1.ATOM   1514.189217341225      0.000000000000      0.000000000000  -1514.189217341225

:FIT001: LUSE= 13 SIGMA OF V-XC FIT FOR ATOM  1  0.1259229E-03
:FIT001: LUSE= 13 SIGMA OF V-XC FIT FOR ATOM  1  0.1259229E-03
:DEN  : DENSITY INTEGRAL  =        -14226.47715103   (Ry)
       ELS_POTENTIAL_AT Z=0 and Z=0.5:   1.06280   1.06280
[...]
 
:INFO :  Singular value  5.345E+00 Weight  1.000E+00 Projection  2.198E-05
:INFO :  Singular value  2.921E+00 Weight  1.000E+00 Projection -3.352E-05
:INFO :  Singular value  1.725E+00 Weight  1.000E+00 Projection  2.002E-06
:INFO :  Singular value  6.384E-02 Weight  1.000E+00 Projection -2.291E-03
:INFO :  Singular value  2.784E-07 Weight  7.021E-07 Projection -9.690E-08
:INFO :  Singular value  1.571E-08 Weight  2.235E-09 Projection  9.089E-10
:INFO :  Singular value  1.154E-10 Weight  1.205E-13 Projection -2.750E-13
:RANK :  ACTIVE   4.00/7  =  57.14 % ; YY RANK   4.00/7  =  57.14 %
 
:BLIM :  VZERO Control Off
:TRUST:  Step 1.70E+00  Charge 3.38E-02 (e) CTO  1.13E-01 (e) PW  1.58E-01 (e)
:DIRM :  MEMORY  7/12 SCALE   1.000 RED  0.97 PRED  1.00 NEXT  0.36 
:TRAVE:  Charge 1.73E-04 (e) CTO  3.47E-04 (e) PW  1.03E-03 (e)
:DIRP :  |MSR1|= 8.512E-05 |PRATT|= 1.366E-04 ANGLE=  19.8 DEGREES
:DIRQ :  |MSR1|= 2.982E-04 |PRATT|= 4.946E-04 ANGLE=  11.0 DEGREES
:DIRT :  |MSR1|= 3.101E-04 |PRATT|= 5.131E-04 ANGLE=  11.9 DEGREES
:MIX  :   MSD1   REGULARIZATION:  3.32E-04 GREED: 0.04383  Newton 1.00  0.6044                
     
       CHARGES OF MIXED CHARGE DENSITY
:CTO   : INTERSTITIAL CHARGE =     6.144746
:CPC   : PW Pseudocharge     =    17.777843
:CTO001: CHARGE SPHERE  1    =    55.927627

:NEC03: NUCLEAR AND ELECTRONIC CHARGE    118.00000   118.00000

PW CHANGE     H    K    L      Current       Change    Residue
:PTO001:      0    0    0  9.23167385E-02  9.208E-08  2.039E-07
:PTO003:      0    2    0  2.00833806E-02 -8.044E-07 -1.715E-06
:PTO004:     -1    1    0  9.18111983E-02  5.288E-07  1.205E-06
:PTO005:      0    2   -1 -1.04070222E-01 -1.170E-06 -2.637E-06
:PTO006:      0    0   -2 -5.39233767E-02 -5.333E-07 -1.265E-06
:PTO007:     -1    1   -1 -1.05411765E-01 -5.432E-07 -1.983E-06
:PTO008:      0    2   -2 -1.34424435E-02  7.347E-07  1.310E-06
:PTO009:     -1    1   -2 -6.64442605E-02  9.407E-07  1.275E-06
:PTO011:     -1    3    0 -9.26266528E-03 -1.369E-07 -3.198E-07
:PTO012:     -1    3   -1 -3.60945825E-02 -3.553E-07  9.957E-08
:PTO013:      0    4    0 -5.73642773E-03 -2.249E-07 -2.532E-07
:PTO014:      0    2   -3  1.35408435E-02  1.083E-06  1.428E-06

:ENE  : ********** TOTAL ENERGY IN Ry =       -36944.37342399

       TOTAL FORCE IN mRy/a.u. = |F|     Fx             Fy             Fz     with/without FOR in case.in2
:FOR001:   1.ATOM         11.327          0.000          0.000         11.327 partial forces
       TOTAL FORCE WITH RESPECT TO GLOBAL CARTESIAN COORDINATES:
:FCA001:   1.ATOM                         0.000         11.327          0.000 partial forces
       TOTAL FORCE WITH RESPECT TO THE GLOBAL COORDINATE SYSTEM:
:FGL001:   1.ATOM                 0.000000000    11.327315639     0.000000000 partial forces
 Flat Integration
 New Mode for Coulomb Integral
 Consistent 3/8+Simpson combinations
 Extension of core to zero
 LDM version in phi
 Fifth-order quadrature in outwin


            ---------
:ITE023: 23. ITERATION
            ---------

:NATO :    1 INDEPENDENT AND    2 TOTAL ATOMS IN UNITCELL
       SUBSTANCE: aU                                                          

       LATTICE                      = CXY 
:POT  : POTENTIAL OPTION EX_LDA EC_LDA VX_LDA VC_LDA
:LAT  : LATTICE CONSTANTS=  5.26305 10.68006  9.22032    1.571    1.571    1.571
:VOL  : UNIT CELL VOLUME =     259.13599
       MODE OF CALCULATION IS       = RELA
       NON-SPINPOLARIZED CALCULATION
:IFFT  : FFT-parameters:   48   90   72 Factor: 2.00


   CONVERGENCE PARAMETER FOR PSEUDOCHARGE: NCON=  9
   MAXIMAL VALUE OF RMT(JATOM)*ABSK(NKK) : RK  =27.59449


:VKCOUL :  VK-COUL convergence: 0.285E-06
       ATOMNUMBER=  1 Pr1        VCOUL-ZERO =  0.72836E+00
:EFG001:                        EFG         =     9.45943   *10**21  V / m**2
                               V20  TOT/SRF=    -6.57062    -0.07748
                               V22  TOT/SRF=    -5.66588    -0.01357
                               V22M TOT/SRF=     0.00000     0.00000
                               V21  TOT/SRF=     0.00000     0.00000
                               V21M TOT/SRF=     0.00000     0.00000

             -1.87233    0.00000    0.00000       -1.87233    0.00000    0.00000
              0.00000    9.45943    0.00000        0.00000    9.45943    0.00000
              0.00000    0.00000   -7.58710        0.00000    0.00000   -7.58710

         MAIN DIRECTIONS OF THE EFG   1.0000  0.0000  0.0000
                                      0.0000  1.0000  0.0000
                                      0.0000  0.0000  1.0000
:ANG001:  ANGLE WITH OLD X-AXIS =         0.0

:ETA001:                         ASYMM. ETA =     0.60413


     HELLMANN-FEYNMAN-FORCE IN mRy/a.u. = |F|  Fx       Fy             Fz
:FHF001:   1.ATOM   1510.374846768256      0.000000000000      0.000000000000  -1510.374846768256

:FIT001: LUSE= 13 SIGMA OF V-XC FIT FOR ATOM  1  0.1265176E-03
:FIT001: LUSE= 13 SIGMA OF V-XC FIT FOR ATOM  1  0.1265176E-03
:DEN  : DENSITY INTEGRAL  =        -14226.45783664   (Ry)
       ELS_POTENTIAL_AT Z=0 and Z=0.5:   1.06282   1.06282
       ELS_POTENTIAL_AT Y=0 and Y=0.5:  -0.02602  -0.02602
:VZERO:v0,v0c,v0x   0.28995   1.06282  -0.77287 v5,v5c,v5x   0.28995   1.06282  -0.77287
:VZERY:v0,v0c,v0x  -1.02399  -0.02602  -0.99797 v5,v5c,v5x  -1.02399  -0.02602  -0.99797
:VZERX:v0,v0c,v0x  -1.32738  -0.39605  -0.93134 v5,v5c,v5x  -1.32738  -0.39605  -0.93134
:LMAX-WF:   10   Non-Spherical LMAX:   4

          ATOMIC SPHERE DEPENDENT PARAMETERS FOR ATOM  Pr1       
:e__0001: OVERALL ENERGY PARAMETER IS    1.0630
          OVERALL BASIS SET ON ATOM IS LAPW
:E0_0001: E( 0)=    1.0630
             APW+lo
:E0_0001: E( 0)=   -1.3567   E(BOTTOM)=   -2.000   E(TOP)=   -0.714  4  5   243
             LOCAL ORBITAL
:E1_0001: E( 1)=    1.4630
             APW+lo
:E1_0001: E( 1)=    0.1098   E(BOTTOM)=   -0.858   E(TOP)=    1.078  3  4   250
             LOCAL ORBITAL
:E3_0001: E( 3)=    1.2887   E(BOTTOM)=    1.080   E(TOP)=    1.498  0  1   124
             APW+lo
:E2_0001: E( 2)=    1.0630   E(BOTTOM)=    0.874   E(TOP)= -200.000  2 -1   116
             APW+lo

       K=   0.06250   0.00000   0.06250            1
:RKM  : MATRIX SIZE   266LOs:  40  RKM= 8.47  WEIGHT= 4.00  PGR:    
       EIGENVALUES ARE:
:EIG00001:      -1.4266591   -1.3223836   -0.2626086    0.0456898    0.1194028
:EIG00006:       0.1473753    0.1759804    0.1795906    1.1023100    1.1576491
:EIG00011:       1.2247406    1.2325364    1.2365759    1.2496105    1.2730316
:EIG00016:       1.2992961    1.3109461    1.3157350    1.3232550    1.3276797
:EIG00021:       1.3407356    1.3410456    1.3441481    1.3729930    1.3890951
:EIG00026:       1.4299340    1.5134391    1.5212070    1.6036085    1.6505260
:EIG00031:       1.7232291    1.9091892    1.9751700    2.0227399    2.3145312
:EIG00036:       2.3607627    2.4008234    2.6712611    2.6858253    2.8330934
:EIG00041:       3.0402681    3.0838919    3.2489798    3.3136399    3.4615128
:EIG00046:       3.4706048    3.4985206    3.6771723    3.6916623    3.8339125
 
:EIG00051:       3.9496933    4.0935773    4.1642793    4.3067695    4.3327145
:EIG00056:       4.4297027    4.4981510    4.7060943    4.7502171    4.7587694
:EIG00061:       4.7983514    4.9289987    4.9847100    5.1327836    5.1780158
:EIG00066:       5.2090014    5.2320118    5.2577340    5.4050263    5.4776458
:EIG00071:       5.5420550    5.6286807    5.6911159    5.7476353    5.7478900
:EIG00076:       5.7688830    5.8148903    5.8312894    5.8630846    5.9612320
:EIG00081:       5.9837365    6.0411804    6.0669150    6.1544692    6.2104416
:EIG00086:       6.2257227    6.3606977    6.4470316    6.4689631    6.5374395
:EIG00091:       6.6009232    6.6684851    6.6959302    6.7300181    6.7315302
:EIG00096:       6.8980965    6.9367051    6.9799145    6.9911899    7.0785345
 
:EIG00101:       7.1529452    7.2138268    7.2679380    7.3038832    7.3163036
:EIG00106:       7.4198877    7.4839476    7.5711182    7.6429894    7.8161415
:EIG00111:       7.9236933    7.9354406    7.9484616    8.0287111    8.1409864
:EIG00116:       8.1903665    8.4031953    8.4689975    8.5109424    8.5578699
:EIG00121:       8.5921999    8.6280083    8.6629592
       ********************************************************

:KPT   :      NUMBER OF K-POINTS:   288
   0.0   0.0 angle (M,z), angle (M,x) deg
 
        SPIN-ORBIT EIGENVALUES:
     K=   0.06250   0.00000   0.06250            1
      MATRIX SIZE=  246   WEIGHT= 4.00
     EIGENVALUES ARE:
          -1.4266624   -1.4266624   -1.3223870   -1.3223870   -0.2895844
          -0.2895844   -0.0155713   -0.0155713    0.0299411    0.0299411
           0.2054742    0.2054742    0.2133827    0.2133827    0.2412501
           0.2412501    1.1022180    1.1022180    1.1577960    1.1577960
           1.2235322    1.2235322    1.2310348    1.2310348    1.2351143
           1.2351143    1.2484714    1.2484714    1.2710436    1.2710436
           1.2941880    1.2941880    1.3058064    1.3058064    1.3153129
           1.3153129    1.3273955    1.3273955    1.3306000    1.3306000

           1.3405000    1.3405000    1.3428832    1.3428832    1.3478914
           1.3478914    1.3750081    1.3750081    1.3905369    1.3905369
           1.4301955    1.4301956    1.5100336    1.5100336    1.5247397
           1.5247398    1.6041517    1.6041517    1.6505485    1.6505485
           1.7235523    1.7235523    1.9094048    1.9094048    1.9752161
           1.9752161    2.0230855    2.0230855    2.3150834    2.3150834
           2.3608630    2.3608630    2.4008426    2.4008426    2.6709448
           2.6709448    2.6857742    2.6857742    2.8324874    2.8324874

           3.0406604    3.0406604    3.0835675    3.0835675    3.2490899
           3.2490899    3.3131857    3.3131857    3.4614311    3.4614311
           3.4701798    3.4701798    3.4988066    3.4988066    3.6748010
           3.6748010    3.6941432    3.6941432    3.8342716    3.8342716
           3.9494310    3.9494310    4.0923156    4.0923156    4.1641004
           4.1641004    4.3063516    4.3063516    4.3325871    4.3325871
           4.4297995    4.4297995    4.4952809    4.4952809
       ********************************************************
:GAP (global)   :    0.0    Ry =     0.0   eV (metal)
:GAP (this spin):    0.0    Ry =     0.0   eV (metal)
         Bandranges (emin - emax) and occupancy:
:BAN00020:  20    1.047569    1.213827  1.00000000
:BAN00021:  21    1.103643    1.261376  1.00000000
:BAN00022:  22    1.103643    1.261376  1.00000000
:BAN00023:  23    1.168175    1.269015  0.98129843
:BAN00024:  24    1.168175    1.269015  0.98129842
:BAN00025:  25    1.218941    1.291238  0.62750877
:BAN00026:  26    1.218941    1.291238  0.62750875
:BAN00027:  27    1.237385    1.304692  0.37327228
:BAN00028:  28    1.237385    1.304692  0.37327226
:BAN00029:  29    1.252542    1.306154  0.01792055
:BAN00030:  30    1.252542    1.306154  0.01792055
:BAN00031:  31    1.267899    1.313066  0.00000000
:BAN00032:  32    1.267899    1.313066  0.00000000
:BAN00033:  33    1.295805    1.325988  0.00000000
:BAN00034:  34    1.295805    1.325988  0.00000000
:BAN00035:  35    1.303223    1.332486  0.00000000
        Energy to separate low and high energystates:    0.94160


:NOE  : NUMBER OF ELECTRONS          =   26.000

:FER  : F E R M I - ENERGY(TETRAH.M.)=   1.2629897034
:GMA  : POTENTIAL AND CHARGE CUT-OFF  12.00 Ry**.5

:POS001: ATOM   -1 X,Y,Z = 0.00000 0.89750 0.25000  MULT= 2  ZZ= 59.000  Pr1       

       LMMAX 16
       LM=   0 0  1 0  2 0  2 2  3 0  3 2  4 0  4 2  4 4  5 0  5 2  5 4  6 0  6 2  6 4  6 6

:CHA001: TOTAL VALENCE CHARGE INSIDE SPHERE   1 =   9.9292    (RMT=  2.3000 )
:PCS001: PARTIAL CHARGES SPHERE =  1 S,P,D,F,PX,PY,PZ,D-Z2,D-X2Y2,D-XY,D-XZ,D-YZ 
:QTL001: 1.9266 4.9542 0.9477 2.0959 1.6529 1.6461 1.6552 0.1864 0.1686 0.1940 0.1964 0.2022
        Q-s-low E-s-low   Q-p-low E-p-low   Q-d-low E-d-low   Q-f-low E-f-low
:EPL001:  1.8704 -1.3110    4.8599 -0.0204    0.0347 -0.0492    0.0115 -0.0529
        Q-s-hi  E-s-hi    Q-p-hi  E-p-hi    Q-d-hi  E-d-hi    Q-f-hi  E-f-hi 
:EPH001:  0.0562  1.1695    0.0943  1.1803    0.9130  1.1533    2.0844  1.2205

                      VXX         VYY         VZZ       UP TO R
:VZZ001:            -1.92591     9.40668    -7.48077       2.300

:CHA  : TOTAL VALENCE CHARGE INSIDE UNIT CELL =      26.000000

:SUM  : SUM OF EIGENVALUES =           6.239404197


        1.ATOM      Pr1                  14 CORE STATES
       CORE-FORCE in mRy/a.u. = |F|      Fx             Fy             Fz
:FCO001:   1.ATOM   1521.439773658035      0.000000000000      0.000000000000   1521.439773658035

:1S 001: 1S               -3066.308505727 Ry
:2S 001: 2S                -492.059973953 Ry
:2PP001: 2P*               -465.158644749 Ry
:2P 001: 2P                -429.761286815 Ry
:3S 001: 3S                -105.158909817 Ry
:3PP001: 3P*                -93.696425577 Ry
:3P 001: 3P                 -86.688761271 Ry
:3DD001: 3D*                -66.614467407 Ry
:3D 001: 3D                 -65.103026390 Ry
:4S 001: 4S                 -19.825712273 Ry
:4PP001: 4P*                -15.531513714 Ry
:4P 001: 4P                 -14.002715429 Ry
:4DD001: 4D*                 -6.933023304 Ry
:4D 001: 4D                  -6.663158147 Ry
:CINT001 Core Integral Atom   1   45.998472

       DENSITY AT NUCLEUS
        JATOM        VALENCE       SEMI-CORE          CORE           TOTAL
:RTO001:   1      638.610066        0.000000   656826.579223   657465.189290
     
       CHARGES OF NEW CHARGE DENSITY
:NTO   : INTERSTITIAL CHARGE =     6.141658
:NPC   : PW Pseudocharge     =    17.769052
:NTO001: CHARGE SPHERE  1    =    55.927639

:NEC01: NUCLEAR AND ELECTRONIC CHARGE    118.00000   117.99694
     
       CHARGES OF OLD CHARGE DENSITY
:OTO   : INTERSTITIAL CHARGE =     6.144746
:OPC   : PW Pseudocharge     =    17.777843
:OTO001: CHARGE SPHERE  1    =    55.927627

:NEC02: NUCLEAR AND ELECTRONIC CHARGE    118.00000   118.00000
     
       CONVERGENCE TEST
:DTO001: DIFFERENCE IN SPHERE  1 =  0.0000738

:DIS  :  CHARGE DISTANCE       ( 0.0000738 for atom    1 spin 1)      0.0000738
 PW Mixed is          280
 
******************************************************
* MULTISECANT MIXING VER9 RELEASE 10.4.0              *
* Standard Mode with controls                        *
* Fixed density scale                                *
* Regularization       1.000E-04                     *
* Trust Upper Limit    5.000E+00                     *
* Max Number of Memory Steps    8                    *
******************************************************
 
:PWTMP   1.5721E+02  1.9467E+02  2.5914E+02
:PLANE:  PW TOTAL      5.8488 DISTAN   4.04E-05  6.90E-04 %
:CHARG:  CLM/ATOM   1381.9392 DISTAN   1.63E-04  1.18E-05 %
 
Step History
        DMIX         DMIXT        Red     Pred      Trust     Lambda    MagRel    MagAbs     Beta
  1   3.5000E-02   3.5000E-02 -1.00E+00  1.00E+00 -1.00E+01  1.00E+00  3.50E-02  3.50E-02  1.00E+00
  2   2.5000E-02   2.5000E-02  8.23E-01  1.00E+00 -1.00E+01  1.00E+00  2.50E-02  1.06E-03  1.00E+00
  3   2.0000E-02   2.0000E-02  3.66E-01  3.75E-01  6.01E-01  5.28E-02  3.28E-01  1.14E-02  1.00E+00
  4   1.2542E-02   1.2542E-02  9.84E-01  1.00E+00  7.51E-01  1.02E+00  1.65E-02  2.10E-04  1.00E+00
  5   3.1355E-02   2.9012E-02  2.04E-01  2.11E-01  8.58E-01  8.54E-01  8.58E-01  1.07E-02  1.00E+00
  6   1.7531E-02   1.7531E-02  9.10E-01  9.35E-01  1.12E+00  5.93E-01  3.54E-01  9.01E-04  1.00E+00
  7   4.3828E-02   4.3828E-02  2.29E-01  2.57E-01  1.24E+00  3.73E-01  8.50E-01  1.97E-03  1.00E+00
  8   1.7531E-02   1.7531E-02  9.69E-01  9.97E-01  1.65E+00  6.63E-01  8.73E-02  4.62E-05  1.00E+00
  9   4.3828E-02   4.3828E-02 -1.00E+00  3.63E-01  1.70E+00  1.00E+00  6.04E-01  3.10E-04  1.00E+00
:JACOBIANS    9.952E-01   1.388E+00
  
:NORMS:  1/Froebius, Min, Max, Used   0.7497E+00  0.4156E+00  0.9873E+00  0.9308E+00
:INFO :  Number of Memory Steps    8 Skipping    0
:INFO :  SLambda=    0.2202888926  Max    0.2202888926
:PREDicted Charge, CTotal, PW Trust    1.793E-05   3.585E-05   1.162E-05
:PREDicted DMix, Beta, BLim   2.4923E-02  9.9692E-01  6.1224E-01

Eigenvalues, unscaled except for SY+YY
   #     SY Real        SY Imag          SS             YY         SY+YY Real      SY+YY Imag
   1   2.745342E+00   0.000000E+00   2.629509E+00   3.035001E+00   3.615096E+00   0.000000E+00
   2   1.401434E+00   0.000000E+00   1.277735E+00   2.257719E+00   2.497865E+00   0.000000E+00
   3   8.108603E-01   0.000000E+00   5.443280E-01   1.633763E+00   1.759740E+00   0.000000E+00
   4   2.841479E-01   0.000000E+00   4.493413E-02   1.073517E+00   1.282004E+00   0.000000E+00
   5   3.018107E-07   0.000000E+00   1.194341E-07   7.264466E-07   8.039740E-07   0.000000E+00
   6   9.811730E-09   0.000000E+00   4.244939E-10   2.117461E-07   2.155839E-07   0.000000E+00
   7   2.702596E-10   0.000000E+00   5.467159E-12   1.310841E-08   1.338759E-08   0.000000E+00
   8   4.221982E-12   0.000000E+00   2.038051E-13   1.096353E-10   1.105182E-10   0.000000E+00
 
:INFO :  Singular value  3.615E+00 Weight  1.000E+00 Projection -1.142E-06
:INFO :  Singular value  2.498E+00 Weight  1.000E+00 Projection -3.795E-06
:INFO :  Singular value  1.760E+00 Weight  1.000E+00 Projection  1.138E-06
:INFO :  Singular value  1.282E+00 Weight  1.000E+00 Projection  4.256E-07
:INFO :  Singular value  8.043E-07 Weight  7.022E-06 Projection  1.349E-06
:INFO :  Singular value  2.155E-07 Weight  5.042E-07 Projection  2.416E-08
:INFO :  Singular value  1.339E-08 Weight  1.946E-09 Projection  1.530E-10
:INFO :  Singular value  1.105E-10 Weight  1.326E-13 Projection -5.508E-14
:RANK :  ACTIVE   4.00/8  =  50.00 % ; YY RANK   4.00/8  =  50.00 %
 
:DLIM :  Beta Active  9.977E-01
:BLIM :  VZERO Control Off
:TRUST:  Step 2.27E+00  Charge 2.53E-02 (e) CTO  8.44E-02 (e) PW  1.18E-01 (e)
:DIRM :  MEMORY  8/8  SCALE   1.000 RED  0.33 PRED  0.36 NEXT  1.00 BETA  1.00
:TRAVE:  Charge 8.69E-05 (e) CTO  1.74E-04 (e) PW  5.15E-04 (e)
:DIRP :  |MSR1|= 1.531E-06 |PRATT|= 4.035E-05 ANGLE=  73.5 DEGREES
:DIRQ :  |MSR1|= 6.016E-06 |PRATT|= 1.628E-04 ANGLE=  19.0 DEGREES
:DIRT :  |MSR1|= 6.208E-06 |PRATT|= 1.677E-04 ANGLE=  25.0 DEGREES
:MIX  :   MSD1   REGULARIZATION:  3.04E-04 GREED: 0.02968  Newton 1.00  0.0370                
     
       CHARGES OF MIXED CHARGE DENSITY
:CTO   : INTERSTITIAL CHARGE =     6.144745
:CPC   : PW Pseudocharge     =    17.777841
:CTO001: CHARGE SPHERE  1    =    55.927627

:NEC03: NUCLEAR AND ELECTRONIC CHARGE    118.00000   118.00000

PW CHANGE     H    K    L      Current       Change    Residue
:PTO001:      0    0    0  9.23167280E-02 -1.054E-08  2.001E-07
:PTO003:      0    2    0  2.00833834E-02  2.736E-09  2.903E-07
:PTO004:     -1    1    0  9.18112154E-02  1.711E-08  1.010E-06
:PTO005:      0    2   -1 -1.04070231E-01 -8.353E-09 -7.933E-07
:PTO006:      0    0   -2 -5.39233743E-02  2.394E-09 -2.003E-07
:PTO007:     -1    1   -1 -1.05411769E-01 -3.649E-09 -6.822E-07
:PTO008:      0    2   -2 -1.34424376E-02  5.909E-09  3.837E-08
:PTO009:     -1    1   -2 -6.64442343E-02  2.624E-08  6.167E-07
:PTO011:     -1    3    0 -9.26266520E-03  7.240E-11  5.314E-08
:PTO012:     -1    3   -1 -3.60945904E-02 -7.897E-09  1.406E-07
:PTO013:      0    4    0 -5.73643161E-03 -3.887E-09  2.449E-08
:PTO014:      0    2   -3  1.35408571E-02  1.361E-08 -1.245E-10

:ENE  : ********** TOTAL ENERGY IN Ry =       -36944.37342393

       TOTAL FORCE IN mRy/a.u. = |F|     Fx             Fy             Fz     with/without FOR in case.in2
:FOR001:   1.ATOM         11.065          0.000          0.000         11.065 partial forces
       TOTAL FORCE WITH RESPECT TO GLOBAL CARTESIAN COORDINATES:
:FCA001:   1.ATOM                         0.000         11.065          0.000 partial forces
       TOTAL FORCE WITH RESPECT TO THE GLOBAL COORDINATE SYSTEM:
:FGL001:   1.ATOM                 0.000000000    11.064926890     0.000000000 partial forces
