
:LABEL1: Calculations in /home/ykent/GWIEN/example/Pr/aU/V17/case
:LABEL2: on didymium-2.cmpgroup.ameslab.gov at Fri Jul 10 13:27:54 CDT 2020
:LABEL3: using WIEN2k_19.1 (Release 25/6/2019) in /home/ykent/opt/src/WIEN2k_19.1
:LABEL4: using the command: run_lapw -cc 0.0001
 Flat Integration
 New Mode for Coulomb Integral
 Consistent 3/8+Simpson combinations
 Extension of core to zero
 LDM version in phi
 Fifth-order quadrature in outwin


            ---------
:ITE001:  1. ITERATION
            ---------

:NATO :    1 INDEPENDENT AND    2 TOTAL ATOMS IN UNITCELL
       SUBSTANCE: aU                                                          

       LATTICE                      = CXY 
:POT  : POTENTIAL OPTION EX_LDA EC_LDA VX_LDA VC_LDA
:LAT  : LATTICE CONSTANTS=  6.41698 13.02167 11.24187    1.571    1.571    1.571
:VOL  : UNIT CELL VOLUME =     469.68395
       MODE OF CALCULATION IS       = RELA
       NON-SPINPOLARIZED CALCULATION
:IFFT  : FFT-parameters:   54  100   90 Factor: 2.00


   CONVERGENCE PARAMETER FOR PSEUDOCHARGE: NCON=  9
   MAXIMAL VALUE OF RMT(JATOM)*ABSK(NKK) : RK  =27.59878


:VKCOUL :  VK-COUL convergence: 0.126E-06
       ATOMNUMBER=  1 Pr1        VCOUL-ZERO =  0.80872E-01
:EFG001:                        EFG         =    -0.02890   *10**21  V / m**2
                               V20  TOT/SRF=    -0.02503    -0.03218
                               V22  TOT/SRF=     0.00445     0.00542
                               V22M TOT/SRF=     0.00000     0.00000
                               V21  TOT/SRF=     0.00000     0.00000
                               V21M TOT/SRF=     0.00000     0.00000

              0.01890    0.00000    0.00000        0.01890    0.00000    0.00000
              0.00000    0.01000    0.00000        0.00000    0.01000    0.00000
              0.00000    0.00000   -0.02890        0.00000    0.00000   -0.02890

         MAIN DIRECTIONS OF THE EFG   1.0000  0.0000  0.0000
                                      0.0000  1.0000  0.0000
                                      0.0000  0.0000  1.0000
:ANG001:  ANGLE WITH OLD X-AXIS =         0.0

:ETA001:                         ASYMM. ETA =     0.30768


     HELLMANN-FEYNMAN-FORCE IN mRy/a.u. = |F|  Fx       Fy             Fz
:FHF001:   1.ATOM    329.146752117347      0.000000000000      0.000000000000   -329.146752117347

:FIT001: LUSE= 13 SIGMA OF V-XC FIT FOR ATOM  1  0.2644545E-05
:FIT001: LUSE= 13 SIGMA OF V-XC FIT FOR ATOM  1  0.2644545E-05
:DEN  : DENSITY INTEGRAL  =        -14154.48289813   (Ry)
       ELS_POTENTIAL_AT Z=0 and Z=0.5:   0.71492   0.71492
       ELS_POTENTIAL_AT Y=0 and Y=0.5:   0.05867   0.05867
:VZERO:v0,v0c,v0x   0.13616   0.71492  -0.57877 v5,v5c,v5x   0.13616   0.71492  -0.57877
:VZERY:v0,v0c,v0x  -0.71427   0.05867  -0.77294 v5,v5c,v5x  -0.71427   0.05867  -0.77294
:VZERX:v0,v0c,v0x  -1.10414  -0.36873  -0.73541 v5,v5c,v5x  -1.10414  -0.36873  -0.73541
:LMAX-WF:   10   Non-Spherical LMAX:   4

          ATOMIC SPHERE DEPENDENT PARAMETERS FOR ATOM  Pr1       
:e__0001: OVERALL ENERGY PARAMETER IS    0.3000
          OVERALL BASIS SET ON ATOM IS LAPW
:E0_0001: E( 0)=    0.3000
             APW+lo
:E0_0001: E( 0)=   -2.0091   E(BOTTOM)=   -2.648   E(TOP)=   -1.370  4  5   177
             LOCAL ORBITAL
:E1_0001: E( 1)=    0.7000
             APW+lo
:E1_0001: E( 1)=   -0.5412   E(BOTTOM)=   -1.503   E(TOP)=    0.420  3  4   196
             LOCAL ORBITAL
:E3_0001: E( 3)=    0.6535   E(BOTTOM)=    0.443   E(TOP)=    0.865  0  1   131
             APW+lo
:E2_0001: E( 2)=    0.3000   E(BOTTOM)=    0.236   E(TOP)= -200.000  2 -1    91
             APW+lo

       K=   0.06250   0.00000   0.06250            1
:RKM  : MATRIX SIZE   441LOs:  40  RKM= 8.49  WEIGHT= 4.00  PGR:    
       EIGENVALUES ARE:
:EIG00001:      -1.9830205   -1.9674195   -0.7187874   -0.6347306   -0.6163911
:EIG00006:      -0.6105111   -0.6040263   -0.6027974    0.4039165    0.5404143
:EIG00011:       0.6509663    0.6568028    0.6583756    0.6624659    0.6656460
:EIG00016:       0.6790417    0.6834998    0.6840714    0.6875755    0.6899301
:EIG00021:       0.6938733    0.6961189    0.6984237    0.7036126    0.7207856
:EIG00026:       0.7297939    0.8069733    0.8198522    0.8462589    0.8793553
:EIG00031:       0.8966164    0.9846039    1.0308150    1.0770273    1.3737522
:EIG00036:       1.3769910    1.4605229    1.4659637    1.6248661    1.6764020
:EIG00041:       1.7478542    1.8492898    1.9324810    1.9461213
       ********************************************************

:KPT   :      NUMBER OF K-POINTS:   288
:GAP (global)   :    0.0    Ry =     0.0   eV (metal)
         Bandranges (emin - emax) and occupancy:
:BAN00004:   4   -0.701107   -0.634731  2.00000000
:BAN00005:   5   -0.689882   -0.616391  2.00000000
:BAN00006:   6   -0.673833   -0.606451  2.00000000
:BAN00007:   7   -0.653242   -0.603517  2.00000000
:BAN00008:   8   -0.622744   -0.599080  2.00000000
:BAN00009:   9    0.398746    0.615308  2.00000000
:BAN00010:  10    0.508586    0.628001  2.00000000
:BAN00011:  11    0.574241    0.652098  2.00000000
:BAN00012:  12    0.620296    0.660451  2.00000000
:BAN00013:  13    0.641228    0.674508  1.59747106
:BAN00014:  14    0.654640    0.680392  0.40252894
:BAN00015:  15    0.663279    0.683954  0.00000000
:BAN00016:  16    0.670424    0.684451  0.00000000
:BAN00017:  17    0.674740    0.685077  0.00000000
:BAN00018:  18    0.677792    0.686478  0.00000000
:BAN00019:  19    0.681311    0.689543  0.00000000
        Energy to separate low and high energystates:    0.34875


:NOE  : NUMBER OF ELECTRONS          =   26.000

:FER  : F E R M I - ENERGY(TETRAH.M.)=   0.6630201667
:GMA  : POTENTIAL AND CHARGE CUT-OFF  12.00 Ry**.5

:POS001: ATOM   -1 X,Y,Z = 0.00000 0.89750 0.25000  MULT= 2  ZZ= 59.000  Pr1       

       LMMAX 16
       LM=   0 0  1 0  2 0  2 2  3 0  3 2  4 0  4 2  4 4  5 0  5 2  5 4  6 0  6 2  6 4  6 6

:CHA001: TOTAL VALENCE CHARGE INSIDE SPHERE   1 =   9.1853    (RMT=  2.3000 )
:PCS001: PARTIAL CHARGES SPHERE =  1 S,P,D,F,PX,PY,PZ,D-Z2,D-X2Y2,D-XY,D-XZ,D-YZ 
:QTL001: 1.9436 5.0172 0.6369 1.5873 1.6677 1.6693 1.6801 0.1212 0.1295 0.1273 0.1241 0.1348
        Q-s-low E-s-low   Q-p-low E-p-low   Q-d-low E-d-low   Q-f-low E-f-low
:EPL001:  1.8675 -1.9675    4.9340 -0.6500    0.0020 -0.6795    0.0005 -0.6900
        Q-s-hi  E-s-hi    Q-p-hi  E-p-hi    Q-d-hi  E-d-hi    Q-f-hi  E-f-hi 
:EPH001:  0.0761  0.5442    0.0832  0.5910    0.6350  0.6012    1.5868  0.6446

                      VXX         VYY         VZZ       UP TO R
:VZZ001:             3.04150     4.85470    -7.89620       2.300

:CHA  : TOTAL VALENCE CHARGE INSIDE UNIT CELL =      26.000000

:SUM  : SUM OF EIGENVALUES =          -9.615175165


        1.ATOM      Pr1                  14 CORE STATES
       CORE-FORCE in mRy/a.u. = |F|      Fx             Fy             Fz
:FCO001:   1.ATOM    267.947850295697      0.000000000000      0.000000000000    267.947850295697

:1S 001: 1S               -3066.894555529 Ry
:2S 001: 2S                -492.660241330 Ry
:2PP001: 2P*               -465.757875098 Ry
:2P 001: 2P                -430.361072240 Ry
:3S 001: 3S                -105.757814290 Ry
:3PP001: 3P*                -94.295228963 Ry
:3P 001: 3P                 -87.287842505 Ry
:3DD001: 3D*                -67.214196482 Ry
:3D 001: 3D                 -65.702771484 Ry
:4S 001: 4S                 -20.443502641 Ry
:4PP001: 4P*                -16.150551061 Ry
:4P 001: 4P                 -14.623614458 Ry
:4DD001: 4D*                 -7.557550414 Ry
:4D 001: 4D                  -7.288324766 Ry
:CINT001 Core Integral Atom   1   45.998469

       DENSITY AT NUCLEUS
        JATOM        VALENCE       SEMI-CORE          CORE           TOTAL
:RTO001:   1      647.972216        0.000000   656820.786782   657468.758998
     
       CHARGES OF NEW CHARGE DENSITY
:NTO   : INTERSTITIAL CHARGE =     7.629401
:NPC   : PW Pseudocharge     =    17.126704
:NTO001: CHARGE SPHERE  1    =    55.183769

:NEC01: NUCLEAR AND ELECTRONIC CHARGE    118.00000   117.99694
     
       CHARGES OF OLD CHARGE DENSITY
:OTO   : INTERSTITIAL CHARGE =     6.915330
:OPC   : PW Pseudocharge     =    15.775479
:OTO001: CHARGE SPHERE  1    =    55.542968

:NEC02: NUCLEAR AND ELECTRONIC CHARGE    118.00000   118.00127
     
       CONVERGENCE TEST
:DTO001: DIFFERENCE IN SPHERE  1 =  0.5821548

:DIS  :  CHARGE DISTANCE       ( 0.5821548 for atom    1 spin 1)      0.5821548
 PW Mixed is          491
 
******************************************************
* MULTISECANT MIXING VER9 RELEASE 10.4.0              *
* Standard Mode with controls                        *
* Fixed density scale                                *
* Regularization       1.000E-04                     *
* Trust Upper Limit    5.000E+00                     *
* Max Number of Memory Steps    8                    *
******************************************************
 
:PWTMP   3.6775E+02  1.9467E+02  4.6968E+02
:PLANE:  PW TOTAL      4.2673 DISTAN   5.26E-01  1.23E+01 %
:CHARG:  CLM/ATOM   1382.0513 DISTAN   9.70E-01  7.02E-02 %
 
Step History
        DMIX         DMIXT        Red     Pred      Trust     Lambda    MagRel    MagAbs     Beta
  1   3.5000E-02   3.5000E-02 -1.00E+00  1.00E+00 -1.00E+01  1.00E+00  3.50E-02  3.50E-02  1.00E+00
:INFO :  Note, Pratt in use
:TRUST:  Step 3.75E-02  Charge 7.50E-02 (e) CTO  2.50E-01 (e) PW  3.50E-01 (e)
:DIRM :  MEMORY  0/ 8 SCALE   1.000
Performing Pseudo Compensation
Final Pseudo Compensation Rescaling     1.00000E+00
:MIX  :   PRATT  REGULARIZATION:  1.00E-04 GREED: 0.02500                  
     
       CHARGES OF MIXED CHARGE DENSITY
:CTO   : INTERSTITIAL CHARGE =     6.932024
:CPC   : PW Pseudocharge     =    16.653116
:CTO001: CHARGE SPHERE  1    =    55.533988

:NEC03: NUCLEAR AND ELECTRONIC CHARGE    118.00000   118.00000

PW CHANGE     H    K    L      Current       Change    Residue
:PTO001:      0    0    0  5.02149164E-02  1.913E-03  4.427E-03
:PTO003:      0    2    0  1.37326564E-02  8.918E-04  1.907E-03
:PTO004:     -1    1    0  6.78271252E-02  4.776E-03  6.910E-03
:PTO005:      0    2   -1 -7.91282495E-02 -5.646E-03 -6.960E-03
:PTO006:      0    0   -2 -4.10652718E-02 -2.932E-03 -3.463E-03
:PTO007:     -1    1   -1 -8.61025665E-02 -6.683E-03 -7.138E-03
:PTO008:      0    2   -2 -1.41629301E-02 -1.363E-03 -1.647E-03
:PTO009:     -1    1   -2 -7.12305673E-02 -7.423E-03 -9.375E-03
:PTO011:     -1    3    0 -1.15314098E-02 -1.442E-03 -1.650E-03
:PTO012:     -1    3   -1 -5.19713307E-02 -7.181E-03 -9.500E-03
:PTO013:      0    4    0 -9.69952315E-03 -1.492E-03 -1.628E-03
:PTO014:      0    2   -3  2.18733127E-02  3.397E-03  4.308E-03

:ENE  : ********** TOTAL ENERGY IN Ry =       -36944.18451273

       TOTAL FORCE IN mRy/a.u. = |F|     Fx             Fy             Fz     with/without FOR in case.in2
:FOR001:   1.ATOM         61.199          0.000          0.000        -61.199 partial forces
       TOTAL FORCE WITH RESPECT TO GLOBAL CARTESIAN COORDINATES:
:FCA001:   1.ATOM                         0.000        -61.199          0.000 partial forces
       TOTAL FORCE WITH RESPECT TO THE GLOBAL COORDINATE SYSTEM:
:FGL001:   1.ATOM                 0.000000000   -61.198901822     0.000000000 partial forces
 Flat Integration
 New Mode for Coulomb Integral
 Consistent 3/8+Simpson combinations
 Extension of core to zero
 LDM version in phi
 Fifth-order quadrature in outwin


            ---------
:ITE002:  2. ITERATION
            ---------

:NATO :    1 INDEPENDENT AND    2 TOTAL ATOMS IN UNITCELL
       SUBSTANCE: aU                                                          

       LATTICE                      = CXY 
:POT  : POTENTIAL OPTION EX_LDA EC_LDA VX_LDA VC_LDA
:LAT  : LATTICE CONSTANTS=  6.41698 13.02167 11.24187    1.571    1.571    1.571
:VOL  : UNIT CELL VOLUME =     469.68395
       MODE OF CALCULATION IS       = RELA
       NON-SPINPOLARIZED CALCULATION
:IFFT  : FFT-parameters:   54  100   90 Factor: 2.00


   CONVERGENCE PARAMETER FOR PSEUDOCHARGE: NCON=  9
   MAXIMAL VALUE OF RMT(JATOM)*ABSK(NKK) : RK  =27.59878


:VKCOUL :  VK-COUL convergence: 0.762E-07
       ATOMNUMBER=  1 Pr1        VCOUL-ZERO =  0.83752E-01
:EFG001:                        EFG         =    -0.22628   *10**21  V / m**2
                               V20  TOT/SRF=    -0.19596    -0.03181
                               V22  TOT/SRF=    -0.01863     0.00475
                               V22M TOT/SRF=     0.00000     0.00000
                               V21  TOT/SRF=     0.00000     0.00000
                               V21M TOT/SRF=     0.00000     0.00000

              0.09451    0.00000    0.00000        0.09451    0.00000    0.00000
              0.00000    0.13177    0.00000        0.00000    0.13177    0.00000
              0.00000    0.00000   -0.22628        0.00000    0.00000   -0.22628

         MAIN DIRECTIONS OF THE EFG   1.0000  0.0000  0.0000
                                      0.0000  1.0000  0.0000
                                      0.0000  0.0000  1.0000
:ANG001:  ANGLE WITH OLD X-AXIS =         0.0

:ETA001:                         ASYMM. ETA =     0.16463


     HELLMANN-FEYNMAN-FORCE IN mRy/a.u. = |F|  Fx       Fy             Fz
:FHF001:   1.ATOM    333.977082176425      0.000000000000      0.000000000000   -333.977082176425

:FIT001: LUSE= 13 SIGMA OF V-XC FIT FOR ATOM  1  0.2652369E-05
:FIT001: LUSE= 13 SIGMA OF V-XC FIT FOR ATOM  1  0.2652369E-05
:DEN  : DENSITY INTEGRAL  =        -14153.01842463   (Ry)
       ELS_POTENTIAL_AT Z=0 and Z=0.5:   0.71975   0.71975
       ELS_POTENTIAL_AT Y=0 and Y=0.5:   0.06217   0.06217
:VZERO:v0,v0c,v0x   0.14040   0.71975  -0.57935 v5,v5c,v5x   0.14040   0.71975  -0.57935
:VZERY:v0,v0c,v0x  -0.71259   0.06217  -0.77476 v5,v5c,v5x  -0.71259   0.06217  -0.77476
:VZERX:v0,v0c,v0x  -1.11507  -0.37431  -0.74076 v5,v5c,v5x  -1.11507  -0.37431  -0.74076
:LMAX-WF:   10   Non-Spherical LMAX:   4

          ATOMIC SPHERE DEPENDENT PARAMETERS FOR ATOM  Pr1       
:e__0001: OVERALL ENERGY PARAMETER IS    0.4087
          OVERALL BASIS SET ON ATOM IS LAPW
:E0_0001: E( 0)=    0.4087
             APW+lo
:E0_0001: E( 0)=   -2.0124   E(BOTTOM)=   -2.650   E(TOP)=   -1.375  4  5   185
             LOCAL ORBITAL
:E1_0001: E( 1)=    0.8087
             APW+lo
:E1_0001: E( 1)=   -0.5438   E(BOTTOM)=   -1.504   E(TOP)=    0.416  3  4   197
             LOCAL ORBITAL
:E3_0001: E( 3)=    0.6454   E(BOTTOM)=    0.436   E(TOP)=    0.855  0  1   122
             APW+lo
:E2_0001: E( 2)=    0.4087   E(BOTTOM)=    0.235   E(TOP)= -200.000  2 -1    89
             APW+lo

       K=   0.06250   0.00000   0.06250            1
:RKM  : MATRIX SIZE   441LOs:  40  RKM= 8.49  WEIGHT= 4.00  PGR:    
       EIGENVALUES ARE:
:EIG00001:      -1.9858766   -1.9704036   -0.7194831   -0.6363162   -0.6180839
:EIG00006:      -0.6121870   -0.6055210   -0.6045399    0.4069398    0.5429601
:EIG00011:       0.6467898    0.6508159    0.6516536    0.6557349    0.6588646
:EIG00016:       0.6715035    0.6759772    0.6764262    0.6797849    0.6825361
:EIG00021:       0.6867367    0.6888609    0.6908893    0.6955524    0.7179602
:EIG00026:       0.7289635    0.8074079    0.8210375    0.8478439    0.8806130
:EIG00031:       0.8976685    0.9857893    1.0315742    1.0775930    1.3757662
:EIG00036:       1.3780989    1.4627716    1.4678198    1.6273674    1.6791597
:EIG00041:       1.7501371    1.8515721    1.9342745    1.9481335    2.0552647
:EIG00046:       2.1007228
 
       ********************************************************

:KPT   :      NUMBER OF K-POINTS:   288
:GAP (global)   :    0.0    Ry =     0.0   eV (metal)
         Bandranges (emin - emax) and occupancy:
:BAN00004:   4   -0.702181   -0.636316  2.00000000
:BAN00005:   5   -0.691069   -0.618084  2.00000000
:BAN00006:   6   -0.675017   -0.608160  2.00000000
:BAN00007:   7   -0.654613   -0.605250  2.00000000
:BAN00008:   8   -0.624320   -0.600849  2.00000000
:BAN00009:   9    0.401780    0.615917  2.00000000
:BAN00010:  10    0.511349    0.626991  2.00000000
:BAN00011:  11    0.576247    0.647735  2.00000000
:BAN00012:  12    0.620322    0.655660  2.00000000
:BAN00013:  13    0.638023    0.667133  1.58391719
:BAN00014:  14    0.649377    0.673267  0.41608281
:BAN00015:  15    0.657121    0.676092  0.00000000
:BAN00016:  16    0.663655    0.677079  0.00000000
:BAN00017:  17    0.667881    0.677455  0.00000000
:BAN00018:  18    0.670474    0.678844  0.00000000
:BAN00019:  19    0.673945    0.681869  0.00000000
        Energy to separate low and high energystates:    0.35178


:NOE  : NUMBER OF ELECTRONS          =   26.000

:FER  : F E R M I - ENERGY(TETRAH.M.)=   0.6569915664
:GMA  : POTENTIAL AND CHARGE CUT-OFF  12.00 Ry**.5

:POS001: ATOM   -1 X,Y,Z = 0.00000 0.89750 0.25000  MULT= 2  ZZ= 59.000  Pr1       

       LMMAX 16
       LM=   0 0  1 0  2 0  2 2  3 0  3 2  4 0  4 2  4 4  5 0  5 2  5 4  6 0  6 2  6 4  6 6

:CHA001: TOTAL VALENCE CHARGE INSIDE SPHERE   1 =   9.2994    (RMT=  2.3000 )
:PCS001: PARTIAL CHARGES SPHERE =  1 S,P,D,F,PX,PY,PZ,D-Z2,D-X2Y2,D-XY,D-XZ,D-YZ 
:QTL001: 1.9428 5.0159 0.5983 1.7421 1.6679 1.6690 1.6791 0.1125 0.1177 0.1226 0.1172 0.1282
        Q-s-low E-s-low   Q-p-low E-p-low   Q-d-low E-d-low   Q-f-low E-f-low
:EPL001:  1.8681 -1.9705    4.9391 -0.6514    0.0019 -0.6806    0.0005 -0.6910
        Q-s-hi  E-s-hi    Q-p-hi  E-p-hi    Q-d-hi  E-d-hi    Q-f-hi  E-f-hi 
:EPH001:  0.0747  0.5449    0.0768  0.5885    0.5963  0.5992    1.7416  0.6400

                      VXX         VYY         VZZ       UP TO R
:VZZ001:             2.14812     4.52521    -6.67333       2.300

:CHA  : TOTAL VALENCE CHARGE INSIDE UNIT CELL =      26.000000

:SUM  : SUM OF EIGENVALUES =          -9.652272731


        1.ATOM      Pr1                  14 CORE STATES
       CORE-FORCE in mRy/a.u. = |F|      Fx             Fy             Fz
:FCO001:   1.ATOM    279.116555867349      0.000000000000      0.000000000000    279.116555867349

:1S 001: 1S               -3066.913077454 Ry
:2S 001: 2S                -492.678331847 Ry
:2PP001: 2P*               -465.776025585 Ry
:2P 001: 2P                -430.379196500 Ry
:3S 001: 3S                -105.775057679 Ry
:3PP001: 3P*                -94.312535909 Ry
:3P 001: 3P                 -87.305051500 Ry
:3DD001: 3D*                -67.231589300 Ry
:3D 001: 3D                 -65.720138113 Ry
:4S 001: 4S                 -20.456431429 Ry
:4PP001: 4P*                -16.163224273 Ry
:4P 001: 4P                 -14.635887549 Ry
:4DD001: 4D*                 -7.569110869 Ry
:4D 001: 4D                  -7.299747989 Ry
:CINT001 Core Integral Atom   1   45.998480

       DENSITY AT NUCLEUS
        JATOM        VALENCE       SEMI-CORE          CORE           TOTAL
:RTO001:   1      648.190574        0.000000   656821.755372   657469.945946
     
       CHARGES OF NEW CHARGE DENSITY
:NTO   : INTERSTITIAL CHARGE =     7.401128
:NPC   : PW Pseudocharge     =    17.061002
:NTO001: CHARGE SPHERE  1    =    55.297915

:NEC01: NUCLEAR AND ELECTRONIC CHARGE    118.00000   117.99696
     
       CHARGES OF OLD CHARGE DENSITY
:OTO   : INTERSTITIAL CHARGE =     6.932024
:OPC   : PW Pseudocharge     =    16.653116
:OTO001: CHARGE SPHERE  1    =    55.533988

:NEC02: NUCLEAR AND ELECTRONIC CHARGE    118.00000   118.00000
     
       CONVERGENCE TEST
:DTO001: DIFFERENCE IN SPHERE  1 =  0.3826931

:DIS  :  CHARGE DISTANCE       ( 0.3826931 for atom    1 spin 1)      0.3826931
 PW Mixed is          491
 
******************************************************
* MULTISECANT MIXING VER9 RELEASE 10.4.0              *
* Slow Mode, cautious                                *
* Fixed density scale                                *
* Regularization       1.000E-04                     *
* Step Trust Radius    0.75000                       *
* Trust Upper Limit    2.000E+00                     *
* Max Number of Memory Steps   12                    *
******************************************************
 
:PWTMP   3.6775E+02  1.9467E+02  4.6968E+02
:PLANE:  PW TOTAL      4.6043 DISTAN   1.47E-01  3.20E+00 %
:CHARG:  CLM/ATOM   1382.0469 DISTAN   7.61E-01  5.51E-02 %
 
Step History
        DMIX         DMIXT        Red     Pred      Trust     Lambda    MagRel    MagAbs     Beta
  1   3.5000E-02   3.5000E-02 -1.00E+00  1.00E+00 -1.00E+01  1.00E+00  3.50E-02  3.50E-02  1.00E+00
  2   2.5000E-02   2.5000E-02 -1.00E+00  1.00E+00 -1.00E+01  1.00E+00  2.50E-02  2.76E-02  1.00E+00
:JACOBIANS    3.302E-01   1.217E-02
  
:TRUST:  Step 3.39E-02  Charge 7.50E-02 (e) CTO  2.50E-01 (e) PW  3.50E-01 (e)
:DIRM :  MEMORY  1/12 SCALE   1.000
:MIX  :   PRATT  REGULARIZATION:  1.00E-04 GREED: 0.03386  Expand 1.35  0.0339                
     
       CHARGES OF MIXED CHARGE DENSITY
:CTO   : INTERSTITIAL CHARGE =     6.944577
:CPC   : PW Pseudocharge     =    17.268515
:CTO001: CHARGE SPHERE  1    =    55.527712

:NEC03: NUCLEAR AND ELECTRONIC CHARGE    118.00000   118.00000

PW CHANGE     H    K    L      Current       Change    Residue
:PTO001:      0    0    0  5.15518814E-02  1.337E-03  1.889E-03
:PTO003:      0    2    0  1.43559542E-02  6.233E-04  9.424E-04
:PTO004:     -1    1    0  7.11648345E-02  3.338E-03  2.038E-03
:PTO005:      0    2   -1 -8.30741601E-02 -3.946E-03 -1.306E-03
:PTO006:      0    0   -2 -4.31147418E-02 -2.049E-03 -5.338E-04
:PTO007:     -1    1   -1 -9.07733415E-02 -4.671E-03 -5.605E-04
:PTO008:      0    2   -2 -1.51153486E-02 -9.524E-04 -2.891E-04
:PTO009:     -1    1   -2 -7.64183721E-02 -5.188E-03 -2.093E-03
:PTO011:     -1    3    0 -1.25391507E-02 -1.008E-03 -2.296E-04
:PTO012:     -1    3   -1 -5.69899770E-02 -5.019E-03 -2.359E-03
:PTO013:      0    4    0 -1.07424496E-02 -1.043E-03 -1.498E-04
:PTO014:      0    2   -3  2.42475163E-02  2.374E-03  9.118E-04

:ENE  : ********** TOTAL ENERGY IN Ry =       -36944.17475303

       TOTAL FORCE IN mRy/a.u. = |F|     Fx             Fy             Fz     with/without FOR in case.in2
:FOR001:   1.ATOM         54.861          0.000          0.000        -54.861 partial forces
       TOTAL FORCE WITH RESPECT TO GLOBAL CARTESIAN COORDINATES:
:FCA001:   1.ATOM                         0.000        -54.861          0.000 partial forces
       TOTAL FORCE WITH RESPECT TO THE GLOBAL COORDINATE SYSTEM:
:FGL001:   1.ATOM                 0.000000000   -54.860526309     0.000000000 partial forces
 Flat Integration
 New Mode for Coulomb Integral
 Consistent 3/8+Simpson combinations
 Extension of core to zero
 LDM version in phi
 Fifth-order quadrature in outwin


            ---------
:ITE003:  3. ITERATION
            ---------

:NATO :    1 INDEPENDENT AND    2 TOTAL ATOMS IN UNITCELL
       SUBSTANCE: aU                                                          

       LATTICE                      = CXY 
:POT  : POTENTIAL OPTION EX_LDA EC_LDA VX_LDA VC_LDA
:LAT  : LATTICE CONSTANTS=  6.41698 13.02167 11.24187    1.571    1.571    1.571
:VOL  : UNIT CELL VOLUME =     469.68395
       MODE OF CALCULATION IS       = RELA
       NON-SPINPOLARIZED CALCULATION
:IFFT  : FFT-parameters:   54  100   90 Factor: 2.00


   CONVERGENCE PARAMETER FOR PSEUDOCHARGE: NCON=  9
   MAXIMAL VALUE OF RMT(JATOM)*ABSK(NKK) : RK  =27.59878


:VKCOUL :  VK-COUL convergence: 0.772E-07
       ATOMNUMBER=  1 Pr1        VCOUL-ZERO =  0.85766E-01
:EFG001:                        EFG         =    -0.36423   *10**21  V / m**2
                               V20  TOT/SRF=    -0.31543    -0.03155
                               V22  TOT/SRF=    -0.03475     0.00428
                               V22M TOT/SRF=     0.00000     0.00000
                               V21  TOT/SRF=     0.00000     0.00000
                               V21M TOT/SRF=     0.00000     0.00000

              0.14737    0.00000    0.00000        0.14737    0.00000    0.00000
              0.00000    0.21687    0.00000        0.00000    0.21687    0.00000
              0.00000    0.00000   -0.36423        0.00000    0.00000   -0.36423

         MAIN DIRECTIONS OF THE EFG   1.0000  0.0000  0.0000
                                      0.0000  1.0000  0.0000
                                      0.0000  0.0000  1.0000
:ANG001:  ANGLE WITH OLD X-AXIS =         0.0

:ETA001:                         ASYMM. ETA =     0.19081


     HELLMANN-FEYNMAN-FORCE IN mRy/a.u. = |F|  Fx       Fy             Fz
:FHF001:   1.ATOM    337.573856880608      0.000000000000      0.000000000000   -337.573856880608

:FIT001: LUSE= 13 SIGMA OF V-XC FIT FOR ATOM  1  0.2710390E-05
:FIT001: LUSE= 13 SIGMA OF V-XC FIT FOR ATOM  1  0.2710390E-05
:DEN  : DENSITY INTEGRAL  =        -14151.99568184   (Ry)
       ELS_POTENTIAL_AT Z=0 and Z=0.5:   0.72322   0.72322
       ELS_POTENTIAL_AT Y=0 and Y=0.5:   0.06462   0.06462
:VZERO:v0,v0c,v0x   0.14345   0.72322  -0.57977 v5,v5c,v5x   0.14345   0.72322  -0.57977
:VZERY:v0,v0c,v0x  -0.71143   0.06462  -0.77605 v5,v5c,v5x  -0.71143   0.06462  -0.77605
:VZERX:v0,v0c,v0x  -1.12260  -0.37825  -0.74434 v5,v5c,v5x  -1.12260  -0.37825  -0.74434
:LMAX-WF:   10   Non-Spherical LMAX:   4

          ATOMIC SPHERE DEPENDENT PARAMETERS FOR ATOM  Pr1       
:e__0001: OVERALL ENERGY PARAMETER IS    0.4409
          OVERALL BASIS SET ON ATOM IS LAPW
:E0_0001: E( 0)=    0.4409
             APW+lo
:E0_0001: E( 0)=   -2.0147   E(BOTTOM)=   -2.651   E(TOP)=   -1.378  4  5   181
             LOCAL ORBITAL
:E1_0001: E( 1)=    0.8409
             APW+lo
:E1_0001: E( 1)=   -0.5456   E(BOTTOM)=   -1.505   E(TOP)=    0.414  3  4   193
             LOCAL ORBITAL
:E3_0001: E( 3)=    0.6398   E(BOTTOM)=    0.431   E(TOP)=    0.848  0  1   124
             APW+lo
:E2_0001: E( 2)=    0.4409   E(BOTTOM)=    0.235   E(TOP)= -200.000  2 -1    92
             APW+lo

       K=   0.06250   0.00000   0.06250            1
:RKM  : MATRIX SIZE   441LOs:  40  RKM= 8.49  WEIGHT= 4.00  PGR:    
       EIGENVALUES ARE:
:EIG00001:      -1.9878685   -1.9724849   -0.7199570   -0.6374124   -0.6192554
:EIG00006:      -0.6133480   -0.6065551   -0.6057474    0.4091130    0.5447726
:EIG00011:       0.6434477    0.6464993    0.6469127    0.6509542    0.6541230
:EIG00016:       0.6662150    0.6706787    0.6710499    0.6743228    0.6772406
:EIG00021:       0.6814309    0.6837603    0.6854567    0.6899232    0.7165435
:EIG00026:       0.7289018    0.8078826    0.8219536    0.8490105    0.8815650
:EIG00031:       0.8984764    0.9866896    1.0321806    1.0780708    1.3772612
:EIG00036:       1.3789782    1.4644399    1.4692253    1.6292018    1.6811799
:EIG00041:       1.7518164    1.8532739    1.9357012    1.9496944    2.0562989
:EIG00046:       2.1022231    2.1167393
 
       ********************************************************

:KPT   :      NUMBER OF K-POINTS:   288
:GAP (global)   :    0.0    Ry =     0.0   eV (metal)
         Bandranges (emin - emax) and occupancy:
:BAN00004:   4   -0.702920   -0.637412  2.00000000
:BAN00005:   5   -0.691886   -0.619255  2.00000000
:BAN00006:   6   -0.675832   -0.609344  2.00000000
:BAN00007:   7   -0.655559   -0.606451  2.00000000
:BAN00008:   8   -0.625401   -0.602075  2.00000000
:BAN00009:   9    0.403960    0.616095  2.00000000
:BAN00010:  10    0.513333    0.626744  2.00000000
:BAN00011:  11    0.577627    0.646288  2.00000000
:BAN00012:  12    0.620064    0.652245  2.00000000
:BAN00013:  13    0.635518    0.661958  1.57185955
:BAN00014:  14    0.645535    0.668196  0.42814045
:BAN00015:  15    0.652783    0.670560  0.00000000
:BAN00016:  16    0.658893    0.671600  0.00000000
:BAN00017:  17    0.662950    0.672471  0.00000000
:BAN00018:  18    0.665342    0.673429  0.00000000
:BAN00019:  19    0.668808    0.676738  0.00000000
        Energy to separate low and high energystates:    0.35396


:NOE  : NUMBER OF ELECTRONS          =   26.000

:FER  : F E R M I - ENERGY(TETRAH.M.)=   0.6526081846
:GMA  : POTENTIAL AND CHARGE CUT-OFF  12.00 Ry**.5

:POS001: ATOM   -1 X,Y,Z = 0.00000 0.89750 0.25000  MULT= 2  ZZ= 59.000  Pr1       

       LMMAX 16
       LM=   0 0  1 0  2 0  2 2  3 0  3 2  4 0  4 2  4 4  5 0  5 2  5 4  6 0  6 2  6 4  6 6

:CHA001: TOTAL VALENCE CHARGE INSIDE SPHERE   1 =   9.3818    (RMT=  2.3000 )
:PCS001: PARTIAL CHARGES SPHERE =  1 S,P,D,F,PX,PY,PZ,D-Z2,D-X2Y2,D-XY,D-XZ,D-YZ 
:QTL001: 1.9423 5.0152 0.5708 1.8533 1.6680 1.6688 1.6784 0.1066 0.1100 0.1191 0.1120 0.1230
        Q-s-low E-s-low   Q-p-low E-p-low   Q-d-low E-d-low   Q-f-low E-f-low
:EPL001:  1.8686 -1.9726    4.9427 -0.6523    0.0019 -0.6813    0.0005 -0.6918
        Q-s-hi  E-s-hi    Q-p-hi  E-p-hi    Q-d-hi  E-d-hi    Q-f-hi  E-f-hi 
:EPH001:  0.0737  0.5454    0.0725  0.5868    0.5689  0.5977    1.8528  0.6366

                      VXX         VYY         VZZ       UP TO R
:VZZ001:             1.64559     4.13954    -5.78513       2.300

:CHA  : TOTAL VALENCE CHARGE INSIDE UNIT CELL =      26.000000

:SUM  : SUM OF EIGENVALUES =          -9.679755774


        1.ATOM      Pr1                  14 CORE STATES
       CORE-FORCE in mRy/a.u. = |F|      Fx             Fy             Fz
:FCO001:   1.ATOM    287.097859855306      0.000000000000      0.000000000000    287.097859855306

:1S 001: 1S               -3066.926021947 Ry
:2S 001: 2S                -492.690974829 Ry
:2PP001: 2P*               -465.788710480 Ry
:2P 001: 2P                -430.391863064 Ry
:3S 001: 3S                -105.787108599 Ry
:3PP001: 3P*                -94.324631250 Ry
:3P 001: 3P                 -87.317078383 Ry
:3DD001: 3D*                -67.243744662 Ry
:3D 001: 3D                 -65.732275172 Ry
:4S 001: 4S                 -20.465467219 Ry
:4PP001: 4P*                -16.172081576 Ry
:4P 001: 4P                 -14.644465301 Ry
:4DD001: 4D*                 -7.577191222 Ry
:4D 001: 4D                  -7.307732489 Ry
:CINT001 Core Integral Atom   1   45.998487

       DENSITY AT NUCLEUS
        JATOM        VALENCE       SEMI-CORE          CORE           TOTAL
:RTO001:   1      648.335947        0.000000   656822.432197   657470.768144
     
       CHARGES OF NEW CHARGE DENSITY
:NTO   : INTERSTITIAL CHARGE =     7.236335
:NPC   : PW Pseudocharge     =    17.014460
:NTO001: CHARGE SPHERE  1    =    55.380320

:NEC01: NUCLEAR AND ELECTRONIC CHARGE    118.00000   117.99697
     
       CHARGES OF OLD CHARGE DENSITY
:OTO   : INTERSTITIAL CHARGE =     6.944577
:OPC   : PW Pseudocharge     =    17.268515
:OTO001: CHARGE SPHERE  1    =    55.527712

:NEC02: NUCLEAR AND ELECTRONIC CHARGE    118.00000   118.00000
     
       CONVERGENCE TEST
:DTO001: DIFFERENCE IN SPHERE  1 =  0.2433054

:DIS  :  CHARGE DISTANCE       ( 0.2433054 for atom    1 spin 1)      0.2433054
 PW Mixed is          491
 
******************************************************
* MULTISECANT MIXING VER9 RELEASE 10.4.0              *
* Slow Mode, cautious                                *
* Fixed density scale                                *
* Regularization       1.000E-04                     *
* Step Trust Radius    0.75000                       *
* Trust Upper Limit    2.000E+00                     *
* Max Number of Memory Steps   12                    *
******************************************************
 
:PWTMP   3.6775E+02  1.9467E+02  4.6968E+02
:PLANE:  PW TOTAL      4.8465 DISTAN   2.21E-01  4.56E+00 %
:CHARG:  CLM/ATOM   1382.0438 DISTAN   6.48E-01  4.69E-02 %
 
Step History
        DMIX         DMIXT        Red     Pred      Trust     Lambda    MagRel    MagAbs     Beta
  1   3.5000E-02   3.5000E-02 -1.00E+00  1.00E+00 -1.00E+01  1.00E+00  3.50E-02  3.50E-02  1.00E+00
  2   2.5000E-02   2.5000E-02  7.02E-01  1.00E+00 -1.00E+01  1.00E+00  2.50E-02  2.76E-02  1.00E+00
  3   3.3860E-02   3.3860E-02 -1.00E+00  1.00E+00 -1.00E+01  1.00E+00  3.39E-02  2.62E-02  1.00E+00
:JACOBIANS    5.022E-01   1.788E-02
  
:NORMS:  1/Froebius, Min, Max, Used   0.8030E+00  0.3757E+00  0.8030E+00  0.8030E+00
:INFO :  Number of Memory Steps    2 Skipping    0
:INFO :  SLambda=    0.0302325020  Max    0.0302325020
:PREDicted Charge, CTotal, PW Trust    5.915E-03   1.183E-02   2.453E-01
:PREDicted DMix, Beta, BLim   5.2977E-02  9.2017E-01  5.6040E-01

Eigenvalues, unscaled except for SY+YY
   #     SY Real        SY Imag          SS             YY         SY+YY Real      SY+YY Imag
   1   1.347304E+00   0.000000E+00   1.289550E+00   1.999881E+00   2.040613E+00   0.000000E+00
   2   7.105427E-15   0.000000E+00   0.000000E+00   1.187303E-04   1.190035E-04   0.000000E+00
 
:INFO :  Singular value  2.041E+00 Weight  1.000E+00 Projection  6.638E-04
:INFO :  Singular value  1.190E-04 Weight  2.615E-01 Projection -8.045E+00
:RANK :  ACTIVE   1.26/2  =  63.07 % ; YY RANK   1.26/2  =  63.03 %
 
:DLIM :  Beta Active  9.401E-01
:BLIM :  VZERO Control Off
:TRUST:  Step 2.18E-01  Charge 7.50E-02 (e) CTO  2.50E-01 (e) PW  3.50E-01 (e)
:DIRM :  MEMORY  2/12 SCALE   1.000 RED  0.88 PRED  1.00 NEXT  0.95 BETA  0.94
:TRAVE:  Charge 5.01E-03 (e) CTO  1.00E-02 (e) PW  2.09E-02 (e)
:DIRP :  |MSR1|= 3.185E-02 |PRATT|= 2.208E-01 ANGLE=  19.5 DEGREES
:DIRQ :  |MSR1|= 2.491E-02 |PRATT|= 6.480E-01 ANGLE=   7.9 DEGREES
:DIRT :  |MSR1|= 4.043E-02 |PRATT|= 6.846E-01 ANGLE=  35.2 DEGREES
:MIX  :   MSD1   REGULARIZATION:  2.00E-04 GREED: 0.04245  Newton 1.00  0.0591                
     
       CHARGES OF MIXED CHARGE DENSITY
:CTO   : INTERSTITIAL CHARGE =     6.954605
:CPC   : PW Pseudocharge     =    17.207972
:CTO001: CHARGE SPHERE  1    =    55.522697

:NEC03: NUCLEAR AND ELECTRONIC CHARGE    118.00000   118.00000

PW CHANGE     H    K    L      Current       Change    Residue
:PTO001:      0    0    0  5.14443324E-02 -1.075E-04  1.019E-04
:PTO003:      0    2    0  1.43213535E-02 -3.460E-05  2.787E-04
:PTO004:     -1    1    0  7.08354103E-02 -3.294E-04 -1.368E-03
:PTO005:      0    2   -1 -8.26495741E-02  4.246E-04  2.626E-03
:PTO006:      0    0   -2 -4.28851693E-02  2.296E-04  1.511E-03
:PTO007:     -1    1   -1 -9.02201735E-02  5.532E-04  4.041E-03
:PTO008:      0    2   -2 -1.50074254E-02  1.079E-04  6.658E-04
:PTO009:     -1    1   -2 -7.58631176E-02  5.553E-04  3.010E-03
:PTO011:     -1    3    0 -1.24211350E-02  1.180E-04  7.718E-04
:PTO012:     -1    3   -1 -5.64655703E-02  5.244E-04  2.643E-03
:PTO013:      0    4    0 -1.06230674E-02  1.194E-04  8.771E-04
:PTO014:      0    2   -3  2.39951422E-02 -2.524E-04 -1.456E-03

:ENE  : ********** TOTAL ENERGY IN Ry =       -36944.17025420

       TOTAL FORCE IN mRy/a.u. = |F|     Fx             Fy             Fz     with/without FOR in case.in2
:FOR001:   1.ATOM         50.476          0.000          0.000        -50.476 partial forces
       TOTAL FORCE WITH RESPECT TO GLOBAL CARTESIAN COORDINATES:
:FCA001:   1.ATOM                         0.000        -50.476          0.000 partial forces
       TOTAL FORCE WITH RESPECT TO THE GLOBAL COORDINATE SYSTEM:
:FGL001:   1.ATOM                 0.000000000   -50.475997025     0.000000000 partial forces
 Flat Integration
 New Mode for Coulomb Integral
 Consistent 3/8+Simpson combinations
 Extension of core to zero
 LDM version in phi
 Fifth-order quadrature in outwin


            ---------
:ITE004:  4. ITERATION
            ---------

:NATO :    1 INDEPENDENT AND    2 TOTAL ATOMS IN UNITCELL
       SUBSTANCE: aU                                                          

       LATTICE                      = CXY 
:POT  : POTENTIAL OPTION EX_LDA EC_LDA VX_LDA VC_LDA
:LAT  : LATTICE CONSTANTS=  6.41698 13.02167 11.24187    1.571    1.571    1.571
:VOL  : UNIT CELL VOLUME =     469.68395
       MODE OF CALCULATION IS       = RELA
       NON-SPINPOLARIZED CALCULATION
:IFFT  : FFT-parameters:   54  100   90 Factor: 2.00


   CONVERGENCE PARAMETER FOR PSEUDOCHARGE: NCON=  9
   MAXIMAL VALUE OF RMT(JATOM)*ABSK(NKK) : RK  =27.59878


:VKCOUL :  VK-COUL convergence: 0.746E-07
       ATOMNUMBER=  1 Pr1        VCOUL-ZERO =  0.85344E-01
:EFG001:                        EFG         =    -0.57406   *10**21  V / m**2
                               V20  TOT/SRF=    -0.49715    -0.03055
                               V22  TOT/SRF=    -0.02959     0.00361
                               V22M TOT/SRF=     0.00000     0.00000
                               V21  TOT/SRF=     0.00000     0.00000
                               V21M TOT/SRF=     0.00000     0.00000

              0.25744    0.00000    0.00000        0.25744    0.00000    0.00000
              0.00000    0.31663    0.00000        0.00000    0.31663    0.00000
              0.00000    0.00000   -0.57406        0.00000    0.00000   -0.57406

         MAIN DIRECTIONS OF THE EFG   1.0000  0.0000  0.0000
                                      0.0000  1.0000  0.0000
                                      0.0000  0.0000  1.0000
:ANG001:  ANGLE WITH OLD X-AXIS =         0.0

:ETA001:                         ASYMM. ETA =     0.10310


     HELLMANN-FEYNMAN-FORCE IN mRy/a.u. = |F|  Fx       Fy             Fz
:FHF001:   1.ATOM    349.199927319627      0.000000000000      0.000000000000   -349.199927319627

:FIT001: LUSE= 13 SIGMA OF V-XC FIT FOR ATOM  1  0.3008428E-05
:FIT001: LUSE= 13 SIGMA OF V-XC FIT FOR ATOM  1  0.3008428E-05
:DEN  : DENSITY INTEGRAL  =        -14150.92857803   (Ry)
       ELS_POTENTIAL_AT Z=0 and Z=0.5:   0.72410   0.72410
       ELS_POTENTIAL_AT Y=0 and Y=0.5:   0.06535   0.06535
:VZERO:v0,v0c,v0x   0.14395   0.72410  -0.58015 v5,v5c,v5x   0.14395   0.72410  -0.58015
:VZERY:v0,v0c,v0x  -0.71103   0.06535  -0.77638 v5,v5c,v5x  -0.71103   0.06535  -0.77638
:VZERX:v0,v0c,v0x  -1.12247  -0.37811  -0.74435 v5,v5c,v5x  -1.12247  -0.37811  -0.74435
:LMAX-WF:   10   Non-Spherical LMAX:   4

          ATOMIC SPHERE DEPENDENT PARAMETERS FOR ATOM  Pr1       
:e__0001: OVERALL ENERGY PARAMETER IS    0.4487
          OVERALL BASIS SET ON ATOM IS LAPW
:E0_0001: E( 0)=    0.4487
             APW+lo
:E0_0001: E( 0)=   -2.0188   E(BOTTOM)=   -2.655   E(TOP)=   -1.383  4  5   185
             LOCAL ORBITAL
:E1_0001: E( 1)=    0.8487
             APW+lo
:E1_0001: E( 1)=   -0.5492   E(BOTTOM)=   -1.507   E(TOP)=    0.409  3  4   193
             LOCAL ORBITAL
:E3_0001: E( 3)=    0.6331   E(BOTTOM)=    0.426   E(TOP)=    0.841  0  1   118
             APW+lo
:E2_0001: E( 2)=    0.4487   E(BOTTOM)=    0.233   E(TOP)= -200.000  2 -1    90
             APW+lo

       K=   0.06250   0.00000   0.06250            1
:RKM  : MATRIX SIZE   441LOs:  40  RKM= 8.49  WEIGHT= 4.00  PGR:    
       EIGENVALUES ARE:
:EIG00001:      -1.9916263   -1.9763274   -0.7223057   -0.6406610   -0.6225632
:EIG00006:      -0.6163404   -0.6094151   -0.6087893    0.4087857    0.5440802
:EIG00011:       0.6385800    0.6409632    0.6410669    0.6448692    0.6481194
:EIG00016:       0.6600070    0.6644472    0.6645868    0.6678184    0.6706679
:EIG00021:       0.6751092    0.6773834    0.6787084    0.6832386    0.7135976
:EIG00026:       0.7270180    0.8062604    0.8205316    0.8479457    0.8801706
:EIG00031:       0.8969656    0.9854378    1.0306217    1.0763903    1.3763438
:EIG00036:       1.3776237    1.4636290    1.4682684    1.6285830    1.6809014
:EIG00041:       1.7511689    1.8526676    1.9347034    1.9490347    2.0551098
:EIG00046:       2.1014204    2.1163103
 
       ********************************************************

:KPT   :      NUMBER OF K-POINTS:   288
:GAP (global)   :    0.0    Ry =     0.0   eV (metal)
         Bandranges (emin - emax) and occupancy:
:BAN00004:   4   -0.705595   -0.640661  2.00000000
:BAN00005:   5   -0.694611   -0.622563  2.00000000
:BAN00006:   6   -0.678685   -0.612355  2.00000000
:BAN00007:   7   -0.658611   -0.609415  2.00000000
:BAN00008:   8   -0.628343   -0.605132  2.00000000
:BAN00009:   9    0.403638    0.614036  2.00000000
:BAN00010:  10    0.512836    0.624392  2.00000000
:BAN00011:  11    0.576524    0.642128  2.00000000
:BAN00012:  12    0.617623    0.646884  2.00000000
:BAN00013:  13    0.631186    0.655682  1.55419271
:BAN00014:  14    0.640248    0.661911  0.44580729
:BAN00015:  15    0.647129    0.663870  0.00000000
:BAN00016:  16    0.653009    0.664876  0.00000000
:BAN00017:  17    0.656787    0.666516  0.00000000
:BAN00018:  18    0.659204    0.667140  0.00000000
:BAN00019:  19    0.662579    0.670423  0.00000000
        Energy to separate low and high energystates:    0.35364


:NOE  : NUMBER OF ELECTRONS          =   26.000

:FER  : F E R M I - ENERGY(TETRAH.M.)=   0.6468936358
:GMA  : POTENTIAL AND CHARGE CUT-OFF  12.00 Ry**.5

:POS001: ATOM   -1 X,Y,Z = 0.00000 0.89750 0.25000  MULT= 2  ZZ= 59.000  Pr1       

       LMMAX 16
       LM=   0 0  1 0  2 0  2 2  3 0  3 2  4 0  4 2  4 4  5 0  5 2  5 4  6 0  6 2  6 4  6 6

:CHA001: TOTAL VALENCE CHARGE INSIDE SPHERE   1 =   9.4494    (RMT=  2.3000 )
:PCS001: PARTIAL CHARGES SPHERE =  1 S,P,D,F,PX,PY,PZ,D-Z2,D-X2Y2,D-XY,D-XZ,D-YZ 
:QTL001: 1.9418 5.0148 0.5481 1.9444 1.6681 1.6687 1.6780 0.1019 0.1035 0.1162 0.1077 0.1188
        Q-s-low E-s-low   Q-p-low E-p-low   Q-d-low E-d-low   Q-f-low E-f-low
:EPL001:  1.8689 -1.9764    4.9457 -0.6552    0.0019 -0.6837    0.0005 -0.6941
        Q-s-hi  E-s-hi    Q-p-hi  E-p-hi    Q-d-hi  E-d-hi    Q-f-hi  E-f-hi 
:EPH001:  0.0728  0.5438    0.0691  0.5833    0.5462  0.5944    1.9439  0.6317

                      VXX         VYY         VZZ       UP TO R
:VZZ001:             1.65886     4.11333    -5.77219       2.300

:CHA  : TOTAL VALENCE CHARGE INSIDE UNIT CELL =      26.000000

:SUM  : SUM OF EIGENVALUES =          -9.758041315


        1.ATOM      Pr1                  14 CORE STATES
       CORE-FORCE in mRy/a.u. = |F|      Fx             Fy             Fz
:FCO001:   1.ATOM    308.016292602333      0.000000000000      0.000000000000    308.016292602333

:1S 001: 1S               -3066.938918345 Ry
:2S 001: 2S                -492.703277520 Ry
:2PP001: 2P*               -465.801089171 Ry
:2P 001: 2P                -430.404207960 Ry
:3S 001: 3S                -105.798763853 Ry
:3PP001: 3P*                -94.336330861 Ry
:3P 001: 3P                 -87.328716366 Ry
:3DD001: 3D*                -67.255493360 Ry
:3D 001: 3D                 -65.744006786 Ry
:4S 001: 4S                 -20.474762334 Ry
:4PP001: 4P*                -16.181243452 Ry
:4P 001: 4P                 -14.653416914 Ry
:4DD001: 4D*                 -7.585762056 Ry
:4D 001: 4D                  -7.316230470 Ry
:CINT001 Core Integral Atom   1   45.998493

       DENSITY AT NUCLEUS
        JATOM        VALENCE       SEMI-CORE          CORE           TOTAL
:RTO001:   1      648.438627        0.000000   656823.021524   657471.460151
     
       CHARGES OF NEW CHARGE DENSITY
:NTO   : INTERSTITIAL CHARGE =     7.101225
:NPC   : PW Pseudocharge     =    16.976142
:NTO001: CHARGE SPHERE  1    =    55.447880

:NEC01: NUCLEAR AND ELECTRONIC CHARGE    118.00000   117.99699
     
       CHARGES OF OLD CHARGE DENSITY
:OTO   : INTERSTITIAL CHARGE =     6.954605
:OPC   : PW Pseudocharge     =    17.207972
:OTO001: CHARGE SPHERE  1    =    55.522697

:NEC02: NUCLEAR AND ELECTRONIC CHARGE    118.00000   118.00000
     
       CONVERGENCE TEST
:DTO001: DIFFERENCE IN SPHERE  1 =  0.1383462

:DIS  :  CHARGE DISTANCE       ( 0.1383462 for atom    1 spin 1)      0.1383462
 PW Mixed is          491
 
******************************************************
* MULTISECANT MIXING VER9 RELEASE 10.4.0              *
* Standard Mode with controls                        *
* Fixed density scale                                *
* Regularization       1.000E-04                     *
* Trust Upper Limit    5.000E+00                     *
* Max Number of Memory Steps    8                    *
******************************************************
 
:PWTMP   3.6775E+02  1.9467E+02  4.6968E+02
:PLANE:  PW TOTAL      4.8209 DISTAN   1.89E-01  3.93E+00 %
:CHARG:  CLM/ATOM   1382.0387 DISTAN   5.73E-01  4.15E-02 %
 
Step History
        DMIX         DMIXT        Red     Pred      Trust     Lambda    MagRel    MagAbs     Beta
  1   3.5000E-02   3.5000E-02 -1.00E+00  1.00E+00 -1.00E+01  1.00E+00  3.50E-02  3.50E-02  1.00E+00
  2   2.5000E-02   2.5000E-02  7.02E-01  1.00E+00 -1.00E+01  1.00E+00  2.50E-02  2.76E-02  1.00E+00
  3   3.3860E-02   3.3860E-02  8.83E-01  1.00E+00 -1.00E+01  3.02E-02  3.39E-02  2.62E-02  1.00E+00
  4   4.2453E-02   4.2453E-02 -1.00E+00  9.47E-01  2.18E-01  1.00E+00  5.91E-02  4.04E-02  9.40E-01
:JACOBIANS    7.439E-01   4.633E-02
  
:NORMS:  1/Froebius, Min, Max, Used   0.5340E+00  0.3499E+00  0.9887E+00  0.5727E+00
:INFO :  Number of Memory Steps    3 Skipping    0
:INFO :  SLambda=    1.4558610046  Max    1.4558610046
:PREDicted Charge, CTotal, PW Trust    1.286E-02   2.572E-02   2.016E-01
:PREDicted DMix, Beta, BLim   1.6862E-01  3.2239E+00  3.5098E-01

Eigenvalues, unscaled except for SY+YY
   #     SY Real        SY Imag          SS             YY         SY+YY Real      SY+YY Imag
   1   8.905588E-01   0.000000E+00   8.285007E-01   2.526192E+00   3.517705E+00   0.000000E+00
   2   2.929610E-15   0.000000E+00   2.697078E-02   4.737490E-01   5.837141E-05   0.000000E+00
   3   9.368964E-02   0.000000E+00  -6.723797E-17   5.912108E-05   9.151660E-01   0.000000E+00
 
:INFO :  Singular value  3.518E+00 Weight  1.000E+00 Projection  4.406E-03
:INFO :  Singular value  9.151E-01 Weight  1.000E+00 Projection -4.440E-01
:INFO :  Singular value  5.837E-05 Weight  5.068E-02 Projection -4.957E-01
:RANK :  ACTIVE   2.05/3  =  68.36 % ; YY RANK   2.05/3  =  68.40 %
 
:BLIM :  VZERO Control Off
:TRUST:  Step 3.59E-01  Charge 7.50E-02 (e) CTO  2.50E-01 (e) PW  3.50E-01 (e)
:DTRUS:  Lambda    2.163E-02 Increment    1.819E-12 Iterations    98 DMIX    1.027E-01
:INFOA:  Angle SubSpace to MSR1      1.02
:DIRM :  MEMORY  3/8  SCALE   1.000 RED  0.88 PRED  0.95 NEXT  0.90 
:INFO :  Limited by Atoms F by Step T

:TRAVE:  Charge 4.40E-03 (e) CTO  8.81E-03 (e) PW  9.07E-02 (e)
:DIRP :  |MSR1|= 1.948E-01 |PRATT|= 1.893E-01 ANGLE=  22.6 DEGREES
:DIRQ :  |MSR1|= 9.533E-02 |PRATT|= 5.733E-01 ANGLE=  13.0 DEGREES
:DIRT :  |MSR1|= 2.168E-01 |PRATT|= 6.037E-01 ANGLE=  48.2 DEGREES
:MIX  :   MSE1   REGULARIZATION:  2.53E-04 GREED: 0.10290  LMStep 0.96  0.3592 Step           
     
       CHARGES OF MIXED CHARGE DENSITY
:CTO   : INTERSTITIAL CHARGE =     6.962192
:CPC   : PW Pseudocharge     =    16.813086
:CTO001: CHARGE SPHERE  1    =    55.518904

:NEC03: NUCLEAR AND ELECTRONIC CHARGE    118.00000   118.00000

PW CHANGE     H    K    L      Current       Change    Residue
:PTO001:      0    0    0  5.06197365E-02 -8.246E-04 -1.597E-04
:PTO003:      0    2    0  1.40115877E-02 -3.098E-04  2.403E-04
:PTO004:     -1    1    0  6.87195008E-02 -2.116E-03 -1.121E-03
:PTO005:      0    2   -1 -8.00141377E-02  2.635E-03  2.192E-03
:PTO006:      0    0   -2 -4.14882401E-02  1.397E-03  1.266E-03
:PTO007:     -1    1   -1 -8.69413195E-02  3.279E-03  3.386E-03
:PTO008:      0    2   -2 -1.43502112E-02  6.572E-04  5.805E-04
:PTO009:     -1    1   -2 -7.24670495E-02  3.396E-03  2.365E-03
:PTO011:     -1    3    0 -1.17261562E-02  6.950E-04  6.318E-04
:PTO012:     -1    3   -1 -5.32012277E-02  3.264E-03  2.133E-03
:PTO013:      0    4    0 -9.89796445E-03  7.251E-04  7.451E-04
:PTO014:      0    2   -3  2.24285057E-02 -1.567E-03 -1.194E-03

:ENE  : ********** TOTAL ENERGY IN Ry =       -36944.16778181

       TOTAL FORCE IN mRy/a.u. = |F|     Fx             Fy             Fz     with/without FOR in case.in2
:FOR001:   1.ATOM         41.184          0.000          0.000        -41.184 partial forces
       TOTAL FORCE WITH RESPECT TO GLOBAL CARTESIAN COORDINATES:
:FCA001:   1.ATOM                         0.000        -41.184          0.000 partial forces
       TOTAL FORCE WITH RESPECT TO THE GLOBAL COORDINATE SYSTEM:
:FGL001:   1.ATOM                 0.000000000   -41.183634717     0.000000000 partial forces
 Flat Integration
 New Mode for Coulomb Integral
 Consistent 3/8+Simpson combinations
 Extension of core to zero
 LDM version in phi
 Fifth-order quadrature in outwin


            ---------
:ITE005:  5. ITERATION
            ---------

:NATO :    1 INDEPENDENT AND    2 TOTAL ATOMS IN UNITCELL
       SUBSTANCE: aU                                                          

       LATTICE                      = CXY 
:POT  : POTENTIAL OPTION EX_LDA EC_LDA VX_LDA VC_LDA
:LAT  : LATTICE CONSTANTS=  6.41698 13.02167 11.24187    1.571    1.571    1.571
:VOL  : UNIT CELL VOLUME =     469.68395
       MODE OF CALCULATION IS       = RELA
       NON-SPINPOLARIZED CALCULATION
:IFFT  : FFT-parameters:   54  100   90 Factor: 2.00


   CONVERGENCE PARAMETER FOR PSEUDOCHARGE: NCON=  9
   MAXIMAL VALUE OF RMT(JATOM)*ABSK(NKK) : RK  =27.59878


:VKCOUL :  VK-COUL convergence: 0.641E-07
       ATOMNUMBER=  1 Pr1        VCOUL-ZERO =  0.83822E-01
:EFG001:                        EFG         =    -1.47887   *10**21  V / m**2
                               V20  TOT/SRF=    -1.28074    -0.02754
                               V22  TOT/SRF=    -0.11950     0.00111
                               V22M TOT/SRF=     0.00000     0.00000
                               V21  TOT/SRF=     0.00000     0.00000
                               V21M TOT/SRF=     0.00000     0.00000

              0.61993    0.00000    0.00000        0.61993    0.00000    0.00000
              0.00000    0.85894    0.00000        0.00000    0.85894    0.00000
              0.00000    0.00000   -1.47887        0.00000    0.00000   -1.47887

         MAIN DIRECTIONS OF THE EFG   1.0000  0.0000  0.0000
                                      0.0000  1.0000  0.0000
                                      0.0000  0.0000  1.0000
:ANG001:  ANGLE WITH OLD X-AXIS =         0.0

:ETA001:                         ASYMM. ETA =     0.16161


     HELLMANN-FEYNMAN-FORCE IN mRy/a.u. = |F|  Fx       Fy             Fz
:FHF001:   1.ATOM    444.528588876410      0.000000000000      0.000000000000   -444.528588876410

:FIT001: LUSE= 13 SIGMA OF V-XC FIT FOR ATOM  1  0.6698152E-05
:FIT001: LUSE= 13 SIGMA OF V-XC FIT FOR ATOM  1  0.6698152E-05
:DEN  : DENSITY INTEGRAL  =        -14149.98923829   (Ry)
       ELS_POTENTIAL_AT Z=0 and Z=0.5:   0.72433   0.72433
       ELS_POTENTIAL_AT Y=0 and Y=0.5:   0.06739   0.06739
:VZERO:v0,v0c,v0x   0.14372   0.72433  -0.58061 v5,v5c,v5x   0.14372   0.72433  -0.58061
:VZERY:v0,v0c,v0x  -0.70922   0.06739  -0.77662 v5,v5c,v5x  -0.70922   0.06739  -0.77662
:VZERX:v0,v0c,v0x  -1.11862  -0.37591  -0.74271 v5,v5c,v5x  -1.11862  -0.37591  -0.74271
:LMAX-WF:   10   Non-Spherical LMAX:   4

          ATOMIC SPHERE DEPENDENT PARAMETERS FOR ATOM  Pr1       
:e__0001: OVERALL ENERGY PARAMETER IS    0.4475
          OVERALL BASIS SET ON ATOM IS LAPW
:E0_0001: E( 0)=    0.4475
             APW+lo
:E0_0001: E( 0)=   -2.0236   E(BOTTOM)=   -2.659   E(TOP)=   -1.388  4  5   179
             LOCAL ORBITAL
:E1_0001: E( 1)=    0.8475
             APW+lo
:E1_0001: E( 1)=   -0.5537   E(BOTTOM)=   -1.511   E(TOP)=    0.404  3  4   197
             LOCAL ORBITAL
:E3_0001: E( 3)=    0.6266   E(BOTTOM)=    0.420   E(TOP)=    0.834  0  1   125
             APW+lo
:E2_0001: E( 2)=    0.4475   E(BOTTOM)=    0.229   E(TOP)= -200.000  2 -1    88
             APW+lo

       K=   0.06250   0.00000   0.06250            1
:RKM  : MATRIX SIZE   441LOs:  40  RKM= 8.49  WEIGHT= 4.00  PGR:    
       EIGENVALUES ARE:
:EIG00001:      -1.9961724   -1.9809962   -0.7248537   -0.6454492   -0.6273921
:EIG00006:      -0.6202612   -0.6128042   -0.6126257    0.4073179    0.5421186
:EIG00011:       0.6336645    0.6354596    0.6359510    0.6385965    0.6424229
:EIG00016:       0.6543318    0.6582351    0.6586544    0.6616588    0.6639559
:EIG00021:       0.6688223    0.6711075    0.6712865    0.6771183    0.7100882
:EIG00026:       0.7243531    0.8039202    0.8179085    0.8461947    0.8774486
:EIG00031:       0.8941258    0.9834780    1.0281707    1.0739205    1.3741534
:EIG00036:       1.3753162    1.4615589    1.4661044    1.6266845    1.6800702
:EIG00041:       1.7498087    1.8513115    1.9322448    1.9477943    2.0528914
:EIG00046:       2.0996346    2.1148927
 
       ********************************************************

:KPT   :      NUMBER OF K-POINTS:   288
:GAP (global)   :    0.0    Ry =     0.0   eV (metal)
         Bandranges (emin - emax) and occupancy:
:BAN00004:   4   -0.709278   -0.645449  2.00000000
:BAN00005:   5   -0.698263   -0.627392  2.00000000
:BAN00006:   6   -0.682582   -0.616296  2.00000000
:BAN00007:   7   -0.663048   -0.612804  2.00000000
:BAN00008:   8   -0.632059   -0.609160  2.00000000
:BAN00009:   9    0.402172    0.611057  2.00000000
:BAN00010:  10    0.511179    0.621026  2.00000000
:BAN00011:  11    0.574051    0.637733  2.00000000
:BAN00012:  12    0.614682    0.641541  1.99976288
:BAN00013:  13    0.626114    0.649851  1.50865761
:BAN00014:  14    0.634948    0.655177  0.49157951
:BAN00015:  15    0.642109    0.656975  0.00000000
:BAN00016:  16    0.647195    0.658365  0.00000000
:BAN00017:  17    0.650665    0.660539  0.00000000
:BAN00018:  18    0.652990    0.661140  0.00000000
:BAN00019:  19    0.656674    0.664364  0.00000000
        Energy to separate low and high energystates:    0.35217


:NOE  : NUMBER OF ELECTRONS          =   26.000

:FER  : F E R M I - ENERGY(TETRAH.M.)=   0.6411130284
:GMA  : POTENTIAL AND CHARGE CUT-OFF  12.00 Ry**.5

:POS001: ATOM   -1 X,Y,Z = 0.00000 0.89750 0.25000  MULT= 2  ZZ= 59.000  Pr1       

       LMMAX 16
       LM=   0 0  1 0  2 0  2 2  3 0  3 2  4 0  4 2  4 4  5 0  5 2  5 4  6 0  6 2  6 4  6 6

:CHA001: TOTAL VALENCE CHARGE INSIDE SPHERE   1 =   9.5011    (RMT=  2.3000 )
:PCS001: PARTIAL CHARGES SPHERE =  1 S,P,D,F,PX,PY,PZ,D-Z2,D-X2Y2,D-XY,D-XZ,D-YZ 
:QTL001: 1.9413 5.0154 0.5296 2.0146 1.6685 1.6688 1.6780 0.0987 0.0969 0.1141 0.1039 0.1160
        Q-s-low E-s-low   Q-p-low E-p-low   Q-d-low E-d-low   Q-f-low E-f-low
:EPL001:  1.8692 -1.9811    4.9486 -0.6590    0.0018 -0.6856    0.0005 -0.6961
        Q-s-hi  E-s-hi    Q-p-hi  E-p-hi    Q-d-hi  E-d-hi    Q-f-hi  E-f-hi 
:EPH001:  0.0721  0.5411    0.0668  0.5796    0.5278  0.5906    2.0141  0.6268

                      VXX         VYY         VZZ       UP TO R
:VZZ001:             4.01542     4.03069    -8.04611       2.300

:CHA  : TOTAL VALENCE CHARGE INSIDE UNIT CELL =      26.000000

:SUM  : SUM OF EIGENVALUES =          -9.856443904


        1.ATOM      Pr1                  14 CORE STATES
       CORE-FORCE in mRy/a.u. = |F|      Fx             Fy             Fz
:FCO001:   1.ATOM    432.845922258688      0.000000000000      0.000000000000    432.845922258688

:1S 001: 1S               -3066.951746972 Ry
:2S 001: 2S                -492.713894573 Ry
:2PP001: 2P*               -465.811971472 Ry
:2P 001: 2P                -430.414970372 Ry
:3S 001: 3S                -105.808090112 Ry
:3PP001: 3P*                -94.345731018 Ry
:3P 001: 3P                 -87.338039870 Ry
:3DD001: 3D*                -67.264927980 Ry
:3D 001: 3D                 -65.753417760 Ry
:4S 001: 4S                 -20.482694297 Ry
:4PP001: 4P*                -16.189129782 Ry
:4P 001: 4P                 -14.661223241 Ry
:4DD001: 4D*                 -7.593386159 Ry
:4D 001: 4D                  -7.323822737 Ry
:CINT001 Core Integral Atom   1   45.998497

       DENSITY AT NUCLEUS
        JATOM        VALENCE       SEMI-CORE          CORE           TOTAL
:RTO001:   1      648.490719        0.000000   656823.676177   657472.166896
     
       CHARGES OF NEW CHARGE DENSITY
:NTO   : INTERSTITIAL CHARGE =     6.997752
:NPC   : PW Pseudocharge     =    16.945255
:NTO001: CHARGE SPHERE  1    =    55.499620

:NEC01: NUCLEAR AND ELECTRONIC CHARGE    118.00000   117.99699
     
       CHARGES OF OLD CHARGE DENSITY
:OTO   : INTERSTITIAL CHARGE =     6.962192
:OPC   : PW Pseudocharge     =    16.813086
:OTO001: CHARGE SPHERE  1    =    55.518904

:NEC02: NUCLEAR AND ELECTRONIC CHARGE    118.00000   118.00000
     
       CONVERGENCE TEST
:DTO001: DIFFERENCE IN SPHERE  1 =  0.0751784

:DIS  :  CHARGE DISTANCE       ( 0.0751784 for atom    1 spin 1)      0.0751784
 PW Mixed is          491
 
******************************************************
* MULTISECANT MIXING VER9 RELEASE 10.4.0              *
* Standard Mode with controls                        *
* Fixed density scale                                *
* Regularization       1.000E-04                     *
* Trust Upper Limit    5.000E+00                     *
* Max Number of Memory Steps    8                    *
******************************************************
 
:PWTMP   3.6775E+02  1.9467E+02  4.6968E+02
:PLANE:  PW TOTAL      4.6609 DISTAN   6.70E-02  1.44E+00 %
:CHARG:  CLM/ATOM   1382.0219 DISTAN   4.54E-01  3.29E-02 %
 
Step History
        DMIX         DMIXT        Red     Pred      Trust     Lambda    MagRel    MagAbs     Beta
  1   3.5000E-02   3.5000E-02 -1.00E+00  1.00E+00 -1.00E+01  1.00E+00  3.50E-02  3.50E-02  1.00E+00
  2   2.5000E-02   2.5000E-02  7.02E-01  1.00E+00 -1.00E+01  1.00E+00  2.50E-02  2.76E-02  1.00E+00
  3   3.3860E-02   3.3860E-02  8.83E-01  1.00E+00 -1.00E+01  3.02E-02  3.39E-02  2.62E-02  1.00E+00
  4   4.2453E-02   4.2453E-02  8.82E-01  9.47E-01  2.18E-01  1.46E+00  5.91E-02  4.04E-02  9.40E-01
  5   1.0290E-01   1.0265E-01 -1.00E+00  8.96E-01  3.59E-01  1.00E+00  3.59E-01  2.17E-01  1.00E+00
:JACOBIANS    8.752E-01   2.487E-01
  
:NORMS:  1/Froebius, Min, Max, Used   0.5751E+00  0.3621E+00  0.9977E+00  0.6305E+00
:INFO :  Number of Memory Steps    4 Skipping    0
:INFO :  SLambda=    0.9005104791  Max    0.9005104791
:PREDicted Charge, CTotal, PW Trust    4.667E-03   9.333E-03   1.178E-01
:PREDicted DMix, Beta, BLim   3.5454E-01  1.3604E+00  5.9930E-01

Eigenvalues, unscaled except for SY+YY
   #     SY Real        SY Imag          SS             YY         SY+YY Real      SY+YY Imag
   1   1.156320E+00   0.000000E+00   1.137032E+00   2.860001E+00   3.378951E+00   0.000000E+00
   2   2.918462E-01   0.000000E+00   1.858061E-01   1.127342E+00   1.910908E+00   0.000000E+00
   3   3.262708E-15   0.000000E+00   3.050206E-04   1.261349E-02   4.268776E-05   0.000000E+00
   4   3.304186E-03   0.000000E+00  -4.916128E-18   4.281898E-05   1.716195E-02   0.000000E+00
 
:INFO :  Singular value  3.380E+00 Weight  1.000E+00 Projection -1.190E-01
:INFO :  Singular value  1.910E+00 Weight  1.000E+00 Projection  8.692E-03
:INFO :  Singular value  1.716E-02 Weight  9.997E-01 Projection -2.729E+00
:INFO :  Singular value  4.269E-05 Weight  2.179E-02 Projection -1.132E-01
:RANK :  ACTIVE   3.02/4  =  75.54 % ; YY RANK   3.02/4  =  75.54 %
 
:BLIM :  VZERO Control Off
:TRUST:  Step 4.72E-01  Charge 7.50E-02 (e) CTO  2.50E-01 (e) PW  3.50E-01 (e)
:DTRUS:  Lambda    5.014E-01 Increment    7.276E-12 Iterations   106 DMIX    2.048E-01
:INFOA:  Angle SubSpace to MSR1      2.86
:DIRM :  MEMORY  4/8  SCALE   1.000 RED  0.76 PRED  0.90 NEXT  0.84 
:INFO :  Limited by Atoms F by Step T

:TRAVE:  Charge 3.37E-03 (e) CTO  6.74E-03 (e) PW  6.04E-02 (e)
:DIRP :  |MSR1|= 3.163E-02 |PRATT|= 6.699E-02 ANGLE=   8.1 DEGREES
:DIRQ :  |MSR1|= 2.145E-01 |PRATT|= 4.540E-01 ANGLE=   9.0 DEGREES
:DIRT :  |MSR1|= 2.168E-01 |PRATT|= 4.590E-01 ANGLE=   9.0 DEGREES
:MIX  :   MSD1   REGULARIZATION:  2.86E-04 GREED: 0.21229  LMStep 0.85  0.4725 Step           
     
       CHARGES OF MIXED CHARGE DENSITY
:CTO   : INTERSTITIAL CHARGE =     6.966872
:CPC   : PW Pseudocharge     =    16.880945
:CTO001: CHARGE SPHERE  1    =    55.516564

:NEC03: NUCLEAR AND ELECTRONIC CHARGE    118.00000   118.00000

PW CHANGE     H    K    L      Current       Change    Residue
:PTO001:      0    0    0  5.07741788E-02  1.544E-04  3.790E-04
:PTO003:      0    2    0  1.41013542E-02  8.977E-05  2.948E-04
:PTO004:     -1    1    0  6.90735667E-02  3.541E-04  7.843E-04
:PTO005:      0    2   -1 -8.02865858E-02 -2.724E-04 -4.638E-04
:PTO006:      0    0   -2 -4.16242468E-02 -1.360E-04 -2.032E-04
:PTO007:     -1    1   -1 -8.71042740E-02 -1.630E-04 -1.403E-04
:PTO008:      0    2   -2 -1.43325939E-02  1.762E-05  1.209E-05
:PTO009:     -1    1   -2 -7.31021814E-02 -6.351E-04 -1.190E-03
:PTO011:     -1    3    0 -1.18437947E-02 -1.176E-04 -1.765E-04
:PTO012:     -1    3   -1 -5.36939851E-02 -4.928E-04 -1.012E-03
:PTO013:      0    4    0 -9.91250605E-03 -1.454E-05  5.062E-06
:PTO014:      0    2   -3  2.26534612E-02  2.250E-04  4.054E-04

:ENE  : ********** TOTAL ENERGY IN Ry =       -36944.16598204

       TOTAL FORCE IN mRy/a.u. = |F|     Fx             Fy             Fz     with/without FOR in case.in2
:FOR001:   1.ATOM         11.683          0.000          0.000        -11.683 partial forces
       TOTAL FORCE WITH RESPECT TO GLOBAL CARTESIAN COORDINATES:
:FCA001:   1.ATOM                         0.000        -11.683          0.000 partial forces
       TOTAL FORCE WITH RESPECT TO THE GLOBAL COORDINATE SYSTEM:
:FGL001:   1.ATOM                 0.000000000   -11.682666618     0.000000000 partial forces
 Flat Integration
 New Mode for Coulomb Integral
 Consistent 3/8+Simpson combinations
 Extension of core to zero
 LDM version in phi
 Fifth-order quadrature in outwin


            ---------
:ITE006:  6. ITERATION
            ---------

:NATO :    1 INDEPENDENT AND    2 TOTAL ATOMS IN UNITCELL
       SUBSTANCE: aU                                                          

       LATTICE                      = CXY 
:POT  : POTENTIAL OPTION EX_LDA EC_LDA VX_LDA VC_LDA
:LAT  : LATTICE CONSTANTS=  6.41698 13.02167 11.24187    1.571    1.571    1.571
:VOL  : UNIT CELL VOLUME =     469.68395
       MODE OF CALCULATION IS       = RELA
       NON-SPINPOLARIZED CALCULATION
:IFFT  : FFT-parameters:   54  100   90 Factor: 2.00


   CONVERGENCE PARAMETER FOR PSEUDOCHARGE: NCON=  9
   MAXIMAL VALUE OF RMT(JATOM)*ABSK(NKK) : RK  =27.59878


:VKCOUL :  VK-COUL convergence: 0.899E-07
       ATOMNUMBER=  1 Pr1        VCOUL-ZERO =  0.83672E-01
:EFG001:                        EFG         =    -5.09481   *10**21  V / m**2
                               V20  TOT/SRF=    -4.41223    -0.02928
                               V22  TOT/SRF=     0.36675     0.00134
                               V22M TOT/SRF=     0.00000     0.00000
                               V21  TOT/SRF=     0.00000     0.00000
                               V21M TOT/SRF=     0.00000     0.00000

              2.91415    0.00000    0.00000        2.91415    0.00000    0.00000
              0.00000    2.18065    0.00000        0.00000    2.18065    0.00000
              0.00000    0.00000   -5.09481        0.00000    0.00000   -5.09481

         MAIN DIRECTIONS OF THE EFG   1.0000  0.0000  0.0000
                                      0.0000  1.0000  0.0000
                                      0.0000  0.0000  1.0000
:ANG001:  ANGLE WITH OLD X-AXIS =         0.0

:ETA001:                         ASYMM. ETA =     0.14397


     HELLMANN-FEYNMAN-FORCE IN mRy/a.u. = |F|  Fx       Fy             Fz
:FHF001:   1.ATOM    880.197071663245      0.000000000000      0.000000000000   -880.197071663245

:FIT001: LUSE= 13 SIGMA OF V-XC FIT FOR ATOM  1  0.2550301E-04
:FIT001: LUSE= 13 SIGMA OF V-XC FIT FOR ATOM  1  0.2550301E-04
:DEN  : DENSITY INTEGRAL  =        -14149.57002347   (Ry)
       ELS_POTENTIAL_AT Z=0 and Z=0.5:   0.72589   0.72589
       ELS_POTENTIAL_AT Y=0 and Y=0.5:   0.07050   0.07050
:VZERO:v0,v0c,v0x   0.14504   0.72589  -0.58085 v5,v5c,v5x   0.14504   0.72589  -0.58085
:VZERY:v0,v0c,v0x  -0.70686   0.07050  -0.77737 v5,v5c,v5x  -0.70686   0.07050  -0.77737
:VZERX:v0,v0c,v0x  -1.12017  -0.37660  -0.74358 v5,v5c,v5x  -1.12017  -0.37660  -0.74358
:LMAX-WF:   10   Non-Spherical LMAX:   4

          ATOMIC SPHERE DEPENDENT PARAMETERS FOR ATOM  Pr1       
:e__0001: OVERALL ENERGY PARAMETER IS    0.4432
          OVERALL BASIS SET ON ATOM IS LAPW
:E0_0001: E( 0)=    0.4432
             APW+lo
:E0_0001: E( 0)=   -2.0266   E(BOTTOM)=   -2.662   E(TOP)=   -1.392  4  5   181
             LOCAL ORBITAL
:E1_0001: E( 1)=    0.8432
             APW+lo
:E1_0001: E( 1)=   -0.5564   E(BOTTOM)=   -1.514   E(TOP)=    0.401  3  4   196
             LOCAL ORBITAL
:E3_0001: E( 3)=    0.6235   E(BOTTOM)=    0.417   E(TOP)=    0.830  0  1   125
             APW+lo
:E2_0001: E( 2)=    0.4432   E(BOTTOM)=    0.227   E(TOP)= -200.000  2 -1    90
             APW+lo

       K=   0.06250   0.00000   0.06250            1
:RKM  : MATRIX SIZE   441LOs:  40  RKM= 8.49  WEIGHT= 4.00  PGR:    
       EIGENVALUES ARE:
:EIG00001:      -1.9989226   -1.9838408   -0.7273910   -0.6469256   -0.6288552
:EIG00006:      -0.6224195   -0.6159457   -0.6150100    0.4078630    0.5421572
:EIG00011:       0.6326908    0.6329523    0.6331420    0.6365087    0.6403048
:EIG00016:       0.6507210    0.6546340    0.6547616    0.6576146    0.6609706
:EIG00021:       0.6646586    0.6695002    0.6696504    0.6739348    0.7088314
:EIG00026:       0.7243807    0.8032811    0.8176940    0.8458413    0.8772015
:EIG00031:       0.8938502    0.9824275    1.0268618    1.0728674    1.3744818
:EIG00036:       1.3745944    1.4617351    1.4662757    1.6266236    1.6806877
:EIG00041:       1.7506245    1.8517492    1.9319346    1.9482471    2.0527167
:EIG00046:       2.0998861    2.1149936
 
       ********************************************************

:KPT   :      NUMBER OF K-POINTS:   288
:GAP (global)   :    0.0    Ry =     0.0   eV (metal)
         Bandranges (emin - emax) and occupancy:
:BAN00004:   4   -0.711124   -0.646926  2.00000000
:BAN00005:   5   -0.700229   -0.628855  2.00000000
:BAN00006:   6   -0.684486   -0.618462  2.00000000
:BAN00007:   7   -0.664547   -0.615645  2.00000000
:BAN00008:   8   -0.634391   -0.611385  2.00000000
:BAN00009:   9    0.402716    0.609217  2.00000000
:BAN00010:  10    0.511506    0.619678  2.00000000
:BAN00011:  11    0.573825    0.635507  2.00000000
:BAN00012:  12    0.613874    0.638717  1.99993610
:BAN00013:  13    0.624859    0.646883  1.49941262
:BAN00014:  14    0.632021    0.652327  0.50065128
:BAN00015:  15    0.639606    0.653896  0.00000000
:BAN00016:  16    0.644132    0.655612  0.00000000
:BAN00017:  17    0.647416    0.657793  0.00000000
:BAN00018:  18    0.650550    0.658138  0.00000000
:BAN00019:  19    0.654061    0.661167  0.00000000
        Energy to separate low and high energystates:    0.35272


:NOE  : NUMBER OF ELECTRONS          =   26.000

:FER  : F E R M I - ENERGY(TETRAH.M.)=   0.6385449727
:GMA  : POTENTIAL AND CHARGE CUT-OFF  12.00 Ry**.5

:POS001: ATOM   -1 X,Y,Z = 0.00000 0.89750 0.25000  MULT= 2  ZZ= 59.000  Pr1       

       LMMAX 16
       LM=   0 0  1 0  2 0  2 2  3 0  3 2  4 0  4 2  4 4  5 0  5 2  5 4  6 0  6 2  6 4  6 6

:CHA001: TOTAL VALENCE CHARGE INSIDE SPHERE   1 =   9.5403    (RMT=  2.3000 )
:PCS001: PARTIAL CHARGES SPHERE =  1 S,P,D,F,PX,PY,PZ,D-Z2,D-X2Y2,D-XY,D-XZ,D-YZ 
:QTL001: 1.9409 5.0162 0.5178 2.0651 1.6693 1.6690 1.6778 0.0959 0.0939 0.1133 0.1012 0.1135
        Q-s-low E-s-low   Q-p-low E-p-low   Q-d-low E-d-low   Q-f-low E-f-low
:EPL001:  1.8695 -1.9839    4.9513 -0.6611    0.0018 -0.6876    0.0005 -0.6966
        Q-s-hi  E-s-hi    Q-p-hi  E-p-hi    Q-d-hi  E-d-hi    Q-f-hi  E-f-hi 
:EPH001:  0.0714  0.5407    0.0649  0.5782    0.5160  0.5893    2.0645  0.6247

                      VXX         VYY         VZZ       UP TO R
:VZZ001:            -0.02256     4.64927    -4.62671       2.300

:CHA  : TOTAL VALENCE CHARGE INSIDE UNIT CELL =      26.000000

:SUM  : SUM OF EIGENVALUES =          -9.903688465


        1.ATOM      Pr1                  14 CORE STATES
       CORE-FORCE in mRy/a.u. = |F|      Fx             Fy             Fz
:FCO001:   1.ATOM    876.934562380138      0.000000000000      0.000000000000    876.934562380138

:1S 001: 1S               -3066.962217719 Ry
:2S 001: 2S                -492.719570450 Ry
:2PP001: 2P*               -465.818216636 Ry
:2P 001: 2P                -430.420957250 Ry
:3S 001: 3S                -105.811318306 Ry
:3PP001: 3P*                -94.349089097 Ry
:3P 001: 3P                 -87.341284667 Ry
:3DD001: 3D*                -67.268315069 Ry
:3D 001: 3D                 -65.756767089 Ry
:4S 001: 4S                 -20.485660787 Ry
:4PP001: 4P*                -16.192176193 Ry
:4P 001: 4P                 -14.664371819 Ry
:4DD001: 4D*                 -7.596637298 Ry
:4D 001: 4D                  -7.327099978 Ry
:CINT001 Core Integral Atom   1   45.998498

       DENSITY AT NUCLEUS
        JATOM        VALENCE       SEMI-CORE          CORE           TOTAL
:RTO001:   1      648.511455        0.000000   656824.511674   657473.023129
     
       CHARGES OF NEW CHARGE DENSITY
:NTO   : INTERSTITIAL CHARGE =     6.919490
:NPC   : PW Pseudocharge     =    16.928595
:NTO001: CHARGE SPHERE  1    =    55.538753

:NEC01: NUCLEAR AND ELECTRONIC CHARGE    118.00000   117.99699
     
       CHARGES OF OLD CHARGE DENSITY
:OTO   : INTERSTITIAL CHARGE =     6.966872
:OPC   : PW Pseudocharge     =    16.880945
:OTO001: CHARGE SPHERE  1    =    55.516564

:NEC02: NUCLEAR AND ELECTRONIC CHARGE    118.00000   118.00000
     
       CONVERGENCE TEST
:DTO001: DIFFERENCE IN SPHERE  1 =  0.0540270

:DIS  :  CHARGE DISTANCE       ( 0.0540270 for atom    1 spin 1)      0.0540270
 PW Mixed is          491
 
******************************************************
* MULTISECANT MIXING VER9 RELEASE 10.4.0              *
* Standard Mode with controls                        *
* Fixed density scale                                *
* Regularization       1.000E-04                     *
* Trust Upper Limit    5.000E+00                     *
* Max Number of Memory Steps    8                    *
******************************************************
 
:PWTMP   3.6775E+02  1.9467E+02  4.6968E+02
:PLANE:  PW TOTAL      4.6799 DISTAN   3.35E-02  7.16E-01 %
:CHARG:  CLM/ATOM   1381.9861 DISTAN   2.73E-01  1.97E-02 %
 
Step History
        DMIX         DMIXT        Red     Pred      Trust     Lambda    MagRel    MagAbs     Beta
  1   3.5000E-02   3.5000E-02 -1.00E+00  1.00E+00 -1.00E+01  1.00E+00  3.50E-02  3.50E-02  1.00E+00
  2   2.5000E-02   2.5000E-02  7.02E-01  1.00E+00 -1.00E+01  1.00E+00  2.50E-02  2.76E-02  1.00E+00
  3   3.3860E-02   3.3860E-02  8.83E-01  1.00E+00 -1.00E+01  3.02E-02  3.39E-02  2.62E-02  1.00E+00
  4   4.2453E-02   4.2453E-02  8.82E-01  9.47E-01  2.18E-01  1.46E+00  5.91E-02  4.04E-02  9.40E-01
  5   1.0290E-01   1.0265E-01  7.60E-01  8.96E-01  3.59E-01  9.01E-01  3.59E-01  2.17E-01  1.00E+00
  6   2.1229E-01   2.0483E-01 -1.00E+00  8.37E-01  4.72E-01  1.00E+00  4.72E-01  2.17E-01  1.00E+00
:JACOBIANS    9.447E-01   6.358E-01
  
:NORMS:  1/Froebius, Min, Max, Used   0.6722E+00  0.4068E+00  0.9977E+00  0.6789E+00
:INFO :  Number of Memory Steps    5 Skipping    0
:INFO :  SLambda=    0.6006049114  Max    0.6006049114
:PREDicted Charge, CTotal, PW Trust    1.087E-03   2.173E-03   5.267E-02
:PREDicted DMix, Beta, BLim   4.0698E-01  1.4690E+00  1.2016E+00

Eigenvalues, unscaled except for SY+YY
   #     SY Real        SY Imag          SS             YY         SY+YY Real      SY+YY Imag
   1   1.890695E+00   0.000000E+00   1.775518E+00   3.852596E+00   4.919641E+00   0.000000E+00
   2   4.992754E-01   0.000000E+00   4.760980E-01   7.701855E-01   1.082433E+00   0.000000E+00
   3   6.134572E-02   0.000000E+00   7.764956E-03   3.711672E-01   4.634752E-01   0.000000E+00
   4   2.135430E-15   0.000000E+00   8.873329E-05   6.022743E-03   2.817994E-05   0.000000E+00
   5   9.958884E-04   0.000000E+00  -1.325503E-16   2.816548E-05   7.293835E-03   0.000000E+00
 
:INFO :  Singular value  4.921E+00 Weight  1.000E+00 Projection -6.199E-02
:INFO :  Singular value  1.082E+00 Weight  1.000E+00 Projection -7.132E-02
:INFO :  Singular value  4.634E-01 Weight  1.000E+00 Projection -2.485E-02
:INFO :  Singular value  7.294E-03 Weight  9.972E-01 Projection -2.874E+00
:INFO :  Singular value  2.818E-05 Weight  5.322E-03 Projection -4.645E-02
:RANK :  ACTIVE   4.00/5  =  80.05 % ; YY RANK   4.00/5  =  80.02 %
 
:BLIM :  VZERO Control Off
:TRUST:  Step 7.91E-01  Charge 7.50E-02 (e) CTO  2.50E-01 (e) PW  3.50E-01 (e)
:DIRM :  MEMORY  5/8  SCALE   1.000 RED  0.60 PRED  0.84 NEXT  0.47 
:TRAVE:  Charge 2.72E-03 (e) CTO  5.45E-03 (e) PW  4.06E-02 (e)
:DIRP :  |MSR1|= 2.723E-02 |PRATT|= 3.353E-02 ANGLE=  13.1 DEGREES
:DIRQ :  |MSR1|= 1.839E-01 |PRATT|= 2.727E-01 ANGLE=  30.8 DEGREES
:DIRT :  |MSR1|= 1.859E-01 |PRATT|= 2.748E-01 ANGLE=  30.6 DEGREES
:MIX  :   MSD1   REGULARIZATION:  3.85E-04 GREED: 0.27407  Newton 1.00  0.6764                
     
       CHARGES OF MIXED CHARGE DENSITY
:CTO   : INTERSTITIAL CHARGE =     6.962716
:CPC   : PW Pseudocharge     =    16.935065
:CTO001: CHARGE SPHERE  1    =    55.518642

:NEC03: NUCLEAR AND ELECTRONIC CHARGE    118.00000   118.00000

PW CHANGE     H    K    L      Current       Change    Residue
:PTO001:      0    0    0  5.08805578E-02  1.064E-04  2.262E-05
:PTO003:      0    2    0  1.41202405E-02  1.889E-05  3.475E-05
:PTO004:     -1    1    0  6.93346206E-02  2.611E-04  3.369E-04
:PTO005:      0    2   -1 -8.05416382E-02 -2.551E-04 -3.583E-04
:PTO006:      0    0   -2 -4.17053429E-02 -8.110E-05 -1.433E-05
:PTO007:     -1    1   -1 -8.72740314E-02 -1.698E-04 -2.115E-04
:PTO008:      0    2   -2 -1.42881768E-02  4.442E-05  5.668E-05
:PTO009:     -1    1   -2 -7.36060315E-02 -5.039E-04 -5.263E-04
:PTO011:     -1    3    0 -1.19925555E-02 -1.488E-04 -2.094E-04
:PTO012:     -1    3   -1 -5.41098423E-02 -4.159E-04 -5.787E-04
:PTO013:      0    4    0 -9.93648234E-03 -2.398E-05 -5.445E-05
:PTO014:      0    2   -3  2.28094253E-02  1.560E-04  1.238E-04

:ENE  : ********** TOTAL ENERGY IN Ry =       -36944.16564232

       TOTAL FORCE IN mRy/a.u. = |F|     Fx             Fy             Fz     with/without FOR in case.in2
:FOR001:   1.ATOM          3.263          0.000          0.000         -3.263 partial forces
       TOTAL FORCE WITH RESPECT TO GLOBAL CARTESIAN COORDINATES:
:FCA001:   1.ATOM                         0.000         -3.263          0.000 partial forces
       TOTAL FORCE WITH RESPECT TO THE GLOBAL COORDINATE SYSTEM:
:FGL001:   1.ATOM                 0.000000000    -3.262509283     0.000000000 partial forces
 Flat Integration
 New Mode for Coulomb Integral
 Consistent 3/8+Simpson combinations
 Extension of core to zero
 LDM version in phi
 Fifth-order quadrature in outwin


            ---------
:ITE007:  7. ITERATION
            ---------

:NATO :    1 INDEPENDENT AND    2 TOTAL ATOMS IN UNITCELL
       SUBSTANCE: aU                                                          

       LATTICE                      = CXY 
:POT  : POTENTIAL OPTION EX_LDA EC_LDA VX_LDA VC_LDA
:LAT  : LATTICE CONSTANTS=  6.41698 13.02167 11.24187    1.571    1.571    1.571
:VOL  : UNIT CELL VOLUME =     469.68395
       MODE OF CALCULATION IS       = RELA
       NON-SPINPOLARIZED CALCULATION
:IFFT  : FFT-parameters:   54  100   90 Factor: 2.00


   CONVERGENCE PARAMETER FOR PSEUDOCHARGE: NCON=  9
   MAXIMAL VALUE OF RMT(JATOM)*ABSK(NKK) : RK  =27.59878


:VKCOUL :  VK-COUL convergence: 0.127E-06
       ATOMNUMBER=  1 Pr1        VCOUL-ZERO =  0.83655E-01
:EFG001:                        EFG         =    -7.24367   *10**21  V / m**2
                               V20  TOT/SRF=    -6.27321    -0.02709
                               V22  TOT/SRF=    -0.02879    -0.00113
                               V22M TOT/SRF=     0.00000     0.00000
                               V21  TOT/SRF=     0.00000     0.00000
                               V21M TOT/SRF=     0.00000     0.00000

              3.59305    0.00000    0.00000        3.59305    0.00000    0.00000
              0.00000    3.65062    0.00000        0.00000    3.65062    0.00000
              0.00000    0.00000   -7.24367        0.00000    0.00000   -7.24367

         MAIN DIRECTIONS OF THE EFG   1.0000  0.0000  0.0000
                                      0.0000  1.0000  0.0000
                                      0.0000  0.0000  1.0000
:ANG001:  ANGLE WITH OLD X-AXIS =         0.0

:ETA001:                         ASYMM. ETA =     0.00795


     HELLMANN-FEYNMAN-FORCE IN mRy/a.u. = |F|  Fx       Fy             Fz
:FHF001:   1.ATOM   1345.114260737554      0.000000000000      0.000000000000  -1345.114260737554

:FIT001: LUSE= 13 SIGMA OF V-XC FIT FOR ATOM  1  0.5177286E-04
:FIT001: LUSE= 13 SIGMA OF V-XC FIT FOR ATOM  1  0.5177286E-04
:DEN  : DENSITY INTEGRAL  =        -14149.84850466   (Ry)
       ELS_POTENTIAL_AT Z=0 and Z=0.5:   0.72740   0.72740
       ELS_POTENTIAL_AT Y=0 and Y=0.5:   0.07113   0.07113
:VZERO:v0,v0c,v0x   0.14651   0.72740  -0.58089 v5,v5c,v5x   0.14651   0.72740  -0.58089
:VZERY:v0,v0c,v0x  -0.70637   0.07113  -0.77749 v5,v5c,v5x  -0.70637   0.07113  -0.77749
:VZERX:v0,v0c,v0x  -1.12103  -0.37700  -0.74403 v5,v5c,v5x  -1.12103  -0.37700  -0.74403
:LMAX-WF:   10   Non-Spherical LMAX:   4

          ATOMIC SPHERE DEPENDENT PARAMETERS FOR ATOM  Pr1       
:e__0001: OVERALL ENERGY PARAMETER IS    0.4401
          OVERALL BASIS SET ON ATOM IS LAPW
:E0_0001: E( 0)=    0.4401
             APW+lo
:E0_0001: E( 0)=   -2.0267   E(BOTTOM)=   -2.662   E(TOP)=   -1.391  4  5   181
             LOCAL ORBITAL
:E1_0001: E( 1)=    0.8401
             APW+lo
:E1_0001: E( 1)=   -0.5566   E(BOTTOM)=   -1.514   E(TOP)=    0.401  3  4   199
             LOCAL ORBITAL
:E3_0001: E( 3)=    0.6250   E(BOTTOM)=    0.418   E(TOP)=    0.832  0  1   121
             APW+lo
:E2_0001: E( 2)=    0.4401   E(BOTTOM)=    0.227   E(TOP)= -200.000  2 -1    88
             APW+lo

       K=   0.06250   0.00000   0.06250            1
:RKM  : MATRIX SIZE   441LOs:  40  RKM= 8.49  WEIGHT= 4.00  PGR:    
       EIGENVALUES ARE:
:EIG00001:      -1.9989805   -1.9839367   -0.7263481   -0.6478812   -0.6299094
:EIG00006:      -0.6227144   -0.6153360   -0.6150710    0.4084300    0.5425714
:EIG00011:       0.6336156    0.6348427    0.6351149    0.6375910    0.6420418
:EIG00016:       0.6528021    0.6560437    0.6565594    0.6595890    0.6623114
:EIG00021:       0.6660597    0.6698367    0.6707877    0.6760592    0.7095853
:EIG00026:       0.7246211    0.8042266    0.8177657    0.8465505    0.8770930
:EIG00031:       0.8936452    0.9829969    1.0273180    1.0732626    1.3747540
:EIG00036:       1.3750405    1.4623137    1.4665852    1.6273801    1.6815071
:EIG00041:       1.7516374    1.8526006    1.9324504    1.9490801    2.0528812
:EIG00046:       2.1006698    2.1152383
 
       ********************************************************

:KPT   :      NUMBER OF K-POINTS:   288
:GAP (global)   :    0.0    Ry =     0.0   eV (metal)
         Bandranges (emin - emax) and occupancy:
:BAN00004:   4   -0.711362   -0.647881  2.00000000
:BAN00005:   5   -0.700178   -0.629909  2.00000000
:BAN00006:   6   -0.684665   -0.618768  2.00000000
:BAN00007:   7   -0.665376   -0.615336  2.00000000
:BAN00008:   8   -0.634374   -0.611712  2.00000000
:BAN00009:   9    0.403276    0.610256  2.00000000
:BAN00010:  10    0.511982    0.620535  2.00000000
:BAN00011:  11    0.574037    0.637540  2.00000000
:BAN00012:  12    0.614920    0.640619  1.99919804
:BAN00013:  13    0.625307    0.649006  1.44540809
:BAN00014:  14    0.633547    0.653041  0.55538860
:BAN00015:  15    0.641852    0.655720  0.00000000
:BAN00016:  16    0.645420    0.657566  0.00000000
:BAN00017:  17    0.649278    0.659183  0.00000000
:BAN00018:  18    0.651658    0.660492  0.00000000
:BAN00019:  19    0.655531    0.662890  0.00000000
        Energy to separate low and high energystates:    0.35328


:NOE  : NUMBER OF ELECTRONS          =   26.000

:FER  : F E R M I - ENERGY(TETRAH.M.)=   0.6398682698
:GMA  : POTENTIAL AND CHARGE CUT-OFF  12.00 Ry**.5

:POS001: ATOM   -1 X,Y,Z = 0.00000 0.89750 0.25000  MULT= 2  ZZ= 59.000  Pr1       

       LMMAX 16
       LM=   0 0  1 0  2 0  2 2  3 0  3 2  4 0  4 2  4 4  5 0  5 2  5 4  6 0  6 2  6 4  6 6

:CHA001: TOTAL VALENCE CHARGE INSIDE SPHERE   1 =   9.5238    (RMT=  2.3000 )
:PCS001: PARTIAL CHARGES SPHERE =  1 S,P,D,F,PX,PY,PZ,D-Z2,D-X2Y2,D-XY,D-XZ,D-YZ 
:QTL001: 1.9410 5.0176 0.5231 2.0418 1.6696 1.6694 1.6786 0.0975 0.0936 0.1143 0.1021 0.1155
        Q-s-low E-s-low   Q-p-low E-p-low   Q-d-low E-d-low   Q-f-low E-f-low
:EPL001:  1.8695 -1.9840    4.9518 -0.6612    0.0018 -0.6862    0.0005 -0.6955
[...]
     
       CONVERGENCE TEST
:DTO001: DIFFERENCE IN SPHERE  1 =  0.0001421

:DIS  :  CHARGE DISTANCE       ( 0.0001421 for atom    1 spin 1)      0.0001421
 PW Mixed is          491
 
******************************************************
* MULTISECANT MIXING VER9 RELEASE 10.4.0              *
* Standard Mode with controls                        *
* Fixed density scale                                *
* Regularization       1.000E-04                     *
* Trust Upper Limit    5.000E+00                     *
* Max Number of Memory Steps    8                    *
******************************************************
 
:PWTMP   3.6775E+02  1.9467E+02  4.6968E+02
:PLANE:  PW TOTAL      4.6971 DISTAN   3.98E-05  8.47E-04 %
:CHARG:  CLM/ATOM   1381.9488 DISTAN   2.19E-04  1.58E-05 %
 
Step History
        DMIX         DMIXT        Red     Pred      Trust     Lambda    MagRel    MagAbs     Beta
  5   1.0290E-01   1.0265E-01  7.60E-01  8.96E-01  3.59E-01  9.01E-01  3.59E-01  2.17E-01  1.00E+00
  6   2.1229E-01   2.0483E-01  5.99E-01  8.37E-01  4.72E-01  6.01E-01  4.72E-01  2.17E-01  1.00E+00
  7   2.7407E-01   2.7407E-01  2.41E-01  4.66E-01  7.91E-01  4.12E-01  6.76E-01  1.86E-01  1.00E+00
  8   2.1978E-01   2.1978E-01  4.34E-01  6.59E-01  1.05E+00  9.47E-01  4.47E-01  2.97E-02  1.00E+00
  9   3.2130E-01   3.2130E-01  7.88E-01  7.03E-01  1.41E+00  1.42E+00  5.72E-01  1.65E-02  1.00E+00
 10   2.4799E-01   2.4799E-01  3.20E-01  2.92E-01  1.78E+00  1.77E+00  1.87E-01  4.24E-03  9.51E-01
 11   2.8391E-01   2.8391E-01  2.90E-01  2.81E-01  2.38E+00  1.82E+00  2.47E-01  1.79E-03  9.72E-01
 12   3.4006E-01   3.4006E-01  1.72E-01  3.14E-01  3.17E+00  1.35E+00  5.72E-01  1.20E-03  1.00E+00
 13   2.3012E-01   2.3012E-01 -1.00E+00  4.66E-01  4.51E+00  1.00E+00  6.66E-01  2.40E-04  1.00E+00
:JACOBIANS    9.294E-01   2.914E+00
  
:NORMS:  1/Froebius, Min, Max, Used   0.6529E+00  0.4928E+00  0.9764E+00  0.8911E+00
:INFO :  Number of Memory Steps    8 Skipping    4
:INFO :  SLambda=    1.9241413947  Max    1.9241413947
:PREDicted Charge, CTotal, PW Trust    4.711E-06   9.422E-06   1.592E-05
:PREDicted DMix, Beta, BLim   2.3457E-01  9.2418E-01  1.9134E+00

Eigenvalues, unscaled except for SY+YY
   #     SY Real        SY Imag          SS             YY         SY+YY Real      SY+YY Imag
   1   2.418149E+00   0.000000E+00   2.389619E+00   3.009261E+00   7.284242E+00   0.000000E+00
   2   1.106435E+00   0.000000E+00   6.543243E-01   2.449013E+00   4.833744E+00   0.000000E+00
   3   5.512877E-01   0.000000E+00   3.266770E-01   1.420126E+00   2.526686E+00   0.000000E+00
   4   1.078244E-01   0.000000E+00   1.823829E-02   7.035021E-01   9.224913E-01   0.000000E+00
   5   5.515691E-02   0.000000E+00   1.207047E-02   2.908080E-01   4.208930E-01   0.000000E+00
   6   2.363551E-02   0.000000E+00   5.412313E-03   9.086230E-02   1.685639E-01   0.000000E+00
   7   3.664241E-03   0.000000E+00   2.689608E-03   3.175661E-02   1.182940E-02   0.000000E+00
   8   6.955443E-03   0.000000E+00   1.484579E-03   4.671383E-03   5.361483E-02   0.000000E+00
 
:INFO :  Singular value  7.293E+00 Weight  1.000E+00 Projection -1.503E-05
:INFO :  Singular value  4.842E+00 Weight  1.000E+00 Projection -6.726E-05
:INFO :  Singular value  2.524E+00 Weight  1.000E+00 Projection -4.925E-05
:INFO :  Singular value  9.221E-01 Weight  1.000E+00 Projection  2.226E-05
:INFO :  Singular value  4.209E-01 Weight  1.000E+00 Projection  4.529E-05
:INFO :  Singular value  1.685E-01 Weight  1.000E+00 Projection -2.392E-04
:INFO :  Singular value  5.359E-02 Weight  1.000E+00 Projection -1.138E-04
:INFO :  Singular value  1.183E-02 Weight  9.994E-01 Projection -7.799E-04
:RANK :  ACTIVE   8.00/8  =  99.99 % ; YY RANK   8.00/8  =  99.95 %
 
:DLIM :  Beta Active  9.431E-01
:BLIM :  VZERO Control Off
:TRUST:  Step 6.01E+00  Charge 1.57E-02 (e) CTO  5.24E-02 (e) PW  7.34E-02 (e)
:DIRM :  MEMORY  8/8  SCALE   1.000 RED  0.62 PRED  0.47 NEXT  0.51 BETA  0.94
:TRAVE:  Charge 9.05E-05 (e) CTO  1.81E-04 (e) PW  4.07E-04 (e)
:DIRP :  |MSR1|= 2.727E-05 |PRATT|= 3.979E-05 ANGLE=  71.6 DEGREES
:DIRQ :  |MSR1|= 5.287E-05 |PRATT|= 2.189E-04 ANGLE=  32.8 DEGREES
:DIRT :  |MSR1|= 5.949E-05 |PRATT|= 2.225E-04 ANGLE=  40.4 DEGREES
:MIX  :   MSE1   REGULARIZATION:  3.01E-04 GREED: 0.25118  Newton 1.00  0.2674                
     
       CHARGES OF MIXED CHARGE DENSITY
:CTO   : INTERSTITIAL CHARGE =     6.957092
:CPC   : PW Pseudocharge     =    16.947707
:CTO001: CHARGE SPHERE  1    =    55.521454

:NEC03: NUCLEAR AND ELECTRONIC CHARGE    118.00000   118.00000

PW CHANGE     H    K    L      Current       Change    Residue
:PTO001:      0    0    0  5.08954994E-02 -1.097E-07 -2.459E-07
:PTO003:      0    2    0  1.40973008E-02 -1.188E-07 -1.416E-07
:PTO004:     -1    1    0  6.93267940E-02 -2.018E-07  2.748E-07
:PTO005:      0    2   -1 -8.05970796E-02  3.747E-07 -4.725E-08
:PTO006:      0    0   -2 -4.17276745E-02  1.990E-07 -6.563E-09
:PTO007:     -1    1   -1 -8.73831735E-02  5.936E-07  1.675E-07
:PTO008:      0    2   -2 -1.42952479E-02  2.760E-07  4.061E-07
:PTO009:     -1    1   -2 -7.37521745E-02  4.024E-07 -5.363E-07
:PTO011:     -1    3    0 -1.20738183E-02  5.809E-08 -3.116E-07
:PTO012:     -1    3   -1 -5.41906196E-02  3.110E-07 -6.441E-07
:PTO013:      0    4    0 -9.93433073E-03  9.459E-08  1.533E-08
:PTO014:      0    2   -3  2.28112797E-02 -1.426E-07  1.605E-07

:ENE  : ********** TOTAL ENERGY IN Ry =       -36944.16536661

       TOTAL FORCE IN mRy/a.u. = |F|     Fx             Fy             Fz     with/without FOR in case.in2
:FOR001:   1.ATOM         27.708          0.000          0.000        -27.708 partial forces
       TOTAL FORCE WITH RESPECT TO GLOBAL CARTESIAN COORDINATES:
:FCA001:   1.ATOM                         0.000        -27.708          0.000 partial forces
       TOTAL FORCE WITH RESPECT TO THE GLOBAL COORDINATE SYSTEM:
:FGL001:   1.ATOM                 0.000000000   -27.708392477     0.000000000 partial forces
 Flat Integration
 New Mode for Coulomb Integral
 Consistent 3/8+Simpson combinations
 Extension of core to zero
 LDM version in phi
 Fifth-order quadrature in outwin


            ---------
:ITE014: 14. ITERATION
            ---------

:NATO :    1 INDEPENDENT AND    2 TOTAL ATOMS IN UNITCELL
       SUBSTANCE: aU                                                          

       LATTICE                      = CXY 
:POT  : POTENTIAL OPTION EX_LDA EC_LDA VX_LDA VC_LDA
:LAT  : LATTICE CONSTANTS=  6.41698 13.02167 11.24187    1.571    1.571    1.571
:VOL  : UNIT CELL VOLUME =     469.68395
       MODE OF CALCULATION IS       = RELA
       NON-SPINPOLARIZED CALCULATION
:IFFT  : FFT-parameters:   54  100   90 Factor: 2.00


   CONVERGENCE PARAMETER FOR PSEUDOCHARGE: NCON=  9
   MAXIMAL VALUE OF RMT(JATOM)*ABSK(NKK) : RK  =27.59878


:VKCOUL :  VK-COUL convergence: 0.134E-06
       ATOMNUMBER=  1 Pr1        VCOUL-ZERO =  0.83623E-01
:EFG001:                        EFG         =    -8.08002   *10**21  V / m**2
                               V20  TOT/SRF=    -6.99750    -0.02763
                               V22  TOT/SRF=    -0.17728    -0.00025
                               V22M TOT/SRF=     0.00000     0.00000
                               V21  TOT/SRF=     0.00000     0.00000
                               V21M TOT/SRF=     0.00000     0.00000

              3.86272    0.00000    0.00000        3.86272    0.00000    0.00000
              0.00000    4.21729    0.00000        0.00000    4.21729    0.00000
              0.00000    0.00000   -8.08002        0.00000    0.00000   -8.08002

         MAIN DIRECTIONS OF THE EFG   1.0000  0.0000  0.0000
                                      0.0000  1.0000  0.0000
                                      0.0000  0.0000  1.0000
:ANG001:  ANGLE WITH OLD X-AXIS =         0.0

:ETA001:                         ASYMM. ETA =     0.04388


     HELLMANN-FEYNMAN-FORCE IN mRy/a.u. = |F|  Fx       Fy             Fz
:FHF001:   1.ATOM   1386.176720756721      0.000000000000      0.000000000000  -1386.176720756721

:FIT001: LUSE= 13 SIGMA OF V-XC FIT FOR ATOM  1  0.5745346E-04
:FIT001: LUSE= 13 SIGMA OF V-XC FIT FOR ATOM  1  0.5745346E-04
:DEN  : DENSITY INTEGRAL  =        -14149.78473921   (Ry)
       ELS_POTENTIAL_AT Z=0 and Z=0.5:   0.72723   0.72723
       ELS_POTENTIAL_AT Y=0 and Y=0.5:   0.07067   0.07067
:VZERO:v0,v0c,v0x   0.14660   0.72723  -0.58064 v5,v5c,v5x   0.14660   0.72723  -0.58064
:VZERY:v0,v0c,v0x  -0.70675   0.07067  -0.77742 v5,v5c,v5x  -0.70675   0.07067  -0.77742
:VZERX:v0,v0c,v0x  -1.12119  -0.37723  -0.74396 v5,v5c,v5x  -1.12119  -0.37723  -0.74396
:LMAX-WF:   10   Non-Spherical LMAX:   4

          ATOMIC SPHERE DEPENDENT PARAMETERS FOR ATOM  Pr1       
:e__0001: OVERALL ENERGY PARAMETER IS    0.4401
          OVERALL BASIS SET ON ATOM IS LAPW
:E0_0001: E( 0)=    0.4401
             APW+lo
:E0_0001: E( 0)=   -2.0265   E(BOTTOM)=   -2.662   E(TOP)=   -1.391  4  5   178
             LOCAL ORBITAL
:E1_0001: E( 1)=    0.8401
             APW+lo
:E1_0001: E( 1)=   -0.5564   E(BOTTOM)=   -1.514   E(TOP)=    0.401  3  4   198
             LOCAL ORBITAL
:E3_0001: E( 3)=    0.6252   E(BOTTOM)=    0.418   E(TOP)=    0.833  0  1   125
             APW+lo
:E2_0001: E( 2)=    0.4401   E(BOTTOM)=    0.227   E(TOP)= -200.000  2 -1    91
             APW+lo

       K=   0.06250   0.00000   0.06250            1
:RKM  : MATRIX SIZE   441LOs:  40  RKM= 8.49  WEIGHT= 4.00  PGR:    
       EIGENVALUES ARE:
:EIG00001:      -1.9987351   -1.9836752   -0.7263324   -0.6475368   -0.6295734
:EIG00006:      -0.6225497   -0.6151596   -0.6149782    0.4085380    0.5426922
:EIG00011:       0.6336715    0.6349818    0.6352334    0.6377299    0.6421255
:EIG00016:       0.6529589    0.6564134    0.6568472    0.6598529    0.6626250
:EIG00021:       0.6665041    0.6700374    0.6707132    0.6761973    0.7096819
:EIG00026:       0.7247386    0.8043262    0.8179456    0.8466043    0.8773048
:EIG00031:       0.8938723    0.9830804    1.0274427    1.0733039    1.3748495
:EIG00036:       1.3751114    1.4624434    1.4665732    1.6274952    1.6813885
:EIG00041:       1.7516640    1.8526745    1.9327064    1.9491119    2.0529239
:EIG00046:       2.1008275    2.1152800
 
       ********************************************************

:KPT   :      NUMBER OF K-POINTS:   288
:GAP (global)   :    0.0    Ry =     0.0   eV (metal)
         Bandranges (emin - emax) and occupancy:
:BAN00004:   4   -0.711184   -0.647537  2.00000000
:BAN00005:   5   -0.700101   -0.629573  2.00000000
:BAN00006:   6   -0.684444   -0.618603  2.00000000
:BAN00007:   7   -0.665085   -0.615160  2.00000000
:BAN00008:   8   -0.634221   -0.611535  2.00000000
:BAN00009:   9    0.403386    0.610417  2.00000000
:BAN00010:  10    0.512099    0.620721  2.00000000
:BAN00011:  11    0.574219    0.637596  2.00000000
:BAN00012:  12    0.614980    0.640766  1.99931831
:BAN00013:  13    0.625493    0.649092  1.46297822
:BAN00014:  14    0.633789    0.653508  0.53770252
:BAN00015:  15    0.641905    0.656100  0.00000000
:BAN00016:  16    0.645759    0.657620  0.00000000
:BAN00017:  17    0.649280    0.659420  0.00000000
:BAN00018:  18    0.651779    0.660483  0.00000000
:BAN00019:  19    0.655628    0.663123  0.00000000
        Energy to separate low and high energystates:    0.35339


:NOE  : NUMBER OF ELECTRONS          =   26.000

:FER  : F E R M I - ENERGY(TETRAH.M.)=   0.6400802491
:GMA  : POTENTIAL AND CHARGE CUT-OFF  12.00 Ry**.5

:POS001: ATOM   -1 X,Y,Z = 0.00000 0.89750 0.25000  MULT= 2  ZZ= 59.000  Pr1       

       LMMAX 16
       LM=   0 0  1 0  2 0  2 2  3 0  3 2  4 0  4 2  4 4  5 0  5 2  5 4  6 0  6 2  6 4  6 6

:CHA001: TOTAL VALENCE CHARGE INSIDE SPHERE   1 =   9.5230    (RMT=  2.3000 )
:PCS001: PARTIAL CHARGES SPHERE =  1 S,P,D,F,PX,PY,PZ,D-Z2,D-X2Y2,D-XY,D-XZ,D-YZ 
:QTL001: 1.9411 5.0174 0.5237 2.0405 1.6695 1.6694 1.6785 0.0975 0.0941 0.1143 0.1023 0.1155
        Q-s-low E-s-low   Q-p-low E-p-low   Q-d-low E-d-low   Q-f-low E-f-low
:EPL001:  1.8695 -1.9838    4.9516 -0.6610    0.0018 -0.6864    0.0005 -0.6955
        Q-s-hi  E-s-hi    Q-p-hi  E-p-hi    Q-d-hi  E-d-hi    Q-f-hi  E-f-hi 
:EPH001:  0.0716  0.5416    0.0658  0.5796    0.5219  0.5905    2.0400  0.6263

                      VXX         VYY         VZZ       UP TO R
:VZZ001:             3.84693     4.20413    -8.05106       2.300

:CHA  : TOTAL VALENCE CHARGE INSIDE UNIT CELL =      25.999999

:SUM  : SUM OF EIGENVALUES =          -9.891055013


        1.ATOM      Pr1                  14 CORE STATES
       CORE-FORCE in mRy/a.u. = |F|      Fx             Fy             Fz
:FCO001:   1.ATOM   1358.444121175871      0.000000000000      0.000000000000   1358.444121175871

:1S 001: 1S               -3066.966572232 Ry
:2S 001: 2S                -492.719039748 Ry
:2PP001: 2P*               -465.818258412 Ry
:2P 001: 2P                -430.420736216 Ry
:3S 001: 3S                -105.808102641 Ry
:3PP001: 3P*                -94.346016649 Ry
:3P 001: 3P                 -87.338084251 Ry
:3DD001: 3D*                -67.265303819 Ry
:3D 001: 3D                 -65.753713255 Ry
:4S 001: 4S                 -20.482319216 Ry
:4PP001: 4P*                -16.188971204 Ry
:4P 001: 4P                 -14.661341558 Ry
:4DD001: 4D*                 -7.593896787 Ry
:4D 001: 4D                  -7.324416038 Ry
:CINT001 Core Integral Atom   1   45.998495

       DENSITY AT NUCLEUS
        JATOM        VALENCE       SEMI-CORE          CORE           TOTAL
:RTO001:   1      648.476973        0.000000   656825.290658   657473.767631
     
       CHARGES OF NEW CHARGE DENSITY
:NTO   : INTERSTITIAL CHARGE =     6.954094
:NPC   : PW Pseudocharge     =    16.940475
:NTO001: CHARGE SPHERE  1    =    55.521447

:NEC01: NUCLEAR AND ELECTRONIC CHARGE    118.00000   117.99699
     
       CHARGES OF OLD CHARGE DENSITY
:OTO   : INTERSTITIAL CHARGE =     6.957092
:OPC   : PW Pseudocharge     =    16.947707
:OTO001: CHARGE SPHERE  1    =    55.521454

:NEC02: NUCLEAR AND ELECTRONIC CHARGE    118.00000   118.00000
     
       CONVERGENCE TEST
:DTO001: DIFFERENCE IN SPHERE  1 =  0.0000205

:DIS  :  CHARGE DISTANCE       ( 0.0000205 for atom    1 spin 1)      0.0000205
 PW Mixed is          491
 
******************************************************
* MULTISECANT MIXING VER9 RELEASE 10.4.0              *
* Standard Mode with controls                        *
* Fixed density scale                                *
* Regularization       1.000E-04                     *
* Trust Upper Limit    5.000E+00                     *
* Max Number of Memory Steps    8                    *
******************************************************
 
:PWTMP   3.6775E+02  1.9467E+02  4.6968E+02
:PLANE:  PW TOTAL      4.6971 DISTAN   4.26E-05  9.08E-04 %
:CHARG:  CLM/ATOM   1381.9488 DISTAN   6.36E-05  4.60E-06 %
 
Step History
        DMIX         DMIXT        Red     Pred      Trust     Lambda    MagRel    MagAbs     Beta
  6   2.1229E-01   2.0483E-01  5.99E-01  8.37E-01  4.72E-01  6.01E-01  4.72E-01  2.17E-01  1.00E+00
  7   2.7407E-01   2.7407E-01  2.41E-01  4.66E-01  7.91E-01  4.12E-01  6.76E-01  1.86E-01  1.00E+00
  8   2.1978E-01   2.1978E-01  4.34E-01  6.59E-01  1.05E+00  9.47E-01  4.47E-01  2.97E-02  1.00E+00
  9   3.2130E-01   3.2130E-01  7.88E-01  7.03E-01  1.41E+00  1.42E+00  5.72E-01  1.65E-02  1.00E+00
 10   2.4799E-01   2.4799E-01  3.20E-01  2.92E-01  1.78E+00  1.77E+00  1.87E-01  4.24E-03  9.51E-01
 11   2.8391E-01   2.8391E-01  2.90E-01  2.81E-01  2.38E+00  1.82E+00  2.47E-01  1.79E-03  9.72E-01
 12   3.4006E-01   3.4006E-01  1.72E-01  3.14E-01  3.17E+00  1.35E+00  5.72E-01  1.20E-03  1.00E+00
 13   2.3012E-01   2.3012E-01  6.18E-01  4.66E-01  4.51E+00  1.92E+00  6.66E-01  2.40E-04  1.00E+00
 14   2.5118E-01   2.5118E-01 -1.00E+00  5.14E-01  6.01E+00  1.00E+00  2.67E-01  5.95E-05  9.43E-01
:JACOBIANS    6.833E-01   3.225E+00
  
:NORMS:  1/Froebius, Min, Max, Used   0.5919E+00  0.4968E+00  0.1009E+01  0.7040E+00
:INFO :  Number of Memory Steps    8 Skipping    5
:INFO :  SLambda=    1.2918686438  Max    1.2918686438
:PREDicted Charge, CTotal, PW Trust    2.014E-06   4.028E-06   1.702E-05
:PREDicted DMix, Beta, BLim   3.8740E-01  1.2927E+00  1.5917E+00

Eigenvalues, unscaled except for SY+YY
   #     SY Real        SY Imag          SS             YY         SY+YY Real      SY+YY Imag
   1   1.809774E+00   0.000000E+00   1.710201E+00   3.450536E+00   5.048468E+00   0.000000E+00
   2   1.064488E+00   0.000000E+00   5.985372E-01   1.997011E+00   4.049144E+00   0.000000E+00
   3   5.819888E-01   0.000000E+00   3.820106E-01   1.414988E+00   2.139781E+00   0.000000E+00
   4   1.482074E-01   0.000000E+00   8.672386E-02   7.227848E-01   8.645617E-01   0.000000E+00
   5   1.084777E-01   0.000000E+00   1.703706E-02   2.783240E-01   5.299211E-01   0.000000E+00
   6   2.981801E-03   0.000000E+00   5.540243E-03   9.075845E-02   1.214802E-02   0.000000E+00
   7   8.585886E-03   0.000000E+00   1.880774E-03   3.771162E-02   6.157755E-02   0.000000E+00
   8   2.529189E-02   0.000000E+00   8.637606E-04   7.885739E-03   1.386412E-01   0.000000E+00
 
:INFO :  Singular value  5.057E+00 Weight  1.000E+00 Projection  9.249E-06
:INFO :  Singular value  4.051E+00 Weight  1.000E+00 Projection -4.000E-06
:INFO :  Singular value  2.138E+00 Weight  1.000E+00 Projection  7.910E-06
:INFO :  Singular value  8.646E-01 Weight  1.000E+00 Projection -1.844E-06
:INFO :  Singular value  5.296E-01 Weight  1.000E+00 Projection  5.154E-05
:INFO :  Singular value  1.386E-01 Weight  1.000E+00 Projection  2.820E-05
:INFO :  Singular value  6.155E-02 Weight  1.000E+00 Projection -1.602E-04
:INFO :  Singular value  1.214E-02 Weight  9.992E-01 Projection -4.662E-04
:RANK :  ACTIVE   8.00/8  =  99.99 % ; YY RANK   8.00/8  =  99.97 %
 
:BLIM :  VZERO Control Off
:TRUST:  Step 8.01E+00  Charge 1.26E-02 (e) CTO  4.19E-02 (e) PW  5.87E-02 (e)
:DIRM :  MEMORY  8/8  SCALE   1.000 RED  0.34 PRED  0.51 NEXT  0.74 
:TRAVE:  Charge 4.58E-05 (e) CTO  9.16E-05 (e) PW  2.11E-04 (e)
:DIRP :  |MSR1|= 2.110E-05 |PRATT|= 4.263E-05 ANGLE=  32.0 DEGREES
:DIRQ :  |MSR1|= 4.452E-05 |PRATT|= 6.363E-05 ANGLE=  22.5 DEGREES
:DIRT :  |MSR1|= 4.927E-05 |PRATT|= 7.659E-05 ANGLE=  26.4 DEGREES
:MIX  :   MSE1   REGULARIZATION:  3.45E-04 GREED: 0.32344  Newton 1.00  0.6432                
     
       CHARGES OF MIXED CHARGE DENSITY
:CTO   : INTERSTITIAL CHARGE =     6.957090
:CPC   : PW Pseudocharge     =    16.947746
:CTO001: CHARGE SPHERE  1    =    55.521455

:NEC03: NUCLEAR AND ELECTRONIC CHARGE    118.00000   118.00000

PW CHANGE     H    K    L      Current       Change    Residue
:PTO001:      0    0    0  5.08955790E-02  7.959E-08  2.513E-07
:PTO003:      0    2    0  1.40972887E-02 -1.210E-08  5.123E-08
:PTO004:     -1    1    0  6.93269623E-02  1.684E-07  5.008E-07
:PTO005:      0    2   -1 -8.05971998E-02 -1.203E-07 -4.567E-07
:PTO006:      0    0   -2 -4.17277376E-02 -6.312E-08 -2.575E-07
:PTO007:     -1    1   -1 -8.73832763E-02 -1.028E-07 -4.787E-07
:PTO008:      0    2   -2 -1.42951668E-02  8.112E-08  3.078E-08
:PTO009:     -1    1   -2 -7.37525718E-02 -3.974E-07 -9.546E-07
:PTO011:     -1    3    0 -1.20740568E-02 -2.385E-07 -3.995E-07
:PTO012:     -1    3   -1 -5.41910408E-02 -4.212E-07 -9.861E-07
:PTO013:      0    4    0 -9.93432054E-03  1.019E-08 -6.198E-08
:PTO014:      0    2   -3  2.28113670E-02  8.727E-08  3.144E-07

:ENE  : ********** TOTAL ENERGY IN Ry =       -36944.16536719

       TOTAL FORCE IN mRy/a.u. = |F|     Fx             Fy             Fz     with/without FOR in case.in2
:FOR001:   1.ATOM         27.733          0.000          0.000        -27.733 partial forces
       TOTAL FORCE WITH RESPECT TO GLOBAL CARTESIAN COORDINATES:
:FCA001:   1.ATOM                         0.000        -27.733          0.000 partial forces
       TOTAL FORCE WITH RESPECT TO THE GLOBAL COORDINATE SYSTEM:
:FGL001:   1.ATOM                 0.000000000   -27.732599581     0.000000000 partial forces
