
------- case.scf0 --------
 Flat Integration
 New Mode for Coulomb Integral
 Consistent 3/8+Simpson combinations
 Extension of core to zero
 LDM version in phi
 Fifth-order quadrature in outwin


            ---------
:ITE060: 60. ITERATION
            ---------

:NATO :    1 INDEPENDENT AND    2 TOTAL ATOMS IN UNITCELL
       SUBSTANCE: aU                                                          

       LATTICE                      = CXY 
:POT  : POTENTIAL OPTION EX_LDA EC_LDA VX_LDA VC_LDA
:LAT  : LATTICE CONSTANTS=  6.69940 13.59477 11.73665    1.571    1.571    1.571
:VOL  : UNIT CELL VOLUME =     534.46794
       MODE OF CALCULATION IS       = RELA
       NON-SPINPOLARIZED CALCULATION
:IFFT  : FFT-parameters:   54  108   96 Factor: 2.00


   CONVERGENCE PARAMETER FOR PSEUDOCHARGE: NCON=  9
   MAXIMAL VALUE OF RMT(JATOM)*ABSK(NKK) : RK  =27.59996


:VKCOUL :  VK-COUL convergence: 0.814E-07
       ATOMNUMBER=  1 Pr1        VCOUL-ZERO = -0.31784E-01
:EFG001:                        EFG         =    -7.07099   *10**21  V / m**2
                               V20  TOT/SRF=    -6.12366    -0.02040
                               V22  TOT/SRF=     0.88533     0.00291
                               V22M TOT/SRF=     0.00000     0.00000
                               V21  TOT/SRF=     0.00000     0.00000
                               V21M TOT/SRF=     0.00000     0.00000

              4.42082    0.00000    0.00000        4.42082    0.00000    0.00000
              0.00000    2.65017    0.00000        0.00000    2.65017    0.00000
              0.00000    0.00000   -7.07099        0.00000    0.00000   -7.07099

         MAIN DIRECTIONS OF THE EFG   1.0000  0.0000  0.0000
                                      0.0000  1.0000  0.0000
                                      0.0000  0.0000  1.0000
:ANG001:  ANGLE WITH OLD X-AXIS =         0.0

:ETA001:                         ASYMM. ETA =     0.25041


     HELLMANN-FEYNMAN-FORCE IN mRy/a.u. = |F|  Fx       Fy             Fz
:FHF001:   1.ATOM    461.479579200307      0.000000000000      0.000000000000   -461.479579200307

:FIT001: LUSE= 13 SIGMA OF V-XC FIT FOR ATOM  1  0.8121284E-05
:FIT001: LUSE= 13 SIGMA OF V-XC FIT FOR ATOM  1  0.8121284E-05
:DEN  : DENSITY INTEGRAL  =        -14137.02250884   (Ry)
       ELS_POTENTIAL_AT Z=0 and Z=0.5:   0.66884   0.66884
       ELS_POTENTIAL_AT Y=0 and Y=0.5:   0.07675   0.07675
:VZERO:v0,v0c,v0x   0.12034   0.66884  -0.54850 v5,v5c,v5x   0.12034   0.66884  -0.54850
:VZERY:v0,v0c,v0x  -0.65708   0.07675  -0.73383 v5,v5c,v5x  -0.65708   0.07675  -0.73383
:VZERX:v0,v0c,v0x  -1.07884  -0.37050  -0.70835 v5,v5c,v5x  -1.07884  -0.37050  -0.70835

------- case.scf1 --------
:LMAX-WF:   10   Non-Spherical LMAX:   4

          ATOMIC SPHERE DEPENDENT PARAMETERS FOR ATOM  Pr1       
:e__0001: OVERALL ENERGY PARAMETER IS    0.3475
          OVERALL BASIS SET ON ATOM IS LAPW
:E0_0001: E( 0)=    0.3475
             APW+lo
:E0_0001: E( 0)=   -2.1427   E(BOTTOM)=   -2.777   E(TOP)=   -1.508  4  5   164
             LOCAL ORBITAL
:E1_0001: E( 1)=    0.7475
             APW+lo
:E1_0001: E( 1)=   -0.6724   E(BOTTOM)=   -1.629   E(TOP)=    0.284  3  4   197
             LOCAL ORBITAL
:E3_0001: E( 3)=    0.5116   E(BOTTOM)=    0.304   E(TOP)=    0.719  0  1   119
             APW+lo
:E2_0001: E( 2)=    0.3475   E(BOTTOM)=    0.113   E(TOP)= -200.000  2 -1    93
             APW+lo

       K=   0.06250   0.00000   0.06250            1
:RKM  : MATRIX SIZE   485LOs:  40  RKM= 8.49  WEIGHT= 4.00  PGR:    
       EIGENVALUES ARE:
:EIG00001:      -2.1082663   -2.0990145   -0.8197895   -0.7635275   -0.7509172
:EIG00006:      -0.7465249   -0.7416130   -0.7413454    0.3117009    0.4548606
:EIG00011:       0.5280916    0.5284391    0.5284535    0.5315636    0.5333760
:EIG00016:       0.5411691    0.5451607    0.5455648    0.5478709    0.5495883
:EIG00021:       0.5532068    0.5558525    0.5565762    0.5592298    0.6049766
:EIG00026:       0.6193689    0.6838293    0.7060907    0.7166105    0.7575352
:EIG00031:       0.7725926    0.8431000    0.8863645    0.9228372    1.1781584
:EIG00036:       1.2222078    1.3100907    1.3132508    1.4586578    1.5098282
:EIG00041:       1.5497731    1.6520743    1.7140496    1.7338828    1.8100980
:EIG00046:       1.8829665    1.8914350    1.9309104    1.9964311    2.0732962
 
:EIG00051:       2.1239612    2.1786531    2.1944118    2.2489546    2.2719225
:EIG00056:       2.3560892    2.3993533    2.4060713    2.5026328    2.5392342
:EIG00061:       2.6026604    2.6302992    2.7506102    2.8385583    2.8466015
:EIG00066:       2.9382495    2.9829997    2.9973501    2.9996565    3.0921942
:EIG00071:       3.0976434    3.1454998    3.1696476    3.2058509    3.2219111
:EIG00076:       3.2613812    3.3007235    3.3334968    3.3613538    3.3831085
:EIG00081:       3.4224277    3.4672214    3.4745920    3.5187658    3.5681898
:EIG00086:       3.5968726    3.6713538    3.6775723    3.7083222    3.7192143
:EIG00091:       3.7532859    3.7717895    3.8203804    3.8216315    3.8285533
:EIG00096:       3.8886913    3.9148391    3.9175267    3.9341803    4.0140911
 
:EIG00101:       4.0679036    4.1963141    4.1998291    4.2565555    4.2954310
:EIG00106:       4.3081860    4.3440574    4.3462715    4.3961128    4.4262489
:EIG00111:       4.4983694    4.5069517    4.5423415    4.5457124    4.5914396
:EIG00116:       4.6461329    4.7193589    4.7474449    4.7577833    4.7852569
:EIG00121:       4.8102158    4.9007416    4.9120974    4.9462027    4.9945325
:EIG00126:       5.0703855    5.0720336    5.1155631    5.1629688    5.1869640
:EIG00131:       5.2048779    5.2574853    5.2913859    5.3034719    5.3201675
:EIG00136:       5.3791875    5.4221603    5.4698484    5.4841347    5.5130404
:EIG00141:       5.5250774    5.5318317    5.5800868    5.6302593    5.6492890
:EIG00146:       5.6675001    5.6854558    5.6890015    5.6933587    5.7931589
 
:EIG00151:       5.8092062    5.8318399    5.9090374    5.9332832    5.9569111
:EIG00156:       6.0651438    6.1441547    6.1691350    6.2034022    6.2174072
:EIG00161:       6.2531388    6.3211818    6.3630288    6.3743086    6.3746950
:EIG00166:       6.4485621    6.4774383    6.4860946    6.5141805    6.5407197
:EIG00171:       6.5582171    6.6254922    6.6555939    6.6623594    6.7210935
:EIG00176:       6.7226857    6.7568125    6.7909259    6.8084575    6.8356753
:EIG00181:       6.9025974    6.9208638    6.9216428    6.9469295    6.9957644
:EIG00186:       7.0014201    7.0070572    7.0968364    7.1070166    7.1128799
:EIG00191:       7.1608631    7.1742154    7.2244765    7.2362353    7.2660589
:EIG00196:       7.2776642    7.2883105    7.3148960    7.3241653    7.3724157
 
:EIG00201:       7.3846446    7.4421083    7.4481095    7.4625186    7.5212644
:EIG00206:       7.5246659    7.5379925    7.5909679    7.6228248    7.6498155
:EIG00211:       7.6559900    7.7037443    7.7082116    7.7259458    7.7359405
:EIG00216:       7.7782548    7.7822788    7.7845750    7.8101029    7.8522803
:EIG00221:       7.8741761    7.9192380    7.9276507    7.9339244    7.9412693
:EIG00226:       7.9530472    7.9973271    7.9987894    8.0369405
       ********************************************************

:KPT   :      NUMBER OF K-POINTS:   288

------- case.scfso --------
   0.0   0.0 angle (M,z), angle (M,x) deg
 
        SPIN-ORBIT EIGENVALUES:
     K=   0.06250   0.00000   0.06250            1
      MATRIX SIZE=  458   WEIGHT= 4.00
     EIGENVALUES ARE:
          -2.1082664   -2.1082664   -2.0990146   -2.0990146   -0.9205885
          -0.9205885   -0.8934532   -0.8934532   -0.7316153   -0.7316153
          -0.6832489   -0.6832489   -0.6807682   -0.6807682   -0.6748207
          -0.6748207    0.3117269    0.3117269    0.4547182    0.4547182
           0.5196446    0.5196447    0.5218473    0.5218473    0.5231062
           0.5231063    0.5242616    0.5242616    0.5259596    0.5259596
           0.5282290    0.5282290    0.5469921    0.5469921    0.5522973
           0.5522973    0.5543565    0.5543565    0.5556252    0.5556252

           0.5588722    0.5588722    0.5621712    0.5621712    0.5631291
           0.5631291    0.5660224    0.5660224    0.6052780    0.6052781
           0.6191230    0.6191230    0.6834995    0.6834997    0.7042984
           0.7042985    0.7182728    0.7182729    0.7580658    0.7580658
           0.7725799    0.7725799    0.8429033    0.8429033    0.8866731
           0.8866731    0.9229771    0.9229771    1.1781420    1.1781420
           1.2224257    1.2224257    1.3100373    1.3100373    1.3133060
           1.3133060    1.4581664    1.4581664    1.5091757    1.5091757

           1.5497399    1.5497399    1.6498646    1.6498646    1.7131272
           1.7131273    1.7349238    1.7349238    1.8106691    1.8106691
           1.8819886    1.8819886    1.8892939    1.8892939    1.9327238
           1.9327238    1.9968826    1.9968826    2.0728117    2.0728117
           2.1236151    2.1236151    2.1760576    2.1760576    2.1962734
           2.1962734    2.2502681    2.2502681    2.2728759    2.2728759
           2.3559367    2.3559367    2.3986382    2.3986382    2.4072863
           2.4072863    2.5025973    2.5025973    2.5389565    2.5389565

           2.6059739    2.6059739    2.6305521    2.6305521    2.7505324
           2.7505324    2.8386326    2.8386326    2.8467405    2.8467405
           2.9380014    2.9380014    2.9829203    2.9829203    2.9972605
           2.9972605    3.0000145    3.0000145    3.0923177    3.0923177
           3.0977772    3.0977772    3.1455416    3.1455416    3.1696969
           3.1696969    3.2052821    3.2052821    3.2227314    3.2227314
           3.2615279    3.2615279    3.3019875    3.3019875    3.3335724
           3.3335724    3.3613788    3.3613788    3.3835016    3.3835016

           3.4226353    3.4226353    3.4672361    3.4672361    3.4747002
           3.4747002    3.5189249    3.5189249    3.5682212    3.5682212
           3.5969889    3.5969889    3.6714584    3.6714584    3.6775630
           3.6775630    3.7083100    3.7083100    3.7192643    3.7192643
           3.7532988    3.7532988    3.7718360    3.7718360    3.8197203
           3.8197203    3.8219330    3.8219330    3.8286516    3.8286516
           3.8886904    3.8886904    3.9138087    3.9138087    3.9187045
           3.9187045    3.9342565    3.9342565    4.0141294    4.0141294

           4.0677297    4.0677297    4.1936173    4.1936173    4.2018752
           4.2018752    4.2574098    4.2574098    4.2953389    4.2953389
           4.3083716    4.3083716    4.3435140    4.3435140    4.3477292
           4.3477292    4.3963124    4.3963124    4.4263632    4.4263632
           4.4983049    4.4983049
       ********************************************************

------- case.scf2 --------
:GMA  : POTENTIAL AND CHARGE CUT-OFF  12.00 Ry**.5




:POS001: at.nr.  -1 position = 0.00000 0.89750 0.25000  multiplicity =  2

       lmmax 16
       lm=   0 0  1 0  2 0  2 2  3 0  3 2  4 0  4 2  4 4  5 0  5 2  5 4  6 0  6 2  6 4  6 6
:FER gutzwiller fermi energy   0.56304
:EORB         -0.273058563
:SUM sum of gutz band energies        -12.506894999

:CHA001: total charge inside sphere   1 =     9.464414
:PCS001: partial charges sphere =  1 s,p,d,f,px,py,pz,d-z2,d-x2y2,d-xy,d-xz,d-yz 
:QTL001: 1.9421 5.0358 0.5281 1.9583 1.6752 1.6766 1.6839 0.0985 0.0997 0.1150 0.0997 0.1151

                      vxx         vyy         vzz       up to r

:VZZ001:             4.52195     2.72548    -7.24744       2.300

:CHA  : total charge inside unit cell =      13.000000

------- case.scfc --------

        1.ATOM      Pr1                  14 CORE STATES
       CORE-FORCE in mRy/a.u. = |F|      Fx             Fy             Fz
:FCO001:   1.ATOM    442.818615968924      0.000000000000      0.000000000000    442.818615968924

:1S 001: 1S               -3067.071014201 Ry
:2S 001: 2S                -492.824267358 Ry
:2PP001: 2P*               -465.923382566 Ry
:2P 001: 2P                -430.525902039 Ry
:3S 001: 3S                -105.914024748 Ry
:3PP001: 3P*                -94.451871326 Ry
:3P 001: 3P                 -87.444045295 Ry
:3DD001: 3D*                -67.371114464 Ry
:3D 001: 3D                 -65.859549453 Ry
:4S 001: 4S                 -20.592976344 Ry
:4PP001: 4P*                -16.299864440 Ry
:4P 001: 4P                 -14.772620278 Ry
:4DD001: 4D*                 -7.705781832 Ry
:4D 001: 4D                  -7.436422901 Ry

------- case.scfm --------
:CINT001 Core Integral Atom   1   45.998494

       DENSITY AT NUCLEUS
        JATOM        VALENCE       SEMI-CORE          CORE           TOTAL
:RTO001:   1      649.090393        0.000000   656824.295025   657473.385418
     
       CHARGES OF NEW CHARGE DENSITY
:NTO   : INTERSTITIAL CHARGE =     7.071574
:NPC   : PW Pseudocharge     =    16.926745
:NTO001: CHARGE SPHERE  1    =    55.462907

:NEC01: NUCLEAR AND ELECTRONIC CHARGE    118.00000   117.99739
     
       CHARGES OF OLD CHARGE DENSITY
:OTO   : INTERSTITIAL CHARGE =     7.043176
:OPC   : PW Pseudocharge     =    16.922991
:OTO001: CHARGE SPHERE  1    =    55.478412

:NEC02: NUCLEAR AND ELECTRONIC CHARGE    118.00000   118.00000
     
       CONVERGENCE TEST
:DTO001: DIFFERENCE IN SPHERE  1 =  0.0249039

:DIS  :  CHARGE DISTANCE       ( 0.0249039 for atom    1 spin 1)      0.0249039
 PW Mixed is          544
 
******************************************************
* MULTISECANT MIXING VER9 RELEASE 10.4.0              *
* Standard Mode with controls                        *
* Fixed density scale                                *
* Regularization       1.000E-04                     *
* Trust Upper Limit    5.000E+00                     *
* Max Number of Memory Steps    8                    *
******************************************************
 
:INFO : Forcing a restart
:PWTMP   4.3254E+02  1.9467E+02  5.3447E+02
:PLANE:  PW TOTAL      4.4093 DISTAN   3.98E-03  9.03E-02 %
:CHARG:  CLM/ATOM   1381.9525 DISTAN   3.64E-02  2.63E-03 %
 
Step History
        DMIX         DMIXT        Red     Pred      Trust     Lambda    MagRel    MagAbs     Beta
  1   3.5000E-02   3.5000E-02 -1.00E+00  1.00E+00 -1.00E+01  1.00E+00  3.50E-02  3.50E-02  1.00E+00
:INFO :  Note, Pratt in use
:TRUST:  Step 2.25E-01  Charge 7.50E-02 (e) CTO  2.50E-01 (e) PW  3.50E-01 (e)
:DIRM :  MEMORY  0/ 8 SCALE   1.000
Performing Pseudo Compensation
Final Pseudo Compensation Rescaling     1.00000E+00
:MIX  :   PRATT  REGULARIZATION:  1.00E-04 GREED: 0.15000                  
     
       CHARGES OF MIXED CHARGE DENSITY
:CTO   : INTERSTITIAL CHARGE =     7.047827
:CPC   : PW Pseudocharge     =    16.926893
:CTO001: CHARGE SPHERE  1    =    55.476086

:NEC03: NUCLEAR AND ELECTRONIC CHARGE    118.00000   118.00000

PW CHANGE     H    K    L      Current       Change    Residue
:PTO001:      0    0    0  4.48571712E-02  1.600E-05  7.674E-05
:PTO003:      0    2    0  1.29002222E-02  3.478E-07 -1.002E-05
:PTO004:     -1    1    0  6.44485736E-02  1.143E-05  1.145E-05
:PTO005:      0    2   -1 -7.53673055E-02 -1.219E-05 -4.917E-06
:PTO006:      0    0   -2 -3.90256445E-02 -8.357E-06 -1.603E-05
:PTO007:     -1    1   -1 -8.27526218E-02 -1.769E-05 -3.074E-05
:PTO008:      0    2   -2 -1.40336193E-02 -2.195E-06  1.196E-06
:PTO009:     -1    1   -2 -7.24741864E-02 -1.212E-05  1.327E-06
:PTO011:     -1    3    0 -1.22237492E-02 -4.136E-06 -1.337E-05
:PTO012:     -1    3   -1 -5.57025523E-02 -9.465E-06  2.711E-06
:PTO013:      0    4    0 -1.04448532E-02 -2.281E-06 -2.549E-06
:PTO014:      0    2   -3  2.37110497E-02  4.118E-06 -1.112E-06

:ENE  : ********** TOTAL ENERGY IN Ry =       -36944.21944585

       TOTAL FORCE IN mRy/a.u. = |F|     Fx             Fy             Fz     with/without FOR in case.in2
:FOR001:   1.ATOM         18.661          0.000          0.000        -18.661 partial forces
       TOTAL FORCE WITH RESPECT TO GLOBAL CARTESIAN COORDINATES:
:FCA001:   1.ATOM                         0.000        -18.661          0.000 partial forces
       TOTAL FORCE WITH RESPECT TO THE GLOBAL COORDINATE SYSTEM:
:FGL001:   1.ATOM                 0.000000000   -18.660963231     0.000000000 partial forces

------- case.scf0 --------
 Flat Integration
 New Mode for Coulomb Integral
 Consistent 3/8+Simpson combinations
 Extension of core to zero
 LDM version in phi
 Fifth-order quadrature in outwin


            ---------
:ITE061: 61. ITERATION
            ---------

:NATO :    1 INDEPENDENT AND    2 TOTAL ATOMS IN UNITCELL
       SUBSTANCE: aU                                                          

       LATTICE                      = CXY 
:POT  : POTENTIAL OPTION EX_LDA EC_LDA VX_LDA VC_LDA
:LAT  : LATTICE CONSTANTS=  6.69940 13.59477 11.73665    1.571    1.571    1.571
:VOL  : UNIT CELL VOLUME =     534.46794
       MODE OF CALCULATION IS       = RELA
       NON-SPINPOLARIZED CALCULATION
:IFFT  : FFT-parameters:   54  108   96 Factor: 2.00


   CONVERGENCE PARAMETER FOR PSEUDOCHARGE: NCON=  9
   MAXIMAL VALUE OF RMT(JATOM)*ABSK(NKK) : RK  =27.59996


:VKCOUL :  VK-COUL convergence: 0.813E-07
       ATOMNUMBER=  1 Pr1        VCOUL-ZERO = -0.31950E-01
:EFG001:                        EFG         =    -7.10117   *10**21  V / m**2
                               V20  TOT/SRF=    -6.14979    -0.02056
                               V22  TOT/SRF=     0.88779     0.00291
                               V22M TOT/SRF=     0.00000     0.00000
                               V21  TOT/SRF=     0.00000     0.00000
                               V21M TOT/SRF=     0.00000     0.00000

              4.43837    0.00000    0.00000        4.43837    0.00000    0.00000
              0.00000    2.66279    0.00000        0.00000    2.66279    0.00000
              0.00000    0.00000   -7.10117        0.00000    0.00000   -7.10117

         MAIN DIRECTIONS OF THE EFG   1.0000  0.0000  0.0000
                                      0.0000  1.0000  0.0000
                                      0.0000  0.0000  1.0000
:ANG001:  ANGLE WITH OLD X-AXIS =         0.0

:ETA001:                         ASYMM. ETA =     0.25004


     HELLMANN-FEYNMAN-FORCE IN mRy/a.u. = |F|  Fx       Fy             Fz
:FHF001:   1.ATOM    458.393767657533      0.000000000000      0.000000000000   -458.393767657533

:FIT001: LUSE= 13 SIGMA OF V-XC FIT FOR ATOM  1  0.8083361E-05
:FIT001: LUSE= 13 SIGMA OF V-XC FIT FOR ATOM  1  0.8083361E-05
:DEN  : DENSITY INTEGRAL  =        -14136.55457019   (Ry)
       ELS_POTENTIAL_AT Z=0 and Z=0.5:   0.66920   0.66920
       ELS_POTENTIAL_AT Y=0 and Y=0.5:   0.07664   0.07664
:VZERO:v0,v0c,v0x   0.12057   0.66920  -0.54863 v5,v5c,v5x   0.12057   0.66920  -0.54863
:VZERY:v0,v0c,v0x  -0.65728   0.07664  -0.73392 v5,v5c,v5x  -0.65728   0.07664  -0.73392
:VZERX:v0,v0c,v0x  -1.07911  -0.37064  -0.70847 v5,v5c,v5x  -1.07911  -0.37064  -0.70847

------- case.scf1 --------
:LMAX-WF:   10   Non-Spherical LMAX:   4

          ATOMIC SPHERE DEPENDENT PARAMETERS FOR ATOM  Pr1       
:e__0001: OVERALL ENERGY PARAMETER IS    0.3475
          OVERALL BASIS SET ON ATOM IS LAPW
:E0_0001: E( 0)=    0.3475
             APW+lo
:E0_0001: E( 0)=   -2.1444   E(BOTTOM)=   -2.779   E(TOP)=   -1.510  4  5   161
             LOCAL ORBITAL
:E1_0001: E( 1)=    0.7475
             APW+lo
:E1_0001: E( 1)=   -0.6739   E(BOTTOM)=   -1.630   E(TOP)=    0.282  3  4   200
             LOCAL ORBITAL
:E3_0001: E( 3)=    0.5086   E(BOTTOM)=    0.301   E(TOP)=    0.716  0  1   125
             APW+lo
:E2_0001: E( 2)=    0.3475   E(BOTTOM)=    0.112   E(TOP)= -200.000  2 -1    98
             APW+lo

       K=   0.06250   0.00000   0.06250            1
:RKM  : MATRIX SIZE   485LOs:  40  RKM= 8.49  WEIGHT= 4.00  PGR:    
       EIGENVALUES ARE:
:EIG00001:      -2.1098826   -2.1006490   -0.8209412   -0.7647382   -0.7521504
:EIG00006:      -0.7478210   -0.7429055   -0.7426503    0.3116882    0.4546907
:EIG00011:       0.5254832    0.5257698    0.5257726    0.5288700    0.5306870
:EIG00016:       0.5382962    0.5422690    0.5426917    0.5449832    0.5467559
:EIG00021:       0.5502765    0.5529718    0.5536682    0.5563076    0.6041812
:EIG00026:       0.6188598    0.6833929    0.7056556    0.7161611    0.7571004
:EIG00031:       0.7721119    0.8425690    0.8857548    0.9221827    1.1776152
:EIG00036:       1.2220140    1.3099087    1.3131192    1.4585537    1.5097275
:EIG00041:       1.5495680    1.6518653    1.7138111    1.7336439    1.8097120
:EIG00046:       1.8827376    1.8913230    1.9306620    1.9962479    2.0729241
 
:EIG00051:       2.1237200    2.1784391    2.1942416    2.2486123    2.2716389
:EIG00056:       2.3559402    2.3988804    2.4059852    2.5024319    2.5389312
:EIG00061:       2.6023013    2.6301829    2.7503511    2.8383522    2.8465885
:EIG00066:       2.9381259    2.9827200    2.9970334    2.9995390    3.0920795
:EIG00071:       3.0976609    3.1454283    3.1695536    3.2056955    3.2218076
:EIG00076:       3.2611885    3.3006643    3.3333740    3.3613011    3.3829740
:EIG00081:       3.4223231    3.4672853    3.4745439    3.5186144    3.5681792
:EIG00086:       3.5969251    3.6713530    3.6776522    3.7083649    3.7191329
:EIG00091:       3.7533330    3.7717285    3.8202138    3.8216787    3.8283749
:EIG00096:       3.8887184    3.9147681    3.9175509    3.9342394    4.0141678
 
:EIG00101:       4.0677585    4.1963095    4.1996770    4.2565582    4.2954374
:EIG00106:       4.3081852    4.3440570    4.3462722    4.3960967    4.4262816
:EIG00111:       4.4982405    4.5070271    4.5422158    4.5458631    4.5913613
:EIG00116:       4.6460201    4.7191555    4.7474905    4.7575547    4.7850530
:EIG00121:       4.8102043    4.9006979    4.9119291    4.9461557    4.9945519
:EIG00126:       5.0702158    5.0719685    5.1154729    5.1629300    5.1868518
:EIG00131:       5.2049057    5.2574611    5.2913306    5.3034727    5.3201063
:EIG00136:       5.3792122    5.4221449    5.4698849    5.4840303    5.5130165
:EIG00141:       5.5249969    5.5317393    5.5800230    5.6303756    5.6490738
:EIG00146:       5.6675186    5.6855265    5.6890896    5.6933037    5.7932084
 
:EIG00151:       5.8090172    5.8319248    5.9090549    5.9333385    5.9568099
:EIG00156:       6.0651819    6.1441353    6.1690691    6.2033302    6.2174151
:EIG00161:       6.2529982    6.3212431    6.3630109    6.3741796    6.3746114
:EIG00166:       6.4485018    6.4774277    6.4860619    6.5141779    6.5406689
:EIG00171:       6.5581252    6.6254369    6.6555193    6.6622214    6.7210039
:EIG00176:       6.7224401    6.7567263    6.7907342    6.8083924    6.8355516
:EIG00181:       6.9024768    6.9207403    6.9216289    6.9469879    6.9957674
:EIG00186:       7.0012620    7.0070934    7.0967503    7.1069446    7.1128083
:EIG00191:       7.1608759    7.1742132    7.2244520    7.2362343    7.2659834
:EIG00196:       7.2776889    7.2882794    7.3148792    7.3241374    7.3723720
 
:EIG00201:       7.3847294    7.4421535    7.4481847    7.4624642    7.5211489
:EIG00206:       7.5245907    7.5379686    7.5909941    7.6228176    7.6497881
:EIG00211:       7.6560069    7.7037230    7.7081956    7.7259266    7.7359325
:EIG00216:       7.7782491    7.7822621    7.7845511    7.8101339    7.8523722
:EIG00221:       7.8742660    7.9193078    7.9277054    7.9339716    7.9413454
:EIG00226:       7.9530756    7.9973721    7.9988374    8.0370000
       ********************************************************

:KPT   :      NUMBER OF K-POINTS:   288

------- case.scfso --------
   0.0   0.0 angle (M,z), angle (M,x) deg
 
        SPIN-ORBIT EIGENVALUES:
     K=   0.06250   0.00000   0.06250            1
      MATRIX SIZE=  458   WEIGHT= 4.00
     EIGENVALUES ARE:
          -2.1098827   -2.1098827   -2.1006490   -2.1006490   -0.9218765
          -0.9218765   -0.8948028   -0.8948028   -0.7327640   -0.7327640
          -0.6844789   -0.6844789   -0.6819907   -0.6819907   -0.6760745
          -0.6760745    0.3117141    0.3117141    0.4545431    0.4545431
           0.5169438    0.5169438    0.5190832    0.5190832    0.5203470
           0.5203471    0.5215031    0.5215031    0.5231613    0.5231613
           0.5253269    0.5253269    0.5443615    0.5443615    0.5494817
           0.5494817    0.5514926    0.5514926    0.5528078    0.5528078

           0.5560493    0.5560493    0.5593097    0.5593097    0.5602745
           0.5602745    0.5631258    0.5631258    0.6044285    0.6044285
           0.6185955    0.6185955    0.6830365    0.6830366    0.7038674
           0.7038674    0.7178268    0.7178268    0.7576322    0.7576322
           0.7720987    0.7720987    0.8423715    0.8423715    0.8860647
           0.8860647    0.9223236    0.9223236    1.1775998    1.1775998
           1.2222310    1.2222310    1.3098561    1.3098561    1.3131733
           1.3131733    1.4580611    1.4580611    1.5090742    1.5090742

           1.5495351    1.5495351    1.6496519    1.6496519    1.7128910
           1.7128910    1.7346868    1.7346868    1.8102845    1.8102845
           1.8817725    1.8817725    1.8891583    1.8891583    1.9324851
           1.9324851    1.9966947    1.9966947    2.0724433    2.0724433
           2.1233734    2.1233734    2.1758488    2.1758488    2.1960969
           2.1960969    2.2499418    2.2499418    2.2725835    2.2725835
           2.3557812    2.3557812    2.3982287    2.3982287    2.4071428
           2.4071428    2.5023945    2.5023945    2.5386524    2.5386524

           2.6056194    2.6056194    2.6304331    2.6304331    2.7502735
           2.7502735    2.8384283    2.8384283    2.8467257    2.8467257
           2.9378758    2.9378758    2.9826425    2.9826425    2.9969516
           2.9969516    2.9998902    2.9998902    3.0922049    3.0922049
           3.0977925    3.0977925    3.1454703    3.1454703    3.1696027
           3.1696027    3.2051298    3.2051298    3.2226246    3.2226246
           3.2613353    3.2613353    3.3019277    3.3019277    3.3334496
           3.3334496    3.3613252    3.3613252    3.3833683    3.3833683

           3.4225309    3.4225309    3.4673000    3.4673000    3.4746513
           3.4746513    3.5187739    3.5187739    3.5682105    3.5682105
           3.5970416    3.5970416    3.6714576    3.6714576    3.6776427
           3.6776427    3.7083526    3.7083526    3.7191829    3.7191829
           3.7533458    3.7533458    3.7717749    3.7717749    3.8195839
           3.8195839    3.8219482    3.8219482    3.8284762    3.8284762
           3.8887173    3.8887173    3.9137591    3.9137591    3.9187063
           3.9187063    3.9343153    3.9343153    4.0142059    4.0142059

           4.0675853    4.0675853    4.1935666    4.1935666    4.2017742
           4.2017742    4.2574092    4.2574092    4.2953434    4.2953434
           4.3083711    4.3083711    4.3435185    4.3435185    4.3477262
           4.3477262    4.3962957    4.3962957    4.4263955    4.4263955
           4.4981823    4.4981823
       ********************************************************

------- case.scf2 --------
:GMA  : POTENTIAL AND CHARGE CUT-OFF  12.00 Ry**.5




:POS001: at.nr.  -1 position = 0.00000 0.89750 0.25000  multiplicity =  2

       lmmax 16
       lm=   0 0  1 0  2 0  2 2  3 0  3 2  4 0  4 2  4 4  5 0  5 2  5 4  6 0  6 2  6 4  6 6
:FER gutzwiller fermi energy   0.56265
:EORB         -0.283324803
:SUM sum of gutz band energies        -12.530884406

:CHA001: total charge inside sphere   1 =     9.469132
:PCS001: partial charges sphere =  1 s,p,d,f,px,py,pz,d-z2,d-x2y2,d-xy,d-xz,d-yz 
:QTL001: 1.9423 5.0367 0.5280 1.9620 1.6755 1.6769 1.6842 0.0983 0.0999 0.1151 0.0997 0.1151

                      vxx         vyy         vzz       up to r

:VZZ001:             4.49780     2.69260    -7.19040       2.300

:CHA  : total charge inside unit cell =      12.999997

------- case.scfc --------

        1.ATOM      Pr1                  14 CORE STATES
       CORE-FORCE in mRy/a.u. = |F|      Fx             Fy             Fz
:FCO001:   1.ATOM    439.111016806858      0.000000000000      0.000000000000    439.111016806858

:1S 001: 1S               -3067.076271299 Ry
:2S 001: 2S                -492.829546559 Ry
:2PP001: 2P*               -465.928656673 Ry
:2P 001: 2P                -430.531177899 Ry
:3S 001: 3S                -105.919218068 Ry
:3PP001: 3P*                -94.457073859 Ry
:3P 001: 3P                 -87.449229490 Ry
:3DD001: 3D*                -67.376330695 Ry
:3D 001: 3D                 -65.864761326 Ry
:4S 001: 4S                 -20.597144691 Ry
:4PP001: 4P*                -16.303966731 Ry
:4P 001: 4P                 -14.776620921 Ry
:4DD001: 4D*                 -7.709600186 Ry
:4D 001: 4D                  -7.440206361 Ry

------- case.scfm --------
:CINT001 Core Integral Atom   1   45.998496

       DENSITY AT NUCLEUS
        JATOM        VALENCE       SEMI-CORE          CORE           TOTAL
:RTO001:   1      649.315375        0.000000   656824.505261   657473.820636
     
       CHARGES OF NEW CHARGE DENSITY
:NTO   : INTERSTITIAL CHARGE =     7.062305
:NPC   : PW Pseudocharge     =    16.926304
:NTO001: CHARGE SPHERE  1    =    55.467628

:NEC01: NUCLEAR AND ELECTRONIC CHARGE    118.00000   117.99756
     
       CHARGES OF OLD CHARGE DENSITY
:OTO   : INTERSTITIAL CHARGE =     7.047827
:OPC   : PW Pseudocharge     =    16.926893
:OTO001: CHARGE SPHERE  1    =    55.476086

:NEC02: NUCLEAR AND ELECTRONIC CHARGE    118.00000   118.00000
     
       CONVERGENCE TEST
:DTO001: DIFFERENCE IN SPHERE  1 =  0.0141237

:DIS  :  CHARGE DISTANCE       ( 0.0141237 for atom    1 spin 1)      0.0141237
 PW Mixed is          544
 
******************************************************
* MULTISECANT MIXING VER9 RELEASE 10.4.0              *
* Standard Mode with controls                        *
* Fixed density scale                                *
* Restart from converged density                     *
* Regularization       1.000E-04                     *
* Trust Upper Limit    5.000E+00                     *
* Max Number of Memory Steps    8                    *
******************************************************
 
:INFO : Forcing a restart
:PWTMP   4.3254E+02  1.9467E+02  5.3447E+02
:PLANE:  PW TOTAL      4.4103 DISTAN   2.24E-03  5.07E-02 %
:CHARG:  CLM/ATOM   1381.9522 DISTAN   2.09E-02  1.51E-03 %
 
Step History
        DMIX         DMIXT        Red     Pred      Trust     Lambda    MagRel    MagAbs     Beta
  1   3.5000E-02   3.5000E-02 -1.00E+00  1.00E+00 -1.00E+01  1.00E+00  3.50E-02  3.50E-02  1.00E+00
  2   1.5000E-01   1.5000E-01 -1.00E+00  1.00E+00 -1.00E+01  1.00E+00  1.50E-01  5.49E-03  1.00E+00
:JACOBIANS    2.768E-03   1.470E-01
  
:NORMS:  1/Froebius, Min, Max, Used   0.1005E+00  0.1005E+00  0.2950E+00  0.1005E+00
:INFO :  Number of Memory Steps    1 Skipping    0
:PREDicted Charge, CTotal, PW Trust    4.551E-03   9.102E-03   6.096E-03
:PREDicted DMix, Beta, BLim   5.0000E-02  1.9569E+00  1.7709E+00

Eigenvalues, unscaled except for SY+YY
   #     SY Real        SY Imag          SS             YY         SY+YY Real      SY+YY Imag
   1   2.949825E-01   0.000000E+00   1.005403E-01   1.000000E+00   1.294982E+00   0.000000E+00
 
:BLIM :  VZERO Control Off
:TRUST:  Step 3.00E+00  Charge 7.50E-02 (e) CTO  2.50E-01 (e) PW  3.50E-01 (e)
:DIRM :  MEMORY  1/8  SCALE   1.000 RED  0.58 PRED  1.00 NEXT  0.60 
:TRAVE:  Charge 2.35E-03 (e) CTO  4.70E-03 (e) PW  3.09E-03 (e)
:DIRP :  |MSR1|= 1.069E-03 |PRATT|= 2.237E-03 ANGLE=  29.4 DEGREES
:DIRQ :  |MSR1|= 5.598E-03 |PRATT|= 2.093E-02 ANGLE=   8.2 DEGREES
:DIRT :  |MSR1|= 5.699E-03 |PRATT|= 2.105E-02 ANGLE=  10.2 DEGREES
:MIX  :   MSR1   REGULARIZATION:  1.00E-04 GREED: 0.07125  Newton 1.00  0.2708                
     
       CHARGES OF MIXED CHARGE DENSITY
:CTO   : INTERSTITIAL CHARGE =     7.052522
:CPC   : PW Pseudocharge     =    16.930677
:CTO001: CHARGE SPHERE  1    =    55.473739

:NEC03: NUCLEAR AND ELECTRONIC CHARGE    118.00000   118.00000

PW CHANGE     H    K    L      Current       Change    Residue
:PTO001:      0    0    0  4.48730360E-02  1.586E-05  4.149E-05
:PTO003:      0    2    0  1.29008703E-02  6.482E-07 -2.638E-06
:PTO004:     -1    1    0  6.44599837E-02  1.141E-05  9.006E-06
:PTO005:      0    2   -1 -7.53794038E-02 -1.210E-05 -5.511E-06
:PTO006:      0    0   -2 -3.90338886E-02 -8.244E-06 -9.619E-06
:PTO007:     -1    1   -1 -8.27695053E-02 -1.688E-05 -1.473E-05
:PTO008:      0    2   -2 -1.40358019E-02 -2.183E-06 -7.155E-09
:PTO009:     -1    1   -2 -7.24851857E-02 -1.100E-05  4.963E-06
:PTO011:     -1    3    0 -1.22279543E-02 -4.205E-06 -8.316E-06
:PTO012:     -1    3   -1 -5.57125696E-02 -1.002E-05 -5.561E-06
:PTO013:      0    4    0 -1.04473866E-02 -2.533E-06 -3.762E-06
:PTO014:      0    2   -3  2.37154999E-02  4.450E-06  3.114E-06

:ENE  : ********** TOTAL ENERGY IN Ry =       -36944.21957669

       TOTAL FORCE IN mRy/a.u. = |F|     Fx             Fy             Fz     with/without FOR in case.in2
:FOR001:   1.ATOM         19.283          0.000          0.000        -19.283 partial forces
       TOTAL FORCE WITH RESPECT TO GLOBAL CARTESIAN COORDINATES:
:FCA001:   1.ATOM                         0.000        -19.283          0.000 partial forces
       TOTAL FORCE WITH RESPECT TO THE GLOBAL COORDINATE SYSTEM:
:FGL001:   1.ATOM                 0.000000000   -19.282750851     0.000000000 partial forces

------- case.scf0 --------
 Flat Integration
 New Mode for Coulomb Integral
 Consistent 3/8+Simpson combinations
 Extension of core to zero
 LDM version in phi
 Fifth-order quadrature in outwin


            ---------
:ITE062: 62. ITERATION
            ---------

:NATO :    1 INDEPENDENT AND    2 TOTAL ATOMS IN UNITCELL
       SUBSTANCE: aU                                                          

       LATTICE                      = CXY 
:POT  : POTENTIAL OPTION EX_LDA EC_LDA VX_LDA VC_LDA
:LAT  : LATTICE CONSTANTS=  6.69940 13.59477 11.73665    1.571    1.571    1.571
:VOL  : UNIT CELL VOLUME =     534.46794
       MODE OF CALCULATION IS       = RELA
       NON-SPINPOLARIZED CALCULATION
:IFFT  : FFT-parameters:   54  108   96 Factor: 2.00


   CONVERGENCE PARAMETER FOR PSEUDOCHARGE: NCON=  9
   MAXIMAL VALUE OF RMT(JATOM)*ABSK(NKK) : RK  =27.59996


:VKCOUL :  VK-COUL convergence: 0.811E-07
       ATOMNUMBER=  1 Pr1        VCOUL-ZERO = -0.32120E-01
:EFG001:                        EFG         =    -7.13217   *10**21  V / m**2
                               V20  TOT/SRF=    -6.17664    -0.02070
                               V22  TOT/SRF=     0.89157     0.00290
                               V22M TOT/SRF=     0.00000     0.00000
                               V21  TOT/SRF=     0.00000     0.00000
                               V21M TOT/SRF=     0.00000     0.00000

              4.45766    0.00000    0.00000        4.45766    0.00000    0.00000
              0.00000    2.67451    0.00000        0.00000    2.67451    0.00000
              0.00000    0.00000   -7.13217        0.00000    0.00000   -7.13217

         MAIN DIRECTIONS OF THE EFG   1.0000  0.0000  0.0000
                                      0.0000  1.0000  0.0000
                                      0.0000  0.0000  1.0000
:ANG001:  ANGLE WITH OLD X-AXIS =         0.0

:ETA001:                         ASYMM. ETA =     0.25001


     HELLMANN-FEYNMAN-FORCE IN mRy/a.u. = |F|  Fx       Fy             Fz
:FHF001:   1.ATOM    453.322607727877      0.000000000000      0.000000000000   -453.322607727877

:FIT001: LUSE= 13 SIGMA OF V-XC FIT FOR ATOM  1  0.8043126E-05
:FIT001: LUSE= 13 SIGMA OF V-XC FIT FOR ATOM  1  0.8043126E-05
:DEN  : DENSITY INTEGRAL  =        -14136.09935054   (Ry)
       ELS_POTENTIAL_AT Z=0 and Z=0.5:   0.66956   0.66956
       ELS_POTENTIAL_AT Y=0 and Y=0.5:   0.07654   0.07654
:VZERO:v0,v0c,v0x   0.12080   0.66956  -0.54876 v5,v5c,v5x   0.12080   0.66956  -0.54876
:VZERY:v0,v0c,v0x  -0.65748   0.07654  -0.73401 v5,v5c,v5x  -0.65748   0.07654  -0.73401
:VZERX:v0,v0c,v0x  -1.07938  -0.37078  -0.70860 v5,v5c,v5x  -1.07938  -0.37078  -0.70860

------- case.scf1 --------
:LMAX-WF:   10   Non-Spherical LMAX:   4

          ATOMIC SPHERE DEPENDENT PARAMETERS FOR ATOM  Pr1       
:e__0001: OVERALL ENERGY PARAMETER IS    0.3475
          OVERALL BASIS SET ON ATOM IS LAPW
:E0_0001: E( 0)=    0.3475
             APW+lo
:E0_0001: E( 0)=   -2.1461   E(BOTTOM)=   -2.780   E(TOP)=   -1.512  4  5   170
             LOCAL ORBITAL
:E1_0001: E( 1)=    0.7475
             APW+lo
:E1_0001: E( 1)=   -0.6754   E(BOTTOM)=   -1.631   E(TOP)=    0.280  3  4   198
             LOCAL ORBITAL
:E3_0001: E( 3)=    0.5057   E(BOTTOM)=    0.299   E(TOP)=    0.713  0  1   117
             APW+lo
:E2_0001: E( 2)=    0.3475   E(BOTTOM)=    0.111   E(TOP)= -200.000  2 -1    95
             APW+lo

       K=   0.06250   0.00000   0.06250            1
:RKM  : MATRIX SIZE   485LOs:  40  RKM= 8.49  WEIGHT= 4.00  PGR:    
       EIGENVALUES ARE:
:EIG00001:      -2.1115104   -2.1022950   -0.8220996   -0.7659595   -0.7533942
:EIG00006:      -0.7491261   -0.7442053   -0.7439644    0.3116722    0.4545124
:EIG00011:       0.5228301    0.5230843    0.5231046    0.5261634    0.5279878
:EIG00016:       0.5354133    0.5393681    0.5398117    0.5420879    0.5439152
:EIG00021:       0.5473396    0.5500748    0.5507487    0.5533823    0.6034035
:EIG00026:       0.6183570    0.6829620    0.7052172    0.7157089    0.7566617
:EIG00031:       0.7716274    0.8420362    0.8851421    0.9215247    1.1770685
:EIG00036:       1.2218200    1.3097266    1.3129865    1.4584484    1.5096270
:EIG00041:       1.5493610    1.6516552    1.7135685    1.7334038    1.8093218
:EIG00046:       1.8825066    1.8912089    1.9304095    1.9960619    2.0725486
 
:EIG00051:       2.1234740    2.1782221    2.1940692    2.2482654    2.2713517
:EIG00056:       2.3557877    2.3984041    2.4058956    2.5022268    2.5386262
:EIG00061:       2.6019396    2.6300635    2.7500893    2.8381429    2.8465734
:EIG00066:       2.9380007    2.9824378    2.9967152    2.9994196    3.0919618
:EIG00071:       3.0976763    3.1453542    3.1694567    3.2055388    3.2217019
:EIG00076:       3.2609929    3.3006035    3.3332490    3.3612471    3.3828372
:EIG00081:       3.4222171    3.4673451    3.4744942    3.5184631    3.5681667
:EIG00086:       3.5969742    3.6713497    3.6777298    3.7084061    3.7190478
:EIG00091:       3.7533782    3.7716658    3.8200451    3.8217234    3.8281949
:EIG00096:       3.8887441    3.9146949    3.9175731    3.9342958    4.0142409
 
:EIG00101:       4.0676117    4.1963019    4.1995228    4.2565576    4.2954413
:EIG00106:       4.3081815    4.3440536    4.3462712    4.3960782    4.4263102
:EIG00111:       4.4981093    4.5070998    4.5420876    4.5460116    4.5912827
:EIG00116:       4.6459041    4.7189490    4.7475327    4.7573221    4.7848463
:EIG00121:       4.8101911    4.9006515    4.9117588    4.9461057    4.9945694
:EIG00126:       5.0700435    5.0719002    5.1153801    5.1628892    5.1867369
:EIG00131:       5.2049310    5.2574356    5.2912722    5.3034712    5.3200414
:EIG00136:       5.3792341    5.4221267    5.4699187    5.4839196    5.5129902
:EIG00141:       5.5249139    5.5316440    5.5799556    5.6304877    5.6488550
:EIG00146:       5.6675344    5.6855949    5.6891740    5.6932470    5.7932550
 
:EIG00151:       5.8088244    5.8320059    5.9090701    5.9333897    5.9567061
:EIG00156:       6.0652176    6.1441130    6.1689995    6.2032552    6.2174196
:EIG00161:       6.2528543    6.3213014    6.3629901    6.3740474    6.3745241
:EIG00166:       6.4484371    6.4774139    6.4860260    6.5141723    6.5406151
:EIG00171:       6.5580308    6.6253774    6.6554407    6.6620793    6.7209106
:EIG00176:       6.7221899    6.7566355    6.7905382    6.8083236    6.8354248
:EIG00181:       6.9023526    6.9206134    6.9216113    6.9470435    6.9957679
:EIG00186:       7.0011008    7.0071269    7.0966602    7.1068706    7.1127337
:EIG00191:       7.1608855    7.1742085    7.2244240    7.2362311    7.2659046
:EIG00196:       7.2777109    7.2882450    7.3148597    7.3241067    7.3723243
 
:EIG00201:       7.3848117    7.4421962    7.4482573    7.4624066    7.5210307
:EIG00206:       7.5245120    7.5379416    7.5910181    7.6228071    7.6497564
:EIG00211:       7.6560214    7.7036979    7.7081769    7.7259041    7.7359217
:EIG00216:       7.7782396    7.7822429    7.7845247    7.8101622    7.8524606
:EIG00221:       7.8743529    7.9193751    7.9277569    7.9340159    7.9414201
:EIG00226:       7.9531016    7.9974145    7.9988820    8.0370567
       ********************************************************

:KPT   :      NUMBER OF K-POINTS:   288

------- case.scfso --------
   0.0   0.0 angle (M,z), angle (M,x) deg
 
        SPIN-ORBIT EIGENVALUES:
     K=   0.06250   0.00000   0.06250            1
      MATRIX SIZE=  458   WEIGHT= 4.00
     EIGENVALUES ARE:
          -2.1115106   -2.1115106   -2.1022950   -2.1022950   -0.9231735
          -0.9231735   -0.8961620   -0.8961620   -0.7339208   -0.7339208
          -0.6857181   -0.6857181   -0.6832229   -0.6832229   -0.6773361
          -0.6773361    0.3116981    0.3116981    0.4543588    0.4543589
           0.5142250    0.5142250    0.5163110    0.5163110    0.5175755
           0.5175755    0.5187331    0.5187331    0.5203524    0.5203524
           0.5224172    0.5224172    0.5417121    0.5417121    0.5466565
           0.5466565    0.5486195    0.5486195    0.5499824    0.5499825

           0.5532113    0.5532113    0.5564347    0.5564347    0.5574108
           0.5574108    0.5602235    0.5602235    0.6036015    0.6036015
           0.6180763    0.6180763    0.6825794    0.6825796    0.7034335
           0.7034336    0.7173778    0.7173779    0.7571948    0.7571948
           0.7716138    0.7716138    0.8418380    0.8418380    0.8854533
           0.8854533    0.9216665    0.9216665    1.1770540    1.1770540
           1.2220361    1.2220361    1.3096745    1.3096745    1.3130394
           1.3130394    1.4579547    1.4579547    1.5089728    1.5089728

           1.5493284    1.5493284    1.6494379    1.6494379    1.7126510
           1.7126510    1.7344483    1.7344483    1.8098958    1.8098958
           1.8815538    1.8815538    1.8890208    1.8890208    1.9322425
           1.9322425    1.9965039    1.9965039    2.0720715    2.0720715
           2.1231270    2.1231270    2.1756370    2.1756370    2.1959182
           2.1959182    2.2496111    2.2496111    2.2722875    2.2722875
           2.3556220    2.3556220    2.3978118    2.3978118    2.4069997
           2.4069997    2.5021876    2.5021876    2.5383461    2.5383461

           2.6052624    2.6052624    2.6303111    2.6303111    2.7500120
           2.7500120    2.8382208    2.8382208    2.8467090    2.8467090
           2.9377485    2.9377485    2.9823623    2.9823623    2.9966405
           2.9966405    2.9997648    2.9997648    3.0920891    3.0920891
           3.0978060    3.0978060    3.1453964    3.1453964    3.1695056
           3.1695056    3.2049761    3.2049761    3.2225156    3.2225156
           3.2611397    3.2611397    3.3018664    3.3018664    3.3333247
           3.3333247    3.3612703    3.3612703    3.3832327    3.3832327

           3.4224251    3.4224251    3.4673597    3.4673597    3.4746010
           3.4746010    3.5186228    3.5186228    3.5681979    3.5681979
           3.5970908    3.5970908    3.6714543    3.6714543    3.6777201
           3.6777201    3.7083937    3.7083937    3.7190979    3.7190979
           3.7533908    3.7533908    3.7717120    3.7717120    3.8194412
           3.8194412    3.8219651    3.8219651    3.8282994    3.8282994
           3.8887428    3.8887428    3.9137066    3.9137066    3.9187067
           3.9187067    3.9343713    3.9343713    4.0142789    4.0142789

           4.0674391    4.0674391    4.1935121    4.1935121    4.2016716
           4.2016716    4.2574055    4.2574055    4.2953455    4.2953455
           4.3083676    4.3083676    4.3435204    4.3435204    4.3477212
           4.3477212    4.3962768    4.3962768    4.4264238    4.4264238
           4.4980571    4.4980571
       ********************************************************

------- case.scf2 --------
:GMA  : POTENTIAL AND CHARGE CUT-OFF  12.00 Ry**.5




:POS001: at.nr.  -1 position = 0.00000 0.89750 0.25000  multiplicity =  2

       lmmax 16
       lm=   0 0  1 0  2 0  2 2  3 0  3 2  4 0  4 2  4 4  5 0  5 2  5 4  6 0  6 2  6 4  6 6
:FER gutzwiller fermi energy   0.56222
:EORB         -0.293501916
:SUM sum of gutz band energies        -12.555339453

:CHA001: total charge inside sphere   1 =     9.474262
:PCS001: partial charges sphere =  1 s,p,d,f,px,py,pz,d-z2,d-x2y2,d-xy,d-xz,d-yz 
:QTL001: 1.9424 5.0377 0.5277 1.9664 1.6759 1.6773 1.6845 0.0981 0.0999 0.1150 0.0996 0.1149

                      vxx         vyy         vzz       up to r

:VZZ001:             4.46487     2.65658    -7.12145       2.300

:CHA  : total charge inside unit cell =      13.000000

------- case.scfc --------

        1.ATOM      Pr1                  14 CORE STATES
       CORE-FORCE in mRy/a.u. = |F|      Fx             Fy             Fz
:FCO001:   1.ATOM    433.587751227526      0.000000000000      0.000000000000    433.587751227526

:1S 001: 1S               -3067.081152114 Ry
:2S 001: 2S                -492.834525074 Ry
:2PP001: 2P*               -465.933613306 Ry
:2P 001: 2P                -430.536142572 Ry
:3S 001: 3S                -105.924257367 Ry
:3PP001: 3P*                -94.462114354 Ry
:3P 001: 3P                 -87.454259720 Ry
:3DD001: 3D*                -67.381371558 Ry
:3D 001: 3D                 -65.869800674 Ry
:4S 001: 4S                 -20.601292498 Ry
:4PP001: 4P*                -16.308050199 Ry
:4P 001: 4P                 -14.780607747 Ry
:4DD001: 4D*                 -7.713408809 Ry
:4D 001: 4D                  -7.443981450 Ry

------- case.scfm --------
:CINT001 Core Integral Atom   1   45.998499

       DENSITY AT NUCLEUS
        JATOM        VALENCE       SEMI-CORE          CORE           TOTAL
:RTO001:   1      649.540735        0.000000   656824.676209   657474.216944
     
       CHARGES OF NEW CHARGE DENSITY
:NTO   : INTERSTITIAL CHARGE =     7.051824
:NPC   : PW Pseudocharge     =    16.925526
:NTO001: CHARGE SPHERE  1    =    55.472761

:NEC01: NUCLEAR AND ELECTRONIC CHARGE    118.00000   117.99735
     
       CHARGES OF OLD CHARGE DENSITY
:OTO   : INTERSTITIAL CHARGE =     7.052522
:OPC   : PW Pseudocharge     =    16.930677
:OTO001: CHARGE SPHERE  1    =    55.473739

:NEC02: NUCLEAR AND ELECTRONIC CHARGE    118.00000   118.00000
     
       CONVERGENCE TEST
:DTO001: DIFFERENCE IN SPHERE  1 =  0.0076452

:DIS  :  CHARGE DISTANCE       ( 0.0076452 for atom    1 spin 1)      0.0076452
 PW Mixed is          544
 
******************************************************
* MULTISECANT MIXING VER9 RELEASE 10.4.0              *
* Standard Mode with controls                        *
* Fixed density scale                                *
* Regularization       1.000E-04                     *
* Trust Upper Limit    5.000E+00                     *
* Max Number of Memory Steps    8                    *
******************************************************
 
:PWTMP   4.3254E+02  1.9467E+02  5.3447E+02
:PLANE:  PW TOTAL      4.4113 DISTAN   1.10E-03  2.49E-02 %
:CHARG:  CLM/ATOM   1381.9524 DISTAN   1.12E-02  8.11E-04 %
 
Step History
        DMIX         DMIXT        Red     Pred      Trust     Lambda    MagRel    MagAbs     Beta
  1   3.5000E-02   3.5000E-02 -1.00E+00  1.00E+00 -1.00E+01  1.00E+00  3.50E-02  3.50E-02  1.00E+00
  2   1.5000E-01   1.5000E-01  5.75E-01  1.00E+00 -1.00E+01  1.00E+00  1.50E-01  5.49E-03  1.00E+00
  3   7.1250E-02   7.1250E-02 -1.00E+00  6.04E-01  3.00E+00  1.00E+00  2.71E-01  5.70E-03  1.00E+00
:JACOBIANS    6.287E-03   4.435E-01
  
:NORMS:  1/Froebius, Min, Max, Used   0.3144E+00  0.3142E+00  0.3853E+00  0.3191E+00
:INFO :  Number of Memory Steps    2 Skipping    0
:INFO :  SLambda=    0.5239169812  Max    0.5239169812
:PREDicted Charge, CTotal, PW Trust    1.818E-03   3.636E-03   1.971E-03
:PREDicted DMix, Beta, BLim   3.8665E-01  1.0155E+00  8.4870E-01

Eigenvalues, unscaled except for SY+YY
   #     SY Real        SY Imag          SS             YY         SY+YY Real      SY+YY Imag
   1   5.722271E-01   0.000000E+00   1.974018E-01   1.999099E+00   2.298936E+00   0.000000E+00
   2   5.194551E-04   0.000000E+00   2.691439E-04   9.010268E-04   1.135362E-03   0.000000E+00
 
:INFO :  Singular value  2.299E+00 Weight  1.000E+00 Projection -2.351E-05
:INFO :  Singular value  1.135E-03 Weight  9.699E-01 Projection  3.533E-01
:RANK :  ACTIVE   1.97/2  =  98.50 % ; YY RANK   1.95/2  =  97.65 %
 
:BLIM :  VZERO Control Off
:TRUST:  Step 4.00E+00  Charge 7.50E-02 (e) CTO  2.50E-01 (e) PW  3.50E-01 (e)
:DIRM :  MEMORY  2/8  SCALE   1.000 RED  0.54 PRED  0.60 NEXT  0.28 
:TRAVE:  Charge 1.42E-03 (e) CTO  2.85E-03 (e) PW  1.83E-03 (e)
:DIRP :  |MSR1|= 5.464E-04 |PRATT|= 1.098E-03 ANGLE=  37.2 DEGREES
:DIRQ :  |MSR1|= 5.944E-03 |PRATT|= 1.121E-02 ANGLE=  23.2 DEGREES
:DIRT :  |MSR1|= 5.969E-03 |PRATT|= 1.127E-02 ANGLE=  23.4 DEGREES
:MIX  :   MSD1   REGULARIZATION:  2.00E-04 GREED: 0.17813  Newton 1.00  0.5298                
     
       CHARGES OF MIXED CHARGE DENSITY
:CTO   : INTERSTITIAL CHARGE =     7.051527
:CPC   : PW Pseudocharge     =    16.930098
:CTO001: CHARGE SPHERE  1    =    55.474237

:NEC03: NUCLEAR AND ELECTRONIC CHARGE    118.00000   118.00000

PW CHANGE     H    K    L      Current       Change    Residue
:PTO001:      0    0    0  4.48700894E-02 -2.947E-06  5.938E-06
:PTO003:      0    2    0  1.29040904E-02  3.220E-06  5.339E-06
:PTO004:     -1    1    0  6.44624915E-02  2.508E-06  9.855E-06
:PTO005:      0    2   -1 -7.53826470E-02 -3.243E-06 -1.062E-05
:PTO006:      0    0   -2 -3.90345205E-02 -6.319E-07 -5.263E-06
:PTO007:     -1    1   -1 -8.27656565E-02  3.849E-06 -3.040E-06
:PTO008:      0    2   -2 -1.40361024E-02 -3.005E-07 -1.820E-06
:PTO009:     -1    1   -2 -7.24797526E-02  5.433E-06  3.605E-06
:PTO011:     -1    3    0 -1.22279758E-02 -2.147E-08 -3.171E-06
:PTO012:     -1    3   -1 -5.57192069E-02 -6.637E-06 -1.639E-05
:PTO013:      0    4    0 -1.04496140E-02 -2.227E-06 -5.222E-06
:PTO014:      0    2   -3  2.37194919E-02  3.992E-06  8.654E-06

:ENE  : ********** TOTAL ENERGY IN Ry =       -36944.21992029

       TOTAL FORCE IN mRy/a.u. = |F|     Fx             Fy             Fz     with/without FOR in case.in2
:FOR001:   1.ATOM         19.735          0.000          0.000        -19.735 partial forces
       TOTAL FORCE WITH RESPECT TO GLOBAL CARTESIAN COORDINATES:
:FCA001:   1.ATOM                         0.000        -19.735          0.000 partial forces
       TOTAL FORCE WITH RESPECT TO THE GLOBAL COORDINATE SYSTEM:
:FGL001:   1.ATOM                 0.000000000   -19.734856500     0.000000000 partial forces

------- case.scf0 --------
 Flat Integration
 New Mode for Coulomb Integral
 Consistent 3/8+Simpson combinations
 Extension of core to zero
 LDM version in phi
 Fifth-order quadrature in outwin


            ---------
:ITE063: 63. ITERATION
            ---------

:NATO :    1 INDEPENDENT AND    2 TOTAL ATOMS IN UNITCELL
       SUBSTANCE: aU                                                          

       LATTICE                      = CXY 
:POT  : POTENTIAL OPTION EX_LDA EC_LDA VX_LDA VC_LDA
:LAT  : LATTICE CONSTANTS=  6.69940 13.59477 11.73665    1.571    1.571    1.571
:VOL  : UNIT CELL VOLUME =     534.46794
       MODE OF CALCULATION IS       = RELA
       NON-SPINPOLARIZED CALCULATION
:IFFT  : FFT-parameters:   54  108   96 Factor: 2.00


   CONVERGENCE PARAMETER FOR PSEUDOCHARGE: NCON=  9
   MAXIMAL VALUE OF RMT(JATOM)*ABSK(NKK) : RK  =27.59996


:VKCOUL :  VK-COUL convergence: 0.810E-07
       ATOMNUMBER=  1 Pr1        VCOUL-ZERO = -0.32073E-01
:EFG001:                        EFG         =    -7.12069   *10**21  V / m**2
                               V20  TOT/SRF=    -6.16670    -0.02049
                               V22  TOT/SRF=     0.89759     0.00288
                               V22M TOT/SRF=     0.00000     0.00000
                               V21  TOT/SRF=     0.00000     0.00000
                               V21M TOT/SRF=     0.00000     0.00000

              4.45793    0.00000    0.00000        4.45793    0.00000    0.00000
              0.00000    2.66276    0.00000        0.00000    2.66276    0.00000
              0.00000    0.00000   -7.12069        0.00000    0.00000   -7.12069

         MAIN DIRECTIONS OF THE EFG   1.0000  0.0000  0.0000
                                      0.0000  1.0000  0.0000
                                      0.0000  0.0000  1.0000
:ANG001:  ANGLE WITH OLD X-AXIS =         0.0

:ETA001:                         ASYMM. ETA =     0.25211


     HELLMANN-FEYNMAN-FORCE IN mRy/a.u. = |F|  Fx       Fy             Fz
:FHF001:   1.ATOM    440.927638651582      0.000000000000      0.000000000000   -440.927638651582

:FIT001: LUSE= 13 SIGMA OF V-XC FIT FOR ATOM  1  0.8028171E-05
:FIT001: LUSE= 13 SIGMA OF V-XC FIT FOR ATOM  1  0.8028171E-05
:DEN  : DENSITY INTEGRAL  =        -14136.32020198   (Ry)
       ELS_POTENTIAL_AT Z=0 and Z=0.5:   0.66946   0.66946
       ELS_POTENTIAL_AT Y=0 and Y=0.5:   0.07662   0.07662
:VZERO:v0,v0c,v0x   0.12073   0.66946  -0.54873 v5,v5c,v5x   0.12073   0.66946  -0.54873
:VZERY:v0,v0c,v0x  -0.65739   0.07662  -0.73401 v5,v5c,v5x  -0.65739   0.07662  -0.73401
:VZERX:v0,v0c,v0x  -1.07931  -0.37072  -0.70859 v5,v5c,v5x  -1.07931  -0.37072  -0.70859

------- case.scf1 --------
:LMAX-WF:   10   Non-Spherical LMAX:   4

          ATOMIC SPHERE DEPENDENT PARAMETERS FOR ATOM  Pr1       
:e__0001: OVERALL ENERGY PARAMETER IS    0.3475
          OVERALL BASIS SET ON ATOM IS LAPW
:E0_0001: E( 0)=    0.3475
             APW+lo
:E0_0001: E( 0)=   -2.1457   E(BOTTOM)=   -2.780   E(TOP)=   -1.511  4  5   166
             LOCAL ORBITAL
:E1_0001: E( 1)=    0.7475
             APW+lo
:E1_0001: E( 1)=   -0.6750   E(BOTTOM)=   -1.631   E(TOP)=    0.281  3  4   194
             LOCAL ORBITAL
:E3_0001: E( 3)=    0.5065   E(BOTTOM)=    0.300   E(TOP)=    0.713  0  1   122
             APW+lo
:E2_0001: E( 2)=    0.3475   E(BOTTOM)=    0.111   E(TOP)= -200.000  2 -1    96
             APW+lo

       K=   0.06250   0.00000   0.06250            1
:RKM  : MATRIX SIZE   485LOs:  40  RKM= 8.49  WEIGHT= 4.00  PGR:    
       EIGENVALUES ARE:
:EIG00001:      -2.1111048   -2.1018853   -0.8217880   -0.7656640   -0.7530928
:EIG00006:      -0.7487956   -0.7438593   -0.7436323    0.3116674    0.4545507
:EIG00011:       0.5235600    0.5238190    0.5238476    0.5268939    0.5287458
:EIG00016:       0.5362001    0.5401696    0.5406140    0.5428907    0.5447089
:EIG00021:       0.5481591    0.5508539    0.5515427    0.5542052    0.6036193
:EIG00026:       0.6184903    0.6830723    0.7053267    0.7158330    0.7567683
:EIG00031:       0.7717476    0.8421911    0.8853114    0.9217052    1.1772151
:EIG00036:       1.2218707    1.3097755    1.3130140    1.4584779    1.5096655
:EIG00041:       1.5494155    1.6517149    1.7136200    1.7334723    1.8094195
:EIG00046:       1.8825674    1.8912397    1.9304659    1.9961099    2.0726502
 
:EIG00051:       2.1235223    2.1782748    2.1941102    2.2483539    2.2714176
:EIG00056:       2.3558161    2.3985282    2.4059093    2.5022679    2.5387103
:EIG00061:       2.6020374    2.6300894    2.7501580    2.8381977    2.8465775
:EIG00066:       2.9380335    2.9825174    2.9968091    2.9994533    3.0919921
:EIG00071:       3.0976713    3.1453689    3.1694775    3.2055877    3.2217287
:EIG00076:       3.2610417    3.3006259    3.3332828    3.3612661    3.3828718
:EIG00081:       3.4222555    3.4673100    3.4745138    3.5185162    3.5681710
:EIG00086:       3.5969505    3.6713463    3.6777067    3.7083961    3.7190622
:EIG00091:       3.7533642    3.7716873    3.8200939    3.8217065    3.8282527
:EIG00096:       3.8887414    3.9147139    3.9175655    3.9342724    4.0142087
 
:EIG00101:       4.0676598    4.1962960    4.1995691    4.2565466    4.2954401
:EIG00106:       4.3081797    4.3440486    4.3462709    4.3960804    4.4262891
:EIG00111:       4.4981416    4.5070736    4.5421176    4.5459660    4.5913177
:EIG00116:       4.6459280    4.7190036    4.7475145    4.7573792    4.7848986
:EIG00121:       4.8101923    4.9006650    4.9118105    4.9461162    4.9945585
:EIG00126:       5.0700896    5.0719132    5.1154039    5.1628998    5.1867663
:EIG00131:       5.2049226    5.2574485    5.2912846    5.3034705    5.3200505
:EIG00136:       5.3792183    5.4221296    5.4699045    5.4839371    5.5129921
:EIG00141:       5.5249384    5.5316562    5.5799693    5.6304372    5.6489009
:EIG00146:       5.6675253    5.6855739    5.6891371    5.6932644    5.7932362
 
:EIG00151:       5.8088709    5.8319695    5.9090603    5.9333658    5.9567277
:EIG00156:       6.0652044    6.1441143    6.1690119    6.2032677    6.2174109
:EIG00161:       6.2528855    6.3212775    6.3629913    6.3740799    6.3745405
:EIG00166:       6.4484413    6.4774128    6.4860294    6.5141689    6.5406236
:EIG00171:       6.5580549    6.6253807    6.6554507    6.6621097    6.7209278
:EIG00176:       6.7222464    6.7566447    6.7905812    6.8083353    6.8354563
:EIG00181:       6.9023789    6.9206427    6.9216084    6.9470231    6.9957654
:EIG00186:       7.0011396    7.0071138    7.0966789    7.1068853    7.1127502
:EIG00191:       7.1608763    7.1742090    7.2244231    7.2362320    7.2659228
:EIG00196:       7.2776994    7.2882502    7.3148598    7.3241121    7.3723256
 
:EIG00201:       7.3847833    7.4421809    7.4482356    7.4624168    7.5210659
:EIG00206:       7.5245243    7.5379423    7.5910090    7.6228019    7.6497570
:EIG00211:       7.6560102    7.7036944    7.7081796    7.7259014    7.7359203
:EIG00216:       7.7782384    7.7822399    7.7845284    7.8101488    7.8524243
:EIG00221:       7.8743217    7.9193549    7.9277354    7.9339974    7.9414038
:EIG00226:       7.9530926    7.9973970    7.9988608    8.0370343
       ********************************************************

:KPT   :      NUMBER OF K-POINTS:   288

------- case.scfso --------
   0.0   0.0 angle (M,z), angle (M,x) deg
 
        SPIN-ORBIT EIGENVALUES:
     K=   0.06250   0.00000   0.06250            1
      MATRIX SIZE=  458   WEIGHT= 4.00
     EIGENVALUES ARE:
          -2.1111049   -2.1111049   -2.1018853   -2.1018853   -0.9228420
          -0.9228420   -0.8958188   -0.8958188   -0.7336233   -0.7336233
          -0.6854085   -0.6854085   -0.6829174   -0.6829174   -0.6770058
          -0.6770058    0.3116932    0.3116932    0.4543989    0.4543989
           0.5149711    0.5149711    0.5170885    0.5170885    0.5183284
           0.5183284    0.5194954    0.5194954    0.5211341    0.5211341
           0.5232216    0.5232216    0.5424509    0.5424509    0.5474339
           0.5474339    0.5494113    0.5494113    0.5507670    0.5507670

           0.5539875    0.5539875    0.5572151    0.5572151    0.5582007
           0.5582007    0.5610352    0.5610352    0.6038299    0.6038299
           0.6182140    0.6182140    0.6826964    0.6826966    0.7035439
           0.7035440    0.7174994    0.7174994    0.7573011    0.7573011
           0.7717341    0.7717341    0.8419929    0.8419929    0.8856223
           0.8856223    0.9218468    0.9218468    1.1772004    1.1772004
           1.2220871    1.2220871    1.3097232    1.3097232    1.3130673
           1.3130673    1.4579846    1.4579846    1.5090113    1.5090113

           1.5493829    1.5493829    1.6494983    1.6494983    1.7127035
           1.7127035    1.7345146    1.7345146    1.8099934    1.8099934
           1.8816111    1.8816111    1.8890571    1.8890571    1.9322975
           1.9322975    1.9965533    1.9965533    2.0721717    2.0721717
           2.1231760    2.1231760    2.1756876    2.1756876    2.1959612
           2.1959612    2.2496958    2.2496958    2.2723552    2.2723552
           2.3556528    2.3556528    2.3979191    2.3979191    2.4070284
           2.4070284    2.5022295    2.5022295    2.5384303    2.5384303

           2.6053585    2.6053585    2.6303377    2.6303377    2.7500807
           2.7500807    2.8382751    2.8382751    2.8467135    2.8467135
           2.9377819    2.9377819    2.9824413    2.9824413    2.9967324
           2.9967324    2.9998003    2.9998003    3.0921190    3.0921190
           3.0978015    3.0978015    3.1454111    3.1454111    3.1695265
           3.1695265    3.2050238    3.2050238    3.2225437    3.2225437
           3.2611886    3.2611886    3.3018889    3.3018889    3.3333585
           3.3333585    3.3612894    3.3612894    3.3832671    3.3832671

           3.4224634    3.4224634    3.4673246    3.4673246    3.4746208
           3.4746208    3.5186758    3.5186758    3.5682023    3.5682023
           3.5970671    3.5970671    3.6714509    3.6714509    3.6776970
           3.6776970    3.7083837    3.7083837    3.7191122    3.7191122
           3.7533769    3.7533769    3.7717336    3.7717336    3.8194827
           3.8194827    3.8219564    3.8219564    3.8283559    3.8283559
           3.8887402    3.8887402    3.9137199    3.9137199    3.9187051
           3.9187051    3.9343481    3.9343481    4.0142467    4.0142467

           4.0674870    4.0674870    4.1935232    4.1935232    4.2016994
           4.2016994    4.2573958    4.2573958    4.2953448    4.2953448
           4.3083657    4.3083657    4.3435153    4.3435153    4.3477206
           4.3477206    4.3962791    4.3962791    4.4264028    4.4264028
           4.4980875    4.4980875
       ********************************************************

------- case.scf2 --------
:GMA  : POTENTIAL AND CHARGE CUT-OFF  12.00 Ry**.5




:POS001: at.nr.  -1 position = 0.00000 0.89750 0.25000  multiplicity =  2

       lmmax 16
       lm=   0 0  1 0  2 0  2 2  3 0  3 2  4 0  4 2  4 4  5 0  5 2  5 4  6 0  6 2  6 4  6 6
:FER gutzwiller fermi energy   0.56231
:EORB         -0.290464293
:SUM sum of gutz band energies        -12.549313222

:CHA001: total charge inside sphere   1 =     9.473272
:PCS001: partial charges sphere =  1 s,p,d,f,px,py,pz,d-z2,d-x2y2,d-xy,d-xz,d-yz 
:QTL001: 1.9423 5.0374 0.5276 1.9658 1.6758 1.6772 1.6844 0.0981 0.0999 0.1150 0.0996 0.1149

                      vxx         vyy         vzz       up to r

:VZZ001:             4.47698     2.65567    -7.13264       2.300

:CHA  : total charge inside unit cell =      13.000000

------- case.scfc --------

        1.ATOM      Pr1                  14 CORE STATES
       CORE-FORCE in mRy/a.u. = |F|      Fx             Fy             Fz
:FCO001:   1.ATOM    422.545682957251      0.000000000000      0.000000000000    422.545682957251

:1S 001: 1S               -3067.077089562 Ry
:2S 001: 2S                -492.830969159 Ry
:2PP001: 2P*               -465.929945099 Ry
:2P 001: 2P                -430.532516475 Ry
:3S 001: 3S                -105.921721779 Ry
:3PP001: 3P*                -94.459521583 Ry
:3P 001: 3P                 -87.451727149 Ry
:3DD001: 3D*                -67.378684215 Ry
:3D 001: 3D                 -65.867133899 Ry
:4S 001: 4S                 -20.599958919 Ry
:4PP001: 4P*                -16.306746694 Ry
:4P 001: 4P                 -14.779366853 Ry
:4DD001: 4D*                 -7.712246038 Ry
:4D 001: 4D                  -7.442837673 Ry

------- case.scfm --------
:CINT001 Core Integral Atom   1   45.998498

       DENSITY AT NUCLEUS
        JATOM        VALENCE       SEMI-CORE          CORE           TOTAL
:RTO001:   1      649.486296        0.000000   656824.349818   657473.836114
     
       CHARGES OF NEW CHARGE DENSITY
:NTO   : INTERSTITIAL CHARGE =     7.053989
:NPC   : PW Pseudocharge     =    16.925565
:NTO001: CHARGE SPHERE  1    =    55.471770

:NEC01: NUCLEAR AND ELECTRONIC CHARGE    118.00000   117.99753
     
       CHARGES OF OLD CHARGE DENSITY
:OTO   : INTERSTITIAL CHARGE =     7.051527
:OPC   : PW Pseudocharge     =    16.930098
:OTO001: CHARGE SPHERE  1    =    55.474237

:NEC02: NUCLEAR AND ELECTRONIC CHARGE    118.00000   118.00000
     
       CONVERGENCE TEST
:DTO001: DIFFERENCE IN SPHERE  1 =  0.0042392

:DIS  :  CHARGE DISTANCE       ( 0.0042392 for atom    1 spin 1)      0.0042392
 PW Mixed is          544
 
******************************************************
* MULTISECANT MIXING VER9 RELEASE 10.4.0              *
* Standard Mode with controls                        *
* Fixed density scale                                *
* Regularization       1.000E-04                     *
* Trust Upper Limit    5.000E+00                     *
* Max Number of Memory Steps    8                    *
******************************************************
 
:PWTMP   4.3254E+02  1.9467E+02  5.3447E+02
:PLANE:  PW TOTAL      4.4114 DISTAN   6.96E-04  1.58E-02 %
:CHARG:  CLM/ATOM   1381.9551 DISTAN   6.40E-03  4.63E-04 %
 
Step History
        DMIX         DMIXT        Red     Pred      Trust     Lambda    MagRel    MagAbs     Beta
  1   3.5000E-02   3.5000E-02 -1.00E+00  1.00E+00 -1.00E+01  1.00E+00  3.50E-02  3.50E-02  1.00E+00
  2   1.5000E-01   1.5000E-01  5.75E-01  1.00E+00 -1.00E+01  1.00E+00  1.50E-01  5.49E-03  1.00E+00
  3   7.1250E-02   7.1250E-02  5.35E-01  6.04E-01  3.00E+00  5.24E-01  2.71E-01  5.70E-03  1.00E+00
  4   1.7813E-01   1.7813E-01 -1.00E+00  2.81E-01  4.00E+00  1.00E+00  5.30E-01  5.97E-03  1.00E+00
:JACOBIANS    2.443E-02   7.197E-01
  
:NORMS:  1/Froebius, Min, Max, Used   0.5118E+00  0.4034E+00  0.6898E+00  0.5631E+00
:INFO :  Number of Memory Steps    3 Skipping    0
:INFO :  SLambda=    2.0404695234  Max    2.0404695234
:PREDicted Charge, CTotal, PW Trust    3.955E-04   7.911E-04   6.562E-04
:PREDicted DMix, Beta, BLim   2.0931E-01  1.2906E+00  7.7495E-01

Eigenvalues, unscaled except for SY+YY
   #     SY Real        SY Imag          SS             YY         SY+YY Real      SY+YY Imag
   1   1.554590E-05   0.000000E+00   6.327553E-01   1.995585E+00   1.324081E-04   0.000000E+00
   2   6.003121E-01   0.000000E+00   1.529382E-01   1.004320E+00   3.323562E+00   0.000000E+00
   3   7.229489E-01   0.000000E+00   2.918396E-06   9.524943E-05   2.376411E+00   0.000000E+00
 
:INFO :  Singular value  3.440E+00 Weight  1.000E+00 Projection -4.541E-03
:INFO :  Singular value  2.296E+00 Weight  1.000E+00 Projection  5.669E-04
:INFO :  Singular value  1.324E-04 Weight  3.057E-01 Projection  1.629E-03
:RANK :  ACTIVE   2.31/3  =  76.86 % ; YY RANK   2.19/3  =  72.85 %
 
:BLIM :  VZERO Control Off
:TRUST:  Step 5.33E+00  Charge 7.50E-02 (e) CTO  2.50E-01 (e) PW  3.50E-01 (e)
:DIRM :  MEMORY  3/8  SCALE   1.000 RED  0.57 PRED  0.28 NEXT  0.19 
:TRAVE:  Charge 1.11E-03 (e) CTO  2.23E-03 (e) PW  1.46E-03 (e)
:DIRP :  |MSR1|= 5.095E-04 |PRATT|= 6.956E-04 ANGLE=  33.4 DEGREES
:DIRQ :  |MSR1|= 2.989E-03 |PRATT|= 6.399E-03 ANGLE=  37.3 DEGREES
:DIRT :  |MSR1|= 3.032E-03 |PRATT|= 6.437E-03 ANGLE=  37.4 DEGREES
:MIX  :   MSE1   REGULARIZATION:  2.00E-04 GREED: 0.16965  Newton 1.00  0.4710                
     
       CHARGES OF MIXED CHARGE DENSITY
:CTO   : INTERSTITIAL CHARGE =     7.053140
:CPC   : PW Pseudocharge     =    16.931489
:CTO001: CHARGE SPHERE  1    =    55.473430

:NEC03: NUCLEAR AND ELECTRONIC CHARGE    118.00000   118.00000

PW CHANGE     H    K    L      Current       Change    Residue
:PTO001:      0    0    0  4.48757112E-02  5.622E-06  1.184E-05
:PTO003:      0    2    0  1.29052470E-02  1.157E-06 -1.806E-06
:PTO004:     -1    1    0  6.44682470E-02  5.756E-06  2.590E-06
:PTO005:      0    2   -1 -7.53887902E-02 -6.143E-06 -8.018E-07
:PTO006:      0    0   -2 -3.90383742E-02 -3.854E-06 -3.299E-06
:PTO007:     -1    1   -1 -8.27718034E-02 -6.147E-06 -5.073E-06
:PTO008:      0    2   -2 -1.40372075E-02 -1.105E-06 -2.098E-07
:PTO009:     -1    1   -2 -7.24828143E-02 -3.062E-06  1.125E-06
:PTO011:     -1    3    0 -1.22300334E-02 -2.058E-06 -3.569E-06
:PTO012:     -1    3   -1 -5.57260928E-02 -6.886E-06 -2.950E-06
:PTO013:      0    4    0 -1.04515967E-02 -1.983E-06 -1.741E-06
:PTO014:      0    2   -3  2.37230495E-02  3.558E-06  2.199E-06

:ENE  : ********** TOTAL ENERGY IN Ry =       -36944.21977538

       TOTAL FORCE IN mRy/a.u. = |F|     Fx             Fy             Fz     with/without FOR in case.in2
:FOR001:   1.ATOM         18.382          0.000          0.000        -18.382 partial forces
       TOTAL FORCE WITH RESPECT TO GLOBAL CARTESIAN COORDINATES:
:FCA001:   1.ATOM                         0.000        -18.382          0.000 partial forces
       TOTAL FORCE WITH RESPECT TO THE GLOBAL COORDINATE SYSTEM:
:FGL001:   1.ATOM                 0.000000000   -18.381955694     0.000000000 partial forces

------- case.scf0 --------
 Flat Integration
 New Mode for Coulomb Integral
 Consistent 3/8+Simpson combinations
 Extension of core to zero
 LDM version in phi
 Fifth-order quadrature in outwin


            ---------
:ITE064: 64. ITERATION
            ---------

:NATO :    1 INDEPENDENT AND    2 TOTAL ATOMS IN UNITCELL
       SUBSTANCE: aU                                                          

       LATTICE                      = CXY 
:POT  : POTENTIAL OPTION EX_LDA EC_LDA VX_LDA VC_LDA
:LAT  : LATTICE CONSTANTS=  6.69940 13.59477 11.73665    1.571    1.571    1.571
:VOL  : UNIT CELL VOLUME =     534.46794
       MODE OF CALCULATION IS       = RELA
       NON-SPINPOLARIZED CALCULATION
:IFFT  : FFT-parameters:   54  108   96 Factor: 2.00


   CONVERGENCE PARAMETER FOR PSEUDOCHARGE: NCON=  9
   MAXIMAL VALUE OF RMT(JATOM)*ABSK(NKK) : RK  =27.59996


:VKCOUL :  VK-COUL convergence: 0.809E-07
       ATOMNUMBER=  1 Pr1        VCOUL-ZERO = -0.32132E-01
:EFG001:                        EFG         =    -7.13050   *10**21  V / m**2
                               V20  TOT/SRF=    -6.17519    -0.02049
                               V22  TOT/SRF=     0.90372     0.00287
                               V22M TOT/SRF=     0.00000     0.00000
                               V21  TOT/SRF=     0.00000     0.00000
                               V21M TOT/SRF=     0.00000     0.00000

              4.46897    0.00000    0.00000        4.46897    0.00000    0.00000
              0.00000    2.66152    0.00000        0.00000    2.66152    0.00000
              0.00000    0.00000   -7.13050        0.00000    0.00000   -7.13050

         MAIN DIRECTIONS OF THE EFG   1.0000  0.0000  0.0000
                                      0.0000  1.0000  0.0000
                                      0.0000  0.0000  1.0000
:ANG001:  ANGLE WITH OLD X-AXIS =         0.0

:ETA001:                         ASYMM. ETA =     0.25348


     HELLMANN-FEYNMAN-FORCE IN mRy/a.u. = |F|  Fx       Fy             Fz
:FHF001:   1.ATOM    434.871468011751      0.000000000000      0.000000000000   -434.871468011751

:FIT001: LUSE= 13 SIGMA OF V-XC FIT FOR ATOM  1  0.8005764E-05
:FIT001: LUSE= 13 SIGMA OF V-XC FIT FOR ATOM  1  0.8005764E-05
:DEN  : DENSITY INTEGRAL  =        -14136.19532099   (Ry)
       ELS_POTENTIAL_AT Z=0 and Z=0.5:   0.66958   0.66958
       ELS_POTENTIAL_AT Y=0 and Y=0.5:   0.07659   0.07659
:VZERO:v0,v0c,v0x   0.12080   0.66958  -0.54878 v5,v5c,v5x   0.12080   0.66958  -0.54878
:VZERY:v0,v0c,v0x  -0.65745   0.07659  -0.73404 v5,v5c,v5x  -0.65745   0.07659  -0.73404
:VZERX:v0,v0c,v0x  -1.07940  -0.37076  -0.70864 v5,v5c,v5x  -1.07940  -0.37076  -0.70864

------- case.scf1 --------
:LMAX-WF:   10   Non-Spherical LMAX:   4

          ATOMIC SPHERE DEPENDENT PARAMETERS FOR ATOM  Pr1       
:e__0001: OVERALL ENERGY PARAMETER IS    0.3475
          OVERALL BASIS SET ON ATOM IS LAPW
:E0_0001: E( 0)=    0.3475
             APW+lo
:E0_0001: E( 0)=   -2.1463   E(BOTTOM)=   -2.780   E(TOP)=   -1.512  4  5   166
             LOCAL ORBITAL
:E1_0001: E( 1)=    0.7475
             APW+lo
:E1_0001: E( 1)=   -0.6756   E(BOTTOM)=   -1.631   E(TOP)=    0.280  3  4   196
             LOCAL ORBITAL
:E3_0001: E( 3)=    0.5055   E(BOTTOM)=    0.299   E(TOP)=    0.712  0  1   124
             APW+lo
:E2_0001: E( 2)=    0.3475   E(BOTTOM)=    0.111   E(TOP)= -200.000  2 -1    94
             APW+lo

       K=   0.06250   0.00000   0.06250            1
:RKM  : MATRIX SIZE   485LOs:  40  RKM= 8.49  WEIGHT= 4.00  PGR:    
       EIGENVALUES ARE:
:EIG00001:      -2.1116600   -2.1024468   -0.8221774   -0.7660814   -0.7535178
:EIG00006:      -0.7492389   -0.7442966   -0.7440788    0.3116558    0.4544856
:EIG00011:       0.5226657    0.5229139    0.5229562    0.5259821    0.5278447
:EIG00016:       0.5352294    0.5391959    0.5396512    0.5419215    0.5437603
:EIG00021:       0.5471769    0.5498764    0.5505623    0.5532296    0.6033621
:EIG00026:       0.6183212    0.6829242    0.7051770    0.7156804    0.7566179
:EIG00031:       0.7715823    0.8420143    0.8851065    0.9214852    1.1770303
:EIG00036:       1.2218022    1.3097118    1.3129639    1.4584397    1.5096301
:EIG00041:       1.5493423    1.6516415    1.7135325    1.7333894    1.8092844
:EIG00046:       1.8824865    1.8911978    1.9303756    1.9960436    2.0725215
 
:EIG00051:       2.1234329    2.1781975    2.1940481    2.2482339    2.2713155
:EIG00056:       2.3557589    2.3983648    2.4058731    2.5021937    2.5386059
:EIG00061:       2.6019138    2.6300450    2.7500676    2.8381242    2.8465690
:EIG00066:       2.9379889    2.9824221    2.9967023    2.9994106    3.0919497
:EIG00071:       3.0976732    3.1453407    3.1694415    3.2055344    3.2216903
:EIG00076:       3.2609729    3.3006038    3.3332384    3.3612468    3.3828233
:EIG00081:       3.4222200    3.4673228    3.4744960    3.5184666    3.5681644
:EIG00086:       3.5969615    3.6713420    3.6777286    3.7084070    3.7190294
:EIG00091:       3.7533763    3.7716652    3.8200366    3.8217179    3.8281933
:EIG00096:       3.8887477    3.9146861    3.9175693    3.9342865    4.0142272
 
:EIG00101:       4.0676102    4.1962883    4.1995163    4.2565407    4.2954383
:EIG00106:       4.3081751    4.3440425    4.3462679    4.3960713    4.4262923
:EIG00111:       4.4980946    4.5070925    4.5420722    4.5460104    4.5912936
:EIG00116:       4.6458852    4.7189322    4.7475238    4.7572986    4.7848272
:EIG00121:       4.8101844    4.9006471    4.9117520    4.9460957    4.9945605
:EIG00126:       5.0700291    5.0718864    5.1153703    5.1628834    5.1867255
:EIG00131:       5.2049278    5.2574388    5.2912615    5.3034667    5.3200243
:EIG00136:       5.3792203    5.4221203    5.4699126    5.4838944    5.5129794
:EIG00141:       5.5249085    5.5316186    5.5799431    5.6304670    5.6488222
:EIG00146:       5.6675266    5.6855929    5.6891591    5.6932427    5.7932471
 
:EIG00151:       5.8088021    5.8319903    5.9090606    5.9333771    5.9566887
:EIG00156:       6.0652126    6.1441036    6.1689843    6.2032378    6.2174075
:EIG00161:       6.2528336    6.3212920    6.3629807    6.3740320    6.3745078
:EIG00166:       6.4484137    6.4774040    6.4860134    6.5141632    6.5406014
:EIG00171:       6.5580199    6.6253555    6.6554195    6.6620577    6.7208918
:EIG00176:       6.7221572    6.7566079    6.7905106    6.8083086    6.8354108
:EIG00181:       6.9023334    6.9205965    6.9215976    6.9470374    6.9957619
:EIG00186:       7.0010817    7.0071213    7.0966445    7.1068564    7.1127209
:EIG00191:       7.1608752    7.1742040    7.2244089    7.2362282    7.2658928
:EIG00196:       7.2777026    7.2882348    7.3148492    7.3240986    7.3723039
 
:EIG00201:       7.3848058    7.4421913    7.4482565    7.4623933    7.5210243
:EIG00206:       7.5244935    7.5379289    7.5910133    7.6227936    7.6497417
:EIG00211:       7.6560106    7.7036808    7.7081699    7.7258887    7.7359126
:EIG00216:       7.7782312    7.7822289    7.7845156    7.8101535    7.8524477
:EIG00221:       7.8743458    7.9193737    7.9277476    7.9340080    7.9414261
:EIG00226:       7.9530973    7.9974063    7.9988709    8.0370480
       ********************************************************

:KPT   :      NUMBER OF K-POINTS:   288

------- case.scfso --------
   0.0   0.0 angle (M,z), angle (M,x) deg
 
        SPIN-ORBIT EIGENVALUES:
     K=   0.06250   0.00000   0.06250            1
      MATRIX SIZE=  458   WEIGHT= 4.00
     EIGENVALUES ARE:
          -2.1116602   -2.1116602   -2.1024468   -2.1024468   -0.9232819
          -0.9232818   -0.8962805   -0.8962805   -0.7340149   -0.7340149
          -0.6858301   -0.6858301   -0.6833371   -0.6833371   -0.6774315
          -0.6774315    0.3116817    0.3116817    0.4543316    0.4543317
           0.5140554    0.5140554    0.5161621    0.5161621    0.5173962
           0.5173962    0.5185663    0.5185663    0.5201939    0.5201939
           0.5222459    0.5222459    0.5415628    0.5415628    0.5464865
           0.5464865    0.5484463    0.5484463    0.5498223    0.5498223

           0.5530318    0.5530318    0.5562469    0.5562469    0.5572419
           0.5572419    0.5600665    0.5600665    0.6035567    0.6035567
           0.6180395    0.6180395    0.6825397    0.6825398    0.7033960
           0.7033960    0.7173476    0.7173477    0.7571511    0.7571511
           0.7715687    0.7715687    0.8418158    0.8418158    0.8854178
           0.8854178    0.9216271    0.9216271    1.1770159    1.1770159
           1.2220183    1.2220183    1.3096597    1.3096597    1.3130168
           1.3130168    1.4579459    1.4579459    1.5089756    1.5089756

           1.5493098    1.5493098    1.6494237    1.6494237    1.7126173
           1.7126173    1.7344319    1.7344319    1.8098588    1.8098588
           1.8815342    1.8815342    1.8890074    1.8890074    1.9322108
           1.9322108    1.9964854    1.9964854    2.0720442    2.0720442
           2.1230867    2.1230867    2.1756119    2.1756119    2.1958970
           2.1958970    2.2495813    2.2495813    2.2722501    2.2722501
           2.3555935    2.3555935    2.3977746    2.3977746    2.4069751
           2.4069751    2.5021547    2.5021547    2.5383255    2.5383255

           2.6052364    2.6052364    2.6302924    2.6302924    2.7499904
           2.7499904    2.8382022    2.8382022    2.8467045    2.8467045
           2.9377366    2.9377366    2.9823466    2.9823466    2.9966279
           2.9966279    2.9997558    2.9997558    3.0920772    3.0920772
           3.0978027    3.0978027    3.1453830    3.1453830    3.1694905
           3.1694905    3.2049714    3.2049714    3.2225044    3.2225044
           3.2611197    3.2611197    3.3018665    3.3018665    3.3333141
           3.3333141    3.3612699    3.3612699    3.3832190    3.3832190

           3.4224280    3.4224280    3.4673373    3.4673373    3.4746028
           3.4746028    3.5186262    3.5186262    3.5681957    3.5681957
           3.5970781    3.5970781    3.6714466    3.6714466    3.6777189
           3.6777189    3.7083946    3.7083946    3.7190795    3.7190795
           3.7533890    3.7533890    3.7717114    3.7717114    3.8194335
           3.8194335    3.8219592    3.8219592    3.8282973    3.8282973
           3.8887464    3.8887464    3.9136989    3.9136989    3.9187018
           3.9187018    3.9343621    3.9343621    4.0142652    4.0142652

           4.0674375    4.0674375    4.1935010    4.1935010    4.2016626
           4.2016626    4.2573889    4.2573889    4.2953424    4.2953424
           4.3083612    4.3083612    4.3435117    4.3435117    4.3477155
           4.3477155    4.3962699    4.3962699    4.4264060    4.4264060
           4.4980425    4.4980425
       ********************************************************

------- case.scf2 --------
:GMA  : POTENTIAL AND CHARGE CUT-OFF  12.00 Ry**.5




:POS001: at.nr.  -1 position = 0.00000 0.89750 0.25000  multiplicity =  2

       lmmax 16
       lm=   0 0  1 0  2 0  2 2  3 0  3 2  4 0  4 2  4 4  5 0  5 2  5 4  6 0  6 2  6 4  6 6
:FER gutzwiller fermi energy   0.56213
:EORB         -0.293723850
:SUM sum of gutz band energies        -12.557799280

:CHA001: total charge inside sphere   1 =     9.475341
[...]

       TOTAL FORCE IN mRy/a.u. = |F|     Fx             Fy             Fz     with/without FOR in case.in2
:FOR001:   1.ATOM         18.171          0.000          0.000        -18.171 partial forces
       TOTAL FORCE WITH RESPECT TO GLOBAL CARTESIAN COORDINATES:
:FCA001:   1.ATOM                         0.000        -18.171          0.000 partial forces
       TOTAL FORCE WITH RESPECT TO THE GLOBAL COORDINATE SYSTEM:
:FGL001:   1.ATOM                 0.000000000   -18.170968924     0.000000000 partial forces

------- case.scf0 --------
 Flat Integration
 New Mode for Coulomb Integral
 Consistent 3/8+Simpson combinations
 Extension of core to zero
 LDM version in phi
 Fifth-order quadrature in outwin


            ---------
:ITE069: 69. ITERATION
            ---------

:NATO :    1 INDEPENDENT AND    2 TOTAL ATOMS IN UNITCELL
       SUBSTANCE: aU                                                          

       LATTICE                      = CXY 
:POT  : POTENTIAL OPTION EX_LDA EC_LDA VX_LDA VC_LDA
:LAT  : LATTICE CONSTANTS=  6.69940 13.59477 11.73665    1.571    1.571    1.571
:VOL  : UNIT CELL VOLUME =     534.46794
       MODE OF CALCULATION IS       = RELA
       NON-SPINPOLARIZED CALCULATION
:IFFT  : FFT-parameters:   54  108   96 Factor: 2.00


   CONVERGENCE PARAMETER FOR PSEUDOCHARGE: NCON=  9
   MAXIMAL VALUE OF RMT(JATOM)*ABSK(NKK) : RK  =27.59996


:VKCOUL :  VK-COUL convergence: 0.809E-07
       ATOMNUMBER=  1 Pr1        VCOUL-ZERO = -0.32110E-01
:EFG001:                        EFG         =    -7.12325   *10**21  V / m**2
                               V20  TOT/SRF=    -6.16892    -0.02049
                               V22  TOT/SRF=     0.91205     0.00287
                               V22M TOT/SRF=     0.00000     0.00000
                               V21  TOT/SRF=     0.00000     0.00000
                               V21M TOT/SRF=     0.00000     0.00000

              4.47368    0.00000    0.00000        4.47368    0.00000    0.00000
              0.00000    2.64958    0.00000        0.00000    2.64958    0.00000
              0.00000    0.00000   -7.12325        0.00000    0.00000   -7.12325

         MAIN DIRECTIONS OF THE EFG   1.0000  0.0000  0.0000
                                      0.0000  1.0000  0.0000
                                      0.0000  0.0000  1.0000
:ANG001:  ANGLE WITH OLD X-AXIS =         0.0

:ETA001:                         ASYMM. ETA =     0.25608


     HELLMANN-FEYNMAN-FORCE IN mRy/a.u. = |F|  Fx       Fy             Fz
:FHF001:   1.ATOM    435.325593050236      0.000000000000      0.000000000000   -435.325593050236

:FIT001: LUSE= 13 SIGMA OF V-XC FIT FOR ATOM  1  0.8009479E-05
:FIT001: LUSE= 13 SIGMA OF V-XC FIT FOR ATOM  1  0.8009479E-05
:DEN  : DENSITY INTEGRAL  =        -14136.27150259   (Ry)
       ELS_POTENTIAL_AT Z=0 and Z=0.5:   0.66948   0.66948
       ELS_POTENTIAL_AT Y=0 and Y=0.5:   0.07659   0.07659
:VZERO:v0,v0c,v0x   0.12073   0.66948  -0.54876 v5,v5c,v5x   0.12073   0.66948  -0.54876
:VZERY:v0,v0c,v0x  -0.65742   0.07659  -0.73401 v5,v5c,v5x  -0.65742   0.07659  -0.73401
:VZERX:v0,v0c,v0x  -1.07933  -0.37072  -0.70861 v5,v5c,v5x  -1.07933  -0.37072  -0.70861

------- case.scf1 --------
:LMAX-WF:   10   Non-Spherical LMAX:   4

          ATOMIC SPHERE DEPENDENT PARAMETERS FOR ATOM  Pr1       
:e__0001: OVERALL ENERGY PARAMETER IS    0.3475
          OVERALL BASIS SET ON ATOM IS LAPW
:E0_0001: E( 0)=    0.3475
             APW+lo
:E0_0001: E( 0)=   -2.1459   E(BOTTOM)=   -2.780   E(TOP)=   -1.512  4  5   171
             LOCAL ORBITAL
:E1_0001: E( 1)=    0.7475
             APW+lo
:E1_0001: E( 1)=   -0.6753   E(BOTTOM)=   -1.631   E(TOP)=    0.281  3  4   195
             LOCAL ORBITAL
:E3_0001: E( 3)=    0.5061   E(BOTTOM)=    0.299   E(TOP)=    0.713  0  1   122
             APW+lo
:E2_0001: E( 2)=    0.3475   E(BOTTOM)=    0.111   E(TOP)= -200.000  2 -1    92
             APW+lo

       K=   0.06250   0.00000   0.06250            1
:RKM  : MATRIX SIZE   485LOs:  40  RKM= 8.49  WEIGHT= 4.00  PGR:    
       EIGENVALUES ARE:
:EIG00001:      -2.1113212   -2.1021040   -0.8219427   -0.7658228   -0.7532544
:EIG00006:      -0.7489662   -0.7440311   -0.7438039    0.3116453    0.4545135
:EIG00011:       0.5231984    0.5234462    0.5234851    0.5265287    0.5283817
:EIG00016:       0.5358024    0.5397708    0.5402273    0.5425000    0.5443271
:EIG00021:       0.5477608    0.5504618    0.5511552    0.5538083    0.6035107
:EIG00026:       0.6184149    0.6829985    0.7052629    0.7157651    0.7567054
:EIG00031:       0.7716796    0.8421154    0.8852269    0.9216168    1.1771363
:EIG00036:       1.2218275    1.3097358    1.3129773    1.4584450    1.5096309
:EIG00041:       1.5493706    1.6516693    1.7135727    1.7334245    1.8093556
:EIG00046:       1.8825208    1.8912070    1.9304179    1.9960688    2.0725863
 
:EIG00051:       2.1234754    2.1782309    2.1940719    2.2482952    2.2713629
:EIG00056:       2.3557804    2.3984511    2.4058791    2.5022275    2.5386571
:EIG00061:       2.6019769    2.6300576    2.7501097    2.8381549    2.8465583
:EIG00066:       2.9380030    2.9824702    2.9967559    2.9994225    3.0919626
:EIG00071:       3.0976570    3.1453455    3.1694512    3.2055535    3.2217001
:EIG00076:       3.2610026    3.3006016    3.3332519    3.3612453    3.3828410
:EIG00081:       3.4222289    3.4673018    3.4744931    3.5184851    3.5681558
:EIG00086:       3.5969406    3.6713315    3.6776987    3.7083844    3.7190381
:EIG00091:       3.7533555    3.7716670    3.8200626    3.8216981    3.8282194
:EIG00096:       3.8887275    3.9146879    3.9175519    3.9342641    4.0142011
 
:EIG00101:       4.0676279    4.1962782    4.1995373    4.2565296    4.2954243
:EIG00106:       4.3081647    4.3440304    4.3462567    4.3960653    4.4262758
:EIG00111:       4.4981110    4.5070637    4.5420906    4.5459652    4.5912982
:EIG00116:       4.6458994    4.7189661    4.7475036    4.7573406    4.7848622
:EIG00121:       4.8101748    4.9006459    4.9117735    4.9460947    4.9945468
:EIG00126:       5.0700524    5.0718900    5.1153792    5.1628803    5.1867395
:EIG00131:       5.2049101    5.2574308    5.2912616    5.3034548    5.3200281
:EIG00136:       5.3792048    5.4221119    5.4698965    5.4839095    5.5129741
:EIG00141:       5.5249149    5.5316293    5.5799470    5.6304352    5.6488593
:EIG00146:       5.6675123    5.6855662    5.6891318    5.6932406    5.7932255
 
:EIG00151:       5.8088306    5.8319638    5.9090451    5.9333554    5.9566988
:EIG00156:       6.0651934    6.1440984    6.1689876    6.2032424    6.2173953
:EIG00161:       6.2528546    6.3212688    6.3629743    6.3740477    6.3745178
:EIG00166:       6.4484178    6.4773954    6.4860113    6.5141537    6.5406014
:EIG00171:       6.5580264    6.6253598    6.6554274    6.6620784    6.7209009
:EIG00176:       6.7221996    6.7566188    6.7905416    6.8083147    6.8354263
:EIG00181:       6.9023506    6.9206122    6.9215898    6.9470141    6.9957493
:EIG00186:       7.0011036    7.0071030    7.0966521    7.1068596    7.1127228
:EIG00191:       7.1608622    7.1741910    7.2244033    7.2362162    7.2658978
:EIG00196:       7.2776864    7.2882301    7.3148412    7.3240941    7.3723031
 
:EIG00201:       7.3847758    7.4421708    7.4482293    7.4623932    7.5210364
:EIG00206:       7.5244998    7.5379228    7.5909959    7.6227852    7.6497388
:EIG00211:       7.6559966    7.7036762    7.7081619    7.7258822    7.7359030
:EIG00216:       7.7782208    7.7822221    7.7845088    7.8101352    7.8524182
:EIG00221:       7.8743158    7.9193471    7.9277243    7.9339880    7.9413950
:EIG00226:       7.9530784    7.9973844    7.9988515    8.0370228
       ********************************************************

:KPT   :      NUMBER OF K-POINTS:   288

------- case.scfso --------
   0.0   0.0 angle (M,z), angle (M,x) deg
 
        SPIN-ORBIT EIGENVALUES:
     K=   0.06250   0.00000   0.06250            1
      MATRIX SIZE=  458   WEIGHT= 4.00
     EIGENVALUES ARE:
          -2.1113213   -2.1113213   -2.1021040   -2.1021040   -0.9230132
          -0.9230131   -0.8959972   -0.8959972   -0.7337757   -0.7337757
          -0.6855700   -0.6855700   -0.6830778   -0.6830778   -0.6771716
          -0.6771716    0.3116712    0.3116712    0.4543608    0.4543609
           0.5145959    0.5145959    0.5167106    0.5167106    0.5179559
           0.5179559    0.5191219    0.5191219    0.5207537    0.5207537
           0.5228243    0.5228243    0.5420906    0.5420906    0.5470533
           0.5470533    0.5490157    0.5490157    0.5503882    0.5503882

           0.5535967    0.5535967    0.5568237    0.5568237    0.5578192
           0.5578192    0.5606456    0.5606457    0.6037149    0.6037149
           0.6181364    0.6181364    0.6826197    0.6826199    0.7034798
           0.7034798    0.7174323    0.7174324    0.7572383    0.7572383
           0.7716660    0.7716660    0.8419171    0.8419171    0.8855379
           0.8855379    0.9217585    0.9217585    1.1771217    1.1771217
           1.2220438    1.2220438    1.3096836    1.3096836    1.3130304
           1.3130304    1.4579515    1.4579515    1.5089767    1.5089767

           1.5493381    1.5493381    1.6494524    1.6494524    1.7126565
           1.7126565    1.7344670    1.7344670    1.8099296    1.8099296
           1.8815660    1.8815660    1.8890217    1.8890217    1.9322507
           1.9322507    1.9965115    1.9965115    2.0721083    2.0721083
           2.1231291    2.1231291    2.1756444    2.1756444    2.1959220
           2.1959220    2.2496390    2.2496390    2.2722995    2.2722995
           2.3556163    2.3556163    2.3978490    2.3978490    2.4069918
           2.4069918    2.5021889    2.5021889    2.5383769    2.5383769

           2.6052987    2.6052987    2.6303056    2.6303056    2.7500324
           2.7500324    2.8382326    2.8382326    2.8466941    2.8466941
           2.9377512    2.9377512    2.9823943    2.9823943    2.9966800
           2.9966800    2.9997689    2.9997689    3.0920897    3.0920897
           3.0977869    3.0977869    3.1453878    3.1453878    3.1695002
           3.1695002    3.2049900    3.2049900    3.2225148    3.2225148
           3.2611495    3.2611495    3.3018644    3.3018644    3.3333276
           3.3333276    3.3612685    3.3612685    3.3832364    3.3832364

           3.4224368    3.4224368    3.4673164    3.4673164    3.4746000
           3.4746000    3.5186447    3.5186447    3.5681870    3.5681870
           3.5970572    3.5970572    3.6714361    3.6714361    3.6776890
           3.6776890    3.7083720    3.7083720    3.7190882    3.7190882
           3.7533682    3.7533682    3.7717133    3.7717133    3.8194541
           3.8194541    3.8219451    3.8219451    3.8283229    3.8283229
           3.8887262    3.8887262    3.9136967    3.9136967    3.9186888
           3.9186888    3.9343397    3.9343397    4.0142391    4.0142391

           4.0674550    4.0674550    4.1935009    4.1935009    4.2016725
           4.2016725    4.2573785    4.2573785    4.2953288    4.2953288
           4.3083507    4.3083507    4.3434989    4.3434989    4.3477048
           4.3477048    4.3962640    4.3962640    4.4263894    4.4263894
           4.4980576    4.4980576
       ********************************************************

------- case.scf2 --------
:GMA  : POTENTIAL AND CHARGE CUT-OFF  12.00 Ry**.5




:POS001: at.nr.  -1 position = 0.00000 0.89750 0.25000  multiplicity =  2

       lmmax 16
       lm=   0 0  1 0  2 0  2 2  3 0  3 2  4 0  4 2  4 4  5 0  5 2  5 4  6 0  6 2  6 4  6 6
:FER gutzwiller fermi energy   0.56209
:EORB         -0.290919111
:SUM sum of gutz band energies        -12.553584044

:CHA001: total charge inside sphere   1 =     9.475847
:PCS001: partial charges sphere =  1 s,p,d,f,px,py,pz,d-z2,d-x2y2,d-xy,d-xz,d-yz 
:QTL001: 1.9423 5.0374 0.5267 1.9692 1.6758 1.6772 1.6844 0.0979 0.0997 0.1149 0.0995 0.1148

                      vxx         vyy         vzz       up to r

:VZZ001:             4.45547     2.63873    -7.09420       2.300

:CHA  : total charge inside unit cell =      13.000000

------- case.scfc --------

        1.ATOM      Pr1                  14 CORE STATES
       CORE-FORCE in mRy/a.u. = |F|      Fx             Fy             Fz
:FCO001:   1.ATOM    417.157848524524      0.000000000000      0.000000000000    417.157848524524

:1S 001: 1S               -3067.077418737 Ry
:2S 001: 2S                -492.831358192 Ry
:2PP001: 2P*               -465.930320885 Ry
:2P 001: 2P                -430.532897244 Ry
:3S 001: 3S                -105.922231034 Ry
:3PP001: 3P*                -94.460024218 Ry
:3P 001: 3P                 -87.452235864 Ry
:3DD001: 3D*                -67.379175239 Ry
:3D 001: 3D                 -65.867627142 Ry
:4S 001: 4S                 -20.600502676 Ry
:4PP001: 4P*                -16.307283399 Ry
:4P 001: 4P                 -14.779895997 Ry
:4DD001: 4D*                 -7.712753582 Ry
:4D 001: 4D                  -7.443341993 Ry

------- case.scfm --------
:CINT001 Core Integral Atom   1   45.998499

       DENSITY AT NUCLEUS
        JATOM        VALENCE       SEMI-CORE          CORE           TOTAL
:RTO001:   1      649.511751        0.000000   656824.338747   657473.850498
     
       CHARGES OF NEW CHARGE DENSITY
:NTO   : INTERSTITIAL CHARGE =     7.048813
:NPC   : PW Pseudocharge     =    16.924188
:NTO001: CHARGE SPHERE  1    =    55.474345

:NEC01: NUCLEAR AND ELECTRONIC CHARGE    118.00000   117.99750
     
       CHARGES OF OLD CHARGE DENSITY
:OTO   : INTERSTITIAL CHARGE =     7.052008
:OPC   : PW Pseudocharge     =    16.930445
:OTO001: CHARGE SPHERE  1    =    55.473996

:NEC02: NUCLEAR AND ELECTRONIC CHARGE    118.00000   118.00000
     
       CONVERGENCE TEST
:DTO001: DIFFERENCE IN SPHERE  1 =  0.0005696

:DIS  :  CHARGE DISTANCE       ( 0.0005696 for atom    1 spin 1)      0.0005696
 PW Mixed is          544
 
******************************************************
* MULTISECANT MIXING VER9 RELEASE 10.4.0              *
* Standard Mode with controls                        *
* Fixed density scale                                *
* Regularization       1.000E-04                     *
* Trust Upper Limit    5.000E+00                     *
* Max Number of Memory Steps    8                    *
******************************************************
 
:PWTMP   4.3254E+02  1.9467E+02  5.3447E+02
:PLANE:  PW TOTAL      4.4117 DISTAN   9.48E-05  2.15E-03 %
:CHARG:  CLM/ATOM   1381.9554 DISTAN   8.40E-04  6.08E-05 %
 
Step History
        DMIX         DMIXT        Red     Pred      Trust     Lambda    MagRel    MagAbs     Beta
  1   3.5000E-02   3.5000E-02 -1.00E+00  1.00E+00 -1.00E+01  1.00E+00  3.50E-02  3.50E-02  1.00E+00
  2   1.5000E-01   1.5000E-01  5.75E-01  1.00E+00 -1.00E+01  1.00E+00  1.50E-01  5.49E-03  1.00E+00
  3   7.1250E-02   7.1250E-02  5.35E-01  6.04E-01  3.00E+00  5.24E-01  2.71E-01  5.70E-03  1.00E+00
  4   1.7813E-01   1.7813E-01  5.71E-01  2.81E-01  4.00E+00  2.04E+00  5.30E-01  5.97E-03  1.00E+00
  5   1.6965E-01   1.6965E-01  1.72E-01  1.93E-01  5.33E+00  1.98E+00  4.71E-01  3.03E-03  1.00E+00
  6   2.1696E-01   2.1696E-01  5.22E-01  4.59E-01  7.11E+00  1.75E+00  7.98E-01  8.84E-04  8.00E-01
  7   2.1380E-01   2.1380E-01  2.23E-01  2.37E-01  9.48E+00  1.68E+00  5.27E-01  3.05E-04  1.00E+00
  8   2.3924E-01   2.3924E-01  5.00E+00  5.12E-01  1.26E+01  1.75E+00  6.90E-01  8.91E-05  1.00E+00
  9   2.0056E-01   2.0056E-01  2.19E-01  4.28E-02  7.30E+00  5.45E-01  7.84E-01  5.18E-04  1.00E+00
 10   1.0512E-01   1.0512E-01 -1.00E+00  1.95E-01  9.73E+00  1.00E+00  1.93E-01  2.79E-05  9.65E-01
:JACOBIANS    4.404E-01   3.371E+00
  
:NORMS:  1/Froebius, Min, Max, Used   0.1022E+01  0.4175E+00  0.1099E+01  0.1099E+01
:INFO :  Number of Memory Steps    9 Skipping    0
:INFO :  SLambda=    1.0000000000  Max    1.0000000000
:PREDicted Charge, CTotal, PW Trust    9.681E-05   1.936E-04   1.325E-04
:PREDicted DMix, Beta, BLim   1.0136E-02  1.0990E+01  2.5822E+00

Eigenvalues, unscaled except for SY+YY
   #     SY Real        SY Imag          SS             YY         SY+YY Real      SY+YY Imag
   1  -1.958121E+00   0.000000E+00   8.477205E+00   7.017123E+00   3.812231E+00   0.000000E+00
   2   6.076729E-01   2.260727E-01   6.462417E-01   9.547518E-01   2.598977E+00   0.000000E+00
   3   6.076729E-01  -2.260727E-01   2.669731E-01   8.524349E-01   1.530434E+00   0.000000E+00
   4  -2.789355E-02   0.000000E+00   3.707325E-03   1.708802E-01   2.819556E-01   0.000000E+00
   5  -1.684158E-04   0.000000E+00   4.678898E-05   3.503652E-03   4.776246E-03   0.000000E+00
   6   2.282690E-04   0.000000E+00   1.725458E-05   1.134587E-03   8.706455E-04   0.000000E+00
   7   2.945364E-05   0.000000E+00   9.003419E-06   1.245792E-04   1.536492E-04   0.000000E+00
   8   1.195195E-05   0.000000E+00   9.094723E-07   3.827968E-05   5.812634E-06   0.000000E+00
   9   1.840463E-06   0.000000E+00   3.484948E-07   8.577905E-06   3.102998E-05   0.000000E+00
 
:INFO :  Singular value  7.617E+00 Weight  1.000E+00 Projection -3.003E-04
:INFO :  Singular value  2.004E+00 Weight  1.000E+00 Projection  7.329E-05
:INFO :  Singular value  1.503E+00 Weight  1.000E+00 Projection -1.631E-04
:INFO :  Singular value  1.882E-01 Weight  1.000E+00 Projection  9.328E-05
:INFO :  Singular value  4.830E-03 Weight  9.793E-01 Projection -9.052E-04
:INFO :  Singular value  1.030E-03 Weight  6.830E-01 Projection -1.240E-04
:INFO :  Singular value  1.497E-04 Weight  4.353E-02 Projection -3.522E-05
:INFO :  Singular value  2.893E-05 Weight  1.697E-03 Projection  7.389E-06
:INFO :  Singular value  5.297E-06 Weight  5.697E-05 Projection  1.284E-06
:RANK :  ACTIVE   5.71/9  =  63.42 % ; YY RANK   5.72/9  =  63.54 %
 
:BLIM :  VZERO Control Off
:TRUST:  Step 3.10E+00  Charge 1.04E-02 (e) CTO  3.47E-02 (e) PW  4.85E-02 (e)
:DIRM :  MEMORY  9/8  SCALE   1.000 RED  5.00 PRED  0.19 NEXT  0.03 
:TRAVE:  Charge 6.74E-05 (e) CTO  1.35E-04 (e) PW  9.32E-05 (e)
:DIRP :  |MSR1|= 2.383E-05 |PRATT|= 9.484E-05 ANGLE= 136.4 DEGREES
:DIRQ :  |MSR1|= 1.244E-04 |PRATT|= 8.398E-04 ANGLE= 142.9 DEGREES
:DIRT :  |MSR1|= 1.267E-04 |PRATT|= 8.452E-04 ANGLE= 142.6 DEGREES
:MIX  :   MSE1   REGULARIZATION:  7.02E-04 GREED: 0.08378  Newton 1.00  0.1499                
     
       CHARGES OF MIXED CHARGE DENSITY
:CTO   : INTERSTITIAL CHARGE =     7.052089
:CPC   : PW Pseudocharge     =    16.930515
:CTO001: CHARGE SPHERE  1    =    55.473955

:NEC03: NUCLEAR AND ELECTRONIC CHARGE    118.00000   118.00000

PW CHANGE     H    K    L      Current       Change    Residue
:PTO001:      0    0    0  4.48719238E-02  2.850E-07 -1.801E-06
:PTO003:      0    2    0  1.29047713E-02  4.957E-08  8.828E-08
:PTO004:     -1    1    0  6.44659394E-02  2.682E-07 -4.587E-07
:PTO005:      0    2   -1 -7.53852796E-02 -2.846E-07  2.274E-07
:PTO006:      0    0   -2 -3.90367450E-02 -1.807E-07  4.085E-07
:PTO007:     -1    1   -1 -8.27687588E-02 -3.149E-07  9.659E-07
:PTO008:      0    2   -2 -1.40371872E-02 -6.070E-08 -1.256E-08
:PTO009:     -1    1   -2 -7.24810486E-02 -1.936E-07  4.252E-08
:PTO011:     -1    3    0 -1.22299719E-02 -9.570E-08  2.777E-07
:PTO012:     -1    3   -1 -5.57258595E-02 -3.146E-07  2.987E-08
:PTO013:      0    4    0 -1.04516604E-02 -8.472E-08  6.042E-08
:PTO014:      0    2   -3  2.37233499E-02  1.550E-07  5.849E-08

:ENE  : ********** TOTAL ENERGY IN Ry =       -36944.21985534

       TOTAL FORCE IN mRy/a.u. = |F|     Fx             Fy             Fz     with/without FOR in case.in2
:FOR001:   1.ATOM         18.168          0.000          0.000        -18.168 partial forces
       TOTAL FORCE WITH RESPECT TO GLOBAL CARTESIAN COORDINATES:
:FCA001:   1.ATOM                         0.000        -18.168          0.000 partial forces
       TOTAL FORCE WITH RESPECT TO THE GLOBAL COORDINATE SYSTEM:
:FGL001:   1.ATOM                 0.000000000   -18.167744526     0.000000000 partial forces
